                         Program Version 4.2.1 -  RELEASE  -
|  1> ! wB97X-D3 SP def2-SVP
|  2> %pal
|  3> nprocs 16
|  4> end
|  5>
|  6> * xyz 0 1
|  7> S 	 -49.0065 	 54.0785 	 100.922
|  8> C 	 -47.4084 	 53.6108 	 101.389
|  9> C 	 -46.5595 	 53.3636 	 100.326
| 10> C 	 -47.2564 	 53.4008 	 99.0911
| 11> C 	 -48.623 	 53.4721 	 99.2604
| 12> H 	 -46.7958 	 53.2107 	 98.1211
| 13> C 	 -45.0368 	 53.1949 	 100.319
| 14> H 	 -44.7112 	 52.3827 	 99.6585
| 15> H 	 -44.7654 	 52.7456 	 101.304
| 16> C 	 -44.2383 	 54.4878 	 99.9529
| 17> H 	 -43.1617 	 54.2872 	 99.8232
| 18> H 	 -44.4939 	 54.9563 	 99.0295
| 19> C 	 -44.21 	 55.5507 	 101.018
| 20> H 	 -45.1321 	 56.0295 	 101.188
| 21> H 	 -43.8957 	 55.0629 	 101.969
| 22> H 	 -43.5802 	 56.3728 	 100.675
| 23> S 	 -50.0281 	 51.5941 	 97.8912
| 24> C 	 -50.9489 	 52.0702 	 96.4769
| 25> C 	 -50.6754 	 53.3264 	 96.0899
| 26> C 	 -49.7757 	 54.0101 	 96.982
| 27> C 	 -49.5637 	 53.2748 	 98.1391
| 28> H 	 -51.1496 	 53.73 	 95.1659
| 29> C 	 -49.1557 	 55.3321 	 96.5749
| 30> H 	 -48.575 	 55.294 	 95.7234
| 31> H 	 -48.5014 	 55.5858 	 97.3965
| 32> C 	 -50.3356 	 56.3676 	 96.5
| 33> H 	 -50.782 	 56.4661 	 97.4912
| 34> H 	 -51.1729 	 56.1773 	 95.8365
| 35> C 	 -49.8095 	 57.752 	 96.0311
| 36> H 	 -48.8295 	 58.0928 	 96.5882
| 37> H 	 -50.5622 	 58.5068 	 96.1143
| 38> H 	 -49.429 	 57.6528 	 95.0203
| 39> H 	 -47.0778 	 53.612 	 102.372
| 40> H 	 -51.5308 	 51.3569 	 95.8447
| 41> *
| 42>
| 43>                          ****END OF INPUT****

CARTESIAN COORDINATES (ANGSTROEM)
---------------------------------
  S    -49.006500   54.078500  100.922000
  C    -47.408400   53.610800  101.389000
  C    -46.559500   53.363600  100.326000
  C    -47.256400   53.400800   99.091100
  C    -48.623000   53.472100   99.260400
  H    -46.795800   53.210700   98.121100
  C    -45.036800   53.194900  100.319000
  H    -44.711200   52.382700   99.658500
  H    -44.765400   52.745600  101.304000
  C    -44.238300   54.487800   99.952900
  H    -43.161700   54.287200   99.823200
  H    -44.493900   54.956300   99.029500
  C    -44.210000   55.550700  101.018000
  H    -45.132100   56.029500  101.188000
  H    -43.895700   55.062900  101.969000
  H    -43.580200   56.372800  100.675000
  S    -50.028100   51.594100   97.891200
  C    -50.948900   52.070200   96.476900
  C    -50.675400   53.326400   96.089900
  C    -49.775700   54.010100   96.982000
  C    -49.563700   53.274800   98.139100
  H    -51.149600   53.730000   95.165900
  C    -49.155700   55.332100   96.574900
  H    -48.575000   55.294000   95.723400
  H    -48.501400   55.585800   97.396500
  C    -50.335600   56.367600   96.500000
  H    -50.782000   56.466100   97.491200
  H    -51.172900   56.177300   95.836500
  C    -49.809500   57.752000   96.031100
  H    -48.829500   58.092800   96.588200
  H    -50.562200   58.506800   96.114300
  H    -49.429000   57.652800   95.020300
  H    -47.077800   53.612000  102.372000
  H    -51.530800   51.356900   95.844700

 Total Charge           Charge          ....    0
 Multiplicity           Mult            ....    1
 Number of Electrons    NEL             ....  134
 Basis Dimension        Dim             ....  322

ORBITAL ENERGIES
----------------

  NO   OCC          E(Eh)            E(eV)
   0   2.0000     -88.967768     -2420.9360
   1   2.0000     -88.959200     -2420.7029
   2   2.0000     -10.329524      -281.0806
   3   2.0000     -10.323189      -280.9082
   4   2.0000     -10.314334      -280.6673
   5   2.0000     -10.309554      -280.5372
   6   2.0000     -10.303921      -280.3839
   7   2.0000     -10.300507      -280.2911
   8   2.0000     -10.298979      -280.2495
   9   2.0000     -10.292810      -280.0816
  10   2.0000     -10.290353      -280.0147
  11   2.0000     -10.289289      -279.9858
  12   2.0000     -10.288763      -279.9715
  13   2.0000     -10.286664      -279.9144
  14   2.0000     -10.281671      -279.7785
  15   2.0000     -10.271201      -279.4936
  16   2.0000      -8.081911      -219.9200
  17   2.0000      -8.074165      -219.7092
  18   2.0000      -6.040430      -164.3685
  19   2.0000      -6.036838      -164.2707
  20   2.0000      -6.032710      -164.1584
  21   2.0000      -6.032373      -164.1492
  22   2.0000      -6.028947      -164.0560
  23   2.0000      -6.024545      -163.9362
  24   2.0000      -1.003714       -27.3124
  25   2.0000      -0.984037       -26.7770
  26   2.0000      -0.907091       -24.6832
  27   2.0000      -0.906004       -24.6536
  28   2.0000      -0.868968       -23.6458
  29   2.0000      -0.851901       -23.1814
  30   2.0000      -0.843615       -22.9559
  31   2.0000      -0.812642       -22.1131
  32   2.0000      -0.780924       -21.2500
  33   2.0000      -0.768843       -20.9213
  34   2.0000      -0.703443       -19.1417
  35   2.0000      -0.699352       -19.0303
  36   2.0000      -0.695226       -18.9181
  37   2.0000      -0.652612       -17.7585
  38   2.0000      -0.642323       -17.4785
  39   2.0000      -0.618710       -16.8359
  40   2.0000      -0.595485       -16.2040
  41   2.0000      -0.566416       -15.4130
  42   2.0000      -0.560179       -15.2432
  43   2.0000      -0.551652       -15.0112
  44   2.0000      -0.543322       -14.7846
  45   2.0000      -0.532475       -14.4894
  46   2.0000      -0.518451       -14.1078
  47   2.0000      -0.508648       -13.8410
  48   2.0000      -0.498980       -13.5779
  49   2.0000      -0.492564       -13.4033
  50   2.0000      -0.487844       -13.2749
  51   2.0000      -0.475831       -12.9480
  52   2.0000      -0.467861       -12.7311
  53   2.0000      -0.455731       -12.4011
  54   2.0000      -0.453621       -12.3437
  55   2.0000      -0.448265       -12.1979
  56   2.0000      -0.444542       -12.0966
  57   2.0000      -0.439981       -11.9725
  58   2.0000      -0.437317       -11.9000
  59   2.0000      -0.426925       -11.6172
  60   2.0000      -0.422777       -11.5043
  61   2.0000      -0.416667       -11.3381
  62   2.0000      -0.412711       -11.2304
  63   2.0000      -0.337122        -9.1735
  64   2.0000      -0.326553        -8.8860
  65   2.0000      -0.312235        -8.4963
  66   2.0000      -0.309579        -8.4241
  67   0.0000       0.038731         1.0539
  68   0.0000       0.053208         1.4479
  69   0.0000       0.100535         2.7357
  70   0.0000       0.110404         3.0043
  71   0.0000       0.133504         3.6328

MULLIKEN ATOMIC CHARGES
-----------------------
   0 S :    0.115936
   1 C :   -0.083792
   2 C :   -0.081588
   3 C :    0.044462
   4 C :   -0.183472
   5 H :    0.021903
   6 C :    0.059804
   7 H :    0.029763
   8 H :    0.021380
   9 C :   -0.057625
  10 H :    0.027928
  11 H :    0.017927
  12 C :   -0.041922
  13 H :    0.021499
  14 H :    0.028881
  15 H :    0.030006
  16 S :    0.094817
  17 C :   -0.093327
  18 C :   -0.040867
  19 C :   -0.050498
  20 C :   -0.174026
  21 H :    0.032421
  22 C :    0.140798
  23 H :    0.018806
  24 H :    0.020286
  25 C :   -0.111843
  26 H :    0.035444
  27 H :    0.037132
  28 C :   -0.055474
  29 H :    0.031827
  30 H :    0.037638
  31 H :    0.023824
  32 H :    0.016085
  33 H :    0.065867
Sum of atomic charges:   -0.0000000

LOEWDIN ATOMIC CHARGES
----------------------
   0 S :    0.387969
   1 C :   -0.184868
   2 C :   -0.067143
   3 C :   -0.048735
   4 C :   -0.187762
   5 H :    0.034423
   6 C :   -0.032975
   7 H :    0.031876
   8 H :    0.032477
   9 C :   -0.041112
  10 H :    0.028963
  11 H :    0.019343
  12 C :   -0.063281
  13 H :    0.014535
  14 H :    0.027156
  15 H :    0.028547
  16 S :    0.393472
  17 C :   -0.183503
  18 C :   -0.081117
  19 C :   -0.045257
  20 C :   -0.202670
  21 H :    0.038572
  22 C :   -0.015528
  23 H :    0.020719
  24 H :    0.032843
  25 C :   -0.035772
  26 H :    0.027325
  27 H :    0.022954
  28 C :   -0.072395
  29 H :    0.031519
  30 H :    0.020029
  31 H :    0.019981
  32 H :    0.012173
  33 H :    0.037245

  Mayer bond orders larger than 0.100000
B(  0-S ,  1-C ) :   1.1400 B(  0-S ,  4-C ) :   1.1234 B(  1-C ,  2-C ) :   1.6207
B(  1-C , 32-H ) :   0.9748 B(  2-C ,  3-C ) :   1.2288 B(  2-C ,  6-C ) :   1.0260
B(  3-C ,  4-C ) :   1.5925 B(  3-C ,  5-H ) :   0.9931 B(  4-C , 20-C ) :   1.0213
B(  6-C ,  7-H ) :   0.9422 B(  6-C ,  8-H ) :   0.9433 B(  6-C ,  9-C ) :   1.0585
B(  9-C , 10-H ) :   0.9560 B(  9-C , 11-H ) :   0.9566 B(  9-C , 12-C ) :   1.0837
B( 12-C , 13-H ) :   0.9760 B( 12-C , 14-H ) :   0.9747 B( 12-C , 15-H ) :   0.9710
B( 16-S , 17-C ) :   1.1405 B( 16-S , 20-C ) :   1.1304 B( 17-C , 18-C ) :   1.6590
B( 17-C , 33-H ) :   0.9591 B( 18-C , 19-C ) :   1.1960 B( 18-C , 21-H ) :   0.9842
B( 19-C , 20-C ) :   1.6327 B( 19-C , 22-C ) :   1.0429 B( 22-C , 23-H ) :   0.9429
B( 22-C , 24-H ) :   0.9235 B( 22-C , 25-C ) :   1.0491 B( 25-C , 26-H ) :   0.9556
B( 25-C , 27-H ) :   0.9639 B( 25-C , 28-C ) :   1.0798 B( 28-C , 29-H ) :   0.9733
B( 28-C , 30-H ) :   0.9754 B( 28-C , 31-H ) :   0.9743

Dispersion correction           -0.014396902
FINAL SINGLE POINT ENERGY     -1339.854940598122

DIPOLE MOMENT
-------------
                                X             Y             Z
Electronic contribution:    -16.00326     -19.19736       5.98038
Nuclear contribution   :     16.49224      19.48049      -6.47537
                        -----------------------------------------
Total Dipole Moment    :      0.48899       0.28314      -0.49499
                        -----------------------------------------
Magnitude (a.u.)       :      0.75119
Magnitude (Debye)      :      1.90938

Rotational constants in cm-1:     0.017707     0.008485     0.006902
Rotational constants in MHz :   530.847428   254.369615   206.917780

                             ****ORCA TERMINATED NORMALLY****
TOTAL RUN TIME: 0 days 0 hours 0 minutes 30 seconds 52 msec
