                         Program Version 4.2.1 -  RELEASE  -
|  1> ! wB97X-D3 SP def2-SVP
|  2> %pal
|  3> nprocs 16
|  4> end
|  5>
|  6> * xyz 0 1
|  7> S 	 42.2683 	 12.2871 	 89.6795
|  8> C 	 43.6794 	 12.6677 	 88.6921
|  9> C 	 43.8129 	 11.6158 	 87.7738
| 10> C 	 42.7388 	 10.6364 	 87.8241
| 11> C 	 41.8716 	 10.8935 	 88.8108
| 12> H 	 42.6326 	 9.74871 	 87.2561
| 13> C 	 44.9294 	 11.6733 	 86.7086
| 14> H 	 45.5684 	 10.8329 	 87.0177
| 15> H 	 45.5063 	 12.5063 	 87.0255
| 16> C 	 44.587 	 11.7419 	 85.1575
| 17> H 	 45.5139 	 11.6094 	 84.5183
| 18> H 	 43.9749 	 10.8868 	 84.9109
| 19> C 	 43.8179 	 12.9957 	 84.8447
| 20> H 	 42.948 	 13.1414 	 85.3809
| 21> H 	 44.4386 	 13.8406 	 84.8688
| 22> H 	 43.6166 	 12.836 	 83.7541
| 23> S 	 39.1587 	 10.5054 	 89.4221
| 24> C 	 38.6822 	 9.10104 	 90.395
| 25> C 	 39.7036 	 8.1483 	 90.3324
| 26> C 	 40.8712 	 8.67191 	 89.6775
| 27> C 	 40.8188 	 9.98995 	 89.3293
| 28> H 	 39.585 	 7.20434 	 90.8685
| 29> C 	 42.128 	 7.80872 	 89.6399
| 30> H 	 42.5939 	 7.97119 	 88.6789
| 31> H 	 41.661 	 6.79219 	 89.7068
| 32> C 	 43.0809 	 8.1266 	 90.7803
| 33> H 	 42.5497 	 8.0763 	 91.7494
| 34> H 	 43.4238 	 9.14851 	 90.7664
| 35> C 	 44.3472 	 7.26545 	 90.7972
| 36> H 	 44.0715 	 6.17342 	 90.843
| 37> H 	 44.9376 	 7.39846 	 91.7065
| 38> H 	 45.053 	 7.5367 	 89.9999
| 39> H 	 44.2213 	 13.6056 	 88.6822
| 40> H 	 37.6803 	 8.92809 	 90.7816
| 41> *
| 42>
| 43>                          ****END OF INPUT****

CARTESIAN COORDINATES (ANGSTROEM)
---------------------------------
  S     42.268300   12.287100   89.679500
  C     43.679400   12.667700   88.692100
  C     43.812900   11.615800   87.773800
  C     42.738800   10.636400   87.824100
  C     41.871600   10.893500   88.810800
  H     42.632600    9.748710   87.256100
  C     44.929400   11.673300   86.708600
  H     45.568400   10.832900   87.017700
  H     45.506300   12.506300   87.025500
  C     44.587000   11.741900   85.157500
  H     45.513900   11.609400   84.518300
  H     43.974900   10.886800   84.910900
  C     43.817900   12.995700   84.844700
  H     42.948000   13.141400   85.380900
  H     44.438600   13.840600   84.868800
  H     43.616600   12.836000   83.754100
  S     39.158700   10.505400   89.422100
  C     38.682200    9.101040   90.395000
  C     39.703600    8.148300   90.332400
  C     40.871200    8.671910   89.677500
  C     40.818800    9.989950   89.329300
  H     39.585000    7.204340   90.868500
  C     42.128000    7.808720   89.639900
  H     42.593900    7.971190   88.678900
  H     41.661000    6.792190   89.706800
  C     43.080900    8.126600   90.780300
  H     42.549700    8.076300   91.749400
  H     43.423800    9.148510   90.766400
  C     44.347200    7.265450   90.797200
  H     44.071500    6.173420   90.843000
  H     44.937600    7.398460   91.706500
  H     45.053000    7.536700   89.999900
  H     44.221300   13.605600   88.682200
  H     37.680300    8.928090   90.781600

 Total Charge           Charge          ....    0
 Multiplicity           Mult            ....    1
 Number of Electrons    NEL             ....  134
 Basis Dimension        Dim             ....  322

ORBITAL ENERGIES
----------------

  NO   OCC          E(Eh)            E(eV)
   0   2.0000     -88.963920     -2420.8313
   1   2.0000     -88.962683     -2420.7977
   2   2.0000     -10.325692      -280.9764
   3   2.0000     -10.324304      -280.9386
   4   2.0000     -10.322466      -280.8886
   5   2.0000     -10.318285      -280.7748
   6   2.0000     -10.309641      -280.5396
   7   2.0000     -10.300492      -280.2906
   8   2.0000     -10.298804      -280.2447
   9   2.0000     -10.294639      -280.1314
  10   2.0000     -10.291331      -280.0413
  11   2.0000     -10.291130      -280.0359
  12   2.0000     -10.290522      -280.0193
  13   2.0000     -10.281794      -279.7818
  14   2.0000     -10.278467      -279.6913
  15   2.0000     -10.267954      -279.4052
  16   2.0000      -8.079573      -219.8564
  17   2.0000      -8.077326      -219.7952
  18   2.0000      -6.038041      -164.3034
  19   2.0000      -6.035873      -164.2445
  20   2.0000      -6.033782      -164.1875
  21   2.0000      -6.031860      -164.1353
  22   2.0000      -6.030448      -164.0968
  23   2.0000      -6.028031      -164.0311
  24   2.0000      -1.012913       -27.5628
  25   2.0000      -0.987120       -26.8609
  26   2.0000      -0.907442       -24.6928
  27   2.0000      -0.906716       -24.6730
  28   2.0000      -0.870520       -23.6880
  29   2.0000      -0.850142       -23.1335
  30   2.0000      -0.844333       -22.9755
  31   2.0000      -0.822116       -22.3709
  32   2.0000      -0.780565       -21.2403
  33   2.0000      -0.768682       -20.9169
  34   2.0000      -0.709396       -19.3037
  35   2.0000      -0.697241       -18.9729
  36   2.0000      -0.689827       -18.7711
  37   2.0000      -0.663142       -18.0450
  38   2.0000      -0.646724       -17.5983
  39   2.0000      -0.620537       -16.8857
  40   2.0000      -0.589993       -16.0545
  41   2.0000      -0.569239       -15.4898
  42   2.0000      -0.560646       -15.2560
  43   2.0000      -0.554559       -15.0903
  44   2.0000      -0.543164       -14.7802
  45   2.0000      -0.524227       -14.2649
  46   2.0000      -0.520313       -14.1584
  47   2.0000      -0.514777       -14.0078
  48   2.0000      -0.509344       -13.8600
  49   2.0000      -0.499042       -13.5796
  50   2.0000      -0.491663       -13.3788
  51   2.0000      -0.486682       -13.2433
  52   2.0000      -0.470329       -12.7983
  53   2.0000      -0.464150       -12.6302
  54   2.0000      -0.463308       -12.6073
  55   2.0000      -0.450791       -12.2666
  56   2.0000      -0.437761       -11.9121
  57   2.0000      -0.431723       -11.7478
  58   2.0000      -0.429883       -11.6977
  59   2.0000      -0.420100       -11.4315
  60   2.0000      -0.418297       -11.3824
  61   2.0000      -0.411861       -11.2073
  62   2.0000      -0.407562       -11.0903
  63   2.0000      -0.342676        -9.3247
  64   2.0000      -0.330023        -8.9804
  65   2.0000      -0.327852        -8.9213
  66   2.0000      -0.303754        -8.2656
  67   0.0000       0.031336         0.8527
  68   0.0000       0.071124         1.9354
  69   0.0000       0.109244         2.9727
  70   0.0000       0.125914         3.4263
  71   0.0000       0.129633         3.5275

MULLIKEN ATOMIC CHARGES
-----------------------
   0 S :    0.113265
   1 C :   -0.123498
   2 C :   -0.149784
   3 C :    0.043139
   4 C :   -0.129439
   5 H :    0.003340
   6 C :    0.078668
   7 H :    0.032951
   8 H :   -0.005044
   9 C :   -0.069957
  10 H :    0.042027
  11 H :    0.026610
  12 C :   -0.015342
  13 H :    0.039024
  14 H :    0.017005
  15 H :    0.030888
  16 S :    0.098814
  17 C :   -0.101400
  18 C :   -0.048347
  19 C :   -0.049012
  20 C :   -0.160374
  21 H :    0.033314
  22 C :    0.091591
  23 H :    0.009734
  24 H :    0.026692
  25 C :   -0.060447
  26 H :    0.023090
  27 H :    0.029761
  28 C :   -0.052590
  29 H :    0.032894
  30 H :    0.027303
  31 H :    0.038359
  32 H :    0.061822
  33 H :    0.064942
Sum of atomic charges:    0.0000000

LOEWDIN ATOMIC CHARGES
----------------------
   0 S :    0.428659
   1 C :   -0.204459
   2 C :   -0.055404
   3 C :   -0.069565
   4 C :   -0.205141
   5 H :    0.027341
   6 C :   -0.039038
   7 H :    0.033490
   8 H :    0.020150
   9 C :   -0.038107
  10 H :    0.034331
  11 H :    0.020040
  12 C :   -0.054572
  13 H :    0.018991
  14 H :    0.017655
  15 H :    0.036345
  16 S :    0.396192
  17 C :   -0.174605
  18 C :   -0.076276
  19 C :   -0.057242
  20 C :   -0.206912
  21 H :    0.036201
  22 C :   -0.028919
  23 H :    0.023339
  24 H :    0.035066
  25 C :   -0.043417
  26 H :    0.027218
  27 H :    0.025759
  28 C :   -0.073045
  29 H :    0.028065
  30 H :    0.026042
  31 H :    0.026947
  32 H :    0.033233
  33 H :    0.031638

  Mayer bond orders larger than 0.100000
B(  0-S ,  1-C ) :   1.1276 B(  0-S ,  4-C ) :   1.1808 B(  1-C ,  2-C ) :   1.5992
B(  1-C , 32-H ) :   0.9716 B(  2-C ,  3-C ) :   1.2107 B(  2-C ,  6-C ) :   1.0216
B(  3-C ,  4-C ) :   1.5865 B(  3-C ,  5-H ) :   1.0099 B(  4-C , 20-C ) :   0.9876
B(  6-C ,  7-H ) :   0.9328 B(  6-C ,  8-H ) :   0.9412 B(  6-C ,  9-C ) :   1.0491
B(  9-C , 10-H ) :   0.9556 B(  9-C , 11-H ) :   0.9599 B(  9-C , 12-C ) :   1.0740
B( 12-C , 13-H ) :   0.9781 B( 12-C , 14-H ) :   0.9760 B( 12-C , 15-H ) :   0.9709
B( 16-S , 17-C ) :   1.1595 B( 16-S , 20-C ) :   1.1394 B( 17-C , 18-C ) :   1.5999
B( 17-C , 20-C ) :   0.1008 B( 17-C , 33-H ) :   0.9683 B( 18-C , 19-C ) :   1.2393
B( 18-C , 21-H ) :   0.9885 B( 19-C , 20-C ) :   1.6075 B( 19-C , 22-C ) :   1.0409
B( 22-C , 23-H ) :   0.9270 B( 22-C , 24-H ) :   0.9319 B( 22-C , 25-C ) :   1.0726
B( 25-C , 26-H ) :   0.9521 B( 25-C , 27-H ) :   0.9516 B( 25-C , 28-C ) :   1.0888
B( 28-C , 29-H ) :   0.9741 B( 28-C , 30-H ) :   0.9722 B( 28-C , 31-H ) :   0.9741

Dispersion correction           -0.014970455
FINAL SINGLE POINT ENERGY     -1339.870583557043

DIPOLE MOMENT
-------------
                                X             Y             Z
Electronic contribution:    -20.37589       8.37099       9.71032
Nuclear contribution   :     20.78212      -8.71080      -9.91562
                        -----------------------------------------
Total Dipole Moment    :      0.40623      -0.33981      -0.20530
                        -----------------------------------------
Magnitude (a.u.)       :      0.56802
Magnitude (Debye)      :      1.44379

Rotational constants in cm-1:     0.019012     0.008819     0.007265
Rotational constants in MHz :   569.974360   264.376458   217.808206

                             ****ORCA TERMINATED NORMALLY****
TOTAL RUN TIME: 0 days 0 hours 0 minutes 29 seconds 531 msec
