                         Program Version 4.2.1 -  RELEASE  -
|  1> ! wB97X-D3 SP def2-SVP
|  2> %pal
|  3> nprocs 16
|  4> end
|  5>
|  6> * xyz 0 1
|  7> S 	 36.4386 	 13.9918 	 82.6362
|  8> C 	 36.2602 	 15.7254 	 82.4393
|  9> C 	 36.6231 	 16.5153 	 83.5511
| 10> C 	 37.0971 	 15.638 	 84.5782
| 11> C 	 37.1411 	 14.2813 	 84.2368
| 12> H 	 37.2752 	 15.9489 	 85.5691
| 13> C 	 36.4464 	 17.9532 	 83.8667
| 14> H 	 37.4391 	 18.3516 	 84.1494
| 15> H 	 35.9112 	 17.8939 	 84.7586
| 16> C 	 35.7714 	 18.8578 	 82.7822
| 17> H 	 34.9849 	 18.3023 	 82.2985
| 18> H 	 35.3166 	 19.7553 	 83.2577
| 19> C 	 36.7587 	 19.4448 	 81.7853
| 20> H 	 36.4274 	 20.3403 	 81.2469
| 21> H 	 37.6618 	 19.7278 	 82.2449
| 22> H 	 37.0986 	 18.7149 	 81.0646
| 23> S 	 36.3692 	 11.7656 	 85.0642
| 24> C 	 37.0967 	 11.0011 	 86.4564
| 25> C 	 38.1898 	 11.7456 	 86.8031
| 26> C 	 38.3647 	 13.0028 	 86.1069
| 27> C 	 37.4214 	 13.1592 	 85.1254
| 28> H 	 38.8808 	 11.4582 	 87.5836
| 29> C 	 39.4483 	 14.0221 	 86.3433
| 30> H 	 39.4156 	 14.7285 	 85.4417
| 31> H 	 40.3452 	 13.4112 	 86.1923
| 32> C 	 39.2111 	 14.8902 	 87.5646
| 33> H 	 38.1407 	 15.0091 	 87.6373
| 34> H 	 39.6357 	 15.9422 	 87.6386
| 35> C 	 39.6819 	 14.1977 	 88.9519
| 36> H 	 40.7577 	 14.2733 	 89.0985
| 37> H 	 39.347 	 13.1292 	 89.0679
| 38> H 	 39.2831 	 14.7872 	 89.8197
| 39> H 	 35.6744 	 16.0621 	 81.6042
| 40> H 	 36.9175 	 10.0595 	 86.9476
| 41> *
| 42>
| 43>                          ****END OF INPUT****

CARTESIAN COORDINATES (ANGSTROEM)
---------------------------------
  S     36.438600   13.991800   82.636200
  C     36.260200   15.725400   82.439300
  C     36.623100   16.515300   83.551100
  C     37.097100   15.638000   84.578200
  C     37.141100   14.281300   84.236800
  H     37.275200   15.948900   85.569100
  C     36.446400   17.953200   83.866700
  H     37.439100   18.351600   84.149400
  H     35.911200   17.893900   84.758600
  C     35.771400   18.857800   82.782200
  H     34.984900   18.302300   82.298500
  H     35.316600   19.755300   83.257700
  C     36.758700   19.444800   81.785300
  H     36.427400   20.340300   81.246900
  H     37.661800   19.727800   82.244900
  H     37.098600   18.714900   81.064600
  S     36.369200   11.765600   85.064200
  C     37.096700   11.001100   86.456400
  C     38.189800   11.745600   86.803100
  C     38.364700   13.002800   86.106900
  C     37.421400   13.159200   85.125400
  H     38.880800   11.458200   87.583600
  C     39.448300   14.022100   86.343300
  H     39.415600   14.728500   85.441700
  H     40.345200   13.411200   86.192300
  C     39.211100   14.890200   87.564600
  H     38.140700   15.009100   87.637300
  H     39.635700   15.942200   87.638600
  C     39.681900   14.197700   88.951900
  H     40.757700   14.273300   89.098500
  H     39.347000   13.129200   89.067900
  H     39.283100   14.787200   89.819700
  H     35.674400   16.062100   81.604200
  H     36.917500   10.059500   86.947600

 Total Charge           Charge          ....    0
 Multiplicity           Mult            ....    1
 Number of Electrons    NEL             ....  134
 Basis Dimension        Dim             ....  322

ORBITAL ENERGIES
----------------

  NO   OCC          E(Eh)            E(eV)
   0   2.0000     -88.969075     -2420.9716
   1   2.0000     -88.962917     -2420.8040
   2   2.0000     -10.333470      -281.1880
   3   2.0000     -10.323734      -280.9231
   4   2.0000     -10.317105      -280.7427
   5   2.0000     -10.316253      -280.7195
   6   2.0000     -10.307164      -280.4722
   7   2.0000     -10.299071      -280.2520
   8   2.0000     -10.298321      -280.2316
   9   2.0000     -10.295673      -280.1595
  10   2.0000     -10.295556      -280.1563
  11   2.0000     -10.294314      -280.1225
  12   2.0000     -10.293592      -280.1029
  13   2.0000     -10.292852      -280.0827
  14   2.0000     -10.287663      -279.9416
  15   2.0000     -10.272957      -279.5414
  16   2.0000      -8.083384      -219.9601
  17   2.0000      -8.077833      -219.8090
  18   2.0000      -6.041851      -164.4071
  19   2.0000      -6.038147      -164.3063
  20   2.0000      -6.036557      -164.2631
  21   2.0000      -6.034045      -164.1947
  22   2.0000      -6.032233      -164.1454
  23   2.0000      -6.028412      -164.0414
  24   2.0000      -1.007395       -27.4126
  25   2.0000      -0.982937       -26.7471
  26   2.0000      -0.916027       -24.9264
  27   2.0000      -0.906717       -24.6730
  28   2.0000      -0.868789       -23.6410
  29   2.0000      -0.857605       -23.3366
  30   2.0000      -0.838083       -22.8054
  31   2.0000      -0.813716       -22.1423
  32   2.0000      -0.784805       -21.3556
  33   2.0000      -0.772375       -21.0174
  34   2.0000      -0.716716       -19.5028
  35   2.0000      -0.703975       -19.1561
  36   2.0000      -0.694033       -18.8856
  37   2.0000      -0.665501       -18.1092
  38   2.0000      -0.640932       -17.4407
  39   2.0000      -0.614551       -16.7228
  40   2.0000      -0.590445       -16.0668
  41   2.0000      -0.575367       -15.6565
  42   2.0000      -0.560355       -15.2480
  43   2.0000      -0.548570       -14.9273
  44   2.0000      -0.539506       -14.6807
  45   2.0000      -0.534959       -14.5570
  46   2.0000      -0.517604       -14.0847
  47   2.0000      -0.514165       -13.9911
  48   2.0000      -0.498540       -13.5660
  49   2.0000      -0.496980       -13.5235
  50   2.0000      -0.491241       -13.3674
  51   2.0000      -0.483759       -13.1637
  52   2.0000      -0.475734       -12.9454
  53   2.0000      -0.467713       -12.7271
  54   2.0000      -0.459135       -12.4937
  55   2.0000      -0.449628       -12.2350
  56   2.0000      -0.446089       -12.1387
  57   2.0000      -0.441925       -12.0254
  58   2.0000      -0.432276       -11.7628
  59   2.0000      -0.429953       -11.6996
  60   2.0000      -0.423220       -11.5164
  61   2.0000      -0.412970       -11.2375
  62   2.0000      -0.405072       -11.0226
  63   2.0000      -0.353390        -9.6162
  64   2.0000      -0.331268        -9.0143
  65   2.0000      -0.327238        -8.9046
  66   2.0000      -0.287732        -7.8296
  67   0.0000       0.025034         0.6812
  68   0.0000       0.074808         2.0356
  69   0.0000       0.103365         2.8127
  70   0.0000       0.119285         3.2459
  71   0.0000       0.133242         3.6257

MULLIKEN ATOMIC CHARGES
-----------------------
   0 S :    0.105603
   1 C :   -0.137541
   2 C :   -0.067039
   3 C :    0.005643
   4 C :   -0.129111
   5 H :   -0.011040
   6 C :    0.064109
   7 H :    0.037474
   8 H :    0.026658
   9 C :   -0.053494
  10 H :    0.029180
  11 H :    0.034107
  12 C :   -0.033448
  13 H :    0.037773
  14 H :    0.008663
  15 H :    0.026175
  16 S :    0.093377
  17 C :   -0.068607
  18 C :   -0.035917
  19 C :   -0.091736
  20 C :   -0.125077
  21 H :    0.014414
  22 C :    0.050583
  23 H :    0.044777
  24 H :    0.042868
  25 C :   -0.079940
  26 H :    0.043093
  27 H :    0.048416
  28 C :   -0.093230
  29 H :    0.035937
  30 H :    0.041050
  31 H :    0.034255
  32 H :    0.046598
  33 H :    0.055426
Sum of atomic charges:   -0.0000000

LOEWDIN ATOMIC CHARGES
----------------------
   0 S :    0.395776
   1 C :   -0.200969
   2 C :   -0.053269
   3 C :   -0.054869
   4 C :   -0.179753
   5 H :    0.021328
   6 C :   -0.028195
   7 H :    0.038996
   8 H :    0.031280
   9 C :   -0.036577
  10 H :    0.021942
  11 H :    0.032356
  12 C :   -0.065794
  13 H :    0.029141
  14 H :    0.018150
  15 H :    0.024159
  16 S :    0.398678
  17 C :   -0.188102
  18 C :   -0.071695
  19 C :   -0.063772
  20 C :   -0.196775
  21 H :    0.025156
  22 C :   -0.042487
  23 H :    0.043157
  24 H :    0.035721
  25 C :   -0.043994
  26 H :    0.023241
  27 H :    0.033520
  28 C :   -0.077320
  29 H :    0.021587
  30 H :    0.025967
  31 H :    0.028653
  32 H :    0.018133
  33 H :    0.036628

  Mayer bond orders larger than 0.100000
B(  0-S ,  1-C ) :   1.1379 B(  0-S ,  4-C ) :   1.1423 B(  1-C ,  2-C ) :   1.6017
B(  1-C , 32-H ) :   0.9637 B(  2-C ,  3-C ) :   1.2507 B(  2-C ,  6-C ) :   1.0026
B(  3-C ,  4-C ) :   1.5594 B(  3-C ,  5-H ) :   0.9962 B(  4-C , 20-C ) :   1.0529
B(  6-C ,  7-H ) :   0.9367 B(  6-C ,  8-H ) :   0.9346 B(  6-C ,  9-C ) :   1.0718
B(  9-C , 10-H ) :   0.9579 B(  9-C , 11-H ) :   0.9564 B(  9-C , 12-C ) :   1.0758
B( 12-C , 13-H ) :   0.9765 B( 12-C , 14-H ) :   0.9709 B( 12-C , 15-H ) :   0.9757
B( 16-S , 17-C ) :   1.1362 B( 16-S , 20-C ) :   1.1298 B( 17-C , 18-C ) :   1.6170
B( 17-C , 33-H ) :   0.9690 B( 18-C , 19-C ) :   1.2392 B( 18-C , 21-H ) :   0.9816
B( 19-C , 20-C ) :   1.6115 B( 19-C , 22-C ) :   1.0370 B( 22-C , 23-H ) :   0.9302
B( 22-C , 24-H ) :   0.9428 B( 22-C , 25-C ) :   1.0373 B( 25-C , 26-H ) :   0.9508
B( 25-C , 27-H ) :   0.9608 B( 25-C , 28-C ) :   1.0669 B( 28-C , 29-H ) :   0.9793
B( 28-C , 30-H ) :   0.9751 B( 28-C , 31-H ) :   0.9751

Dispersion correction           -0.014349435
FINAL SINGLE POINT ENERGY     -1339.870939595036

DIPOLE MOMENT
-------------
                                X             Y             Z
Electronic contribution:     -9.03630     -23.89839      -9.01175
Nuclear contribution   :      9.17181      24.48998       9.43684
                        -----------------------------------------
Total Dipole Moment    :      0.13551       0.59160       0.42509
                        -----------------------------------------
Magnitude (a.u.)       :      0.74098
Magnitude (Debye)      :      1.88342

Rotational constants in cm-1:     0.021305     0.008006     0.006129
Rotational constants in MHz :   638.706018   240.012663   183.745593

                             ****ORCA TERMINATED NORMALLY****
TOTAL RUN TIME: 0 days 0 hours 0 minutes 30 seconds 213 msec
