                         Program Version 4.2.1 -  RELEASE  -
|  1> ! wB97X-D3 SP def2-SVP
|  2> %pal
|  3> nprocs 16
|  4> end
|  5>
|  6> * xyz 0 1
|  7> S 	 48.6459 	 22.5277 	 44.4104
|  8> C 	 47.7382 	 21.436 	 43.3833
|  9> C 	 46.634 	 22.0411 	 42.7765
| 10> C 	 46.4962 	 23.4051 	 43.2075
| 11> C 	 47.4697 	 23.7799 	 44.1233
| 12> H 	 45.6591 	 24.0392 	 42.9103
| 13> C 	 45.6264 	 21.456 	 41.8239
| 14> H 	 44.6275 	 21.5297 	 42.3162
| 15> H 	 45.7672 	 20.4229 	 41.7808
| 16> C 	 45.631 	 21.8648 	 40.3854
| 17> H 	 45.4502 	 22.9566 	 40.4316
| 18> H 	 46.5908 	 21.5596 	 39.8917
| 19> C 	 44.373 	 21.179 	 39.677
| 20> H 	 44.3712 	 21.6727 	 38.6699
| 21> H 	 44.5536 	 20.0453 	 39.752
| 22> H 	 43.4546 	 21.4269 	 40.1951
| 23> S 	 48.4338 	 26.4376 	 44.3029
| 24> C 	 48.1423 	 27.3852 	 45.682
| 25> C 	 47.3342 	 26.6907 	 46.5948
| 26> C 	 46.8577 	 25.3827 	 46.1046
| 27> C 	 47.476 	 25.0117 	 44.9011
| 28> H 	 47.201 	 27.1874 	 47.6435
| 29> C 	 45.8668 	 24.5845 	 46.8875
| 30> H 	 45.1576 	 24.1091 	 46.2292
| 31> H 	 45.1833 	 25.2238 	 47.4585
| 32> C 	 46.4287 	 23.5027 	 47.7498
| 33> H 	 47.0844 	 22.8154 	 47.0984
| 34> H 	 45.7234 	 22.7996 	 48.1785
| 35> C 	 47.4266 	 24.008 	 48.851
| 36> H 	 47.0009 	 24.8416 	 49.4212
| 37> H 	 48.4456 	 24.2524 	 48.4885
| 38> H 	 47.5555 	 23.173 	 49.5552
| 39> H 	 48.115 	 20.4261 	 43.1284
| 40> H 	 48.5197 	 28.4101 	 45.9198
| 41> *
| 42>
| 43>                          ****END OF INPUT****

CARTESIAN COORDINATES (ANGSTROEM)
---------------------------------
  S     48.645900   22.527700   44.410400
  C     47.738200   21.436000   43.383300
  C     46.634000   22.041100   42.776500
  C     46.496200   23.405100   43.207500
  C     47.469700   23.779900   44.123300
  H     45.659100   24.039200   42.910300
  C     45.626400   21.456000   41.823900
  H     44.627500   21.529700   42.316200
  H     45.767200   20.422900   41.780800
  C     45.631000   21.864800   40.385400
  H     45.450200   22.956600   40.431600
  H     46.590800   21.559600   39.891700
  C     44.373000   21.179000   39.677000
  H     44.371200   21.672700   38.669900
  H     44.553600   20.045300   39.752000
  H     43.454600   21.426900   40.195100
  S     48.433800   26.437600   44.302900
  C     48.142300   27.385200   45.682000
  C     47.334200   26.690700   46.594800
  C     46.857700   25.382700   46.104600
  C     47.476000   25.011700   44.901100
  H     47.201000   27.187400   47.643500
  C     45.866800   24.584500   46.887500
  H     45.157600   24.109100   46.229200
  H     45.183300   25.223800   47.458500
  C     46.428700   23.502700   47.749800
  H     47.084400   22.815400   47.098400
  H     45.723400   22.799600   48.178500
  C     47.426600   24.008000   48.851000
  H     47.000900   24.841600   49.421200
  H     48.445600   24.252400   48.488500
  H     47.555500   23.173000   49.555200
  H     48.115000   20.426100   43.128400
  H     48.519700   28.410100   45.919800

 Total Charge           Charge          ....    0
 Multiplicity           Mult            ....    1
 Number of Electrons    NEL             ....  134
 Basis Dimension        Dim             ....  322

ORBITAL ENERGIES
----------------

  NO   OCC          E(Eh)            E(eV)
   0   2.0000     -88.971209     -2421.0297
   1   2.0000     -88.961659     -2420.7698
   2   2.0000     -10.330522      -281.1078
   3   2.0000     -10.330157      -281.0979
   4   2.0000     -10.321363      -280.8586
   5   2.0000     -10.318835      -280.7898
   6   2.0000     -10.311604      -280.5930
   7   2.0000     -10.303830      -280.3815
   8   2.0000     -10.302608      -280.3482
   9   2.0000     -10.298060      -280.2245
  10   2.0000     -10.295149      -280.1452
  11   2.0000     -10.294289      -280.1219
  12   2.0000     -10.286379      -279.9066
  13   2.0000     -10.285326      -279.8780
  14   2.0000     -10.284837      -279.8647
  15   2.0000     -10.275042      -279.5981
  16   2.0000      -8.085636      -220.0213
  17   2.0000      -8.076280      -219.7668
  18   2.0000      -6.044136      -164.4693
  19   2.0000      -6.040107      -164.3597
  20   2.0000      -6.036481      -164.2610
  21   2.0000      -6.034796      -164.2151
  22   2.0000      -6.030670      -164.1029
  23   2.0000      -6.027156      -164.0073
  24   2.0000      -1.002043       -27.2670
  25   2.0000      -0.978716       -26.6322
  26   2.0000      -0.917170       -24.9575
  27   2.0000      -0.908417       -24.7193
  28   2.0000      -0.864604       -23.5271
  29   2.0000      -0.849364       -23.1124
  30   2.0000      -0.835945       -22.7472
  31   2.0000      -0.805111       -21.9082
  32   2.0000      -0.782436       -21.2912
  33   2.0000      -0.770300       -20.9609
  34   2.0000      -0.705567       -19.1995
  35   2.0000      -0.695109       -18.9149
  36   2.0000      -0.683034       -18.5863
  37   2.0000      -0.647905       -17.6304
  38   2.0000      -0.642505       -17.4835
  39   2.0000      -0.623575       -16.9683
  40   2.0000      -0.591129       -16.0854
  41   2.0000      -0.570850       -15.5336
  42   2.0000      -0.560730       -15.2582
  43   2.0000      -0.543719       -14.7954
  44   2.0000      -0.542158       -14.7529
  45   2.0000      -0.524713       -14.2782
  46   2.0000      -0.514816       -14.0089
  47   2.0000      -0.506357       -13.7787
  48   2.0000      -0.501715       -13.6524
  49   2.0000      -0.498847       -13.5743
  50   2.0000      -0.482161       -13.1203
  51   2.0000      -0.473611       -12.8876
  52   2.0000      -0.472409       -12.8549
  53   2.0000      -0.460936       -12.5427
  54   2.0000      -0.459710       -12.5094
  55   2.0000      -0.451969       -12.2987
  56   2.0000      -0.445787       -12.1305
  57   2.0000      -0.436381       -11.8745
  58   2.0000      -0.426287       -11.5998
  59   2.0000      -0.420023       -11.4294
  60   2.0000      -0.416198       -11.3253
  61   2.0000      -0.415411       -11.3039
  62   2.0000      -0.399407       -10.8684
  63   2.0000      -0.336556        -9.1582
  64   2.0000      -0.324436        -8.8284
  65   2.0000      -0.317051        -8.6274
  66   2.0000      -0.312829        -8.5125
  67   0.0000       0.043119         1.1733
  68   0.0000       0.050024         1.3612
  69   0.0000       0.112783         3.0690
  70   0.0000       0.117010         3.1840
  71   0.0000       0.121498         3.3061

MULLIKEN ATOMIC CHARGES
-----------------------
   0 S :    0.132208
   1 C :   -0.133417
   2 C :   -0.076914
   3 C :    0.051360
   4 C :   -0.169132
   5 H :    0.022809
   6 C :    0.052548
   7 H :    0.035365
   8 H :   -0.016876
   9 C :   -0.087144
  10 H :    0.031965
  11 H :    0.051149
  12 C :   -0.075097
  13 H :    0.055702
  14 H :    0.051162
  15 H :    0.033708
  16 S :    0.104588
  17 C :   -0.106536
  18 C :   -0.091060
  19 C :   -0.017500
  20 C :   -0.186737
  21 H :    0.057527
  22 C :    0.116305
  23 H :    0.014529
  24 H :    0.019343
  25 C :   -0.097265
  26 H :    0.030295
  27 H :    0.030250
  28 C :   -0.072737
  29 H :    0.026275
  30 H :    0.050064
  31 H :    0.029127
  32 H :    0.057416
  33 H :    0.076721
Sum of atomic charges:   -0.0000000

LOEWDIN ATOMIC CHARGES
----------------------
   0 S :    0.422615
   1 C :   -0.199711
   2 C :   -0.063018
   3 C :   -0.048835
   4 C :   -0.206177
   5 H :    0.035741
   6 C :   -0.045585
   7 H :    0.037560
   8 H :    0.017278
   9 C :   -0.039263
  10 H :    0.023147
  11 H :    0.033484
  12 C :   -0.068830
  13 H :    0.035397
  14 H :    0.035213
  15 H :    0.021370
  16 S :    0.398419
  17 C :   -0.214635
  18 C :   -0.094697
  19 C :   -0.041973
  20 C :   -0.191851
  21 H :    0.047554
  22 C :   -0.040381
  23 H :    0.032651
  24 H :    0.031002
  25 C :   -0.044755
  26 H :    0.027315
  27 H :    0.022462
  28 C :   -0.073396
  29 H :    0.018842
  30 H :    0.029733
  31 H :    0.026703
  32 H :    0.032181
  33 H :    0.044442

  Mayer bond orders larger than 0.100000
B(  0-S ,  1-C ) :   1.1432 B(  0-S ,  4-C ) :   1.1572 B(  1-C ,  2-C ) :   1.6123
B(  1-C , 32-H ) :   0.9613 B(  2-C ,  3-C ) :   1.2368 B(  2-C ,  6-C ) :   1.0233
B(  3-C ,  4-C ) :   1.5807 B(  3-C ,  5-H ) :   0.9915 B(  4-C , 20-C ) :   1.0225
B(  6-C ,  7-H ) :   0.9391 B(  6-C ,  8-H ) :   0.9279 B(  6-C ,  9-C ) :   1.0642
B(  9-C , 10-H ) :   0.9565 B(  9-C , 11-H ) :   0.9536 B(  9-C , 12-C ) :   1.0661
B( 12-C , 13-H ) :   0.9751 B( 12-C , 14-H ) :   0.9748 B( 12-C , 15-H ) :   0.9763
B( 16-S , 17-C ) :   1.1702 B( 16-S , 20-C ) :   1.1259 B( 17-C , 18-C ) :   1.6193
B( 17-C , 33-H ) :   0.9585 B( 18-C , 19-C ) :   1.2216 B( 18-C , 21-H ) :   0.9714
B( 19-C , 20-C ) :   1.6040 B( 19-C , 22-C ) :   1.0477 B( 22-C , 23-H ) :   0.9229
B( 22-C , 24-H ) :   0.9333 B( 22-C , 25-C ) :   1.0819 B( 25-C , 26-H ) :   0.9505
B( 25-C , 27-H ) :   0.9595 B( 25-C , 28-C ) :   1.0663 B( 28-C , 29-H ) :   0.9773
B( 28-C , 30-H ) :   0.9750 B( 28-C , 31-H ) :   0.9752

Dispersion correction           -0.014758294
FINAL SINGLE POINT ENERGY     -1339.871360606544

DIPOLE MOMENT
-------------
                                X             Y             Z
Electronic contribution:     16.11232      11.52263       0.34905
Nuclear contribution   :    -16.61891     -11.80998      -0.36699
                        -----------------------------------------
Total Dipole Moment    :     -0.50660      -0.28735      -0.01794
                        -----------------------------------------
Magnitude (a.u.)       :      0.58269
Magnitude (Debye)      :      1.48108

Rotational constants in cm-1:     0.021679     0.007455     0.006719
Rotational constants in MHz :   649.925153   223.508840   201.431909

                             ****ORCA TERMINATED NORMALLY****
TOTAL RUN TIME: 0 days 0 hours 0 minutes 33 seconds 524 msec
