                         Program Version 4.2.1 -  RELEASE  -
|  1> ! wB97X-D3 SP def2-SVP
|  2> %pal
|  3> nprocs 16
|  4> end
|  5>
|  6> * xyz 0 1
|  7> S 	 -75.2574 	 46.7743 	 120.795
|  8> C 	 -75.2576 	 45.1145 	 120.642
|  9> C 	 -74.8168 	 44.4724 	 121.772
| 10> C 	 -74.3559 	 45.3449 	 122.807
| 11> C 	 -74.4792 	 46.7242 	 122.409
| 12> H 	 -73.9857 	 45.1413 	 123.811
| 13> C 	 -74.9548 	 43.0218 	 122.107
| 14> H 	 -75.9961 	 42.7167 	 122.034
| 15> H 	 -74.9386 	 42.7957 	 123.134
| 16> C 	 -74.0754 	 41.9607 	 121.279
| 17> H 	 -73.0207 	 42.1608 	 121.421
| 18> H 	 -74.2624 	 41.0278 	 121.811
| 19> C 	 -74.2827 	 41.8042 	 119.832
| 20> H 	 -73.4722 	 41.1781 	 119.41
| 21> H 	 -75.2797 	 41.4081 	 119.646
| 22> H 	 -74.2759 	 42.7096 	 119.198
| 23> S 	 -75.7521 	 49.0523 	 123.237
| 24> C 	 -74.9935 	 50.0459 	 124.404
| 25> C 	 -73.7815 	 49.5046 	 124.806
| 26> C 	 -73.3327 	 48.3588 	 124.045
| 27> C 	 -74.2603 	 47.9298 	 123.167
| 28> H 	 -73.2231 	 49.9799 	 125.641
| 29> C 	 -72.0121 	 47.6374 	 124.457
| 30> H 	 -72.0133 	 46.7548 	 123.786
| 31> H 	 -72.0971 	 47.2442 	 125.436
| 32> C 	 -70.7384 	 48.5208 	 124.357
| 33> H 	 -70.9601 	 49.3634 	 124.967
| 34> H 	 -70.5468 	 48.8302 	 123.345
| 35> C 	 -69.4733 	 47.8543 	 124.935
| 36> H 	 -69.2219 	 47.0109 	 124.303
| 37> H 	 -69.6579 	 47.5456 	 125.911
| 38> H 	 -68.6115 	 48.5451 	 124.746
| 39> H 	 -75.8146 	 44.5431 	 119.915
| 40> H 	 -75.4807 	 50.825 	 124.986
| 41> *
| 42>
| 43>                          ****END OF INPUT****

CARTESIAN COORDINATES (ANGSTROEM)
---------------------------------
  S    -75.257400   46.774300  120.795000
  C    -75.257600   45.114500  120.642000
  C    -74.816800   44.472400  121.772000
  C    -74.355900   45.344900  122.807000
  C    -74.479200   46.724200  122.409000
  H    -73.985700   45.141300  123.811000
  C    -74.954800   43.021800  122.107000
  H    -75.996100   42.716700  122.034000
  H    -74.938600   42.795700  123.134000
  C    -74.075400   41.960700  121.279000
  H    -73.020700   42.160800  121.421000
  H    -74.262400   41.027800  121.811000
  C    -74.282700   41.804200  119.832000
  H    -73.472200   41.178100  119.410000
  H    -75.279700   41.408100  119.646000
  H    -74.275900   42.709600  119.198000
  S    -75.752100   49.052300  123.237000
  C    -74.993500   50.045900  124.404000
  C    -73.781500   49.504600  124.806000
  C    -73.332700   48.358800  124.045000
  C    -74.260300   47.929800  123.167000
  H    -73.223100   49.979900  125.641000
  C    -72.012100   47.637400  124.457000
  H    -72.013300   46.754800  123.786000
  H    -72.097100   47.244200  125.436000
  C    -70.738400   48.520800  124.357000
  H    -70.960100   49.363400  124.967000
  H    -70.546800   48.830200  123.345000
  C    -69.473300   47.854300  124.935000
  H    -69.221900   47.010900  124.303000
  H    -69.657900   47.545600  125.911000
  H    -68.611500   48.545100  124.746000
  H    -75.814600   44.543100  119.915000
  H    -75.480700   50.825000  124.986000

 Total Charge           Charge          ....    0
 Multiplicity           Mult            ....    1
 Number of Electrons    NEL             ....  134
 Basis Dimension        Dim             ....  322

ORBITAL ENERGIES
----------------

  NO   OCC          E(Eh)            E(eV)
   0   2.0000     -88.968081     -2420.9446
   1   2.0000     -88.960716     -2420.7442
   2   2.0000     -10.335368      -281.2397
   3   2.0000     -10.331629      -281.1379
   4   2.0000     -10.317129      -280.7434
   5   2.0000     -10.307605      -280.4842
   6   2.0000     -10.306718      -280.4601
   7   2.0000     -10.302250      -280.3385
   8   2.0000     -10.298967      -280.2491
   9   2.0000     -10.295792      -280.1627
  10   2.0000     -10.295068      -280.1430
  11   2.0000     -10.288027      -279.9515
  12   2.0000     -10.285636      -279.8864
  13   2.0000     -10.283316      -279.8233
  14   2.0000     -10.277017      -279.6519
  15   2.0000     -10.276776      -279.6453
  16   2.0000      -8.083449      -219.9618
  17   2.0000      -8.075067      -219.7337
  18   2.0000      -6.041825      -164.4064
  19   2.0000      -6.037746      -164.2954
  20   2.0000      -6.034416      -164.2048
  21   2.0000      -6.033705      -164.1855
  22   2.0000      -6.029712      -164.0768
  23   2.0000      -6.025593      -163.9647
  24   2.0000      -1.004273       -27.3277
  25   2.0000      -0.983165       -26.7533
  26   2.0000      -0.907807       -24.7027
  27   2.0000      -0.906647       -24.6711
  28   2.0000      -0.872991       -23.7553
  29   2.0000      -0.858055       -23.3489
  30   2.0000      -0.847362       -23.0579
  31   2.0000      -0.808110       -21.9898
  32   2.0000      -0.784567       -21.3492
  33   2.0000      -0.776687       -21.1347
  34   2.0000      -0.707748       -19.2588
  35   2.0000      -0.699307       -19.0291
  36   2.0000      -0.697650       -18.9840
  37   2.0000      -0.660985       -17.9863
  38   2.0000      -0.642881       -17.4937
  39   2.0000      -0.613237       -16.6870
  40   2.0000      -0.592103       -16.1119
  41   2.0000      -0.574168       -15.6239
  42   2.0000      -0.570121       -15.5138
  43   2.0000      -0.546900       -14.8819
  44   2.0000      -0.535698       -14.5771
  45   2.0000      -0.525761       -14.3067
  46   2.0000      -0.517896       -14.0927
  47   2.0000      -0.515398       -14.0247
  48   2.0000      -0.505949       -13.7676
  49   2.0000      -0.499200       -13.5839
  50   2.0000      -0.497234       -13.5304
  51   2.0000      -0.485366       -13.2075
  52   2.0000      -0.469360       -12.7719
  53   2.0000      -0.465227       -12.6595
  54   2.0000      -0.458702       -12.4819
  55   2.0000      -0.447682       -12.1820
  56   2.0000      -0.443255       -12.0616
  57   2.0000      -0.440277       -11.9805
  58   2.0000      -0.430285       -11.7087
  59   2.0000      -0.422772       -11.5042
  60   2.0000      -0.419878       -11.4255
  61   2.0000      -0.413005       -11.2384
  62   2.0000      -0.405901       -11.0451
  63   2.0000      -0.352713        -9.5978
  64   2.0000      -0.332916        -9.0591
  65   2.0000      -0.326076        -8.8730
  66   2.0000      -0.286883        -7.8065
  67   0.0000       0.023753         0.6464
  68   0.0000       0.064903         1.7661
  69   0.0000       0.104454         2.8423
  70   0.0000       0.115968         3.1556
  71   0.0000       0.132303         3.6002

MULLIKEN ATOMIC CHARGES
-----------------------
   0 S :    0.124917
   1 C :   -0.086384
   2 C :   -0.076843
   3 C :    0.035518
   4 C :   -0.193718
   5 H :    0.022790
   6 C :    0.050944
   7 H :    0.016090
   8 H :   -0.001299
   9 C :   -0.050730
  10 H :    0.023904
  11 H :    0.024615
  12 C :   -0.056216
  13 H :    0.042654
  14 H :    0.021740
  15 H :    0.031130
  16 S :    0.074701
  17 C :   -0.071044
  18 C :   -0.076732
  19 C :   -0.030264
  20 C :   -0.135993
  21 H :    0.033875
  22 C :    0.069825
  23 H :    0.023630
  24 H :    0.022362
  25 C :   -0.077416
  26 H :    0.020033
  27 H :    0.032795
  28 C :   -0.021080
  29 H :    0.024286
  30 H :    0.023538
  31 H :    0.042892
  32 H :    0.050798
  33 H :    0.064680
Sum of atomic charges:    0.0000000

LOEWDIN ATOMIC CHARGES
----------------------
   0 S :    0.435452
   1 C :   -0.225261
   2 C :   -0.069848
   3 C :   -0.052584
   4 C :   -0.190310
   5 H :    0.034227
   6 C :   -0.038494
   7 H :    0.032284
   8 H :    0.026074
   9 C :   -0.037494
  10 H :    0.022094
  11 H :    0.025765
  12 C :   -0.074108
  13 H :    0.035354
  14 H :    0.021992
  15 H :    0.026170
  16 S :    0.364401
  17 C :   -0.192919
  18 C :   -0.081258
  19 C :   -0.053080
  20 C :   -0.164255
  21 H :    0.033141
  22 C :   -0.024038
  23 H :    0.029572
  24 H :    0.024398
  25 C :   -0.032027
  26 H :    0.016732
  27 H :    0.025110
  28 C :   -0.057530
  29 H :    0.024246
  30 H :    0.014453
  31 H :    0.035854
  32 H :    0.030907
  33 H :    0.034980

  Mayer bond orders larger than 0.100000
B(  0-S ,  1-C ) :   1.1616 B(  0-S ,  4-C ) :   1.1653 B(  1-C ,  2-C ) :   1.5877
B(  1-C , 32-H ) :   0.9571 B(  2-C ,  3-C ) :   1.2715 B(  2-C ,  6-C ) :   1.0189
B(  3-C ,  4-C ) :   1.5128 B(  3-C ,  5-H ) :   0.9924 B(  4-C , 20-C ) :   1.0692
B(  6-C ,  7-H ) :   0.9354 B(  6-C ,  8-H ) :   0.9407 B(  6-C ,  9-C ) :   1.0598
B(  9-C , 10-H ) :   0.9585 B(  9-C , 11-H ) :   0.9525 B(  9-C , 12-C ) :   1.0941
B( 12-C , 13-H ) :   0.9690 B( 12-C , 14-H ) :   0.9727 B( 12-C , 15-H ) :   0.9670
B( 16-S , 17-C ) :   1.1508 B( 16-S , 20-C ) :   1.0910 B( 17-C , 18-C ) :   1.6452
B( 17-C , 33-H ) :   0.9620 B( 18-C , 19-C ) :   1.1902 B( 18-C , 21-H ) :   0.9795
B( 19-C , 20-C ) :   1.6677 B( 19-C , 22-C ) :   1.0281 B( 22-C , 23-H ) :   0.9341
B( 22-C , 24-H ) :   0.9406 B( 22-C , 25-C ) :   1.0566 B( 25-C , 26-H ) :   0.9590
B( 25-C , 27-H ) :   0.9558 B( 25-C , 28-C ) :   1.0908 B( 28-C , 29-H ) :   0.9747
B( 28-C , 30-H ) :   0.9749 B( 28-C , 31-H ) :   0.9733

Dispersion correction           -0.013440918
FINAL SINGLE POINT ENERGY     -1339.861165155542

DIPOLE MOMENT
-------------
                                X             Y             Z
Electronic contribution:    -18.80857      18.51925      -4.12688
Nuclear contribution   :     19.04697     -18.97656       4.65471
                        -----------------------------------------
Total Dipole Moment    :      0.23840      -0.45731       0.52783
                        -----------------------------------------
Magnitude (a.u.)       :      0.73795
Magnitude (Debye)      :      1.87571

Rotational constants in cm-1:     0.018645     0.007739     0.005938
Rotational constants in MHz :   558.953896   232.004607   178.022079

                             ****ORCA TERMINATED NORMALLY****
TOTAL RUN TIME: 0 days 0 hours 0 minutes 32 seconds 408 msec
