                         Program Version 4.2.1 -  RELEASE  -
|  1> ! wB97X-D3 SP def2-SVP
|  2> %pal
|  3> nprocs 16
|  4> end
|  5>
|  6> * xyz 0 1
|  7> S 	 -77.1009 	 51.9478 	 138.368
|  8> C 	 -76.3712 	 53.0086 	 139.479
|  9> C 	 -76.5925 	 54.3518 	 139.166
| 10> C 	 -77.0129 	 54.425 	 137.817
| 11> C 	 -77.2719 	 53.2273 	 137.243
| 12> H 	 -77.1371 	 55.3058 	 137.181
| 13> C 	 -76.3006 	 55.5772 	 140.021
| 14> H 	 -76.0123 	 55.3123 	 141.067
| 15> H 	 -77.2074 	 56.1592 	 140.198
| 16> C 	 -75.3535 	 56.5015 	 139.275
| 17> H 	 -75.8296 	 56.8765 	 138.444
| 18> H 	 -75.3102 	 57.4102 	 139.957
| 19> C 	 -73.9128 	 55.9001 	 139.002
| 20> H 	 -73.4753 	 55.4782 	 139.933
| 21> H 	 -73.8656 	 55.1905 	 138.212
| 22> H 	 -73.2007 	 56.6082 	 138.696
| 23> S 	 -77.2877 	 53.8779 	 134.664
| 24> C 	 -78.2411 	 52.8856 	 133.586
| 25> C 	 -79.142 	 52.0699 	 134.134
| 26> C 	 -78.9818 	 52.1422 	 135.557
| 27> C 	 -77.9809 	 53.0038 	 135.971
| 28> H 	 -79.673 	 51.3778 	 133.427
| 29> C 	 -79.7834 	 51.2955 	 136.505
| 30> H 	 -80.848 	 51.4194 	 136.214
| 31> H 	 -79.7865 	 51.7382 	 137.523
| 32> C 	 -79.419 	 49.7788 	 136.628
| 33> H 	 -79.3463 	 49.3638 	 137.61
| 34> H 	 -78.4968 	 49.6502 	 136.073
| 35> C 	 -80.3919 	 48.8372 	 135.921
| 36> H 	 -79.9207 	 47.8584 	 135.704
| 37> H 	 -80.7948 	 49.2711 	 134.969
| 38> H 	 -81.2066 	 48.6087 	 136.531
| 39> H 	 -76.048 	 52.6887 	 140.478
| 40> H 	 -78.106 	 52.8668 	 132.586
| 41> *
| 42>
| 43>                          ****END OF INPUT****

CARTESIAN COORDINATES (ANGSTROEM)
---------------------------------
  S    -77.100900   51.947800  138.368000
  C    -76.371200   53.008600  139.479000
  C    -76.592500   54.351800  139.166000
  C    -77.012900   54.425000  137.817000
  C    -77.271900   53.227300  137.243000
  H    -77.137100   55.305800  137.181000
  C    -76.300600   55.577200  140.021000
  H    -76.012300   55.312300  141.067000
  H    -77.207400   56.159200  140.198000
  C    -75.353500   56.501500  139.275000
  H    -75.829600   56.876500  138.444000
  H    -75.310200   57.410200  139.957000
  C    -73.912800   55.900100  139.002000
  H    -73.475300   55.478200  139.933000
  H    -73.865600   55.190500  138.212000
  H    -73.200700   56.608200  138.696000
  S    -77.287700   53.877900  134.664000
  C    -78.241100   52.885600  133.586000
  C    -79.142000   52.069900  134.134000
  C    -78.981800   52.142200  135.557000
  C    -77.980900   53.003800  135.971000
  H    -79.673000   51.377800  133.427000
  C    -79.783400   51.295500  136.505000
  H    -80.848000   51.419400  136.214000
  H    -79.786500   51.738200  137.523000
  C    -79.419000   49.778800  136.628000
  H    -79.346300   49.363800  137.610000
  H    -78.496800   49.650200  136.073000
  C    -80.391900   48.837200  135.921000
  H    -79.920700   47.858400  135.704000
  H    -80.794800   49.271100  134.969000
  H    -81.206600   48.608700  136.531000
  H    -76.048000   52.688700  140.478000
  H    -78.106000   52.866800  132.586000

 Total Charge           Charge          ....    0
 Multiplicity           Mult            ....    1
 Number of Electrons    NEL             ....  134
 Basis Dimension        Dim             ....  322

ORBITAL ENERGIES
----------------

  NO   OCC          E(Eh)            E(eV)
   0   2.0000     -88.964717     -2420.8530
   1   2.0000     -88.962672     -2420.7974
   2   2.0000     -10.321832      -280.8713
   3   2.0000     -10.320847      -280.8445
   4   2.0000     -10.309503      -280.5358
   5   2.0000     -10.301995      -280.3315
   6   2.0000     -10.301976      -280.3310
   7   2.0000     -10.300837      -280.3000
   8   2.0000     -10.296012      -280.1687
   9   2.0000     -10.293791      -280.1083
  10   2.0000     -10.289279      -279.9855
  11   2.0000     -10.288678      -279.9692
  12   2.0000     -10.288442      -279.9627
  13   2.0000     -10.279634      -279.7231
  14   2.0000     -10.273530      -279.5570
  15   2.0000     -10.272115      -279.5185
  16   2.0000      -8.080661      -219.8860
  17   2.0000      -8.078561      -219.8288
  18   2.0000      -6.038927      -164.3276
  19   2.0000      -6.036973      -164.2744
  20   2.0000      -6.035110      -164.2237
  21   2.0000      -6.033152      -164.1704
  22   2.0000      -6.031500      -164.1254
  23   2.0000      -6.029135      -164.0611
  24   2.0000      -1.017811       -27.6960
  25   2.0000      -0.994466       -27.0608
  26   2.0000      -0.912650       -24.8345
  27   2.0000      -0.903587       -24.5878
  28   2.0000      -0.875377       -23.8202
  29   2.0000      -0.851624       -23.1739
  30   2.0000      -0.843319       -22.9479
  31   2.0000      -0.818657       -22.2768
  32   2.0000      -0.787597       -21.4316
  33   2.0000      -0.769618       -20.9424
  34   2.0000      -0.711785       -19.3686
  35   2.0000      -0.696420       -18.9505
  36   2.0000      -0.687710       -18.7135
  37   2.0000      -0.668714       -18.1966
  38   2.0000      -0.636373       -17.3166
  39   2.0000      -0.624393       -16.9906
  40   2.0000      -0.598369       -16.2824
  41   2.0000      -0.570495       -15.5240
  42   2.0000      -0.554828       -15.0976
  43   2.0000      -0.551561       -15.0087
  44   2.0000      -0.534447       -14.5431
  45   2.0000      -0.527037       -14.3414
  46   2.0000      -0.516846       -14.0641
  47   2.0000      -0.510580       -13.8936
  48   2.0000      -0.508128       -13.8269
  49   2.0000      -0.492808       -13.4100
  50   2.0000      -0.486289       -13.2326
  51   2.0000      -0.475358       -12.9352
  52   2.0000      -0.470853       -12.8126
  53   2.0000      -0.465062       -12.6550
  54   2.0000      -0.460943       -12.5429
  55   2.0000      -0.450222       -12.2512
  56   2.0000      -0.446210       -12.1420
  57   2.0000      -0.440731       -11.9929
  58   2.0000      -0.429320       -11.6824
  59   2.0000      -0.427190       -11.6244
  60   2.0000      -0.416532       -11.3344
  61   2.0000      -0.414689       -11.2843
  62   2.0000      -0.411980       -11.2106
  63   2.0000      -0.358697        -9.7606
  64   2.0000      -0.331881        -9.0310
  65   2.0000      -0.326555        -8.8860
  66   2.0000      -0.285810        -7.7773
  67   0.0000       0.036729         0.9995
  68   0.0000       0.075075         2.0429
  69   0.0000       0.099250         2.7007
  70   0.0000       0.123819         3.3693
  71   0.0000       0.140413         3.8208

MULLIKEN ATOMIC CHARGES
-----------------------
   0 S :    0.116742
   1 C :   -0.116565
   2 C :   -0.077537
   3 C :   -0.016157
   4 C :   -0.101444
   5 H :    0.016563
   6 C :    0.071039
   7 H :    0.022846
   8 H :    0.033672
   9 C :   -0.078588
  10 H :    0.016410
  11 H :    0.028560
  12 C :   -0.019200
  13 H :    0.029402
  14 H :    0.035630
  15 H :    0.017938
  16 S :    0.096035
  17 C :   -0.039950
  18 C :   -0.042415
  19 C :   -0.073261
  20 C :   -0.132683
  21 H :    0.047757
  22 C :    0.010833
  23 H :    0.032257
  24 H :    0.033412
  25 C :   -0.034075
  26 H :    0.030339
  27 H :    0.034279
  28 C :   -0.068042
  29 H :    0.031635
  30 H :    0.027400
  31 H :    0.018345
  32 H :    0.047222
  33 H :    0.001603
Sum of atomic charges:   -0.0000000

LOEWDIN ATOMIC CHARGES
----------------------
   0 S :    0.453923
   1 C :   -0.216788
   2 C :   -0.058221
   3 C :   -0.072053
   4 C :   -0.205898
   5 H :    0.028583
   6 C :   -0.033385
   7 H :    0.031263
   8 H :    0.035967
   9 C :   -0.033981
  10 H :    0.010599
  11 H :    0.030832
  12 C :   -0.062170
  13 H :    0.030760
  14 H :    0.024158
  15 H :    0.020162
  16 S :    0.410504
  17 C :   -0.159591
  18 C :   -0.072713
  19 C :   -0.065561
  20 C :   -0.196563
  21 H :    0.050397
  22 C :   -0.047160
  23 H :    0.034238
  24 H :    0.028016
  25 C :   -0.042149
  26 H :    0.023672
  27 H :    0.025128
  28 C :   -0.064857
  29 H :    0.028188
  30 H :    0.022769
  31 H :    0.012299
  32 H :    0.026713
  33 H :    0.002917

  Mayer bond orders larger than 0.100000
B(  0-S ,  1-C ) :   1.1633 B(  0-S ,  4-C ) :   1.1610 B(  1-C ,  2-C ) :   1.5869
B(  1-C , 32-H ) :   0.9647 B(  2-C ,  3-C ) :   1.2494 B(  2-C ,  6-C ) :   1.0286
B(  3-C ,  4-C ) :   1.5711 B(  3-C ,  5-H ) :   0.9876 B(  4-C , 20-C ) :   1.0003
B(  6-C ,  7-H ) :   0.9434 B(  6-C ,  8-H ) :   0.9338 B(  6-C ,  9-C ) :   1.0801
B(  9-C , 10-H ) :   0.9546 B(  9-C , 11-H ) :   0.9547 B(  9-C , 12-C ) :   1.0591
B( 12-C , 13-H ) :   0.9772 B( 12-C , 14-H ) :   0.9752 B( 12-C , 15-H ) :   0.9751
B( 16-S , 17-C ) :   1.1418 B( 16-S , 20-C ) :   1.1327 B( 17-C , 18-C ) :   1.6861
B( 17-C , 33-H ) :   0.9677 B( 18-C , 19-C ) :   1.1763 B( 18-C , 21-H ) :   0.9831
B( 19-C , 20-C ) :   1.6478 B( 19-C , 22-C ) :   1.0589 B( 22-C , 23-H ) :   0.9400
B( 22-C , 24-H ) :   0.9388 B( 22-C , 25-C ) :   1.0235 B( 25-C , 26-H ) :   0.9594
B( 25-C , 27-H ) :   0.9665 B( 25-C , 28-C ) :   1.0816 B( 28-C , 29-H ) :   0.9742
B( 28-C , 30-H ) :   0.9759 B( 28-C , 31-H ) :   0.9776

Dispersion correction           -0.014735122
FINAL SINGLE POINT ENERGY     -1339.855528005541

DIPOLE MOMENT
-------------
                                X             Y             Z
Electronic contribution:      0.88393       1.20435      -7.75477
Nuclear contribution   :     -1.01899      -1.14051       7.91550
                        -----------------------------------------
Total Dipole Moment    :     -0.13506       0.06383       0.16074
                        -----------------------------------------
Magnitude (a.u.)       :      0.21944
Magnitude (Debye)      :      0.55776

Rotational constants in cm-1:     0.024323     0.008293     0.006594
Rotational constants in MHz :   729.184497   248.628633   197.685105

                             ****ORCA TERMINATED NORMALLY****
TOTAL RUN TIME: 0 days 0 hours 0 minutes 34 seconds 667 msec
