                         Program Version 4.2.1 -  RELEASE  -
|  1> ! wB97X-D3 SP def2-SVP
|  2> %pal
|  3> nprocs 16
|  4> end
|  5>
|  6> * xyz 0 1
|  7> S 	 57.9872 	 25.5985 	 40.4835
|  8> C 	 59.1406 	 26.231 	 41.6736
|  9> C 	 58.5398 	 26.6053 	 42.797
| 10> C 	 57.1025 	 26.5609 	 42.733
| 11> C 	 56.6414 	 25.9763 	 41.5438
| 12> H 	 56.4741 	 26.8026 	 43.5412
| 13> C 	 59.2325 	 27.3495 	 43.9459
| 14> H 	 60.2816 	 27.2559 	 43.7106
| 15> H 	 58.9483 	 26.7072 	 44.8754
| 16> C 	 58.8054 	 28.7823 	 44.202
| 17> H 	 59.0389 	 29.3745 	 43.2517
| 18> H 	 57.716 	 28.7399 	 44.2452
| 19> C 	 59.4179 	 29.3113 	 45.5167
| 20> H 	 59.2211 	 28.5743 	 46.3428
| 21> H 	 60.4714 	 29.5199 	 45.4724
| 22> H 	 58.8626 	 30.2913 	 45.7391
| 23> S 	 54.8034 	 26.2178 	 39.4882
| 24> C 	 53.174 	 25.7772 	 39.6514
| 25> C 	 53.0721 	 24.9856 	 40.8109
| 26> C 	 54.2178 	 24.9799 	 41.6304
| 27> C 	 55.2876 	 25.6838 	 41.0983
| 28> H 	 52.0729 	 24.5303 	 40.9611
| 29> C 	 54.3238 	 24.0523 	 42.894
| 30> H 	 53.9015 	 24.5478 	 43.7402
| 31> H 	 55.3632 	 23.8844 	 43.1761
| 32> C 	 53.7211 	 22.6335 	 42.9352
| 33> H 	 54.5317 	 21.9825 	 43.0041
| 34> H 	 53.1735 	 22.4189 	 41.9787
| 35> C 	 52.8009 	 22.3406 	 44.129
| 36> H 	 51.8958 	 22.9162 	 44.1428
| 37> H 	 53.3473 	 22.4184 	 45.0499
| 38> H 	 52.4722 	 21.3087 	 44.1067
| 39> H 	 60.2234 	 26.2227 	 41.6298
| 40> H 	 52.3862 	 25.9717 	 38.9611
| 41> *
| 42>
| 43>                          ****END OF INPUT****

CARTESIAN COORDINATES (ANGSTROEM)
---------------------------------
  S     57.987200   25.598500   40.483500
  C     59.140600   26.231000   41.673600
  C     58.539800   26.605300   42.797000
  C     57.102500   26.560900   42.733000
  C     56.641400   25.976300   41.543800
  H     56.474100   26.802600   43.541200
  C     59.232500   27.349500   43.945900
  H     60.281600   27.255900   43.710600
  H     58.948300   26.707200   44.875400
  C     58.805400   28.782300   44.202000
  H     59.038900   29.374500   43.251700
  H     57.716000   28.739900   44.245200
  C     59.417900   29.311300   45.516700
  H     59.221100   28.574300   46.342800
  H     60.471400   29.519900   45.472400
  H     58.862600   30.291300   45.739100
  S     54.803400   26.217800   39.488200
  C     53.174000   25.777200   39.651400
  C     53.072100   24.985600   40.810900
  C     54.217800   24.979900   41.630400
  C     55.287600   25.683800   41.098300
  H     52.072900   24.530300   40.961100
  C     54.323800   24.052300   42.894000
  H     53.901500   24.547800   43.740200
  H     55.363200   23.884400   43.176100
  C     53.721100   22.633500   42.935200
  H     54.531700   21.982500   43.004100
  H     53.173500   22.418900   41.978700
  C     52.800900   22.340600   44.129000
  H     51.895800   22.916200   44.142800
  H     53.347300   22.418400   45.049900
  H     52.472200   21.308700   44.106700
  H     60.223400   26.222700   41.629800
  H     52.386200   25.971700   38.961100

 Total Charge           Charge          ....    0
 Multiplicity           Mult            ....    1
 Number of Electrons    NEL             ....  134
 Basis Dimension        Dim             ....  322

ORBITAL ENERGIES
----------------

  NO   OCC          E(Eh)            E(eV)
   0   2.0000     -88.965570     -2420.8762
   1   2.0000     -88.964020     -2420.8340
   2   2.0000     -10.335650      -281.2473
   3   2.0000     -10.328970      -281.0656
   4   2.0000     -10.317168      -280.7444
   5   2.0000     -10.309537      -280.5368
   6   2.0000     -10.308843      -280.5179
   7   2.0000     -10.296645      -280.1860
   8   2.0000     -10.296148      -280.1724
   9   2.0000     -10.293710      -280.1061
  10   2.0000     -10.293585      -280.1027
  11   2.0000     -10.293135      -280.0904
  12   2.0000     -10.290280      -280.0128
  13   2.0000     -10.288151      -279.9548
  14   2.0000     -10.282766      -279.8083
  15   2.0000     -10.273744      -279.5628
  16   2.0000      -8.079981      -219.8675
  17   2.0000      -8.079557      -219.8559
  18   2.0000      -6.038731      -164.3222
  19   2.0000      -6.037917      -164.3001
  20   2.0000      -6.034555      -164.2086
  21   2.0000      -6.033784      -164.1876
  22   2.0000      -6.030564      -164.1000
  23   2.0000      -6.030470      -164.0974
  24   2.0000      -1.009159       -27.4606
  25   2.0000      -0.987472       -26.8705
  26   2.0000      -0.912121       -24.8201
  27   2.0000      -0.905421       -24.6378
  28   2.0000      -0.872453       -23.7407
  29   2.0000      -0.851774       -23.1779
  30   2.0000      -0.840368       -22.8676
  31   2.0000      -0.814563       -22.1654
  32   2.0000      -0.784173       -21.3384
  33   2.0000      -0.773312       -21.0429
  34   2.0000      -0.712983       -19.4013
  35   2.0000      -0.698154       -18.9977
  36   2.0000      -0.691565       -18.8184
  37   2.0000      -0.656335       -17.8598
  38   2.0000      -0.637314       -17.3422
  39   2.0000      -0.623744       -16.9730
  40   2.0000      -0.600525       -16.3411
  41   2.0000      -0.568551       -15.4710
  42   2.0000      -0.562221       -15.2988
  43   2.0000      -0.557680       -15.1753
  44   2.0000      -0.535539       -14.5728
  45   2.0000      -0.520723       -14.1696
  46   2.0000      -0.515182       -14.0188
  47   2.0000      -0.510794       -13.8994
  48   2.0000      -0.507456       -13.8086
  49   2.0000      -0.499616       -13.5952
  50   2.0000      -0.498788       -13.5727
  51   2.0000      -0.480095       -13.0641
  52   2.0000      -0.472350       -12.8533
  53   2.0000      -0.466234       -12.6869
  54   2.0000      -0.461499       -12.5580
  55   2.0000      -0.449847       -12.2410
  56   2.0000      -0.443308       -12.0630
  57   2.0000      -0.432756       -11.7759
  58   2.0000      -0.429238       -11.6802
  59   2.0000      -0.423347       -11.5199
  60   2.0000      -0.416384       -11.3304
  61   2.0000      -0.413886       -11.2624
  62   2.0000      -0.412182       -11.2160
  63   2.0000      -0.349102        -9.4995
  64   2.0000      -0.331034        -9.0079
  65   2.0000      -0.329366        -8.9625
  66   2.0000      -0.293440        -7.9849
  67   0.0000       0.029879         0.8131
  68   0.0000       0.066295         1.8040
  69   0.0000       0.111068         3.0223
  70   0.0000       0.129127         3.5137
  71   0.0000       0.132294         3.5999

MULLIKEN ATOMIC CHARGES
-----------------------
   0 S :    0.101985
   1 C :   -0.115344
   2 C :   -0.080846
   3 C :    0.041951
   4 C :   -0.142179
   5 H :   -0.000201
   6 C :    0.023220
   7 H :    0.013267
   8 H :    0.038636
   9 C :   -0.080073
  10 H :    0.046520
  11 H :    0.026329
  12 C :   -0.057079
  13 H :    0.039351
  14 H :    0.040940
  15 H :    0.048580
  16 S :    0.110784
  17 C :   -0.090863
  18 C :   -0.077648
  19 C :    0.016714
  20 C :   -0.171739
  21 H :    0.032594
  22 C :    0.078123
  23 H :    0.017916
  24 H :    0.028540
  25 C :   -0.074905
  26 H :    0.018094
  27 H :    0.036028
  28 C :   -0.054103
  29 H :    0.032998
  30 H :    0.029112
  31 H :    0.025939
  32 H :    0.041241
  33 H :    0.056116
Sum of atomic charges:    0.0000000

LOEWDIN ATOMIC CHARGES
----------------------
   0 S :    0.389776
   1 C :   -0.191751
   2 C :   -0.070918
   3 C :   -0.057213
   4 C :   -0.180598
   5 H :    0.022641
   6 C :   -0.035125
   7 H :    0.021658
   8 H :    0.037494
   9 C :   -0.049311
  10 H :    0.035509
  11 H :    0.022674
  12 C :   -0.067905
  13 H :    0.031300
  14 H :    0.023087
  15 H :    0.037507
  16 S :    0.429291
  17 C :   -0.197133
  18 C :   -0.083273
  19 C :   -0.054605
  20 C :   -0.203459
  21 H :    0.035804
  22 C :   -0.031034
  23 H :    0.025978
  24 H :    0.032811
  25 C :   -0.037172
  26 H :    0.018064
  27 H :    0.027937
  28 C :   -0.063295
  29 H :    0.021605
  30 H :    0.022163
  31 H :    0.027591
  32 H :    0.030823
  33 H :    0.029079

  Mayer bond orders larger than 0.100000
B(  0-S ,  1-C ) :   1.1042 B(  0-S ,  4-C ) :   1.1493 B(  1-C ,  2-C ) :   1.6808
B(  1-C , 32-H ) :   0.9566 B(  2-C ,  3-C ) :   1.1999 B(  2-C ,  6-C ) :   1.0234
B(  3-C ,  4-C ) :   1.5878 B(  3-C ,  5-H ) :   1.0007 B(  4-C , 20-C ) :   1.0412
B(  6-C ,  7-H ) :   0.9459 B(  6-C ,  8-H ) :   0.9310 B(  6-C ,  9-C ) :   1.0674
B(  9-C , 10-H ) :   0.9505 B(  9-C , 11-H ) :   0.9512 B(  9-C , 12-C ) :   1.0699
B( 12-C , 13-H ) :   0.9729 B( 12-C , 14-H ) :   0.9776 B( 12-C , 15-H ) :   0.9742
B( 16-S , 17-C ) :   1.1930 B( 16-S , 20-C ) :   1.1522 B( 17-C , 18-C ) :   1.5521
B( 17-C , 20-C ) :   0.1136 B( 17-C , 33-H ) :   0.9752 B( 18-C , 19-C ) :   1.2718
B( 18-C , 21-H ) :   0.9878 B( 19-C , 20-C ) :   1.5592 B( 19-C , 22-C ) :   1.0231
B( 22-C , 23-H ) :   0.9405 B( 22-C , 24-H ) :   0.9461 B( 22-C , 25-C ) :   1.0406
B( 25-C , 26-H ) :   0.9620 B( 25-C , 27-H ) :   0.9617 B( 25-C , 28-C ) :   1.0954
B( 28-C , 29-H ) :   0.9767 B( 28-C , 30-H ) :   0.9737 B( 28-C , 31-H ) :   0.9709

Dispersion correction           -0.013186116
FINAL SINGLE POINT ENERGY     -1339.868256829854

DIPOLE MOMENT
-------------
                                X             Y             Z
Electronic contribution:      0.69999       1.26289     -26.41842
Nuclear contribution   :     -0.84574      -1.34034      27.00282
                        -----------------------------------------
Total Dipole Moment    :     -0.14575      -0.07745       0.58440
                        -----------------------------------------
Magnitude (a.u.)       :      0.60726
Magnitude (Debye)      :      1.54353

Rotational constants in cm-1:     0.017904     0.007456     0.006202
Rotational constants in MHz :   536.749726   223.512678   185.941298

                             ****ORCA TERMINATED NORMALLY****
TOTAL RUN TIME: 0 days 0 hours 0 minutes 28 seconds 729 msec
