                         Program Version 4.2.1 -  RELEASE  -
|  1> ! wB97X-D3 SP def2-SVP
|  2> %pal
|  3> nprocs 16
|  4> end
|  5>
|  6> * xyz 0 1
|  7> S 	 -30.5865 	 63.6254 	 104.007
|  8> C 	 -31.3689 	 65.0483 	 104.672
|  9> C 	 -30.9283 	 66.2048 	 104.01
| 10> C 	 -29.8366 	 65.9887 	 103.128
| 11> C 	 -29.568 	 64.6408 	 102.964
| 12> H 	 -29.355 	 66.8271 	 102.513
| 13> C 	 -31.3781 	 67.6597 	 104.33
| 14> H 	 -31.7029 	 67.6624 	 105.32
| 15> H 	 -32.3345 	 67.8256 	 103.927
| 16> C 	 -30.3459 	 68.8479 	 104.154
| 17> H 	 -29.8191 	 68.7979 	 103.206
| 18> H 	 -30.8731 	 69.8838 	 104.24
| 19> C 	 -29.4305 	 68.7613 	 105.412
| 20> H 	 -28.705 	 69.5545 	 105.408
| 21> H 	 -29.856 	 68.7387 	 106.36
| 22> H 	 -28.9666 	 67.8069 	 105.448
| 23> S 	 -28.9591 	 62.7727 	 100.994
| 24> C 	 -27.5091 	 62.8984 	 100.067
| 25> C 	 -26.6356 	 63.6207 	 100.83
| 26> C 	 -27.1574 	 64.346 	 101.946
| 27> C 	 -28.5341 	 64.0623 	 102.104
| 28> H 	 -25.5644 	 63.7149 	 100.577
| 29> C 	 -26.3689 	 65.402 	 102.68
| 30> H 	 -27.0795 	 65.9836 	 103.203
| 31> H 	 -25.7962 	 66.0691 	 102.162
| 32> C 	 -25.5166 	 64.8705 	 103.861
| 33> H 	 -25.0128 	 65.6989 	 104.347
| 34> H 	 -24.6924 	 64.234 	 103.512
| 35> C 	 -26.2825 	 64.1236 	 105.017
| 36> H 	 -26.5663 	 63.1384 	 104.663
| 37> H 	 -27.2396 	 64.5638 	 105.265
| 38> H 	 -25.6776 	 63.9434 	 105.893
| 39> H 	 -32.0856 	 65.0954 	 105.491
| 40> H 	 -27.2361 	 62.164 	 99.3677
| 41> *
| 42>
| 43>                          ****END OF INPUT****

CARTESIAN COORDINATES (ANGSTROEM)
---------------------------------
  S    -30.586500   63.625400  104.007000
  C    -31.368900   65.048300  104.672000
  C    -30.928300   66.204800  104.010000
  C    -29.836600   65.988700  103.128000
  C    -29.568000   64.640800  102.964000
  H    -29.355000   66.827100  102.513000
  C    -31.378100   67.659700  104.330000
  H    -31.702900   67.662400  105.320000
  H    -32.334500   67.825600  103.927000
  C    -30.345900   68.847900  104.154000
  H    -29.819100   68.797900  103.206000
  H    -30.873100   69.883800  104.240000
  C    -29.430500   68.761300  105.412000
  H    -28.705000   69.554500  105.408000
  H    -29.856000   68.738700  106.360000
  H    -28.966600   67.806900  105.448000
  S    -28.959100   62.772700  100.994000
  C    -27.509100   62.898400  100.067000
  C    -26.635600   63.620700  100.830000
  C    -27.157400   64.346000  101.946000
  C    -28.534100   64.062300  102.104000
  H    -25.564400   63.714900  100.577000
  C    -26.368900   65.402000  102.680000
  H    -27.079500   65.983600  103.203000
  H    -25.796200   66.069100  102.162000
  C    -25.516600   64.870500  103.861000
  H    -25.012800   65.698900  104.347000
  H    -24.692400   64.234000  103.512000
  C    -26.282500   64.123600  105.017000
  H    -26.566300   63.138400  104.663000
  H    -27.239600   64.563800  105.265000
  H    -25.677600   63.943400  105.893000
  H    -32.085600   65.095400  105.491000
  H    -27.236100   62.164000   99.367700

 Total Charge           Charge          ....    0
 Multiplicity           Mult            ....    1
 Number of Electrons    NEL             ....  134
 Basis Dimension        Dim             ....  322

ORBITAL ENERGIES
----------------

  NO   OCC          E(Eh)            E(eV)
   0   2.0000     -88.973469     -2421.0912
   1   2.0000     -88.961224     -2420.7580
   2   2.0000     -10.336588      -281.2729
   3   2.0000     -10.332203      -281.1535
   4   2.0000     -10.319647      -280.8119
   5   2.0000     -10.310962      -280.5755
   6   2.0000     -10.307693      -280.4866
   7   2.0000     -10.306114      -280.4436
   8   2.0000     -10.305726      -280.4331
   9   2.0000     -10.302551      -280.3467
  10   2.0000     -10.293767      -280.1076
  11   2.0000     -10.288330      -279.9597
  12   2.0000     -10.285285      -279.8768
  13   2.0000     -10.282038      -279.7885
  14   2.0000     -10.269018      -279.4342
  15   2.0000     -10.268983      -279.4332
  16   2.0000      -8.087250      -220.0653
  17   2.0000      -8.076673      -219.7774
  18   2.0000      -6.045848      -164.5159
  19   2.0000      -6.041853      -164.4072
  20   2.0000      -6.038000      -164.3023
  21   2.0000      -6.035122      -164.2240
  22   2.0000      -6.031089      -164.1143
  23   2.0000      -6.027416      -164.0143
  24   2.0000      -1.006898       -27.3991
  25   2.0000      -0.985421       -26.8147
  26   2.0000      -0.907370       -24.6908
  27   2.0000      -0.906576       -24.6692
  28   2.0000      -0.868784       -23.6408
  29   2.0000      -0.847911       -23.0728
  30   2.0000      -0.839795       -22.8520
  31   2.0000      -0.815312       -22.1858
  32   2.0000      -0.786551       -21.4031
  33   2.0000      -0.776314       -21.1246
  34   2.0000      -0.716453       -19.4957
  35   2.0000      -0.699703       -19.0399
  36   2.0000      -0.696950       -18.9650
  37   2.0000      -0.655186       -17.8285
  38   2.0000      -0.639308       -17.3965
  39   2.0000      -0.624398       -16.9907
  40   2.0000      -0.604374       -16.4459
  41   2.0000      -0.562594       -15.3090
  42   2.0000      -0.555766       -15.1232
  43   2.0000      -0.553018       -15.0484
  44   2.0000      -0.536239       -14.5918
  45   2.0000      -0.528273       -14.3750
  46   2.0000      -0.519719       -14.1423
  47   2.0000      -0.510194       -13.8831
  48   2.0000      -0.503479       -13.7004
  49   2.0000      -0.498208       -13.5569
  50   2.0000      -0.493985       -13.4420
  51   2.0000      -0.479670       -13.0525
  52   2.0000      -0.471325       -12.8254
  53   2.0000      -0.463821       -12.6212
  54   2.0000      -0.460170       -12.5219
  55   2.0000      -0.448664       -12.2088
  56   2.0000      -0.443781       -12.0759
  57   2.0000      -0.438977       -11.9452
  58   2.0000      -0.429975       -11.7002
  59   2.0000      -0.427093       -11.6218
  60   2.0000      -0.418739       -11.3945
  61   2.0000      -0.414042       -11.2667
  62   2.0000      -0.409967       -11.1558
  63   2.0000      -0.350580        -9.5398
  64   2.0000      -0.334177        -9.0934
  65   2.0000      -0.325634        -8.8609
  66   2.0000      -0.291271        -7.9259
  67   0.0000       0.025391         0.6909
  68   0.0000       0.061405         1.6709
  69   0.0000       0.108903         2.9634
  70   0.0000       0.118640         3.2284
  71   0.0000       0.129563         3.5256

MULLIKEN ATOMIC CHARGES
-----------------------
   0 S :    0.123337
   1 C :   -0.122909
   2 C :   -0.108318
   3 C :   -0.003248
   4 C :   -0.140272
   5 H :    0.053853
   6 C :    0.111997
   7 H :   -0.014315
   8 H :    0.016954
   9 C :   -0.095629
  10 H :    0.043160
  11 H :    0.049591
  12 C :   -0.014591
  13 H :    0.029079
  14 H :    0.010239
  15 H :    0.018826
  16 S :    0.090516
  17 C :   -0.058407
  18 C :   -0.056280
  19 C :   -0.036097
  20 C :   -0.169392
  21 H :    0.025424
  22 C :    0.154018
  23 H :   -0.009716
  24 H :    0.008261
  25 C :   -0.101505
  26 H :    0.024050
  27 H :    0.024815
  28 C :   -0.049129
  29 H :    0.025934
  30 H :    0.030705
  31 H :    0.034320
  32 H :    0.050296
  33 H :    0.054433
Sum of atomic charges:   -0.0000000

LOEWDIN ATOMIC CHARGES
----------------------
   0 S :    0.403624
   1 C :   -0.205525
   2 C :   -0.057404
   3 C :   -0.073528
   4 C :   -0.183839
   5 H :    0.049169
   6 C :   -0.032261
   7 H :    0.023034
   8 H :    0.026908
   9 C :   -0.034528
  10 H :    0.021019
  11 H :    0.039167
  12 C :   -0.062596
  13 H :    0.021493
  14 H :    0.019133
  15 H :    0.023204
  16 S :    0.411310
  17 C :   -0.192129
  18 C :   -0.069720
  19 C :   -0.055420
  20 C :   -0.194248
  21 H :    0.031675
  22 C :   -0.022404
  23 H :    0.027379
  24 H :    0.019831
  25 C :   -0.034040
  26 H :    0.020491
  27 H :    0.019062
  28 C :   -0.067048
  29 H :    0.023867
  30 H :    0.023325
  31 H :    0.025478
  32 H :    0.031465
  33 H :    0.024059

  Mayer bond orders larger than 0.100000
B(  0-S ,  1-C ) :   1.1324 B(  0-S ,  4-C ) :   1.1514 B(  1-C ,  2-C ) :   1.6086
B(  1-C ,  4-C ) :   0.1054 B(  1-C , 32-H ) :   0.9669 B(  2-C ,  3-C ) :   1.2665
B(  2-C ,  6-C ) :   1.0001 B(  3-C ,  4-C ) :   1.5730 B(  3-C ,  5-H ) :   0.9695
B(  4-C , 20-C ) :   1.0376 B(  6-C ,  7-H ) :   0.9333 B(  6-C ,  8-H ) :   0.9257
B(  6-C ,  9-C ) :   1.0616 B(  9-C , 10-H ) :   0.9573 B(  9-C , 11-H ) :   0.9560
B(  9-C , 12-C ) :   1.0633 B( 12-C , 13-H ) :   0.9764 B( 12-C , 14-H ) :   0.9723
B( 12-C , 15-H ) :   0.9739 B( 16-S , 17-C ) :   1.1519 B( 16-S , 20-C ) :   1.1646
B( 17-C , 18-C ) :   1.5851 B( 17-C , 20-C ) :   0.1086 B( 17-C , 33-H ) :   0.9719
B( 18-C , 19-C ) :   1.2704 B( 18-C , 21-H ) :   0.9803 B( 19-C , 20-C ) :   1.5404
B( 19-C , 22-C ) :   1.0439 B( 22-C , 23-H ) :   0.9206 B( 22-C , 24-H ) :   0.9384
B( 22-C , 25-C ) :   1.0720 B( 25-C , 26-H ) :   0.9592 B( 25-C , 27-H ) :   0.9588
B( 25-C , 28-C ) :   1.0702 B( 28-C , 29-H ) :   0.9731 B( 28-C , 30-H ) :   0.9759
B( 28-C , 31-H ) :   0.9764

Dispersion correction           -0.015582181
FINAL SINGLE POINT ENERGY     -1339.852057022666

DIPOLE MOMENT
-------------
                                X             Y             Z
Electronic contribution:    -10.67926     -20.93733     -14.05791
Nuclear contribution   :     10.92257      21.52878      14.33119
                        -----------------------------------------
Total Dipole Moment    :      0.24330       0.59145       0.27328
                        -----------------------------------------
Magnitude (a.u.)       :      0.69548
Magnitude (Debye)      :      1.76776

Rotational constants in cm-1:     0.018768     0.009533     0.007901
Rotational constants in MHz :   562.657747   285.791156   236.877969

                             ****ORCA TERMINATED NORMALLY****
TOTAL RUN TIME: 0 days 0 hours 0 minutes 30 seconds 39 msec
