                         Program Version 4.2.1 -  RELEASE  -
|  1> ! wB97X-D3 SP def2-SVP
|  2> %pal
|  3> nprocs 16
|  4> end
|  5>
|  6> * xyz 0 1
|  7> S 	 5.60118 	 -29.2532 	 77.1377
|  8> C 	 3.98891 	 -29.833 	 77.6144
|  9> C 	 3.89765 	 -29.7794 	 78.9762
| 10> C 	 4.94367 	 -29.0534 	 79.6074
| 11> C 	 5.98891 	 -28.6718 	 78.7426
| 12> H 	 4.9913 	 -28.856 	 80.6949
| 13> C 	 2.83943 	 -30.4275 	 79.8385
| 14> H 	 3.36286 	 -31.2719 	 80.4026
| 15> H 	 2.03089 	 -30.8955 	 79.2535
| 16> C 	 2.20751 	 -29.5118 	 80.9157
| 17> H 	 1.4662 	 -30.0997 	 81.494
| 18> H 	 2.85861 	 -29.2059 	 81.7903
| 19> C 	 1.6353 	 -28.2368 	 80.293
| 20> H 	 1.02543 	 -27.7557 	 81.0989
| 21> H 	 2.37451 	 -27.5163 	 79.9913
| 22> H 	 0.979116 	 -28.4811 	 79.4478
| 23> S 	 7.06145 	 -26.718 	 80.3358
| 24> C 	 8.58237 	 -26.0791 	 79.8943
| 25> C 	 9.21398 	 -26.7294 	 78.8685
| 26> C 	 8.38838 	 -27.7538 	 78.4034
| 27> C 	 7.15246 	 -27.8235 	 79.0537
| 28> H 	 10.106 	 -26.3368 	 78.4357
| 29> C 	 8.89523 	 -28.6106 	 77.2412
| 30> H 	 9.77701 	 -28.1489 	 76.8949
| 31> H 	 8.25236 	 -28.5434 	 76.3997
| 32> C 	 9.14856 	 -30.114 	 77.6089
| 33> H 	 8.22655 	 -30.5086 	 78.1109
| 34> H 	 10.0147 	 -30.1303 	 78.2571
| 35> C 	 9.56524 	 -30.8531 	 76.342
| 36> H 	 9.76322 	 -31.9894 	 76.5283
| 37> H 	 10.4689 	 -30.3324 	 76.0695
| 38> H 	 8.71417 	 -30.8958 	 75.6138
| 39> H 	 3.28105 	 -30.2556 	 76.9004
| 40> H 	 8.95707 	 -25.1709 	 80.3398
| 41> *
| 42>
| 43>                          ****END OF INPUT****

CARTESIAN COORDINATES (ANGSTROEM)
---------------------------------
  S      5.601180  -29.253200   77.137700
  C      3.988910  -29.833000   77.614400
  C      3.897650  -29.779400   78.976200
  C      4.943670  -29.053400   79.607400
  C      5.988910  -28.671800   78.742600
  H      4.991300  -28.856000   80.694900
  C      2.839430  -30.427500   79.838500
  H      3.362860  -31.271900   80.402600
  H      2.030890  -30.895500   79.253500
  C      2.207510  -29.511800   80.915700
  H      1.466200  -30.099700   81.494000
  H      2.858610  -29.205900   81.790300
  C      1.635300  -28.236800   80.293000
  H      1.025430  -27.755700   81.098900
  H      2.374510  -27.516300   79.991300
  H      0.979116  -28.481100   79.447800
  S      7.061450  -26.718000   80.335800
  C      8.582370  -26.079100   79.894300
  C      9.213980  -26.729400   78.868500
  C      8.388380  -27.753800   78.403400
  C      7.152460  -27.823500   79.053700
  H     10.106000  -26.336800   78.435700
  C      8.895230  -28.610600   77.241200
  H      9.777010  -28.148900   76.894900
  H      8.252360  -28.543400   76.399700
  C      9.148560  -30.114000   77.608900
  H      8.226550  -30.508600   78.110900
  H     10.014700  -30.130300   78.257100
  C      9.565240  -30.853100   76.342000
  H      9.763220  -31.989400   76.528300
  H     10.468900  -30.332400   76.069500
  H      8.714170  -30.895800   75.613800
  H      3.281050  -30.255600   76.900400
  H      8.957070  -25.170900   80.339800

 Total Charge           Charge          ....    0
 Multiplicity           Mult            ....    1
 Number of Electrons    NEL             ....  134
 Basis Dimension        Dim             ....  322

ORBITAL ENERGIES
----------------

  NO   OCC          E(Eh)            E(eV)
   0   2.0000     -88.970773     -2421.0178
   1   2.0000     -88.964734     -2420.8535
   2   2.0000     -10.336095      -281.2595
   3   2.0000     -10.324825      -280.9528
   4   2.0000     -10.315082      -280.6877
   5   2.0000     -10.311900      -280.6011
   6   2.0000     -10.300157      -280.2815
   7   2.0000     -10.299449      -280.2623
   8   2.0000     -10.298928      -280.2481
   9   2.0000     -10.294067      -280.1158
  10   2.0000     -10.292542      -280.0743
  11   2.0000     -10.288482      -279.9638
  12   2.0000     -10.283751      -279.8351
  13   2.0000     -10.283087      -279.8170
  14   2.0000     -10.282904      -279.8120
  15   2.0000     -10.275583      -279.6128
  16   2.0000      -8.087035      -220.0594
  17   2.0000      -8.078532      -219.8280
  18   2.0000      -6.045239      -164.4993
  19   2.0000      -6.041323      -164.3928
  20   2.0000      -6.038061      -164.3040
  21   2.0000      -6.037210      -164.2808
  22   2.0000      -6.033122      -164.1696
  23   2.0000      -6.029231      -164.0637
  24   2.0000      -1.015889       -27.6437
  25   2.0000      -0.988190       -26.8900
  26   2.0000      -0.909775       -24.7562
  27   2.0000      -0.907147       -24.6847
  28   2.0000      -0.871796       -23.7228
  29   2.0000      -0.855258       -23.2728
  30   2.0000      -0.838617       -22.8199
  31   2.0000      -0.812304       -22.1039
  32   2.0000      -0.779807       -21.2196
  33   2.0000      -0.769445       -20.9377
  34   2.0000      -0.704727       -19.1766
  35   2.0000      -0.692794       -18.8519
  36   2.0000      -0.687554       -18.7093
  37   2.0000      -0.669766       -18.2253
  38   2.0000      -0.630927       -17.1684
  39   2.0000      -0.621310       -16.9067
  40   2.0000      -0.600129       -16.3303
  41   2.0000      -0.572524       -15.5792
  42   2.0000      -0.565091       -15.3769
  43   2.0000      -0.549754       -14.9596
  44   2.0000      -0.531263       -14.4564
  45   2.0000      -0.521930       -14.2024
  46   2.0000      -0.517379       -14.0786
  47   2.0000      -0.512310       -13.9407
  48   2.0000      -0.499183       -13.5834
  49   2.0000      -0.498036       -13.5522
  50   2.0000      -0.487856       -13.2752
  51   2.0000      -0.483577       -13.1588
  52   2.0000      -0.476570       -12.9681
  53   2.0000      -0.468617       -12.7517
  54   2.0000      -0.457231       -12.4419
  55   2.0000      -0.454841       -12.3768
  56   2.0000      -0.441931       -12.0255
  57   2.0000      -0.428749       -11.6669
  58   2.0000      -0.428000       -11.6465
  59   2.0000      -0.423375       -11.5206
  60   2.0000      -0.414951       -11.2914
  61   2.0000      -0.413694       -11.2572
  62   2.0000      -0.407990       -11.1020
  63   2.0000      -0.359223        -9.7750
  64   2.0000      -0.337325        -9.1791
  65   2.0000      -0.326733        -8.8909
  66   2.0000      -0.281529        -7.6608
  67   0.0000       0.022656         0.6165
  68   0.0000       0.081118         2.2073
  69   0.0000       0.104301         2.8382
  70   0.0000       0.126471         3.4415
  71   0.0000       0.136037         3.7018

MULLIKEN ATOMIC CHARGES
-----------------------
   0 S :    0.081649
   1 C :   -0.145572
   2 C :   -0.049398
   3 C :   -0.030679
   4 C :   -0.114113
   5 H :    0.022408
   6 C :    0.048165
   7 H :    0.053983
   8 H :    0.026356
   9 C :   -0.120264
  10 H :    0.029641
  11 H :    0.032217
  12 C :   -0.043903
  13 H :    0.034261
  14 H :    0.045517
  15 H :    0.031235
  16 S :    0.128620
  17 C :   -0.089575
  18 C :   -0.019880
  19 C :   -0.065007
  20 C :   -0.115994
  21 H :    0.013818
  22 C :    0.080062
  23 H :   -0.010867
  24 H :    0.020550
  25 C :   -0.075635
  26 H :    0.050141
  27 H :    0.027500
  28 C :   -0.069815
  29 H :    0.045301
  30 H :    0.033075
  31 H :    0.042817
  32 H :    0.055836
  33 H :    0.047552
Sum of atomic charges:   -0.0000000

LOEWDIN ATOMIC CHARGES
----------------------
   0 S :    0.398174
   1 C :   -0.194251
   2 C :   -0.066654
   3 C :   -0.084259
   4 C :   -0.178136
   5 H :    0.031151
   6 C :   -0.035889
   7 H :    0.044616
   8 H :    0.029801
   9 C :   -0.055463
  10 H :    0.026281
  11 H :    0.026385
  12 C :   -0.067481
  13 H :    0.030961
  14 H :    0.025911
  15 H :    0.024817
  16 S :    0.457515
  17 C :   -0.190099
  18 C :   -0.067838
  19 C :   -0.054043
  20 C :   -0.219630
  21 H :    0.032624
  22 C :   -0.030738
  23 H :    0.020134
  24 H :    0.017230
  25 C :   -0.038500
  26 H :    0.024968
  27 H :    0.022165
  28 C :   -0.073111
  29 H :    0.034538
  30 H :    0.023849
  31 H :    0.028272
  32 H :    0.032749
  33 H :    0.023953

  Mayer bond orders larger than 0.100000
B(  0-S ,  1-C ) :   1.1161 B(  0-S ,  4-C ) :   1.1551 B(  1-C ,  2-C ) :   1.6032
B(  1-C , 32-H ) :   0.9719 B(  2-C ,  3-C ) :   1.2460 B(  2-C ,  6-C ) :   1.0234
B(  3-C ,  4-C ) :   1.5424 B(  3-C ,  5-H ) :   0.9845 B(  4-C , 20-C ) :   1.0677
B(  6-C ,  7-H ) :   0.9372 B(  6-C ,  8-H ) :   0.9469 B(  6-C ,  9-C ) :   1.0678
B(  9-C , 10-H ) :   0.9562 B(  9-C , 11-H ) :   0.9488 B(  9-C , 12-C ) :   1.0744
B( 12-C , 13-H ) :   0.9729 B( 12-C , 14-H ) :   0.9703 B( 12-C , 15-H ) :   0.9773
B( 16-S , 17-C ) :   1.1876 B( 16-S , 20-C ) :   1.1585 B( 17-C , 18-C ) :   1.5741
B( 17-C , 33-H ) :   0.9650 B( 18-C , 19-C ) :   1.2877 B( 18-C , 21-H ) :   0.9976
B( 19-C , 20-C ) :   1.5335 B( 19-C , 22-C ) :   1.0375 B( 22-C , 23-H ) :   0.9241
B( 22-C , 24-H ) :   0.9341 B( 22-C , 25-C ) :   1.0490 B( 25-C , 26-H ) :   0.9588
B( 25-C , 27-H ) :   0.9561 B( 25-C , 28-C ) :   1.0744 B( 28-C , 29-H ) :   0.9733
B( 28-C , 30-H ) :   0.9727 B( 28-C , 31-H ) :   0.9748

Dispersion correction           -0.014743832
FINAL SINGLE POINT ENERGY     -1339.884374954300

DIPOLE MOMENT
-------------
                                X             Y             Z
Electronic contribution:      4.59787      10.27172       0.61100
Nuclear contribution   :     -4.59770     -10.29121      -0.47400
                        -----------------------------------------
Total Dipole Moment    :      0.00017      -0.01949       0.13701
                        -----------------------------------------
Magnitude (a.u.)       :      0.13839
Magnitude (Debye)      :      0.35175

Rotational constants in cm-1:     0.020177     0.009250     0.006886
Rotational constants in MHz :   604.895536   277.300353   206.438159

                             ****ORCA TERMINATED NORMALLY****
TOTAL RUN TIME: 0 days 0 hours 0 minutes 34 seconds 512 msec
