                         Program Version 4.2.1 -  RELEASE  -
|  1> ! wB97X-D3 SP def2-SVP
|  2> %pal
|  3> nprocs 16
|  4> end
|  5>
|  6> * xyz 0 1
|  7> S 	 -96.2903 	 51.2701 	 122.357
|  8> C 	 -95.0747 	 51.459 	 121.153
|  9> C 	 -95.7072 	 51.6043 	 119.957
| 10> C 	 -97.1059 	 51.6123 	 120.027
| 11> C 	 -97.6637 	 51.5059 	 121.269
| 12> H 	 -97.728 	 51.8892 	 119.174
| 13> C 	 -94.9945 	 51.768 	 118.658
| 14> H 	 -93.998 	 51.4039 	 118.773
| 15> H 	 -94.9119 	 52.8468 	 118.407
| 16> C 	 -95.6384 	 51.123 	 117.428
| 17> H 	 -95.7298 	 50.1041 	 117.531
| 18> H 	 -96.6821 	 51.4402 	 117.333
| 19> C 	 -94.9561 	 51.3604 	 116.079
| 20> H 	 -95.3688 	 50.7293 	 115.277
| 21> H 	 -95.0642 	 52.3827 	 115.75
| 22> H 	 -93.8876 	 51.0934 	 116.263
| 23> S 	 -99.4107 	 53.2452 	 122.577
| 24> C 	 -101.149 	 52.9966 	 122.478
| 25> C 	 -101.453 	 51.9181 	 121.651
| 26> C 	 -100.219 	 51.2995 	 121.123
| 27> C 	 -99.044 	 51.8194 	 121.607
| 28> H 	 -102.533 	 51.6081 	 121.56
| 29> C 	 -100.278 	 50.1414 	 120.096
| 30> H 	 -99.4165 	 49.554 	 120.167
| 31> H 	 -100.179 	 50.4932 	 119.118
| 32> C 	 -101.499 	 49.1199 	 120.252
| 33> H 	 -101.558 	 48.4019 	 119.37
| 34> H 	 -102.436 	 49.6775 	 120.253
| 35> C 	 -101.491 	 48.3139 	 121.619
| 36> H 	 -101.507 	 49.0509 	 122.414
| 37> H 	 -100.599 	 47.6896 	 121.705
| 38> H 	 -102.313 	 47.6456 	 121.748
| 39> H 	 -94.0405 	 51.5508 	 121.463
| 40> H 	 -101.922 	 53.4946 	 123.075
| 41> *
| 42>
| 43>                          ****END OF INPUT****

CARTESIAN COORDINATES (ANGSTROEM)
---------------------------------
  S    -96.290300   51.270100  122.357000
  C    -95.074700   51.459000  121.153000
  C    -95.707200   51.604300  119.957000
  C    -97.105900   51.612300  120.027000
  C    -97.663700   51.505900  121.269000
  H    -97.728000   51.889200  119.174000
  C    -94.994500   51.768000  118.658000
  H    -93.998000   51.403900  118.773000
  H    -94.911900   52.846800  118.407000
  C    -95.638400   51.123000  117.428000
  H    -95.729800   50.104100  117.531000
  H    -96.682100   51.440200  117.333000
  C    -94.956100   51.360400  116.079000
  H    -95.368800   50.729300  115.277000
  H    -95.064200   52.382700  115.750000
  H    -93.887600   51.093400  116.263000
  S    -99.410700   53.245200  122.577000
  C    -101.149000   52.996600  122.478000
  C    -101.453000   51.918100  121.651000
  C    -100.219000   51.299500  121.123000
  C    -99.044000   51.819400  121.607000
  H    -102.533000   51.608100  121.560000
  C    -100.278000   50.141400  120.096000
  H    -99.416500   49.554000  120.167000
  H    -100.179000   50.493200  119.118000
  C    -101.499000   49.119900  120.252000
  H    -101.558000   48.401900  119.370000
  H    -102.436000   49.677500  120.253000
  C    -101.491000   48.313900  121.619000
  H    -101.507000   49.050900  122.414000
  H    -100.599000   47.689600  121.705000
  H    -102.313000   47.645600  121.748000
  H    -94.040500   51.550800  121.463000
  H    -101.922000   53.494600  123.075000

 Total Charge           Charge          ....    0
 Multiplicity           Mult            ....    1
 Number of Electrons    NEL             ....  134
 Basis Dimension        Dim             ....  322

ORBITAL ENERGIES
----------------

  NO   OCC          E(Eh)            E(eV)
   0   2.0000     -88.964485     -2420.8467
   1   2.0000     -88.962299     -2420.7872
   2   2.0000     -10.330881      -281.1176
   3   2.0000     -10.329655      -281.0842
   4   2.0000     -10.323048      -280.9044
   5   2.0000     -10.315962      -280.7116
   6   2.0000     -10.311902      -280.6011
   7   2.0000     -10.305415      -280.4246
   8   2.0000     -10.297412      -280.2068
   9   2.0000     -10.296965      -280.1946
  10   2.0000     -10.291000      -280.0323
  11   2.0000     -10.289296      -279.9860
  12   2.0000     -10.287072      -279.9255
  13   2.0000     -10.281915      -279.7851
  14   2.0000     -10.278893      -279.7029
  15   2.0000     -10.274321      -279.5785
  16   2.0000      -8.078934      -219.8390
  17   2.0000      -8.077587      -219.8023
  18   2.0000      -6.037638      -164.2925
  19   2.0000      -6.036130      -164.2515
  20   2.0000      -6.033441      -164.1783
  21   2.0000      -6.031747      -164.1322
  22   2.0000      -6.029509      -164.0713
  23   2.0000      -6.028510      -164.0441
  24   2.0000      -1.011715       -27.5302
  25   2.0000      -0.986170       -26.8350
  26   2.0000      -0.915020       -24.8990
  27   2.0000      -0.894862       -24.3504
  28   2.0000      -0.876570       -23.8527
  29   2.0000      -0.850513       -23.1436
  30   2.0000      -0.835715       -22.7410
  31   2.0000      -0.821181       -22.3455
  32   2.0000      -0.782535       -21.2938
  33   2.0000      -0.772691       -21.0260
  34   2.0000      -0.714037       -19.4299
  35   2.0000      -0.697860       -18.9897
  36   2.0000      -0.695017       -18.9124
  37   2.0000      -0.651797       -17.7363
  38   2.0000      -0.647643       -17.6233
  39   2.0000      -0.627566       -17.0769
  40   2.0000      -0.596563       -16.2333
  41   2.0000      -0.574377       -15.6296
  42   2.0000      -0.567374       -15.4390
  43   2.0000      -0.547040       -14.8857
  44   2.0000      -0.532707       -14.4957
  45   2.0000      -0.526299       -14.3213
  46   2.0000      -0.521081       -14.1793
  47   2.0000      -0.518857       -14.1188
  48   2.0000      -0.506284       -13.7767
  49   2.0000      -0.502528       -13.6745
  50   2.0000      -0.485166       -13.2020
  51   2.0000      -0.482755       -13.1364
  52   2.0000      -0.471627       -12.8336
  53   2.0000      -0.464629       -12.6432
  54   2.0000      -0.457604       -12.4520
  55   2.0000      -0.452776       -12.3207
  56   2.0000      -0.443286       -12.0624
  57   2.0000      -0.435299       -11.8451
  58   2.0000      -0.430169       -11.7055
  59   2.0000      -0.422634       -11.5005
  60   2.0000      -0.418679       -11.3928
  61   2.0000      -0.413826       -11.2608
  62   2.0000      -0.410925       -11.1818
  63   2.0000      -0.348695        -9.4885
  64   2.0000      -0.328026        -8.9260
  65   2.0000      -0.326594        -8.8871
  66   2.0000      -0.304030        -8.2731
  67   0.0000       0.027805         0.7566
  68   0.0000       0.070366         1.9148
  69   0.0000       0.117847         3.2068
  70   0.0000       0.127827         3.4784
  71   0.0000       0.133924         3.6443

MULLIKEN ATOMIC CHARGES
-----------------------
   0 S :    0.095431
   1 C :   -0.136450
   2 C :   -0.063527
   3 C :    0.020783
   4 C :   -0.155002
   5 H :    0.020562
   6 C :    0.095608
   7 H :    0.007934
   8 H :    0.039163
   9 C :   -0.083856
  10 H :    0.010299
  11 H :    0.017969
  12 C :   -0.052792
  13 H :    0.040019
  14 H :    0.032525
  15 H :    0.034368
  16 S :    0.106118
  17 C :   -0.104033
  18 C :   -0.059200
  19 C :   -0.069677
  20 C :   -0.135970
  21 H :    0.051355
  22 C :    0.125702
  23 H :    0.008562
  24 H :    0.022676
  25 C :   -0.118295
  26 H :    0.040387
  27 H :    0.028764
  28 C :   -0.046800
  29 H :    0.035957
  30 H :    0.032044
  31 H :    0.029908
  32 H :    0.061483
  33 H :    0.067988
Sum of atomic charges:    0.0000000

LOEWDIN ATOMIC CHARGES
----------------------
   0 S :    0.409762
   1 C :   -0.192221
   2 C :   -0.074980
   3 C :   -0.059249
   4 C :   -0.194923
   5 H :    0.032960
   6 C :   -0.029298
   7 H :    0.024255
   8 H :    0.037512
   9 C :   -0.041753
  10 H :    0.012929
  11 H :    0.020187
  12 C :   -0.061938
  13 H :    0.030671
  14 H :    0.021195
  15 H :    0.028972
  16 S :    0.396424
  17 C :   -0.184755
  18 C :   -0.083159
  19 C :   -0.048612
  20 C :   -0.197194
  21 H :    0.044408
  22 C :   -0.024902
  23 H :    0.023793
  24 H :    0.025132
  25 C :   -0.039584
  26 H :    0.029620
  27 H :    0.015986
  28 C :   -0.063726
  29 H :    0.024744
  30 H :    0.024960
  31 H :    0.021372
  32 H :    0.034710
  33 H :    0.036705

  Mayer bond orders larger than 0.100000
B(  0-S ,  1-C ) :   1.1558 B(  0-S ,  4-C ) :   1.1518 B(  1-C ,  2-C ) :   1.5636
B(  1-C , 32-H ) :   0.9794 B(  2-C ,  3-C ) :   1.2823 B(  2-C ,  6-C ) :   1.0301
B(  3-C ,  4-C ) :   1.5449 B(  3-C ,  5-H ) :   0.9889 B(  4-C , 20-C ) :   1.0465
B(  6-C ,  7-H ) :   0.9379 B(  6-C ,  8-H ) :   0.9303 B(  6-C ,  9-C ) :   1.0678
B(  9-C , 10-H ) :   0.9565 B(  9-C , 11-H ) :   0.9441 B(  9-C , 12-C ) :   1.0914
B( 12-C , 13-H ) :   0.9731 B( 12-C , 14-H ) :   0.9767 B( 12-C , 15-H ) :   0.9746
B( 16-S , 17-C ) :   1.1532 B( 16-S , 20-C ) :   1.1189 B( 17-C , 18-C ) :   1.6390
B( 17-C , 33-H ) :   0.9605 B( 18-C , 19-C ) :   1.2016 B( 18-C , 21-H ) :   0.9787
B( 19-C , 20-C ) :   1.6395 B( 19-C , 22-C ) :   1.0286 B( 22-C , 23-H ) :   0.9304
B( 22-C , 24-H ) :   0.9333 B( 22-C , 25-C ) :   1.0580 B( 25-C , 26-H ) :   0.9594
B( 25-C , 27-H ) :   0.9584 B( 25-C , 28-C ) :   1.0668 B( 28-C , 29-H ) :   0.9762
B( 28-C , 30-H ) :   0.9780 B( 28-C , 31-H ) :   0.9775

Dispersion correction           -0.013995149
FINAL SINGLE POINT ENERGY     -1339.874555807754

DIPOLE MOMENT
-------------
                                X             Y             Z
Electronic contribution:      2.24327      13.07006      22.17489
Nuclear contribution   :     -2.31660     -13.18476     -22.75874
                        -----------------------------------------
Total Dipole Moment    :     -0.07333      -0.11471      -0.58385
                        -----------------------------------------
Magnitude (a.u.)       :      0.59951
Magnitude (Debye)      :      1.52384

Rotational constants in cm-1:     0.017984     0.008085     0.006758
Rotational constants in MHz :   539.147671   242.389719   202.601499

                             ****ORCA TERMINATED NORMALLY****
TOTAL RUN TIME: 0 days 0 hours 0 minutes 33 seconds 254 msec
