                         Program Version 4.2.1 -  RELEASE  -
|  1> ! wB97X-D3 SP def2-SVP
|  2> %pal
|  3> nprocs 16
|  4> end
|  5>
|  6> * xyz 0 1
|  7> S 	 27.4564 	 -0.701898 	 72.5603
|  8> C 	 27.9757 	 0.844304 	 73.1313
|  9> C 	 29.1664 	 0.767019 	 73.9175
| 10> C 	 29.6295 	 -0.608479 	 73.9445
| 11> C 	 28.99 	 -1.47328 	 73.0264
| 12> H 	 30.604 	 -0.959614 	 74.2922
| 13> C 	 29.8032 	 1.94345 	 74.6585
| 14> H 	 29.2747 	 2.87811 	 74.4057
| 15> H 	 30.8062 	 2.16918 	 74.3094
| 16> C 	 29.8392 	 1.92176 	 76.1782
| 17> H 	 28.8106 	 2.00079 	 76.5526
| 18> H 	 30.1747 	 1.02589 	 76.6158
| 19> C 	 30.6481 	 2.98895 	 76.9336
| 20> H 	 31.7142 	 2.8618 	 76.8824
| 21> H 	 30.5585 	 3.94062 	 76.3789
| 22> H 	 30.355 	 3.18424 	 78.0126
| 23> S 	 28.0247 	 -3.93626 	 73.1331
| 24> C 	 28.8435 	 -5.28216 	 72.3768
| 25> C 	 30.1662 	 -4.86818 	 72.0211
| 26> C 	 30.3784 	 -3.46305 	 72.1433
| 27> C 	 29.2671 	 -2.82091 	 72.6146
| 28> H 	 30.931 	 -5.58886 	 71.6594
| 29> C 	 31.6407 	 -2.7764 	 71.7047
| 30> H 	 31.9939 	 -2.05462 	 72.4391
| 31> H 	 31.2839 	 -2.13652 	 70.8901
| 32> C 	 32.8076 	 -3.66727 	 71.4576
| 33> H 	 32.5627 	 -4.30691 	 70.6555
| 34> H 	 32.9677 	 -4.32111 	 72.332
| 35> C 	 34.1041 	 -2.92308 	 71.1026
| 36> H 	 35.017 	 -3.53011 	 71.3021
| 37> H 	 34.1542 	 -1.9674 	 71.6806
| 38> H 	 34.1553 	 -2.65286 	 70.0249
| 39> H 	 27.4162 	 1.77296 	 72.9638
| 40> H 	 28.5213 	 -6.28431 	 72.345
| 41> *
| 42>
| 43>                          ****END OF INPUT****

CARTESIAN COORDINATES (ANGSTROEM)
---------------------------------
  S     27.456400   -0.701898   72.560300
  C     27.975700    0.844304   73.131300
  C     29.166400    0.767019   73.917500
  C     29.629500   -0.608479   73.944500
  C     28.990000   -1.473280   73.026400
  H     30.604000   -0.959614   74.292200
  C     29.803200    1.943450   74.658500
  H     29.274700    2.878110   74.405700
  H     30.806200    2.169180   74.309400
  C     29.839200    1.921760   76.178200
  H     28.810600    2.000790   76.552600
  H     30.174700    1.025890   76.615800
  C     30.648100    2.988950   76.933600
  H     31.714200    2.861800   76.882400
  H     30.558500    3.940620   76.378900
  H     30.355000    3.184240   78.012600
  S     28.024700   -3.936260   73.133100
  C     28.843500   -5.282160   72.376800
  C     30.166200   -4.868180   72.021100
  C     30.378400   -3.463050   72.143300
  C     29.267100   -2.820910   72.614600
  H     30.931000   -5.588860   71.659400
  C     31.640700   -2.776400   71.704700
  H     31.993900   -2.054620   72.439100
  H     31.283900   -2.136520   70.890100
  C     32.807600   -3.667270   71.457600
  H     32.562700   -4.306910   70.655500
  H     32.967700   -4.321110   72.332000
  C     34.104100   -2.923080   71.102600
  H     35.017000   -3.530110   71.302100
  H     34.154200   -1.967400   71.680600
  H     34.155300   -2.652860   70.024900
  H     27.416200    1.772960   72.963800
  H     28.521300   -6.284310   72.345000

 Total Charge           Charge          ....    0
 Multiplicity           Mult            ....    1
 Number of Electrons    NEL             ....  134
 Basis Dimension        Dim             ....  322

ORBITAL ENERGIES
----------------

  NO   OCC          E(Eh)            E(eV)
   0   2.0000     -88.966271     -2420.8953
   1   2.0000     -88.965974     -2420.8872
   2   2.0000     -10.332649      -281.1657
   3   2.0000     -10.321338      -280.8579
   4   2.0000     -10.320995      -280.8485
   5   2.0000     -10.319314      -280.8028
   6   2.0000     -10.313821      -280.6533
   7   2.0000     -10.303163      -280.3633
   8   2.0000     -10.302376      -280.3419
   9   2.0000     -10.301025      -280.3052
  10   2.0000     -10.298140      -280.2266
  11   2.0000     -10.289053      -279.9794
  12   2.0000     -10.287087      -279.9259
  13   2.0000     -10.284196      -279.8472
  14   2.0000     -10.282855      -279.8107
  15   2.0000     -10.281903      -279.7848
  16   2.0000      -8.080967      -219.8943
  17   2.0000      -8.080638      -219.8853
  18   2.0000      -6.039471      -164.3424
  19   2.0000      -6.039090      -164.3320
  20   2.0000      -6.035476      -164.2336
  21   2.0000      -6.035091      -164.2232
  22   2.0000      -6.031722      -164.1315
  23   2.0000      -6.031525      -164.1261
  24   2.0000      -1.006968       -27.4010
  25   2.0000      -0.979409       -26.6511
  26   2.0000      -0.919235       -25.0137
  27   2.0000      -0.909535       -24.7497
  28   2.0000      -0.868585       -23.6354
  29   2.0000      -0.853465       -23.2240
  30   2.0000      -0.843974       -22.9657
  31   2.0000      -0.810489       -22.0545
  32   2.0000      -0.782335       -21.2884
  33   2.0000      -0.771388       -20.9905
  34   2.0000      -0.711281       -19.3549
  35   2.0000      -0.705378       -19.1943
  36   2.0000      -0.694016       -18.8851
  37   2.0000      -0.655845       -17.8465
  38   2.0000      -0.644957       -17.5502
  39   2.0000      -0.615005       -16.7351
  40   2.0000      -0.602296       -16.3893
  41   2.0000      -0.574813       -15.6415
  42   2.0000      -0.564631       -15.3644
  43   2.0000      -0.557440       -15.1687
  44   2.0000      -0.531945       -14.4750
  45   2.0000      -0.523006       -14.2317
  46   2.0000      -0.517144       -14.0722
  47   2.0000      -0.508988       -13.8503
  48   2.0000      -0.507170       -13.8008
  49   2.0000      -0.498409       -13.5624
  50   2.0000      -0.491739       -13.3809
  51   2.0000      -0.478439       -13.0190
  52   2.0000      -0.471771       -12.8375
  53   2.0000      -0.462907       -12.5963
  54   2.0000      -0.457590       -12.4517
  55   2.0000      -0.451532       -12.2868
  56   2.0000      -0.448899       -12.2152
  57   2.0000      -0.437024       -11.8920
  58   2.0000      -0.429439       -11.6856
  59   2.0000      -0.426132       -11.5956
  60   2.0000      -0.422274       -11.4907
  61   2.0000      -0.420418       -11.4402
  62   2.0000      -0.411314       -11.1924
  63   2.0000      -0.340728        -9.2717
  64   2.0000      -0.330421        -8.9912
  65   2.0000      -0.327133        -8.9018
  66   2.0000      -0.289639        -7.8815
  67   0.0000       0.023227         0.6320
  68   0.0000       0.057422         1.5625
  69   0.0000       0.103872         2.8265
  70   0.0000       0.123661         3.3650
  71   0.0000       0.131406         3.5757

MULLIKEN ATOMIC CHARGES
-----------------------
   0 S :    0.112054
   1 C :   -0.111246
   2 C :   -0.100585
   3 C :    0.071710
   4 C :   -0.219016
   5 H :    0.021418
   6 C :    0.083173
   7 H :    0.014581
   8 H :    0.024573
   9 C :   -0.057826
  10 H :    0.026170
  11 H :    0.018117
  12 C :   -0.081124
  13 H :    0.025832
  14 H :    0.016232
  15 H :    0.055285
  16 S :    0.111727
  17 C :   -0.061914
  18 C :   -0.090966
  19 C :   -0.032294
  20 C :   -0.143912
  21 H :    0.036907
  22 C :    0.082568
  23 H :    0.012924
  24 H :    0.045572
  25 C :   -0.089598
  26 H :    0.024703
  27 H :    0.037152
  28 C :   -0.048509
  29 H :    0.041919
  30 H :    0.031927
  31 H :    0.039002
  32 H :    0.059540
  33 H :    0.043904
Sum of atomic charges:   -0.0000000

LOEWDIN ATOMIC CHARGES
----------------------
   0 S :    0.406124
   1 C :   -0.202025
   2 C :   -0.061039
   3 C :   -0.058985
   4 C :   -0.193573
   5 H :    0.030144
   6 C :   -0.033498
   7 H :    0.033416
   8 H :    0.028232
   9 C :   -0.044596
  10 H :    0.027735
  11 H :    0.016192
  12 C :   -0.073358
  13 H :    0.019461
  14 H :    0.022591
  15 H :    0.038846
  16 S :    0.419350
  17 C :   -0.183012
  18 C :   -0.075321
  19 C :   -0.055379
  20 C :   -0.207539
  21 H :    0.036188
  22 C :   -0.035137
  23 H :    0.028465
  24 H :    0.043002
  25 C :   -0.046640
  26 H :    0.018031
  27 H :    0.029991
  28 C :   -0.067774
  29 H :    0.031178
  30 H :    0.026841
  31 H :    0.029585
  32 H :    0.031807
  33 H :    0.020699

  Mayer bond orders larger than 0.100000
B(  0-S ,  1-C ) :   1.1615 B(  0-S ,  4-C ) :   1.1448 B(  1-C ,  2-C ) :   1.5844
B(  1-C ,  4-C ) :   0.1091 B(  1-C , 32-H ) :   0.9647 B(  2-C ,  3-C ) :   1.2447
B(  2-C ,  6-C ) :   1.0334 B(  3-C ,  4-C ) :   1.5695 B(  3-C ,  5-H ) :   0.9779
B(  4-C , 20-C ) :   1.0430 B(  6-C ,  7-H ) :   0.9349 B(  6-C ,  8-H ) :   0.9409
B(  6-C ,  9-C ) :   1.0574 B(  9-C , 10-H ) :   0.9547 B(  9-C , 11-H ) :   0.9593
B(  9-C , 12-C ) :   1.0756 B( 12-C , 13-H ) :   0.9742 B( 12-C , 14-H ) :   0.9739
B( 12-C , 15-H ) :   0.9753 B( 16-S , 17-C ) :   1.1655 B( 16-S , 20-C ) :   1.1556
B( 17-C , 18-C ) :   1.5634 B( 17-C , 20-C ) :   0.1130 B( 17-C , 33-H ) :   0.9746
B( 18-C , 19-C ) :   1.2651 B( 18-C , 21-H ) :   0.9782 B( 19-C , 20-C ) :   1.5953
B( 19-C , 22-C ) :   1.0334 B( 22-C , 23-H ) :   0.9212 B( 22-C , 24-H ) :   0.9248
B( 22-C , 25-C ) :   1.0878 B( 25-C , 26-H ) :   0.9420 B( 25-C , 27-H ) :   0.9537
B( 25-C , 28-C ) :   1.0804 B( 28-C , 29-H ) :   0.9743 B( 28-C , 30-H ) :   0.9744
B( 28-C , 31-H ) :   0.9744

Dispersion correction           -0.013110554
FINAL SINGLE POINT ENERGY     -1339.866335667934

DIPOLE MOMENT
-------------
                                X             Y             Z
Electronic contribution:    -25.11875     -13.49817      -6.50416
Nuclear contribution   :     25.77715      13.64231       6.55766
                        -----------------------------------------
Total Dipole Moment    :      0.65840       0.14414       0.05351
                        -----------------------------------------
Magnitude (a.u.)       :      0.67611
Magnitude (Debye)      :      1.71855

Rotational constants in cm-1:     0.017014     0.007813     0.006052
Rotational constants in MHz :   510.066854   234.227889   181.435111

                             ****ORCA TERMINATED NORMALLY****
TOTAL RUN TIME: 0 days 0 hours 0 minutes 27 seconds 18 msec
