                         Program Version 4.2.1 -  RELEASE  -
|  1> ! wB97X-D3 SP def2-SVP
|  2> %pal
|  3> nprocs 16
|  4> end
|  5>
|  6> * xyz 0 1
|  7> S 	 -40.9946 	 53.9011 	 106.373
|  8> C 	 -39.8749 	 55.238 	 106.574
|  9> C 	 -38.6548 	 54.7478 	 107.033
| 10> C 	 -38.764 	 53.3784 	 107.44
| 11> C 	 -39.9613 	 52.7798 	 107.304
| 12> H 	 -37.9701 	 52.7534 	 107.781
| 13> C 	 -37.3407 	 55.4608 	 107.313
| 14> H 	 -37.2839 	 56.3686 	 106.663
| 15> H 	 -36.484 	 54.8788 	 106.969
| 16> C 	 -37.0285 	 55.8538 	 108.751
| 17> H 	 -37.2061 	 54.975 	 109.394
| 18> H 	 -35.9173 	 56.1025 	 108.859
| 19> C 	 -37.9994 	 56.9208 	 109.261
| 20> H 	 -37.6845 	 57.2139 	 110.313
| 21> H 	 -37.8138 	 57.8386 	 108.584
| 22> H 	 -39.0136 	 56.6322 	 109.057
| 23> S 	 -39.8721 	 50.5365 	 108.887
| 24> C 	 -40.4782 	 48.9771 	 108.358
| 25> C 	 -40.9477 	 49.0888 	 107.08
| 26> C 	 -40.7604 	 50.3841 	 106.465
| 27> C 	 -40.2524 	 51.3467 	 107.333
| 28> H 	 -41.2685 	 48.2147 	 106.544
| 29> C 	 -41.1497 	 50.6085 	 105.052
| 30> H 	 -41.5659 	 51.5866 	 105.149
| 31> H 	 -41.9606 	 49.9578 	 104.733
| 32> C 	 -39.8891 	 50.5915 	 104.137
| 33> H 	 -39.2146 	 49.7575 	 104.185
| 34> H 	 -39.3772 	 51.462 	 104.523
| 35> C 	 -40.3141 	 50.7219 	 102.664
| 36> H 	 -40.7782 	 51.7103 	 102.686
| 37> H 	 -40.9473 	 50.0065 	 102.29
| 38> H 	 -39.3626 	 50.6279 	 102.121
| 39> H 	 -40.143 	 56.2658 	 106.488
| 40> H 	 -40.4518 	 48.0307 	 108.98
| 41> *
| 42>
| 43>                          ****END OF INPUT****

CARTESIAN COORDINATES (ANGSTROEM)
---------------------------------
  S    -40.994600   53.901100  106.373000
  C    -39.874900   55.238000  106.574000
  C    -38.654800   54.747800  107.033000
  C    -38.764000   53.378400  107.440000
  C    -39.961300   52.779800  107.304000
  H    -37.970100   52.753400  107.781000
  C    -37.340700   55.460800  107.313000
  H    -37.283900   56.368600  106.663000
  H    -36.484000   54.878800  106.969000
  C    -37.028500   55.853800  108.751000
  H    -37.206100   54.975000  109.394000
  H    -35.917300   56.102500  108.859000
  C    -37.999400   56.920800  109.261000
  H    -37.684500   57.213900  110.313000
  H    -37.813800   57.838600  108.584000
  H    -39.013600   56.632200  109.057000
  S    -39.872100   50.536500  108.887000
  C    -40.478200   48.977100  108.358000
  C    -40.947700   49.088800  107.080000
  C    -40.760400   50.384100  106.465000
  C    -40.252400   51.346700  107.333000
  H    -41.268500   48.214700  106.544000
  C    -41.149700   50.608500  105.052000
  H    -41.565900   51.586600  105.149000
  H    -41.960600   49.957800  104.733000
  C    -39.889100   50.591500  104.137000
  H    -39.214600   49.757500  104.185000
  H    -39.377200   51.462000  104.523000
  C    -40.314100   50.721900  102.664000
  H    -40.778200   51.710300  102.686000
  H    -40.947300   50.006500  102.290000
  H    -39.362600   50.627900  102.121000
  H    -40.143000   56.265800  106.488000
  H    -40.451800   48.030700  108.980000

 Total Charge           Charge          ....    0
 Multiplicity           Mult            ....    1
 Number of Electrons    NEL             ....  134
 Basis Dimension        Dim             ....  322

ORBITAL ENERGIES
----------------

  NO   OCC          E(Eh)            E(eV)
   0   2.0000     -88.967367     -2420.9251
   1   2.0000     -88.961020     -2420.7524
   2   2.0000     -10.334352      -281.2120
   3   2.0000     -10.331853      -281.1440
   4   2.0000     -10.324580      -280.9461
   5   2.0000     -10.322191      -280.8811
   6   2.0000     -10.310373      -280.5595
   7   2.0000     -10.303105      -280.3617
   8   2.0000     -10.296254      -280.1753
   9   2.0000     -10.293650      -280.1045
  10   2.0000     -10.292504      -280.0733
  11   2.0000     -10.291016      -280.0328
  12   2.0000     -10.286243      -279.9029
  13   2.0000     -10.283603      -279.8311
  14   2.0000     -10.281302      -279.7685
  15   2.0000     -10.268701      -279.4256
  16   2.0000      -8.081424      -219.9067
  17   2.0000      -8.075224      -219.7380
  18   2.0000      -6.040193      -164.3620
  19   2.0000      -6.035992      -164.2477
  20   2.0000      -6.033974      -164.1928
  21   2.0000      -6.031974      -164.1384
  22   2.0000      -6.029685      -164.0761
  23   2.0000      -6.025894      -163.9729
  24   2.0000      -1.007705       -27.4211
  25   2.0000      -0.983812       -26.7709
  26   2.0000      -0.913859       -24.8674
  27   2.0000      -0.910800       -24.7841
  28   2.0000      -0.873906       -23.7802
  29   2.0000      -0.851548       -23.1718
  30   2.0000      -0.844614       -22.9831
  31   2.0000      -0.816141       -22.2083
  32   2.0000      -0.781074       -21.2541
  33   2.0000      -0.770554       -20.9678
  34   2.0000      -0.708141       -19.2695
  35   2.0000      -0.696173       -18.9438
  36   2.0000      -0.691508       -18.8169
  37   2.0000      -0.666303       -18.1310
  38   2.0000      -0.643348       -17.5064
  39   2.0000      -0.623115       -16.9558
  40   2.0000      -0.592453       -16.1215
  41   2.0000      -0.573986       -15.6190
  42   2.0000      -0.566290       -15.4095
  43   2.0000      -0.551814       -15.0156
  44   2.0000      -0.538273       -14.6472
  45   2.0000      -0.533511       -14.5176
  46   2.0000      -0.524358       -14.2685
  47   2.0000      -0.520237       -14.1564
  48   2.0000      -0.512847       -13.9553
  49   2.0000      -0.501826       -13.6554
  50   2.0000      -0.489035       -13.3073
  51   2.0000      -0.477969       -13.0062
  52   2.0000      -0.467722       -12.7274
  53   2.0000      -0.462814       -12.5938
  54   2.0000      -0.454298       -12.3621
  55   2.0000      -0.447408       -12.1746
  56   2.0000      -0.444164       -12.0863
  57   2.0000      -0.442127       -12.0309
  58   2.0000      -0.431791       -11.7496
  59   2.0000      -0.424607       -11.5542
  60   2.0000      -0.414196       -11.2708
  61   2.0000      -0.409723       -11.1491
  62   2.0000      -0.396549       -10.7907
  63   2.0000      -0.357817        -9.7367
  64   2.0000      -0.330941        -9.0054
  65   2.0000      -0.325399        -8.8545
  66   2.0000      -0.294281        -8.0078
  67   0.0000       0.024732         0.6730
  68   0.0000       0.065057         1.7703
  69   0.0000       0.099157         2.6982
  70   0.0000       0.119232         3.2445
  71   0.0000       0.131050         3.5660

MULLIKEN ATOMIC CHARGES
-----------------------
   0 S :    0.070457
   1 C :   -0.099409
   2 C :   -0.072618
   3 C :    0.021735
   4 C :   -0.095720
   5 H :    0.010407
   6 C :    0.039043
   7 H :    0.022539
   8 H :    0.032485
   9 C :   -0.083469
  10 H :    0.031062
  11 H :    0.044879
  12 C :   -0.073002
  13 H :    0.055392
  14 H :    0.023286
  15 H :    0.043706
  16 S :    0.074677
  17 C :   -0.106573
  18 C :   -0.019805
  19 C :   -0.076363
  20 C :   -0.166224
  21 H :    0.013895
  22 C :    0.083544
  23 H :    0.012889
  24 H :    0.017659
  25 C :   -0.083377
  26 H :    0.026491
  27 H :    0.031586
  28 C :   -0.001543
  29 H :    0.033339
  30 H :    0.018792
  31 H :    0.033968
  32 H :    0.051556
  33 H :    0.084715
Sum of atomic charges:    0.0000000

LOEWDIN ATOMIC CHARGES
----------------------
   0 S :    0.386881
   1 C :   -0.178688
   2 C :   -0.061991
   3 C :   -0.054545
   4 C :   -0.181996
   5 H :    0.028204
   6 C :   -0.040978
   7 H :    0.029827
   8 H :    0.035079
   9 C :   -0.049834
  10 H :    0.023383
  11 H :    0.032748
  12 C :   -0.072138
  13 H :    0.036008
  14 H :    0.026931
  15 H :    0.023230
  16 S :    0.379959
  17 C :   -0.189605
  18 C :   -0.075309
  19 C :   -0.055250
  20 C :   -0.187636
  21 H :    0.029202
  22 C :   -0.033836
  23 H :    0.018090
  24 H :    0.026567
  25 C :   -0.028800
  26 H :    0.018393
  27 H :    0.026640
  28 C :   -0.056842
  29 H :    0.030828
  30 H :    0.010497
  31 H :    0.030241
  32 H :    0.027362
  33 H :    0.047378

  Mayer bond orders larger than 0.100000
B(  0-S ,  1-C ) :   1.1424 B(  0-S ,  4-C ) :   1.1169 B(  1-C ,  2-C ) :   1.5909
B(  1-C , 32-H ) :   0.9766 B(  2-C ,  3-C ) :   1.2279 B(  2-C ,  6-C ) :   1.0334
B(  3-C ,  4-C ) :   1.6001 B(  3-C ,  5-H ) :   0.9929 B(  4-C , 20-C ) :   1.0238
B(  6-C ,  7-H ) :   0.9416 B(  6-C ,  8-H ) :   0.9368 B(  6-C ,  9-C ) :   1.0728
B(  9-C , 10-H ) :   0.9523 B(  9-C , 11-H ) :   0.9542 B(  9-C , 12-C ) :   1.0637
B( 12-C , 13-H ) :   0.9724 B( 12-C , 14-H ) :   0.9754 B( 12-C , 15-H ) :   0.9740
B( 16-S , 17-C ) :   1.1459 B( 16-S , 20-C ) :   1.1197 B( 17-C , 18-C ) :   1.6148
B( 17-C , 33-H ) :   0.9584 B( 18-C , 19-C ) :   1.2389 B( 18-C , 21-H ) :   0.9909
B( 19-C , 20-C ) :   1.6004 B( 19-C , 22-C ) :   1.0386 B( 22-C , 23-H ) :   0.9291
B( 22-C , 24-H ) :   0.9360 B( 22-C , 25-C ) :   1.0414 B( 25-C , 26-H ) :   0.9671
B( 25-C , 27-H ) :   0.9566 B( 25-C , 28-C ) :   1.0749 B( 28-C , 29-H ) :   0.9746
B( 28-C , 30-H ) :   0.9784 B( 28-C , 31-H ) :   0.9752

Dispersion correction           -0.014703771
FINAL SINGLE POINT ENERGY     -1339.859775514371

DIPOLE MOMENT
-------------
                                X             Y             Z
Electronic contribution:     -9.72482      -8.56221       9.16810
Nuclear contribution   :     10.11859       8.50883      -9.43708
                        -----------------------------------------
Total Dipole Moment    :      0.39377      -0.05338      -0.26898
                        -----------------------------------------
Magnitude (a.u.)       :      0.47985
Magnitude (Debye)      :      1.21967

Rotational constants in cm-1:     0.020154     0.008507     0.006818
Rotational constants in MHz :   604.197329   255.038985   204.391015

                             ****ORCA TERMINATED NORMALLY****
TOTAL RUN TIME: 0 days 0 hours 0 minutes 30 seconds 409 msec
