                         Program Version 4.2.1 -  RELEASE  -
|  1> ! wB97X-D3 SP def2-SVP
|  2> %pal
|  3> nprocs 16
|  4> end
|  5>
|  6> * xyz 0 1
|  7> S 	 -36.824 	 64.6215 	 141.48
|  8> C 	 -36.8907 	 64.5629 	 139.774
|  9> C 	 -36.0802 	 65.5503 	 139.207
| 10> C 	 -35.3532 	 66.3018 	 140.212
| 11> C 	 -35.6733 	 65.944 	 141.478
| 12> H 	 -34.7393 	 67.0845 	 140.01
| 13> C 	 -36.067 	 65.815 	 137.753
| 14> H 	 -35.6684 	 66.8196 	 137.505
| 15> H 	 -37.122 	 65.7386 	 137.477
| 16> C 	 -35.5332 	 64.6887 	 136.848
| 17> H 	 -36.0915 	 63.8348 	 137.125
| 18> H 	 -35.7851 	 64.943 	 135.804
| 19> C 	 -34.0185 	 64.4356 	 137.067
| 20> H 	 -33.8767 	 64.1946 	 138.121
| 21> H 	 -33.5856 	 63.7152 	 136.437
| 22> H 	 -33.3231 	 65.2419 	 136.852
| 23> S 	 -36.3533 	 66.8739 	 143.915
| 24> C 	 -35.2375 	 67.7144 	 144.878
| 25> C 	 -33.9608 	 67.8585 	 144.347
| 26> C 	 -33.8913 	 67.2173 	 143.046
| 27> C 	 -35.1377 	 66.5678 	 142.708
| 28> H 	 -33.2926 	 68.3827 	 144.955
| 29> C 	 -32.6606 	 67.3118 	 142.191
| 30> H 	 -32.8905 	 66.7726 	 141.253
| 31> H 	 -31.8378 	 66.7305 	 142.539
| 32> C 	 -32.004 	 68.6647 	 141.995
| 33> H 	 -31.1393 	 68.6166 	 141.369
| 34> H 	 -31.5724 	 69.025 	 142.96
| 35> C 	 -32.9412 	 69.7052 	 141.32
| 36> H 	 -33.7353 	 70.0732 	 141.991
| 37> H 	 -33.4473 	 69.2689 	 140.508
| 38> H 	 -32.3636 	 70.6425 	 141.017
| 39> H 	 -37.515 	 63.9106 	 139.244
| 40> H 	 -35.4141 	 67.9939 	 145.933
| 41> *
| 42>
| 43>                          ****END OF INPUT****

CARTESIAN COORDINATES (ANGSTROEM)
---------------------------------
  S    -36.824000   64.621500  141.480000
  C    -36.890700   64.562900  139.774000
  C    -36.080200   65.550300  139.207000
  C    -35.353200   66.301800  140.212000
  C    -35.673300   65.944000  141.478000
  H    -34.739300   67.084500  140.010000
  C    -36.067000   65.815000  137.753000
  H    -35.668400   66.819600  137.505000
  H    -37.122000   65.738600  137.477000
  C    -35.533200   64.688700  136.848000
  H    -36.091500   63.834800  137.125000
  H    -35.785100   64.943000  135.804000
  C    -34.018500   64.435600  137.067000
  H    -33.876700   64.194600  138.121000
  H    -33.585600   63.715200  136.437000
  H    -33.323100   65.241900  136.852000
  S    -36.353300   66.873900  143.915000
  C    -35.237500   67.714400  144.878000
  C    -33.960800   67.858500  144.347000
  C    -33.891300   67.217300  143.046000
  C    -35.137700   66.567800  142.708000
  H    -33.292600   68.382700  144.955000
  C    -32.660600   67.311800  142.191000
  H    -32.890500   66.772600  141.253000
  H    -31.837800   66.730500  142.539000
  C    -32.004000   68.664700  141.995000
  H    -31.139300   68.616600  141.369000
  H    -31.572400   69.025000  142.960000
  C    -32.941200   69.705200  141.320000
  H    -33.735300   70.073200  141.991000
  H    -33.447300   69.268900  140.508000
  H    -32.363600   70.642500  141.017000
  H    -37.515000   63.910600  139.244000
  H    -35.414100   67.993900  145.933000

 Total Charge           Charge          ....    0
 Multiplicity           Mult            ....    1
 Number of Electrons    NEL             ....  134
 Basis Dimension        Dim             ....  322

ORBITAL ENERGIES
----------------

  NO   OCC          E(Eh)            E(eV)
   0   2.0000     -88.967363     -2420.9250
   1   2.0000     -88.966548     -2420.9028
   2   2.0000     -10.332996      -281.1751
   3   2.0000     -10.329040      -281.0675
   4   2.0000     -10.315699      -280.7044
   5   2.0000     -10.313897      -280.6554
   6   2.0000     -10.308639      -280.5123
   7   2.0000     -10.301042      -280.3056
   8   2.0000     -10.293419      -280.0982
   9   2.0000     -10.289388      -279.9885
  10   2.0000     -10.289162      -279.9823
  11   2.0000     -10.288172      -279.9554
  12   2.0000     -10.288134      -279.9543
  13   2.0000     -10.285588      -279.8851
  14   2.0000     -10.277585      -279.6673
  15   2.0000     -10.269418      -279.4451
  16   2.0000      -8.083221      -219.9556
  17   2.0000      -8.081871      -219.9189
  18   2.0000      -6.041481      -164.3971
  19   2.0000      -6.040389      -164.3673
  20   2.0000      -6.037519      -164.2893
  21   2.0000      -6.036198      -164.2533
  22   2.0000      -6.034233      -164.1998
  23   2.0000      -6.032716      -164.1586
  24   2.0000      -1.009296       -27.4643
  25   2.0000      -0.987264       -26.8648
  26   2.0000      -0.915170       -24.9031
  27   2.0000      -0.911896       -24.8140
  28   2.0000      -0.869761       -23.6674
  29   2.0000      -0.852052       -23.1855
  30   2.0000      -0.844115       -22.9695
  31   2.0000      -0.818323       -22.2677
  32   2.0000      -0.785779       -21.3821
  33   2.0000      -0.772303       -21.0154
  34   2.0000      -0.711397       -19.3581
  35   2.0000      -0.707555       -19.2535
  36   2.0000      -0.690405       -18.7869
  37   2.0000      -0.660388       -17.9701
  38   2.0000      -0.645628       -17.5684
  39   2.0000      -0.621348       -16.9077
  40   2.0000      -0.594068       -16.1654
  41   2.0000      -0.578322       -15.7369
  42   2.0000      -0.552996       -15.0478
  43   2.0000      -0.551554       -15.0085
  44   2.0000      -0.548333       -14.9209
  45   2.0000      -0.536520       -14.5995
  46   2.0000      -0.514659       -14.0046
  47   2.0000      -0.511925       -13.9302
  48   2.0000      -0.505647       -13.7594
  49   2.0000      -0.501571       -13.6484
  50   2.0000      -0.490868       -13.3572
  51   2.0000      -0.479049       -13.0356
  52   2.0000      -0.471781       -12.8378
  53   2.0000      -0.464868       -12.6497
  54   2.0000      -0.459954       -12.5160
  55   2.0000      -0.451547       -12.2872
  56   2.0000      -0.446711       -12.1556
  57   2.0000      -0.433400       -11.7934
  58   2.0000      -0.430010       -11.7012
  59   2.0000      -0.428001       -11.6465
  60   2.0000      -0.424372       -11.5477
  61   2.0000      -0.418177       -11.3792
  62   2.0000      -0.414553       -11.2806
  63   2.0000      -0.354791        -9.6544
  64   2.0000      -0.331996        -9.0341
  65   2.0000      -0.323795        -8.8109
  66   2.0000      -0.285925        -7.7804
  67   0.0000       0.028022         0.7625
  68   0.0000       0.075373         2.0510
  69   0.0000       0.108488         2.9521
  70   0.0000       0.120787         3.2868
  71   0.0000       0.130187         3.5426

MULLIKEN ATOMIC CHARGES
-----------------------
   0 S :    0.117611
   1 C :   -0.111463
   2 C :   -0.092955
   3 C :    0.060913
   4 C :   -0.110673
   5 H :   -0.051939
   6 C :    0.050753
   7 H :    0.030686
   8 H :    0.029592
   9 C :   -0.051222
  10 H :    0.015410
  11 H :    0.033199
  12 C :   -0.039396
  13 H :    0.041024
  14 H :    0.018406
  15 H :    0.015419
  16 S :    0.119043
  17 C :   -0.107009
  18 C :   -0.026389
  19 C :   -0.024185
  20 C :   -0.145154
  21 H :    0.001319
  22 C :    0.067823
  23 H :    0.013868
  24 H :    0.027298
  25 C :   -0.071617
  26 H :    0.024729
  27 H :    0.029611
  28 C :   -0.065106
  29 H :    0.041374
  30 H :    0.022499
  31 H :    0.041208
  32 H :    0.031647
  33 H :    0.063676
Sum of atomic charges:   -0.0000000

LOEWDIN ATOMIC CHARGES
----------------------
   0 S :    0.419634
   1 C :   -0.205229
   2 C :   -0.057151
   3 C :   -0.055931
   4 C :   -0.192177
   5 H :    0.011246
   6 C :   -0.038338
   7 H :    0.030887
   8 H :    0.039086
   9 C :   -0.028373
  10 H :    0.016929
  11 H :    0.025566
  12 C :   -0.071194
  13 H :    0.029583
  14 H :    0.018102
  15 H :    0.023944
  16 S :    0.438131
  17 C :   -0.206022
  18 C :   -0.065933
  19 C :   -0.045593
  20 C :   -0.201775
  21 H :    0.025235
  22 C :   -0.043712
  23 H :    0.032205
  24 H :    0.034230
  25 C :   -0.039158
  26 H :    0.023754
  27 H :    0.025760
  28 C :   -0.069785
  29 H :    0.028593
  30 H :    0.014868
  31 H :    0.033181
  32 H :    0.016409
  33 H :    0.033028

  Mayer bond orders larger than 0.100000
B(  0-S ,  1-C ) :   1.1469 B(  0-S ,  4-C ) :   1.1544 B(  1-C ,  2-C ) :   1.5794
B(  1-C , 32-H ) :   0.9768 B(  2-C ,  3-C ) :   1.2358 B(  2-C ,  6-C ) :   1.0315
B(  3-C ,  4-C ) :   1.5635 B(  3-C ,  5-H ) :   1.0190 B(  4-C , 20-C ) :   1.0199
B(  6-C ,  7-H ) :   0.9478 B(  6-C ,  8-H ) :   0.9344 B(  6-C ,  9-C ) :   1.0705
B(  9-C , 10-H ) :   0.9560 B(  9-C , 11-H ) :   0.9578 B(  9-C , 12-C ) :   1.0697
B( 12-C , 13-H ) :   0.9747 B( 12-C , 14-H ) :   0.9750 B( 12-C , 15-H ) :   0.9746
B( 16-S , 17-C ) :   1.1793 B( 16-S , 20-C ) :   1.1640 B( 17-C , 18-C ) :   1.6105
B( 17-C , 33-H ) :   0.9572 B( 18-C , 19-C ) :   1.2259 B( 18-C , 21-H ) :   1.0030
B( 19-C , 20-C ) :   1.5572 B( 19-C , 22-C ) :   1.0486 B( 22-C , 23-H ) :   0.9333
B( 22-C , 24-H ) :   0.9236 B( 22-C , 25-C ) :   1.0841 B( 25-C , 26-H ) :   0.9538
B( 25-C , 27-H ) :   0.9476 B( 25-C , 28-C ) :   1.0684 B( 28-C , 29-H ) :   0.9742
B( 28-C , 30-H ) :   0.9767 B( 28-C , 31-H ) :   0.9749

Dispersion correction           -0.014733198
FINAL SINGLE POINT ENERGY     -1339.870973275427

DIPOLE MOMENT
-------------
                                X             Y             Z
Electronic contribution:    -17.34019      -7.16027      20.83560
Nuclear contribution   :     17.71391       7.41808     -21.17417
                        -----------------------------------------
Total Dipole Moment    :      0.37372       0.25781      -0.33857
                        -----------------------------------------
Magnitude (a.u.)       :      0.56636
Magnitude (Debye)      :      1.43957

Rotational constants in cm-1:     0.019503     0.009096     0.006721
Rotational constants in MHz :   584.673501   272.702517   201.503324

                             ****ORCA TERMINATED NORMALLY****
TOTAL RUN TIME: 0 days 0 hours 0 minutes 36 seconds 393 msec
