                         Program Version 4.2.1 -  RELEASE  -
|  1> ! wB97X-D3 SP def2-SVP
|  2> %pal
|  3> nprocs 16
|  4> end
|  5>
|  6> * xyz 0 1
|  7> S 	 -44.6693 	 13.7234 	 81.3889
|  8> C 	 -44.9088 	 12.0403 	 81.6717
|  9> C 	 -44.0581 	 11.511 	 82.6288
| 10> C 	 -43.196 	 12.4611 	 83.1857
| 11> C 	 -43.3646 	 13.6853 	 82.5808
| 12> H 	 -42.5236 	 12.3123 	 83.9954
| 13> C 	 -44.0971 	 10.0903 	 83.15
| 14> H 	 -43.0767 	 9.63132 	 83.1014
| 15> H 	 -44.7531 	 9.50112 	 82.4177
| 16> C 	 -44.7212 	 9.80248 	 84.5466
| 17> H 	 -44.424 	 8.7721 	 84.7921
| 18> H 	 -44.3208 	 10.4681 	 85.3299
| 19> C 	 -46.2251 	 9.95423 	 84.531
| 20> H 	 -46.6144 	 9.10579 	 84.0053
| 21> H 	 -46.5838 	 9.88575 	 85.5552
| 22> H 	 -46.6568 	 10.7954 	 84.0584
| 23> S 	 -43.6936 	 16.374 	 83.2261
| 24> C 	 -42.3727 	 17.4057 	 83.499
| 25> C 	 -41.1782 	 16.755 	 83.2877
| 26> C 	 -41.3976 	 15.3612 	 82.9122
| 27> C 	 -42.7287 	 14.9571 	 82.9178
| 28> H 	 -40.268 	 17.2464 	 83.2965
| 29> C 	 -40.3035 	 14.3957 	 82.6211
| 30> H 	 -40.4058 	 13.4501 	 83.1588
| 31> H 	 -39.4161 	 14.954 	 83.0819
| 32> C 	 -40.0114 	 14.0256 	 81.1095
| 33> H 	 -40.7867 	 13.3222 	 80.6718
| 34> H 	 -39.0711 	 13.4984 	 81.1153
| 35> C 	 -39.7969 	 15.3613 	 80.2512
| 36> H 	 -40.6624 	 15.9293 	 80.2607
| 37> H 	 -39.5683 	 15.109 	 79.2818
| 38> H 	 -39.0105 	 16.0046 	 80.6715
| 39> H 	 -45.499 	 11.4636 	 81.062
| 40> H 	 -42.4035 	 18.3923 	 83.8648
| 41> *
| 42>
| 43>                          ****END OF INPUT****

CARTESIAN COORDINATES (ANGSTROEM)
---------------------------------
  S    -44.669300   13.723400   81.388900
  C    -44.908800   12.040300   81.671700
  C    -44.058100   11.511000   82.628800
  C    -43.196000   12.461100   83.185700
  C    -43.364600   13.685300   82.580800
  H    -42.523600   12.312300   83.995400
  C    -44.097100   10.090300   83.150000
  H    -43.076700    9.631320   83.101400
  H    -44.753100    9.501120   82.417700
  C    -44.721200    9.802480   84.546600
  H    -44.424000    8.772100   84.792100
  H    -44.320800   10.468100   85.329900
  C    -46.225100    9.954230   84.531000
  H    -46.614400    9.105790   84.005300
  H    -46.583800    9.885750   85.555200
  H    -46.656800   10.795400   84.058400
  S    -43.693600   16.374000   83.226100
  C    -42.372700   17.405700   83.499000
  C    -41.178200   16.755000   83.287700
  C    -41.397600   15.361200   82.912200
  C    -42.728700   14.957100   82.917800
  H    -40.268000   17.246400   83.296500
  C    -40.303500   14.395700   82.621100
  H    -40.405800   13.450100   83.158800
  H    -39.416100   14.954000   83.081900
  C    -40.011400   14.025600   81.109500
  H    -40.786700   13.322200   80.671800
  H    -39.071100   13.498400   81.115300
  C    -39.796900   15.361300   80.251200
  H    -40.662400   15.929300   80.260700
  H    -39.568300   15.109000   79.281800
  H    -39.010500   16.004600   80.671500
  H    -45.499000   11.463600   81.062000
  H    -42.403500   18.392300   83.864800

 Total Charge           Charge          ....    0
 Multiplicity           Mult            ....    1
 Number of Electrons    NEL             ....  134
 Basis Dimension        Dim             ....  322

ORBITAL ENERGIES
----------------

  NO   OCC          E(Eh)            E(eV)
   0   2.0000     -88.969942     -2420.9952
   1   2.0000     -88.961980     -2420.7786
   2   2.0000     -10.331932      -281.1462
   3   2.0000     -10.321301      -280.8569
   4   2.0000     -10.311087      -280.5789
   5   2.0000     -10.307452      -280.4800
   6   2.0000     -10.299861      -280.2735
   7   2.0000     -10.299766      -280.2709
   8   2.0000     -10.299028      -280.2508
   9   2.0000     -10.291876      -280.0562
  10   2.0000     -10.291700      -280.0514
  11   2.0000     -10.291610      -280.0489
  12   2.0000     -10.290227      -280.0113
  13   2.0000     -10.290194      -280.0104
  14   2.0000     -10.267516      -279.3933
  15   2.0000     -10.264169      -279.3022
  16   2.0000      -8.084938      -220.0023
  17   2.0000      -8.077840      -219.8092
  18   2.0000      -6.043232      -164.4447
  19   2.0000      -6.039510      -164.3434
  20   2.0000      -6.036294      -164.2559
  21   2.0000      -6.035812      -164.2428
  22   2.0000      -6.032009      -164.1393
  23   2.0000      -6.028764      -164.0510
  24   2.0000      -1.011188       -27.5158
  25   2.0000      -0.989604       -26.9285
  26   2.0000      -0.910044       -24.7635
  27   2.0000      -0.898612       -24.4525
  28   2.0000      -0.870600       -23.6902
  29   2.0000      -0.857734       -23.3401
  30   2.0000      -0.839971       -22.8568
  31   2.0000      -0.817843       -22.2546
  32   2.0000      -0.781384       -21.2625
  33   2.0000      -0.770587       -20.9687
  34   2.0000      -0.712611       -19.3911
  35   2.0000      -0.697029       -18.9671
  36   2.0000      -0.691529       -18.8175
  37   2.0000      -0.664842       -18.0913
  38   2.0000      -0.648278       -17.6405
  39   2.0000      -0.624961       -17.0060
  40   2.0000      -0.584334       -15.9005
  41   2.0000      -0.571608       -15.5542
  42   2.0000      -0.551241       -15.0000
  43   2.0000      -0.546482       -14.8705
  44   2.0000      -0.544463       -14.8156
  45   2.0000      -0.539482       -14.6801
  46   2.0000      -0.519149       -14.1268
  47   2.0000      -0.513810       -13.9815
  48   2.0000      -0.505355       -13.7514
  49   2.0000      -0.496166       -13.5014
  50   2.0000      -0.486244       -13.2314
  51   2.0000      -0.479970       -13.0607
  52   2.0000      -0.473199       -12.8764
  53   2.0000      -0.465396       -12.6641
  54   2.0000      -0.456245       -12.4151
  55   2.0000      -0.453978       -12.3534
  56   2.0000      -0.439464       -11.9584
  57   2.0000      -0.435422       -11.8484
  58   2.0000      -0.432164       -11.7598
  59   2.0000      -0.427950       -11.6451
  60   2.0000      -0.420491       -11.4421
  61   2.0000      -0.416678       -11.3384
  62   2.0000      -0.405388       -11.0312
  63   2.0000      -0.351499        -9.5648
  64   2.0000      -0.335254        -9.1227
  65   2.0000      -0.325715        -8.8632
  66   2.0000      -0.290337        -7.9005
  67   0.0000       0.032777         0.8919
  68   0.0000       0.065901         1.7933
  69   0.0000       0.112963         3.0739
  70   0.0000       0.118730         3.2308
  71   0.0000       0.134731         3.6662

MULLIKEN ATOMIC CHARGES
-----------------------
   0 S :    0.121716
   1 C :   -0.086236
   2 C :   -0.061343
   3 C :    0.038602
   4 C :   -0.149133
   5 H :    0.010507
   6 C :    0.006541
   7 H :    0.040496
   8 H :    0.019578
   9 C :   -0.059223
  10 H :    0.033185
  11 H :    0.031429
  12 C :   -0.029247
  13 H :    0.013433
  14 H :    0.030097
  15 H :    0.034951
  16 S :    0.107732
  17 C :   -0.066699
  18 C :   -0.005939
  19 C :   -0.057324
  20 C :   -0.151141
  21 H :   -0.006910
  22 C :    0.019900
  23 H :    0.029583
  24 H :    0.023747
  25 C :   -0.080267
  26 H :    0.054221
  27 H :    0.028835
  28 C :   -0.017531
  29 H :    0.029967
  30 H :    0.016555
  31 H :    0.022995
  32 H :    0.013228
  33 H :    0.043694
Sum of atomic charges:   -0.0000000

LOEWDIN ATOMIC CHARGES
----------------------
   0 S :    0.415311
   1 C :   -0.192846
   2 C :   -0.064427
   3 C :   -0.051799
   4 C :   -0.176061
   5 H :    0.031368
   6 C :   -0.039692
   7 H :    0.033425
   8 H :    0.032552
   9 C :   -0.038292
  10 H :    0.028586
  11 H :    0.022256
  12 C :   -0.062254
  13 H :    0.021428
  14 H :    0.028098
  15 H :    0.021814
  16 S :    0.427066
  17 C :   -0.192167
  18 C :   -0.066784
  19 C :   -0.062195
  20 C :   -0.211744
  21 H :    0.018931
  22 C :   -0.043498
  23 H :    0.028203
  24 H :    0.035424
  25 C :   -0.031918
  26 H :    0.032645
  27 H :    0.020358
  28 C :   -0.053373
  29 H :    0.016921
  30 H :    0.013399
  31 H :    0.026339
  32 H :    0.007715
  33 H :    0.025210

  Mayer bond orders larger than 0.100000
B(  0-S ,  1-C ) :   1.1418 B(  0-S ,  4-C ) :   1.1583 B(  1-C ,  2-C ) :   1.6005
B(  1-C , 32-H ) :   0.9725 B(  2-C ,  3-C ) :   1.2403 B(  2-C ,  6-C ) :   1.0345
B(  3-C ,  4-C ) :   1.5740 B(  3-C ,  5-H ) :   1.0001 B(  4-C , 20-C ) :   1.0354
B(  6-C ,  7-H ) :   0.9398 B(  6-C ,  8-H ) :   0.9415 B(  6-C ,  9-C ) :   1.0629
B(  9-C , 10-H ) :   0.9541 B(  9-C , 11-H ) :   0.9602 B(  9-C , 12-C ) :   1.0743
B( 12-C , 13-H ) :   0.9718 B( 12-C , 14-H ) :   0.9724 B( 12-C , 15-H ) :   0.9795
B( 16-S , 17-C ) :   1.1783 B( 16-S , 20-C ) :   1.1387 B( 17-C , 18-C ) :   1.5822
B( 17-C , 33-H ) :   0.9698 B( 18-C , 19-C ) :   1.2535 B( 18-C , 21-H ) :   1.0011
B( 19-C , 20-C ) :   1.5739 B( 19-C , 22-C ) :   1.0477 B( 22-C , 23-H ) :   0.9405
B( 22-C , 24-H ) :   0.9366 B( 22-C , 25-C ) :   1.0604 B( 25-C , 26-H ) :   0.9585
B( 25-C , 27-H ) :   0.9583 B( 25-C , 28-C ) :   1.0652 B( 28-C , 29-H ) :   0.9768
B( 28-C , 30-H ) :   0.9761 B( 28-C , 31-H ) :   0.9771

Dispersion correction           -0.015054098
FINAL SINGLE POINT ENERGY     -1339.878315257029

DIPOLE MOMENT
-------------
                                X             Y             Z
Electronic contribution:     -8.82200      16.89234      -1.67694
Nuclear contribution   :      9.14585     -17.25310       1.80705
                        -----------------------------------------
Total Dipole Moment    :      0.32384      -0.36076       0.13011
                        -----------------------------------------
Magnitude (a.u.)       :      0.50195
Magnitude (Debye)      :      1.27585

Rotational constants in cm-1:     0.022397     0.008077     0.007231
Rotational constants in MHz :   671.457673   242.131917   216.783856

                             ****ORCA TERMINATED NORMALLY****
TOTAL RUN TIME: 0 days 0 hours 0 minutes 31 seconds 838 msec
