                         Program Version 4.2.1 -  RELEASE  -
|  1> ! wB97X-D3 SP def2-SVP
|  2> %pal
|  3> nprocs 16
|  4> end
|  5>
|  6> * xyz 0 1
|  7> S 	 -66.0854 	 51.1797 	 126.087
|  8> C 	 -67.4545 	 52.2491 	 126.333
|  9> C 	 -67.0718 	 53.5063 	 125.956
| 10> C 	 -65.7301 	 53.6716 	 125.381
| 11> C 	 -64.9942 	 52.4423 	 125.442
| 12> H 	 -65.4203 	 54.6135 	 125.108
| 13> C 	 -68.0546 	 54.6241 	 125.816
| 14> H 	 -69.0983 	 54.2606 	 125.881
| 15> H 	 -68.0245 	 54.681 	 124.763
| 16> C 	 -67.6803 	 55.9536 	 126.531
| 17> H 	 -66.7406 	 56.2868 	 126.026
| 18> H 	 -68.478 	 56.6554 	 126.264
| 19> C 	 -67.6527 	 55.7132 	 128.053
| 20> H 	 -67.4087 	 56.6031 	 128.678
| 21> H 	 -68.5704 	 55.3496 	 128.331
| 22> H 	 -66.8272 	 55.0727 	 128.223
| 23> S 	 -62.7053 	 51.0885 	 126.351
| 24> C 	 -61.2778 	 51.1289 	 125.411
| 25> C 	 -61.3993 	 52.1077 	 124.441
| 26> C 	 -62.6476 	 52.7107 	 124.353
| 27> C 	 -63.5664 	 52.1696 	 125.243
| 28> H 	 -60.5713 	 52.2216 	 123.736
| 29> C 	 -62.9002 	 53.7148 	 123.262
| 30> H 	 -62.1278 	 54.4962 	 123.258
| 31> H 	 -63.8228 	 54.2239 	 123.422
| 32> C 	 -62.8503 	 53.2129 	 121.791
| 33> H 	 -63.7513 	 52.7424 	 121.55
| 34> H 	 -62.0429 	 52.5772 	 121.568
| 35> C 	 -62.7158 	 54.4 	 120.831
| 36> H 	 -62.8768 	 54.0916 	 119.779
| 37> H 	 -61.709 	 54.8478 	 120.831
| 38> H 	 -63.3309 	 55.1955 	 121.088
| 39> H 	 -68.4082 	 51.933 	 126.689
| 40> H 	 -60.221 	 50.7787 	 125.582
| 41> *
| 42>
| 43>                          ****END OF INPUT****

CARTESIAN COORDINATES (ANGSTROEM)
---------------------------------
  S    -66.085400   51.179700  126.087000
  C    -67.454500   52.249100  126.333000
  C    -67.071800   53.506300  125.956000
  C    -65.730100   53.671600  125.381000
  C    -64.994200   52.442300  125.442000
  H    -65.420300   54.613500  125.108000
  C    -68.054600   54.624100  125.816000
  H    -69.098300   54.260600  125.881000
  H    -68.024500   54.681000  124.763000
  C    -67.680300   55.953600  126.531000
  H    -66.740600   56.286800  126.026000
  H    -68.478000   56.655400  126.264000
  C    -67.652700   55.713200  128.053000
  H    -67.408700   56.603100  128.678000
  H    -68.570400   55.349600  128.331000
  H    -66.827200   55.072700  128.223000
  S    -62.705300   51.088500  126.351000
  C    -61.277800   51.128900  125.411000
  C    -61.399300   52.107700  124.441000
  C    -62.647600   52.710700  124.353000
  C    -63.566400   52.169600  125.243000
  H    -60.571300   52.221600  123.736000
  C    -62.900200   53.714800  123.262000
  H    -62.127800   54.496200  123.258000
  H    -63.822800   54.223900  123.422000
  C    -62.850300   53.212900  121.791000
  H    -63.751300   52.742400  121.550000
  H    -62.042900   52.577200  121.568000
  C    -62.715800   54.400000  120.831000
  H    -62.876800   54.091600  119.779000
  H    -61.709000   54.847800  120.831000
  H    -63.330900   55.195500  121.088000
  H    -68.408200   51.933000  126.689000
  H    -60.221000   50.778700  125.582000

 Total Charge           Charge          ....    0
 Multiplicity           Mult            ....    1
 Number of Electrons    NEL             ....  134
 Basis Dimension        Dim             ....  322

ORBITAL ENERGIES
----------------

  NO   OCC          E(Eh)            E(eV)
   0   2.0000     -88.969715     -2420.9890
   1   2.0000     -88.963354     -2420.8159
   2   2.0000     -10.345934      -281.5272
   3   2.0000     -10.333013      -281.1756
   4   2.0000     -10.317764      -280.7606
   5   2.0000     -10.311930      -280.6019
   6   2.0000     -10.300840      -280.3001
   7   2.0000     -10.300181      -280.2822
   8   2.0000     -10.300008      -280.2775
   9   2.0000     -10.294151      -280.1181
  10   2.0000     -10.290976      -280.0317
  11   2.0000     -10.288282      -279.9584
  12   2.0000     -10.285022      -279.8697
  13   2.0000     -10.278245      -279.6853
  14   2.0000     -10.274263      -279.5769
  15   2.0000     -10.270225      -279.4670
  16   2.0000      -8.084376      -219.9871
  17   2.0000      -8.077417      -219.7977
  18   2.0000      -6.042895      -164.4355
  19   2.0000      -6.038829      -164.3249
  20   2.0000      -6.036158      -164.2522
  21   2.0000      -6.035147      -164.2247
  22   2.0000      -6.031820      -164.1342
  23   2.0000      -6.028150      -164.0343
  24   2.0000      -1.007844       -27.4248
  25   2.0000      -0.983069       -26.7507
  26   2.0000      -0.913414       -24.8552
  27   2.0000      -0.911912       -24.8144
  28   2.0000      -0.869851       -23.6699
  29   2.0000      -0.857102       -23.3229
  30   2.0000      -0.842516       -22.9260
  31   2.0000      -0.815542       -22.1920
  32   2.0000      -0.782730       -21.2992
  33   2.0000      -0.773060       -21.0360
  34   2.0000      -0.715869       -19.4798
  35   2.0000      -0.704774       -19.1779
  36   2.0000      -0.697361       -18.9762
  37   2.0000      -0.659094       -17.9349
  38   2.0000      -0.639573       -17.4037
  39   2.0000      -0.628072       -17.0907
  40   2.0000      -0.599079       -16.3018
  41   2.0000      -0.570713       -15.5299
  42   2.0000      -0.566749       -15.4220
  43   2.0000      -0.553122       -15.0512
  44   2.0000      -0.543897       -14.8002
  45   2.0000      -0.527404       -14.3514
  46   2.0000      -0.519113       -14.1258
  47   2.0000      -0.517336       -14.0774
  48   2.0000      -0.509400       -13.8615
  49   2.0000      -0.502317       -13.6688
  50   2.0000      -0.484777       -13.1915
  51   2.0000      -0.480077       -13.0636
  52   2.0000      -0.470121       -12.7926
  53   2.0000      -0.463657       -12.6167
  54   2.0000      -0.460774       -12.5383
  55   2.0000      -0.445770       -12.1300
  56   2.0000      -0.442669       -12.0456
  57   2.0000      -0.439014       -11.9462
  58   2.0000      -0.435229       -11.8432
  59   2.0000      -0.428851       -11.6696
  60   2.0000      -0.424396       -11.5484
  61   2.0000      -0.421483       -11.4691
  62   2.0000      -0.402233       -10.9453
  63   2.0000      -0.358238        -9.7481
  64   2.0000      -0.332867        -9.0578
  65   2.0000      -0.322470        -8.7749
  66   2.0000      -0.286798        -7.8042
  67   0.0000       0.018512         0.5037
  68   0.0000       0.076730         2.0879
  69   0.0000       0.110573         3.0088
  70   0.0000       0.116421         3.1680
  71   0.0000       0.137065         3.7297

MULLIKEN ATOMIC CHARGES
-----------------------
   0 S :    0.085552
   1 C :   -0.112396
   2 C :   -0.094032
   3 C :    0.053407
   4 C :   -0.134714
   5 H :   -0.012325
   6 C :    0.010907
   7 H :    0.013921
   8 H :    0.024256
   9 C :   -0.070493
  10 H :    0.033843
  11 H :    0.032268
  12 C :   -0.001892
  13 H :    0.034880
  14 H :    0.017423
  15 H :    0.036913
  16 S :    0.124722
  17 C :   -0.094354
  18 C :   -0.083181
  19 C :    0.004120
  20 C :   -0.140064
  21 H :    0.023712
  22 C :    0.064004
  23 H :    0.022121
  24 H :    0.001499
  25 C :   -0.018148
  26 H :    0.023059
  27 H :    0.020196
  28 C :   -0.063207
  29 H :    0.037874
  30 H :    0.024080
  31 H :    0.014098
  32 H :    0.044314
  33 H :    0.077639
Sum of atomic charges:   -0.0000000

LOEWDIN ATOMIC CHARGES
----------------------
   0 S :    0.385578
   1 C :   -0.196150
   2 C :   -0.060351
   3 C :   -0.059231
   4 C :   -0.167484
   5 H :    0.011682
   6 C :   -0.044703
   7 H :    0.029466
   8 H :    0.031319
   9 C :   -0.036122
  10 H :    0.025306
  11 H :    0.024311
  12 C :   -0.052649
  13 H :    0.030739
  14 H :    0.015028
  15 H :    0.025438
  16 S :    0.424737
  17 C :   -0.214201
  18 C :   -0.077519
  19 C :   -0.058364
  20 C :   -0.195012
  21 H :    0.031795
  22 C :   -0.026682
  23 H :    0.033736
  24 H :    0.022967
  25 C :   -0.023221
  26 H :    0.019098
  27 H :    0.018043
  28 C :   -0.062928
  29 H :    0.030725
  30 H :    0.024232
  31 H :    0.012239
  32 H :    0.027474
  33 H :    0.050702

  Mayer bond orders larger than 0.100000
B(  0-S ,  1-C ) :   1.1104 B(  0-S ,  4-C ) :   1.1595 B(  1-C ,  2-C ) :   1.6050
B(  1-C , 32-H ) :   0.9791 B(  2-C ,  3-C ) :   1.2427 B(  2-C ,  6-C ) :   1.0061
B(  3-C ,  4-C ) :   1.5228 B(  3-C ,  5-H ) :   0.9949 B(  4-C , 20-C ) :   1.0747
B(  6-C ,  7-H ) :   0.9495 B(  6-C ,  8-H ) :   0.9400 B(  6-C ,  9-C ) :   1.0566
B(  9-C , 10-H ) :   0.9579 B(  9-C , 11-H ) :   0.9561 B(  9-C , 12-C ) :   1.0644
B( 12-C , 13-H ) :   0.9753 B( 12-C , 14-H ) :   0.9750 B( 12-C , 15-H ) :   0.9748
B( 16-S , 17-C ) :   1.1634 B( 16-S , 20-C ) :   1.1435 B( 17-C , 18-C ) :   1.5943
B( 17-C , 20-C ) :   0.1005 B( 17-C , 33-H ) :   0.9547 B( 18-C , 19-C ) :   1.2804
B( 18-C , 21-H ) :   0.9855 B( 19-C , 20-C ) :   1.5498 B( 19-C , 22-C ) :   1.0561
B( 22-C , 23-H ) :   0.9380 B( 22-C , 24-H ) :   0.9250 B( 22-C , 25-C ) :   1.0638
B( 25-C , 26-H ) :   0.9548 B( 25-C , 27-H ) :   0.9577 B( 25-C , 28-C ) :   1.0828
B( 28-C , 29-H ) :   0.9738 B( 28-C , 30-H ) :   0.9727 B( 28-C , 31-H ) :   0.9759

Dispersion correction           -0.013672926
FINAL SINGLE POINT ENERGY     -1339.854698535473

DIPOLE MOMENT
-------------
                                X             Y             Z
Electronic contribution:      5.37174     -22.72136      12.03190
Nuclear contribution   :     -5.37674      23.32278     -12.41835
                        -----------------------------------------
Total Dipole Moment    :     -0.00500       0.60142      -0.38645
                        -----------------------------------------
Magnitude (a.u.)       :      0.71489
Magnitude (Debye)      :      1.81712

Rotational constants in cm-1:     0.017534     0.008485     0.006646
Rotational constants in MHz :   525.658793   254.364080   199.251348

                             ****ORCA TERMINATED NORMALLY****
TOTAL RUN TIME: 0 days 0 hours 0 minutes 33 seconds 152 msec
