                         Program Version 4.2.1 -  RELEASE  -
|  1> ! wB97X-D3 SP def2-SVP
|  2> %pal
|  3> nprocs 16
|  4> end
|  5>
|  6> * xyz 0 1
|  7> S 	 -73.3834 	 52.4723 	 138.066
|  8> C 	 -72.7716 	 52.3475 	 139.614
|  9> C 	 -73.6431 	 51.7202 	 140.475
| 10> C 	 -74.6968 	 51.0369 	 139.769
| 11> C 	 -74.7169 	 51.381 	 138.406
| 12> H 	 -75.4388 	 50.428 	 140.194
| 13> C 	 -73.4734 	 51.7194 	 142.017
| 14> H 	 -73.0387 	 52.7182 	 142.321
| 15> H 	 -72.7075 	 51.0101 	 142.242
| 16> C 	 -74.7005 	 51.3991 	 142.845
| 17> H 	 -75.5586 	 51.9867 	 142.508
| 18> H 	 -74.9201 	 50.3913 	 142.525
| 19> C 	 -74.3229 	 51.457 	 144.329
| 20> H 	 -74.2529 	 52.4841 	 144.587
| 21> H 	 -75.0606 	 50.9646 	 144.977
| 22> H 	 -73.3492 	 50.9726 	 144.677
| 23> S 	 -76.9343 	 52.1024 	 136.871
| 24> C 	 -77.8217 	 50.895 	 135.935
| 25> C 	 -77.1652 	 49.674 	 135.97
| 26> C 	 -75.9299 	 49.7834 	 136.728
| 27> C 	 -75.7468 	 50.9881 	 137.408
| 28> H 	 -77.5049 	 48.7641 	 135.565
| 29> C 	 -75.047 	 48.5371 	 136.975
| 30> H 	 -74.1046 	 48.7823 	 137.52
| 31> H 	 -74.7588 	 48.0212 	 136.094
| 32> C 	 -75.7845 	 47.5862 	 137.922
| 33> H 	 -76.728 	 47.3795 	 137.488
| 34> H 	 -76.0309 	 48.0794 	 138.841
| 35> C 	 -75.1611 	 46.2096 	 138.295
| 36> H 	 -75.8554 	 45.6401 	 139.031
| 37> H 	 -74.1969 	 46.504 	 138.781
| 38> H 	 -74.8974 	 45.7123 	 137.375
| 39> H 	 -71.8758 	 52.7869 	 140.028
| 40> H 	 -78.7856 	 51.0122 	 135.461
| 41> *
| 42>
| 43>                          ****END OF INPUT****

CARTESIAN COORDINATES (ANGSTROEM)
---------------------------------
  S    -73.383400   52.472300  138.066000
  C    -72.771600   52.347500  139.614000
  C    -73.643100   51.720200  140.475000
  C    -74.696800   51.036900  139.769000
  C    -74.716900   51.381000  138.406000
  H    -75.438800   50.428000  140.194000
  C    -73.473400   51.719400  142.017000
  H    -73.038700   52.718200  142.321000
  H    -72.707500   51.010100  142.242000
  C    -74.700500   51.399100  142.845000
  H    -75.558600   51.986700  142.508000
  H    -74.920100   50.391300  142.525000
  C    -74.322900   51.457000  144.329000
  H    -74.252900   52.484100  144.587000
  H    -75.060600   50.964600  144.977000
  H    -73.349200   50.972600  144.677000
  S    -76.934300   52.102400  136.871000
  C    -77.821700   50.895000  135.935000
  C    -77.165200   49.674000  135.970000
  C    -75.929900   49.783400  136.728000
  C    -75.746800   50.988100  137.408000
  H    -77.504900   48.764100  135.565000
  C    -75.047000   48.537100  136.975000
  H    -74.104600   48.782300  137.520000
  H    -74.758800   48.021200  136.094000
  C    -75.784500   47.586200  137.922000
  H    -76.728000   47.379500  137.488000
  H    -76.030900   48.079400  138.841000
  C    -75.161100   46.209600  138.295000
  H    -75.855400   45.640100  139.031000
  H    -74.196900   46.504000  138.781000
  H    -74.897400   45.712300  137.375000
  H    -71.875800   52.786900  140.028000
  H    -78.785600   51.012200  135.461000

 Total Charge           Charge          ....    0
 Multiplicity           Mult            ....    1
 Number of Electrons    NEL             ....  134
 Basis Dimension        Dim             ....  322

ORBITAL ENERGIES
----------------

  NO   OCC          E(Eh)            E(eV)
   0   2.0000     -88.968638     -2420.9597
   1   2.0000     -88.965007     -2420.8609
   2   2.0000     -10.333463      -281.1878
   3   2.0000     -10.326966      -281.0110
   4   2.0000     -10.321197      -280.8540
   5   2.0000     -10.306697      -280.4595
   6   2.0000     -10.305564      -280.4287
   7   2.0000     -10.300141      -280.2811
   8   2.0000     -10.297010      -280.1959
   9   2.0000     -10.295684      -280.1598
  10   2.0000     -10.293171      -280.0914
  11   2.0000     -10.288447      -279.9629
  12   2.0000     -10.288260      -279.9578
  13   2.0000     -10.286331      -279.9053
  14   2.0000     -10.285027      -279.8698
  15   2.0000     -10.274653      -279.5875
  16   2.0000      -8.084382      -219.9872
  17   2.0000      -8.080024      -219.8686
  18   2.0000      -6.042727      -164.4310
  19   2.0000      -6.038645      -164.3199
  20   2.0000      -6.038579      -164.3181
  21   2.0000      -6.035339      -164.2299
  22   2.0000      -6.034368      -164.2035
  23   2.0000      -6.030819      -164.1069
  24   2.0000      -1.008324       -27.4379
  25   2.0000      -0.988255       -26.8918
  26   2.0000      -0.914053       -24.8726
  27   2.0000      -0.904277       -24.6066
  28   2.0000      -0.870486       -23.6871
  29   2.0000      -0.849411       -23.1136
  30   2.0000      -0.841696       -22.9037
  31   2.0000      -0.817661       -22.2497
  32   2.0000      -0.778456       -21.1829
  33   2.0000      -0.767377       -20.8814
  34   2.0000      -0.712517       -19.3886
  35   2.0000      -0.691861       -18.8265
  36   2.0000      -0.688594       -18.7376
  37   2.0000      -0.663167       -18.0457
  38   2.0000      -0.645645       -17.5689
  39   2.0000      -0.619874       -16.8676
  40   2.0000      -0.595145       -16.1947
  41   2.0000      -0.574786       -15.6407
  42   2.0000      -0.571554       -15.5528
  43   2.0000      -0.561969       -15.2920
  44   2.0000      -0.524427       -14.2704
  45   2.0000      -0.518572       -14.1111
  46   2.0000      -0.515388       -14.0244
  47   2.0000      -0.510364       -13.8877
  48   2.0000      -0.507127       -13.7996
  49   2.0000      -0.497388       -13.5346
  50   2.0000      -0.495540       -13.4843
  51   2.0000      -0.480343       -13.0708
  52   2.0000      -0.477402       -12.9908
  53   2.0000      -0.468087       -12.7373
  54   2.0000      -0.456839       -12.4312
  55   2.0000      -0.450577       -12.2608
  56   2.0000      -0.442680       -12.0459
  57   2.0000      -0.439637       -11.9631
  58   2.0000      -0.433936       -11.8080
  59   2.0000      -0.420387       -11.4393
  60   2.0000      -0.418467       -11.3871
  61   2.0000      -0.415048       -11.2940
  62   2.0000      -0.408876       -11.1261
  63   2.0000      -0.340970        -9.2783
  64   2.0000      -0.330341        -8.9890
  65   2.0000      -0.322540        -8.7768
  66   2.0000      -0.302723        -8.2375
  67   0.0000       0.045977         1.2511
  68   0.0000       0.054083         1.4717
  69   0.0000       0.116554         3.1716
  70   0.0000       0.124526         3.3885
  71   0.0000       0.133645         3.6367

MULLIKEN ATOMIC CHARGES
-----------------------
   0 S :    0.146732
   1 C :   -0.103577
   2 C :   -0.099798
   3 C :    0.052969
   4 C :   -0.172376
   5 H :   -0.001244
   6 C :    0.029413
   7 H :    0.027100
   8 H :    0.031792
   9 C :   -0.068992
  10 H :    0.043021
  11 H :    0.024848
  12 C :   -0.047202
  13 H :    0.029771
  14 H :    0.036276
  15 H :    0.038911
  16 S :    0.114117
  17 C :   -0.089952
  18 C :   -0.008459
  19 C :   -0.046875
  20 C :   -0.171518
  21 H :    0.010396
  22 C :    0.087070
  23 H :    0.032788
  24 H :    0.014758
  25 C :   -0.094901
  26 H :    0.001954
  27 H :    0.011919
  28 C :   -0.052185
  29 H :    0.061253
  30 H :    0.031313
  31 H :    0.030354
  32 H :    0.040257
  33 H :    0.060066
Sum of atomic charges:   -0.0000000

LOEWDIN ATOMIC CHARGES
----------------------
   0 S :    0.447850
   1 C :   -0.223588
   2 C :   -0.066334
   3 C :   -0.050734
   4 C :   -0.200495
   5 H :    0.022099
   6 C :   -0.033768
   7 H :    0.029792
   8 H :    0.027620
   9 C :   -0.042771
  10 H :    0.029689
  11 H :    0.020529
  12 C :   -0.066033
  13 H :    0.022127
  14 H :    0.027712
  15 H :    0.035935
  16 S :    0.416457
  17 C :   -0.179116
  18 C :   -0.062460
  19 C :   -0.048469
  20 C :   -0.220053
  21 H :    0.024649
  22 C :   -0.028565
  23 H :    0.033427
  24 H :    0.021660
  25 C :   -0.045001
  26 H :    0.009790
  27 H :    0.017337
  28 C :   -0.070433
  29 H :    0.041802
  30 H :    0.026799
  31 H :    0.019833
  32 H :    0.030954
  33 H :    0.031757

  Mayer bond orders larger than 0.100000
B(  0-S ,  1-C ) :   1.1685 B(  0-S ,  4-C ) :   1.1690 B(  1-C ,  2-C ) :   1.6012
B(  1-C , 32-H ) :   0.9673 B(  2-C ,  3-C ) :   1.2648 B(  2-C ,  6-C ) :   0.9967
B(  3-C ,  4-C ) :   1.5515 B(  3-C ,  5-H ) :   0.9973 B(  4-C , 20-C ) :   1.0131
B(  6-C ,  7-H ) :   0.9493 B(  6-C ,  8-H ) :   0.9380 B(  6-C ,  9-C ) :   1.0718
B(  9-C , 10-H ) :   0.9613 B(  9-C , 11-H ) :   0.9438 B(  9-C , 12-C ) :   1.0726
B( 12-C , 13-H ) :   0.9765 B( 12-C , 14-H ) :   0.9739 B( 12-C , 15-H ) :   0.9737
B( 16-S , 17-C ) :   1.1590 B( 16-S , 20-C ) :   1.1471 B( 17-C , 18-C ) :   1.5952
B( 17-C , 33-H ) :   0.9691 B( 18-C , 19-C ) :   1.2425 B( 18-C , 21-H ) :   0.9945
B( 19-C , 20-C ) :   1.6034 B( 19-C , 22-C ) :   1.0545 B( 22-C , 23-H ) :   0.9345
B( 22-C , 24-H ) :   0.9347 B( 22-C , 25-C ) :   1.0598 B( 25-C , 26-H ) :   0.9555
B( 25-C , 27-H ) :   0.9521 B( 25-C , 28-C ) :   1.0744 B( 28-C , 29-H ) :   0.9719
B( 28-C , 30-H ) :   0.9760 B( 28-C , 31-H ) :   0.9743

Dispersion correction           -0.014029296
FINAL SINGLE POINT ENERGY     -1339.871565245513

DIPOLE MOMENT
-------------
                                X             Y             Z
Electronic contribution:     -2.34146      18.94311     -21.49819
Nuclear contribution   :      2.30001     -19.34873      21.98777
                        -----------------------------------------
Total Dipole Moment    :     -0.04145      -0.40562       0.48958
                        -----------------------------------------
Magnitude (a.u.)       :      0.63713
Magnitude (Debye)      :      1.61945

Rotational constants in cm-1:     0.016837     0.008310     0.006894
Rotational constants in MHz :   504.760096   249.140891   206.687411

                             ****ORCA TERMINATED NORMALLY****
TOTAL RUN TIME: 0 days 0 hours 0 minutes 33 seconds 969 msec
