                         Program Version 4.2.1 -  RELEASE  -
|  1> ! wB97X-D3 SP def2-SVP
|  2> %pal
|  3> nprocs 16
|  4> end
|  5>
|  6> * xyz 0 1
|  7> S 	 -95.5095 	 50.1966 	 121.923
|  8> C 	 -94.0332 	 49.9537 	 122.858
|  9> C 	 -94.2833 	 49.0922 	 123.902
| 10> C 	 -95.6761 	 48.6688 	 123.967
| 11> C 	 -96.4361 	 49.1705 	 122.921
| 12> H 	 -96.1207 	 48.0017 	 124.672
| 13> C 	 -93.3309 	 48.7758 	 125.02
| 14> H 	 -93.8376 	 49.111 	 126.005
| 15> H 	 -92.5329 	 49.4639 	 124.786
| 16> C 	 -92.8364 	 47.2974 	 125.109
| 17> H 	 -92.6024 	 46.9625 	 124.101
| 18> H 	 -91.9233 	 47.3412 	 125.665
| 19> C 	 -93.849 	 46.1733 	 125.62
| 20> H 	 -94.7508 	 46.2462 	 124.986
| 21> H 	 -93.369 	 45.2248 	 125.56
| 22> H 	 -94.1244 	 46.2194 	 126.718
| 23> S 	 -98.7846 	 50.3693 	 123.683
| 24> C 	 -100.301 	 49.705 	 123.099
| 25> C 	 -100.077 	 48.6266 	 122.256
| 26> C 	 -98.7183 	 48.2871 	 122.021
| 27> C 	 -97.8989 	 49.1145 	 122.74
| 28> H 	 -100.944 	 48.1203 	 121.818
| 29> C 	 -98.2165 	 47.2177 	 121.055
| 30> H 	 -98.8689 	 46.344 	 121.102
| 31> H 	 -97.3172 	 46.8211 	 121.421
| 32> C 	 -98.2535 	 47.7582 	 119.641
| 33> H 	 -97.499 	 48.6157 	 119.559
| 34> H 	 -99.2329 	 48.1418 	 119.442
| 35> C 	 -97.8889 	 46.5886 	 118.634
| 36> H 	 -98.7893 	 45.9692 	 118.632
| 37> H 	 -97.0043 	 45.9466 	 118.835
| 38> H 	 -97.7514 	 47.0039 	 117.616
| 39> H 	 -93.1654 	 50.6297 	 122.801
| 40> H 	 -101.293 	 50.1036 	 123.386
| 41> *
| 42>
| 43>                          ****END OF INPUT****

CARTESIAN COORDINATES (ANGSTROEM)
---------------------------------
  S    -95.509500   50.196600  121.923000
  C    -94.033200   49.953700  122.858000
  C    -94.283300   49.092200  123.902000
  C    -95.676100   48.668800  123.967000
  C    -96.436100   49.170500  122.921000
  H    -96.120700   48.001700  124.672000
  C    -93.330900   48.775800  125.020000
  H    -93.837600   49.111000  126.005000
  H    -92.532900   49.463900  124.786000
  C    -92.836400   47.297400  125.109000
  H    -92.602400   46.962500  124.101000
  H    -91.923300   47.341200  125.665000
  C    -93.849000   46.173300  125.620000
  H    -94.750800   46.246200  124.986000
  H    -93.369000   45.224800  125.560000
  H    -94.124400   46.219400  126.718000
  S    -98.784600   50.369300  123.683000
  C    -100.301000   49.705000  123.099000
  C    -100.077000   48.626600  122.256000
  C    -98.718300   48.287100  122.021000
  C    -97.898900   49.114500  122.740000
  H    -100.944000   48.120300  121.818000
  C    -98.216500   47.217700  121.055000
  H    -98.868900   46.344000  121.102000
  H    -97.317200   46.821100  121.421000
  C    -98.253500   47.758200  119.641000
  H    -97.499000   48.615700  119.559000
  H    -99.232900   48.141800  119.442000
  C    -97.888900   46.588600  118.634000
  H    -98.789300   45.969200  118.632000
  H    -97.004300   45.946600  118.835000
  H    -97.751400   47.003900  117.616000
  H    -93.165400   50.629700  122.801000
  H    -101.293000   50.103600  123.386000

 Total Charge           Charge          ....    0
 Multiplicity           Mult            ....    1
 Number of Electrons    NEL             ....  134
 Basis Dimension        Dim             ....  322

ORBITAL ENERGIES
----------------

  NO   OCC          E(Eh)            E(eV)
   0   2.0000     -88.963950     -2420.8321
   1   2.0000     -88.962222     -2420.7851
   2   2.0000     -10.326317      -280.9934
   3   2.0000     -10.326119      -280.9880
   4   2.0000     -10.320981      -280.8482
   5   2.0000     -10.314586      -280.6742
   6   2.0000     -10.302916      -280.3566
   7   2.0000     -10.300982      -280.3040
   8   2.0000     -10.297110      -280.1986
   9   2.0000     -10.294572      -280.1295
  10   2.0000     -10.292584      -280.0755
  11   2.0000     -10.292079      -280.0617
  12   2.0000     -10.290915      -280.0300
  13   2.0000     -10.287672      -279.9418
  14   2.0000     -10.286272      -279.9037
  15   2.0000     -10.283511      -279.8286
  16   2.0000      -8.077982      -219.8131
  17   2.0000      -8.077613      -219.8030
  18   2.0000      -6.036491      -164.2613
  19   2.0000      -6.036082      -164.2501
  20   2.0000      -6.032648      -164.1567
  21   2.0000      -6.031874      -164.1356
  22   2.0000      -6.028713      -164.0496
  23   2.0000      -6.028520      -164.0444
  24   2.0000      -1.005025       -27.3481
  25   2.0000      -0.981717       -26.7139
  26   2.0000      -0.909295       -24.7432
  27   2.0000      -0.905542       -24.6410
  28   2.0000      -0.863023       -23.4840
  29   2.0000      -0.844914       -22.9913
  30   2.0000      -0.839467       -22.8431
  31   2.0000      -0.811733       -22.0884
  32   2.0000      -0.782818       -21.3016
  33   2.0000      -0.771382       -20.9904
  34   2.0000      -0.704217       -19.1627
  35   2.0000      -0.699206       -19.0264
  36   2.0000      -0.692918       -18.8553
  37   2.0000      -0.659610       -17.9489
  38   2.0000      -0.641517       -17.4566
  39   2.0000      -0.612371       -16.6635
  40   2.0000      -0.596010       -16.2183
  41   2.0000      -0.566826       -15.4241
  42   2.0000      -0.562178       -15.2977
  43   2.0000      -0.542063       -14.7503
  44   2.0000      -0.536130       -14.5888
  45   2.0000      -0.520490       -14.1632
  46   2.0000      -0.516458       -14.0535
  47   2.0000      -0.508851       -13.8465
  48   2.0000      -0.507908       -13.8209
  49   2.0000      -0.496249       -13.5036
  50   2.0000      -0.490447       -13.3457
  51   2.0000      -0.475642       -12.9429
  52   2.0000      -0.467572       -12.7233
  53   2.0000      -0.466054       -12.6820
  54   2.0000      -0.454831       -12.3766
  55   2.0000      -0.449212       -12.2237
  56   2.0000      -0.444350       -12.0914
  57   2.0000      -0.437927       -11.9166
  58   2.0000      -0.429776       -11.6948
  59   2.0000      -0.424125       -11.5410
  60   2.0000      -0.419461       -11.4141
  61   2.0000      -0.416076       -11.3220
  62   2.0000      -0.412136       -11.2148
  63   2.0000      -0.335822        -9.1382
  64   2.0000      -0.324543        -8.8313
  65   2.0000      -0.320803        -8.7295
  66   2.0000      -0.314336        -8.5535
  67   0.0000       0.049066         1.3351
  68   0.0000       0.050995         1.3876
  69   0.0000       0.108826         2.9613
  70   0.0000       0.122114         3.3229
  71   0.0000       0.128429         3.4947

MULLIKEN ATOMIC CHARGES
-----------------------
   0 S :    0.108526
   1 C :   -0.137780
   2 C :   -0.106812
   3 C :    0.046795
   4 C :   -0.170559
   5 H :    0.009204
   6 C :    0.044901
   7 H :    0.053902
   8 H :    0.009858
   9 C :   -0.053087
  10 H :    0.028847
  11 H :    0.031092
  12 C :   -0.076929
  13 H :    0.046930
  14 H :    0.034377
  15 H :    0.038621
  16 S :    0.109004
  17 C :   -0.101081
  18 C :   -0.052584
  19 C :   -0.000131
  20 C :   -0.203607
  21 H :    0.019714
  22 C :    0.119834
  23 H :    0.007899
  24 H :    0.014478
  25 C :   -0.081800
  26 H :    0.041473
  27 H :    0.028908
  28 C :   -0.059609
  29 H :    0.030251
  30 H :    0.045845
  31 H :    0.039982
  32 H :    0.065181
  33 H :    0.068357
Sum of atomic charges:    0.0000000

LOEWDIN ATOMIC CHARGES
----------------------
   0 S :    0.419350
   1 C :   -0.208360
   2 C :   -0.064216
   3 C :   -0.064020
   4 C :   -0.211877
   5 H :    0.027232
   6 C :   -0.037814
   7 H :    0.043087
   8 H :    0.027686
   9 C :   -0.034813
  10 H :    0.026655
  11 H :    0.021146
  12 C :   -0.070479
  13 H :    0.028230
  14 H :    0.023581
  15 H :    0.029200
  16 S :    0.384059
  17 C :   -0.184817
  18 C :   -0.077954
  19 C :   -0.049773
  20 C :   -0.187201
  21 H :    0.031990
  22 C :   -0.024039
  23 H :    0.028850
  24 H :    0.024009
  25 C :   -0.032621
  26 H :    0.028808
  27 H :    0.022591
  28 C :   -0.072076
  29 H :    0.024054
  30 H :    0.030107
  31 H :    0.028097
  32 H :    0.035390
  33 H :    0.035939

  Mayer bond orders larger than 0.100000
B(  0-S ,  1-C ) :   1.1315 B(  0-S ,  4-C ) :   1.1804 B(  1-C ,  2-C ) :   1.6263
B(  1-C , 32-H ) :   0.9603 B(  2-C ,  3-C ) :   1.2138 B(  2-C ,  6-C ) :   1.0259
B(  3-C ,  4-C ) :   1.5920 B(  3-C ,  5-H ) :   0.9972 B(  4-C , 20-C ) :   0.9802
B(  6-C ,  7-H ) :   0.9436 B(  6-C ,  8-H ) :   0.9356 B(  6-C ,  9-C ) :   1.0577
B(  9-C , 10-H ) :   0.9563 B(  9-C , 11-H ) :   0.9600 B(  9-C , 12-C ) :   1.0671
B( 12-C , 13-H ) :   0.9726 B( 12-C , 14-H ) :   0.9744 B( 12-C , 15-H ) :   0.9772
B( 16-S , 17-C ) :   1.1456 B( 16-S , 20-C ) :   1.1422 B( 17-C , 18-C ) :   1.6247
B( 17-C , 20-C ) :   0.1014 B( 17-C , 33-H ) :   0.9643 B( 18-C , 19-C ) :   1.2179
B( 18-C , 21-H ) :   0.9854 B( 19-C , 20-C ) :   1.6374 B( 19-C , 22-C ) :   1.0396
B( 22-C , 23-H ) :   0.9299 B( 22-C , 24-H ) :   0.9247 B( 22-C , 25-C ) :   1.0603
B( 25-C , 26-H ) :   0.9541 B( 25-C , 27-H ) :   0.9585 B( 25-C , 28-C ) :   1.0646
B( 28-C , 29-H ) :   0.9766 B( 28-C , 30-H ) :   0.9774 B( 28-C , 31-H ) :   0.9767

Dispersion correction           -0.014344790
FINAL SINGLE POINT ENERGY     -1339.882305526497

DIPOLE MOMENT
-------------
                                X             Y             Z
Electronic contribution:     -8.55191      19.86861       2.68105
Nuclear contribution   :      8.58324     -20.27660      -2.59301
                        -----------------------------------------
Total Dipole Moment    :      0.03132      -0.40799       0.08804
                        -----------------------------------------
Magnitude (a.u.)       :      0.41855
Magnitude (Debye)      :      1.06388

Rotational constants in cm-1:     0.017703     0.008350     0.007349
Rotational constants in MHz :   530.708025   250.316472   220.329121

                             ****ORCA TERMINATED NORMALLY****
TOTAL RUN TIME: 0 days 0 hours 0 minutes 31 seconds 358 msec
