                         Program Version 4.2.1 -  RELEASE  -
|  1> ! wB97X-D3 SP def2-SVP
|  2> %pal
|  3> nprocs 16
|  4> end
|  5>
|  6> * xyz 0 1
|  7> S 	 -67.6119 	 37.1639 	 131.571
|  8> C 	 -68.2639 	 38.4321 	 130.553
|  9> C 	 -68.8442 	 39.488 	 131.309
| 10> C 	 -68.7381 	 39.2274 	 132.67
| 11> C 	 -68.0772 	 38.0406 	 133.011
| 12> H 	 -69.0498 	 39.8918 	 133.512
| 13> C 	 -69.5428 	 40.7807 	 130.899
| 14> H 	 -68.8357 	 41.4544 	 131.414
| 15> H 	 -70.5618 	 40.8927 	 131.294
| 16> C 	 -69.4024 	 41.2683 	 129.499
| 17> H 	 -69.9091 	 42.2107 	 129.448
| 18> H 	 -68.4018 	 41.4827 	 129.232
| 19> C 	 -70.1098 	 40.4229 	 128.515
| 20> H 	 -69.4848 	 39.4964 	 128.419
| 21> H 	 -71.0496 	 40.1602 	 128.807
| 22> H 	 -70.1732 	 40.9341 	 127.577
| 23> S 	 -68.961 	 36.2686 	 134.833
| 24> C 	 -68.5023 	 36.4316 	 136.527
| 25> C 	 -67.743 	 37.546 	 136.717
| 26> C 	 -67.4904 	 38.2922 	 135.533
| 27> C 	 -67.9012 	 37.5702 	 134.394
| 28> H 	 -67.4148 	 37.9672 	 137.637
| 29> C 	 -66.7839 	 39.6328 	 135.584
| 30> H 	 -67.4302 	 40.2393 	 136.132
| 31> H 	 -66.8202 	 39.8993 	 134.544
| 32> C 	 -65.2948 	 39.6452 	 136.112
| 33> H 	 -65.4425 	 39.3307 	 137.138
| 34> H 	 -64.9659 	 40.7071 	 136.117
| 35> C 	 -64.2575 	 38.808 	 135.376
| 36> H 	 -64.4701 	 37.7567 	 135.662
| 37> H 	 -63.2745 	 38.9709 	 135.695
| 38> H 	 -64.2064 	 38.7982 	 134.336
| 39> H 	 -68.2399 	 38.2687 	 129.491
| 40> H 	 -69.0833 	 35.8912 	 137.309
| 41> *
| 42>
| 43>                          ****END OF INPUT****

CARTESIAN COORDINATES (ANGSTROEM)
---------------------------------
  S    -67.611900   37.163900  131.571000
  C    -68.263900   38.432100  130.553000
  C    -68.844200   39.488000  131.309000
  C    -68.738100   39.227400  132.670000
  C    -68.077200   38.040600  133.011000
  H    -69.049800   39.891800  133.512000
  C    -69.542800   40.780700  130.899000
  H    -68.835700   41.454400  131.414000
  H    -70.561800   40.892700  131.294000
  C    -69.402400   41.268300  129.499000
  H    -69.909100   42.210700  129.448000
  H    -68.401800   41.482700  129.232000
  C    -70.109800   40.422900  128.515000
  H    -69.484800   39.496400  128.419000
  H    -71.049600   40.160200  128.807000
  H    -70.173200   40.934100  127.577000
  S    -68.961000   36.268600  134.833000
  C    -68.502300   36.431600  136.527000
  C    -67.743000   37.546000  136.717000
  C    -67.490400   38.292200  135.533000
  C    -67.901200   37.570200  134.394000
  H    -67.414800   37.967200  137.637000
  C    -66.783900   39.632800  135.584000
  H    -67.430200   40.239300  136.132000
  H    -66.820200   39.899300  134.544000
  C    -65.294800   39.645200  136.112000
  H    -65.442500   39.330700  137.138000
  H    -64.965900   40.707100  136.117000
  C    -64.257500   38.808000  135.376000
  H    -64.470100   37.756700  135.662000
  H    -63.274500   38.970900  135.695000
  H    -64.206400   38.798200  134.336000
  H    -68.239900   38.268700  129.491000
  H    -69.083300   35.891200  137.309000

 Total Charge           Charge          ....    0
 Multiplicity           Mult            ....    1
 Number of Electrons    NEL             ....  134
 Basis Dimension        Dim             ....  322

ORBITAL ENERGIES
----------------

  NO   OCC          E(Eh)            E(eV)
   0   2.0000     -88.967811     -2420.9372
   1   2.0000     -88.962731     -2420.7990
   2   2.0000     -10.327132      -281.0156
   3   2.0000     -10.324259      -280.9374
   4   2.0000     -10.319084      -280.7966
   5   2.0000     -10.317150      -280.7439
   6   2.0000     -10.304960      -280.4122
   7   2.0000     -10.301241      -280.3110
   8   2.0000     -10.293065      -280.0885
   9   2.0000     -10.292845      -280.0826
  10   2.0000     -10.291150      -280.0364
  11   2.0000     -10.289274      -279.9854
  12   2.0000     -10.286212      -279.9021
  13   2.0000     -10.272489      -279.5286
  14   2.0000     -10.267273      -279.3867
  15   2.0000     -10.264400      -279.3085
  16   2.0000      -8.082270      -219.9297
  17   2.0000      -8.077835      -219.8091
  18   2.0000      -6.040631      -164.3739
  19   2.0000      -6.036743      -164.2681
  20   2.0000      -6.036317      -164.2565
  21   2.0000      -6.033304      -164.1745
  22   2.0000      -6.032350      -164.1486
  23   2.0000      -6.028529      -164.0446
  24   2.0000      -1.005362       -27.3573
  25   2.0000      -0.983286       -26.7566
  26   2.0000      -0.924224       -25.1494
  27   2.0000      -0.905665       -24.6444
  28   2.0000      -0.867958       -23.6184
  29   2.0000      -0.857418       -23.3315
  30   2.0000      -0.849266       -23.1097
  31   2.0000      -0.807764       -21.9804
  32   2.0000      -0.789148       -21.4738
  33   2.0000      -0.775665       -21.1069
  34   2.0000      -0.707884       -19.2625
  35   2.0000      -0.703896       -19.1540
  36   2.0000      -0.689654       -18.7664
  37   2.0000      -0.661238       -17.9932
  38   2.0000      -0.642492       -17.4831
  39   2.0000      -0.610581       -16.6148
  40   2.0000      -0.594124       -16.1669
  41   2.0000      -0.581331       -15.8188
  42   2.0000      -0.556057       -15.1311
  43   2.0000      -0.552513       -15.0347
  44   2.0000      -0.545092       -14.8327
  45   2.0000      -0.535776       -14.5792
  46   2.0000      -0.522405       -14.2154
  47   2.0000      -0.516475       -14.0540
  48   2.0000      -0.504049       -13.7159
  49   2.0000      -0.498899       -13.5757
  50   2.0000      -0.481441       -13.1007
  51   2.0000      -0.480416       -13.0728
  52   2.0000      -0.473736       -12.8910
  53   2.0000      -0.468116       -12.7381
  54   2.0000      -0.462207       -12.5773
  55   2.0000      -0.451279       -12.2799
  56   2.0000      -0.444203       -12.0874
  57   2.0000      -0.439788       -11.9672
  58   2.0000      -0.439109       -11.9488
  59   2.0000      -0.422983       -11.5099
  60   2.0000      -0.420396       -11.4396
  61   2.0000      -0.408862       -11.1257
  62   2.0000      -0.404809       -11.0154
  63   2.0000      -0.344003        -9.3608
  64   2.0000      -0.330216        -8.9856
  65   2.0000      -0.323495        -8.8027
  66   2.0000      -0.292778        -7.9669
  67   0.0000       0.033930         0.9233
  68   0.0000       0.062777         1.7082
  69   0.0000       0.111218         3.0264
  70   0.0000       0.121051         3.2940
  71   0.0000       0.127812         3.4779

MULLIKEN ATOMIC CHARGES
-----------------------
   0 S :    0.120443
   1 C :   -0.162412
   2 C :   -0.044223
   3 C :   -0.001050
   4 C :   -0.185232
   5 H :    0.028833
   6 C :    0.024573
   7 H :    0.040483
   8 H :    0.053806
   9 C :   -0.038977
  10 H :    0.010598
  11 H :    0.016867
  12 C :    0.001917
  13 H :    0.017526
  14 H :    0.005864
  15 H :    0.024600
  16 S :    0.099622
  17 C :   -0.094171
  18 C :   -0.007222
  19 C :   -0.106909
  20 C :   -0.134792
  21 H :    0.002150
  22 C :    0.105260
  23 H :    0.021086
  24 H :    0.015604
  25 C :   -0.074399
  26 H :    0.023113
  27 H :    0.036778
  28 C :   -0.006449
  29 H :    0.031146
  30 H :    0.018744
  31 H :    0.024741
  32 H :    0.055606
  33 H :    0.076474
Sum of atomic charges:   -0.0000000

LOEWDIN ATOMIC CHARGES
----------------------
   0 S :    0.414438
   1 C :   -0.207661
   2 C :   -0.061779
   3 C :   -0.068432
   4 C :   -0.208850
   5 H :    0.038978
   6 C :   -0.032808
   7 H :    0.045973
   8 H :    0.037537
   9 C :   -0.043959
  10 H :    0.024632
  11 H :    0.020702
  12 C :   -0.051423
  13 H :    0.027120
  14 H :    0.011515
  15 H :    0.023532
  16 S :    0.412403
  17 C :   -0.185841
  18 C :   -0.070715
  19 C :   -0.052091
  20 C :   -0.210382
  21 H :    0.024694
  22 C :   -0.026252
  23 H :    0.025149
  24 H :    0.026686
  25 C :   -0.032608
  26 H :    0.020632
  27 H :    0.027082
  28 C :   -0.061318
  29 H :    0.034685
  30 H :    0.021732
  31 H :    0.020348
  32 H :    0.018575
  33 H :    0.037705

  Mayer bond orders larger than 0.100000
B(  0-S ,  1-C ) :   1.1565 B(  0-S ,  4-C ) :   1.1690 B(  1-C ,  2-C ) :   1.5465
B(  1-C ,  4-C ) :   0.1065 B(  1-C , 32-H ) :   0.9693 B(  2-C ,  3-C ) :   1.2980
B(  2-C ,  6-C ) :   0.9816 B(  3-C ,  4-C ) :   1.5393 B(  3-C ,  5-H ) :   0.9877
B(  4-C , 20-C ) :   1.0056 B(  6-C ,  7-H ) :   0.9418 B(  6-C ,  8-H ) :   0.9447
B(  6-C ,  9-C ) :   1.1020 B(  9-C , 10-H ) :   0.9409 B(  9-C , 11-H ) :   0.9527
B(  9-C , 12-C ) :   1.0886 B( 12-C , 13-H ) :   0.9746 B( 12-C , 14-H ) :   0.9691
B( 12-C , 15-H ) :   0.9699 B( 16-S , 17-C ) :   1.1586 B( 16-S , 20-C ) :   1.1670
B( 17-C , 18-C ) :   1.5807 B( 17-C , 33-H ) :   0.9619 B( 18-C , 19-C ) :   1.2650
B( 18-C , 21-H ) :   0.9936 B( 19-C , 20-C ) :   1.5703 B( 19-C , 22-C ) :   1.0290
B( 22-C , 23-H ) :   0.9306 B( 22-C , 24-H ) :   0.9286 B( 22-C , 25-C ) :   1.0658
B( 25-C , 26-H ) :   0.9587 B( 25-C , 27-H ) :   0.9582 B( 25-C , 28-C ) :   1.0730
B( 28-C , 29-H ) :   0.9702 B( 28-C , 30-H ) :   0.9720 B( 28-C , 31-H ) :   0.9776

Dispersion correction           -0.014420750
FINAL SINGLE POINT ENERGY     -1339.853507737281

DIPOLE MOMENT
-------------
                                X             Y             Z
Electronic contribution:     -5.04652     -20.28296       5.06193
Nuclear contribution   :      4.91902      21.05933      -4.88058
                        -----------------------------------------
Total Dipole Moment    :     -0.12750       0.77637       0.18135
                        -----------------------------------------
Magnitude (a.u.)       :      0.80740
Magnitude (Debye)      :      2.05224

Rotational constants in cm-1:     0.021749     0.007660     0.006749
Rotational constants in MHz :   652.016880   229.636858   202.335735

                             ****ORCA TERMINATED NORMALLY****
TOTAL RUN TIME: 0 days 0 hours 0 minutes 36 seconds 258 msec
