                         Program Version 4.2.1 -  RELEASE  -
|  1> ! wB97X-D3 SP def2-SVP
|  2> %pal
|  3> nprocs 16
|  4> end
|  5>
|  6> * xyz 0 1
|  7> S 	 -51.1146 	 49.8419 	 106.079
|  8> C 	 -50.3739 	 50.4885 	 107.469
|  9> C 	 -49.0407 	 50.0288 	 107.545
| 10> C 	 -48.6872 	 49.2102 	 106.424
| 11> C 	 -49.7381 	 49.0412 	 105.498
| 12> H 	 -47.7408 	 48.73 	 106.188
| 13> C 	 -48.0867 	 50.187 	 108.731
| 14> H 	 -47.105 	 50.5607 	 108.348
| 15> H 	 -47.8538 	 49.1606 	 109.029
| 16> C 	 -48.5801 	 51.0674 	 109.854
| 17> H 	 -48.5165 	 52.072 	 109.547
| 18> H 	 -49.6375 	 50.845 	 110.122
| 19> C 	 -47.6853 	 50.9856 	 111.19
| 20> H 	 -48.1072 	 51.5975 	 111.947
| 21> H 	 -47.5599 	 49.9428 	 111.467
| 22> H 	 -46.6598 	 51.3614 	 110.919
| 23> S 	 -49.804 	 48.4639 	 102.699
| 24> C 	 -49.968 	 46.8361 	 102.155
| 25> C 	 -50.0329 	 46.0349 	 103.269
| 26> C 	 -49.8067 	 46.6592 	 104.534
| 27> C 	 -49.8547 	 48.0287 	 104.409
| 28> H 	 -50.1267 	 44.9747 	 103.1
| 29> C 	 -49.8035 	 45.9308 	 105.895
| 30> H 	 -50.7071 	 46.2688 	 106.352
| 31> H 	 -49.0424 	 46.4695 	 106.499
| 32> C 	 -49.7169 	 44.3218 	 105.837
| 33> H 	 -48.8355 	 43.9157 	 105.404
| 34> H 	 -50.4533 	 43.8973 	 105.107
| 35> C 	 -49.9172 	 43.744 	 107.26
| 36> H 	 -49.7754 	 42.6119 	 107.301
| 37> H 	 -50.892 	 44.0939 	 107.568
| 38> H 	 -49.3249 	 44.2188 	 107.975
| 39> H 	 -50.8519 	 51.1244 	 108.153
| 40> H 	 -49.9123 	 46.4997 	 101.143
| 41> *
| 42>
| 43>                          ****END OF INPUT****

CARTESIAN COORDINATES (ANGSTROEM)
---------------------------------
  S    -51.114600   49.841900  106.079000
  C    -50.373900   50.488500  107.469000
  C    -49.040700   50.028800  107.545000
  C    -48.687200   49.210200  106.424000
  C    -49.738100   49.041200  105.498000
  H    -47.740800   48.730000  106.188000
  C    -48.086700   50.187000  108.731000
  H    -47.105000   50.560700  108.348000
  H    -47.853800   49.160600  109.029000
  C    -48.580100   51.067400  109.854000
  H    -48.516500   52.072000  109.547000
  H    -49.637500   50.845000  110.122000
  C    -47.685300   50.985600  111.190000
  H    -48.107200   51.597500  111.947000
  H    -47.559900   49.942800  111.467000
  H    -46.659800   51.361400  110.919000
  S    -49.804000   48.463900  102.699000
  C    -49.968000   46.836100  102.155000
  C    -50.032900   46.034900  103.269000
  C    -49.806700   46.659200  104.534000
  C    -49.854700   48.028700  104.409000
  H    -50.126700   44.974700  103.100000
  C    -49.803500   45.930800  105.895000
  H    -50.707100   46.268800  106.352000
  H    -49.042400   46.469500  106.499000
  C    -49.716900   44.321800  105.837000
  H    -48.835500   43.915700  105.404000
  H    -50.453300   43.897300  105.107000
  C    -49.917200   43.744000  107.260000
  H    -49.775400   42.611900  107.301000
  H    -50.892000   44.093900  107.568000
  H    -49.324900   44.218800  107.975000
  H    -50.851900   51.124400  108.153000
  H    -49.912300   46.499700  101.143000

 Total Charge           Charge          ....    0
 Multiplicity           Mult            ....    1
 Number of Electrons    NEL             ....  134
 Basis Dimension        Dim             ....  322

ORBITAL ENERGIES
----------------

  NO   OCC          E(Eh)            E(eV)
   0   2.0000     -88.965227     -2420.8669
   1   2.0000     -88.961355     -2420.7615
   2   2.0000     -10.328457      -281.0516
   3   2.0000     -10.325145      -280.9615
   4   2.0000     -10.313976      -280.6576
   5   2.0000     -10.311903      -280.6012
   6   2.0000     -10.307244      -280.4744
   7   2.0000     -10.303831      -280.3815
   8   2.0000     -10.299071      -280.2520
   9   2.0000     -10.297491      -280.2090
  10   2.0000     -10.297276      -280.2031
  11   2.0000     -10.296031      -280.1693
  12   2.0000     -10.290431      -280.0169
  13   2.0000     -10.289346      -279.9873
  14   2.0000     -10.285517      -279.8831
  15   2.0000     -10.279387      -279.7164
  16   2.0000      -8.081513      -219.9091
  17   2.0000      -8.076304      -219.7674
  18   2.0000      -6.039728      -164.3493
  19   2.0000      -6.035466      -164.2334
  20   2.0000      -6.034821      -164.2158
  21   2.0000      -6.032821      -164.1614
  22   2.0000      -6.030648      -164.1023
  23   2.0000      -6.027167      -164.0075
  24   2.0000      -1.009838       -27.4791
  25   2.0000      -0.989391       -26.9227
  26   2.0000      -0.910773       -24.7834
  27   2.0000      -0.899318       -24.4717
  28   2.0000      -0.867115       -23.5954
  29   2.0000      -0.849668       -23.1207
  30   2.0000      -0.845261       -23.0007
  31   2.0000      -0.812756       -22.1162
  32   2.0000      -0.781136       -21.2558
  33   2.0000      -0.770716       -20.9722
  34   2.0000      -0.714223       -19.4350
  35   2.0000      -0.711981       -19.3740
  36   2.0000      -0.692364       -18.8402
  37   2.0000      -0.652412       -17.7530
  38   2.0000      -0.646780       -17.5998
  39   2.0000      -0.608168       -16.5491
  40   2.0000      -0.593290       -16.1442
  41   2.0000      -0.575707       -15.6658
  42   2.0000      -0.567380       -15.4392
  43   2.0000      -0.554736       -15.0951
  44   2.0000      -0.535796       -14.5798
  45   2.0000      -0.527317       -14.3490
  46   2.0000      -0.518725       -14.1152
  47   2.0000      -0.511251       -13.9118
  48   2.0000      -0.504168       -13.7191
  49   2.0000      -0.496088       -13.4992
  50   2.0000      -0.492763       -13.4088
  51   2.0000      -0.481121       -13.0920
  52   2.0000      -0.477722       -12.9995
  53   2.0000      -0.464009       -12.6263
  54   2.0000      -0.460275       -12.5247
  55   2.0000      -0.449481       -12.2310
  56   2.0000      -0.446199       -12.1417
  57   2.0000      -0.440747       -11.9933
  58   2.0000      -0.434178       -11.8146
  59   2.0000      -0.430036       -11.7019
  60   2.0000      -0.418026       -11.3751
  61   2.0000      -0.416544       -11.3348
  62   2.0000      -0.411083       -11.1861
  63   2.0000      -0.332406        -9.0452
  64   2.0000      -0.327914        -8.9230
  65   2.0000      -0.326476        -8.8839
  66   2.0000      -0.306171        -8.3313
  67   0.0000       0.043487         1.1833
  68   0.0000       0.060398         1.6435
  69   0.0000       0.117462         3.1963
  70   0.0000       0.131504         3.5784
  71   0.0000       0.138051         3.7566

MULLIKEN ATOMIC CHARGES
-----------------------
   0 S :    0.129394
   1 C :   -0.113679
   2 C :   -0.097070
   3 C :    0.017900
   4 C :   -0.168214
   5 H :    0.020902
   6 C :    0.065150
   7 H :    0.033046
   8 H :    0.030903
   9 C :   -0.105071
  10 H :    0.030224
  11 H :    0.038558
  12 C :   -0.040865
  13 H :    0.038821
  14 H :    0.033918
  15 H :    0.032074
  16 S :    0.105239
  17 C :   -0.078748
  18 C :   -0.053433
  19 C :   -0.030482
  20 C :   -0.174093
  21 H :    0.010920
  22 C :    0.077907
  23 H :    0.031075
  24 H :    0.027790
  25 C :   -0.078827
  26 H :    0.023177
  27 H :    0.037336
  28 C :   -0.017582
  29 H :    0.053016
  30 H :    0.018001
  31 H :    0.013238
  32 H :    0.035300
  33 H :    0.054175
Sum of atomic charges:   -0.0000000

LOEWDIN ATOMIC CHARGES
----------------------
   0 S :    0.462949
   1 C :   -0.215836
   2 C :   -0.061382
   3 C :   -0.066911
   4 C :   -0.218656
   5 H :    0.032956
   6 C :   -0.035803
   7 H :    0.036616
   8 H :    0.032335
   9 C :   -0.041000
  10 H :    0.019846
  11 H :    0.024767
  12 C :   -0.057023
  13 H :    0.021629
  14 H :    0.022591
  15 H :    0.028967
  16 S :    0.409920
  17 C :   -0.187961
  18 C :   -0.080614
  19 C :   -0.049545
  20 C :   -0.213140
  21 H :    0.025218
  22 C :   -0.028537
  23 H :    0.032978
  24 H :    0.036695
  25 C :   -0.038893
  26 H :    0.016823
  27 H :    0.028521
  28 C :   -0.063653
  29 H :    0.036886
  30 H :    0.024461
  31 H :    0.015885
  32 H :    0.018167
  33 H :    0.030745

  Mayer bond orders larger than 0.100000
B(  0-S ,  1-C ) :   1.1711 B(  0-S ,  4-C ) :   1.2082 B(  1-C ,  2-C ) :   1.5462
B(  1-C ,  4-C ) :   0.1021 B(  1-C , 32-H ) :   0.9778 B(  2-C ,  3-C ) :   1.2870
B(  2-C ,  6-C ) :   1.0108 B(  3-C ,  4-C ) :   1.5309 B(  3-C ,  5-H ) :   0.9984
B(  4-C , 20-C ) :   0.9878 B(  6-C ,  7-H ) :   0.9352 B(  6-C ,  8-H ) :   0.9421
B(  6-C ,  9-C ) :   1.0750 B(  9-C , 10-H ) :   0.9560 B(  9-C , 11-H ) :   0.9522
B(  9-C , 12-C ) :   1.0789 B( 12-C , 13-H ) :   0.9765 B( 12-C , 14-H ) :   0.9802
B( 12-C , 15-H ) :   0.9764 B( 16-S , 17-C ) :   1.1674 B( 16-S , 20-C ) :   1.1483
B( 17-C , 18-C ) :   1.5911 B( 17-C , 20-C ) :   0.1018 B( 17-C , 33-H ) :   0.9717
B( 18-C , 19-C ) :   1.2590 B( 18-C , 21-H ) :   0.9861 B( 19-C , 20-C ) :   1.5865
B( 19-C , 22-C ) :   1.0256 B( 22-C , 23-H ) :   0.9358 B( 22-C , 24-H ) :   0.9248
B( 22-C , 25-C ) :   1.0451 B( 25-C , 26-H ) :   0.9634 B( 25-C , 27-H ) :   0.9520
B( 25-C , 28-C ) :   1.0762 B( 28-C , 29-H ) :   0.9735 B( 28-C , 30-H ) :   0.9738
B( 28-C , 31-H ) :   0.9737

Dispersion correction           -0.013716103
FINAL SINGLE POINT ENERGY     -1339.873018541599

DIPOLE MOMENT
-------------
                                X             Y             Z
Electronic contribution:     -9.37592      10.01539     -26.10200
Nuclear contribution   :      9.68524     -10.41278      26.65492
                        -----------------------------------------
Total Dipole Moment    :      0.30933      -0.39738       0.55292
                        -----------------------------------------
Magnitude (a.u.)       :      0.74788
Magnitude (Debye)      :      1.90095

Rotational constants in cm-1:     0.018745     0.007598     0.005974
Rotational constants in MHz :   561.970912   227.783419   179.102592

                             ****ORCA TERMINATED NORMALLY****
TOTAL RUN TIME: 0 days 0 hours 0 minutes 29 seconds 91 msec
