                         Program Version 4.2.1 -  RELEASE  -
|  1> ! wB97X-D3 SP def2-SVP
|  2> %pal
|  3> nprocs 16
|  4> end
|  5>
|  6> * xyz 0 1
|  7> S 	 -2.14516 	 -13.2868 	 83.3077
|  8> C 	 -2.24273 	 -11.8353 	 84.2327
|  9> C 	 -3.56686 	 -11.6088 	 84.6929
| 10> C 	 -4.45166 	 -12.6795 	 84.3639
| 11> C 	 -3.85028 	 -13.6849 	 83.5842
| 12> H 	 -5.51436 	 -12.7888 	 84.5663
| 13> C 	 -3.96855 	 -10.3885 	 85.4831
| 14> H 	 -3.51324 	 -10.4508 	 86.4494
| 15> H 	 -5.04314 	 -10.4467 	 85.6704
| 16> C 	 -3.5428 	 -9.09059 	 84.8346
| 17> H 	 -3.9159 	 -8.3237 	 85.5039
| 18> H 	 -2.45597 	 -9.05844 	 84.6665
| 19> C 	 -4.01567 	 -8.87503 	 83.3554
| 20> H 	 -4.77507 	 -8.02729 	 83.3381
| 21> H 	 -3.21258 	 -8.55636 	 82.7298
| 22> H 	 -4.41286 	 -9.65377 	 82.7619
| 23> S 	 -4.08132 	 -14.8475 	 81.1992
| 24> C 	 -5.29345 	 -15.9831 	 80.8315
| 25> C 	 -6.11966 	 -16.1565 	 81.8886
| 26> C 	 -5.76176 	 -15.418 	 83.0284
| 27> C 	 -4.54116 	 -14.7324 	 82.8974
| 28> H 	 -7.00379 	 -16.8814 	 81.8598
| 29> C 	 -6.61326 	 -15.476 	 84.2337
| 30> H 	 -6.26487 	 -14.7333 	 84.9484
| 31> H 	 -6.37988 	 -16.3865 	 84.7321
| 32> C 	 -8.12053 	 -15.3446 	 84.0078
| 33> H 	 -8.45248 	 -16.166 	 83.4134
| 34> H 	 -8.29868 	 -14.3647 	 83.4654
| 35> C 	 -8.97821 	 -15.3719 	 85.2317
| 36> H 	 -10.003 	 -15.6453 	 85.165
| 37> H 	 -8.95086 	 -14.3042 	 85.642
| 38> H 	 -8.5991 	 -16.032 	 86.0477
| 39> H 	 -1.44555 	 -11.1478 	 84.4799
| 40> H 	 -5.36783 	 -16.6298 	 79.9562
| 41> *
| 42>
| 43>                          ****END OF INPUT****

CARTESIAN COORDINATES (ANGSTROEM)
---------------------------------
  S     -2.145160  -13.286800   83.307700
  C     -2.242730  -11.835300   84.232700
  C     -3.566860  -11.608800   84.692900
  C     -4.451660  -12.679500   84.363900
  C     -3.850280  -13.684900   83.584200
  H     -5.514360  -12.788800   84.566300
  C     -3.968550  -10.388500   85.483100
  H     -3.513240  -10.450800   86.449400
  H     -5.043140  -10.446700   85.670400
  C     -3.542800   -9.090590   84.834600
  H     -3.915900   -8.323700   85.503900
  H     -2.455970   -9.058440   84.666500
  C     -4.015670   -8.875030   83.355400
  H     -4.775070   -8.027290   83.338100
  H     -3.212580   -8.556360   82.729800
  H     -4.412860   -9.653770   82.761900
  S     -4.081320  -14.847500   81.199200
  C     -5.293450  -15.983100   80.831500
  C     -6.119660  -16.156500   81.888600
  C     -5.761760  -15.418000   83.028400
  C     -4.541160  -14.732400   82.897400
  H     -7.003790  -16.881400   81.859800
  C     -6.613260  -15.476000   84.233700
  H     -6.264870  -14.733300   84.948400
  H     -6.379880  -16.386500   84.732100
  C     -8.120530  -15.344600   84.007800
  H     -8.452480  -16.166000   83.413400
  H     -8.298680  -14.364700   83.465400
  C     -8.978210  -15.371900   85.231700
  H    -10.003000  -15.645300   85.165000
  H     -8.950860  -14.304200   85.642000
  H     -8.599100  -16.032000   86.047700
  H     -1.445550  -11.147800   84.479900
  H     -5.367830  -16.629800   79.956200

 Total Charge           Charge          ....    0
 Multiplicity           Mult            ....    1
 Number of Electrons    NEL             ....  134
 Basis Dimension        Dim             ....  322

ORBITAL ENERGIES
----------------

  NO   OCC          E(Eh)            E(eV)
   0   2.0000     -88.971637     -2421.0413
   1   2.0000     -88.960505     -2420.7384
   2   2.0000     -10.332130      -281.1515
   3   2.0000     -10.327073      -281.0139
   4   2.0000     -10.315448      -280.6976
   5   2.0000     -10.310366      -280.5593
   6   2.0000     -10.303394      -280.3696
   7   2.0000     -10.300681      -280.2958
   8   2.0000     -10.297176      -280.2004
   9   2.0000     -10.291096      -280.0350
  10   2.0000     -10.289962      -280.0041
  11   2.0000     -10.289012      -279.9782
  12   2.0000     -10.287837      -279.9463
  13   2.0000     -10.285671      -279.8873
  14   2.0000     -10.282112      -279.7905
  15   2.0000     -10.272274      -279.5228
  16   2.0000      -8.085766      -220.0249
  17   2.0000      -8.076277      -219.7667
  18   2.0000      -6.044285      -164.4734
  19   2.0000      -6.040189      -164.3619
  20   2.0000      -6.036718      -164.2675
  21   2.0000      -6.034811      -164.2156
  22   2.0000      -6.030561      -164.0999
  23   2.0000      -6.026991      -164.0028
  24   2.0000      -1.011579       -27.5265
  25   2.0000      -0.985736       -26.8232
  26   2.0000      -0.918589       -24.9961
  27   2.0000      -0.913561       -24.8592
  28   2.0000      -0.872355       -23.7380
  29   2.0000      -0.857128       -23.3237
  30   2.0000      -0.845309       -23.0020
  31   2.0000      -0.812153       -22.0998
  32   2.0000      -0.784969       -21.3601
  33   2.0000      -0.773519       -21.0485
  34   2.0000      -0.707725       -19.2582
  35   2.0000      -0.706443       -19.2233
  36   2.0000      -0.697821       -18.9887
  37   2.0000      -0.658227       -17.9113
  38   2.0000      -0.635729       -17.2991
  39   2.0000      -0.613789       -16.7020
  40   2.0000      -0.598198       -16.2778
  41   2.0000      -0.580012       -15.7829
  42   2.0000      -0.572126       -15.5683
  43   2.0000      -0.548962       -14.9380
  44   2.0000      -0.539770       -14.6879
  45   2.0000      -0.525245       -14.2927
  46   2.0000      -0.523171       -14.2362
  47   2.0000      -0.514939       -14.0122
  48   2.0000      -0.509639       -13.8680
  49   2.0000      -0.503574       -13.7029
  50   2.0000      -0.489505       -13.3201
  51   2.0000      -0.481566       -13.1041
  52   2.0000      -0.477263       -12.9870
  53   2.0000      -0.461938       -12.5700
  54   2.0000      -0.457645       -12.4532
  55   2.0000      -0.455864       -12.4047
  56   2.0000      -0.442977       -12.0540
  57   2.0000      -0.433341       -11.7918
  58   2.0000      -0.426726       -11.6118
  59   2.0000      -0.425407       -11.5759
  60   2.0000      -0.418080       -11.3765
  61   2.0000      -0.413783       -11.2596
  62   2.0000      -0.408516       -11.1163
  63   2.0000      -0.357828        -9.7370
  64   2.0000      -0.331793        -9.0285
  65   2.0000      -0.326844        -8.8939
  66   2.0000      -0.280769        -7.6401
  67   0.0000       0.019211         0.5228
  68   0.0000       0.077118         2.0985
  69   0.0000       0.110993         3.0203
  70   0.0000       0.121735         3.3126
  71   0.0000       0.131472         3.5775

MULLIKEN ATOMIC CHARGES
-----------------------
   0 S :    0.128516
   1 C :   -0.118519
   2 C :   -0.123840
   3 C :    0.018786
   4 C :   -0.157316
   5 H :    0.016885
   6 C :    0.116902
   7 H :    0.033121
   8 H :    0.017442
   9 C :   -0.089096
  10 H :    0.039592
  11 H :    0.033387
  12 C :   -0.060296
  13 H :    0.031889
  14 H :    0.018665
  15 H :    0.035900
  16 S :    0.085000
  17 C :   -0.071636
  18 C :   -0.066324
  19 C :   -0.063679
  20 C :   -0.109821
  21 H :    0.042056
  22 C :    0.084438
  23 H :   -0.000933
  24 H :    0.026343
  25 C :   -0.085077
  26 H :    0.024205
  27 H :    0.045838
  28 C :   -0.056951
  29 H :    0.033367
  30 H :    0.032408
  31 H :    0.029681
  32 H :    0.050665
  33 H :    0.058404
Sum of atomic charges:    0.0000000

LOEWDIN ATOMIC CHARGES
----------------------
   0 S :    0.419858
   1 C :   -0.214348
   2 C :   -0.058112
   3 C :   -0.062965
   4 C :   -0.196299
   5 H :    0.031143
   6 C :   -0.032899
   7 H :    0.033062
   8 H :    0.029501
   9 C :   -0.038268
  10 H :    0.027786
  11 H :    0.026427
  12 C :   -0.073487
  13 H :    0.031475
  14 H :    0.022536
  15 H :    0.022682
  16 S :    0.419473
  17 C :   -0.202198
  18 C :   -0.083572
  19 C :   -0.061297
  20 C :   -0.191893
  21 H :    0.042886
  22 C :   -0.033586
  23 H :    0.025156
  24 H :    0.032381
  25 C :   -0.043649
  26 H :    0.017592
  27 H :    0.035047
  28 C :   -0.072612
  29 H :    0.022163
  30 H :    0.032448
  31 H :    0.028315
  32 H :    0.029076
  33 H :    0.036180

  Mayer bond orders larger than 0.100000
B(  0-S ,  1-C ) :   1.1516 B(  0-S ,  4-C ) :   1.1568 B(  1-C ,  2-C ) :   1.5594
B(  1-C ,  4-C ) :   0.1039 B(  1-C , 32-H ) :   0.9709 B(  2-C ,  3-C ) :   1.2843
B(  2-C ,  6-C ) :   1.0186 B(  3-C ,  4-C ) :   1.5290 B(  3-C ,  5-H ) :   0.9814
B(  4-C , 20-C ) :   1.0741 B(  6-C ,  7-H ) :   0.9289 B(  6-C ,  8-H ) :   0.9422
B(  6-C ,  9-C ) :   1.0797 B(  9-C , 10-H ) :   0.9615 B(  9-C , 11-H ) :   0.9649
B(  9-C , 12-C ) :   1.0487 B( 12-C , 13-H ) :   0.9795 B( 12-C , 14-H ) :   0.9822
B( 12-C , 15-H ) :   0.9785 B( 16-S , 17-C ) :   1.1687 B( 16-S , 20-C ) :   1.1369
B( 17-C , 18-C ) :   1.5940 B( 17-C , 33-H ) :   0.9603 B( 18-C , 19-C ) :   1.2748
B( 18-C , 21-H ) :   0.9766 B( 19-C , 20-C ) :   1.5504 B( 19-C , 22-C ) :   1.0509
B( 22-C , 23-H ) :   0.9345 B( 22-C , 24-H ) :   0.9173 B( 22-C , 25-C ) :   1.0642
B( 25-C , 26-H ) :   0.9467 B( 25-C , 27-H ) :   0.9609 B( 25-C , 28-C ) :   1.0860
B( 28-C , 29-H ) :   0.9757 B( 28-C , 30-H ) :   0.9748 B( 28-C , 31-H ) :   0.9708

Dispersion correction           -0.013975790
FINAL SINGLE POINT ENERGY     -1339.866018124844

DIPOLE MOMENT
-------------
                                X             Y             Z
Electronic contribution:     18.67910     -12.10042     -12.93307
Nuclear contribution   :    -19.22454      12.24248      13.27474
                        -----------------------------------------
Total Dipole Moment    :     -0.54544       0.14206       0.34167
                        -----------------------------------------
Magnitude (a.u.)       :      0.65911
Magnitude (Debye)      :      1.67532

Rotational constants in cm-1:     0.018239     0.008636     0.006666
Rotational constants in MHz :   546.785824   258.888537   199.842979

                             ****ORCA TERMINATED NORMALLY****
TOTAL RUN TIME: 0 days 0 hours 0 minutes 33 seconds 503 msec
