                         Program Version 4.2.1 -  RELEASE  -
|  1> ! wB97X-D3 SP def2-SVP
|  2> %pal
|  3> nprocs 16
|  4> end
|  5>
|  6> * xyz 0 1
|  7> S 	 67.6295 	 28.9752 	 70.0716
|  8> C 	 68.0753 	 27.7057 	 68.8795
|  9> C 	 68.6704 	 26.6558 	 69.5381
| 10> C 	 68.9008 	 26.8908 	 70.9412
| 11> C 	 68.4467 	 28.1457 	 71.3513
| 12> H 	 69.4772 	 26.3514 	 71.6686
| 13> C 	 69.0758 	 25.3103 	 68.8749
| 14> H 	 68.2187 	 25.0057 	 68.1929
| 15> H 	 69.0961 	 24.6341 	 69.6471
| 16> C 	 70.415 	 25.3285 	 68.2928
| 17> H 	 70.4921 	 26.22 	 67.6911
| 18> H 	 71.1187 	 25.6072 	 69.0757
| 19> C 	 70.7778 	 23.9726 	 67.5524
| 20> H 	 70.9756 	 23.1679 	 68.2523
| 21> H 	 70.0554 	 23.593 	 66.8658
| 22> H 	 71.7456 	 24.0126 	 66.9615
| 23> S 	 68.8699 	 30.4435 	 72.9673
| 24> C 	 68.5332 	 30.3077 	 74.6335
| 25> C 	 68.1588 	 29.0379 	 75.0003
| 26> C 	 68.1986 	 28.1137 	 73.9406
| 27> C 	 68.4841 	 28.7385 	 72.7225
| 28> H 	 67.8559 	 28.9692 	 76.0601
| 29> C 	 67.9021 	 26.6269 	 74.1795
| 30> H 	 67.9663 	 25.93 	 73.3526
| 31> H 	 66.8073 	 26.6443 	 74.3866
| 32> C 	 68.771 	 25.9541 	 75.2508
| 33> H 	 68.3824 	 24.9443 	 75.4747
| 34> H 	 68.6722 	 26.5577 	 76.1353
| 35> C 	 70.2584 	 25.9257 	 74.7694
| 36> H 	 70.6568 	 24.8473 	 74.8379
| 37> H 	 70.8209 	 26.5606 	 75.48
| 38> H 	 70.5028 	 26.3455 	 73.7425
| 39> H 	 67.6332 	 27.5873 	 67.905
| 40> H 	 68.8273 	 31.0525 	 75.3442
| 41> *
| 42>
| 43>                          ****END OF INPUT****

CARTESIAN COORDINATES (ANGSTROEM)
---------------------------------
  S     67.629500   28.975200   70.071600
  C     68.075300   27.705700   68.879500
  C     68.670400   26.655800   69.538100
  C     68.900800   26.890800   70.941200
  C     68.446700   28.145700   71.351300
  H     69.477200   26.351400   71.668600
  C     69.075800   25.310300   68.874900
  H     68.218700   25.005700   68.192900
  H     69.096100   24.634100   69.647100
  C     70.415000   25.328500   68.292800
  H     70.492100   26.220000   67.691100
  H     71.118700   25.607200   69.075700
  C     70.777800   23.972600   67.552400
  H     70.975600   23.167900   68.252300
  H     70.055400   23.593000   66.865800
  H     71.745600   24.012600   66.961500
  S     68.869900   30.443500   72.967300
  C     68.533200   30.307700   74.633500
  C     68.158800   29.037900   75.000300
  C     68.198600   28.113700   73.940600
  C     68.484100   28.738500   72.722500
  H     67.855900   28.969200   76.060100
  C     67.902100   26.626900   74.179500
  H     67.966300   25.930000   73.352600
  H     66.807300   26.644300   74.386600
  C     68.771000   25.954100   75.250800
  H     68.382400   24.944300   75.474700
  H     68.672200   26.557700   76.135300
  C     70.258400   25.925700   74.769400
  H     70.656800   24.847300   74.837900
  H     70.820900   26.560600   75.480000
  H     70.502800   26.345500   73.742500
  H     67.633200   27.587300   67.905000
  H     68.827300   31.052500   75.344200

 Total Charge           Charge          ....    0
 Multiplicity           Mult            ....    1
 Number of Electrons    NEL             ....  134
 Basis Dimension        Dim             ....  322

ORBITAL ENERGIES
----------------

  NO   OCC          E(Eh)            E(eV)
   0   2.0000     -88.968788     -2420.9638
   1   2.0000     -88.965106     -2420.8636
   2   2.0000     -10.333387      -281.1858
   3   2.0000     -10.332150      -281.1521
   4   2.0000     -10.313465      -280.6436
   5   2.0000     -10.312960      -280.6299
   6   2.0000     -10.309507      -280.5360
   7   2.0000     -10.304067      -280.3879
   8   2.0000     -10.295533      -280.1557
   9   2.0000     -10.293376      -280.0970
  10   2.0000     -10.293223      -280.0928
  11   2.0000     -10.291716      -280.0518
  12   2.0000     -10.291321      -280.0411
  13   2.0000     -10.285953      -279.8950
  14   2.0000     -10.284064      -279.8436
  15   2.0000     -10.283971      -279.8411
  16   2.0000      -8.084049      -219.9782
  17   2.0000      -8.079425      -219.8523
  18   2.0000      -6.042375      -164.4214
  19   2.0000      -6.038472      -164.3152
  20   2.0000      -6.038015      -164.3027
  21   2.0000      -6.034978      -164.2201
  22   2.0000      -6.033977      -164.1929
  23   2.0000      -6.030124      -164.0880
  24   2.0000      -1.007847       -27.4249
  25   2.0000      -0.984770       -26.7969
  26   2.0000      -0.916066       -24.9274
  27   2.0000      -0.910096       -24.7650
  28   2.0000      -0.865224       -23.5439
  29   2.0000      -0.849273       -23.1099
  30   2.0000      -0.839003       -22.8304
  31   2.0000      -0.812457       -22.1081
  32   2.0000      -0.783517       -21.3206
  33   2.0000      -0.775010       -21.0891
  34   2.0000      -0.707696       -19.2574
  35   2.0000      -0.703271       -19.1370
  36   2.0000      -0.695137       -18.9156
  37   2.0000      -0.654027       -17.7970
  38   2.0000      -0.640476       -17.4282
  39   2.0000      -0.620465       -16.8837
  40   2.0000      -0.601441       -16.3660
  41   2.0000      -0.572852       -15.5881
  42   2.0000      -0.558609       -15.2005
  43   2.0000      -0.549784       -14.9604
  44   2.0000      -0.539846       -14.6900
  45   2.0000      -0.521326       -14.1860
  46   2.0000      -0.512651       -13.9500
  47   2.0000      -0.509513       -13.8646
  48   2.0000      -0.506513       -13.7829
  49   2.0000      -0.494298       -13.4505
  50   2.0000      -0.487579       -13.2677
  51   2.0000      -0.475950       -12.9513
  52   2.0000      -0.474925       -12.9234
  53   2.0000      -0.468349       -12.7444
  54   2.0000      -0.463163       -12.6033
  55   2.0000      -0.447898       -12.1879
  56   2.0000      -0.446207       -12.1419
  57   2.0000      -0.442104       -12.0303
  58   2.0000      -0.429878       -11.6976
  59   2.0000      -0.421138       -11.4598
  60   2.0000      -0.416103       -11.3228
  61   2.0000      -0.414072       -11.2675
  62   2.0000      -0.411337       -11.1930
  63   2.0000      -0.350957        -9.5500
  64   2.0000      -0.335902        -9.1404
  65   2.0000      -0.330476        -8.9927
  66   2.0000      -0.290238        -7.8978
  67   0.0000       0.028653         0.7797
  68   0.0000       0.071045         1.9332
  69   0.0000       0.107729         2.9315
  70   0.0000       0.119210         3.2439
  71   0.0000       0.134316         3.6549

MULLIKEN ATOMIC CHARGES
-----------------------
   0 S :    0.097355
   1 C :   -0.112073
   2 C :   -0.125390
   3 C :    0.030635
   4 C :   -0.134864
   5 H :   -0.002186
   6 C :    0.094817
   7 H :    0.035521
   8 H :   -0.009726
   9 C :   -0.034174
  10 H :    0.015836
  11 H :    0.019809
  12 C :   -0.049836
  13 H :    0.028287
  14 H :    0.029841
  15 H :    0.039812
  16 S :    0.122358
  17 C :   -0.097818
  18 C :   -0.067396
  19 C :   -0.004056
  20 C :   -0.172369
  21 H :    0.037108
  22 C :    0.033806
  23 H :    0.022198
  24 H :    0.040903
  25 C :   -0.052163
  26 H :    0.040602
  27 H :    0.026091
  28 C :   -0.115311
  29 H :    0.051124
  30 H :    0.042285
  31 H :    0.059981
  32 H :    0.050843
  33 H :    0.058146
Sum of atomic charges:   -0.0000000

LOEWDIN ATOMIC CHARGES
----------------------
   0 S :    0.395022
   1 C :   -0.195215
   2 C :   -0.051782
   3 C :   -0.077602
   4 C :   -0.182492
   5 H :    0.024382
   6 C :   -0.027022
   7 H :    0.035650
   8 H :    0.015080
   9 C :   -0.041684
  10 H :    0.021589
  11 H :    0.028985
  12 C :   -0.069132
  13 H :    0.024614
  14 H :    0.021131
  15 H :    0.034677
  16 S :    0.421823
  17 C :   -0.195612
  18 C :   -0.079622
  19 C :   -0.051057
  20 C :   -0.202945
  21 H :    0.040697
  22 C :   -0.036432
  23 H :    0.025784
  24 H :    0.037806
  25 C :   -0.037711
  26 H :    0.028789
  27 H :    0.016642
  28 C :   -0.081710
  29 H :    0.036171
  30 H :    0.032260
  31 H :    0.031643
  32 H :    0.029237
  33 H :    0.028039

  Mayer bond orders larger than 0.100000
B(  0-S ,  1-C ) :   1.1092 B(  0-S ,  4-C ) :   1.1736 B(  1-C ,  2-C ) :   1.6370
B(  1-C , 32-H ) :   0.9665 B(  2-C ,  3-C ) :   1.2258 B(  2-C ,  6-C ) :   1.0146
B(  3-C ,  4-C ) :   1.5812 B(  3-C ,  5-H ) :   0.9895 B(  4-C , 20-C ) :   1.0245
B(  6-C ,  7-H ) :   0.9421 B(  6-C ,  8-H ) :   0.9314 B(  6-C ,  9-C ) :   1.0704
B(  9-C , 10-H ) :   0.9569 B(  9-C , 11-H ) :   0.9477 B(  9-C , 12-C ) :   1.0580
B( 12-C , 13-H ) :   0.9763 B( 12-C , 14-H ) :   0.9793 B( 12-C , 15-H ) :   0.9766
B( 16-S , 17-C ) :   1.1734 B( 16-S , 20-C ) :   1.1528 B( 17-C , 18-C ) :   1.6054
B( 17-C , 33-H ) :   0.9647 B( 18-C , 19-C ) :   1.2497 B( 18-C , 21-H ) :   0.9868
B( 19-C , 20-C ) :   1.5691 B( 19-C , 22-C ) :   1.0234 B( 22-C , 23-H ) :   0.9474
B( 22-C , 24-H ) :   0.9339 B( 22-C , 25-C ) :   1.0701 B( 25-C , 26-H ) :   0.9614
B( 25-C , 27-H ) :   0.9657 B( 25-C , 28-C ) :   1.0343 B( 28-C , 29-H ) :   0.9784
B( 28-C , 30-H ) :   0.9765 B( 28-C , 31-H ) :   0.9768

Dispersion correction           -0.014480224
FINAL SINGLE POINT ENERGY     -1339.866874375581

DIPOLE MOMENT
-------------
                                X             Y             Z
Electronic contribution:    -10.61852      27.43704       0.90815
Nuclear contribution   :     10.70988     -28.04935      -0.51577
                        -----------------------------------------
Total Dipole Moment    :      0.09136      -0.61231       0.39238
                        -----------------------------------------
Magnitude (a.u.)       :      0.73296
Magnitude (Debye)      :      1.86303

Rotational constants in cm-1:     0.019775     0.008274     0.006406
Rotational constants in MHz :   592.841191   248.033895   192.055276

                             ****ORCA TERMINATED NORMALLY****
TOTAL RUN TIME: 0 days 0 hours 0 minutes 29 seconds 999 msec
