                         Program Version 4.2.1 -  RELEASE  -
|  1> ! wB97X-D3 SP def2-SVP
|  2> %pal
|  3> nprocs 16
|  4> end
|  5>
|  6> * xyz 0 1
|  7> S 	 40.6684 	 29.5455 	 82.4566
|  8> C 	 39.5763 	 29.4315 	 83.8068
|  9> C 	 39.8275 	 28.318 	 84.5611
| 10> C 	 41.0911 	 27.723 	 84.2401
| 11> C 	 41.7438 	 28.3492 	 83.1741
| 12> H 	 41.6506 	 26.9175 	 84.6893
| 13> C 	 38.9448 	 27.877 	 85.7038
| 14> H 	 39.0266 	 28.5255 	 86.545
| 15> H 	 39.2825 	 26.8804 	 85.9916
| 16> C 	 37.4315 	 27.7395 	 85.3631
| 17> H 	 37.1232 	 28.7874 	 85.1163
| 18> H 	 37.3647 	 27.2629 	 84.4094
| 19> C 	 36.5841 	 27.0566 	 86.4162
| 20> H 	 36.8313 	 25.9941 	 86.5699
| 21> H 	 36.6457 	 27.5418 	 87.4251
| 22> H 	 35.564 	 26.9024 	 86.0813
| 23> S 	 44.0833 	 29.448 	 82.1332
| 24> C 	 45.4116 	 28.4827 	 81.6823
| 25> C 	 45.0809 	 27.1604 	 81.8536
| 26> C 	 43.728 	 26.8962 	 82.3256
| 27> C 	 43.0701 	 28.0533 	 82.6166
| 28> H 	 45.8884 	 26.4953 	 81.599
| 29> C 	 43.0543 	 25.5349 	 82.3488
| 30> H 	 43.0334 	 25.2052 	 81.3009
| 31> H 	 42.0718 	 25.5614 	 82.7001
| 32> C 	 43.7738 	 24.3501 	 83.068
| 33> H 	 44.0921 	 24.6495 	 84.0043
| 34> H 	 44.783 	 24.2334 	 82.6216
| 35> C 	 43.036 	 23.0288 	 83.0459
| 36> H 	 43.5463 	 22.1567 	 82.697
| 37> H 	 42.1815 	 23.1894 	 82.3464
| 38> H 	 42.6567 	 22.8326 	 84.1184
| 39> H 	 38.7322 	 30.0064 	 83.9196
| 40> H 	 46.4198 	 28.7836 	 81.3897
| 41> *
| 42>
| 43>                          ****END OF INPUT****

CARTESIAN COORDINATES (ANGSTROEM)
---------------------------------
  S     40.668400   29.545500   82.456600
  C     39.576300   29.431500   83.806800
  C     39.827500   28.318000   84.561100
  C     41.091100   27.723000   84.240100
  C     41.743800   28.349200   83.174100
  H     41.650600   26.917500   84.689300
  C     38.944800   27.877000   85.703800
  H     39.026600   28.525500   86.545000
  H     39.282500   26.880400   85.991600
  C     37.431500   27.739500   85.363100
  H     37.123200   28.787400   85.116300
  H     37.364700   27.262900   84.409400
  C     36.584100   27.056600   86.416200
  H     36.831300   25.994100   86.569900
  H     36.645700   27.541800   87.425100
  H     35.564000   26.902400   86.081300
  S     44.083300   29.448000   82.133200
  C     45.411600   28.482700   81.682300
  C     45.080900   27.160400   81.853600
  C     43.728000   26.896200   82.325600
  C     43.070100   28.053300   82.616600
  H     45.888400   26.495300   81.599000
  C     43.054300   25.534900   82.348800
  H     43.033400   25.205200   81.300900
  H     42.071800   25.561400   82.700100
  C     43.773800   24.350100   83.068000
  H     44.092100   24.649500   84.004300
  H     44.783000   24.233400   82.621600
  C     43.036000   23.028800   83.045900
  H     43.546300   22.156700   82.697000
  H     42.181500   23.189400   82.346400
  H     42.656700   22.832600   84.118400
  H     38.732200   30.006400   83.919600
  H     46.419800   28.783600   81.389700

 Total Charge           Charge          ....    0
 Multiplicity           Mult            ....    1
 Number of Electrons    NEL             ....  134
 Basis Dimension        Dim             ....  322

ORBITAL ENERGIES
----------------

  NO   OCC          E(Eh)            E(eV)
   0   2.0000     -88.965316     -2420.8693
   1   2.0000     -88.961335     -2420.7610
   2   2.0000     -10.332547      -281.1629
   3   2.0000     -10.329634      -281.0836
   4   2.0000     -10.316791      -280.7342
   5   2.0000     -10.309525      -280.5364
   6   2.0000     -10.306043      -280.4417
   7   2.0000     -10.301567      -280.3199
   8   2.0000     -10.296940      -280.1940
   9   2.0000     -10.294105      -280.1168
  10   2.0000     -10.290899      -280.0296
  11   2.0000     -10.288703      -279.9698
  12   2.0000     -10.288371      -279.9608
  13   2.0000     -10.285815      -279.8913
  14   2.0000     -10.284664      -279.8599
  15   2.0000     -10.280488      -279.7463
  16   2.0000      -8.080014      -219.8684
  17   2.0000      -8.076585      -219.7751
  18   2.0000      -6.038505      -164.3161
  19   2.0000      -6.035170      -164.2253
  20   2.0000      -6.034588      -164.2095
  21   2.0000      -6.030943      -164.1103
  22   2.0000      -6.030738      -164.1047
  23   2.0000      -6.027271      -164.0104
  24   2.0000      -1.007391       -27.4125
  25   2.0000      -0.987270       -26.8650
  26   2.0000      -0.911621       -24.8065
  27   2.0000      -0.910038       -24.7634
  28   2.0000      -0.872414       -23.7396
  29   2.0000      -0.853587       -23.2273
  30   2.0000      -0.844521       -22.9806
  31   2.0000      -0.818031       -22.2598
  32   2.0000      -0.783387       -21.3171
  33   2.0000      -0.774533       -21.0761
  34   2.0000      -0.710521       -19.3343
  35   2.0000      -0.706716       -19.2307
  36   2.0000      -0.698801       -19.0153
  37   2.0000      -0.659338       -17.9415
  38   2.0000      -0.644983       -17.5509
  39   2.0000      -0.616256       -16.7692
  40   2.0000      -0.599178       -16.3045
  41   2.0000      -0.572981       -15.5916
  42   2.0000      -0.563800       -15.3418
  43   2.0000      -0.561442       -15.2776
  44   2.0000      -0.529670       -14.4130
  45   2.0000      -0.525197       -14.2913
  46   2.0000      -0.520780       -14.1711
  47   2.0000      -0.515747       -14.0342
  48   2.0000      -0.505345       -13.7511
  49   2.0000      -0.503459       -13.6998
  50   2.0000      -0.495717       -13.4892
  51   2.0000      -0.479448       -13.0464
  52   2.0000      -0.476722       -12.9723
  53   2.0000      -0.467707       -12.7269
  54   2.0000      -0.464696       -12.6450
  55   2.0000      -0.454389       -12.3646
  56   2.0000      -0.448571       -12.2062
  57   2.0000      -0.433272       -11.7899
  58   2.0000      -0.432028       -11.7561
  59   2.0000      -0.425955       -11.5908
  60   2.0000      -0.416080       -11.3221
  61   2.0000      -0.409987       -11.1563
  62   2.0000      -0.408225       -11.1084
  63   2.0000      -0.352801        -9.6002
  64   2.0000      -0.330575        -8.9954
  65   2.0000      -0.326072        -8.8729
  66   2.0000      -0.293901        -7.9975
  67   0.0000       0.026654         0.7253
  68   0.0000       0.074876         2.0375
  69   0.0000       0.108062         2.9405
  70   0.0000       0.123732         3.3669
  71   0.0000       0.132946         3.6176

MULLIKEN ATOMIC CHARGES
-----------------------
   0 S :    0.113523
   1 C :   -0.090518
   2 C :   -0.076623
   3 C :    0.032767
   4 C :   -0.160771
   5 H :    0.010609
   6 C :    0.086567
   7 H :    0.036717
   8 H :    0.009733
   9 C :   -0.096867
  10 H :    0.026008
  11 H :    0.023481
  12 C :   -0.040874
  13 H :    0.025562
  14 H :    0.044358
  15 H :    0.033369
  16 S :    0.099011
  17 C :   -0.086106
  18 C :   -0.057333
  19 C :    0.000995
  20 C :   -0.164133
  21 H :    0.014536
  22 C :    0.074919
  23 H :    0.039349
  24 H :    0.009569
  25 C :   -0.070962
  26 H :    0.002119
  27 H :    0.016453
  28 C :   -0.056130
  29 H :    0.038191
  30 H :    0.033311
  31 H :    0.048633
  32 H :    0.016991
  33 H :    0.063543
Sum of atomic charges:   -0.0000000

LOEWDIN ATOMIC CHARGES
----------------------
   0 S :    0.404206
   1 C :   -0.183147
   2 C :   -0.060533
   3 C :   -0.062070
   4 C :   -0.185908
   5 H :    0.031395
   6 C :   -0.027099
   7 H :    0.028556
   8 H :    0.026018
   9 C :   -0.043584
  10 H :    0.022946
  11 H :    0.021435
  12 C :   -0.073412
  13 H :    0.028501
  14 H :    0.032597
  15 H :    0.029903
  16 S :    0.401845
  17 C :   -0.196501
  18 C :   -0.078765
  19 C :   -0.051599
  20 C :   -0.186291
  21 H :    0.028083
  22 C :   -0.024038
  23 H :    0.039411
  24 H :    0.017758
  25 C :   -0.047206
  26 H :    0.009284
  27 H :    0.024614
  28 C :   -0.069592
  29 H :    0.023879
  30 H :    0.030972
  31 H :    0.039271
  32 H :    0.010041
  33 H :    0.039029

  Mayer bond orders larger than 0.100000
B(  0-S ,  1-C ) :   1.1366 B(  0-S ,  4-C ) :   1.1552 B(  1-C ,  2-C ) :   1.6025
B(  1-C , 32-H ) :   0.9824 B(  2-C ,  3-C ) :   1.2256 B(  2-C ,  6-C ) :   1.0237
B(  3-C ,  4-C ) :   1.5754 B(  3-C ,  5-H ) :   0.9986 B(  4-C , 20-C ) :   1.0444
B(  6-C ,  7-H ) :   0.9395 B(  6-C ,  8-H ) :   0.9431 B(  6-C ,  9-C ) :   1.0559
B(  9-C , 10-H ) :   0.9520 B(  9-C , 11-H ) :   0.9590 B(  9-C , 12-C ) :   1.0902
B( 12-C , 13-H ) :   0.9692 B( 12-C , 14-H ) :   0.9730 B( 12-C , 15-H ) :   0.9703
B( 16-S , 17-C ) :   1.1533 B( 16-S , 20-C ) :   1.1239 B( 17-C , 18-C ) :   1.6404
B( 17-C , 33-H ) :   0.9642 B( 18-C , 19-C ) :   1.1888 B( 18-C , 21-H ) :   0.9936
B( 19-C , 20-C ) :   1.6123 B( 19-C , 22-C ) :   1.0531 B( 22-C , 23-H ) :   0.9264
B( 22-C , 24-H ) :   0.9345 B( 22-C , 25-C ) :   1.0612 B( 25-C , 26-H ) :   0.9630
B( 25-C , 27-H ) :   0.9506 B( 25-C , 28-C ) :   1.0617 B( 28-C , 29-H ) :   0.9766
B( 28-C , 30-H ) :   0.9778 B( 28-C , 31-H ) :   0.9767

Dispersion correction           -0.013282996
FINAL SINGLE POINT ENERGY     -1339.869879999184

DIPOLE MOMENT
-------------
                                X             Y             Z
Electronic contribution:     13.64250      24.10554     -13.22122
Nuclear contribution   :    -13.71446     -24.76976      13.45050
                        -----------------------------------------
Total Dipole Moment    :     -0.07196      -0.66422       0.22928
                        -----------------------------------------
Magnitude (a.u.)       :      0.70635
Magnitude (Debye)      :      1.79541

Rotational constants in cm-1:     0.018043     0.007989     0.005809
Rotational constants in MHz :   540.916030   239.508125   174.146150

                             ****ORCA TERMINATED NORMALLY****
TOTAL RUN TIME: 0 days 0 hours 0 minutes 28 seconds 586 msec
