                         Program Version 4.2.1 -  RELEASE  -
|  1> ! wB97X-D3 SP def2-SVP
|  2> %pal
|  3> nprocs 16
|  4> end
|  5>
|  6> * xyz 0 1
|  7> S 	 -39.6595 	 -7.75502 	 98.7391
|  8> C 	 -39.9075 	 -7.96049 	 97.0458
|  9> C 	 -40.8451 	 -7.00592 	 96.5296
| 10> C 	 -41.2582 	 -6.12225 	 97.593
| 11> C 	 -40.6518 	 -6.34805 	 98.8214
| 12> H 	 -41.9432 	 -5.24689 	 97.5198
| 13> C 	 -41.153 	 -6.77111 	 95.1138
| 14> H 	 -41.9429 	 -6.02371 	 95.0611
| 15> H 	 -41.613 	 -7.69183 	 94.707
| 16> C 	 -40.0153 	 -6.43859 	 94.1504
| 17> H 	 -40.5847 	 -6.10768 	 93.2904
| 18> H 	 -39.3842 	 -5.63895 	 94.4842
| 19> C 	 -39.1251 	 -7.60892 	 93.6371
| 20> H 	 -39.7499 	 -8.49344 	 93.5021
| 21> H 	 -38.5445 	 -7.30585 	 92.7176
| 22> H 	 -38.3623 	 -7.92323 	 94.3082
| 23> S 	 -39.3027 	 -5.10728 	 100.945
| 24> C 	 -40.151 	 -3.92868 	 101.896
| 25> C 	 -41.5126 	 -3.97533 	 101.677
| 26> C 	 -41.9131 	 -4.97222 	 100.697
| 27> C 	 -40.7726 	 -5.59384 	 100.077
| 28> H 	 -42.0737 	 -3.30984 	 102.222
| 29> C 	 -43.367 	 -5.10355 	 100.239
| 30> H 	 -43.3889 	 -6.0094 	 99.5635
| 31> H 	 -43.7054 	 -4.13415 	 99.7335
| 32> C 	 -44.3737 	 -5.48784 	 101.396
| 33> H 	 -44.4207 	 -4.76708 	 102.204
| 34> H 	 -44.0209 	 -6.48162 	 101.73
| 35> C 	 -45.8077 	 -5.70597 	 100.988
| 36> H 	 -46.1726 	 -4.78659 	 100.563
| 37> H 	 -46.5538 	 -5.99959 	 101.744
| 38> H 	 -45.709 	 -6.42664 	 100.167
| 39> H 	 -39.3352 	 -8.64638 	 96.404
| 40> H 	 -39.8777 	 -3.20505 	 102.623
| 41> *
| 42>
| 43>                          ****END OF INPUT****

CARTESIAN COORDINATES (ANGSTROEM)
---------------------------------
  S    -39.659500   -7.755020   98.739100
  C    -39.907500   -7.960490   97.045800
  C    -40.845100   -7.005920   96.529600
  C    -41.258200   -6.122250   97.593000
  C    -40.651800   -6.348050   98.821400
  H    -41.943200   -5.246890   97.519800
  C    -41.153000   -6.771110   95.113800
  H    -41.942900   -6.023710   95.061100
  H    -41.613000   -7.691830   94.707000
  C    -40.015300   -6.438590   94.150400
  H    -40.584700   -6.107680   93.290400
  H    -39.384200   -5.638950   94.484200
  C    -39.125100   -7.608920   93.637100
  H    -39.749900   -8.493440   93.502100
  H    -38.544500   -7.305850   92.717600
  H    -38.362300   -7.923230   94.308200
  S    -39.302700   -5.107280  100.945000
  C    -40.151000   -3.928680  101.896000
  C    -41.512600   -3.975330  101.677000
  C    -41.913100   -4.972220  100.697000
  C    -40.772600   -5.593840  100.077000
  H    -42.073700   -3.309840  102.222000
  C    -43.367000   -5.103550  100.239000
  H    -43.388900   -6.009400   99.563500
  H    -43.705400   -4.134150   99.733500
  C    -44.373700   -5.487840  101.396000
  H    -44.420700   -4.767080  102.204000
  H    -44.020900   -6.481620  101.730000
  C    -45.807700   -5.705970  100.988000
  H    -46.172600   -4.786590  100.563000
  H    -46.553800   -5.999590  101.744000
  H    -45.709000   -6.426640  100.167000
  H    -39.335200   -8.646380   96.404000
  H    -39.877700   -3.205050  102.623000

 Total Charge           Charge          ....    0
 Multiplicity           Mult            ....    1
 Number of Electrons    NEL             ....  134
 Basis Dimension        Dim             ....  322

ORBITAL ENERGIES
----------------

  NO   OCC          E(Eh)            E(eV)
   0   2.0000     -88.969475     -2420.9825
   1   2.0000     -88.967346     -2420.9246
   2   2.0000     -10.336234      -281.2632
   3   2.0000     -10.329698      -281.0854
   4   2.0000     -10.317422      -280.7513
   5   2.0000     -10.314616      -280.6750
   6   2.0000     -10.314352      -280.6678
   7   2.0000     -10.306746      -280.4608
   8   2.0000     -10.304971      -280.4125
   9   2.0000     -10.299003      -280.2501
  10   2.0000     -10.292147      -280.0636
  11   2.0000     -10.289146      -279.9819
  12   2.0000     -10.286911      -279.9211
  13   2.0000     -10.286533      -279.9108
  14   2.0000     -10.283285      -279.8224
  15   2.0000     -10.275120      -279.6002
  16   2.0000      -8.083590      -219.9657
  17   2.0000      -8.082743      -219.9426
  18   2.0000      -6.042254      -164.4181
  19   2.0000      -6.041122      -164.3873
  20   2.0000      -6.038062      -164.3040
  21   2.0000      -6.036972      -164.2744
  22   2.0000      -6.034333      -164.2026
  23   2.0000      -6.033803      -164.1881
  24   2.0000      -1.004037       -27.3212
  25   2.0000      -0.981099       -26.6971
  26   2.0000      -0.916072       -24.9276
  27   2.0000      -0.904709       -24.6184
  28   2.0000      -0.866759       -23.5857
  29   2.0000      -0.853186       -23.2164
  30   2.0000      -0.847212       -23.0538
  31   2.0000      -0.815321       -22.1860
  32   2.0000      -0.785846       -21.3840
  33   2.0000      -0.767155       -20.8753
  34   2.0000      -0.709183       -19.2979
  35   2.0000      -0.698205       -18.9991
  36   2.0000      -0.688609       -18.7380
  37   2.0000      -0.654580       -17.8120
  38   2.0000      -0.639579       -17.4038
  39   2.0000      -0.618516       -16.8307
  40   2.0000      -0.589404       -16.0385
  41   2.0000      -0.578130       -15.7317
  42   2.0000      -0.571857       -15.5610
  43   2.0000      -0.548219       -14.9178
  44   2.0000      -0.539184       -14.6719
  45   2.0000      -0.525056       -14.2875
  46   2.0000      -0.520260       -14.1570
  47   2.0000      -0.514167       -13.9912
  48   2.0000      -0.506215       -13.7748
  49   2.0000      -0.496024       -13.4975
  50   2.0000      -0.490732       -13.3535
  51   2.0000      -0.481751       -13.1091
  52   2.0000      -0.470328       -12.7983
  53   2.0000      -0.460852       -12.5404
  54   2.0000      -0.456754       -12.4289
  55   2.0000      -0.453149       -12.3308
  56   2.0000      -0.447800       -12.1853
  57   2.0000      -0.438343       -11.9279
  58   2.0000      -0.428035       -11.6474
  59   2.0000      -0.422927       -11.5084
  60   2.0000      -0.420583       -11.4446
  61   2.0000      -0.416822       -11.3423
  62   2.0000      -0.410303       -11.1649
  63   2.0000      -0.347682        -9.4609
  64   2.0000      -0.330114        -8.9829
  65   2.0000      -0.327110        -8.9011
  66   2.0000      -0.287688        -7.8284
  67   0.0000       0.024224         0.6592
  68   0.0000       0.070093         1.9073
  69   0.0000       0.109698         2.9850
  70   0.0000       0.120739         3.2855
  71   0.0000       0.127477         3.4688

MULLIKEN ATOMIC CHARGES
-----------------------
   0 S :    0.124221
   1 C :   -0.132840
   2 C :   -0.086471
   3 C :    0.008260
   4 C :   -0.166227
   5 H :    0.026955
   6 C :    0.053890
   7 H :    0.019717
   8 H :    0.029180
   9 C :   -0.043936
  10 H :    0.028172
  11 H :    0.033875
  12 C :   -0.073566
  13 H :    0.026824
  14 H :    0.048184
  15 H :    0.028485
  16 S :    0.116907
  17 C :   -0.063556
  18 C :   -0.029494
  19 C :   -0.011987
  20 C :   -0.143235
  21 H :   -0.011666
  22 C :   -0.000271
  23 H :    0.044414
  24 H :    0.055767
  25 C :   -0.094922
  26 H :    0.028058
  27 H :    0.034555
  28 C :   -0.029579
  29 H :    0.012546
  30 H :    0.049613
  31 H :    0.020494
  32 H :    0.056546
  33 H :    0.041087
Sum of atomic charges:   -0.0000000

LOEWDIN ATOMIC CHARGES
----------------------
   0 S :    0.434481
   1 C :   -0.215220
   2 C :   -0.062481
   3 C :   -0.068609
   4 C :   -0.210861
   5 H :    0.037583
   6 C :   -0.040021
   7 H :    0.032226
   8 H :    0.037424
   9 C :   -0.032878
  10 H :    0.028653
  11 H :    0.023325
  12 C :   -0.070103
  13 H :    0.023113
  14 H :    0.037686
  15 H :    0.016120
  16 S :    0.406927
  17 C :   -0.187530
  18 C :   -0.062277
  19 C :   -0.048979
  20 C :   -0.199301
  21 H :    0.016370
  22 C :   -0.040667
  23 H :    0.037904
  24 H :    0.037636
  25 C :   -0.043164
  26 H :    0.016149
  27 H :    0.028139
  28 C :   -0.067718
  29 H :    0.017791
  30 H :    0.032410
  31 H :    0.024629
  32 H :    0.030083
  33 H :    0.031157

  Mayer bond orders larger than 0.100000
B(  0-S ,  1-C ) :   1.1660 B(  0-S ,  4-C ) :   1.1713 B(  1-C ,  2-C ) :   1.5496
B(  1-C ,  4-C ) :   0.1023 B(  1-C , 32-H ) :   0.9658 B(  2-C ,  3-C ) :   1.2720
B(  2-C ,  6-C ) :   1.0443 B(  3-C ,  4-C ) :   1.5540 B(  3-C ,  5-H ) :   0.9859
B(  4-C , 20-C ) :   1.0367 B(  6-C ,  7-H ) :   0.9403 B(  6-C ,  8-H ) :   0.9236
B(  6-C ,  9-C ) :   1.0741 B(  9-C , 10-H ) :   0.9523 B(  9-C , 11-H ) :   0.9581
B(  9-C , 12-C ) :   1.0744 B( 12-C , 13-H ) :   0.9749 B( 12-C , 14-H ) :   0.9716
B( 12-C , 15-H ) :   0.9733 B( 16-S , 17-C ) :   1.1451 B( 16-S , 20-C ) :   1.1340
B( 17-C , 18-C ) :   1.6436 B( 17-C , 33-H ) :   0.9655 B( 18-C , 19-C ) :   1.2187
B( 18-C , 21-H ) :   0.9999 B( 19-C , 20-C ) :   1.5619 B( 19-C , 22-C ) :   1.0514
B( 22-C , 23-H ) :   0.9340 B( 22-C , 24-H ) :   0.9385 B( 22-C , 25-C ) :   1.0511
B( 25-C , 26-H ) :   0.9594 B( 25-C , 27-H ) :   0.9582 B( 25-C , 28-C ) :   1.0842
B( 28-C , 29-H ) :   0.9713 B( 28-C , 30-H ) :   0.9738 B( 28-C , 31-H ) :   0.9731

Dispersion correction           -0.013584353
FINAL SINGLE POINT ENERGY     -1339.867001789625

DIPOLE MOMENT
-------------
                                X             Y             Z
Electronic contribution:     17.55041      -0.56060      15.30126
Nuclear contribution   :    -17.97213       0.92176     -15.65681
                        -----------------------------------------
Total Dipole Moment    :     -0.42172       0.36116      -0.35555
                        -----------------------------------------
Magnitude (a.u.)       :      0.65932
Magnitude (Debye)      :      1.67586

Rotational constants in cm-1:     0.019824     0.007426     0.006087
Rotational constants in MHz :   594.300802   222.624168   182.483218

                             ****ORCA TERMINATED NORMALLY****
TOTAL RUN TIME: 0 days 0 hours 0 minutes 28 seconds 608 msec
