                         Program Version 4.2.1 -  RELEASE  -
|  1> ! wB97X-D3 SP def2-SVP
|  2> %pal
|  3> nprocs 16
|  4> end
|  5>
|  6> * xyz 0 1
|  7> S 	 -71.3659 	 48.3886 	 134.047
|  8> C 	 -70.8015 	 48.2252 	 135.744
|  9> C 	 -71.8647 	 48.4035 	 136.654
| 10> C 	 -73.1171 	 48.5872 	 135.914
| 11> C 	 -73.0166 	 48.6992 	 134.58
| 12> H 	 -74.0933 	 48.7822 	 136.458
| 13> C 	 -71.7288 	 48.42 	 138.168
| 14> H 	 -72.538 	 48.9667 	 138.492
| 15> H 	 -70.8385 	 49.1068 	 138.296
| 16> C 	 -71.3231 	 47.1587 	 138.962
| 17> H 	 -71.7709 	 46.2649 	 138.563
| 18> H 	 -70.1885 	 47.1305 	 139.036
| 19> C 	 -71.7768 	 47.3007 	 140.423
| 20> H 	 -71.4719 	 46.4543 	 140.966
| 21> H 	 -71.4085 	 48.2741 	 140.847
| 22> H 	 -72.8293 	 47.3368 	 140.691
| 23> S 	 -74.446 	 47.4992 	 132.561
| 24> C 	 -75.8089 	 48.3278 	 131.929
| 25> C 	 -76.1551 	 49.5709 	 132.519
| 26> C 	 -75.1887 	 49.8353 	 133.598
| 27> C 	 -74.1719 	 48.8911 	 133.671
| 28> H 	 -77.0513 	 50.1609 	 132.295
| 29> C 	 -75.3826 	 51.1904 	 134.348
| 30> H 	 -75.5735 	 51.9114 	 133.505
| 31> H 	 -74.3959 	 51.3903 	 134.694
| 32> C 	 -76.3465 	 51.3189 	 135.491
| 33> H 	 -76.0027 	 50.6396 	 136.261
| 34> H 	 -77.3166 	 50.9602 	 135.15
| 35> C 	 -76.4091 	 52.7526 	 136.088
| 36> H 	 -75.4144 	 53.0074 	 136.529
| 37> H 	 -77.1474 	 52.9118 	 136.828
| 38> H 	 -76.6732 	 53.3642 	 135.241
| 39> H 	 -69.7636 	 48.1729 	 136.11
| 40> H 	 -76.4407 	 47.9079 	 131.166
| 41> *
| 42>
| 43>                          ****END OF INPUT****

CARTESIAN COORDINATES (ANGSTROEM)
---------------------------------
  S    -71.365900   48.388600  134.047000
  C    -70.801500   48.225200  135.744000
  C    -71.864700   48.403500  136.654000
  C    -73.117100   48.587200  135.914000
  C    -73.016600   48.699200  134.580000
  H    -74.093300   48.782200  136.458000
  C    -71.728800   48.420000  138.168000
  H    -72.538000   48.966700  138.492000
  H    -70.838500   49.106800  138.296000
  C    -71.323100   47.158700  138.962000
  H    -71.770900   46.264900  138.563000
  H    -70.188500   47.130500  139.036000
  C    -71.776800   47.300700  140.423000
  H    -71.471900   46.454300  140.966000
  H    -71.408500   48.274100  140.847000
  H    -72.829300   47.336800  140.691000
  S    -74.446000   47.499200  132.561000
  C    -75.808900   48.327800  131.929000
  C    -76.155100   49.570900  132.519000
  C    -75.188700   49.835300  133.598000
  C    -74.171900   48.891100  133.671000
  H    -77.051300   50.160900  132.295000
  C    -75.382600   51.190400  134.348000
  H    -75.573500   51.911400  133.505000
  H    -74.395900   51.390300  134.694000
  C    -76.346500   51.318900  135.491000
  H    -76.002700   50.639600  136.261000
  H    -77.316600   50.960200  135.150000
  C    -76.409100   52.752600  136.088000
  H    -75.414400   53.007400  136.529000
  H    -77.147400   52.911800  136.828000
  H    -76.673200   53.364200  135.241000
  H    -69.763600   48.172900  136.110000
  H    -76.440700   47.907900  131.166000

 Total Charge           Charge          ....    0
 Multiplicity           Mult            ....    1
 Number of Electrons    NEL             ....  134
 Basis Dimension        Dim             ....  322

ORBITAL ENERGIES
----------------

  NO   OCC          E(Eh)            E(eV)
   0   2.0000     -88.968160     -2420.9467
   1   2.0000     -88.967106     -2420.9180
   2   2.0000     -10.331866      -281.1444
   3   2.0000     -10.328180      -281.0441
   4   2.0000     -10.320214      -280.8273
   5   2.0000     -10.318650      -280.7847
   6   2.0000     -10.311794      -280.5982
   7   2.0000     -10.306426      -280.4521
   8   2.0000     -10.300409      -280.2884
   9   2.0000     -10.297139      -280.1994
  10   2.0000     -10.296412      -280.1796
  11   2.0000     -10.292883      -280.0836
  12   2.0000     -10.292237      -280.0660
  13   2.0000     -10.287315      -279.9321
  14   2.0000     -10.280932      -279.7584
  15   2.0000     -10.278069      -279.6805
  16   2.0000      -8.082780      -219.9436
  17   2.0000      -8.080713      -219.8874
  18   2.0000      -6.041152      -164.3881
  19   2.0000      -6.039466      -164.3422
  20   2.0000      -6.037507      -164.2889
  21   2.0000      -6.035446      -164.2328
  22   2.0000      -6.033477      -164.1793
  23   2.0000      -6.031203      -164.1174
  24   2.0000      -0.997867       -27.1533
  25   2.0000      -0.974613       -26.5206
  26   2.0000      -0.911316       -24.7982
  27   2.0000      -0.909960       -24.7613
  28   2.0000      -0.863401       -23.4943
  29   2.0000      -0.851915       -23.1818
  30   2.0000      -0.843327       -22.9481
  31   2.0000      -0.809242       -22.0206
  32   2.0000      -0.783680       -21.3250
  33   2.0000      -0.771105       -20.9828
  34   2.0000      -0.707520       -19.2526
  35   2.0000      -0.704327       -19.1657
  36   2.0000      -0.686781       -18.6883
  37   2.0000      -0.662493       -18.0273
  38   2.0000      -0.634253       -17.2589
  39   2.0000      -0.611568       -16.6416
  40   2.0000      -0.590348       -16.0642
  41   2.0000      -0.571609       -15.5543
  42   2.0000      -0.563640       -15.3374
  43   2.0000      -0.561718       -15.2851
  44   2.0000      -0.531694       -14.4681
  45   2.0000      -0.526808       -14.3352
  46   2.0000      -0.518211       -14.1012
  47   2.0000      -0.512626       -13.9493
  48   2.0000      -0.500761       -13.6264
  49   2.0000      -0.494320       -13.4511
  50   2.0000      -0.481803       -13.1105
  51   2.0000      -0.478288       -13.0149
  52   2.0000      -0.469263       -12.7693
  53   2.0000      -0.463079       -12.6010
  54   2.0000      -0.458437       -12.4747
  55   2.0000      -0.450399       -12.2560
  56   2.0000      -0.443164       -12.0591
  57   2.0000      -0.441473       -12.0131
  58   2.0000      -0.436781       -11.8854
  59   2.0000      -0.422736       -11.5032
  60   2.0000      -0.418728       -11.3942
  61   2.0000      -0.417016       -11.3476
  62   2.0000      -0.412853       -11.2343
  63   2.0000      -0.341198        -9.2845
  64   2.0000      -0.332932        -9.0595
  65   2.0000      -0.324267        -8.8237
  66   2.0000      -0.296014        -8.0550
  67   0.0000       0.036462         0.9922
  68   0.0000       0.061073         1.6619
  69   0.0000       0.105308         2.8656
  70   0.0000       0.113151         3.0790
  71   0.0000       0.120113         3.2684

MULLIKEN ATOMIC CHARGES
-----------------------
   0 S :    0.104182
   1 C :   -0.124024
   2 C :   -0.124162
   3 C :    0.013397
   4 C :   -0.144893
   5 H :    0.033921
   6 C :    0.069911
   7 H :    0.001236
   8 H :    0.036022
   9 C :   -0.035007
  10 H :    0.040898
  11 H :    0.045452
  12 C :   -0.070799
  13 H :    0.025169
  14 H :    0.030122
  15 H :    0.027031
  16 S :    0.115336
  17 C :   -0.079208
  18 C :   -0.047174
  19 C :   -0.044865
  20 C :   -0.164913
  21 H :    0.035391
  22 C :    0.034895
  23 H :    0.034287
  24 H :    0.011562
  25 C :   -0.039890
  26 H :    0.021299
  27 H :    0.019594
  28 C :   -0.031940
  29 H :    0.041018
  30 H :    0.031265
  31 H :    0.027179
  32 H :    0.055674
  33 H :    0.052033
Sum of atomic charges:    0.0000000

LOEWDIN ATOMIC CHARGES
----------------------
   0 S :    0.379310
   1 C :   -0.192139
   2 C :   -0.060031
   3 C :   -0.072586
   4 C :   -0.201096
   5 H :    0.039290
   6 C :   -0.037102
   7 H :    0.017150
   8 H :    0.045812
   9 C :   -0.031941
  10 H :    0.024236
  11 H :    0.036906
  12 C :   -0.070788
  13 H :    0.019742
  14 H :    0.028616
  15 H :    0.023119
  16 S :    0.404541
  17 C :   -0.186350
  18 C :   -0.076669
  19 C :   -0.045217
  20 C :   -0.187092
  21 H :    0.036515
  22 C :   -0.032943
  23 H :    0.035591
  24 H :    0.023765
  25 C :   -0.039023
  26 H :    0.021232
  27 H :    0.020271
  28 C :   -0.057205
  29 H :    0.032522
  30 H :    0.020945
  31 H :    0.024486
  32 H :    0.033757
  33 H :    0.022375

  Mayer bond orders larger than 0.100000
B(  0-S ,  1-C ) :   1.1204 B(  0-S ,  4-C ) :   1.1285 B(  1-C ,  2-C ) :   1.6327
B(  1-C , 32-H ) :   0.9647 B(  2-C ,  3-C ) :   1.2177 B(  2-C ,  6-C ) :   1.0215
B(  3-C ,  4-C ) :   1.6245 B(  3-C ,  5-H ) :   0.9783 B(  4-C , 20-C ) :   1.0042
B(  6-C ,  7-H ) :   0.9475 B(  6-C ,  8-H ) :   0.9341 B(  6-C ,  9-C ) :   1.0452
B(  9-C , 10-H ) :   0.9636 B(  9-C , 11-H ) :   0.9545 B(  9-C , 12-C ) :   1.0779
B( 12-C , 13-H ) :   0.9738 B( 12-C , 14-H ) :   0.9741 B( 12-C , 15-H ) :   0.9770
B( 16-S , 17-C ) :   1.1718 B( 16-S , 20-C ) :   1.1220 B( 17-C , 18-C ) :   1.6173
B( 17-C , 33-H ) :   0.9646 B( 18-C , 19-C ) :   1.2115 B( 18-C , 21-H ) :   0.9848
B( 19-C , 20-C ) :   1.6579 B( 19-C , 22-C ) :   1.0207 B( 22-C , 23-H ) :   0.9424
B( 22-C , 24-H ) :   0.9335 B( 22-C , 25-C ) :   1.0684 B( 25-C , 26-H ) :   0.9492
B( 25-C , 27-H ) :   0.9536 B( 25-C , 28-C ) :   1.0776 B( 28-C , 29-H ) :   0.9754
B( 28-C , 30-H ) :   0.9757 B( 28-C , 31-H ) :   0.9763

Dispersion correction           -0.013360877
FINAL SINGLE POINT ENERGY     -1339.857588429154

DIPOLE MOMENT
-------------
                                X             Y             Z
Electronic contribution:      5.85381     -11.50690     -27.31005
Nuclear contribution   :     -6.18396      11.79855      27.97201
                        -----------------------------------------
Total Dipole Moment    :     -0.33015       0.29165       0.66195
                        -----------------------------------------
Magnitude (a.u.)       :      0.79514
Magnitude (Debye)      :      2.02108

Rotational constants in cm-1:     0.016372     0.008055     0.006130
Rotational constants in MHz :   490.832735   241.488049   183.770939

                             ****ORCA TERMINATED NORMALLY****
TOTAL RUN TIME: 0 days 0 hours 0 minutes 33 seconds 126 msec
