                         Program Version 4.2.1 -  RELEASE  -
|  1> ! wB97X-D3 SP def2-SVP
|  2> %pal
|  3> nprocs 16
|  4> end
|  5>
|  6> * xyz 0 1
|  7> S 	 -99.51 	 39.5764 	 121.017
|  8> C 	 -98.5116 	 38.2321 	 121.67
|  9> C 	 -97.7381 	 38.6808 	 122.733
| 10> C 	 -97.9287 	 40.0579 	 123.045
| 11> C 	 -98.9055 	 40.633 	 122.315
| 12> H 	 -97.561 	 40.6838 	 123.825
| 13> C 	 -96.8139 	 37.8466 	 123.63
| 14> H 	 -95.7569 	 37.9817 	 123.323
| 15> H 	 -97.0911 	 36.7381 	 123.401
| 16> C 	 -97.013 	 38.1861 	 125.209
| 17> H 	 -96.5617 	 39.1225 	 125.39
| 18> H 	 -98.0447 	 38.251 	 125.506
| 19> C 	 -96.3056 	 37.1514 	 126.018
| 20> H 	 -96.488 	 37.3079 	 127.069
| 21> H 	 -96.6564 	 36.2029 	 125.684
| 22> H 	 -95.1806 	 37.2435 	 125.778
| 23> S 	 -98.3867 	 43.4372 	 121.953
| 24> C 	 -99.7821 	 44.4386 	 122.341
| 25> C 	 -100.837 	 43.7548 	 122.91
| 26> C 	 -100.625 	 42.3324 	 122.892
| 27> C 	 -99.3909 	 42.0323 	 122.378
| 28> H 	 -101.736 	 44.3102 	 123.217
| 29> C 	 -101.719 	 41.3564 	 123.388
| 30> H 	 -101.905 	 41.8846 	 124.301
| 31> H 	 -101.282 	 40.3655 	 123.594
| 32> C 	 -103.006 	 41.3689 	 122.51
| 33> H 	 -102.76 	 40.9746 	 121.539
| 34> H 	 -103.244 	 42.388 	 122.351
| 35> C 	 -104.169 	 40.6253 	 123.241
| 36> H 	 -104.606 	 41.1385 	 124.1
| 37> H 	 -104.061 	 39.6614 	 123.586
| 38> H 	 -105.088 	 40.5964 	 122.596
| 39> H 	 -98.6154 	 37.1961 	 121.433
| 40> H 	 -99.7693 	 45.4951 	 122.233
| 41> *
| 42>
| 43>                          ****END OF INPUT****

CARTESIAN COORDINATES (ANGSTROEM)
---------------------------------
  S    -99.510000   39.576400  121.017000
  C    -98.511600   38.232100  121.670000
  C    -97.738100   38.680800  122.733000
  C    -97.928700   40.057900  123.045000
  C    -98.905500   40.633000  122.315000
  H    -97.561000   40.683800  123.825000
  C    -96.813900   37.846600  123.630000
  H    -95.756900   37.981700  123.323000
  H    -97.091100   36.738100  123.401000
  C    -97.013000   38.186100  125.209000
  H    -96.561700   39.122500  125.390000
  H    -98.044700   38.251000  125.506000
  C    -96.305600   37.151400  126.018000
  H    -96.488000   37.307900  127.069000
  H    -96.656400   36.202900  125.684000
  H    -95.180600   37.243500  125.778000
  S    -98.386700   43.437200  121.953000
  C    -99.782100   44.438600  122.341000
  C    -100.837000   43.754800  122.910000
  C    -100.625000   42.332400  122.892000
  C    -99.390900   42.032300  122.378000
  H    -101.736000   44.310200  123.217000
  C    -101.719000   41.356400  123.388000
  H    -101.905000   41.884600  124.301000
  H    -101.282000   40.365500  123.594000
  C    -103.006000   41.368900  122.510000
  H    -102.760000   40.974600  121.539000
  H    -103.244000   42.388000  122.351000
  C    -104.169000   40.625300  123.241000
  H    -104.606000   41.138500  124.100000
  H    -104.061000   39.661400  123.586000
  H    -105.088000   40.596400  122.596000
  H    -98.615400   37.196100  121.433000
  H    -99.769300   45.495100  122.233000

 Total Charge           Charge          ....    0
 Multiplicity           Mult            ....    1
 Number of Electrons    NEL             ....  134
 Basis Dimension        Dim             ....  322

ORBITAL ENERGIES
----------------

  NO   OCC          E(Eh)            E(eV)
   0   2.0000     -88.969350     -2420.9791
   1   2.0000     -88.961969     -2420.7782
   2   2.0000     -10.323782      -280.9244
   3   2.0000     -10.322059      -280.8775
   4   2.0000     -10.317669      -280.7581
   5   2.0000     -10.313560      -280.6462
   6   2.0000     -10.306644      -280.4580
   7   2.0000     -10.302812      -280.3538
   8   2.0000     -10.302266      -280.3389
   9   2.0000     -10.296952      -280.1943
  10   2.0000     -10.292100      -280.0623
  11   2.0000     -10.289060      -279.9796
  12   2.0000     -10.284965      -279.8681
  13   2.0000     -10.284861      -279.8653
  14   2.0000     -10.277844      -279.6744
  15   2.0000     -10.276326      -279.6331
  16   2.0000      -8.083364      -219.9595
  17   2.0000      -8.075425      -219.7435
  18   2.0000      -6.041895      -164.4083
  19   2.0000      -6.038251      -164.3092
  20   2.0000      -6.034094      -164.1960
  21   2.0000      -6.033879      -164.1902
  22   2.0000      -6.030212      -164.0904
  23   2.0000      -6.026007      -163.9760
  24   2.0000      -1.000495       -27.2249
  25   2.0000      -0.977818       -26.6078
  26   2.0000      -0.905123       -24.6297
  27   2.0000      -0.903416       -24.5832
  28   2.0000      -0.866495       -23.5785
  29   2.0000      -0.848677       -23.0937
  30   2.0000      -0.845085       -22.9959
  31   2.0000      -0.813903       -22.1474
  32   2.0000      -0.782380       -21.2897
  33   2.0000      -0.762875       -20.7589
  34   2.0000      -0.712919       -19.3995
  35   2.0000      -0.702563       -19.1177
  36   2.0000      -0.689827       -18.7711
  37   2.0000      -0.662071       -18.0159
  38   2.0000      -0.638365       -17.3708
  39   2.0000      -0.610260       -16.6060
  40   2.0000      -0.593052       -16.1378
  41   2.0000      -0.571068       -15.5396
  42   2.0000      -0.560811       -15.2604
  43   2.0000      -0.556446       -15.1417
  44   2.0000      -0.528205       -14.3732
  45   2.0000      -0.521617       -14.1939
  46   2.0000      -0.511872       -13.9287
  47   2.0000      -0.509084       -13.8529
  48   2.0000      -0.505659       -13.7597
  49   2.0000      -0.493702       -13.4343
  50   2.0000      -0.487745       -13.2722
  51   2.0000      -0.471353       -12.8262
  52   2.0000      -0.468147       -12.7389
  53   2.0000      -0.462646       -12.5892
  54   2.0000      -0.455890       -12.4054
  55   2.0000      -0.453070       -12.3287
  56   2.0000      -0.442470       -12.0402
  57   2.0000      -0.437905       -11.9160
  58   2.0000      -0.431970       -11.7545
  59   2.0000      -0.427592       -11.6354
  60   2.0000      -0.425437       -11.5767
  61   2.0000      -0.418261       -11.3815
  62   2.0000      -0.415011       -11.2930
  63   2.0000      -0.335825        -9.1383
  64   2.0000      -0.332826        -9.0566
  65   2.0000      -0.323049        -8.7906
  66   2.0000      -0.304233        -8.2786
  67   0.0000       0.042476         1.1558
  68   0.0000       0.061485         1.6731
  69   0.0000       0.106419         2.8958
  70   0.0000       0.112585         3.0636
  71   0.0000       0.132968         3.6182

MULLIKEN ATOMIC CHARGES
-----------------------
   0 S :    0.090906
   1 C :   -0.117868
   2 C :   -0.062354
   3 C :    0.042909
   4 C :   -0.195470
   5 H :    0.005125
   6 C :    0.002668
   7 H :    0.053337
   8 H :    0.031532
   9 C :   -0.081173
  10 H :    0.027484
  11 H :    0.035601
  12 C :   -0.026572
  13 H :    0.037360
  14 H :    0.021267
  15 H :    0.036168
  16 S :    0.121049
  17 C :   -0.085821
  18 C :   -0.041183
  19 C :   -0.045325
  20 C :   -0.170647
  21 H :    0.031858
  22 C :    0.085366
  23 H :    0.020768
  24 H :    0.044471
  25 C :   -0.016748
  26 H :    0.030976
  27 H :    0.013940
  28 C :   -0.038874
  29 H :    0.019942
  30 H :    0.019125
  31 H :    0.027892
  32 H :    0.038549
  33 H :    0.043740
Sum of atomic charges:   -0.0000000

LOEWDIN ATOMIC CHARGES
----------------------
   0 S :    0.366513
   1 C :   -0.188254
   2 C :   -0.061335
   3 C :   -0.068238
   4 C :   -0.167587
   5 H :    0.031805
   6 C :   -0.033153
   7 H :    0.035833
   8 H :    0.033655
   9 C :   -0.034614
  10 H :    0.016620
  11 H :    0.023464
  12 C :   -0.061586
  13 H :    0.024362
  14 H :    0.018029
  15 H :    0.034528
  16 S :    0.385835
  17 C :   -0.168500
  18 C :   -0.075331
  19 C :   -0.047830
  20 C :   -0.207610
  21 H :    0.036402
  22 C :   -0.024473
  23 H :    0.030279
  24 H :    0.032020
  25 C :   -0.023842
  26 H :    0.024351
  27 H :    0.020389
  28 C :   -0.069056
  29 H :    0.026841
  30 H :    0.014011
  31 H :    0.032473
  32 H :    0.023552
  33 H :    0.020447

  Mayer bond orders larger than 0.100000
B(  0-S ,  1-C ) :   1.1105 B(  0-S ,  4-C ) :   1.1322 B(  1-C ,  2-C ) :   1.6569
B(  1-C , 32-H ) :   0.9686 B(  2-C ,  3-C ) :   1.1790 B(  2-C ,  6-C ) :   1.0165
B(  3-C ,  4-C ) :   1.6570 B(  3-C ,  5-H ) :   0.9936 B(  4-C , 20-C ) :   1.0044
B(  6-C ,  7-H ) :   0.9383 B(  6-C ,  8-H ) :   0.9520 B(  6-C ,  9-C ) :   1.0480
B(  9-C , 10-H ) :   0.9485 B(  9-C , 11-H ) :   0.9618 B(  9-C , 12-C ) :   1.0949
B( 12-C , 13-H ) :   0.9721 B( 12-C , 14-H ) :   0.9755 B( 12-C , 15-H ) :   0.9723
B( 16-S , 17-C ) :   1.1434 B( 16-S , 20-C ) :   1.1159 B( 17-C , 18-C ) :   1.6502
B( 17-C , 33-H ) :   0.9681 B( 18-C , 19-C ) :   1.2106 B( 18-C , 21-H ) :   0.9820
B( 19-C , 20-C ) :   1.6396 B( 19-C , 22-C ) :   1.0168 B( 22-C , 23-H ) :   0.9333
B( 22-C , 24-H ) :   0.9330 B( 22-C , 25-C ) :   1.0616 B( 25-C , 26-H ) :   0.9553
B( 25-C , 27-H ) :   0.9547 B( 25-C , 28-C ) :   1.0719 B( 28-C , 29-H ) :   0.9741
B( 28-C , 30-H ) :   0.9800 B( 28-C , 31-H ) :   0.9738

Dispersion correction           -0.014248253
FINAL SINGLE POINT ENERGY     -1339.866829535156

DIPOLE MOMENT
-------------
                                X             Y             Z
Electronic contribution:      7.07893      14.09798     -17.15585
Nuclear contribution   :     -7.32113     -14.12547      17.76780
                        -----------------------------------------
Total Dipole Moment    :     -0.24220      -0.02749       0.61194
                        -----------------------------------------
Magnitude (a.u.)       :      0.65870
Magnitude (Debye)      :      1.67429

Rotational constants in cm-1:     0.017141     0.008155     0.007032
Rotational constants in MHz :   513.885558   244.495354   210.804835

                             ****ORCA TERMINATED NORMALLY****
TOTAL RUN TIME: 0 days 0 hours 0 minutes 32 seconds 906 msec
