                         Program Version 4.2.1 -  RELEASE  -
|  1> ! wB97X-D3 SP def2-SVP
|  2> %pal
|  3> nprocs 16
|  4> end
|  5>
|  6> * xyz 0 1
|  7> S 	 8.74077 	 -19.3323 	 79.133
|  8> C 	 9.22242 	 -19.59 	 80.7913
|  9> C 	 9.29652 	 -18.4159 	 81.468
| 10> C 	 8.88491 	 -17.2757 	 80.6806
| 11> C 	 8.6731 	 -17.5947 	 79.345
| 12> H 	 8.66902 	 -16.3096 	 81.0053
| 13> C 	 9.44737 	 -18.3705 	 82.958
| 14> H 	 9.98059 	 -17.4554 	 83.151
| 15> H 	 10.0736 	 -19.1526 	 83.4351
| 16> C 	 8.0818 	 -18.3743 	 83.752
| 17> H 	 7.55373 	 -17.4206 	 83.7881
| 18> H 	 7.46126 	 -19.0525 	 83.0954
| 19> C 	 8.10422 	 -18.9069 	 85.2128
| 20> H 	 8.51904 	 -19.9486 	 85.266
| 21> H 	 8.7021 	 -18.3347 	 85.8957
| 22> H 	 7.16452 	 -18.9299 	 85.631
| 23> S 	 6.68814 	 -17.3399 	 77.5115
| 24> C 	 6.56372 	 -15.8762 	 76.582
| 25> C 	 7.59485 	 -14.9766 	 76.8484
| 26> C 	 8.51625 	 -15.4693 	 77.848
| 27> C 	 8.21406 	 -16.7629 	 78.2919
| 28> H 	 7.70414 	 -14.1041 	 76.2288
| 29> C 	 9.80225 	 -14.5938 	 78.2144
| 30> H 	 10.2401 	 -14.2673 	 77.2772
| 31> H 	 10.5733 	 -15.0834 	 78.7517
| 32> C 	 9.54148 	 -13.3212 	 78.9601
| 33> H 	 8.69598 	 -13.4704 	 79.6042
| 34> H 	 9.15225 	 -12.6037 	 78.2401
| 35> C 	 10.7586 	 -12.7285 	 79.6799
| 36> H 	 11.4947 	 -12.377 	 79.0008
| 37> H 	 11.1815 	 -13.4642 	 80.3605
| 38> H 	 10.4038 	 -11.798 	 80.1876
| 39> H 	 9.17408 	 -20.4979 	 81.3455
| 40> H 	 5.80772 	 -15.8188 	 75.7533
| 41> *
| 42>
| 43>                          ****END OF INPUT****

CARTESIAN COORDINATES (ANGSTROEM)
---------------------------------
  S      8.740770  -19.332300   79.133000
  C      9.222420  -19.590000   80.791300
  C      9.296520  -18.415900   81.468000
  C      8.884910  -17.275700   80.680600
  C      8.673100  -17.594700   79.345000
  H      8.669020  -16.309600   81.005300
  C      9.447370  -18.370500   82.958000
  H      9.980590  -17.455400   83.151000
  H     10.073600  -19.152600   83.435100
  C      8.081800  -18.374300   83.752000
  H      7.553730  -17.420600   83.788100
  H      7.461260  -19.052500   83.095400
  C      8.104220  -18.906900   85.212800
  H      8.519040  -19.948600   85.266000
  H      8.702100  -18.334700   85.895700
  H      7.164520  -18.929900   85.631000
  S      6.688140  -17.339900   77.511500
  C      6.563720  -15.876200   76.582000
  C      7.594850  -14.976600   76.848400
  C      8.516250  -15.469300   77.848000
  C      8.214060  -16.762900   78.291900
  H      7.704140  -14.104100   76.228800
  C      9.802250  -14.593800   78.214400
  H     10.240100  -14.267300   77.277200
  H     10.573300  -15.083400   78.751700
  C      9.541480  -13.321200   78.960100
  H      8.695980  -13.470400   79.604200
  H      9.152250  -12.603700   78.240100
  C     10.758600  -12.728500   79.679900
  H     11.494700  -12.377000   79.000800
  H     11.181500  -13.464200   80.360500
  H     10.403800  -11.798000   80.187600
  H      9.174080  -20.497900   81.345500
  H      5.807720  -15.818800   75.753300

 Total Charge           Charge          ....    0
 Multiplicity           Mult            ....    1
 Number of Electrons    NEL             ....  134
 Basis Dimension        Dim             ....  322

ORBITAL ENERGIES
----------------

  NO   OCC          E(Eh)            E(eV)
   0   2.0000     -88.964726     -2420.8533
   1   2.0000     -88.964145     -2420.8375
   2   2.0000     -10.331528      -281.1352
   3   2.0000     -10.328355      -281.0488
   4   2.0000     -10.325882      -280.9815
   5   2.0000     -10.317870      -280.7635
   6   2.0000     -10.308066      -280.4967
   7   2.0000     -10.300108      -280.2802
   8   2.0000     -10.299091      -280.2525
   9   2.0000     -10.293811      -280.1088
  10   2.0000     -10.293595      -280.1030
  11   2.0000     -10.292730      -280.0794
  12   2.0000     -10.290344      -280.0145
  13   2.0000     -10.280784      -279.7544
  14   2.0000     -10.279006      -279.7060
  15   2.0000     -10.276397      -279.6350
  16   2.0000      -8.079201      -219.8462
  17   2.0000      -8.079042      -219.8419
  18   2.0000      -6.037732      -164.2950
  19   2.0000      -6.037581      -164.2909
  20   2.0000      -6.033701      -164.1853
  21   2.0000      -6.033561      -164.1816
  22   2.0000      -6.029958      -164.0835
  23   2.0000      -6.029711      -164.0768
  24   2.0000      -1.006569       -27.3901
  25   2.0000      -0.980375       -26.6774
  26   2.0000      -0.912287       -24.8246
  27   2.0000      -0.907017       -24.6812
  28   2.0000      -0.871451       -23.7134
  29   2.0000      -0.850700       -23.1487
  30   2.0000      -0.843684       -22.9578
  31   2.0000      -0.814249       -22.1568
  32   2.0000      -0.786147       -21.3921
  33   2.0000      -0.775182       -21.0938
  34   2.0000      -0.709213       -19.2987
  35   2.0000      -0.699953       -19.0467
  36   2.0000      -0.694289       -18.8926
  37   2.0000      -0.662374       -18.0241
  38   2.0000      -0.643297       -17.5050
  39   2.0000      -0.620174       -16.8758
  40   2.0000      -0.599090       -16.3021
  41   2.0000      -0.571611       -15.5543
  42   2.0000      -0.567841       -15.4517
  43   2.0000      -0.555590       -15.1184
  44   2.0000      -0.524681       -14.2773
  45   2.0000      -0.519381       -14.1331
  46   2.0000      -0.516023       -14.0417
  47   2.0000      -0.513995       -13.9865
  48   2.0000      -0.507612       -13.8128
  49   2.0000      -0.504252       -13.7214
  50   2.0000      -0.496722       -13.5165
  51   2.0000      -0.483952       -13.1690
  52   2.0000      -0.473217       -12.8769
  53   2.0000      -0.463949       -12.6247
  54   2.0000      -0.459022       -12.4906
  55   2.0000      -0.452167       -12.3041
  56   2.0000      -0.447711       -12.1828
  57   2.0000      -0.434362       -11.8196
  58   2.0000      -0.430470       -11.7137
  59   2.0000      -0.428343       -11.6558
  60   2.0000      -0.420430       -11.4405
  61   2.0000      -0.412287       -11.2189
  62   2.0000      -0.410871       -11.1804
  63   2.0000      -0.348407        -9.4806
  64   2.0000      -0.333209        -9.0671
  65   2.0000      -0.328628        -8.9424
  66   2.0000      -0.292794        -7.9673
  67   0.0000       0.022377         0.6089
  68   0.0000       0.069221         1.8836
  69   0.0000       0.110530         3.0077
  70   0.0000       0.119898         3.2626
  71   0.0000       0.125973         3.4279

MULLIKEN ATOMIC CHARGES
-----------------------
   0 S :    0.098081
   1 C :   -0.087282
   2 C :   -0.095988
   3 C :    0.056155
   4 C :   -0.148807
   5 H :   -0.011427
   6 C :    0.060478
   7 H :    0.019611
   8 H :    0.028317
   9 C :   -0.098300
  10 H :    0.034705
  11 H :    0.035344
  12 C :   -0.030020
  13 H :    0.029545
  14 H :    0.025346
  15 H :    0.021238
  16 S :    0.089346
  17 C :   -0.110436
  18 C :   -0.030977
  19 C :   -0.021262
  20 C :   -0.148910
  21 H :    0.023962
  22 C :    0.089911
  23 H :    0.022471
  24 H :    0.011376
  25 C :   -0.095577
  26 H :    0.022686
  27 H :    0.015995
  28 C :   -0.038822
  29 H :    0.026115
  30 H :    0.041591
  31 H :    0.040670
  32 H :    0.043204
  33 H :    0.081659
Sum of atomic charges:   -0.0000000

LOEWDIN ATOMIC CHARGES
----------------------
   0 S :    0.401229
   1 C :   -0.193036
   2 C :   -0.065157
   3 C :   -0.048126
   4 C :   -0.192574
   5 H :    0.021296
   6 C :   -0.037201
   7 H :    0.026755
   8 H :    0.033864
   9 C :   -0.041139
  10 H :    0.023558
  11 H :    0.028514
  12 C :   -0.063601
  13 H :    0.028685
  14 H :    0.021864
  15 H :    0.017547
  16 S :    0.386207
  17 C :   -0.186649
  18 C :   -0.075493
  19 C :   -0.041273
  20 C :   -0.186179
  21 H :    0.031813
  22 C :   -0.023793
  23 H :    0.030990
  24 H :    0.021265
  25 C :   -0.047750
  26 H :    0.018295
  27 H :    0.020312
  28 C :   -0.059580
  29 H :    0.020840
  30 H :    0.025981
  31 H :    0.035923
  32 H :    0.027759
  33 H :    0.038858

  Mayer bond orders larger than 0.100000
B(  0-S ,  1-C ) :   1.1262 B(  0-S ,  4-C ) :   1.1430 B(  1-C ,  2-C ) :   1.6283
B(  1-C , 32-H ) :   0.9675 B(  2-C ,  3-C ) :   1.2131 B(  2-C ,  6-C ) :   1.0522
B(  3-C ,  4-C ) :   1.5700 B(  3-C ,  5-H ) :   1.0080 B(  4-C , 20-C ) :   1.0662
B(  6-C ,  7-H ) :   0.9294 B(  6-C ,  8-H ) :   0.9497 B(  6-C ,  9-C ) :   1.0333
B(  9-C , 10-H ) :   0.9565 B(  9-C , 11-H ) :   0.9632 B(  9-C , 12-C ) :   1.0853
B( 12-C , 13-H ) :   0.9735 B( 12-C , 14-H ) :   0.9752 B( 12-C , 15-H ) :   0.9735
B( 16-S , 17-C ) :   1.1656 B( 16-S , 20-C ) :   1.1171 B( 17-C , 18-C ) :   1.6054
B( 17-C , 20-C ) :   0.1019 B( 17-C , 33-H ) :   0.9592 B( 18-C , 19-C ) :   1.2196
B( 18-C , 21-H ) :   0.9920 B( 19-C , 20-C ) :   1.6160 B( 19-C , 22-C ) :   1.0299
B( 22-C , 23-H ) :   0.9393 B( 22-C , 24-H ) :   0.9510 B( 22-C , 25-C ) :   1.0504
B( 25-C , 26-H ) :   0.9587 B( 25-C , 27-H ) :   0.9500 B( 25-C , 28-C ) :   1.0918
B( 28-C , 29-H ) :   0.9740 B( 28-C , 30-H ) :   0.9750 B( 28-C , 31-H ) :   0.9724

Dispersion correction           -0.013582811
FINAL SINGLE POINT ENERGY     -1339.869731833222

DIPOLE MOMENT
-------------
                                X             Y             Z
Electronic contribution:     -8.73928     -14.50349     -22.14914
Nuclear contribution   :      8.75654      15.04844      22.49925
                        -----------------------------------------
Total Dipole Moment    :      0.01726       0.54496       0.35011
                        -----------------------------------------
Magnitude (a.u.)       :      0.64796
Magnitude (Debye)      :      1.64698

Rotational constants in cm-1:     0.016990     0.008277     0.006366
Rotational constants in MHz :   509.361402   248.129310   190.840639

                             ****ORCA TERMINATED NORMALLY****
TOTAL RUN TIME: 0 days 0 hours 0 minutes 33 seconds 741 msec
