                         Program Version 4.2.1 -  RELEASE  -
|  1> ! wB97X-D3 SP def2-SVP
|  2> %pal
|  3> nprocs 16
|  4> end
|  5>
|  6> * xyz 0 1
|  7> S 	 -37.5134 	 63.7307 	 146.647
|  8> C 	 -37.7235 	 63.284 	 144.972
|  9> C 	 -37.9952 	 64.4208 	 144.23
| 10> C 	 -37.7248 	 65.6281 	 144.978
| 11> C 	 -37.456 	 65.4586 	 146.294
| 12> H 	 -37.6071 	 66.7053 	 144.637
| 13> C 	 -38.2701 	 64.4901 	 142.812
| 14> H 	 -38.2068 	 63.515 	 142.368
| 15> H 	 -37.4399 	 65.0139 	 142.334
| 16> C 	 -39.5897 	 65.1257 	 142.364
| 17> H 	 -39.4994 	 66.137 	 142.748
| 18> H 	 -39.7129 	 65.3089 	 141.295
| 19> C 	 -40.834 	 64.4251 	 142.808
| 20> H 	 -41.6032 	 65.0572 	 142.554
| 21> H 	 -40.8894 	 63.4204 	 142.271
| 22> H 	 -40.8779 	 64.2923 	 143.915
| 23> S 	 -38.4261 	 66.6426 	 148.676
| 24> C 	 -37.8535 	 68.2807 	 149.029
| 25> C 	 -36.7481 	 68.5892 	 148.271
| 26> C 	 -36.4237 	 67.6167 	 147.244
| 27> C 	 -37.3007 	 66.5018 	 147.296
| 28> H 	 -36.1227 	 69.4512 	 148.351
| 29> C 	 -35.2708 	 67.8238 	 146.309
| 30> H 	 -35.1157 	 68.8768 	 146.334
| 31> H 	 -35.6669 	 67.6664 	 145.355
| 32> C 	 -34.0395 	 66.9993 	 146.499
| 33> H 	 -34.3567 	 65.9303 	 146.462
| 34> H 	 -33.4237 	 67.2078 	 147.288
| 35> C 	 -33.2306 	 67.084 	 145.132
| 36> H 	 -32.458 	 66.2278 	 144.985
| 37> H 	 -32.7334 	 67.9985 	 145.065
| 38> H 	 -33.9469 	 67.0261 	 144.281
| 39> H 	 -37.7206 	 62.324 	 144.544
| 40> H 	 -38.2072 	 68.9201 	 149.792
| 41> *
| 42>
| 43>                          ****END OF INPUT****

CARTESIAN COORDINATES (ANGSTROEM)
---------------------------------
  S    -37.513400   63.730700  146.647000
  C    -37.723500   63.284000  144.972000
  C    -37.995200   64.420800  144.230000
  C    -37.724800   65.628100  144.978000
  C    -37.456000   65.458600  146.294000
  H    -37.607100   66.705300  144.637000
  C    -38.270100   64.490100  142.812000
  H    -38.206800   63.515000  142.368000
  H    -37.439900   65.013900  142.334000
  C    -39.589700   65.125700  142.364000
  H    -39.499400   66.137000  142.748000
  H    -39.712900   65.308900  141.295000
  C    -40.834000   64.425100  142.808000
  H    -41.603200   65.057200  142.554000
  H    -40.889400   63.420400  142.271000
  H    -40.877900   64.292300  143.915000
  S    -38.426100   66.642600  148.676000
  C    -37.853500   68.280700  149.029000
  C    -36.748100   68.589200  148.271000
  C    -36.423700   67.616700  147.244000
  C    -37.300700   66.501800  147.296000
  H    -36.122700   69.451200  148.351000
  C    -35.270800   67.823800  146.309000
  H    -35.115700   68.876800  146.334000
  H    -35.666900   67.666400  145.355000
  C    -34.039500   66.999300  146.499000
  H    -34.356700   65.930300  146.462000
  H    -33.423700   67.207800  147.288000
  C    -33.230600   67.084000  145.132000
  H    -32.458000   66.227800  144.985000
  H    -32.733400   67.998500  145.065000
  H    -33.946900   67.026100  144.281000
  H    -37.720600   62.324000  144.544000
  H    -38.207200   68.920100  149.792000

 Total Charge           Charge          ....    0
 Multiplicity           Mult            ....    1
 Number of Electrons    NEL             ....  134
 Basis Dimension        Dim             ....  322

ORBITAL ENERGIES
----------------

  NO   OCC          E(Eh)            E(eV)
   0   2.0000     -88.968967     -2420.9687
   1   2.0000     -88.963280     -2420.8139
   2   2.0000     -10.332179      -281.1529
   3   2.0000     -10.328236      -281.0456
   4   2.0000     -10.319128      -280.7977
   5   2.0000     -10.314870      -280.6819
   6   2.0000     -10.304554      -280.4012
   7   2.0000     -10.301233      -280.3108
   8   2.0000     -10.296853      -280.1916
   9   2.0000     -10.293967      -280.1131
  10   2.0000     -10.283487      -279.8279
  11   2.0000     -10.283379      -279.8250
  12   2.0000     -10.283194      -279.8199
  13   2.0000     -10.282741      -279.8076
  14   2.0000     -10.281206      -279.7659
  15   2.0000     -10.273250      -279.5493
  16   2.0000      -8.082582      -219.9382
  17   2.0000      -8.078007      -219.8138
  18   2.0000      -6.041259      -164.3910
  19   2.0000      -6.037282      -164.2828
  20   2.0000      -6.036657      -164.2658
  21   2.0000      -6.033197      -164.1716
  22   2.0000      -6.032508      -164.1529
  23   2.0000      -6.028602      -164.0466
  24   2.0000      -1.005120       -27.3507
  25   2.0000      -0.981129       -26.6979
  26   2.0000      -0.919181       -25.0122
  27   2.0000      -0.916122       -24.9289
  28   2.0000      -0.873130       -23.7591
  29   2.0000      -0.850336       -23.1388
  30   2.0000      -0.846021       -23.0214
  31   2.0000      -0.817194       -22.2370
  32   2.0000      -0.782613       -21.2960
  33   2.0000      -0.770816       -20.9750
  34   2.0000      -0.714090       -19.4314
  35   2.0000      -0.701557       -19.0903
  36   2.0000      -0.696016       -18.9396
  37   2.0000      -0.663026       -18.0419
  38   2.0000      -0.644310       -17.5326
  39   2.0000      -0.617674       -16.8078
  40   2.0000      -0.599215       -16.3055
  41   2.0000      -0.575708       -15.6658
  42   2.0000      -0.567587       -15.4448
  43   2.0000      -0.560194       -15.2436
  44   2.0000      -0.543107       -14.7787
  45   2.0000      -0.526668       -14.3314
  46   2.0000      -0.519851       -14.1459
  47   2.0000      -0.512282       -13.9399
  48   2.0000      -0.504174       -13.7193
  49   2.0000      -0.503774       -13.7084
  50   2.0000      -0.490722       -13.3532
  51   2.0000      -0.484452       -13.1826
  52   2.0000      -0.467754       -12.7282
  53   2.0000      -0.465754       -12.6738
  54   2.0000      -0.457547       -12.4505
  55   2.0000      -0.452250       -12.3064
  56   2.0000      -0.442188       -12.0325
  57   2.0000      -0.439320       -11.9545
  58   2.0000      -0.433257       -11.7895
  59   2.0000      -0.424155       -11.5418
  60   2.0000      -0.416510       -11.3338
  61   2.0000      -0.412049       -11.2124
  62   2.0000      -0.408942       -11.1279
  63   2.0000      -0.349566        -9.5122
  64   2.0000      -0.330787        -9.0012
  65   2.0000      -0.324738        -8.8366
  66   2.0000      -0.293101        -7.9757
  67   0.0000       0.031391         0.8542
  68   0.0000       0.059822         1.6278
  69   0.0000       0.111307         3.0288
  70   0.0000       0.113974         3.1014
  71   0.0000       0.132017         3.5924

MULLIKEN ATOMIC CHARGES
-----------------------
   0 S :    0.097727
   1 C :   -0.083051
   2 C :   -0.087091
   3 C :    0.000467
   4 C :   -0.170874
   5 H :    0.044337
   6 C :    0.083124
   7 H :   -0.004956
   8 H :    0.030572
   9 C :   -0.088674
  10 H :    0.014656
  11 H :    0.026435
  12 C :   -0.029912
  13 H :    0.019062
  14 H :    0.039009
  15 H :    0.046083
  16 S :    0.109255
  17 C :   -0.073098
  18 C :   -0.007301
  19 C :   -0.100064
  20 C :   -0.138993
  21 H :    0.006631
  22 C :    0.149517
  23 H :   -0.001487
  24 H :   -0.023383
  25 C :   -0.016830
  26 H :    0.045497
  27 H :    0.020953
  28 C :   -0.088643
  29 H :    0.049033
  30 H :    0.021305
  31 H :    0.031474
  32 H :    0.031732
  33 H :    0.047489
Sum of atomic charges:   -0.0000000

LOEWDIN ATOMIC CHARGES
----------------------
   0 S :    0.390993
   1 C :   -0.182702
   2 C :   -0.064233
   3 C :   -0.068651
   4 C :   -0.193289
   5 H :    0.042564
   6 C :   -0.038957
   7 H :    0.021885
   8 H :    0.036698
   9 C :   -0.044901
  10 H :    0.019641
  11 H :    0.026486
  12 C :   -0.060945
  13 H :    0.016255
  14 H :    0.033518
  15 H :    0.031546
  16 S :    0.388028
  17 C :   -0.172161
  18 C :   -0.066575
  19 C :   -0.047702
  20 C :   -0.192390
  21 H :    0.026045
  22 C :   -0.031371
  23 H :    0.026197
  24 H :    0.022457
  25 C :   -0.022103
  26 H :    0.037824
  27 H :    0.012686
  28 C :   -0.064724
  29 H :    0.034223
  30 H :    0.010145
  31 H :    0.025188
  32 H :    0.023438
  33 H :    0.024887

  Mayer bond orders larger than 0.100000
B(  0-S ,  1-C ) :   1.1294 B(  0-S ,  4-C ) :   1.1199 B(  1-C ,  2-C ) :   1.6119
B(  1-C , 32-H ) :   0.9754 B(  2-C ,  3-C ) :   1.1918 B(  2-C ,  6-C ) :   1.0535
B(  3-C ,  4-C ) :   1.6336 B(  3-C ,  5-H ) :   0.9728 B(  4-C , 20-C ) :   1.0406
B(  6-C ,  7-H ) :   0.9329 B(  6-C ,  8-H ) :   0.9329 B(  6-C ,  9-C ) :   1.0668
B(  9-C , 10-H ) :   0.9522 B(  9-C , 11-H ) :   0.9535 B(  9-C , 12-C ) :   1.0856
B( 12-C , 13-H ) :   0.9699 B( 12-C , 14-H ) :   0.9716 B( 12-C , 15-H ) :   0.9734
B( 16-S , 17-C ) :   1.1436 B( 16-S , 20-C ) :   1.1283 B( 17-C , 18-C ) :   1.6016
B( 17-C , 33-H ) :   0.9723 B( 18-C , 19-C ) :   1.2613 B( 18-C , 21-H ) :   0.9849
B( 19-C , 20-C ) :   1.5784 B( 19-C , 22-C ) :   1.0398 B( 22-C , 23-H ) :   0.9133
B( 22-C , 24-H ) :   0.9119 B( 22-C , 25-C ) :   1.0724 B( 25-C , 26-H ) :   0.9552
B( 25-C , 27-H ) :   0.9623 B( 25-C , 28-C ) :   1.0606 B( 28-C , 29-H ) :   0.9774
B( 28-C , 30-H ) :   0.9792 B( 28-C , 31-H ) :   0.9770

Dispersion correction           -0.014533948
FINAL SINGLE POINT ENERGY     -1339.857114729423

DIPOLE MOMENT
-------------
                                X             Y             Z
Electronic contribution:     -6.33378      -4.39485      22.42406
Nuclear contribution   :      6.57910       4.83727     -22.99125
                        -----------------------------------------
Total Dipole Moment    :      0.24531       0.44242      -0.56720
                        -----------------------------------------
Magnitude (a.u.)       :      0.76001
Magnitude (Debye)      :      1.93180

Rotational constants in cm-1:     0.017406     0.008967     0.007495
Rotational constants in MHz :   521.828879   268.813424   224.685443

                             ****ORCA TERMINATED NORMALLY****
TOTAL RUN TIME: 0 days 0 hours 0 minutes 34 seconds 796 msec
