                         Program Version 4.2.1 -  RELEASE  -
|  1> ! wB97X-D3 SP def2-SVP
|  2> %pal
|  3> nprocs 16
|  4> end
|  5>
|  6> * xyz 0 1
|  7> S 	 -23.2419 	 -6.63201 	 97.2556
|  8> C 	 -24.2987 	 -7.43147 	 98.3517
|  9> C 	 -24.7201 	 -6.49818 	 99.2695
| 10> C 	 -24.202 	 -5.21605 	 99.0777
| 11> C 	 -23.4589 	 -5.0907 	 97.9886
| 12> H 	 -24.356 	 -4.31932 	 99.7187
| 13> C 	 -25.8442 	 -6.77807 	 100.272
| 14> H 	 -25.7843 	 -6.01965 	 101.019
| 15> H 	 -25.6155 	 -7.79769 	 100.707
| 16> C 	 -27.2344 	 -6.80523 	 99.6726
| 17> H 	 -27.1368 	 -7.33419 	 98.7239
| 18> H 	 -28.0122 	 -7.23835 	 100.275
| 19> C 	 -27.8561 	 -5.46919 	 99.3694
| 20> H 	 -28.1007 	 -4.88478 	 100.295
| 21> H 	 -27.3801 	 -4.9519 	 98.6084
| 22> H 	 -28.8901 	 -5.54976 	 98.9918
| 23> S 	 -21.2426 	 -3.62003 	 97.0412
| 24> C 	 -21.454 	 -1.95709 	 96.6822
| 25> C 	 -22.7597 	 -1.53353 	 96.7417
| 26> C 	 -23.6777 	 -2.59814 	 97.0979
| 27> C 	 -23.0036 	 -3.79531 	 97.3237
| 28> H 	 -22.9203 	 -0.463447 	 96.59
| 29> C 	 -25.2031 	 -2.41912 	 97.1825
| 30> H 	 -25.6191 	 -3.39769 	 96.9705
| 31> H 	 -25.493 	 -1.71694 	 96.3972
| 32> C 	 -25.6654 	 -1.91959 	 98.5653
| 33> H 	 -25.0068 	 -1.06754 	 98.8212
| 34> H 	 -25.4352 	 -2.61933 	 99.3578
| 35> C 	 -27.1191 	 -1.55367 	 98.6209
| 36> H 	 -27.4714 	 -0.72063 	 99.2007
| 37> H 	 -27.7179 	 -2.41433 	 99.0024
| 38> H 	 -27.5414 	 -1.36326 	 97.6667
| 39> H 	 -24.8804 	 -8.32803 	 98.3297
| 40> H 	 -20.7179 	 -1.18717 	 96.6327
| 41> *
| 42>
| 43>                          ****END OF INPUT****

CARTESIAN COORDINATES (ANGSTROEM)
---------------------------------
  S    -23.241900   -6.632010   97.255600
  C    -24.298700   -7.431470   98.351700
  C    -24.720100   -6.498180   99.269500
  C    -24.202000   -5.216050   99.077700
  C    -23.458900   -5.090700   97.988600
  H    -24.356000   -4.319320   99.718700
  C    -25.844200   -6.778070  100.272000
  H    -25.784300   -6.019650  101.019000
  H    -25.615500   -7.797690  100.707000
  C    -27.234400   -6.805230   99.672600
  H    -27.136800   -7.334190   98.723900
  H    -28.012200   -7.238350  100.275000
  C    -27.856100   -5.469190   99.369400
  H    -28.100700   -4.884780  100.295000
  H    -27.380100   -4.951900   98.608400
  H    -28.890100   -5.549760   98.991800
  S    -21.242600   -3.620030   97.041200
  C    -21.454000   -1.957090   96.682200
  C    -22.759700   -1.533530   96.741700
  C    -23.677700   -2.598140   97.097900
  C    -23.003600   -3.795310   97.323700
  H    -22.920300   -0.463447   96.590000
  C    -25.203100   -2.419120   97.182500
  H    -25.619100   -3.397690   96.970500
  H    -25.493000   -1.716940   96.397200
  C    -25.665400   -1.919590   98.565300
  H    -25.006800   -1.067540   98.821200
  H    -25.435200   -2.619330   99.357800
  C    -27.119100   -1.553670   98.620900
  H    -27.471400   -0.720630   99.200700
  H    -27.717900   -2.414330   99.002400
  H    -27.541400   -1.363260   97.666700
  H    -24.880400   -8.328030   98.329700
  H    -20.717900   -1.187170   96.632700

 Total Charge           Charge          ....    0
 Multiplicity           Mult            ....    1
 Number of Electrons    NEL             ....  134
 Basis Dimension        Dim             ....  322

ORBITAL ENERGIES
----------------

  NO   OCC          E(Eh)            E(eV)
   0   2.0000     -88.966695     -2420.9068
   1   2.0000     -88.965847     -2420.8838
   2   2.0000     -10.335588      -281.2457
   3   2.0000     -10.327171      -281.0166
   4   2.0000     -10.312902      -280.6283
   5   2.0000     -10.311758      -280.5972
   6   2.0000     -10.308319      -280.5036
   7   2.0000     -10.295817      -280.1634
   8   2.0000     -10.295685      -280.1598
   9   2.0000     -10.294630      -280.1311
  10   2.0000     -10.292600      -280.0759
  11   2.0000     -10.287695      -279.9424
  12   2.0000     -10.287340      -279.9328
  13   2.0000     -10.283359      -279.8244
  14   2.0000     -10.274416      -279.5811
  15   2.0000     -10.272985      -279.5421
  16   2.0000      -8.081516      -219.9092
  17   2.0000      -8.081484      -219.9084
  18   2.0000      -6.040010      -164.3570
  19   2.0000      -6.039972      -164.3560
  20   2.0000      -6.036069      -164.2498
  21   2.0000      -6.035760      -164.2414
  22   2.0000      -6.032286      -164.1468
  23   2.0000      -6.032223      -164.1451
  24   2.0000      -1.016046       -27.6480
  25   2.0000      -0.989395       -26.9228
  26   2.0000      -0.917394       -24.9636
  27   2.0000      -0.911493       -24.8030
  28   2.0000      -0.869140       -23.6505
  29   2.0000      -0.854728       -23.2583
  30   2.0000      -0.849415       -23.1138
  31   2.0000      -0.823175       -22.3997
  32   2.0000      -0.785684       -21.3795
  33   2.0000      -0.775652       -21.1066
  34   2.0000      -0.709072       -19.2948
  35   2.0000      -0.702754       -19.1229
  36   2.0000      -0.696012       -18.9394
  37   2.0000      -0.658184       -17.9101
  38   2.0000      -0.640361       -17.4251
  39   2.0000      -0.617968       -16.8158
  40   2.0000      -0.593316       -16.1449
  41   2.0000      -0.584958       -15.9175
  42   2.0000      -0.566834       -15.4244
  43   2.0000      -0.558079       -15.1861
  44   2.0000      -0.546240       -14.8639
  45   2.0000      -0.522420       -14.2158
  46   2.0000      -0.517479       -14.0813
  47   2.0000      -0.514948       -14.0125
  48   2.0000      -0.507081       -13.7984
  49   2.0000      -0.502961       -13.6863
  50   2.0000      -0.493056       -13.4167
  51   2.0000      -0.484809       -13.1923
  52   2.0000      -0.469271       -12.7695
  53   2.0000      -0.466421       -12.6920
  54   2.0000      -0.463382       -12.6093
  55   2.0000      -0.452526       -12.3139
  56   2.0000      -0.447134       -12.1671
  57   2.0000      -0.437686       -11.9100
  58   2.0000      -0.431250       -11.7349
  59   2.0000      -0.426061       -11.5937
  60   2.0000      -0.416952       -11.3458
  61   2.0000      -0.413231       -11.2446
  62   2.0000      -0.410285       -11.1644
  63   2.0000      -0.348506        -9.4833
  64   2.0000      -0.334197        -9.0940
  65   2.0000      -0.332179        -9.0391
  66   2.0000      -0.298806        -8.1309
  67   0.0000       0.036471         0.9924
  68   0.0000       0.061248         1.6666
  69   0.0000       0.114997         3.1292
  70   0.0000       0.123139         3.3508
  71   0.0000       0.129058         3.5118

MULLIKEN ATOMIC CHARGES
-----------------------
   0 S :    0.115396
   1 C :   -0.078279
   2 C :   -0.151307
   3 C :    0.002280
   4 C :   -0.122657
   5 H :    0.031196
   6 C :    0.082745
   7 H :    0.008065
   8 H :    0.040102
   9 C :   -0.023095
  10 H :    0.015403
  11 H :    0.028092
  12 C :   -0.080825
  13 H :    0.033933
  14 H :    0.027424
  15 H :    0.021913
  16 S :    0.107581
  17 C :   -0.064672
  18 C :   -0.065840
  19 C :   -0.052300
  20 C :   -0.158707
  21 H :    0.025707
  22 C :    0.089433
  23 H :    0.035650
  24 H :    0.029438
  25 C :   -0.068611
  26 H :    0.024843
  27 H :    0.012767
  28 C :   -0.017280
  29 H :    0.028483
  30 H :    0.027787
  31 H :    0.010216
  32 H :    0.039790
  33 H :    0.045329
Sum of atomic charges:    0.0000000

LOEWDIN ATOMIC CHARGES
----------------------
   0 S :    0.430695
   1 C :   -0.211475
   2 C :   -0.067674
   3 C :   -0.077546
   4 C :   -0.200209
   5 H :    0.039904
   6 C :   -0.028214
   7 H :    0.021476
   8 H :    0.039334
   9 C :   -0.041602
  10 H :    0.023886
  11 H :    0.025935
  12 C :   -0.070366
  13 H :    0.029126
  14 H :    0.011260
  15 H :    0.030788
  16 S :    0.401087
  17 C :   -0.191494
  18 C :   -0.078164
  19 C :   -0.048526
  20 C :   -0.185124
  21 H :    0.035361
  22 C :   -0.021721
  23 H :    0.030364
  24 H :    0.033250
  25 C :   -0.043774
  26 H :    0.026607
  27 H :    0.019819
  28 C :   -0.071285
  29 H :    0.026020
  30 H :    0.032766
  31 H :    0.019515
  32 H :    0.032216
  33 H :    0.027766

  Mayer bond orders larger than 0.100000
B(  0-S ,  1-C ) :   1.1390 B(  0-S ,  4-C ) :   1.1720 B(  1-C ,  2-C ) :   1.6135
B(  1-C , 32-H ) :   0.9648 B(  2-C ,  3-C ) :   1.2459 B(  2-C ,  6-C ) :   1.0256
B(  3-C ,  4-C ) :   1.5982 B(  3-C ,  5-H ) :   0.9917 B(  4-C , 20-C ) :   0.9630
B(  6-C ,  7-H ) :   0.9419 B(  6-C ,  8-H ) :   0.9366 B(  6-C ,  9-C ) :   1.0664
B(  9-C , 10-H ) :   0.9486 B(  9-C , 11-H ) :   0.9538 B(  9-C , 12-C ) :   1.0958
B( 12-C , 13-H ) :   0.9689 B( 12-C , 14-H ) :   0.9740 B( 12-C , 15-H ) :   0.9650
B( 16-S , 17-C ) :   1.1551 B( 16-S , 20-C ) :   1.1333 B( 17-C , 18-C ) :   1.6543
B( 17-C , 33-H ) :   0.9611 B( 18-C , 19-C ) :   1.2067 B( 18-C , 21-H ) :   0.9879
B( 19-C , 20-C ) :   1.6427 B( 19-C , 22-C ) :   1.0333 B( 22-C , 23-H ) :   0.9329
B( 22-C , 24-H ) :   0.9336 B( 22-C , 25-C ) :   1.0681 B( 25-C , 26-H ) :   0.9578
B( 25-C , 27-H ) :   0.9512 B( 25-C , 28-C ) :   1.0718 B( 28-C , 29-H ) :   0.9728
B( 28-C , 30-H ) :   0.9711 B( 28-C , 31-H ) :   0.9726

Dispersion correction           -0.016174733
FINAL SINGLE POINT ENERGY     -1339.864486367801

DIPOLE MOMENT
-------------
                                X             Y             Z
Electronic contribution:     29.87035      -7.50597     -11.59662
Nuclear contribution   :    -30.60755       7.93662      11.89957
                        -----------------------------------------
Total Dipole Moment    :     -0.73720       0.43065       0.30295
                        -----------------------------------------
Magnitude (a.u.)       :      0.90593
Magnitude (Debye)      :      2.30269

Rotational constants in cm-1:     0.017875     0.010915     0.007231
Rotational constants in MHz :   535.885038   327.221144   216.774384

                             ****ORCA TERMINATED NORMALLY****
TOTAL RUN TIME: 0 days 0 hours 0 minutes 32 seconds 638 msec
