                         Program Version 4.2.1 -  RELEASE  -
|  1> ! wB97X-D3 SP def2-SVP
|  2> %pal
|  3> nprocs 16
|  4> end
|  5>
|  6> * xyz 0 1
|  7> S 	 -35.587 	 66.6036 	 143.011
|  8> C 	 -34.0342 	 66.2014 	 142.261
|  9> C 	 -33.128 	 65.6393 	 143.167
| 10> C 	 -33.6537 	 65.5073 	 144.48
| 11> C 	 -35.0115 	 65.8279 	 144.493
| 12> H 	 -33.2342 	 65.3152 	 145.464
| 13> C 	 -31.7751 	 65.0938 	 142.821
| 14> H 	 -31.6698 	 64.9343 	 141.76
| 15> H 	 -31.8707 	 64.0934 	 143.317
| 16> C 	 -30.6109 	 65.9265 	 143.332
| 17> H 	 -30.8695 	 65.9655 	 144.379
| 18> H 	 -29.6886 	 65.408 	 143.155
| 19> C 	 -30.4008 	 67.2682 	 142.681
| 20> H 	 -31.4178 	 67.6723 	 142.669
| 21> H 	 -29.8837 	 67.9541 	 143.372
| 22> H 	 -30.1017 	 67.2068 	 141.649
| 23> S 	 -36.2237 	 64.3757 	 146.362
| 24> C 	 -37.2921 	 65.2042 	 147.555
| 25> C 	 -37.2906 	 66.5653 	 147.432
| 26> C 	 -36.4472 	 67.0178 	 146.366
| 27> C 	 -35.8785 	 65.9359 	 145.67
| 28> H 	 -37.9226 	 67.1812 	 148.141
| 29> C 	 -36.2075 	 68.471 	 146.045
| 30> H 	 -36.9227 	 69.1074 	 146.585
| 31> H 	 -36.6433 	 68.5254 	 145.053
| 32> C 	 -34.7796 	 68.9904 	 146.269
| 33> H 	 -33.9634 	 68.3459 	 145.705
| 34> H 	 -34.5929 	 68.9795 	 147.402
| 35> C 	 -34.8754 	 70.4892 	 145.856
| 36> H 	 -33.9405 	 71.0113 	 146.054
| 37> H 	 -35.6496 	 70.9054 	 146.572
| 38> H 	 -35.2165 	 70.6408 	 144.815
| 39> H 	 -33.7274 	 66.3795 	 141.228
| 40> H 	 -37.9078 	 64.7007 	 148.333
| 41> *
| 42>
| 43>                          ****END OF INPUT****

CARTESIAN COORDINATES (ANGSTROEM)
---------------------------------
  S    -35.587000   66.603600  143.011000
  C    -34.034200   66.201400  142.261000
  C    -33.128000   65.639300  143.167000
  C    -33.653700   65.507300  144.480000
  C    -35.011500   65.827900  144.493000
  H    -33.234200   65.315200  145.464000
  C    -31.775100   65.093800  142.821000
  H    -31.669800   64.934300  141.760000
  H    -31.870700   64.093400  143.317000
  C    -30.610900   65.926500  143.332000
  H    -30.869500   65.965500  144.379000
  H    -29.688600   65.408000  143.155000
  C    -30.400800   67.268200  142.681000
  H    -31.417800   67.672300  142.669000
  H    -29.883700   67.954100  143.372000
  H    -30.101700   67.206800  141.649000
  S    -36.223700   64.375700  146.362000
  C    -37.292100   65.204200  147.555000
  C    -37.290600   66.565300  147.432000
  C    -36.447200   67.017800  146.366000
  C    -35.878500   65.935900  145.670000
  H    -37.922600   67.181200  148.141000
  C    -36.207500   68.471000  146.045000
  H    -36.922700   69.107400  146.585000
  H    -36.643300   68.525400  145.053000
  C    -34.779600   68.990400  146.269000
  H    -33.963400   68.345900  145.705000
  H    -34.592900   68.979500  147.402000
  C    -34.875400   70.489200  145.856000
  H    -33.940500   71.011300  146.054000
  H    -35.649600   70.905400  146.572000
  H    -35.216500   70.640800  144.815000
  H    -33.727400   66.379500  141.228000
  H    -37.907800   64.700700  148.333000

 Total Charge           Charge          ....    0
 Multiplicity           Mult            ....    1
 Number of Electrons    NEL             ....  134
 Basis Dimension        Dim             ....  322

ORBITAL ENERGIES
----------------

  NO   OCC          E(Eh)            E(eV)
   0   2.0000     -88.970445     -2421.0089
   1   2.0000     -88.966435     -2420.8998
   2   2.0000     -10.331184      -281.1258
   3   2.0000     -10.323431      -280.9148
   4   2.0000     -10.318716      -280.7866
   5   2.0000     -10.317831      -280.7625
   6   2.0000     -10.303840      -280.3817
   7   2.0000     -10.303579      -280.3746
   8   2.0000     -10.302437      -280.3436
   9   2.0000     -10.298446      -280.2350
  10   2.0000     -10.298049      -280.2242
  11   2.0000     -10.289380      -279.9883
  12   2.0000     -10.289019      -279.9784
  13   2.0000     -10.283798      -279.8364
  14   2.0000     -10.279842      -279.7287
  15   2.0000     -10.274495      -279.5832
  16   2.0000      -8.084120      -219.9801
  17   2.0000      -8.080405      -219.8790
  18   2.0000      -6.042626      -164.4282
  19   2.0000      -6.038935      -164.3278
  20   2.0000      -6.038898      -164.3268
  21   2.0000      -6.035080      -164.2229
  22   2.0000      -6.034838      -164.2163
  23   2.0000      -6.031140      -164.1156
  24   2.0000      -1.003181       -27.2979
  25   2.0000      -0.978761       -26.6334
  26   2.0000      -0.918555       -24.9951
  27   2.0000      -0.906355       -24.6632
  28   2.0000      -0.868013       -23.6198
  29   2.0000      -0.853733       -23.2313
  30   2.0000      -0.842477       -22.9250
  31   2.0000      -0.813146       -22.1268
  32   2.0000      -0.782306       -21.2876
  33   2.0000      -0.762131       -20.7386
  34   2.0000      -0.704740       -19.1769
  35   2.0000      -0.694379       -18.8950
  36   2.0000      -0.685542       -18.6545
  37   2.0000      -0.658656       -17.9230
  38   2.0000      -0.638716       -17.3804
  39   2.0000      -0.618517       -16.8307
  40   2.0000      -0.589511       -16.0414
  41   2.0000      -0.568861       -15.4795
  42   2.0000      -0.559875       -15.2350
  43   2.0000      -0.550888       -14.9904
  44   2.0000      -0.544536       -14.8176
  45   2.0000      -0.523155       -14.2358
  46   2.0000      -0.520144       -14.1538
  47   2.0000      -0.508372       -13.8335
  48   2.0000      -0.504028       -13.7153
  49   2.0000      -0.495289       -13.4775
  50   2.0000      -0.480149       -13.0655
  51   2.0000      -0.478547       -13.0219
  52   2.0000      -0.467480       -12.7208
  53   2.0000      -0.460571       -12.5328
  54   2.0000      -0.454811       -12.3760
  55   2.0000      -0.445276       -12.1166
  56   2.0000      -0.442564       -12.0428
  57   2.0000      -0.439541       -11.9605
  58   2.0000      -0.437425       -11.9029
  59   2.0000      -0.426050       -11.5934
  60   2.0000      -0.422006       -11.4834
  61   2.0000      -0.409822       -11.1518
  62   2.0000      -0.404424       -11.0049
  63   2.0000      -0.341866        -9.3026
  64   2.0000      -0.335452        -9.1281
  65   2.0000      -0.323664        -8.8074
  66   2.0000      -0.293165        -7.9774
  67   0.0000       0.032464         0.8834
  68   0.0000       0.061440         1.6719
  69   0.0000       0.101396         2.7591
  70   0.0000       0.110096         2.9959
  71   0.0000       0.121594         3.3087

MULLIKEN ATOMIC CHARGES
-----------------------
   0 S :    0.113788
   1 C :   -0.105911
   2 C :   -0.104519
   3 C :    0.029691
   4 C :   -0.162994
   5 H :    0.030433
   6 C :    0.053256
   7 H :    0.009333
   8 H :    0.047830
   9 C :   -0.052917
  10 H :    0.018160
  11 H :    0.028113
  12 C :   -0.030988
  13 H :    0.014447
  14 H :    0.043726
  15 H :    0.034313
  16 S :    0.108101
  17 C :   -0.104352
  18 C :   -0.056453
  19 C :   -0.015463
  20 C :   -0.207574
  21 H :    0.041669
  22 C :    0.061735
  23 H :    0.002029
  24 H :    0.027037
  25 C :   -0.110385
  26 H :    0.070701
  27 H :    0.047001
  28 C :   -0.048184
  29 H :    0.036672
  30 H :    0.030121
  31 H :    0.044440
  32 H :    0.044981
  33 H :    0.062162
Sum of atomic charges:    0.0000000

LOEWDIN ATOMIC CHARGES
----------------------
   0 S :    0.398167
   1 C :   -0.197751
   2 C :   -0.063621
   3 C :   -0.065867
   4 C :   -0.187134
   5 H :    0.038151
   6 C :   -0.033273
   7 H :    0.021669
   8 H :    0.043774
   9 C :   -0.041114
  10 H :    0.022679
  11 H :    0.021119
  12 C :   -0.068389
  13 H :    0.025463
  14 H :    0.034963
  15 H :    0.025214
  16 S :    0.394872
  17 C :   -0.180715
  18 C :   -0.078140
  19 C :   -0.058355
  20 C :   -0.210281
  21 H :    0.044930
  22 C :   -0.045915
  23 H :    0.028348
  24 H :    0.028878
  25 C :   -0.046766
  26 H :    0.039093
  27 H :    0.035047
  28 C :   -0.069522
  29 H :    0.021766
  30 H :    0.030671
  31 H :    0.028107
  32 H :    0.029238
  33 H :    0.034692

  Mayer bond orders larger than 0.100000
B(  0-S ,  1-C ) :   1.1245 B(  0-S ,  4-C ) :   1.1501 B(  1-C ,  2-C ) :   1.6225
B(  1-C , 32-H ) :   0.9633 B(  2-C ,  3-C ) :   1.2079 B(  2-C ,  6-C ) :   1.0116
B(  3-C ,  4-C ) :   1.5999 B(  3-C ,  5-H ) :   0.9852 B(  4-C , 20-C ) :   1.0104
B(  6-C ,  7-H ) :   0.9413 B(  6-C ,  8-H ) :   0.9438 B(  6-C ,  9-C ) :   1.0653
B(  9-C , 10-H ) :   0.9561 B(  9-C , 11-H ) :   0.9545 B(  9-C , 12-C ) :   1.0830
B( 12-C , 13-H ) :   0.9724 B( 12-C , 14-H ) :   0.9687 B( 12-C , 15-H ) :   0.9710
B( 16-S , 17-C ) :   1.1301 B( 16-S , 20-C ) :   1.1502 B( 17-C , 18-C ) :   1.6512
B( 17-C , 33-H ) :   0.9594 B( 18-C , 19-C ) :   1.2283 B( 18-C , 21-H ) :   0.9769
B( 19-C , 20-C ) :   1.5921 B( 19-C , 22-C ) :   1.0244 B( 22-C , 23-H ) :   0.9290
B( 22-C , 24-H ) :   0.9291 B( 22-C , 25-C ) :   1.0470 B( 25-C , 26-H ) :   0.9536
B( 25-C , 27-H ) :   0.9527 B( 25-C , 28-C ) :   1.0660 B( 28-C , 29-H ) :   0.9745
B( 28-C , 30-H ) :   0.9711 B( 28-C , 31-H ) :   0.9763

Dispersion correction           -0.015181336
FINAL SINGLE POINT ENERGY     -1339.861552190966

DIPOLE MOMENT
-------------
                                X             Y             Z
Electronic contribution:    -18.30124     -16.61071       1.29785
Nuclear contribution   :     18.56681      16.96087      -1.14579
                        -----------------------------------------
Total Dipole Moment    :      0.26558       0.35017       0.15206
                        -----------------------------------------
Magnitude (a.u.)       :      0.46505
Magnitude (Debye)      :      1.18206

Rotational constants in cm-1:     0.018831     0.009194     0.007541
Rotational constants in MHz :   564.526230   275.634510   226.058716

                             ****ORCA TERMINATED NORMALLY****
TOTAL RUN TIME: 0 days 0 hours 0 minutes 36 seconds 403 msec
