                         Program Version 4.2.1 -  RELEASE  -
|  1> ! wB97X-D3 SP def2-SVP
|  2> %pal
|  3> nprocs 16
|  4> end
|  5>
|  6> * xyz 0 1
|  7> S 	 -32.3349 	 55.4812 	 109.619
|  8> C 	 -32.9835 	 56.9396 	 108.843
|  9> C 	 -33.2116 	 56.7777 	 107.463
| 10> C 	 -33.0219 	 55.4072 	 107.085
| 11> C 	 -32.6066 	 54.6348 	 108.126
| 12> H 	 -33.4116 	 54.9105 	 106.212
| 13> C 	 -33.6658 	 57.9383 	 106.499
| 14> H 	 -33.0517 	 58.0822 	 105.648
| 15> H 	 -33.4869 	 58.9071 	 107.043
| 16> C 	 -35.1287 	 57.8356 	 106.161
| 17> H 	 -35.2675 	 56.8307 	 105.871
| 18> H 	 -35.763 	 57.9097 	 106.985
| 19> C 	 -35.514 	 58.8548 	 105.084
| 20> H 	 -35.2407 	 59.8804 	 105.416
| 21> H 	 -35.0406 	 58.6884 	 104.082
| 22> H 	 -36.6157 	 58.8061 	 104.869
| 23> S 	 -33.6443 	 52.2082 	 108.691
| 24> C 	 -32.6071 	 50.8378 	 108.788
| 25> C 	 -31.2992 	 51.1545 	 108.459
| 26> C 	 -31.1175 	 52.5514 	 108.138
| 27> C 	 -32.3106 	 53.2126 	 108.181
| 28> H 	 -30.5563 	 50.4293 	 108.509
| 29> C 	 -29.8339 	 53.1882 	 107.761
| 30> H 	 -29.9773 	 54.0681 	 107.152
| 31> H 	 -29.2442 	 52.4896 	 107.088
| 32> C 	 -28.8302 	 53.5924 	 108.885
| 33> H 	 -28.9866 	 52.8926 	 109.777
| 34> H 	 -29.2092 	 54.4545 	 109.418
| 35> C 	 -27.3452 	 53.539 	 108.548
| 36> H 	 -26.6467 	 53.8666 	 109.373
| 37> H 	 -27.134 	 54.2992 	 107.752
| 38> H 	 -27.1195 	 52.543 	 108.081
| 39> H 	 -33.1825 	 57.8378 	 109.449
| 40> H 	 -32.9455 	 49.8727 	 109.066
| 41> *
| 42>
| 43>                          ****END OF INPUT****

CARTESIAN COORDINATES (ANGSTROEM)
---------------------------------
  S    -32.334900   55.481200  109.619000
  C    -32.983500   56.939600  108.843000
  C    -33.211600   56.777700  107.463000
  C    -33.021900   55.407200  107.085000
  C    -32.606600   54.634800  108.126000
  H    -33.411600   54.910500  106.212000
  C    -33.665800   57.938300  106.499000
  H    -33.051700   58.082200  105.648000
  H    -33.486900   58.907100  107.043000
  C    -35.128700   57.835600  106.161000
  H    -35.267500   56.830700  105.871000
  H    -35.763000   57.909700  106.985000
  C    -35.514000   58.854800  105.084000
  H    -35.240700   59.880400  105.416000
  H    -35.040600   58.688400  104.082000
  H    -36.615700   58.806100  104.869000
  S    -33.644300   52.208200  108.691000
  C    -32.607100   50.837800  108.788000
  C    -31.299200   51.154500  108.459000
  C    -31.117500   52.551400  108.138000
  C    -32.310600   53.212600  108.181000
  H    -30.556300   50.429300  108.509000
  C    -29.833900   53.188200  107.761000
  H    -29.977300   54.068100  107.152000
  H    -29.244200   52.489600  107.088000
  C    -28.830200   53.592400  108.885000
  H    -28.986600   52.892600  109.777000
  H    -29.209200   54.454500  109.418000
  C    -27.345200   53.539000  108.548000
  H    -26.646700   53.866600  109.373000
  H    -27.134000   54.299200  107.752000
  H    -27.119500   52.543000  108.081000
  H    -33.182500   57.837800  109.449000
  H    -32.945500   49.872700  109.066000

 Total Charge           Charge          ....    0
 Multiplicity           Mult            ....    1
 Number of Electrons    NEL             ....  134
 Basis Dimension        Dim             ....  322

ORBITAL ENERGIES
----------------

  NO   OCC          E(Eh)            E(eV)
   0   2.0000     -88.966841     -2420.9108
   1   2.0000     -88.962500     -2420.7927
   2   2.0000     -10.323156      -280.9074
   3   2.0000     -10.319880      -280.8182
   4   2.0000     -10.317581      -280.7557
   5   2.0000     -10.312796      -280.6254
   6   2.0000     -10.310494      -280.5628
   7   2.0000     -10.301134      -280.3081
   8   2.0000     -10.294982      -280.1407
   9   2.0000     -10.294349      -280.1235
  10   2.0000     -10.292296      -280.0676
  11   2.0000     -10.289914      -280.0028
  12   2.0000     -10.289112      -279.9810
  13   2.0000     -10.287124      -279.9269
  14   2.0000     -10.286285      -279.9041
  15   2.0000     -10.276132      -279.6278
  16   2.0000      -8.081436      -219.9071
  17   2.0000      -8.078130      -219.8171
  18   2.0000      -6.039771      -164.3505
  19   2.0000      -6.036550      -164.2629
  20   2.0000      -6.036109      -164.2509
  21   2.0000      -6.032498      -164.1526
  22   2.0000      -6.032233      -164.1454
  23   2.0000      -6.028961      -164.0564
  24   2.0000      -1.010036       -27.4845
  25   2.0000      -0.982798       -26.7433
  26   2.0000      -0.914048       -24.8725
  27   2.0000      -0.904685       -24.6177
  28   2.0000      -0.867314       -23.6008
  29   2.0000      -0.850380       -23.1400
  30   2.0000      -0.847631       -23.0652
  31   2.0000      -0.812310       -22.1041
  32   2.0000      -0.781034       -21.2530
  33   2.0000      -0.767299       -20.8793
  34   2.0000      -0.708401       -19.2766
  35   2.0000      -0.697190       -18.9715
  36   2.0000      -0.690012       -18.7762
  37   2.0000      -0.666733       -18.1427
  38   2.0000      -0.648596       -17.6492
  39   2.0000      -0.619579       -16.8596
  40   2.0000      -0.601064       -16.3558
  41   2.0000      -0.568475       -15.4690
  42   2.0000      -0.560299       -15.2465
  43   2.0000      -0.552224       -15.0268
  44   2.0000      -0.526347       -14.3226
  45   2.0000      -0.519755       -14.1433
  46   2.0000      -0.515467       -14.0266
  47   2.0000      -0.510851       -13.9010
  48   2.0000      -0.502384       -13.6706
  49   2.0000      -0.500361       -13.6155
  50   2.0000      -0.487310       -13.2604
  51   2.0000      -0.471708       -12.8358
  52   2.0000      -0.469288       -12.7700
  53   2.0000      -0.463989       -12.6258
  54   2.0000      -0.457077       -12.4377
  55   2.0000      -0.453096       -12.3294
  56   2.0000      -0.452286       -12.3073
  57   2.0000      -0.443077       -12.0567
  58   2.0000      -0.434666       -11.8279
  59   2.0000      -0.427431       -11.6310
  60   2.0000      -0.422667       -11.5014
  61   2.0000      -0.415046       -11.2940
  62   2.0000      -0.394876       -10.7451
  63   2.0000      -0.339252        -9.2315
  64   2.0000      -0.327686        -8.9168
  65   2.0000      -0.319101        -8.6832
  66   2.0000      -0.311670        -8.4810
  67   0.0000       0.048366         1.3161
  68   0.0000       0.055464         1.5093
  69   0.0000       0.106963         2.9106
  70   0.0000       0.120246         3.2721
  71   0.0000       0.127958         3.4819

MULLIKEN ATOMIC CHARGES
-----------------------
   0 S :    0.122931
   1 C :   -0.140213
   2 C :   -0.085650
   3 C :    0.056705
   4 C :   -0.183182
   5 H :    0.021603
   6 C :    0.061394
   7 H :    0.024635
   8 H :    0.015988
   9 C :   -0.014577
  10 H :    0.007891
  11 H :    0.012857
  12 C :   -0.076003
  13 H :    0.035129
  14 H :    0.038672
  15 H :    0.042025
  16 S :    0.114378
  17 C :   -0.077746
  18 C :   -0.004948
  19 C :    0.007630
  20 C :   -0.199925
  21 H :   -0.010430
  22 C :    0.062449
  23 H :    0.031735
  24 H :    0.022272
  25 C :   -0.084923
  26 H :    0.021888
  27 H :    0.017903
  28 C :   -0.072613
  29 H :    0.053863
  30 H :    0.031693
  31 H :    0.044848
  32 H :    0.058689
  33 H :    0.043032
Sum of atomic charges:    0.0000000

LOEWDIN ATOMIC CHARGES
----------------------
   0 S :    0.406073
   1 C :   -0.191121
   2 C :   -0.054341
   3 C :   -0.063810
   4 C :   -0.197059
   5 H :    0.035650
   6 C :   -0.024835
   7 H :    0.025270
   8 H :    0.031441
   9 C :   -0.039036
  10 H :    0.018455
  11 H :    0.020062
  12 C :   -0.070903
  13 H :    0.026646
  14 H :    0.028368
  15 H :    0.031110
  16 S :    0.418118
  17 C :   -0.183283
  18 C :   -0.058266
  19 C :   -0.055457
  20 C :   -0.209863
  21 H :    0.019113
  22 C :   -0.034976
  23 H :    0.031769
  24 H :    0.035801
  25 C :   -0.056772
  26 H :    0.026619
  27 H :    0.017734
  28 C :   -0.076897
  29 H :    0.037771
  30 H :    0.025916
  31 H :    0.030970
  32 H :    0.028576
  33 H :    0.021159

  Mayer bond orders larger than 0.100000
B(  0-S ,  1-C ) :   1.1379 B(  0-S ,  4-C ) :   1.1581 B(  1-C ,  2-C ) :   1.6368
B(  1-C , 32-H ) :   0.9655 B(  2-C ,  3-C ) :   1.2102 B(  2-C ,  6-C ) :   1.0120
B(  3-C ,  4-C ) :   1.6390 B(  3-C ,  5-H ) :   0.9863 B(  4-C , 20-C ) :   0.9815
B(  6-C ,  7-H ) :   0.9500 B(  6-C ,  8-H ) :   0.9399 B(  6-C ,  9-C ) :   1.0582
B(  9-C , 10-H ) :   0.9568 B(  9-C , 11-H ) :   0.9491 B(  9-C , 12-C ) :   1.0775
B( 12-C , 13-H ) :   0.9735 B( 12-C , 14-H ) :   0.9758 B( 12-C , 15-H ) :   0.9742
B( 16-S , 17-C ) :   1.1598 B( 16-S , 20-C ) :   1.1525 B( 17-C , 18-C ) :   1.6090
B( 17-C , 33-H ) :   0.9734 B( 18-C , 19-C ) :   1.2117 B( 18-C , 21-H ) :   1.0035
B( 19-C , 20-C ) :   1.6229 B( 19-C , 22-C ) :   1.0640 B( 22-C , 23-H ) :   0.9258
B( 22-C , 24-H ) :   0.9375 B( 22-C , 25-C ) :   1.0382 B( 25-C , 26-H ) :   0.9601
B( 25-C , 27-H ) :   0.9467 B( 25-C , 28-C ) :   1.0712 B( 28-C , 29-H ) :   0.9712
B( 28-C , 30-H ) :   0.9756 B( 28-C , 31-H ) :   0.9714

Dispersion correction           -0.014096246
FINAL SINGLE POINT ENERGY     -1339.876794670603

DIPOLE MOMENT
-------------
                                X             Y             Z
Electronic contribution:     -8.15253     -13.61713      12.22983
Nuclear contribution   :      8.22910      13.79113     -12.45926
                        -----------------------------------------
Total Dipole Moment    :      0.07657       0.17400      -0.22943
                        -----------------------------------------
Magnitude (a.u.)       :      0.29795
Magnitude (Debye)      :      0.75734

Rotational constants in cm-1:     0.020378     0.007557     0.006379
Rotational constants in MHz :   610.918454   226.563671   191.238680

                             ****ORCA TERMINATED NORMALLY****
TOTAL RUN TIME: 0 days 0 hours 0 minutes 27 seconds 250 msec
