                         Program Version 4.2.1 -  RELEASE  -
|  1> ! wB97X-D3 SP def2-SVP
|  2> %pal
|  3> nprocs 16
|  4> end
|  5>
|  6> * xyz 0 1
|  7> S 	 43.5224 	 20.2427 	 84.4817
|  8> C 	 42.0202 	 21.1728 	 84.3869
|  9> C 	 41.2807 	 20.6624 	 83.3603
| 10> C 	 41.7697 	 19.4395 	 82.7829
| 11> C 	 42.8634 	 18.9877 	 83.3984
| 12> H 	 41.3473 	 18.8608 	 81.8828
| 13> C 	 40.0108 	 21.4268 	 82.959
| 14> H 	 39.7443 	 22.0123 	 83.8874
| 15> H 	 39.1749 	 20.8058 	 82.7225
| 16> C 	 40.1665 	 22.472 	 81.8164
| 17> H 	 41.0097 	 23.1445 	 81.9635
| 18> H 	 40.3241 	 22.0074 	 80.8619
| 19> C 	 38.9208 	 23.3916 	 81.5987
| 20> H 	 38.0044 	 22.8707 	 81.4529
| 21> H 	 38.8133 	 23.9558 	 82.5201
| 22> H 	 39.0351 	 24.0474 	 80.7166
| 23> S 	 45.0261 	 17.4881 	 82.5274
| 24> C 	 44.9256 	 15.7777 	 82.51
| 25> C 	 43.7143 	 15.3608 	 83.0186
| 26> C 	 42.7854 	 16.3719 	 83.3185
| 27> C 	 43.4248 	 17.6346 	 83.2528
| 28> H 	 43.4269 	 14.3341 	 83.0074
| 29> C 	 41.3902 	 16.0847 	 83.7829
| 30> H 	 41.2693 	 14.9654 	 83.6755
| 31> H 	 40.6314 	 16.4654 	 83.1054
| 32> C 	 41.1619 	 16.2013 	 85.2656
| 33> H 	 41.4874 	 17.2045 	 85.5574
| 34> H 	 41.7377 	 15.5191 	 85.9425
| 35> C 	 39.6395 	 16.1628 	 85.5382
| 36> H 	 39.3211 	 16.462 	 86.5261
| 37> H 	 39.3031 	 15.1872 	 85.229
| 38> H 	 39.088 	 16.9467 	 84.9441
| 39> H 	 41.8455 	 22.1846 	 84.6838
| 40> H 	 45.693 	 15.1127 	 82.1972
| 41> *
| 42>
| 43>                          ****END OF INPUT****

CARTESIAN COORDINATES (ANGSTROEM)
---------------------------------
  S     43.522400   20.242700   84.481700
  C     42.020200   21.172800   84.386900
  C     41.280700   20.662400   83.360300
  C     41.769700   19.439500   82.782900
  C     42.863400   18.987700   83.398400
  H     41.347300   18.860800   81.882800
  C     40.010800   21.426800   82.959000
  H     39.744300   22.012300   83.887400
  H     39.174900   20.805800   82.722500
  C     40.166500   22.472000   81.816400
  H     41.009700   23.144500   81.963500
  H     40.324100   22.007400   80.861900
  C     38.920800   23.391600   81.598700
  H     38.004400   22.870700   81.452900
  H     38.813300   23.955800   82.520100
  H     39.035100   24.047400   80.716600
  S     45.026100   17.488100   82.527400
  C     44.925600   15.777700   82.510000
  C     43.714300   15.360800   83.018600
  C     42.785400   16.371900   83.318500
  C     43.424800   17.634600   83.252800
  H     43.426900   14.334100   83.007400
  C     41.390200   16.084700   83.782900
  H     41.269300   14.965400   83.675500
  H     40.631400   16.465400   83.105400
  C     41.161900   16.201300   85.265600
  H     41.487400   17.204500   85.557400
  H     41.737700   15.519100   85.942500
  C     39.639500   16.162800   85.538200
  H     39.321100   16.462000   86.526100
  H     39.303100   15.187200   85.229000
  H     39.088000   16.946700   84.944100
  H     41.845500   22.184600   84.683800
  H     45.693000   15.112700   82.197200

 Total Charge           Charge          ....    0
 Multiplicity           Mult            ....    1
 Number of Electrons    NEL             ....  134
 Basis Dimension        Dim             ....  322

ORBITAL ENERGIES
----------------

  NO   OCC          E(Eh)            E(eV)
   0   2.0000     -88.968280     -2420.9500
   1   2.0000     -88.961994     -2420.7789
   2   2.0000     -10.329648      -281.0840
   3   2.0000     -10.328943      -281.0648
   4   2.0000     -10.314067      -280.6600
   5   2.0000     -10.311188      -280.5817
   6   2.0000     -10.305167      -280.4179
   7   2.0000     -10.302237      -280.3381
   8   2.0000     -10.298281      -280.2305
   9   2.0000     -10.296633      -280.1856
  10   2.0000     -10.294107      -280.1169
  11   2.0000     -10.288402      -279.9616
  12   2.0000     -10.286396      -279.9071
  13   2.0000     -10.286320      -279.9050
  14   2.0000     -10.277919      -279.6764
  15   2.0000     -10.277435      -279.6632
  16   2.0000      -8.083314      -219.9582
  17   2.0000      -8.076189      -219.7643
  18   2.0000      -6.041657      -164.4018
  19   2.0000      -6.037666      -164.2932
  20   2.0000      -6.034896      -164.2179
  21   2.0000      -6.034356      -164.2032
  22   2.0000      -6.030983      -164.1114
  23   2.0000      -6.026533      -163.9903
  24   2.0000      -1.008043       -27.4303
  25   2.0000      -0.987865       -26.8812
  26   2.0000      -0.914993       -24.8982
  27   2.0000      -0.905329       -24.6353
  28   2.0000      -0.870311       -23.6824
  29   2.0000      -0.853481       -23.2244
  30   2.0000      -0.841836       -22.9075
  31   2.0000      -0.818092       -22.2614
  32   2.0000      -0.780705       -21.2441
  33   2.0000      -0.768511       -20.9122
  34   2.0000      -0.708736       -19.2857
  35   2.0000      -0.698419       -19.0050
  36   2.0000      -0.693764       -18.8783
  37   2.0000      -0.663263       -18.0483
  38   2.0000      -0.639750       -17.4085
  39   2.0000      -0.615569       -16.7505
  40   2.0000      -0.601405       -16.3651
  41   2.0000      -0.572719       -15.5845
  42   2.0000      -0.564391       -15.3579
  43   2.0000      -0.556206       -15.1351
  44   2.0000      -0.524622       -14.2757
  45   2.0000      -0.524202       -14.2643
  46   2.0000      -0.518788       -14.1169
  47   2.0000      -0.510803       -13.8996
  48   2.0000      -0.506862       -13.7924
  49   2.0000      -0.502415       -13.6714
  50   2.0000      -0.493677       -13.4336
  51   2.0000      -0.483782       -13.1644
  52   2.0000      -0.470656       -12.8072
  53   2.0000      -0.464852       -12.6493
  54   2.0000      -0.460251       -12.5241
  55   2.0000      -0.446597       -12.1525
  56   2.0000      -0.441347       -12.0096
  57   2.0000      -0.437229       -11.8976
  58   2.0000      -0.433870       -11.8062
  59   2.0000      -0.425649       -11.5825
  60   2.0000      -0.418962       -11.4005
  61   2.0000      -0.414027       -11.2663
  62   2.0000      -0.400504       -10.8983
  63   2.0000      -0.343697        -9.3525
  64   2.0000      -0.334653        -9.1064
  65   2.0000      -0.327230        -8.9044
  66   2.0000      -0.299649        -8.1539
  67   0.0000       0.029169         0.7937
  68   0.0000       0.062189         1.6922
  69   0.0000       0.112059         3.0493
  70   0.0000       0.122868         3.3434
  71   0.0000       0.131155         3.5689

MULLIKEN ATOMIC CHARGES
-----------------------
   0 S :    0.090728
   1 C :   -0.083850
   2 C :   -0.113216
   3 C :    0.024356
   4 C :   -0.149790
   5 H :    0.050036
   6 C :    0.044003
   7 H :    0.024619
   8 H :    0.020627
   9 C :   -0.064255
  10 H :    0.025886
  11 H :    0.021819
  12 C :   -0.055690
  13 H :    0.021554
  14 H :    0.026311
  15 H :    0.043122
  16 S :    0.117358
  17 C :   -0.073460
  18 C :   -0.022521
  19 C :   -0.029950
  20 C :   -0.168018
  21 H :    0.005123
  22 C :    0.048774
  23 H :    0.012429
  24 H :    0.036388
  25 C :   -0.064781
  26 H :    0.028860
  27 H :    0.044451
  28 C :   -0.041927
  29 H :    0.031121
  30 H :    0.023336
  31 H :    0.028836
  32 H :    0.048889
  33 H :    0.048832
Sum of atomic charges:   -0.0000000

LOEWDIN ATOMIC CHARGES
----------------------
   0 S :    0.370633
   1 C :   -0.189531
   2 C :   -0.062062
   3 C :   -0.072985
   4 C :   -0.183249
   5 H :    0.050595
   6 C :   -0.030313
   7 H :    0.034709
   8 H :    0.023645
   9 C :   -0.038940
  10 H :    0.022580
  11 H :    0.017994
  12 C :   -0.064553
  13 H :    0.017213
  14 H :    0.021909
  15 H :    0.031423
  16 S :    0.427106
  17 C :   -0.192022
  18 C :   -0.071751
  19 C :   -0.049483
  20 C :   -0.197918
  21 H :    0.025646
  22 C :   -0.038307
  23 H :    0.036939
  24 H :    0.033250
  25 C :   -0.040033
  26 H :    0.021906
  27 H :    0.032347
  28 C :   -0.064711
  29 H :    0.023521
  30 H :    0.018288
  31 H :    0.030688
  32 H :    0.028954
  33 H :    0.026514

  Mayer bond orders larger than 0.100000
B(  0-S ,  1-C ) :   1.1074 B(  0-S ,  4-C ) :   1.1275 B(  1-C ,  2-C ) :   1.6630
B(  1-C , 32-H ) :   0.9612 B(  2-C ,  3-C ) :   1.1968 B(  2-C ,  6-C ) :   1.0218
B(  3-C ,  4-C ) :   1.6209 B(  3-C ,  5-H ) :   0.9862 B(  4-C , 20-C ) :   1.0127
B(  6-C ,  7-H ) :   0.9481 B(  6-C ,  8-H ) :   0.9437 B(  6-C ,  9-C ) :   1.0557
B(  9-C , 10-H ) :   0.9592 B(  9-C , 11-H ) :   0.9572 B(  9-C , 12-C ) :   1.0766
B( 12-C , 13-H ) :   0.9766 B( 12-C , 14-H ) :   0.9780 B( 12-C , 15-H ) :   0.9758
B( 16-S , 17-C ) :   1.1746 B( 16-S , 20-C ) :   1.1697 B( 17-C , 18-C ) :   1.5704
B( 17-C , 20-C ) :   0.1081 B( 17-C , 33-H ) :   0.9705 B( 18-C , 19-C ) :   1.3006
B( 18-C , 21-H ) :   0.9845 B( 19-C , 20-C ) :   1.5403 B( 19-C , 22-C ) :   1.0453
B( 22-C , 23-H ) :   0.9266 B( 22-C , 24-H ) :   0.9352 B( 22-C , 25-C ) :   1.0525
B( 25-C , 26-H ) :   0.9593 B( 25-C , 27-H ) :   0.9548 B( 25-C , 28-C ) :   1.0724
B( 28-C , 29-H ) :   0.9736 B( 28-C , 30-H ) :   0.9757 B( 28-C , 31-H ) :   0.9757

Dispersion correction           -0.014109228
FINAL SINGLE POINT ENERGY     -1339.866766944494

DIPOLE MOMENT
-------------
                                X             Y             Z
Electronic contribution:     27.70232      -4.74828      -0.06981
Nuclear contribution   :    -28.30017       4.58066      -0.24547
                        -----------------------------------------
Total Dipole Moment    :     -0.59785      -0.16762      -0.31529
                        -----------------------------------------
Magnitude (a.u.)       :      0.69637
Magnitude (Debye)      :      1.77002

Rotational constants in cm-1:     0.018918     0.007991     0.006674
Rotational constants in MHz :   567.150905   239.571290   200.094470

                             ****ORCA TERMINATED NORMALLY****
TOTAL RUN TIME: 0 days 0 hours 0 minutes 28 seconds 952 msec
