                         Program Version 4.2.1 -  RELEASE  -
|  1> ! wB97X-D3 SP def2-SVP
|  2> %pal
|  3> nprocs 16
|  4> end
|  5>
|  6> * xyz 0 1
|  7> S 	 -56.3581 	 27.4471 	 96.1309
|  8> C 	 -55.3124 	 28.6952 	 95.5354
|  9> C 	 -54.3637 	 28.2508 	 94.6097
| 10> C 	 -54.4669 	 26.8509 	 94.4206
| 11> C 	 -55.5624 	 26.2899 	 95.0864
| 12> H 	 -53.8157 	 26.3082 	 93.8146
| 13> C 	 -53.22 	 29.145 	 94.2098
| 14> H 	 -52.3463 	 28.512 	 94.4779
| 15> H 	 -53.1341 	 29.9766 	 94.8681
| 16> C 	 -53.1756 	 29.5764 	 92.7583
| 17> H 	 -53.7793 	 28.8475 	 92.2097
| 18> H 	 -53.7354 	 30.5031 	 92.556
| 19> C 	 -51.7534 	 29.7132 	 92.2844
| 20> H 	 -51.1833 	 30.2487 	 93.0789
| 21> H 	 -51.2449 	 28.7548 	 92.3048
| 22> H 	 -51.6856 	 30.3526 	 91.4221
| 23> S 	 -56.5625 	 24.0911 	 96.4343
| 24> C 	 -56.8022 	 22.5823 	 95.6587
| 25> C 	 -56.7026 	 22.7634 	 94.2926
| 26> C 	 -56.1874 	 24.0371 	 93.8859
| 27> C 	 -55.9972 	 24.8934 	 94.9889
| 28> H 	 -56.9073 	 21.8598 	 93.7434
| 29> C 	 -55.975 	 24.4474 	 92.4194
| 30> H 	 -55.7592 	 23.5344 	 91.856
| 31> H 	 -55.0865 	 25.1329 	 92.2912
| 32> C 	 -57.1105 	 25.391 	 91.8469
| 33> H 	 -57.3802 	 26.2939 	 92.5068
| 34> H 	 -58.0236 	 24.8141 	 91.5316
| 35> C 	 -56.7118 	 25.9972 	 90.428
| 36> H 	 -55.7611 	 26.5426 	 90.584
| 37> H 	 -57.4066 	 26.804 	 90.0552
| 38> H 	 -56.7106 	 25.2191 	 89.648
| 39> H 	 -55.3115 	 29.7241 	 95.8081
| 40> H 	 -57.1349 	 21.6636 	 96.0305
| 41> *
| 42>
| 43>                          ****END OF INPUT****

CARTESIAN COORDINATES (ANGSTROEM)
---------------------------------
  S    -56.358100   27.447100   96.130900
  C    -55.312400   28.695200   95.535400
  C    -54.363700   28.250800   94.609700
  C    -54.466900   26.850900   94.420600
  C    -55.562400   26.289900   95.086400
  H    -53.815700   26.308200   93.814600
  C    -53.220000   29.145000   94.209800
  H    -52.346300   28.512000   94.477900
  H    -53.134100   29.976600   94.868100
  C    -53.175600   29.576400   92.758300
  H    -53.779300   28.847500   92.209700
  H    -53.735400   30.503100   92.556000
  C    -51.753400   29.713200   92.284400
  H    -51.183300   30.248700   93.078900
  H    -51.244900   28.754800   92.304800
  H    -51.685600   30.352600   91.422100
  S    -56.562500   24.091100   96.434300
  C    -56.802200   22.582300   95.658700
  C    -56.702600   22.763400   94.292600
  C    -56.187400   24.037100   93.885900
  C    -55.997200   24.893400   94.988900
  H    -56.907300   21.859800   93.743400
  C    -55.975000   24.447400   92.419400
  H    -55.759200   23.534400   91.856000
  H    -55.086500   25.132900   92.291200
  C    -57.110500   25.391000   91.846900
  H    -57.380200   26.293900   92.506800
  H    -58.023600   24.814100   91.531600
  C    -56.711800   25.997200   90.428000
  H    -55.761100   26.542600   90.584000
  H    -57.406600   26.804000   90.055200
  H    -56.710600   25.219100   89.648000
  H    -55.311500   29.724100   95.808100
  H    -57.134900   21.663600   96.030500

 Total Charge           Charge          ....    0
 Multiplicity           Mult            ....    1
 Number of Electrons    NEL             ....  134
 Basis Dimension        Dim             ....  322

ORBITAL ENERGIES
----------------

  NO   OCC          E(Eh)            E(eV)
   0   2.0000     -88.972681     -2421.0697
   1   2.0000     -88.964801     -2420.8553
   2   2.0000     -10.334070      -281.2043
   3   2.0000     -10.329139      -281.0702
   4   2.0000     -10.310515      -280.5634
   5   2.0000     -10.309506      -280.5359
   6   2.0000     -10.309311      -280.5306
   7   2.0000     -10.302339      -280.3409
   8   2.0000     -10.299194      -280.2553
   9   2.0000     -10.298244      -280.2295
  10   2.0000     -10.292722      -280.0792
  11   2.0000     -10.292323      -280.0683
  12   2.0000     -10.290250      -280.0119
  13   2.0000     -10.284649      -279.8595
  14   2.0000     -10.284538      -279.8565
  15   2.0000     -10.279110      -279.7088
  16   2.0000      -8.087251      -220.0653
  17   2.0000      -8.080149      -219.8720
  18   2.0000      -6.045739      -164.5129
  19   2.0000      -6.041783      -164.4053
  20   2.0000      -6.038628      -164.3194
  21   2.0000      -6.038068      -164.3042
  22   2.0000      -6.034447      -164.2057
  23   2.0000      -6.031031      -164.1127
  24   2.0000      -1.008326       -27.4379
  25   2.0000      -0.987086       -26.8600
  26   2.0000      -0.919323       -25.0161
  27   2.0000      -0.895389       -24.3648
  28   2.0000      -0.870843       -23.6969
  29   2.0000      -0.854906       -23.2632
  30   2.0000      -0.842143       -22.9159
  31   2.0000      -0.817931       -22.2570
  32   2.0000      -0.779823       -21.2201
  33   2.0000      -0.766853       -20.8671
  34   2.0000      -0.710425       -19.3316
  35   2.0000      -0.701410       -19.0863
  36   2.0000      -0.683961       -18.6115
  37   2.0000      -0.660324       -17.9683
  38   2.0000      -0.641028       -17.4433
  39   2.0000      -0.629583       -17.1318
  40   2.0000      -0.590928       -16.0800
  41   2.0000      -0.573126       -15.5956
  42   2.0000      -0.567139       -15.4326
  43   2.0000      -0.560565       -15.2537
  44   2.0000      -0.526864       -14.3367
  45   2.0000      -0.522023       -14.2050
  46   2.0000      -0.514785       -14.0080
  47   2.0000      -0.510614       -13.8945
  48   2.0000      -0.502404       -13.6711
  49   2.0000      -0.498048       -13.5526
  50   2.0000      -0.491139       -13.3646
  51   2.0000      -0.485159       -13.2019
  52   2.0000      -0.471408       -12.8277
  53   2.0000      -0.466153       -12.6847
  54   2.0000      -0.461344       -12.5538
  55   2.0000      -0.454610       -12.3706
  56   2.0000      -0.444271       -12.0892
  57   2.0000      -0.440871       -11.9967
  58   2.0000      -0.432214       -11.7611
  59   2.0000      -0.425010       -11.5651
  60   2.0000      -0.414484       -11.2787
  61   2.0000      -0.408111       -11.1053
  62   2.0000      -0.405556       -11.0357
  63   2.0000      -0.351953        -9.5771
  64   2.0000      -0.336036        -9.1440
  65   2.0000      -0.328344        -8.9347
  66   2.0000      -0.284576        -7.7437
  67   0.0000       0.023957         0.6519
  68   0.0000       0.072894         1.9836
  69   0.0000       0.110175         2.9980
  70   0.0000       0.118042         3.2121
  71   0.0000       0.126185         3.4337

MULLIKEN ATOMIC CHARGES
-----------------------
   0 S :    0.131369
   1 C :   -0.109120
   2 C :   -0.093213
   3 C :    0.039950
   4 C :   -0.139085
   5 H :   -0.008071
   6 C :    0.042678
   7 H :    0.034406
   8 H :    0.014170
   9 C :   -0.052950
  10 H :    0.025998
  11 H :    0.027197
  12 C :   -0.040098
  13 H :    0.021762
  14 H :    0.035594
  15 H :    0.037307
  16 S :    0.104594
  17 C :   -0.066287
  18 C :   -0.059163
  19 C :   -0.008156
  20 C :   -0.152186
  21 H :    0.015304
  22 C :    0.066904
  23 H :    0.031650
  24 H :    0.018218
  25 C :   -0.115328
  26 H :    0.069024
  27 H :    0.041200
  28 C :   -0.098726
  29 H :    0.034962
  30 H :    0.041964
  31 H :    0.041461
  32 H :    0.032828
  33 H :    0.033843
Sum of atomic charges:    0.0000000

LOEWDIN ATOMIC CHARGES
----------------------
   0 S :    0.419048
   1 C :   -0.202348
   2 C :   -0.062368
   3 C :   -0.054209
   4 C :   -0.190572
   5 H :    0.019650
   6 C :   -0.030031
   7 H :    0.038730
   8 H :    0.025203
   9 C :   -0.047387
  10 H :    0.021540
  11 H :    0.027277
  12 C :   -0.064866
  13 H :    0.028715
  14 H :    0.026836
  15 H :    0.025581
  16 S :    0.421448
  17 C :   -0.191995
  18 C :   -0.073602
  19 C :   -0.057029
  20 C :   -0.199731
  21 H :    0.030368
  22 C :   -0.035663
  23 H :    0.032206
  24 H :    0.032912
  25 C :   -0.046720
  26 H :    0.040579
  27 H :    0.026452
  28 C :   -0.079634
  29 H :    0.020902
  30 H :    0.031129
  31 H :    0.023616
  32 H :    0.021316
  33 H :    0.022648

  Mayer bond orders larger than 0.100000
B(  0-S ,  1-C ) :   1.1433 B(  0-S ,  4-C ) :   1.1560 B(  1-C ,  2-C ) :   1.5951
B(  1-C , 32-H ) :   0.9666 B(  2-C ,  3-C ) :   1.2617 B(  2-C ,  6-C ) :   1.0203
B(  3-C ,  4-C ) :   1.5414 B(  3-C ,  5-H ) :   1.0015 B(  4-C , 20-C ) :   1.0625
B(  6-C ,  7-H ) :   0.9530 B(  6-C ,  8-H ) :   0.9376 B(  6-C ,  9-C ) :   1.0358
B(  9-C , 10-H ) :   0.9661 B(  9-C , 11-H ) :   0.9489 B(  9-C , 12-C ) :   1.0788
B( 12-C , 13-H ) :   0.9712 B( 12-C , 14-H ) :   0.9747 B( 12-C , 15-H ) :   0.9722
B( 16-S , 17-C ) :   1.1645 B( 16-S , 20-C ) :   1.1521 B( 17-C , 18-C ) :   1.6041
B( 17-C , 20-C ) :   0.1032 B( 17-C , 33-H ) :   0.9731 B( 18-C , 19-C ) :   1.2517
B( 18-C , 21-H ) :   0.9920 B( 19-C , 20-C ) :   1.5472 B( 19-C , 22-C ) :   1.0490
B( 22-C , 23-H ) :   0.9359 B( 22-C , 24-H ) :   0.9402 B( 22-C , 25-C ) :   1.0377
B( 25-C , 26-H ) :   0.9594 B( 25-C , 27-H ) :   0.9598 B( 25-C , 28-C ) :   1.0646
B( 28-C , 29-H ) :   0.9752 B( 28-C , 30-H ) :   0.9762 B( 28-C , 31-H ) :   0.9785

Dispersion correction           -0.014200360
FINAL SINGLE POINT ENERGY     -1339.868595499764

DIPOLE MOMENT
-------------
                                X             Y             Z
Electronic contribution:    -11.93699     -12.03784      26.79977
Nuclear contribution   :     12.20240      12.14591     -27.28801
                        -----------------------------------------
Total Dipole Moment    :      0.26542       0.10807      -0.48825
                        -----------------------------------------
Magnitude (a.u.)       :      0.56614
Magnitude (Debye)      :      1.43900

Rotational constants in cm-1:     0.018649     0.008788     0.006820
Rotational constants in MHz :   559.095472   263.454262   204.458632

                             ****ORCA TERMINATED NORMALLY****
TOTAL RUN TIME: 0 days 0 hours 0 minutes 30 seconds 586 msec
