                         Program Version 4.2.1 -  RELEASE  -
|  1> ! wB97X-D3 SP def2-SVP
|  2> %pal
|  3> nprocs 16
|  4> end
|  5>
|  6> * xyz 0 1
|  7> S 	 68.9652 	 24.2816 	 78.2289
|  8> C 	 69.226 	 22.611 	 78.7449
|  9> C 	 69.4579 	 21.8251 	 77.6091
| 10> C 	 69.5465 	 22.5897 	 76.4357
| 11> C 	 69.5173 	 23.9458 	 76.6051
| 12> H 	 69.713 	 22.2115 	 75.4689
| 13> C 	 69.4475 	 20.3277 	 77.5921
| 14> H 	 68.8527 	 19.9804 	 76.7469
| 15> H 	 68.9349 	 19.8162 	 78.4166
| 16> C 	 70.8167 	 19.7367 	 77.4517
| 17> H 	 71.3883 	 20.3425 	 76.696
| 18> H 	 71.2642 	 19.9808 	 78.3852
| 19> C 	 70.8863 	 18.2202 	 77.2761
| 20> H 	 70.3104 	 17.904 	 76.3582
| 21> H 	 71.9435 	 17.8612 	 77.3208
| 22> H 	 70.3267 	 17.649 	 78.0706
| 23> S 	 68.0629 	 25.989 	 75.5585
| 24> C 	 68.8037 	 26.9371 	 74.3098
| 25> C 	 69.8385 	 26.2951 	 73.7264
| 26> C 	 70.126 	 25.0597 	 74.3793
| 27> C 	 69.4018 	 24.872 	 75.5309
| 28> H 	 70.2617 	 26.6184 	 72.7914
| 29> C 	 71.3116 	 24.2329 	 73.9363
| 30> H 	 71.5264 	 23.6351 	 74.8475
| 31> H 	 72.1065 	 24.8928 	 73.7285
| 32> C 	 71.112 	 23.5162 	 72.6522
| 33> H 	 71.1603 	 24.1973 	 71.773
| 34> H 	 70.1674 	 23.0194 	 72.6309
| 35> C 	 72.2249 	 22.4888 	 72.5249
| 36> H 	 71.8554 	 21.6862 	 73.1453
| 37> H 	 73.1442 	 22.7795 	 73.0167
| 38> H 	 72.4461 	 22.2191 	 71.4694
| 39> H 	 69.1511 	 22.2356 	 79.7442
| 40> H 	 68.3442 	 27.8121 	 73.8904
| 41> *
| 42>
| 43>                          ****END OF INPUT****

CARTESIAN COORDINATES (ANGSTROEM)
---------------------------------
  S     68.965200   24.281600   78.228900
  C     69.226000   22.611000   78.744900
  C     69.457900   21.825100   77.609100
  C     69.546500   22.589700   76.435700
  C     69.517300   23.945800   76.605100
  H     69.713000   22.211500   75.468900
  C     69.447500   20.327700   77.592100
  H     68.852700   19.980400   76.746900
  H     68.934900   19.816200   78.416600
  C     70.816700   19.736700   77.451700
  H     71.388300   20.342500   76.696000
  H     71.264200   19.980800   78.385200
  C     70.886300   18.220200   77.276100
  H     70.310400   17.904000   76.358200
  H     71.943500   17.861200   77.320800
  H     70.326700   17.649000   78.070600
  S     68.062900   25.989000   75.558500
  C     68.803700   26.937100   74.309800
  C     69.838500   26.295100   73.726400
  C     70.126000   25.059700   74.379300
  C     69.401800   24.872000   75.530900
  H     70.261700   26.618400   72.791400
  C     71.311600   24.232900   73.936300
  H     71.526400   23.635100   74.847500
  H     72.106500   24.892800   73.728500
  C     71.112000   23.516200   72.652200
  H     71.160300   24.197300   71.773000
  H     70.167400   23.019400   72.630900
  C     72.224900   22.488800   72.524900
  H     71.855400   21.686200   73.145300
  H     73.144200   22.779500   73.016700
  H     72.446100   22.219100   71.469400
  H     69.151100   22.235600   79.744200
  H     68.344200   27.812100   73.890400

 Total Charge           Charge          ....    0
 Multiplicity           Mult            ....    1
 Number of Electrons    NEL             ....  134
 Basis Dimension        Dim             ....  322

ORBITAL ENERGIES
----------------

  NO   OCC          E(Eh)            E(eV)
   0   2.0000     -88.968502     -2420.9560
   1   2.0000     -88.960886     -2420.7488
   2   2.0000     -10.326487      -280.9980
   3   2.0000     -10.321050      -280.8501
   4   2.0000     -10.319235      -280.8007
   5   2.0000     -10.309473      -280.5350
   6   2.0000     -10.302646      -280.3493
   7   2.0000     -10.295316      -280.1498
   8   2.0000     -10.290918      -280.0301
   9   2.0000     -10.289514      -279.9919
  10   2.0000     -10.289011      -279.9782
  11   2.0000     -10.287210      -279.9292
  12   2.0000     -10.283743      -279.8349
  13   2.0000     -10.282740      -279.8076
  14   2.0000     -10.282115      -279.7906
  15   2.0000     -10.275966      -279.6232
  16   2.0000      -8.082819      -219.9447
  17   2.0000      -8.076468      -219.7719
  18   2.0000      -6.041425      -164.3955
  19   2.0000      -6.037386      -164.2856
  20   2.0000      -6.034990      -164.2204
  21   2.0000      -6.033475      -164.1792
  22   2.0000      -6.031017      -164.1123
  23   2.0000      -6.027004      -164.0031
  24   2.0000      -1.015754       -27.6401
  25   2.0000      -0.990278       -26.9468
  26   2.0000      -0.922649       -25.1066
  27   2.0000      -0.919861       -25.0307
  28   2.0000      -0.876807       -23.8591
  29   2.0000      -0.855821       -23.2881
  30   2.0000      -0.846806       -23.0428
  31   2.0000      -0.817863       -22.2552
  32   2.0000      -0.781754       -21.2726
  33   2.0000      -0.771670       -20.9982
  34   2.0000      -0.708604       -19.2821
  35   2.0000      -0.699823       -19.0431
  36   2.0000      -0.697470       -18.9791
  37   2.0000      -0.666036       -18.1238
  38   2.0000      -0.647068       -17.6076
  39   2.0000      -0.627377       -17.0718
  40   2.0000      -0.598752       -16.2929
  41   2.0000      -0.579788       -15.7768
  42   2.0000      -0.572503       -15.5786
  43   2.0000      -0.560604       -15.2548
  44   2.0000      -0.532552       -14.4915
  45   2.0000      -0.526029       -14.3140
  46   2.0000      -0.524565       -14.2741
  47   2.0000      -0.513984       -13.9862
  48   2.0000      -0.510689       -13.8966
  49   2.0000      -0.501208       -13.6386
  50   2.0000      -0.497979       -13.5507
  51   2.0000      -0.482178       -13.1207
  52   2.0000      -0.467291       -12.7156
  53   2.0000      -0.466997       -12.7076
  54   2.0000      -0.457581       -12.4514
  55   2.0000      -0.451631       -12.2895
  56   2.0000      -0.446618       -12.1531
  57   2.0000      -0.444226       -12.0880
  58   2.0000      -0.436418       -11.8755
  59   2.0000      -0.428226       -11.6526
  60   2.0000      -0.421760       -11.4767
  61   2.0000      -0.409055       -11.1309
  62   2.0000      -0.405945       -11.0463
  63   2.0000      -0.354823        -9.6552
  64   2.0000      -0.331264        -9.0141
  65   2.0000      -0.328262        -8.9325
  66   2.0000      -0.288221        -7.8429
  67   0.0000       0.022739         0.6188
  68   0.0000       0.071593         1.9481
  69   0.0000       0.105235         2.8636
  70   0.0000       0.122305         3.3281
  71   0.0000       0.123943         3.3726

MULLIKEN ATOMIC CHARGES
-----------------------
   0 S :    0.104027
   1 C :   -0.107428
   2 C :   -0.061491
   3 C :    0.027752
   4 C :   -0.127354
   5 H :   -0.006837
   6 C :    0.058436
   7 H :    0.017505
   8 H :    0.016364
   9 C :   -0.074999
  10 H :    0.033932
  11 H :    0.011553
  12 C :   -0.059931
  13 H :    0.035498
  14 H :    0.053639
  15 H :    0.030224
  16 S :    0.099526
  17 C :   -0.075997
  18 C :   -0.016245
  19 C :   -0.047288
  20 C :   -0.151974
  21 H :    0.013058
  22 C :    0.049133
  23 H :    0.030828
  24 H :    0.014435
  25 C :   -0.072997
  26 H :    0.030358
  27 H :    0.023829
  28 C :   -0.029358
  29 H :    0.023337
  30 H :    0.024337
  31 H :    0.041942
  32 H :    0.044195
  33 H :    0.047988
Sum of atomic charges:   -0.0000000

LOEWDIN ATOMIC CHARGES
----------------------
   0 S :    0.406277
   1 C :   -0.183000
   2 C :   -0.059435
   3 C :   -0.052607
   4 C :   -0.195353
   5 H :    0.022228
   6 C :   -0.036564
   7 H :    0.028373
   8 H :    0.028789
   9 C :   -0.049192
  10 H :    0.027567
  11 H :    0.019427
  12 C :   -0.075680
  13 H :    0.028645
  14 H :    0.034836
  15 H :    0.029110
  16 S :    0.401017
  17 C :   -0.179874
  18 C :   -0.068646
  19 C :   -0.058072
  20 C :   -0.196189
  21 H :    0.030576
  22 C :   -0.032823
  23 H :    0.032736
  24 H :    0.027253
  25 C :   -0.039391
  26 H :    0.025111
  27 H :    0.017633
  28 C :   -0.061352
  29 H :    0.025517
  30 H :    0.022117
  31 H :    0.028556
  32 H :    0.027253
  33 H :    0.025157

  Mayer bond orders larger than 0.100000
B(  0-S ,  1-C ) :   1.1417 B(  0-S ,  4-C ) :   1.1492 B(  1-C ,  2-C ) :   1.5678
B(  1-C ,  4-C ) :   0.1009 B(  1-C , 32-H ) :   0.9773 B(  2-C ,  3-C ) :   1.2721
B(  2-C ,  6-C ) :   1.0280 B(  3-C ,  4-C ) :   1.5223 B(  3-C ,  5-H ) :   1.0015
B(  4-C , 20-C ) :   1.0768 B(  6-C ,  7-H ) :   0.9393 B(  6-C ,  8-H ) :   0.9425
B(  6-C ,  9-C ) :   1.0541 B(  9-C , 10-H ) :   0.9580 B(  9-C , 11-H ) :   0.9482
B(  9-C , 12-C ) :   1.0789 B( 12-C , 13-H ) :   0.9733 B( 12-C , 14-H ) :   0.9735
B( 12-C , 15-H ) :   0.9697 B( 16-S , 17-C ) :   1.1430 B( 16-S , 20-C ) :   1.1281
B( 17-C , 18-C ) :   1.6270 B( 17-C , 33-H ) :   0.9679 B( 18-C , 19-C ) :   1.2280
B( 18-C , 21-H ) :   0.9928 B( 19-C , 20-C ) :   1.6016 B( 19-C , 22-C ) :   1.0484
B( 22-C , 23-H ) :   0.9433 B( 22-C , 24-H ) :   0.9241 B( 22-C , 25-C ) :   1.0606
B( 25-C , 26-H ) :   0.9510 B( 25-C , 27-H ) :   0.9627 B( 25-C , 28-C ) :   1.0734
B( 28-C , 29-H ) :   0.9783 B( 28-C , 30-H ) :   0.9703 B( 28-C , 31-H ) :   0.9744

Dispersion correction           -0.013959112
FINAL SINGLE POINT ENERGY     -1339.867707422600

DIPOLE MOMENT
-------------
                                X             Y             Z
Electronic contribution:    -16.12149      26.01363      11.08064
Nuclear contribution   :     16.32952     -26.53269     -11.43527
                        -----------------------------------------
Total Dipole Moment    :      0.20803      -0.51906      -0.35463
                        -----------------------------------------
Magnitude (a.u.)       :      0.66217
Magnitude (Debye)      :      1.68309

Rotational constants in cm-1:     0.017374     0.009518     0.006445
Rotational constants in MHz :   520.847148   285.335802   193.203036

                             ****ORCA TERMINATED NORMALLY****
TOTAL RUN TIME: 0 days 0 hours 0 minutes 28 seconds 853 msec
