                         Program Version 4.2.1 -  RELEASE  -
|  1> ! wB97X-D3 SP def2-SVP
|  2> %pal
|  3> nprocs 16
|  4> end
|  5>
|  6> * xyz 0 1
|  7> S 	 1.3083 	 -5.58794 	 80.226
|  8> C 	 1.49131 	 -3.81045 	 80.1404
|  9> C 	 2.76696 	 -3.39195 	 80.4358
| 10> C 	 3.63784 	 -4.5269 	 80.4349
| 11> C 	 3.00715 	 -5.74427 	 80.178
| 12> H 	 4.72832 	 -4.42466 	 80.4971
| 13> C 	 3.19279 	 -1.91213 	 80.4894
| 14> H 	 3.00667 	 -1.41731 	 79.4977
| 15> H 	 4.19645 	 -1.98887 	 80.7281
| 16> C 	 2.45713 	 -1.14367 	 81.5613
| 17> H 	 2.43618 	 -0.145275 	 81.1171
| 18> H 	 1.34598 	 -1.46703 	 81.6994
| 19> C 	 3.29299 	 -1.22418 	 82.8837
| 20> H 	 3.67905 	 -2.18881 	 83.1401
| 21> H 	 4.22668 	 -0.629997 	 82.723
| 22> H 	 2.83355 	 -0.566188 	 83.6401
| 23> S 	 3.4264 	 -7.73102 	 78.2711
| 24> C 	 4.65522 	 -8.94438 	 78.6252
| 25> C 	 5.12894 	 -8.76927 	 79.9423
| 26> C 	 4.47013 	 -7.73957 	 80.6776
| 27> C 	 3.67854 	 -6.99199 	 79.9124
| 28> H 	 5.89221 	 -9.47762 	 80.2493
| 29> C 	 4.61085 	 -7.48194 	 82.08
| 30> H 	 3.927 	 -8.16395 	 82.5398
| 31> H 	 4.15155 	 -6.50226 	 82.4214
| 32> C 	 6.03439 	 -7.46945 	 82.6742
| 33> H 	 6.59154 	 -6.75397 	 82.1725
| 34> H 	 6.60513 	 -8.32254 	 82.5248
| 35> C 	 6.00282 	 -7.17775 	 84.2523
| 36> H 	 5.36904 	 -6.38799 	 84.518
| 37> H 	 7.08271 	 -7.03025 	 84.4637
| 38> H 	 5.65225 	 -8.11024 	 84.7007
| 39> H 	 0.712835 	 -3.08041 	 80.0341
| 40> H 	 5.16709 	 -9.31327 	 77.7212
| 41> *
| 42>
| 43>                          ****END OF INPUT****

CARTESIAN COORDINATES (ANGSTROEM)
---------------------------------
  S      1.308300   -5.587940   80.226000
  C      1.491310   -3.810450   80.140400
  C      2.766960   -3.391950   80.435800
  C      3.637840   -4.526900   80.434900
  C      3.007150   -5.744270   80.178000
  H      4.728320   -4.424660   80.497100
  C      3.192790   -1.912130   80.489400
  H      3.006670   -1.417310   79.497700
  H      4.196450   -1.988870   80.728100
  C      2.457130   -1.143670   81.561300
  H      2.436180   -0.145275   81.117100
  H      1.345980   -1.467030   81.699400
  C      3.292990   -1.224180   82.883700
  H      3.679050   -2.188810   83.140100
  H      4.226680   -0.629997   82.723000
  H      2.833550   -0.566188   83.640100
  S      3.426400   -7.731020   78.271100
  C      4.655220   -8.944380   78.625200
  C      5.128940   -8.769270   79.942300
  C      4.470130   -7.739570   80.677600
  C      3.678540   -6.991990   79.912400
  H      5.892210   -9.477620   80.249300
  C      4.610850   -7.481940   82.080000
  H      3.927000   -8.163950   82.539800
  H      4.151550   -6.502260   82.421400
  C      6.034390   -7.469450   82.674200
  H      6.591540   -6.753970   82.172500
  H      6.605130   -8.322540   82.524800
  C      6.002820   -7.177750   84.252300
  H      5.369040   -6.387990   84.518000
  H      7.082710   -7.030250   84.463700
  H      5.652250   -8.110240   84.700700
  H      0.712835   -3.080410   80.034100
  H      5.167090   -9.313270   77.721200

 Total Charge           Charge          ....    0
 Multiplicity           Mult            ....    1
 Number of Electrons    NEL             ....  134
 Basis Dimension        Dim             ....  322

ORBITAL ENERGIES
----------------

  NO   OCC          E(Eh)            E(eV)
   0   2.0000     -88.967112     -2420.9182
   1   2.0000     -88.956615     -2420.6326
   2   2.0000     -10.323623      -280.9201
   3   2.0000     -10.321651      -280.8664
   4   2.0000     -10.320418      -280.8329
   5   2.0000     -10.308550      -280.5099
   6   2.0000     -10.300147      -280.2813
   7   2.0000     -10.297546      -280.2105
   8   2.0000     -10.295680      -280.1597
   9   2.0000     -10.295661      -280.1592
  10   2.0000     -10.294275      -280.1215
  11   2.0000     -10.291615      -280.0491
  12   2.0000     -10.285632      -279.8863
  13   2.0000     -10.284625      -279.8589
  14   2.0000     -10.280881      -279.7570
  15   2.0000     -10.279365      -279.7157
  16   2.0000      -8.081828      -219.9177
  17   2.0000      -8.071011      -219.6234
  18   2.0000      -6.040298      -164.3649
  19   2.0000      -6.036535      -164.2625
  20   2.0000      -6.032445      -164.1512
  21   2.0000      -6.029458      -164.0699
  22   2.0000      -6.025640      -163.9660
  23   2.0000      -6.021773      -163.8608
  24   2.0000      -1.007409       -27.4130
  25   2.0000      -0.982470       -26.7344
  26   2.0000      -0.916923       -24.9507
  27   2.0000      -0.910593       -24.7785
  28   2.0000      -0.867099       -23.5950
  29   2.0000      -0.852088       -23.1865
  30   2.0000      -0.840496       -22.8710
  31   2.0000      -0.806443       -21.9444
  32   2.0000      -0.783737       -21.3266
  33   2.0000      -0.773629       -21.0515
  34   2.0000      -0.716441       -19.4954
  35   2.0000      -0.708212       -19.2714
  36   2.0000      -0.695581       -18.9277
  37   2.0000      -0.660138       -17.9633
  38   2.0000      -0.632894       -17.2219
  39   2.0000      -0.612717       -16.6729
  40   2.0000      -0.599134       -16.3033
  41   2.0000      -0.570345       -15.5199
  42   2.0000      -0.566508       -15.4155
  43   2.0000      -0.561942       -15.2912
  44   2.0000      -0.540543       -14.7089
  45   2.0000      -0.531854       -14.4725
  46   2.0000      -0.517875       -14.0921
  47   2.0000      -0.512176       -13.9370
  48   2.0000      -0.503973       -13.7138
  49   2.0000      -0.494506       -13.4562
  50   2.0000      -0.490153       -13.3377
  51   2.0000      -0.477668       -12.9980
  52   2.0000      -0.469694       -12.7810
  53   2.0000      -0.463583       -12.6147
  54   2.0000      -0.455690       -12.4000
  55   2.0000      -0.445127       -12.1125
  56   2.0000      -0.442361       -12.0372
  57   2.0000      -0.439062       -11.9475
  58   2.0000      -0.435184       -11.8420
  59   2.0000      -0.423152       -11.5146
  60   2.0000      -0.422077       -11.4853
  61   2.0000      -0.412926       -11.2363
  62   2.0000      -0.408988       -11.1291
  63   2.0000      -0.334014        -9.0890
  64   2.0000      -0.332887        -9.0583
  65   2.0000      -0.325769        -8.8646
  66   2.0000      -0.293421        -7.9844
  67   0.0000       0.031550         0.8585
  68   0.0000       0.053421         1.4537
  69   0.0000       0.106804         2.9063
  70   0.0000       0.122313         3.3283
  71   0.0000       0.129311         3.5187

MULLIKEN ATOMIC CHARGES
-----------------------
   0 S :    0.127391
   1 C :   -0.120727
   2 C :   -0.109681
   3 C :    0.035448
   4 C :   -0.181382
   5 H :    0.012566
   6 C :    0.091155
   7 H :    0.056932
   8 H :   -0.002690
   9 C :   -0.099983
  10 H :    0.029196
  11 H :    0.053421
  12 C :   -0.050836
  13 H :    0.041680
  14 H :    0.021029
  15 H :    0.041383
  16 S :    0.075050
  17 C :   -0.116295
  18 C :   -0.054508
  19 C :    0.035953
  20 C :   -0.171404
  21 H :    0.028541
  22 C :    0.050017
  23 H :    0.028205
  24 H :    0.032008
  25 C :   -0.062295
  26 H :    0.008984
  27 H :    0.011045
  28 C :   -0.037397
  29 H :    0.029926
  30 H :    0.042460
  31 H :    0.035356
  32 H :    0.030372
  33 H :    0.089078
Sum of atomic charges:    0.0000000

LOEWDIN ATOMIC CHARGES
----------------------
   0 S :    0.410487
   1 C :   -0.184385
   2 C :   -0.062937
   3 C :   -0.066002
   4 C :   -0.209733
   5 H :    0.030027
   6 C :   -0.024197
   7 H :    0.042663
   8 H :    0.018067
   9 C :   -0.047394
  10 H :    0.024620
  11 H :    0.032403
  12 C :   -0.070071
  13 H :    0.023934
  14 H :    0.029854
  15 H :    0.031088
  16 S :    0.360275
  17 C :   -0.185038
  18 C :   -0.067063
  19 C :   -0.060823
  20 C :   -0.172667
  21 H :    0.032447
  22 C :   -0.037961
  23 H :    0.035033
  24 H :    0.040445
  25 C :   -0.026321
  26 H :    0.013227
  27 H :    0.011878
  28 C :   -0.052354
  29 H :    0.015106
  30 H :    0.032740
  31 H :    0.026994
  32 H :    0.018926
  33 H :    0.036731

  Mayer bond orders larger than 0.100000
B(  0-S ,  1-C ) :   1.1263 B(  0-S ,  4-C ) :   1.1630 B(  1-C ,  2-C ) :   1.6233
B(  1-C , 32-H ) :   0.9669 B(  2-C ,  3-C ) :   1.2521 B(  2-C ,  6-C ) :   1.0070
B(  3-C ,  4-C ) :   1.5593 B(  3-C ,  5-H ) :   0.9906 B(  4-C , 20-C ) :   1.0363
B(  6-C ,  7-H ) :   0.9470 B(  6-C ,  8-H ) :   0.9356 B(  6-C ,  9-C ) :   1.0532
B(  9-C , 10-H ) :   0.9568 B(  9-C , 11-H ) :   0.9609 B(  9-C , 12-C ) :   1.0695
B( 12-C , 13-H ) :   0.9797 B( 12-C , 14-H ) :   0.9699 B( 12-C , 15-H ) :   0.9730
B( 16-S , 17-C ) :   1.1554 B( 16-S , 20-C ) :   1.1099 B( 17-C , 18-C ) :   1.6183
B( 17-C , 20-C ) :   0.1006 B( 17-C , 33-H ) :   0.9575 B( 18-C , 19-C ) :   1.1843
B( 18-C , 21-H ) :   0.9930 B( 19-C , 20-C ) :   1.6387 B( 19-C , 22-C ) :   1.0628
B( 22-C , 23-H ) :   0.9146 B( 22-C , 24-H ) :   0.9257 B( 22-C , 25-C ) :   1.0484
B( 25-C , 26-H ) :   0.9603 B( 25-C , 27-H ) :   0.9550 B( 25-C , 28-C ) :   1.0749
B( 28-C , 29-H ) :   0.9798 B( 28-C , 30-H ) :   0.9776 B( 28-C , 31-H ) :   0.9797

Dispersion correction           -0.014069889
FINAL SINGLE POINT ENERGY     -1339.835499780361

DIPOLE MOMENT
-------------
                                X             Y             Z
Electronic contribution:    -12.70964     -15.42259     -21.32043
Nuclear contribution   :     13.27768      15.86221      21.68139
                        -----------------------------------------
Total Dipole Moment    :      0.56804       0.43962       0.36096
                        -----------------------------------------
Magnitude (a.u.)       :      0.80388
Magnitude (Debye)      :      2.04330

Rotational constants in cm-1:     0.017714     0.008903     0.006590
Rotational constants in MHz :   531.064514   266.902956   197.569969

                             ****ORCA TERMINATED NORMALLY****
TOTAL RUN TIME: 0 days 0 hours 0 minutes 33 seconds 275 msec
