                         Program Version 4.2.1 -  RELEASE  -
|  1> ! wB97X-D3 SP def2-SVP
|  2> %pal
|  3> nprocs 16
|  4> end
|  5>
|  6> * xyz 0 1
|  7> S 	 -39.2801 	 40.66 	 94.6117
|  8> C 	 -40.8967 	 40.7013 	 93.9743
|  9> C 	 -41.5864 	 39.5129 	 94.2698
| 10> C 	 -40.6677 	 38.5538 	 94.8194
| 11> C 	 -39.4239 	 38.9782 	 95.2175
| 12> H 	 -40.9221 	 37.5365 	 95.1143
| 13> C 	 -43.0626 	 39.2878 	 93.965
| 14> H 	 -43.5971 	 39.874 	 94.6722
| 15> H 	 -43.3192 	 38.2813 	 94.1393
| 16> C 	 -43.4632 	 39.6373 	 92.5177
| 17> H 	 -43.493 	 40.7049 	 92.3428
| 18> H 	 -42.8279 	 39.1147 	 91.8422
| 19> C 	 -44.947 	 39.193 	 92.3038
| 20> H 	 -45.4333 	 39.4455 	 91.3275
| 21> H 	 -45.0068 	 38.1325 	 92.56
| 22> H 	 -45.6362 	 39.7489 	 92.8951
| 23> S 	 -36.8698 	 38.0742 	 95.1078
| 24> C 	 -36.1388 	 37.464 	 96.5833
| 25> C 	 -37.1295 	 37.2221 	 97.5364
| 26> C 	 -38.4292 	 37.6394 	 97.1616
| 27> C 	 -38.3695 	 38.3226 	 95.9582
| 28> H 	 -36.835 	 36.7196 	 98.3403
| 29> C 	 -39.5806 	 37.4158 	 98.1349
| 30> H 	 -39.3068 	 36.502 	 98.6743
| 31> H 	 -40.5219 	 37.2539 	 97.5958
| 32> C 	 -39.8345 	 38.6428 	 99.0881
| 33> H 	 -40.275 	 39.4922 	 98.5046
| 34> H 	 -38.9499 	 39.0033 	 99.6376
| 35> C 	 -40.8882 	 38.2758 	 100.169
| 36> H 	 -41.8566 	 38.1681 	 99.6776
| 37> H 	 -40.9947 	 39.1571 	 100.87
| 38> H 	 -40.7144 	 37.3339 	 100.746
| 39> H 	 -41.5005 	 41.5291 	 93.5267
| 40> H 	 -35.1233 	 37.1524 	 96.7282
| 41> *
| 42>
| 43>                          ****END OF INPUT****

CARTESIAN COORDINATES (ANGSTROEM)
---------------------------------
  S    -39.280100   40.660000   94.611700
  C    -40.896700   40.701300   93.974300
  C    -41.586400   39.512900   94.269800
  C    -40.667700   38.553800   94.819400
  C    -39.423900   38.978200   95.217500
  H    -40.922100   37.536500   95.114300
  C    -43.062600   39.287800   93.965000
  H    -43.597100   39.874000   94.672200
  H    -43.319200   38.281300   94.139300
  C    -43.463200   39.637300   92.517700
  H    -43.493000   40.704900   92.342800
  H    -42.827900   39.114700   91.842200
  C    -44.947000   39.193000   92.303800
  H    -45.433300   39.445500   91.327500
  H    -45.006800   38.132500   92.560000
  H    -45.636200   39.748900   92.895100
  S    -36.869800   38.074200   95.107800
  C    -36.138800   37.464000   96.583300
  C    -37.129500   37.222100   97.536400
  C    -38.429200   37.639400   97.161600
  C    -38.369500   38.322600   95.958200
  H    -36.835000   36.719600   98.340300
  C    -39.580600   37.415800   98.134900
  H    -39.306800   36.502000   98.674300
  H    -40.521900   37.253900   97.595800
  C    -39.834500   38.642800   99.088100
  H    -40.275000   39.492200   98.504600
  H    -38.949900   39.003300   99.637600
  C    -40.888200   38.275800  100.169000
  H    -41.856600   38.168100   99.677600
  H    -40.994700   39.157100  100.870000
  H    -40.714400   37.333900  100.746000
  H    -41.500500   41.529100   93.526700
  H    -35.123300   37.152400   96.728200

 Total Charge           Charge          ....    0
 Multiplicity           Mult            ....    1
 Number of Electrons    NEL             ....  134
 Basis Dimension        Dim             ....  322

ORBITAL ENERGIES
----------------

  NO   OCC          E(Eh)            E(eV)
   0   2.0000     -88.966690     -2420.9067
   1   2.0000     -88.963447     -2420.8185
   2   2.0000     -10.327824      -281.0344
   3   2.0000     -10.325296      -280.9656
   4   2.0000     -10.316619      -280.7295
   5   2.0000     -10.316562      -280.7279
   6   2.0000     -10.304576      -280.4018
   7   2.0000     -10.301794      -280.3261
   8   2.0000     -10.299533      -280.2646
   9   2.0000     -10.293995      -280.1139
  10   2.0000     -10.293425      -280.0983
  11   2.0000     -10.289531      -279.9924
  12   2.0000     -10.289025      -279.9786
  13   2.0000     -10.284031      -279.8427
  14   2.0000     -10.283791      -279.8362
  15   2.0000     -10.280441      -279.7450
  16   2.0000      -8.081434      -219.9070
  17   2.0000      -8.077456      -219.7987
  18   2.0000      -6.039929      -164.3548
  19   2.0000      -6.036050      -164.2493
  20   2.0000      -6.036035      -164.2489
  21   2.0000      -6.032095      -164.1417
  22   2.0000      -6.031946      -164.1376
  23   2.0000      -6.028273      -164.0376
  24   2.0000      -1.005597       -27.3637
  25   2.0000      -0.981413       -26.7056
  26   2.0000      -0.913025       -24.8447
  27   2.0000      -0.903091       -24.5743
  28   2.0000      -0.869486       -23.6599
  29   2.0000      -0.850698       -23.1487
  30   2.0000      -0.842411       -22.9232
  31   2.0000      -0.814251       -22.1569
  32   2.0000      -0.780467       -21.2376
  33   2.0000      -0.768239       -20.9048
  34   2.0000      -0.710203       -19.3256
  35   2.0000      -0.703198       -19.1350
  36   2.0000      -0.689980       -18.7753
  37   2.0000      -0.669864       -18.2279
  38   2.0000      -0.636825       -17.3289
  39   2.0000      -0.614863       -16.7313
  40   2.0000      -0.593714       -16.1558
  41   2.0000      -0.582311       -15.8455
  42   2.0000      -0.568891       -15.4803
  43   2.0000      -0.559437       -15.2231
  44   2.0000      -0.523521       -14.2457
  45   2.0000      -0.521650       -14.1948
  46   2.0000      -0.514612       -14.0033
  47   2.0000      -0.512032       -13.9331
  48   2.0000      -0.505494       -13.7552
  49   2.0000      -0.498612       -13.5679
  50   2.0000      -0.494724       -13.4621
  51   2.0000      -0.478935       -13.0325
  52   2.0000      -0.469667       -12.7803
  53   2.0000      -0.458348       -12.4723
  54   2.0000      -0.457090       -12.4380
  55   2.0000      -0.445263       -12.1162
  56   2.0000      -0.441760       -12.0209
  57   2.0000      -0.435005       -11.8371
  58   2.0000      -0.432384       -11.7658
  59   2.0000      -0.430162       -11.7053
  60   2.0000      -0.425793       -11.5864
  61   2.0000      -0.422922       -11.5083
  62   2.0000      -0.414369       -11.2756
  63   2.0000      -0.341142        -9.2830
  64   2.0000      -0.330729        -8.9996
  65   2.0000      -0.324668        -8.8347
  66   2.0000      -0.293783        -7.9942
  67   0.0000       0.027915         0.7596
  68   0.0000       0.064453         1.7539
  69   0.0000       0.105344         2.8666
  70   0.0000       0.125557         3.4166
  71   0.0000       0.139663         3.8004

MULLIKEN ATOMIC CHARGES
-----------------------
   0 S :    0.110281
   1 C :   -0.119392
   2 C :   -0.132640
   3 C :    0.043819
   4 C :   -0.178808
   5 H :    0.005143
   6 C :    0.115319
   7 H :    0.029392
   8 H :   -0.001289
   9 C :   -0.068688
  10 H :    0.030579
  11 H :    0.039974
  12 C :   -0.063106
  13 H :    0.036063
  14 H :    0.033913
  15 H :    0.014108
  16 S :    0.123276
  17 C :   -0.080108
  18 C :   -0.007364
  19 C :    0.013349
  20 C :   -0.178777
  21 H :   -0.039935
  22 C :    0.080389
  23 H :    0.027812
  24 H :    0.021599
  25 C :   -0.091316
  26 H :    0.051697
  27 H :    0.038874
  28 C :   -0.076201
  29 H :    0.026401
  30 H :    0.043758
  31 H :    0.040346
  32 H :    0.062283
  33 H :    0.049251
Sum of atomic charges:    0.0000000

LOEWDIN ATOMIC CHARGES
----------------------
   0 S :    0.395253
   1 C :   -0.211103
   2 C :   -0.067577
   3 C :   -0.067486
   4 C :   -0.191795
   5 H :    0.026743
   6 C :   -0.022395
   7 H :    0.031524
   8 H :    0.022237
   9 C :   -0.027875
  10 H :    0.021981
  11 H :    0.023907
  12 C :   -0.072051
  13 H :    0.031334
  14 H :    0.023733
  15 H :    0.018657
  16 S :    0.416215
  17 C :   -0.177437
  18 C :   -0.054244
  19 C :   -0.047155
  20 C :   -0.207090
  21 H :    0.006609
  22 C :   -0.027287
  23 H :    0.032965
  24 H :    0.030350
  25 C :   -0.038682
  26 H :    0.035721
  27 H :    0.024643
  28 C :   -0.076884
  29 H :    0.021143
  30 H :    0.032099
  31 H :    0.026141
  32 H :    0.041166
  33 H :    0.026641

  Mayer bond orders larger than 0.100000
B(  0-S ,  1-C ) :   1.1538 B(  0-S ,  4-C ) :   1.1275 B(  1-C ,  2-C ) :   1.5940
B(  1-C ,  4-C ) :   0.1041 B(  1-C , 32-H ) :   0.9607 B(  2-C ,  3-C ) :   1.2505
B(  2-C ,  6-C ) :   1.0175 B(  3-C ,  4-C ) :   1.5961 B(  3-C ,  5-H ) :   0.9863
B(  4-C , 20-C ) :   1.0402 B(  6-C ,  7-H ) :   0.9279 B(  6-C ,  8-H ) :   0.9435
B(  6-C ,  9-C ) :   1.0716 B(  9-C , 10-H ) :   0.9517 B(  9-C , 11-H ) :   0.9634
B(  9-C , 12-C ) :   1.0815 B( 12-C , 13-H ) :   0.9737 B( 12-C , 14-H ) :   0.9769
B( 12-C , 15-H ) :   0.9726 B( 16-S , 17-C ) :   1.1478 B( 16-S , 20-C ) :   1.1654
B( 17-C , 18-C ) :   1.6057 B( 17-C , 20-C ) :   0.1056 B( 17-C , 33-H ) :   0.9706
B( 18-C , 19-C ) :   1.2327 B( 18-C , 21-H ) :   1.0094 B( 19-C , 20-C ) :   1.5665
B( 19-C , 22-C ) :   1.0500 B( 22-C , 23-H ) :   0.9358 B( 22-C , 24-H ) :   0.9283
B( 22-C , 25-C ) :   1.0629 B( 25-C , 26-H ) :   0.9545 B( 25-C , 27-H ) :   0.9623
B( 25-C , 28-C ) :   1.0748 B( 28-C , 29-H ) :   0.9755 B( 28-C , 30-H ) :   0.9751
B( 28-C , 31-H ) :   0.9761

Dispersion correction           -0.013645769
FINAL SINGLE POINT ENERGY     -1339.865716056733

DIPOLE MOMENT
-------------
                                X             Y             Z
Electronic contribution:     27.15302       3.09090      -7.50965
Nuclear contribution   :    -27.74513      -3.40607       7.87664
                        -----------------------------------------
Total Dipole Moment    :     -0.59211      -0.31517       0.36699
                        -----------------------------------------
Magnitude (a.u.)       :      0.76460
Magnitude (Debye)      :      1.94345

Rotational constants in cm-1:     0.018893     0.007698     0.006209
Rotational constants in MHz :   566.408736   230.794568   186.151625

                             ****ORCA TERMINATED NORMALLY****
TOTAL RUN TIME: 0 days 0 hours 0 minutes 28 seconds 947 msec
