                         Program Version 4.2.1 -  RELEASE  -
|  1> ! wB97X-D3 SP def2-SVP
|  2> %pal
|  3> nprocs 16
|  4> end
|  5>
|  6> * xyz 0 1
|  7> S 	 11.0525 	 24.0557 	 54.3261
|  8> C 	 12.2341 	 24.2709 	 55.5613
|  9> C 	 13.471 	 24.1575 	 54.9991
| 10> C 	 13.4328 	 23.899 	 53.5613
| 11> C 	 12.1946 	 24.0329 	 52.9837
| 12> H 	 14.2775 	 23.7785 	 52.936
| 13> C 	 14.8255 	 24.1101 	 55.7431
| 14> H 	 14.763 	 24.6743 	 56.7601
| 15> H 	 15.5573 	 24.6723 	 55.1866
| 16> C 	 15.4041 	 22.6995 	 56.0004
| 17> H 	 14.6865 	 22.2236 	 56.6531
| 18> H 	 15.4717 	 22.0856 	 55.1482
| 19> C 	 16.7086 	 22.6709 	 56.7075
| 20> H 	 17.2347 	 21.8039 	 56.4034
| 21> H 	 17.3453 	 23.4865 	 56.3274
| 22> H 	 16.5237 	 22.5918 	 57.8133
| 23> S 	 12.5754 	 22.7653 	 50.6336
| 24> C 	 11.7802 	 23.3245 	 49.1861
| 25> C 	 10.8115 	 24.2494 	 49.4627
| 26> C 	 10.8409 	 24.6789 	 50.8324
| 27> C 	 11.8572 	 24.0524 	 51.572
| 28> H 	 10.1698 	 24.6724 	 48.7276
| 29> C 	 9.92956 	 25.7531 	 51.2566
| 30> H 	 9.75046 	 26.6058 	 50.6727
| 31> H 	 10.517 	 26.3306 	 52.0013
| 32> C 	 8.54309 	 25.3159 	 51.9087
| 33> H 	 7.99847 	 26.2426 	 52.2519
| 34> H 	 8.64119 	 24.7443 	 52.8589
| 35> C 	 7.71622 	 24.482 	 50.9904
| 36> H 	 6.79257 	 24.174 	 51.3909
| 37> H 	 8.25853 	 23.5399 	 50.759
| 38> H 	 7.50007 	 24.9865 	 50.0042
| 39> H 	 12.0028 	 24.4192 	 56.5801
| 40> H 	 11.8272 	 22.9424 	 48.2157
| 41> *
| 42>
| 43>                          ****END OF INPUT****

CARTESIAN COORDINATES (ANGSTROEM)
---------------------------------
  S     11.052500   24.055700   54.326100
  C     12.234100   24.270900   55.561300
  C     13.471000   24.157500   54.999100
  C     13.432800   23.899000   53.561300
  C     12.194600   24.032900   52.983700
  H     14.277500   23.778500   52.936000
  C     14.825500   24.110100   55.743100
  H     14.763000   24.674300   56.760100
  H     15.557300   24.672300   55.186600
  C     15.404100   22.699500   56.000400
  H     14.686500   22.223600   56.653100
  H     15.471700   22.085600   55.148200
  C     16.708600   22.670900   56.707500
  H     17.234700   21.803900   56.403400
  H     17.345300   23.486500   56.327400
  H     16.523700   22.591800   57.813300
  S     12.575400   22.765300   50.633600
  C     11.780200   23.324500   49.186100
  C     10.811500   24.249400   49.462700
  C     10.840900   24.678900   50.832400
  C     11.857200   24.052400   51.572000
  H     10.169800   24.672400   48.727600
  C      9.929560   25.753100   51.256600
  H      9.750460   26.605800   50.672700
  H     10.517000   26.330600   52.001300
  C      8.543090   25.315900   51.908700
  H      7.998470   26.242600   52.251900
  H      8.641190   24.744300   52.858900
  C      7.716220   24.482000   50.990400
  H      6.792570   24.174000   51.390900
  H      8.258530   23.539900   50.759000
  H      7.500070   24.986500   50.004200
  H     12.002800   24.419200   56.580100
  H     11.827200   22.942400   48.215700

 Total Charge           Charge          ....    0
 Multiplicity           Mult            ....    1
 Number of Electrons    NEL             ....  134
 Basis Dimension        Dim             ....  322

ORBITAL ENERGIES
----------------

  NO   OCC          E(Eh)            E(eV)
   0   2.0000     -88.969468     -2420.9823
   1   2.0000     -88.960851     -2420.7478
   2   2.0000     -10.331515      -281.1348
   3   2.0000     -10.331255      -281.1277
   4   2.0000     -10.313035      -280.6320
   5   2.0000     -10.311758      -280.5972
   6   2.0000     -10.305907      -280.4380
   7   2.0000     -10.304135      -280.3898
   8   2.0000     -10.298424      -280.2344
   9   2.0000     -10.292043      -280.0607
  10   2.0000     -10.290019      -280.0056
  11   2.0000     -10.288531      -279.9652
  12   2.0000     -10.286146      -279.9003
  13   2.0000     -10.275188      -279.6021
  14   2.0000     -10.275063      -279.5987
  15   2.0000     -10.271396      -279.4989
  16   2.0000      -8.084131      -219.9804
  17   2.0000      -8.075790      -219.7534
  18   2.0000      -6.042738      -164.4313
  19   2.0000      -6.038666      -164.3205
  20   2.0000      -6.034764      -164.2143
  21   2.0000      -6.034483      -164.2066
  22   2.0000      -6.030140      -164.0885
  23   2.0000      -6.026453      -163.9881
  24   2.0000      -1.009915       -27.4812
  25   2.0000      -0.988147       -26.8888
  26   2.0000      -0.910901       -24.7869
  27   2.0000      -0.906369       -24.6636
  28   2.0000      -0.878930       -23.9169
  29   2.0000      -0.851408       -23.1680
  30   2.0000      -0.844994       -22.9935
  31   2.0000      -0.820427       -22.3250
  32   2.0000      -0.782453       -21.2916
  33   2.0000      -0.770257       -20.9598
  34   2.0000      -0.709620       -19.3097
  35   2.0000      -0.694200       -18.8901
  36   2.0000      -0.687952       -18.7201
  37   2.0000      -0.671451       -18.2711
  38   2.0000      -0.645204       -17.5569
  39   2.0000      -0.616064       -16.7640
  40   2.0000      -0.604180       -16.4406
  41   2.0000      -0.573270       -15.5995
  42   2.0000      -0.569158       -15.4876
  43   2.0000      -0.548415       -14.9231
  44   2.0000      -0.540574       -14.7098
  45   2.0000      -0.523378       -14.2418
  46   2.0000      -0.520508       -14.1638
  47   2.0000      -0.517389       -14.0789
  48   2.0000      -0.508729       -13.8432
  49   2.0000      -0.497485       -13.5373
  50   2.0000      -0.494414       -13.4537
  51   2.0000      -0.481265       -13.0959
  52   2.0000      -0.472237       -12.8502
  53   2.0000      -0.468108       -12.7379
  54   2.0000      -0.459743       -12.5102
  55   2.0000      -0.446674       -12.1546
  56   2.0000      -0.441602       -12.0166
  57   2.0000      -0.431880       -11.7521
  58   2.0000      -0.426238       -11.5985
  59   2.0000      -0.416624       -11.3369
  60   2.0000      -0.414802       -11.2873
  61   2.0000      -0.411838       -11.2067
  62   2.0000      -0.402578       -10.9547
  63   2.0000      -0.355426        -9.6716
  64   2.0000      -0.332403        -9.0451
  65   2.0000      -0.322668        -8.7802
  66   2.0000      -0.294725        -8.0199
  67   0.0000       0.021972         0.5979
  68   0.0000       0.080600         2.1933
  69   0.0000       0.105177         2.8620
  70   0.0000       0.120078         3.2675
  71   0.0000       0.129384         3.5207

MULLIKEN ATOMIC CHARGES
-----------------------
   0 S :    0.093338
   1 C :   -0.092353
   2 C :   -0.067965
   3 C :    0.019745
   4 C :   -0.118796
   5 H :   -0.001742
   6 C :    0.022802
   7 H :    0.032344
   8 H :    0.019031
   9 C :   -0.052853
  10 H :    0.016265
  11 H :    0.015825
  12 C :   -0.031435
  13 H :    0.018662
  14 H :    0.028993
  15 H :    0.048002
  16 S :    0.110713
  17 C :   -0.046360
  18 C :   -0.026466
  19 C :   -0.025661
  20 C :   -0.138257
  21 H :    0.010720
  22 C :    0.032979
  23 H :    0.016060
  24 H :    0.021896
  25 C :   -0.084611
  26 H :    0.031371
  27 H :    0.035782
  28 C :   -0.046632
  29 H :    0.022308
  30 H :    0.041478
  31 H :    0.025186
  32 H :    0.037256
  33 H :    0.032374
Sum of atomic charges:   -0.0000000

LOEWDIN ATOMIC CHARGES
----------------------
   0 S :    0.412864
   1 C :   -0.191183
   2 C :   -0.063903
   3 C :   -0.062338
   4 C :   -0.190638
   5 H :    0.020155
   6 C :   -0.034640
   7 H :    0.036990
   8 H :    0.021006
   9 C :   -0.043801
  10 H :    0.023695
  11 H :    0.016911
  12 C :   -0.066438
  13 H :    0.023082
  14 H :    0.027772
  15 H :    0.035244
  16 S :    0.420412
  17 C :   -0.177275
  18 C :   -0.059432
  19 C :   -0.052920
  20 C :   -0.194863
  21 H :    0.028426
  22 C :   -0.046217
  23 H :    0.027066
  24 H :    0.039965
  25 C :   -0.043288
  26 H :    0.027204
  27 H :    0.018801
  28 C :   -0.072058
  29 H :    0.018448
  30 H :    0.030668
  31 H :    0.024779
  32 H :    0.025036
  33 H :    0.020469

  Mayer bond orders larger than 0.100000
B(  0-S ,  1-C ) :   1.1346 B(  0-S ,  4-C ) :   1.1302 B(  1-C ,  2-C ) :   1.6112
B(  1-C , 32-H ) :   0.9819 B(  2-C ,  3-C ) :   1.2285 B(  2-C ,  6-C ) :   1.0297
B(  3-C ,  4-C ) :   1.5623 B(  3-C ,  5-H ) :   1.0007 B(  4-C , 20-C ) :   1.0711
B(  6-C ,  7-H ) :   0.9485 B(  6-C ,  8-H ) :   0.9377 B(  6-C ,  9-C ) :   1.0614
B(  9-C , 10-H ) :   0.9546 B(  9-C , 11-H ) :   0.9579 B(  9-C , 12-C ) :   1.0899
B( 12-C , 13-H ) :   0.9713 B( 12-C , 14-H ) :   0.9711 B( 12-C , 15-H ) :   0.9771
B( 16-S , 17-C ) :   1.1473 B( 16-S , 20-C ) :   1.1431 B( 17-C , 18-C ) :   1.6080
B( 17-C , 33-H ) :   0.9709 B( 18-C , 19-C ) :   1.2405 B( 18-C , 21-H ) :   0.9948
B( 19-C , 20-C ) :   1.5671 B( 19-C , 22-C ) :   1.0465 B( 22-C , 23-H ) :   0.9473
B( 22-C , 24-H ) :   0.9254 B( 22-C , 25-C ) :   1.0591 B( 25-C , 26-H ) :   0.9543
B( 25-C , 27-H ) :   0.9519 B( 25-C , 28-C ) :   1.0867 B( 28-C , 29-H ) :   0.9706
B( 28-C , 30-H ) :   0.9674 B( 28-C , 31-H ) :   0.9717

Dispersion correction           -0.014474258
FINAL SINGLE POINT ENERGY     -1339.863712090799

DIPOLE MOMENT
-------------
                                X             Y             Z
Electronic contribution:     -2.20959      -2.83766      -9.08959
Nuclear contribution   :      2.28833       2.92298       9.09173
                        -----------------------------------------
Total Dipole Moment    :      0.07874       0.08532       0.00214
                        -----------------------------------------
Magnitude (a.u.)       :      0.11612
Magnitude (Debye)      :      0.29516

Rotational constants in cm-1:     0.025717     0.007409     0.006076
Rotational constants in MHz :   770.982767   222.114477   182.141023

                             ****ORCA TERMINATED NORMALLY****
TOTAL RUN TIME: 0 days 0 hours 0 minutes 34 seconds 411 msec
