                         Program Version 4.2.1 -  RELEASE  -
|  1> ! wB97X-D3 SP def2-SVP
|  2> %pal
|  3> nprocs 16
|  4> end
|  5>
|  6> * xyz 0 1
|  7> S 	 0.487777 	 -13.2445 	 58.3962
|  8> C 	 0.598908 	 -12.2345 	 59.8044
|  9> C 	 1.66137 	 -12.6073 	 60.6294
| 10> C 	 2.45369 	 -13.6463 	 60.0516
| 11> C 	 1.94332 	 -14.2183 	 58.8607
| 12> H 	 3.40812 	 -14.0657 	 60.3737
| 13> C 	 2.00951 	 -11.9558 	 61.9568
| 14> H 	 1.92091 	 -12.7865 	 62.7002
| 15> H 	 1.25234 	 -11.2108 	 62.2162
| 16> C 	 3.42638 	 -11.4196 	 62.1698
| 17> H 	 4.26039 	 -12.1092 	 61.8574
| 18> H 	 3.59904 	 -10.543 	 61.4566
| 19> C 	 3.67861 	 -11.036 	 63.6064
| 20> H 	 3.64298 	 -11.8719 	 64.2366
| 21> H 	 4.61582 	 -10.608 	 63.796
| 22> H 	 2.87396 	 -10.3869 	 64.0591
| 23> S 	 2.40817 	 -15.288 	 56.4303
| 24> C 	 3.35899 	 -16.758 	 56.3432
| 25> C 	 3.53398 	 -17.3765 	 57.5745
| 26> C 	 3.13495 	 -16.5015 	 58.614
| 27> C 	 2.4578 	 -15.3569 	 58.1768
| 28> H 	 4.04151 	 -18.3045 	 57.61
| 29> C 	 3.36829 	 -16.8704 	 60.0168
| 30> H 	 3.16346 	 -17.9109 	 60.1131
| 31> H 	 2.68759 	 -16.3986 	 60.719
| 32> C 	 4.85455 	 -16.6521 	 60.545
| 33> H 	 5.03929 	 -15.6357 	 60.6979
| 34> H 	 5.63102 	 -16.974 	 59.8296
| 35> C 	 5.11391 	 -17.2687 	 61.8751
| 36> H 	 5.07325 	 -18.3422 	 61.8948
| 37> H 	 4.38413 	 -16.8499 	 62.6353
| 38> H 	 6.10843 	 -16.9263 	 62.1655
| 39> H 	 -0.0643141 	 -11.4077 	 59.958
| 40> H 	 3.71851 	 -17.1013 	 55.431
| 41> *
| 42>
| 43>                          ****END OF INPUT****

CARTESIAN COORDINATES (ANGSTROEM)
---------------------------------
  S      0.487777  -13.244500   58.396200
  C      0.598908  -12.234500   59.804400
  C      1.661370  -12.607300   60.629400
  C      2.453690  -13.646300   60.051600
  C      1.943320  -14.218300   58.860700
  H      3.408120  -14.065700   60.373700
  C      2.009510  -11.955800   61.956800
  H      1.920910  -12.786500   62.700200
  H      1.252340  -11.210800   62.216200
  C      3.426380  -11.419600   62.169800
  H      4.260390  -12.109200   61.857400
  H      3.599040  -10.543000   61.456600
  C      3.678610  -11.036000   63.606400
  H      3.642980  -11.871900   64.236600
  H      4.615820  -10.608000   63.796000
  H      2.873960  -10.386900   64.059100
  S      2.408170  -15.288000   56.430300
  C      3.358990  -16.758000   56.343200
  C      3.533980  -17.376500   57.574500
  C      3.134950  -16.501500   58.614000
  C      2.457800  -15.356900   58.176800
  H      4.041510  -18.304500   57.610000
  C      3.368290  -16.870400   60.016800
  H      3.163460  -17.910900   60.113100
  H      2.687590  -16.398600   60.719000
  C      4.854550  -16.652100   60.545000
  H      5.039290  -15.635700   60.697900
  H      5.631020  -16.974000   59.829600
  C      5.113910  -17.268700   61.875100
  H      5.073250  -18.342200   61.894800
  H      4.384130  -16.849900   62.635300
  H      6.108430  -16.926300   62.165500
  H     -0.064314  -11.407700   59.958000
  H      3.718510  -17.101300   55.431000

 Total Charge           Charge          ....    0
 Multiplicity           Mult            ....    1
 Number of Electrons    NEL             ....  134
 Basis Dimension        Dim             ....  322

ORBITAL ENERGIES
----------------

  NO   OCC          E(Eh)            E(eV)
   0   2.0000     -88.965570     -2420.8762
   1   2.0000     -88.964922     -2420.8586
   2   2.0000     -10.333339      -281.1845
   3   2.0000     -10.325915      -280.9824
   4   2.0000     -10.317117      -280.7430
   5   2.0000     -10.314159      -280.6625
   6   2.0000     -10.305011      -280.4136
   7   2.0000     -10.304500      -280.3997
   8   2.0000     -10.297150      -280.1997
   9   2.0000     -10.295584      -280.1571
  10   2.0000     -10.295238      -280.1477
  11   2.0000     -10.295220      -280.1472
  12   2.0000     -10.287592      -279.9396
  13   2.0000     -10.284861      -279.8653
  14   2.0000     -10.280494      -279.7465
  15   2.0000     -10.273301      -279.5507
  16   2.0000      -8.080695      -219.8869
  17   2.0000      -8.078797      -219.8352
  18   2.0000      -6.039075      -164.3316
  19   2.0000      -6.037391      -164.2858
  20   2.0000      -6.035216      -164.2266
  21   2.0000      -6.033393      -164.1770
  22   2.0000      -6.031502      -164.1255
  23   2.0000      -6.029564      -164.0728
  24   2.0000      -1.005706       -27.3667
  25   2.0000      -0.979435       -26.6518
  26   2.0000      -0.913911       -24.8688
  27   2.0000      -0.910540       -24.7770
  28   2.0000      -0.875252       -23.8168
  29   2.0000      -0.862344       -23.4656
  30   2.0000      -0.846852       -23.0440
  31   2.0000      -0.815174       -22.1820
  32   2.0000      -0.782480       -21.2924
  33   2.0000      -0.769393       -20.9362
  34   2.0000      -0.709963       -19.3191
  35   2.0000      -0.700227       -19.0541
  36   2.0000      -0.695922       -18.9370
  37   2.0000      -0.671653       -18.2766
  38   2.0000      -0.641867       -17.4661
  39   2.0000      -0.618835       -16.8393
  40   2.0000      -0.602298       -16.3894
  41   2.0000      -0.571648       -15.5553
  42   2.0000      -0.567600       -15.4452
  43   2.0000      -0.556619       -15.1464
  44   2.0000      -0.532770       -14.4974
  45   2.0000      -0.529439       -14.4068
  46   2.0000      -0.517377       -14.0785
  47   2.0000      -0.510884       -13.9019
  48   2.0000      -0.506190       -13.7741
  49   2.0000      -0.504532       -13.7290
  50   2.0000      -0.501852       -13.6561
  51   2.0000      -0.478510       -13.0209
  52   2.0000      -0.468367       -12.7449
  53   2.0000      -0.466297       -12.6886
  54   2.0000      -0.460223       -12.5233
  55   2.0000      -0.456501       -12.4220
  56   2.0000      -0.444580       -12.0976
  57   2.0000      -0.439893       -11.9701
  58   2.0000      -0.433074       -11.7845
  59   2.0000      -0.428841       -11.6694
  60   2.0000      -0.423723       -11.5301
  61   2.0000      -0.415449       -11.3049
  62   2.0000      -0.410873       -11.1804
  63   2.0000      -0.356752        -9.7077
  64   2.0000      -0.332638        -9.0515
  65   2.0000      -0.325915        -8.8686
  66   2.0000      -0.278868        -7.5884
  67   0.0000       0.020590         0.5603
  68   0.0000       0.073211         1.9922
  69   0.0000       0.109204         2.9716
  70   0.0000       0.117356         3.1934
  71   0.0000       0.122139         3.3236

MULLIKEN ATOMIC CHARGES
-----------------------
   0 S :    0.097859
   1 C :   -0.123622
   2 C :   -0.048362
   3 C :    0.003084
   4 C :   -0.131899
   5 H :   -0.001566
   6 C :    0.062078
   7 H :    0.033428
   8 H :    0.022051
   9 C :   -0.104939
  10 H :    0.036620
  11 H :    0.038562
  12 C :   -0.011485
  13 H :    0.008214
  14 H :    0.023881
  15 H :    0.028047
  16 S :    0.101165
  17 C :   -0.072846
  18 C :   -0.004707
  19 C :   -0.025576
  20 C :   -0.133588
  21 H :    0.011654
  22 C :    0.050536
  23 H :    0.011175
  24 H :    0.024539
  25 C :   -0.064884
  26 H :    0.012296
  27 H :    0.028592
  28 C :   -0.045848
  29 H :    0.033010
  30 H :    0.032864
  31 H :    0.031301
  32 H :    0.045614
  33 H :    0.032752
Sum of atomic charges:    0.0000000

LOEWDIN ATOMIC CHARGES
----------------------
   0 S :    0.380777
   1 C :   -0.198895
   2 C :   -0.064728
   3 C :   -0.066567
   4 C :   -0.176444
   5 H :    0.029021
   6 C :   -0.033917
   7 H :    0.036888
   8 H :    0.030773
   9 C :   -0.049909
  10 H :    0.028874
  11 H :    0.029365
  12 C :   -0.063614
  13 H :    0.017532
  14 H :    0.021031
  15 H :    0.031151
  16 S :    0.406785
  17 C :   -0.158466
  18 C :   -0.060206
  19 C :   -0.049431
  20 C :   -0.201089
  21 H :    0.030638
  22 C :   -0.032302
  23 H :    0.027843
  24 H :    0.029651
  25 C :   -0.036587
  26 H :    0.012634
  27 H :    0.026090
  28 C :   -0.062770
  29 H :    0.018952
  30 H :    0.030845
  31 H :    0.028417
  32 H :    0.025781
  33 H :    0.011876

  Mayer bond orders larger than 0.100000
B(  0-S ,  1-C ) :   1.1404 B(  0-S ,  4-C ) :   1.1274 B(  1-C ,  2-C ) :   1.5874
B(  1-C ,  4-C ) :   0.1012 B(  1-C , 32-H ) :   0.9715 B(  2-C ,  3-C ) :   1.2373
B(  2-C ,  6-C ) :   1.0286 B(  3-C ,  4-C ) :   1.5595 B(  3-C ,  5-H ) :   0.9906
B(  4-C , 20-C ) :   1.1031 B(  6-C ,  7-H ) :   0.9358 B(  6-C ,  8-H ) :   0.9424
B(  6-C ,  9-C ) :   1.0559 B(  9-C , 10-H ) :   0.9517 B(  9-C , 11-H ) :   0.9535
B(  9-C , 12-C ) :   1.0844 B( 12-C , 13-H ) :   0.9695 B( 12-C , 14-H ) :   0.9713
B( 12-C , 15-H ) :   0.9721 B( 16-S , 17-C ) :   1.1739 B( 16-S , 20-C ) :   1.1221
B( 17-C , 18-C ) :   1.5868 B( 17-C , 33-H ) :   0.9765 B( 18-C , 19-C ) :   1.2326
B( 18-C , 21-H ) :   1.0004 B( 19-C , 20-C ) :   1.5661 B( 19-C , 22-C ) :   1.0679
B( 22-C , 23-H ) :   0.9308 B( 22-C , 24-H ) :   0.9299 B( 22-C , 25-C ) :   1.0477
B( 25-C , 26-H ) :   0.9495 B( 25-C , 27-H ) :   0.9534 B( 25-C , 28-C ) :   1.0953
B( 28-C , 29-H ) :   0.9762 B( 28-C , 30-H ) :   0.9698 B( 28-C , 31-H ) :   0.9718

Dispersion correction           -0.013909778
FINAL SINGLE POINT ENERGY     -1339.880232540617

DIPOLE MOMENT
-------------
                                X             Y             Z
Electronic contribution:    -16.42362      -1.29195     -29.49447
Nuclear contribution   :     16.99034       1.07109      30.04723
                        -----------------------------------------
Total Dipole Moment    :      0.56672      -0.22086       0.55276
                        -----------------------------------------
Magnitude (a.u.)       :      0.82188
Magnitude (Debye)      :      2.08906

Rotational constants in cm-1:     0.016407     0.009509     0.006438
Rotational constants in MHz :   491.860815   285.063375   193.006003

                             ****ORCA TERMINATED NORMALLY****
TOTAL RUN TIME: 0 days 0 hours 0 minutes 31 seconds 15 msec
