                         Program Version 4.2.1 -  RELEASE  -
|  1> ! wB97X-D3 SP def2-SVP
|  2> %pal
|  3> nprocs 16
|  4> end
|  5>
|  6> * xyz 0 1
|  7> S 	 -14.7426 	 46.7596 	 31.0569
|  8> C 	 -13.2235 	 47.4325 	 30.7356
|  9> C 	 -12.5017 	 47.6874 	 31.8859
| 10> C 	 -13.2086 	 47.2733 	 33.0342
| 11> C 	 -14.4315 	 46.6875 	 32.7651
| 12> H 	 -12.9316 	 47.4418 	 34.0751
| 13> C 	 -11.0288 	 48.2396 	 31.9748
| 14> H 	 -11 	 48.9088 	 32.8634
| 15> H 	 -10.796 	 48.8806 	 31.1146
| 16> C 	 -9.93604 	 47.1394 	 31.9626
| 17> H 	 -9.82016 	 46.7482 	 30.9801
| 18> H 	 -9.0082 	 47.6751 	 32.2545
| 19> C 	 -10.0921 	 45.9761 	 32.8972
| 20> H 	 -10.3881 	 46.266 	 33.9008
| 21> H 	 -11.0344 	 45.4693 	 32.6437
| 22> H 	 -9.18178 	 45.351 	 32.8365
| 23> S 	 -16.7303 	 47.6272 	 33.9477
| 24> C 	 -17.5489 	 46.6887 	 35.2037
| 25> C 	 -16.7038 	 45.5879 	 35.6017
| 26> C 	 -15.5067 	 45.537 	 34.8007
| 27> C 	 -15.4876 	 46.4519 	 33.7326
| 28> H 	 -17.0128 	 44.836 	 36.304
| 29> C 	 -14.4328 	 44.4871 	 35.0425
| 30> H 	 -14.5353 	 43.9911 	 36.0307
| 31> H 	 -13.4922 	 44.9661 	 35.0419
| 32> C 	 -14.3978 	 43.3141 	 33.9536
| 33> H 	 -14.5248 	 43.6307 	 32.9079
| 34> H 	 -15.3142 	 42.7109 	 33.9515
| 35> C 	 -13.2725 	 42.2665 	 34.199
| 36> H 	 -13.1502 	 41.8988 	 35.2495
| 37> H 	 -12.3064 	 42.6521 	 33.8788
| 38> H 	 -13.4612 	 41.2917 	 33.6755
| 39> H 	 -12.847 	 47.643 	 29.7274
| 40> H 	 -18.6096 	 46.787 	 35.4758
| 41> *
| 42>
| 43>                          ****END OF INPUT****

CARTESIAN COORDINATES (ANGSTROEM)
---------------------------------
  S    -14.742600   46.759600   31.056900
  C    -13.223500   47.432500   30.735600
  C    -12.501700   47.687400   31.885900
  C    -13.208600   47.273300   33.034200
  C    -14.431500   46.687500   32.765100
  H    -12.931600   47.441800   34.075100
  C    -11.028800   48.239600   31.974800
  H    -11.000000   48.908800   32.863400
  H    -10.796000   48.880600   31.114600
  C     -9.936040   47.139400   31.962600
  H     -9.820160   46.748200   30.980100
  H     -9.008200   47.675100   32.254500
  C    -10.092100   45.976100   32.897200
  H    -10.388100   46.266000   33.900800
  H    -11.034400   45.469300   32.643700
  H     -9.181780   45.351000   32.836500
  S    -16.730300   47.627200   33.947700
  C    -17.548900   46.688700   35.203700
  C    -16.703800   45.587900   35.601700
  C    -15.506700   45.537000   34.800700
  C    -15.487600   46.451900   33.732600
  H    -17.012800   44.836000   36.304000
  C    -14.432800   44.487100   35.042500
  H    -14.535300   43.991100   36.030700
  H    -13.492200   44.966100   35.041900
  C    -14.397800   43.314100   33.953600
  H    -14.524800   43.630700   32.907900
  H    -15.314200   42.710900   33.951500
  C    -13.272500   42.266500   34.199000
  H    -13.150200   41.898800   35.249500
  H    -12.306400   42.652100   33.878800
  H    -13.461200   41.291700   33.675500
  H    -12.847000   47.643000   29.727400
  H    -18.609600   46.787000   35.475800

 Total Charge           Charge          ....    0
 Multiplicity           Mult            ....    1
 Number of Electrons    NEL             ....  134
 Basis Dimension        Dim             ....  322

ORBITAL ENERGIES
----------------

  NO   OCC          E(Eh)            E(eV)
   0   2.0000     -88.969948     -2420.9954
   1   2.0000     -88.966879     -2420.9119
   2   2.0000     -10.325810      -280.9796
   3   2.0000     -10.324315      -280.9389
   4   2.0000     -10.324156      -280.9346
   5   2.0000     -10.315069      -280.6873
   6   2.0000     -10.305468      -280.4260
   7   2.0000     -10.303065      -280.3607
   8   2.0000     -10.301218      -280.3104
   9   2.0000     -10.301087      -280.3068
  10   2.0000     -10.295785      -280.1626
  11   2.0000     -10.293940      -280.1123
  12   2.0000     -10.288726      -279.9705
  13   2.0000     -10.284667      -279.8600
  14   2.0000     -10.282400      -279.7983
  15   2.0000     -10.274498      -279.5833
  16   2.0000      -8.085707      -220.0233
  17   2.0000      -8.081350      -219.9047
  18   2.0000      -6.043926      -164.4636
  19   2.0000      -6.039952      -164.3554
  20   2.0000      -6.039846      -164.3526
  21   2.0000      -6.036820      -164.2702
  22   2.0000      -6.035723      -164.2404
  23   2.0000      -6.032311      -164.1475
  24   2.0000      -1.012974       -27.5644
  25   2.0000      -0.983470       -26.7616
  26   2.0000      -0.908929       -24.7332
  27   2.0000      -0.894655       -24.3448
  28   2.0000      -0.868971       -23.6459
  29   2.0000      -0.852111       -23.1871
  30   2.0000      -0.842988       -22.9389
  31   2.0000      -0.810340       -22.0505
  32   2.0000      -0.783115       -21.3096
  33   2.0000      -0.766318       -20.8526
  34   2.0000      -0.704068       -19.1587
  35   2.0000      -0.696164       -18.9436
  36   2.0000      -0.691269       -18.8104
  37   2.0000      -0.663214       -18.0470
  38   2.0000      -0.647307       -17.6141
  39   2.0000      -0.613363       -16.6904
  40   2.0000      -0.589801       -16.0493
  41   2.0000      -0.571458       -15.5502
  42   2.0000      -0.554302       -15.0833
  43   2.0000      -0.548940       -14.9374
  44   2.0000      -0.544776       -14.8241
  45   2.0000      -0.517505       -14.0820
  46   2.0000      -0.513677       -13.9779
  47   2.0000      -0.511498       -13.9186
  48   2.0000      -0.502115       -13.6632
  49   2.0000      -0.497309       -13.5325
  50   2.0000      -0.488578       -13.2949
  51   2.0000      -0.479444       -13.0463
  52   2.0000      -0.475384       -12.9358
  53   2.0000      -0.464948       -12.6519
  54   2.0000      -0.458932       -12.4882
  55   2.0000      -0.447435       -12.1753
  56   2.0000      -0.440667       -11.9912
  57   2.0000      -0.435237       -11.8434
  58   2.0000      -0.430895       -11.7252
  59   2.0000      -0.426626       -11.6091
  60   2.0000      -0.424773       -11.5587
  61   2.0000      -0.408134       -11.1059
  62   2.0000      -0.403554       -10.9813
  63   2.0000      -0.344319        -9.3694
  64   2.0000      -0.327997        -8.9252
  65   2.0000      -0.325068        -8.8455
  66   2.0000      -0.299938        -8.1617
  67   0.0000       0.029343         0.7985
  68   0.0000       0.060268         1.6400
  69   0.0000       0.111384         3.0309
  70   0.0000       0.122452         3.3321
  71   0.0000       0.129616         3.5270

MULLIKEN ATOMIC CHARGES
-----------------------
   0 S :    0.133455
   1 C :   -0.119149
   2 C :   -0.102328
   3 C :    0.030213
   4 C :   -0.192287
   5 H :    0.023011
   6 C :    0.055995
   7 H :    0.036842
   8 H :    0.026136
   9 C :   -0.062762
  10 H :    0.023323
  11 H :    0.031393
  12 C :   -0.053502
  13 H :    0.013287
  14 H :    0.041645
  15 H :    0.051965
  16 S :    0.121075
  17 C :   -0.126016
  18 C :   -0.024590
  19 C :   -0.058751
  20 C :   -0.142314
  21 H :    0.023542
  22 C :    0.104630
  23 H :    0.023499
  24 H :    0.012987
  25 C :   -0.077371
  26 H :    0.031857
  27 H :    0.015021
  28 C :   -0.076753
  29 H :    0.031410
  30 H :    0.036719
  31 H :    0.037091
  32 H :    0.053769
  33 H :    0.076960
Sum of atomic charges:    0.0000000

LOEWDIN ATOMIC CHARGES
----------------------
   0 S :    0.446283
   1 C :   -0.211793
   2 C :   -0.072978
   3 C :   -0.055617
   4 C :   -0.213944
   5 H :    0.033889
   6 C :   -0.029022
   7 H :    0.033118
   8 H :    0.031564
   9 C :   -0.040841
  10 H :    0.020131
  11 H :    0.027648
  12 C :   -0.073286
  13 H :    0.019830
  14 H :    0.029078
  15 H :    0.034190
  16 S :    0.421047
  17 C :   -0.196460
  18 C :   -0.064105
  19 C :   -0.055784
  20 C :   -0.218606
  21 H :    0.030136
  22 C :   -0.025999
  23 H :    0.033840
  24 H :    0.022040
  25 C :   -0.047905
  26 H :    0.027171
  27 H :    0.023916
  28 C :   -0.076486
  29 H :    0.027933
  30 H :    0.021184
  31 H :    0.031732
  32 H :    0.032793
  33 H :    0.035303

  Mayer bond orders larger than 0.100000
B(  0-S ,  1-C ) :   1.1776 B(  0-S ,  4-C ) :   1.1636 B(  1-C ,  2-C ) :   1.5810
B(  1-C , 32-H ) :   0.9657 B(  2-C ,  3-C ) :   1.2747 B(  2-C ,  6-C ) :   1.0093
B(  3-C ,  4-C ) :   1.5532 B(  3-C ,  5-H ) :   0.9908 B(  4-C , 20-C ) :   1.0217
B(  6-C ,  7-H ) :   0.9454 B(  6-C ,  8-H ) :   0.9442 B(  6-C ,  9-C ) :   1.0706
B(  9-C , 10-H ) :   0.9546 B(  9-C , 11-H ) :   0.9538 B(  9-C , 12-C ) :   1.0952
B( 12-C , 13-H ) :   0.9708 B( 12-C , 14-H ) :   0.9618 B( 12-C , 15-H ) :   0.9711
B( 16-S , 17-C ) :   1.1750 B( 16-S , 20-C ) :   1.1604 B( 17-C , 18-C ) :   1.5562
B( 17-C , 20-C ) :   0.1128 B( 17-C , 33-H ) :   0.9654 B( 18-C , 19-C ) :   1.2816
B( 18-C , 21-H ) :   0.9901 B( 19-C , 20-C ) :   1.5548 B( 19-C , 22-C ) :   1.0541
B( 22-C , 23-H ) :   0.9398 B( 22-C , 24-H ) :   0.9303 B( 22-C , 25-C ) :   1.0438
B( 25-C , 26-H ) :   0.9579 B( 25-C , 27-H ) :   0.9559 B( 25-C , 28-C ) :   1.0705
B( 28-C , 29-H ) :   0.9742 B( 28-C , 30-H ) :   0.9789 B( 28-C , 31-H ) :   0.9758

Dispersion correction           -0.015453844
FINAL SINGLE POINT ENERGY     -1339.875842933119

DIPOLE MOMENT
-------------
                                X             Y             Z
Electronic contribution:    -23.39346      15.11171      -5.16869
Nuclear contribution   :     23.83032     -15.27817       5.25752
                        -----------------------------------------
Total Dipole Moment    :      0.43686      -0.16646       0.08882
                        -----------------------------------------
Magnitude (a.u.)       :      0.47586
Magnitude (Debye)      :      1.20954

Rotational constants in cm-1:     0.017529     0.009975     0.007598
Rotational constants in MHz :   525.509198   299.055227   227.787925

                             ****ORCA TERMINATED NORMALLY****
TOTAL RUN TIME: 0 days 0 hours 0 minutes 33 seconds 29 msec
