                         Program Version 4.2.1 -  RELEASE  -
|  1> ! wB97X-D3 SP def2-SVP
|  2> %pal
|  3> nprocs 16
|  4> end
|  5>
|  6> * xyz 0 1
|  7> S 	 -44.7752 	 20.119 	 87.9174
|  8> C 	 -43.6189 	 19.629 	 89.1792
|  9> C 	 -42.3912 	 19.3282 	 88.6191
| 10> C 	 -42.537 	 19.1843 	 87.1793
| 11> C 	 -43.7766 	 19.5591 	 86.6637
| 12> H 	 -41.7995 	 18.8866 	 86.5308
| 13> C 	 -41.0801 	 19.1204 	 89.3936
| 14> H 	 -41.0678 	 19.9035 	 90.1122
| 15> H 	 -40.2677 	 19.4463 	 88.7296
| 16> C 	 -40.7658 	 17.698 	 89.9272
| 17> H 	 -39.7992 	 17.6293 	 90.3855
| 18> H 	 -41.3674 	 17.4228 	 90.7704
| 19> C 	 -40.7007 	 16.6469 	 88.7548
| 20> H 	 -40.2093 	 17.0759 	 87.861
| 21> H 	 -40.1866 	 15.6568 	 88.956
| 22> H 	 -41.6845 	 16.5732 	 88.4106
| 23> S 	 -45.7641 	 18.9641 	 84.9369
| 24> C 	 -45.5916 	 19.3795 	 83.2095
| 25> C 	 -44.3864 	 19.9694 	 82.9357
| 26> C 	 -43.5319 	 20.0789 	 84.1048
| 27> C 	 -44.1839 	 19.6027 	 85.2654
| 28> H 	 -44.1421 	 20.2727 	 81.986
| 29> C 	 -42.1203 	 20.5798 	 83.9918
| 30> H 	 -41.4454 	 19.714 	 84.1549
| 31> H 	 -41.9466 	 21.1632 	 84.8777
| 32> C 	 -41.7475 	 21.3998 	 82.7163
| 33> H 	 -42.2438 	 22.3577 	 82.734
| 34> H 	 -42.1401 	 20.8653 	 81.842
| 35> C 	 -40.2317 	 21.5656 	 82.669
| 36> H 	 -39.8531 	 22.0512 	 83.5216
| 37> H 	 -39.9699 	 22.2366 	 81.8882
| 38> H 	 -39.7622 	 20.6128 	 82.5354
| 39> H 	 -43.7507 	 19.7479 	 90.2139
| 40> H 	 -46.3599 	 19.2049 	 82.4841
| 41> *
| 42>
| 43>                          ****END OF INPUT****

CARTESIAN COORDINATES (ANGSTROEM)
---------------------------------
  S    -44.775200   20.119000   87.917400
  C    -43.618900   19.629000   89.179200
  C    -42.391200   19.328200   88.619100
  C    -42.537000   19.184300   87.179300
  C    -43.776600   19.559100   86.663700
  H    -41.799500   18.886600   86.530800
  C    -41.080100   19.120400   89.393600
  H    -41.067800   19.903500   90.112200
  H    -40.267700   19.446300   88.729600
  C    -40.765800   17.698000   89.927200
  H    -39.799200   17.629300   90.385500
  H    -41.367400   17.422800   90.770400
  C    -40.700700   16.646900   88.754800
  H    -40.209300   17.075900   87.861000
  H    -40.186600   15.656800   88.956000
  H    -41.684500   16.573200   88.410600
  S    -45.764100   18.964100   84.936900
  C    -45.591600   19.379500   83.209500
  C    -44.386400   19.969400   82.935700
  C    -43.531900   20.078900   84.104800
  C    -44.183900   19.602700   85.265400
  H    -44.142100   20.272700   81.986000
  C    -42.120300   20.579800   83.991800
  H    -41.445400   19.714000   84.154900
  H    -41.946600   21.163200   84.877700
  C    -41.747500   21.399800   82.716300
  H    -42.243800   22.357700   82.734000
  H    -42.140100   20.865300   81.842000
  C    -40.231700   21.565600   82.669000
  H    -39.853100   22.051200   83.521600
  H    -39.969900   22.236600   81.888200
  H    -39.762200   20.612800   82.535400
  H    -43.750700   19.747900   90.213900
  H    -46.359900   19.204900   82.484100

 Total Charge           Charge          ....    0
 Multiplicity           Mult            ....    1
 Number of Electrons    NEL             ....  134
 Basis Dimension        Dim             ....  322

ORBITAL ENERGIES
----------------

  NO   OCC          E(Eh)            E(eV)
   0   2.0000     -88.965160     -2420.8651
   1   2.0000     -88.965072     -2420.8627
   2   2.0000     -10.326500      -280.9984
   3   2.0000     -10.325605      -280.9740
   4   2.0000     -10.317124      -280.7432
   5   2.0000     -10.311203      -280.5821
   6   2.0000     -10.307268      -280.4750
   7   2.0000     -10.305227      -280.4195
   8   2.0000     -10.296470      -280.1812
   9   2.0000     -10.292147      -280.0636
  10   2.0000     -10.290912      -280.0300
  11   2.0000     -10.289997      -280.0050
  12   2.0000     -10.288764      -279.9715
  13   2.0000     -10.287698      -279.9425
  14   2.0000     -10.279078      -279.7079
  15   2.0000     -10.271694      -279.5070
  16   2.0000      -8.080276      -219.8755
  17   2.0000      -8.079533      -219.8553
  18   2.0000      -6.038863      -164.3258
  19   2.0000      -6.038055      -164.3038
  20   2.0000      -6.034685      -164.2121
  21   2.0000      -6.034079      -164.1956
  22   2.0000      -6.030953      -164.1106
  23   2.0000      -6.030301      -164.0928
  24   2.0000      -1.005867       -27.3710
  25   2.0000      -0.979929       -26.6652
  26   2.0000      -0.911615       -24.8063
  27   2.0000      -0.907187       -24.6858
  28   2.0000      -0.868630       -23.6366
  29   2.0000      -0.853120       -23.2146
  30   2.0000      -0.840060       -22.8592
  31   2.0000      -0.816595       -22.2207
  32   2.0000      -0.784375       -21.3439
  33   2.0000      -0.771377       -20.9902
  34   2.0000      -0.715514       -19.4701
  35   2.0000      -0.710507       -19.3339
  36   2.0000      -0.698548       -19.0084
  37   2.0000      -0.659212       -17.9381
  38   2.0000      -0.643825       -17.5194
  39   2.0000      -0.615641       -16.7524
  40   2.0000      -0.597626       -16.2622
  41   2.0000      -0.572671       -15.5832
  42   2.0000      -0.570969       -15.5369
  43   2.0000      -0.551775       -15.0146
  44   2.0000      -0.544427       -14.8146
  45   2.0000      -0.526178       -14.3180
  46   2.0000      -0.518912       -14.1203
  47   2.0000      -0.505511       -13.7557
  48   2.0000      -0.503447       -13.6995
  49   2.0000      -0.500308       -13.6141
  50   2.0000      -0.487009       -13.2522
  51   2.0000      -0.476141       -12.9565
  52   2.0000      -0.471088       -12.8190
  53   2.0000      -0.465815       -12.6755
  54   2.0000      -0.461942       -12.5701
  55   2.0000      -0.456293       -12.4164
  56   2.0000      -0.447557       -12.1786
  57   2.0000      -0.439456       -11.9582
  58   2.0000      -0.435904       -11.8616
  59   2.0000      -0.430075       -11.7029
  60   2.0000      -0.425410       -11.5760
  61   2.0000      -0.418839       -11.3972
  62   2.0000      -0.409349       -11.1390
  63   2.0000      -0.347937        -9.4678
  64   2.0000      -0.331604        -9.0234
  65   2.0000      -0.324658        -8.8344
  66   2.0000      -0.289856        -7.8874
  67   0.0000       0.028728         0.7817
  68   0.0000       0.074977         2.0402
  69   0.0000       0.105187         2.8623
  70   0.0000       0.116641         3.1740
  71   0.0000       0.136184         3.7058

MULLIKEN ATOMIC CHARGES
-----------------------
   0 S :    0.114671
   1 C :   -0.099774
   2 C :   -0.111003
   3 C :    0.043847
   4 C :   -0.137599
   5 H :   -0.038417
   6 C :    0.077491
   7 H :    0.018419
   8 H :    0.024376
   9 C :   -0.027497
  10 H :    0.018749
  11 H :    0.024983
  12 C :   -0.075009
  13 H :    0.021522
  14 H :    0.054727
  15 H :    0.034723
  16 S :    0.103974
  17 C :   -0.076611
  18 C :   -0.007233
  19 C :   -0.022777
  20 C :   -0.163678
  21 H :   -0.015615
  22 C :    0.030752
  23 H :    0.043570
  24 H :    0.025477
  25 C :   -0.089943
  26 H :    0.034634
  27 H :    0.037352
  28 C :    0.011764
  29 H :    0.016576
  30 H :    0.020504
  31 H :    0.030023
  32 H :    0.027804
  33 H :    0.049215
Sum of atomic charges:   -0.0000000

LOEWDIN ATOMIC CHARGES
----------------------
   0 S :    0.417257
   1 C :   -0.182950
   2 C :   -0.055511
   3 C :   -0.063596
   4 C :   -0.211613
   5 H :    0.010152
   6 C :   -0.029116
   7 H :    0.027485
   8 H :    0.034741
   9 C :   -0.035011
  10 H :    0.021839
  11 H :    0.021164
  12 C :   -0.068946
  13 H :    0.025192
  14 H :    0.035471
  15 H :    0.018506
  16 S :    0.400360
  17 C :   -0.167116
  18 C :   -0.060704
  19 C :   -0.047068
  20 C :   -0.208265
  21 H :    0.016063
  22 C :   -0.038943
  23 H :    0.035558
  24 H :    0.031244
  25 C :   -0.033585
  26 H :    0.025515
  27 H :    0.022913
  28 C :   -0.052851
  29 H :    0.020874
  30 H :    0.023806
  31 H :    0.024807
  32 H :    0.017482
  33 H :    0.024846

  Mayer bond orders larger than 0.100000
B(  0-S ,  1-C ) :   1.1326 B(  0-S ,  4-C ) :   1.1673 B(  1-C ,  2-C ) :   1.6117
B(  1-C , 32-H ) :   0.9758 B(  2-C ,  3-C ) :   1.2255 B(  2-C ,  6-C ) :   1.0143
B(  3-C ,  4-C ) :   1.5584 B(  3-C ,  5-H ) :   1.0137 B(  4-C , 20-C ) :   1.0427
B(  6-C ,  7-H ) :   0.9385 B(  6-C ,  8-H ) :   0.9417 B(  6-C ,  9-C ) :   1.0701
B(  9-C , 10-H ) :   0.9557 B(  9-C , 11-H ) :   0.9609 B(  9-C , 12-C ) :   1.0550
B( 12-C , 13-H ) :   0.9734 B( 12-C , 14-H ) :   0.9760 B( 12-C , 15-H ) :   0.9771
B( 16-S , 17-C ) :   1.1435 B( 16-S , 20-C ) :   1.1462 B( 17-C , 18-C ) :   1.6161
B( 17-C , 33-H ) :   0.9675 B( 18-C , 19-C ) :   1.2338 B( 18-C , 21-H ) :   0.9998
B( 19-C , 20-C ) :   1.5803 B( 19-C , 22-C ) :   1.0373 B( 22-C , 23-H ) :   0.9336
B( 22-C , 24-H ) :   0.9211 B( 22-C , 25-C ) :   1.0666 B( 25-C , 26-H ) :   0.9548
B( 25-C , 27-H ) :   0.9501 B( 25-C , 28-C ) :   1.0927 B( 28-C , 29-H ) :   0.9712
B( 28-C , 30-H ) :   0.9692 B( 28-C , 31-H ) :   0.9750

Dispersion correction           -0.013958029
FINAL SINGLE POINT ENERGY     -1339.872124045347

DIPOLE MOMENT
-------------
                                X             Y             Z
Electronic contribution:    -27.50099       1.10684       2.16723
Nuclear contribution   :     28.23913      -0.93614      -2.36261
                        -----------------------------------------
Total Dipole Moment    :      0.73814       0.17071      -0.19537
                        -----------------------------------------
Magnitude (a.u.)       :      0.78241
Magnitude (Debye)      :      1.98872

Rotational constants in cm-1:     0.017031     0.008572     0.006593
Rotational constants in MHz :   510.564296   256.971848   197.654936

                             ****ORCA TERMINATED NORMALLY****
TOTAL RUN TIME: 0 days 0 hours 0 minutes 30 seconds 206 msec
