                         Program Version 4.2.1 -  RELEASE  -
|  1> ! wB97X-D3 SP def2-SVP
|  2> %pal
|  3> nprocs 16
|  4> end
|  5>
|  6> * xyz 0 1
|  7> S 	 54.5334 	 18.3897 	 47.9319
|  8> C 	 53.1801 	 19.4936 	 47.55
|  9> C 	 52.3608 	 18.9112 	 46.6251
| 10> C 	 53.0849 	 17.8768 	 45.9938
| 11> C 	 54.4547 	 17.819 	 46.3779
| 12> H 	 52.7292 	 17.3085 	 45.1679
| 13> C 	 50.9738 	 19.3367 	 46.1783
| 14> H 	 51.0051 	 19.2743 	 45.1136
| 15> H 	 50.9007 	 20.4014 	 46.4446
| 16> C 	 49.824 	 18.4972 	 46.7453
| 17> H 	 48.8796 	 18.9596 	 46.4409
| 18> H 	 49.7962 	 17.4789 	 46.3809
| 19> C 	 49.7423 	 18.5772 	 48.2672
| 20> H 	 48.896 	 17.8943 	 48.5553
| 21> H 	 50.6882 	 18.3669 	 48.6885
| 22> H 	 49.4812 	 19.5679 	 48.5771
| 23> S 	 56.8879 	 17.5499 	 45.1411
| 24> C 	 57.2546 	 16.0226 	 44.389
| 25> C 	 56.4325 	 15.0738 	 44.9279
| 26> C 	 55.3508 	 15.5195 	 45.662
| 27> C 	 55.464 	 16.8784 	 45.8941
| 28> H 	 56.6405 	 14.0643 	 44.6142
| 29> C 	 54.3333 	 14.5778 	 46.1767
| 30> H 	 53.7646 	 15.0529 	 46.9192
| 31> H 	 54.9565 	 13.8498 	 46.7488
| 32> C 	 53.5509 	 13.7834 	 45.1458
| 33> H 	 54.2449 	 13.0473 	 44.7457
| 34> H 	 53.2375 	 14.464 	 44.3909
| 35> C 	 52.4185 	 13.0199 	 45.7973
| 36> H 	 51.7946 	 12.2596 	 45.2412
| 37> H 	 51.6548 	 13.6157 	 46.0366
| 38> H 	 52.7664 	 12.5186 	 46.7942
| 39> H 	 52.7378 	 20.0284 	 48.3533
| 40> H 	 58.1185 	 15.9026 	 43.7355
| 41> *
| 42>
| 43>                          ****END OF INPUT****

CARTESIAN COORDINATES (ANGSTROEM)
---------------------------------
  S     54.533400   18.389700   47.931900
  C     53.180100   19.493600   47.550000
  C     52.360800   18.911200   46.625100
  C     53.084900   17.876800   45.993800
  C     54.454700   17.819000   46.377900
  H     52.729200   17.308500   45.167900
  C     50.973800   19.336700   46.178300
  H     51.005100   19.274300   45.113600
  H     50.900700   20.401400   46.444600
  C     49.824000   18.497200   46.745300
  H     48.879600   18.959600   46.440900
  H     49.796200   17.478900   46.380900
  C     49.742300   18.577200   48.267200
  H     48.896000   17.894300   48.555300
  H     50.688200   18.366900   48.688500
  H     49.481200   19.567900   48.577100
  S     56.887900   17.549900   45.141100
  C     57.254600   16.022600   44.389000
  C     56.432500   15.073800   44.927900
  C     55.350800   15.519500   45.662000
  C     55.464000   16.878400   45.894100
  H     56.640500   14.064300   44.614200
  C     54.333300   14.577800   46.176700
  H     53.764600   15.052900   46.919200
  H     54.956500   13.849800   46.748800
  C     53.550900   13.783400   45.145800
  H     54.244900   13.047300   44.745700
  H     53.237500   14.464000   44.390900
  C     52.418500   13.019900   45.797300
  H     51.794600   12.259600   45.241200
  H     51.654800   13.615700   46.036600
  H     52.766400   12.518600   46.794200
  H     52.737800   20.028400   48.353300
  H     58.118500   15.902600   43.735500

 Total Charge           Charge          ....    0
 Multiplicity           Mult            ....    1
 Number of Electrons    NEL             ....  134
 Basis Dimension        Dim             ....  322

ORBITAL ENERGIES
----------------

  NO   OCC          E(Eh)            E(eV)
   0   2.0000     -88.962279     -2420.7867
   1   2.0000     -88.959447     -2420.7096
   2   2.0000     -10.323445      -280.9152
   3   2.0000     -10.321256      -280.8557
   4   2.0000     -10.316486      -280.7259
   5   2.0000     -10.302994      -280.3587
   6   2.0000     -10.298495      -280.2363
   7   2.0000     -10.296983      -280.1952
   8   2.0000     -10.293848      -280.1099
   9   2.0000     -10.289544      -279.9927
  10   2.0000     -10.288078      -279.9528
  11   2.0000     -10.286700      -279.9153
  12   2.0000     -10.286427      -279.9079
  13   2.0000     -10.286253      -279.9032
  14   2.0000     -10.280317      -279.7417
  15   2.0000     -10.274694      -279.5886
  16   2.0000      -8.077628      -219.8034
  17   2.0000      -8.075923      -219.7570
  18   2.0000      -6.035970      -164.2471
  19   2.0000      -6.034018      -164.1940
  20   2.0000      -6.031988      -164.1387
  21   2.0000      -6.030937      -164.1101
  22   2.0000      -6.028575      -164.0459
  23   2.0000      -6.026215      -163.9816
  24   2.0000      -1.016936       -27.6722
  25   2.0000      -0.995060       -27.0770
  26   2.0000      -0.920650       -25.0522
  27   2.0000      -0.918773       -25.0011
  28   2.0000      -0.872265       -23.7355
  29   2.0000      -0.858074       -23.3494
  30   2.0000      -0.845088       -22.9960
  31   2.0000      -0.808374       -21.9970
  32   2.0000      -0.789847       -21.4928
  33   2.0000      -0.779186       -21.2027
  34   2.0000      -0.713467       -19.4144
  35   2.0000      -0.705471       -19.1968
  36   2.0000      -0.694717       -18.9042
  37   2.0000      -0.660032       -17.9604
  38   2.0000      -0.635052       -17.2806
  39   2.0000      -0.621361       -16.9081
  40   2.0000      -0.603951       -16.4344
  41   2.0000      -0.576915       -15.6986
  42   2.0000      -0.570686       -15.5292
  43   2.0000      -0.553669       -15.0661
  44   2.0000      -0.549877       -14.9629
  45   2.0000      -0.530491       -14.4354
  46   2.0000      -0.522008       -14.2046
  47   2.0000      -0.516511       -14.0550
  48   2.0000      -0.508212       -13.8292
  49   2.0000      -0.488508       -13.2930
  50   2.0000      -0.485167       -13.2021
  51   2.0000      -0.481678       -13.1071
  52   2.0000      -0.472672       -12.8621
  53   2.0000      -0.467050       -12.7091
  54   2.0000      -0.458719       -12.4824
  55   2.0000      -0.450818       -12.2674
  56   2.0000      -0.448807       -12.2127
  57   2.0000      -0.435135       -11.8406
  58   2.0000      -0.432704       -11.7745
  59   2.0000      -0.428138       -11.6502
  60   2.0000      -0.427308       -11.6277
  61   2.0000      -0.419710       -11.4209
  62   2.0000      -0.416079       -11.3221
  63   2.0000      -0.337725        -9.1900
  64   2.0000      -0.330719        -8.9993
  65   2.0000      -0.316777        -8.6199
  66   2.0000      -0.298804        -8.1309
  67   0.0000       0.023329         0.6348
  68   0.0000       0.056456         1.5362
  69   0.0000       0.098040         2.6678
  70   0.0000       0.114376         3.1123
  71   0.0000       0.131994         3.5917

MULLIKEN ATOMIC CHARGES
-----------------------
   0 S :    0.098857
   1 C :   -0.077027
   2 C :   -0.141262
   3 C :    0.030247
   4 C :   -0.139441
   5 H :   -0.008099
   6 C :    0.086782
   7 H :    0.025951
   8 H :    0.027963
   9 C :   -0.062858
  10 H :    0.026694
  11 H :    0.031026
  12 C :   -0.040574
  13 H :    0.043153
  14 H :    0.031255
  15 H :    0.016580
  16 S :    0.109252
  17 C :   -0.111955
  18 C :   -0.027021
  19 C :   -0.007101
  20 C :   -0.186142
  21 H :    0.009935
  22 C :    0.072916
  23 H :    0.005155
  24 H :    0.031339
  25 C :   -0.032227
  26 H :    0.031161
  27 H :    0.029328
  28 C :   -0.044219
  29 H :    0.036048
  30 H :   -0.002074
  31 H :    0.037770
  32 H :    0.033345
  33 H :    0.065241
Sum of atomic charges:    0.0000000

LOEWDIN ATOMIC CHARGES
----------------------
   0 S :    0.428442
   1 C :   -0.193361
   2 C :   -0.059338
   3 C :   -0.062105
   4 C :   -0.213279
   5 H :    0.017261
   6 C :   -0.025601
   7 H :    0.029567
   8 H :    0.035963
   9 C :   -0.037962
  10 H :    0.027325
  11 H :    0.021974
  12 C :   -0.058891
  13 H :    0.035406
  14 H :    0.015634
  15 H :    0.019463
  16 S :    0.415506
  17 C :   -0.180600
  18 C :   -0.073362
  19 C :   -0.056528
  20 C :   -0.214005
  21 H :    0.028178
  22 C :   -0.027518
  23 H :    0.020109
  24 H :    0.041865
  25 C :   -0.032041
  26 H :    0.026710
  27 H :    0.021282
  28 C :   -0.071089
  29 H :    0.034141
  30 H :    0.005034
  31 H :    0.037634
  32 H :    0.012125
  33 H :    0.032060

  Mayer bond orders larger than 0.100000
B(  0-S ,  1-C ) :   1.1320 B(  0-S ,  4-C ) :   1.2055 B(  1-C ,  2-C ) :   1.5970
B(  1-C ,  4-C ) :   0.1099 B(  1-C , 32-H ) :   0.9641 B(  2-C ,  3-C ) :   1.2728
B(  2-C ,  6-C ) :   1.0089 B(  3-C ,  4-C ) :   1.5144 B(  3-C ,  5-H ) :   1.0097
B(  4-C , 20-C ) :   1.0034 B(  6-C ,  7-H ) :   0.9407 B(  6-C ,  8-H ) :   0.9425
B(  6-C ,  9-C ) :   1.0772 B(  9-C , 10-H ) :   0.9546 B(  9-C , 11-H ) :   0.9590
B(  9-C , 12-C ) :   1.0710 B( 12-C , 13-H ) :   0.9729 B( 12-C , 14-H ) :   0.9773
B( 12-C , 15-H ) :   0.9753 B( 16-S , 17-C ) :   1.1713 B( 16-S , 20-C ) :   1.1496
B( 17-C , 18-C ) :   1.5825 B( 17-C , 20-C ) :   0.1049 B( 17-C , 33-H ) :   0.9698
B( 18-C , 19-C ) :   1.2489 B( 18-C , 21-H ) :   0.9933 B( 19-C , 20-C ) :   1.5745
B( 19-C , 22-C ) :   1.0468 B( 22-C , 23-H ) :   0.9370 B( 22-C , 24-H ) :   0.9234
B( 22-C , 25-C ) :   1.0507 B( 25-C , 26-H ) :   0.9493 B( 25-C , 27-H ) :   0.9622
B( 25-C , 28-C ) :   1.0815 B( 28-C , 29-H ) :   0.9723 B( 28-C , 30-H ) :   0.9716
B( 28-C , 31-H ) :   0.9682

Dispersion correction           -0.014666303
FINAL SINGLE POINT ENERGY     -1339.826304525584

DIPOLE MOMENT
-------------
                                X             Y             Z
Electronic contribution:     26.57609      11.97773      -0.78724
Nuclear contribution   :    -27.21477     -12.52339       0.56755
                        -----------------------------------------
Total Dipole Moment    :     -0.63868      -0.54567      -0.21969
                        -----------------------------------------
Magnitude (a.u.)       :      0.86829
Magnitude (Debye)      :      2.20701

Rotational constants in cm-1:     0.018410     0.009322     0.006950
Rotational constants in MHz :   551.911946   279.475315   208.347278

                             ****ORCA TERMINATED NORMALLY****
TOTAL RUN TIME: 0 days 0 hours 0 minutes 32 seconds 473 msec
