                         Program Version 4.2.1 -  RELEASE  -
|  1> ! wB97X-D3 SP def2-SVP
|  2> %pal
|  3> nprocs 16
|  4> end
|  5>
|  6> * xyz 0 1
|  7> S 	 -88.0809 	 47.0518 	 127.699
|  8> C 	 -89.6162 	 47.7756 	 127.158
|  9> C 	 -89.4682 	 49.1561 	 126.913
| 10> C 	 -88.1284 	 49.5873 	 127.078
| 11> C 	 -87.2367 	 48.6041 	 127.459
| 12> H 	 -87.9356 	 50.6335 	 127.057
| 13> C 	 -90.6313 	 50.0654 	 126.606
| 14> H 	 -91.4598 	 49.803 	 127.248
| 15> H 	 -90.9517 	 49.876 	 125.587
| 16> C 	 -90.3116 	 51.5901 	 126.743
| 17> H 	 -89.8882 	 51.7801 	 127.692
| 18> H 	 -89.5682 	 51.7911 	 125.951
| 19> C 	 -91.6138 	 52.5043 	 126.588
| 20> H 	 -92.2147 	 52.1402 	 125.734
| 21> H 	 -92.3042 	 52.3542 	 127.462
| 22> H 	 -91.4083 	 53.5399 	 126.27
| 23> S 	 -84.6667 	 47.4465 	 127.279
| 24> C 	 -83.3399 	 48.5557 	 127.483
| 25> C 	 -83.7044 	 49.809 	 127.843
| 26> C 	 -85.1294 	 49.9051 	 128.001
| 27> C 	 -85.7866 	 48.766 	 127.648
| 28> H 	 -83.0228 	 50.5772 	 128.103
| 29> C 	 -85.8159 	 51.1807 	 128.492
| 30> H 	 -86.7042 	 50.8104 	 128.999
| 31> H 	 -85.988 	 51.8175 	 127.585
| 32> C 	 -84.9969 	 52.0585 	 129.386
| 33> H 	 -85.6931 	 52.8052 	 129.686
| 34> H 	 -84.2151 	 52.4975 	 128.775
| 35> C 	 -84.4888 	 51.389 	 130.696
| 36> H 	 -85.185 	 50.664 	 131.107
| 37> H 	 -84.2523 	 52.1833 	 131.362
| 38> H 	 -83.6553 	 50.6357 	 130.496
| 39> H 	 -90.5567 	 47.2781 	 127.111
| 40> H 	 -82.2818 	 48.271 	 127.47
| 41> *
| 42>
| 43>                          ****END OF INPUT****

CARTESIAN COORDINATES (ANGSTROEM)
---------------------------------
  S    -88.080900   47.051800  127.699000
  C    -89.616200   47.775600  127.158000
  C    -89.468200   49.156100  126.913000
  C    -88.128400   49.587300  127.078000
  C    -87.236700   48.604100  127.459000
  H    -87.935600   50.633500  127.057000
  C    -90.631300   50.065400  126.606000
  H    -91.459800   49.803000  127.248000
  H    -90.951700   49.876000  125.587000
  C    -90.311600   51.590100  126.743000
  H    -89.888200   51.780100  127.692000
  H    -89.568200   51.791100  125.951000
  C    -91.613800   52.504300  126.588000
  H    -92.214700   52.140200  125.734000
  H    -92.304200   52.354200  127.462000
  H    -91.408300   53.539900  126.270000
  S    -84.666700   47.446500  127.279000
  C    -83.339900   48.555700  127.483000
  C    -83.704400   49.809000  127.843000
  C    -85.129400   49.905100  128.001000
  C    -85.786600   48.766000  127.648000
  H    -83.022800   50.577200  128.103000
  C    -85.815900   51.180700  128.492000
  H    -86.704200   50.810400  128.999000
  H    -85.988000   51.817500  127.585000
  C    -84.996900   52.058500  129.386000
  H    -85.693100   52.805200  129.686000
  H    -84.215100   52.497500  128.775000
  C    -84.488800   51.389000  130.696000
  H    -85.185000   50.664000  131.107000
  H    -84.252300   52.183300  131.362000
  H    -83.655300   50.635700  130.496000
  H    -90.556700   47.278100  127.111000
  H    -82.281800   48.271000  127.470000

 Total Charge           Charge          ....    0
 Multiplicity           Mult            ....    1
 Number of Electrons    NEL             ....  134
 Basis Dimension        Dim             ....  322

ORBITAL ENERGIES
----------------

  NO   OCC          E(Eh)            E(eV)
   0   2.0000     -88.968645     -2420.9599
   1   2.0000     -88.965663     -2420.8788
   2   2.0000     -10.333303      -281.1835
   3   2.0000     -10.323620      -280.9200
   4   2.0000     -10.315442      -280.6975
   5   2.0000     -10.314057      -280.6598
   6   2.0000     -10.300211      -280.2830
   7   2.0000     -10.296892      -280.1927
   8   2.0000     -10.294908      -280.1387
   9   2.0000     -10.292801      -280.0814
  10   2.0000     -10.292012      -280.0599
  11   2.0000     -10.291289      -280.0402
  12   2.0000     -10.288786      -279.9721
  13   2.0000     -10.288690      -279.9695
  14   2.0000     -10.283484      -279.8278
  15   2.0000     -10.279221      -279.7118
  16   2.0000      -8.081964      -219.9214
  17   2.0000      -8.080374      -219.8782
  18   2.0000      -6.040591      -164.3728
  19   2.0000      -6.039010      -164.3298
  20   2.0000      -6.036711      -164.2672
  21   2.0000      -6.035071      -164.2226
  22   2.0000      -6.032678      -164.1575
  23   2.0000      -6.030827      -164.1072
  24   2.0000      -1.004457       -27.3327
  25   2.0000      -0.980102       -26.6699
  26   2.0000      -0.915351       -24.9080
  27   2.0000      -0.907182       -24.6857
  28   2.0000      -0.867175       -23.5970
  29   2.0000      -0.848629       -23.0924
  30   2.0000      -0.839306       -22.8387
  31   2.0000      -0.814842       -22.1730
  32   2.0000      -0.785717       -21.3804
  33   2.0000      -0.770776       -20.9739
  34   2.0000      -0.716887       -19.5075
  35   2.0000      -0.698875       -19.0174
  36   2.0000      -0.692057       -18.8318
  37   2.0000      -0.657544       -17.8927
  38   2.0000      -0.635389       -17.2898
  39   2.0000      -0.625239       -17.0136
  40   2.0000      -0.595152       -16.1949
  41   2.0000      -0.573543       -15.6069
  42   2.0000      -0.564012       -15.3475
  43   2.0000      -0.559312       -15.2197
  44   2.0000      -0.546871       -14.8811
  45   2.0000      -0.521473       -14.1900
  46   2.0000      -0.514857       -14.0100
  47   2.0000      -0.504920       -13.7396
  48   2.0000      -0.500247       -13.6124
  49   2.0000      -0.498697       -13.5702
  50   2.0000      -0.495585       -13.4855
  51   2.0000      -0.478162       -13.0115
  52   2.0000      -0.469446       -12.7743
  53   2.0000      -0.463312       -12.6074
  54   2.0000      -0.458180       -12.4677
  55   2.0000      -0.453951       -12.3526
  56   2.0000      -0.445734       -12.1290
  57   2.0000      -0.436453       -11.8765
  58   2.0000      -0.435297       -11.8450
  59   2.0000      -0.429559       -11.6889
  60   2.0000      -0.423884       -11.5345
  61   2.0000      -0.418226       -11.3805
  62   2.0000      -0.407848       -11.0981
  63   2.0000      -0.353371        -9.6157
  64   2.0000      -0.333622        -9.0783
  65   2.0000      -0.329773        -8.9736
  66   2.0000      -0.283039        -7.7019
  67   0.0000       0.023534         0.6404
  68   0.0000       0.080355         2.1866
  69   0.0000       0.099113         2.6970
  70   0.0000       0.128577         3.4988
  71   0.0000       0.134839         3.6692

MULLIKEN ATOMIC CHARGES
-----------------------
   0 S :    0.101924
   1 C :   -0.117455
   2 C :   -0.102603
   3 C :    0.007859
   4 C :   -0.123289
   5 H :   -0.005578
   6 C :    0.069287
   7 H :    0.026971
   8 H :    0.039162
   9 C :   -0.118966
  10 H :    0.036436
  11 H :    0.048960
  12 C :   -0.055197
  13 H :    0.021977
  14 H :    0.048224
  15 H :    0.046319
  16 S :    0.107048
  17 C :   -0.080490
  18 C :   -0.017156
  19 C :   -0.100534
  20 C :   -0.121398
  21 H :    0.008516
  22 C :    0.031797
  23 H :    0.041290
  24 H :    0.059038
  25 C :   -0.054012
  26 H :    0.024200
  27 H :    0.029496
  28 C :   -0.053651
  29 H :    0.029305
  30 H :    0.043064
  31 H :    0.036731
  32 H :    0.034900
  33 H :    0.057825
Sum of atomic charges:   -0.0000000

LOEWDIN ATOMIC CHARGES
----------------------
   0 S :    0.380927
   1 C :   -0.188345
   2 C :   -0.058824
   3 C :   -0.066630
   4 C :   -0.174378
   5 H :    0.025029
   6 C :   -0.030878
   7 H :    0.028772
   8 H :    0.034155
   9 C :   -0.038048
  10 H :    0.016595
  11 H :    0.027640
  12 C :   -0.074491
  13 H :    0.025236
  14 H :    0.033367
  15 H :    0.030759
  16 S :    0.391780
  17 C :   -0.180276
  18 C :   -0.070537
  19 C :   -0.057881
  20 C :   -0.194482
  21 H :    0.027054
  22 C :   -0.036050
  23 H :    0.031900
  24 H :    0.041138
  25 C :   -0.042412
  26 H :    0.026031
  27 H :    0.021934
  28 C :   -0.070223
  29 H :    0.028383
  30 H :    0.023534
  31 H :    0.034239
  32 H :    0.021739
  33 H :    0.033243

  Mayer bond orders larger than 0.100000
B(  0-S ,  1-C ) :   1.1324 B(  0-S ,  4-C ) :   1.1433 B(  1-C ,  2-C ) :   1.5989
B(  1-C ,  4-C ) :   0.1044 B(  1-C , 32-H ) :   0.9749 B(  2-C ,  3-C ) :   1.2868
B(  2-C ,  6-C ) :   1.0038 B(  3-C ,  4-C ) :   1.5347 B(  3-C ,  5-H ) :   0.9804
B(  4-C , 20-C ) :   1.0628 B(  6-C ,  7-H ) :   0.9447 B(  6-C ,  8-H ) :   0.9281
B(  6-C ,  9-C ) :   1.0828 B(  9-C , 10-H ) :   0.9604 B(  9-C , 11-H ) :   0.9467
B(  9-C , 12-C ) :   1.0695 B( 12-C , 13-H ) :   0.9742 B( 12-C , 14-H ) :   0.9755
B( 12-C , 15-H ) :   0.9755 B( 16-S , 17-C ) :   1.1464 B( 16-S , 20-C ) :   1.1083
B( 17-C , 18-C ) :   1.6331 B( 17-C , 33-H ) :   0.9589 B( 18-C , 19-C ) :   1.2244
B( 18-C , 21-H ) :   0.9898 B( 19-C , 20-C ) :   1.6426 B( 19-C , 22-C ) :   1.0260
B( 22-C , 23-H ) :   0.9321 B( 22-C , 24-H ) :   0.9198 B( 22-C , 25-C ) :   1.0920
B( 25-C , 26-H ) :   0.9498 B( 25-C , 27-H ) :   0.9431 B( 25-C , 28-C ) :   1.0785
B( 28-C , 29-H ) :   0.9719 B( 28-C , 30-H ) :   0.9776 B( 28-C , 31-H ) :   0.9678

Dispersion correction           -0.014211533
FINAL SINGLE POINT ENERGY     -1339.878971443608

DIPOLE MOMENT
-------------
                                X             Y             Z
Electronic contribution:     10.50280     -27.38987      -5.01280
Nuclear contribution   :    -10.72670      28.18563       5.11900
                        -----------------------------------------
Total Dipole Moment    :     -0.22390       0.79576       0.10620
                        -----------------------------------------
Magnitude (a.u.)       :      0.83346
Magnitude (Debye)      :      2.11848

Rotational constants in cm-1:     0.017816     0.008955     0.006546
Rotational constants in MHz :   534.122104   268.477971   196.243961

                             ****ORCA TERMINATED NORMALLY****
TOTAL RUN TIME: 0 days 0 hours 0 minutes 32 seconds 741 msec
