                         Program Version 4.2.1 -  RELEASE  -
|  1> ! wB97X-D3 SP def2-SVP
|  2> %pal
|  3> nprocs 16
|  4> end
|  5>
|  6> * xyz 0 1
|  7> S 	 -52.8511 	 42.8506 	 108.004
|  8> C 	 -51.8917 	 43.9202 	 109.025
|  9> C 	 -52.2022 	 45.2194 	 108.797
| 10> C 	 -53.1094 	 45.3813 	 107.695
| 11> C 	 -53.6698 	 44.1589 	 107.313
| 12> H 	 -53.5986 	 46.2186 	 107.262
| 13> C 	 -51.804 	 46.4031 	 109.641
| 14> H 	 -51.9883 	 46.0218 	 110.667
| 15> H 	 -52.3667 	 47.3241 	 109.635
| 16> C 	 -50.2926 	 46.7097 	 109.472
| 17> H 	 -49.7305 	 45.7246 	 109.579
| 18> H 	 -50.1548 	 46.972 	 108.469
| 19> C 	 -49.6357 	 47.8251 	 110.343
| 20> H 	 -50.1741 	 48.8004 	 110.208
| 21> H 	 -49.5258 	 47.6144 	 111.442
| 22> H 	 -48.5777 	 48.09 	 110.149
| 23> S 	 -54.1983 	 44.4715 	 104.618
| 24> C 	 -55.8473 	 44.4315 	 104.072
| 25> C 	 -56.6668 	 43.9471 	 105.096
| 26> C 	 -56.0373 	 43.8036 	 106.34
| 27> C 	 -54.645 	 44.0239 	 106.252
| 28> H 	 -57.6993 	 43.6717 	 104.865
| 29> C 	 -56.7549 	 43.194 	 107.522
| 30> H 	 -56.0016 	 42.7864 	 108.226
| 31> H 	 -57.2914 	 42.2508 	 107.246
| 32> C 	 -57.7918 	 44.1612 	 108.197
| 33> H 	 -58.3785 	 43.6085 	 108.936
| 34> H 	 -58.4856 	 44.3629 	 107.391
| 35> C 	 -57.2144 	 45.3949 	 108.899
| 36> H 	 -57.072 	 46.2385 	 108.294
| 37> H 	 -56.2338 	 45.098 	 109.345
| 38> H 	 -57.9057 	 45.7063 	 109.711
| 39> H 	 -51.0332 	 43.5095 	 109.673
| 40> H 	 -56.0723 	 44.7083 	 103.072
| 41> *
| 42>
| 43>                          ****END OF INPUT****

CARTESIAN COORDINATES (ANGSTROEM)
---------------------------------
  S    -52.851100   42.850600  108.004000
  C    -51.891700   43.920200  109.025000
  C    -52.202200   45.219400  108.797000
  C    -53.109400   45.381300  107.695000
  C    -53.669800   44.158900  107.313000
  H    -53.598600   46.218600  107.262000
  C    -51.804000   46.403100  109.641000
  H    -51.988300   46.021800  110.667000
  H    -52.366700   47.324100  109.635000
  C    -50.292600   46.709700  109.472000
  H    -49.730500   45.724600  109.579000
  H    -50.154800   46.972000  108.469000
  C    -49.635700   47.825100  110.343000
  H    -50.174100   48.800400  110.208000
  H    -49.525800   47.614400  111.442000
  H    -48.577700   48.090000  110.149000
  S    -54.198300   44.471500  104.618000
  C    -55.847300   44.431500  104.072000
  C    -56.666800   43.947100  105.096000
  C    -56.037300   43.803600  106.340000
  C    -54.645000   44.023900  106.252000
  H    -57.699300   43.671700  104.865000
  C    -56.754900   43.194000  107.522000
  H    -56.001600   42.786400  108.226000
  H    -57.291400   42.250800  107.246000
  C    -57.791800   44.161200  108.197000
  H    -58.378500   43.608500  108.936000
  H    -58.485600   44.362900  107.391000
  C    -57.214400   45.394900  108.899000
  H    -57.072000   46.238500  108.294000
  H    -56.233800   45.098000  109.345000
  H    -57.905700   45.706300  109.711000
  H    -51.033200   43.509500  109.673000
  H    -56.072300   44.708300  103.072000

 Total Charge           Charge          ....    0
 Multiplicity           Mult            ....    1
 Number of Electrons    NEL             ....  134
 Basis Dimension        Dim             ....  322

ORBITAL ENERGIES
----------------

  NO   OCC          E(Eh)            E(eV)
   0   2.0000     -88.966933     -2420.9133
   1   2.0000     -88.966266     -2420.8952
   2   2.0000     -10.325142      -280.9614
   3   2.0000     -10.322352      -280.8855
   4   2.0000     -10.318652      -280.7848
   5   2.0000     -10.316931      -280.7380
   6   2.0000     -10.304259      -280.3931
   7   2.0000     -10.301864      -280.3280
   8   2.0000     -10.294179      -280.1188
   9   2.0000     -10.294116      -280.1171
  10   2.0000     -10.293935      -280.1122
  11   2.0000     -10.290879      -280.0291
  12   2.0000     -10.290329      -280.0141
  13   2.0000     -10.288205      -279.9563
  14   2.0000     -10.284640      -279.8593
  15   2.0000     -10.273016      -279.5430
  16   2.0000      -8.082391      -219.9330
  17   2.0000      -8.081063      -219.8969
  18   2.0000      -6.040719      -164.3763
  19   2.0000      -6.039391      -164.3402
  20   2.0000      -6.036701      -164.2670
  21   2.0000      -6.035410      -164.2318
  22   2.0000      -6.033381      -164.1766
  23   2.0000      -6.032176      -164.1438
  24   2.0000      -1.011285       -27.5185
  25   2.0000      -0.987376       -26.8679
  26   2.0000      -0.910489       -24.7757
  27   2.0000      -0.902248       -24.5514
  28   2.0000      -0.867146       -23.5963
  29   2.0000      -0.848688       -23.0940
  30   2.0000      -0.845377       -23.0039
  31   2.0000      -0.808857       -22.0101
  32   2.0000      -0.783157       -21.3108
  33   2.0000      -0.772379       -21.0175
  34   2.0000      -0.703327       -19.1385
  35   2.0000      -0.701417       -19.0865
  36   2.0000      -0.694583       -18.9006
  37   2.0000      -0.656451       -17.8629
  38   2.0000      -0.646598       -17.5948
  39   2.0000      -0.611614       -16.6429
  40   2.0000      -0.598557       -16.2876
  41   2.0000      -0.575465       -15.6592
  42   2.0000      -0.548834       -14.9345
  43   2.0000      -0.544557       -14.8181
  44   2.0000      -0.542049       -14.7499
  45   2.0000      -0.520630       -14.1671
  46   2.0000      -0.513891       -13.9837
  47   2.0000      -0.511375       -13.9152
  48   2.0000      -0.505507       -13.7555
  49   2.0000      -0.495428       -13.4813
  50   2.0000      -0.490336       -13.3427
  51   2.0000      -0.481775       -13.1098
  52   2.0000      -0.472322       -12.8525
  53   2.0000      -0.463603       -12.6153
  54   2.0000      -0.459986       -12.5169
  55   2.0000      -0.442753       -12.0479
  56   2.0000      -0.440254       -11.9799
  57   2.0000      -0.431126       -11.7315
  58   2.0000      -0.429296       -11.6817
  59   2.0000      -0.423902       -11.5350
  60   2.0000      -0.418632       -11.3916
  61   2.0000      -0.416455       -11.3323
  62   2.0000      -0.414853       -11.2887
  63   2.0000      -0.336421        -9.1545
  64   2.0000      -0.330165        -8.9842
  65   2.0000      -0.325156        -8.8479
  66   2.0000      -0.301776        -8.2118
  67   0.0000       0.037037         1.0078
  68   0.0000       0.058290         1.5862
  69   0.0000       0.110259         3.0003
  70   0.0000       0.115109         3.1323
  71   0.0000       0.126114         3.4317

MULLIKEN ATOMIC CHARGES
-----------------------
   0 S :    0.123309
   1 C :   -0.170371
   2 C :   -0.054254
   3 C :    0.045075
   4 C :   -0.179093
   5 H :    0.006209
   6 C :    0.073278
   7 H :    0.033110
   8 H :    0.025444
   9 C :   -0.075677
  10 H :    0.030505
  11 H :    0.020444
  12 C :   -0.078263
  13 H :    0.036504
  14 H :    0.036111
  15 H :    0.034858
  16 S :    0.119795
  17 C :   -0.105178
  18 C :   -0.027058
  19 C :    0.014569
  20 C :   -0.190906
  21 H :    0.025428
  22 C :    0.015097
  23 H :    0.020183
  24 H :    0.039043
  25 C :   -0.068390
  26 H :    0.025790
  27 H :    0.020779
  28 C :   -0.036532
  29 H :    0.028714
  30 H :    0.039194
  31 H :    0.035089
  32 H :    0.084518
  33 H :    0.052678
Sum of atomic charges:   -0.0000000

LOEWDIN ATOMIC CHARGES
----------------------
   0 S :    0.432222
   1 C :   -0.210417
   2 C :   -0.061198
   3 C :   -0.056036
   4 C :   -0.219540
   5 H :    0.027717
   6 C :   -0.030708
   7 H :    0.037001
   8 H :    0.028689
   9 C :   -0.040995
  10 H :    0.028698
  11 H :    0.017607
  12 C :   -0.085395
  13 H :    0.028612
  14 H :    0.028310
  15 H :    0.030255
  16 S :    0.422904
  17 C :   -0.185438
  18 C :   -0.072295
  19 C :   -0.057728
  20 C :   -0.208060
  21 H :    0.033076
  22 C :   -0.037571
  23 H :    0.024620
  24 H :    0.038282
  25 C :   -0.040931
  26 H :    0.023988
  27 H :    0.019560
  28 C :   -0.065268
  29 H :    0.017111
  30 H :    0.033061
  31 H :    0.031407
  32 H :    0.046771
  33 H :    0.021691

  Mayer bond orders larger than 0.100000
B(  0-S ,  1-C ) :   1.1407 B(  0-S ,  4-C ) :   1.1793 B(  1-C ,  2-C ) :   1.6150
B(  1-C , 32-H ) :   0.9557 B(  2-C ,  3-C ) :   1.2297 B(  2-C ,  6-C ) :   1.0039
B(  3-C ,  4-C ) :   1.5675 B(  3-C ,  5-H ) :   1.0018 B(  4-C , 20-C ) :   1.0095
B(  6-C ,  7-H ) :   0.9430 B(  6-C ,  8-H ) :   0.9533 B(  6-C ,  9-C ) :   1.0480
B(  9-C , 10-H ) :   0.9604 B(  9-C , 11-H ) :   0.9578 B(  9-C , 12-C ) :   1.0693
B( 12-C , 13-H ) :   0.9734 B( 12-C , 14-H ) :   0.9767 B( 12-C , 15-H ) :   0.9748
B( 16-S , 17-C ) :   1.1800 B( 16-S , 20-C ) :   1.1681 B( 17-C , 18-C ) :   1.5476
B( 17-C , 20-C ) :   0.1117 B( 17-C , 33-H ) :   0.9772 B( 18-C , 19-C ) :   1.2835
B( 18-C , 21-H ) :   0.9878 B( 19-C , 20-C ) :   1.5443 B( 19-C , 22-C ) :   1.0347
B( 22-C , 23-H ) :   0.9382 B( 22-C , 24-H ) :   0.9458 B( 22-C , 25-C ) :   1.0666
B( 25-C , 26-H ) :   0.9592 B( 25-C , 27-H ) :   0.9586 B( 25-C , 28-C ) :   1.0648
B( 28-C , 29-H ) :   0.9762 B( 28-C , 30-H ) :   0.9755 B( 28-C , 31-H ) :   0.9769

Dispersion correction           -0.014687425
FINAL SINGLE POINT ENERGY     -1339.872137787578

DIPOLE MOMENT
-------------
                                X             Y             Z
Electronic contribution:      0.89562     -14.31148     -18.70692
Nuclear contribution   :     -1.06644      14.57712      18.92110
                        -----------------------------------------
Total Dipole Moment    :     -0.17082       0.26564       0.21417
                        -----------------------------------------
Magnitude (a.u.)       :      0.38159
Magnitude (Debye)      :      0.96993

Rotational constants in cm-1:     0.021055     0.007596     0.006885
Rotational constants in MHz :   631.201320   227.717474   206.418295

                             ****ORCA TERMINATED NORMALLY****
TOTAL RUN TIME: 0 days 0 hours 0 minutes 28 seconds 645 msec
