                         Program Version 4.2.1 -  RELEASE  -
|  1> ! wB97X-D3 SP def2-SVP
|  2> %pal
|  3> nprocs 16
|  4> end
|  5>
|  6> * xyz 0 1
|  7> S 	 -14.3799 	 32.8842 	 35.989
|  8> C 	 -13.1027 	 34.0362 	 35.4129
|  9> C 	 -13.1854 	 34.1635 	 34.0226
| 10> C 	 -14.1998 	 33.2906 	 33.4205
| 11> C 	 -14.9305 	 32.5484 	 34.3157
| 12> H 	 -14.5966 	 33.2605 	 32.4559
| 13> C 	 -12.461 	 35.0923 	 33.0964
| 14> H 	 -12.0611 	 34.5828 	 32.1935
| 15> H 	 -11.5265 	 35.3231 	 33.702
| 16> C 	 -13.0605 	 36.4439 	 32.8001
| 17> H 	 -14.1041 	 36.2566 	 32.5019
| 18> H 	 -12.985 	 36.961 	 33.7568
| 19> C 	 -12.3664 	 37.229 	 31.6769
| 20> H 	 -12.612 	 38.3006 	 31.73
| 21> H 	 -11.2827 	 37.0388 	 31.7962
| 22> H 	 -12.6844 	 36.9157 	 30.7551
| 23> S 	 -17.7305 	 32.1743 	 34.6787
| 24> C 	 -18.5339 	 30.9514 	 33.73
| 25> C 	 -17.6252 	 30.2166 	 33.0576
| 26> C 	 -16.2762 	 30.684 	 33.1523
| 27> C 	 -16.1585 	 31.7575 	 33.99
| 28> H 	 -17.9072 	 29.3588 	 32.3622
| 29> C 	 -15.0866 	 30.1851 	 32.323
| 30> H 	 -14.7946 	 29.1859 	 32.7049
| 31> H 	 -14.2404 	 30.8582 	 32.3617
| 32> C 	 -15.5276 	 30.0324 	 30.7695
| 33> H 	 -16.3634 	 29.3299 	 30.6958
| 34> H 	 -14.7495 	 29.4205 	 30.3094
| 35> C 	 -15.8282 	 31.2982 	 29.8948
| 36> H 	 -15.8713 	 30.9229 	 28.8592
| 37> H 	 -15.0942 	 32.0491 	 29.9305
| 38> H 	 -16.7156 	 31.8252 	 30.1981
| 39> H 	 -12.3673 	 34.6014 	 35.9435
| 40> H 	 -19.5719 	 30.9142 	 33.7564
| 41> *
| 42>
| 43>                          ****END OF INPUT****

CARTESIAN COORDINATES (ANGSTROEM)
---------------------------------
  S    -14.379900   32.884200   35.989000
  C    -13.102700   34.036200   35.412900
  C    -13.185400   34.163500   34.022600
  C    -14.199800   33.290600   33.420500
  C    -14.930500   32.548400   34.315700
  H    -14.596600   33.260500   32.455900
  C    -12.461000   35.092300   33.096400
  H    -12.061100   34.582800   32.193500
  H    -11.526500   35.323100   33.702000
  C    -13.060500   36.443900   32.800100
  H    -14.104100   36.256600   32.501900
  H    -12.985000   36.961000   33.756800
  C    -12.366400   37.229000   31.676900
  H    -12.612000   38.300600   31.730000
  H    -11.282700   37.038800   31.796200
  H    -12.684400   36.915700   30.755100
  S    -17.730500   32.174300   34.678700
  C    -18.533900   30.951400   33.730000
  C    -17.625200   30.216600   33.057600
  C    -16.276200   30.684000   33.152300
  C    -16.158500   31.757500   33.990000
  H    -17.907200   29.358800   32.362200
  C    -15.086600   30.185100   32.323000
  H    -14.794600   29.185900   32.704900
  H    -14.240400   30.858200   32.361700
  C    -15.527600   30.032400   30.769500
  H    -16.363400   29.329900   30.695800
  H    -14.749500   29.420500   30.309400
  C    -15.828200   31.298200   29.894800
  H    -15.871300   30.922900   28.859200
  H    -15.094200   32.049100   29.930500
  H    -16.715600   31.825200   30.198100
  H    -12.367300   34.601400   35.943500
  H    -19.571900   30.914200   33.756400

 Total Charge           Charge          ....    0
 Multiplicity           Mult            ....    1
 Number of Electrons    NEL             ....  134
 Basis Dimension        Dim             ....  322

ORBITAL ENERGIES
----------------

  NO   OCC          E(Eh)            E(eV)
   0   2.0000     -88.968120     -2420.9456
   1   2.0000     -88.962032     -2420.7800
   2   2.0000     -10.335482      -281.2428
   3   2.0000     -10.327722      -281.0316
   4   2.0000     -10.323574      -280.9187
   5   2.0000     -10.315616      -280.7022
   6   2.0000     -10.308933      -280.5203
   7   2.0000     -10.302437      -280.3436
   8   2.0000     -10.299475      -280.2630
   9   2.0000     -10.299410      -280.2612
  10   2.0000     -10.294823      -280.1364
  11   2.0000     -10.294713      -280.1334
  12   2.0000     -10.290874      -280.0289
  13   2.0000     -10.286032      -279.8971
  14   2.0000     -10.279348      -279.7153
  15   2.0000     -10.276851      -279.6473
  16   2.0000      -8.080909      -219.8927
  17   2.0000      -8.077152      -219.7905
  18   2.0000      -6.039760      -164.3502
  19   2.0000      -6.035712      -164.2401
  20   2.0000      -6.035692      -164.2395
  21   2.0000      -6.031605      -164.1283
  22   2.0000      -6.031371      -164.1220
  23   2.0000      -6.027848      -164.0261
  24   2.0000      -1.004027       -27.3210
  25   2.0000      -0.977636       -26.6028
  26   2.0000      -0.914376       -24.8814
  27   2.0000      -0.897496       -24.4221
  28   2.0000      -0.869219       -23.6527
  29   2.0000      -0.847389       -23.0586
  30   2.0000      -0.841745       -22.9050
  31   2.0000      -0.818637       -22.2762
  32   2.0000      -0.784188       -21.3389
  33   2.0000      -0.775515       -21.1028
  34   2.0000      -0.706496       -19.2247
  35   2.0000      -0.702848       -19.1255
  36   2.0000      -0.698249       -19.0003
  37   2.0000      -0.654227       -17.8024
  38   2.0000      -0.643982       -17.5237
  39   2.0000      -0.615452       -16.7473
  40   2.0000      -0.603176       -16.4133
  41   2.0000      -0.571541       -15.5524
  42   2.0000      -0.564529       -15.3616
  43   2.0000      -0.545432       -14.8420
  44   2.0000      -0.532958       -14.5025
  45   2.0000      -0.524709       -14.2781
  46   2.0000      -0.520046       -14.1512
  47   2.0000      -0.517338       -14.0775
  48   2.0000      -0.505746       -13.7620
  49   2.0000      -0.499555       -13.5936
  50   2.0000      -0.493849       -13.4383
  51   2.0000      -0.480690       -13.0802
  52   2.0000      -0.476375       -12.9628
  53   2.0000      -0.466367       -12.6905
  54   2.0000      -0.455081       -12.3834
  55   2.0000      -0.450895       -12.2695
  56   2.0000      -0.441823       -12.0226
  57   2.0000      -0.438581       -11.9344
  58   2.0000      -0.430249       -11.7077
  59   2.0000      -0.423809       -11.5324
  60   2.0000      -0.421067       -11.4578
  61   2.0000      -0.411606       -11.2004
  62   2.0000      -0.406732       -11.0677
  63   2.0000      -0.348130        -9.4731
  64   2.0000      -0.330461        -8.9923
  65   2.0000      -0.327188        -8.9032
  66   2.0000      -0.300879        -8.1873
  67   0.0000       0.035321         0.9611
  68   0.0000       0.064082         1.7438
  69   0.0000       0.110507         3.0070
  70   0.0000       0.118728         3.2308
  71   0.0000       0.127833         3.4785

MULLIKEN ATOMIC CHARGES
-----------------------
   0 S :    0.097029
   1 C :   -0.093478
   2 C :   -0.088587
   3 C :    0.058362
   4 C :   -0.158686
   5 H :   -0.006142
   6 C :    0.003484
   7 H :    0.035658
   8 H :    0.015515
   9 C :   -0.057282
  10 H :    0.029769
  11 H :    0.028882
  12 C :   -0.014249
  13 H :    0.041741
  14 H :    0.032297
  15 H :    0.014274
  16 S :    0.094808
  17 C :   -0.078501
  18 C :   -0.024639
  19 C :   -0.044323
  20 C :   -0.168568
  21 H :    0.042175
  22 C :    0.085919
  23 H :    0.040037
  24 H :    0.031267
  25 C :   -0.113906
  26 H :    0.020281
  27 H :    0.022817
  28 C :   -0.023385
  29 H :    0.042514
  30 H :    0.018431
  31 H :    0.038432
  32 H :    0.037354
  33 H :    0.040698
Sum of atomic charges:   -0.0000000

LOEWDIN ATOMIC CHARGES
----------------------
   0 S :    0.363105
   1 C :   -0.178700
   2 C :   -0.056173
   3 C :   -0.060455
   4 C :   -0.168838
   5 H :    0.022045
   6 C :   -0.048265
   7 H :    0.031117
   8 H :    0.031919
   9 C :   -0.039998
  10 H :    0.023507
  11 H :    0.025999
  12 C :   -0.056100
  13 H :    0.033323
  14 H :    0.028802
  15 H :    0.012431
  16 S :    0.392546
  17 C :   -0.165612
  18 C :   -0.078238
  19 C :   -0.061121
  20 C :   -0.197531
  21 H :    0.042589
  22 C :   -0.022078
  23 H :    0.037726
  24 H :    0.027511
  25 C :   -0.041334
  26 H :    0.018501
  27 H :    0.022043
  28 C :   -0.062161
  29 H :    0.036015
  30 H :    0.014874
  31 H :    0.026291
  32 H :    0.028396
  33 H :    0.017865

  Mayer bond orders larger than 0.100000
B(  0-S ,  1-C ) :   1.1055 B(  0-S ,  4-C ) :   1.1226 B(  1-C ,  2-C ) :   1.6543
B(  1-C , 32-H ) :   0.9682 B(  2-C ,  3-C ) :   1.1839 B(  2-C ,  6-C ) :   1.0372
B(  3-C ,  4-C ) :   1.6314 B(  3-C ,  5-H ) :   0.9907 B(  4-C , 20-C ) :   1.0159
B(  6-C ,  7-H ) :   0.9450 B(  6-C ,  8-H ) :   0.9298 B(  6-C ,  9-C ) :   1.0605
B(  9-C , 10-H ) :   0.9590 B(  9-C , 11-H ) :   0.9544 B(  9-C , 12-C ) :   1.0775
B( 12-C , 13-H ) :   0.9734 B( 12-C , 14-H ) :   0.9743 B( 12-C , 15-H ) :   0.9751
B( 16-S , 17-C ) :   1.1549 B( 16-S , 20-C ) :   1.1308 B( 17-C , 18-C ) :   1.6032
B( 17-C , 33-H ) :   0.9832 B( 18-C , 19-C ) :   1.2362 B( 18-C , 21-H ) :   0.9768
B( 19-C , 20-C ) :   1.6230 B( 19-C , 22-C ) :   1.0398 B( 22-C , 23-H ) :   0.9295
B( 22-C , 24-H ) :   0.9411 B( 22-C , 25-C ) :   1.0637 B( 25-C , 26-H ) :   0.9572
B( 25-C , 27-H ) :   0.9593 B( 25-C , 28-C ) :   1.0615 B( 28-C , 29-H ) :   0.9727
B( 28-C , 30-H ) :   0.9754 B( 28-C , 31-H ) :   0.9767

Dispersion correction           -0.014429616
FINAL SINGLE POINT ENERGY     -1339.866698399764

DIPOLE MOMENT
-------------
                                X             Y             Z
Electronic contribution:    -12.25793      -7.98299      24.80704
Nuclear contribution   :     12.38556       8.04468     -25.57590
                        -----------------------------------------
Total Dipole Moment    :      0.12763       0.06169      -0.76885
                        -----------------------------------------
Magnitude (a.u.)       :      0.78181
Magnitude (Debye)      :      1.98721

Rotational constants in cm-1:     0.017777     0.008536     0.006838
Rotational constants in MHz :   532.931456   255.903942   205.003248

                             ****ORCA TERMINATED NORMALLY****
TOTAL RUN TIME: 0 days 0 hours 0 minutes 34 seconds 139 msec
