                         Program Version 4.2.1 -  RELEASE  -
|  1> ! wB97X-D3 SP def2-SVP
|  2> %pal
|  3> nprocs 16
|  4> end
|  5>
|  6> * xyz 0 1
|  7> S 	 29.9804 	 -5.39752 	 79.6098
|  8> C 	 31.1475 	 -4.17369 	 79.0254
|  9> C 	 30.6156 	 -2.91628 	 79.044
| 10> C 	 29.2457 	 -2.93269 	 79.4736
| 11> C 	 28.7231 	 -4.17171 	 79.7823
| 12> H 	 28.5672 	 -2.06321 	 79.5345
| 13> C 	 31.3632 	 -1.67032 	 78.7297
| 14> H 	 30.5949 	 -0.905251 	 78.5704
| 15> H 	 31.8756 	 -1.90264 	 77.7119
| 16> C 	 32.4461 	 -1.21539 	 79.7349
| 17> H 	 33.1693 	 -2.00044 	 79.8271
| 18> H 	 32.9979 	 -0.401739 	 79.413
| 19> C 	 31.9971 	 -0.701735 	 81.0781
| 20> H 	 32.8197 	 -0.315323 	 81.7416
| 21> H 	 31.2262 	 0.131958 	 80.9585
| 22> H 	 31.4995 	 -1.54198 	 81.6311
| 23> S 	 26.7405 	 -5.96096 	 78.8145
| 24> C 	 25.2391 	 -5.93031 	 79.5785
| 25> C 	 25.094 	 -4.90086 	 80.4804
| 26> C 	 26.2974 	 -4.19429 	 80.7222
| 27> C 	 27.3158 	 -4.64924 	 79.9389
| 28> H 	 24.0755 	 -4.63833 	 80.9071
| 29> C 	 26.2991 	 -2.98187 	 81.5996
| 30> H 	 25.22 	 -2.81545 	 81.7328
| 31> H 	 26.7473 	 -2.11349 	 81.1263
| 32> C 	 26.9192 	 -3.1886 	 82.9564
| 33> H 	 26.9921 	 -2.28124 	 83.5353
| 34> H 	 27.916 	 -3.51604 	 82.7931
| 35> C 	 26.1708 	 -4.14944 	 83.8139
| 36> H 	 26.2586 	 -5.18286 	 83.5461
| 37> H 	 25.1112 	 -4.03465 	 83.8483
| 38> H 	 26.7103 	 -4.10262 	 84.7307
| 39> H 	 32.1384 	 -4.41767 	 78.7061
| 40> H 	 24.462 	 -6.67285 	 79.4101
| 41> *
| 42>
| 43>                          ****END OF INPUT****

CARTESIAN COORDINATES (ANGSTROEM)
---------------------------------
  S     29.980400   -5.397520   79.609800
  C     31.147500   -4.173690   79.025400
  C     30.615600   -2.916280   79.044000
  C     29.245700   -2.932690   79.473600
  C     28.723100   -4.171710   79.782300
  H     28.567200   -2.063210   79.534500
  C     31.363200   -1.670320   78.729700
  H     30.594900   -0.905251   78.570400
  H     31.875600   -1.902640   77.711900
  C     32.446100   -1.215390   79.734900
  H     33.169300   -2.000440   79.827100
  H     32.997900   -0.401739   79.413000
  C     31.997100   -0.701735   81.078100
  H     32.819700   -0.315323   81.741600
  H     31.226200    0.131958   80.958500
  H     31.499500   -1.541980   81.631100
  S     26.740500   -5.960960   78.814500
  C     25.239100   -5.930310   79.578500
  C     25.094000   -4.900860   80.480400
  C     26.297400   -4.194290   80.722200
  C     27.315800   -4.649240   79.938900
  H     24.075500   -4.638330   80.907100
  C     26.299100   -2.981870   81.599600
  H     25.220000   -2.815450   81.732800
  H     26.747300   -2.113490   81.126300
  C     26.919200   -3.188600   82.956400
  H     26.992100   -2.281240   83.535300
  H     27.916000   -3.516040   82.793100
  C     26.170800   -4.149440   83.813900
  H     26.258600   -5.182860   83.546100
  H     25.111200   -4.034650   83.848300
  H     26.710300   -4.102620   84.730700
  H     32.138400   -4.417670   78.706100
  H     24.462000   -6.672850   79.410100

 Total Charge           Charge          ....    0
 Multiplicity           Mult            ....    1
 Number of Electrons    NEL             ....  134
 Basis Dimension        Dim             ....  322

ORBITAL ENERGIES
----------------

  NO   OCC          E(Eh)            E(eV)
   0   2.0000     -88.966435     -2420.8998
   1   2.0000     -88.963517     -2420.8204
   2   2.0000     -10.332554      -281.1631
   3   2.0000     -10.329444      -281.0785
   4   2.0000     -10.314129      -280.6617
   5   2.0000     -10.313291      -280.6389
   6   2.0000     -10.301529      -280.3189
   7   2.0000     -10.300385      -280.2877
   8   2.0000     -10.298394      -280.2336
   9   2.0000     -10.297828      -280.2181
  10   2.0000     -10.294212      -280.1197
  11   2.0000     -10.286861      -279.9197
  12   2.0000     -10.286533      -279.9108
  13   2.0000     -10.280374      -279.7432
  14   2.0000     -10.273489      -279.5559
  15   2.0000     -10.261712      -279.2354
  16   2.0000      -8.081484      -219.9084
  17   2.0000      -8.077604      -219.8028
  18   2.0000      -6.039922      -164.3546
  19   2.0000      -6.036195      -164.2532
  20   2.0000      -6.036032      -164.2488
  21   2.0000      -6.032192      -164.1443
  22   2.0000      -6.032153      -164.1432
  23   2.0000      -6.028361      -164.0400
  24   2.0000      -1.005420       -27.3589
  25   2.0000      -0.985155       -26.8074
  26   2.0000      -0.920517       -25.0485
  27   2.0000      -0.913705       -24.8632
  28   2.0000      -0.867328       -23.6012
  29   2.0000      -0.858013       -23.3477
  30   2.0000      -0.841901       -22.9093
  31   2.0000      -0.812274       -22.1031
  32   2.0000      -0.788505       -21.4563
  33   2.0000      -0.772388       -21.0177
  34   2.0000      -0.710394       -19.3308
  35   2.0000      -0.704688       -19.1755
  36   2.0000      -0.687914       -18.7191
  37   2.0000      -0.659874       -17.9561
  38   2.0000      -0.639447       -17.4002
  39   2.0000      -0.610500       -16.6126
  40   2.0000      -0.592585       -16.1251
  41   2.0000      -0.574052       -15.6208
  42   2.0000      -0.560489       -15.2517
  43   2.0000      -0.555999       -15.1295
  44   2.0000      -0.551093       -14.9960
  45   2.0000      -0.540017       -14.6946
  46   2.0000      -0.516371       -14.0512
  47   2.0000      -0.511131       -13.9086
  48   2.0000      -0.501931       -13.6582
  49   2.0000      -0.491372       -13.3709
  50   2.0000      -0.488561       -13.2944
  51   2.0000      -0.479008       -13.0345
  52   2.0000      -0.476212       -12.9584
  53   2.0000      -0.465018       -12.6538
  54   2.0000      -0.461806       -12.5664
  55   2.0000      -0.443399       -12.0655
  56   2.0000      -0.439530       -11.9602
  57   2.0000      -0.433197       -11.7879
  58   2.0000      -0.431169       -11.7327
  59   2.0000      -0.429292       -11.6816
  60   2.0000      -0.424365       -11.5476
  61   2.0000      -0.411999       -11.2110
  62   2.0000      -0.410662       -11.1747
  63   2.0000      -0.344093        -9.3633
  64   2.0000      -0.335890        -9.1400
  65   2.0000      -0.326456        -8.8833
  66   2.0000      -0.294711        -8.0195
  67   0.0000       0.027013         0.7351
  68   0.0000       0.067578         1.8389
  69   0.0000       0.103999         2.8300
  70   0.0000       0.116207         3.1621
  71   0.0000       0.126065         3.4304

MULLIKEN ATOMIC CHARGES
-----------------------
   0 S :    0.089396
   1 C :   -0.123761
   2 C :   -0.076080
   3 C :    0.026977
   4 C :   -0.160616
   5 H :    0.016830
   6 C :    0.036638
   7 H :    0.021779
   8 H :    0.050592
   9 C :    0.001940
  10 H :    0.014956
  11 H :    0.011517
  12 C :   -0.110351
  13 H :    0.048767
  14 H :    0.035123
  15 H :    0.044121
  16 S :    0.121920
  17 C :   -0.091247
  18 C :   -0.068763
  19 C :   -0.028354
  20 C :   -0.167165
  21 H :    0.039567
  22 C :    0.084892
  23 H :    0.009163
  24 H :    0.027035
  25 C :   -0.039281
  26 H :    0.022588
  27 H :    0.023960
  28 C :   -0.025311
  29 H :    0.023225
  30 H :    0.018759
  31 H :    0.023084
  32 H :    0.038084
  33 H :    0.060016
Sum of atomic charges:    0.0000000

LOEWDIN ATOMIC CHARGES
----------------------
   0 S :    0.380535
   1 C :   -0.175070
   2 C :   -0.071575
   3 C :   -0.067871
   4 C :   -0.186943
   5 H :    0.032880
   6 C :   -0.032759
   7 H :    0.028746
   8 H :    0.048355
   9 C :   -0.040781
  10 H :    0.021238
  11 H :    0.017911
  12 C :   -0.075499
  13 H :    0.033146
  14 H :    0.028792
  15 H :    0.027253
  16 S :    0.409098
  17 C :   -0.201629
  18 C :   -0.085755
  19 C :   -0.056500
  20 C :   -0.182325
  21 H :    0.040711
  22 C :   -0.026541
  23 H :    0.029461
  24 H :    0.028782
  25 C :   -0.034613
  26 H :    0.023566
  27 H :    0.023900
  28 C :   -0.062650
  29 H :    0.024117
  30 H :    0.019833
  31 H :    0.028043
  32 H :    0.022277
  33 H :    0.031869

  Mayer bond orders larger than 0.100000
B(  0-S ,  1-C ) :   1.1294 B(  0-S ,  4-C ) :   1.1444 B(  1-C ,  2-C ) :   1.6169
B(  1-C , 32-H ) :   0.9733 B(  2-C ,  3-C ) :   1.2282 B(  2-C ,  6-C ) :   1.0193
B(  3-C ,  4-C ) :   1.5971 B(  3-C ,  5-H ) :   0.9838 B(  4-C , 20-C ) :   1.0179
B(  6-C ,  7-H ) :   0.9419 B(  6-C ,  8-H ) :   0.9362 B(  6-C ,  9-C ) :   1.0723
B(  9-C , 10-H ) :   0.9508 B(  9-C , 11-H ) :   0.9520 B(  9-C , 12-C ) :   1.0751
B( 12-C , 13-H ) :   0.9726 B( 12-C , 14-H ) :   0.9724 B( 12-C , 15-H ) :   0.9765
B( 16-S , 17-C ) :   1.1741 B( 16-S , 20-C ) :   1.1275 B( 17-C , 18-C ) :   1.6074
B( 17-C , 33-H ) :   0.9612 B( 18-C , 19-C ) :   1.2497 B( 18-C , 21-H ) :   0.9751
B( 19-C , 20-C ) :   1.6206 B( 19-C , 22-C ) :   1.0237 B( 22-C , 23-H ) :   0.9343
B( 22-C , 24-H ) :   0.9348 B( 22-C , 25-C ) :   1.0834 B( 25-C , 26-H ) :   0.9565
B( 25-C , 27-H ) :   0.9493 B( 25-C , 28-C ) :   1.0840 B( 28-C , 29-H ) :   0.9685
B( 28-C , 30-H ) :   0.9744 B( 28-C , 31-H ) :   0.9696

Dispersion correction           -0.014628016
FINAL SINGLE POINT ENERGY     -1339.874987365098

DIPOLE MOMENT
-------------
                                X             Y             Z
Electronic contribution:     -5.38681     -20.36954     -15.67500
Nuclear contribution   :      5.39579      20.91217      15.79984
                        -----------------------------------------
Total Dipole Moment    :      0.00898       0.54263       0.12484
                        -----------------------------------------
Magnitude (a.u.)       :      0.55687
Magnitude (Debye)      :      1.41546

Rotational constants in cm-1:     0.020325     0.008707     0.006855
Rotational constants in MHz :   609.326704   261.018946   205.492860

                             ****ORCA TERMINATED NORMALLY****
TOTAL RUN TIME: 0 days 0 hours 0 minutes 30 seconds 710 msec
