                         Program Version 4.2.1 -  RELEASE  -
|  1> ! wB97X-D3 SP def2-SVP
|  2> %pal
|  3> nprocs 16
|  4> end
|  5>
|  6> * xyz 0 1
|  7> S 	 -47.1634 	 56.0802 	 99.739
|  8> C 	 -48.884 	 56.249 	 100.25
|  9> C 	 -49.7249 	 56.137 	 99.1943
| 10> C 	 -49.0044 	 56.2141 	 97.9762
| 11> C 	 -47.6481 	 56.2817 	 98.1156
| 12> H 	 -49.4145 	 56.2152 	 97.0463
| 13> C 	 -51.2372 	 56.117 	 99.2708
| 14> H 	 -51.6358 	 56.8947 	 98.5917
| 15> H 	 -51.5504 	 56.3396 	 100.309
| 16> C 	 -51.8551 	 54.831 	 98.8779
| 17> H 	 -51.5805 	 54.7098 	 97.8214
| 18> H 	 -51.5167 	 53.8499 	 99.4903
| 19> C 	 -53.3618 	 54.9787 	 98.9391
| 20> H 	 -53.8483 	 55.0981 	 99.9328
| 21> H 	 -53.9024 	 55.5973 	 98.1398
| 22> H 	 -53.9254 	 54.1094 	 98.7675
| 23> S 	 -45.9214 	 58.2292 	 97.3017
| 24> C 	 -45.4015 	 58.3165 	 95.6513
| 25> C 	 -45.8703 	 57.263 	 94.9197
| 26> C 	 -46.6822 	 56.326 	 95.6874
| 27> C 	 -46.8145 	 56.7411 	 97.017
| 28> H 	 -45.6063 	 57.0764 	 93.8873
| 29> C 	 -47.3978 	 55.0796 	 95.1762
| 30> H 	 -48.3668 	 55.3137 	 94.6366
| 31> H 	 -47.7625 	 54.5035 	 96.106
| 32> C 	 -46.5137 	 54.1373 	 94.3953
| 33> H 	 -46.2006 	 54.6932 	 93.5167
| 34> H 	 -47.142 	 53.35 	 93.974
| 35> C 	 -45.3718 	 53.6268 	 95.1334
| 36> H 	 -45.81 	 53.4162 	 96.1412
| 37> H 	 -44.5031 	 54.239 	 95.3498
| 38> H 	 -45.0189 	 52.7542 	 94.6784
| 39> H 	 -49.2157 	 55.9752 	 101.274
| 40> H 	 -44.6076 	 58.9285 	 95.1668
| 41> *
| 42>
| 43>                          ****END OF INPUT****

CARTESIAN COORDINATES (ANGSTROEM)
---------------------------------
  S    -47.163400   56.080200   99.739000
  C    -48.884000   56.249000  100.250000
  C    -49.724900   56.137000   99.194300
  C    -49.004400   56.214100   97.976200
  C    -47.648100   56.281700   98.115600
  H    -49.414500   56.215200   97.046300
  C    -51.237200   56.117000   99.270800
  H    -51.635800   56.894700   98.591700
  H    -51.550400   56.339600  100.309000
  C    -51.855100   54.831000   98.877900
  H    -51.580500   54.709800   97.821400
  H    -51.516700   53.849900   99.490300
  C    -53.361800   54.978700   98.939100
  H    -53.848300   55.098100   99.932800
  H    -53.902400   55.597300   98.139800
  H    -53.925400   54.109400   98.767500
  S    -45.921400   58.229200   97.301700
  C    -45.401500   58.316500   95.651300
  C    -45.870300   57.263000   94.919700
  C    -46.682200   56.326000   95.687400
  C    -46.814500   56.741100   97.017000
  H    -45.606300   57.076400   93.887300
  C    -47.397800   55.079600   95.176200
  H    -48.366800   55.313700   94.636600
  H    -47.762500   54.503500   96.106000
  C    -46.513700   54.137300   94.395300
  H    -46.200600   54.693200   93.516700
  H    -47.142000   53.350000   93.974000
  C    -45.371800   53.626800   95.133400
  H    -45.810000   53.416200   96.141200
  H    -44.503100   54.239000   95.349800
  H    -45.018900   52.754200   94.678400
  H    -49.215700   55.975200  101.274000
  H    -44.607600   58.928500   95.166800

 Total Charge           Charge          ....    0
 Multiplicity           Mult            ....    1
 Number of Electrons    NEL             ....  134
 Basis Dimension        Dim             ....  322

ORBITAL ENERGIES
----------------

  NO   OCC          E(Eh)            E(eV)
   0   2.0000     -88.966763     -2420.9087
   1   2.0000     -88.963869     -2420.8300
   2   2.0000     -10.326213      -280.9905
   3   2.0000     -10.324572      -280.9459
   4   2.0000     -10.315886      -280.7095
   5   2.0000     -10.315433      -280.6972
   6   2.0000     -10.304357      -280.3958
   7   2.0000     -10.301151      -280.3086
   8   2.0000     -10.298690      -280.2416
   9   2.0000     -10.297740      -280.2157
  10   2.0000     -10.295044      -280.1424
  11   2.0000     -10.293261      -280.0939
  12   2.0000     -10.283825      -279.8371
  13   2.0000     -10.282089      -279.7899
  14   2.0000     -10.277664      -279.6694
  15   2.0000     -10.265532      -279.3393
  16   2.0000      -8.081686      -219.9139
  17   2.0000      -8.078670      -219.8318
  18   2.0000      -6.040213      -164.3626
  19   2.0000      -6.037270      -164.2825
  20   2.0000      -6.036373      -164.2581
  21   2.0000      -6.033129      -164.1698
  22   2.0000      -6.032197      -164.1444
  23   2.0000      -6.029347      -164.0669
  24   2.0000      -1.011661       -27.5287
  25   2.0000      -0.985094       -26.8058
  26   2.0000      -0.923796       -25.1378
  27   2.0000      -0.918227       -24.9862
  28   2.0000      -0.874206       -23.7883
  29   2.0000      -0.854177       -23.2433
  30   2.0000      -0.844109       -22.9694
  31   2.0000      -0.815772       -22.1983
  32   2.0000      -0.787730       -21.4352
  33   2.0000      -0.774725       -21.0813
  34   2.0000      -0.708471       -19.2785
  35   2.0000      -0.695839       -18.9347
  36   2.0000      -0.692731       -18.8502
  37   2.0000      -0.652423       -17.7533
  38   2.0000      -0.641271       -17.4499
  39   2.0000      -0.625889       -17.0313
  40   2.0000      -0.594075       -16.1656
  41   2.0000      -0.578544       -15.7430
  42   2.0000      -0.563583       -15.3359
  43   2.0000      -0.562948       -15.3186
  44   2.0000      -0.546211       -14.8632
  45   2.0000      -0.522215       -14.2102
  46   2.0000      -0.517945       -14.0940
  47   2.0000      -0.508760       -13.8441
  48   2.0000      -0.503617       -13.7041
  49   2.0000      -0.499538       -13.5931
  50   2.0000      -0.493791       -13.4367
  51   2.0000      -0.474986       -12.9250
  52   2.0000      -0.470196       -12.7947
  53   2.0000      -0.461065       -12.5462
  54   2.0000      -0.454888       -12.3781
  55   2.0000      -0.452884       -12.3236
  56   2.0000      -0.442645       -12.0450
  57   2.0000      -0.441005       -12.0004
  58   2.0000      -0.429166       -11.6782
  59   2.0000      -0.424313       -11.5462
  60   2.0000      -0.416037       -11.3209
  61   2.0000      -0.415306       -11.3010
  62   2.0000      -0.403504       -10.9799
  63   2.0000      -0.346287        -9.4229
  64   2.0000      -0.335334        -9.1249
  65   2.0000      -0.326637        -8.8882
  66   2.0000      -0.296318        -8.0632
  67   0.0000       0.030007         0.8165
  68   0.0000       0.073836         2.0092
  69   0.0000       0.108125         2.9422
  70   0.0000       0.124759         3.3949
  71   0.0000       0.128921         3.5081

MULLIKEN ATOMIC CHARGES
-----------------------
   0 S :    0.106171
   1 C :   -0.138059
   2 C :   -0.053062
   3 C :    0.066210
   4 C :   -0.146507
   5 H :   -0.032756
   6 C :    0.069567
   7 H :    0.039573
   8 H :    0.018718
   9 C :   -0.090684
  10 H :    0.028858
  11 H :    0.058866
  12 C :   -0.061476
  13 H :    0.029540
  14 H :    0.041876
  15 H :    0.002361
  16 S :    0.114318
  17 C :   -0.087507
  18 C :   -0.045949
  19 C :   -0.036286
  20 C :   -0.160463
  21 H :    0.017880
  22 C :   -0.023528
  23 H :    0.050367
  24 H :    0.039569
  25 C :   -0.044079
  26 H :    0.012147
  27 H :    0.023860
  28 C :   -0.006821
  29 H :    0.017948
  30 H :    0.038952
  31 H :    0.020582
  32 H :    0.059636
  33 H :    0.070179
Sum of atomic charges:    0.0000000

LOEWDIN ATOMIC CHARGES
----------------------
   0 S :    0.397230
   1 C :   -0.184211
   2 C :   -0.059528
   3 C :   -0.044464
   4 C :   -0.207583
   5 H :    0.012306
   6 C :   -0.031729
   7 H :    0.039641
   8 H :    0.030366
   9 C :   -0.049547
  10 H :    0.026342
  11 H :    0.043453
  12 C :   -0.092903
  13 H :    0.032294
  14 H :    0.037991
  15 H :    0.020336
  16 S :    0.411365
  17 C :   -0.204875
  18 C :   -0.073340
  19 C :   -0.061572
  20 C :   -0.189168
  21 H :    0.028757
  22 C :   -0.044442
  23 H :    0.035239
  24 H :    0.034348
  25 C :   -0.049538
  26 H :    0.017943
  27 H :    0.028499
  28 C :   -0.062592
  29 H :    0.032154
  30 H :    0.029243
  31 H :    0.020842
  32 H :    0.032649
  33 H :    0.044492

  Mayer bond orders larger than 0.100000
B(  0-S ,  1-C ) :   1.1121 B(  0-S ,  4-C ) :   1.1584 B(  1-C ,  2-C ) :   1.6455
B(  1-C , 32-H ) :   0.9529 B(  2-C ,  3-C ) :   1.2237 B(  2-C ,  6-C ) :   1.0191
B(  3-C ,  4-C ) :   1.5589 B(  3-C ,  5-H ) :   1.0116 B(  4-C , 20-C ) :   1.0262
B(  6-C ,  7-H ) :   0.9397 B(  6-C ,  8-H ) :   0.9429 B(  6-C ,  9-C ) :   1.0641
B(  9-C , 10-H ) :   0.9503 B(  9-C , 11-H ) :   0.9503 B(  9-C , 12-C ) :   1.0880
B( 12-C , 13-H ) :   0.9675 B( 12-C , 14-H ) :   0.9690 B( 12-C , 15-H ) :   0.9618
B( 16-S , 17-C ) :   1.1436 B( 16-S , 20-C ) :   1.1407 B( 17-C , 18-C ) :   1.6333
B( 17-C , 33-H ) :   0.9566 B( 18-C , 19-C ) :   1.2312 B( 18-C , 21-H ) :   0.9855
B( 19-C , 20-C ) :   1.6038 B( 19-C , 22-C ) :   1.0334 B( 22-C , 23-H ) :   0.9358
B( 22-C , 24-H ) :   0.9344 B( 22-C , 25-C ) :   1.0845 B( 25-C , 26-H ) :   0.9432
B( 25-C , 27-H ) :   0.9481 B( 25-C , 28-C ) :   1.0845 B( 28-C , 29-H ) :   0.9705
B( 28-C , 30-H ) :   0.9673 B( 28-C , 31-H ) :   0.9687

Dispersion correction           -0.014269315
FINAL SINGLE POINT ENERGY     -1339.851194428133

DIPOLE MOMENT
-------------
                                X             Y             Z
Electronic contribution:     18.07707      16.22379       9.35652
Nuclear contribution   :    -18.65065     -16.67034      -9.76033
                        -----------------------------------------
Total Dipole Moment    :     -0.57358      -0.44655      -0.40381
                        -----------------------------------------
Magnitude (a.u.)       :      0.83154
Magnitude (Debye)      :      2.11362

Rotational constants in cm-1:     0.019550     0.008093     0.006817
Rotational constants in MHz :   586.097168   242.622712   204.359890

                             ****ORCA TERMINATED NORMALLY****
TOTAL RUN TIME: 0 days 0 hours 0 minutes 30 seconds 684 msec
