                         Program Version 4.2.1 -  RELEASE  -
|  1> ! wB97X-D3 SP def2-SVP
|  2> %pal
|  3> nprocs 16
|  4> end
|  5>
|  6> * xyz 0 1
|  7> S 	 -21.5517 	 -2.9777 	 92.7034
|  8> C 	 -22.4446 	 -1.68538 	 91.8977
|  9> C 	 -21.9245 	 -1.47195 	 90.6956
| 10> C 	 -21.0166 	 -2.46882 	 90.2637
| 11> C 	 -20.6858 	 -3.39504 	 91.2657
| 12> H 	 -20.5183 	 -2.42408 	 89.3249
| 13> C 	 -22.5241 	 -0.395802 	 89.7749
| 14> H 	 -21.8394 	 -0.00457673 	 89.1231
| 15> H 	 -22.7653 	 0.379438 	 90.5232
| 16> C 	 -23.8641 	 -0.814196 	 89.1152
| 17> H 	 -24.5626 	 -1.04509 	 89.9151
| 18> H 	 -24.3873 	 -0.073574 	 88.5346
| 19> C 	 -23.5976 	 -2.01117 	 88.1446
| 20> H 	 -23.3677 	 -2.81187 	 88.7763
| 21> H 	 -24.3826 	 -2.24956 	 87.4424
| 22> H 	 -22.7237 	 -1.81624 	 87.5583
| 23> S 	 -18.02 	 -3.56443 	 91.7253
| 24> C 	 -17.3037 	 -5.19199 	 91.5482
| 25> C 	 -18.1181 	 -6.05079 	 90.7934
| 26> C 	 -19.4397 	 -5.53201 	 90.6782
| 27> C 	 -19.5492 	 -4.25351 	 91.1647
| 28> H 	 -17.8393 	 -7.0323 	 90.5067
| 29> C 	 -20.6798 	 -6.29734 	 90.1365
| 30> H 	 -21.5151 	 -6.13959 	 90.7782
| 31> H 	 -20.4056 	 -7.35862 	 90.2167
| 32> C 	 -21.096 	 -5.96202 	 88.6874
| 33> H 	 -20.198 	 -6.00076 	 88.0132
| 34> H 	 -21.5194 	 -4.89262 	 88.6118
| 35> C 	 -22.1149 	 -6.91934 	 88.1577
| 36> H 	 -23.1116 	 -6.83042 	 88.5887
| 37> H 	 -21.7041 	 -7.91526 	 88.2516
| 38> H 	 -22.4924 	 -6.6874 	 87.1458
| 39> H 	 -23.1726 	 -1.01844 	 92.3689
| 40> H 	 -16.2507 	 -5.32448 	 91.7277
| 41> *
| 42>
| 43>                          ****END OF INPUT****

CARTESIAN COORDINATES (ANGSTROEM)
---------------------------------
  S    -21.551700   -2.977700   92.703400
  C    -22.444600   -1.685380   91.897700
  C    -21.924500   -1.471950   90.695600
  C    -21.016600   -2.468820   90.263700
  C    -20.685800   -3.395040   91.265700
  H    -20.518300   -2.424080   89.324900
  C    -22.524100   -0.395802   89.774900
  H    -21.839400   -0.004577   89.123100
  H    -22.765300    0.379438   90.523200
  C    -23.864100   -0.814196   89.115200
  H    -24.562600   -1.045090   89.915100
  H    -24.387300   -0.073574   88.534600
  C    -23.597600   -2.011170   88.144600
  H    -23.367700   -2.811870   88.776300
  H    -24.382600   -2.249560   87.442400
  H    -22.723700   -1.816240   87.558300
  S    -18.020000   -3.564430   91.725300
  C    -17.303700   -5.191990   91.548200
  C    -18.118100   -6.050790   90.793400
  C    -19.439700   -5.532010   90.678200
  C    -19.549200   -4.253510   91.164700
  H    -17.839300   -7.032300   90.506700
  C    -20.679800   -6.297340   90.136500
  H    -21.515100   -6.139590   90.778200
  H    -20.405600   -7.358620   90.216700
  C    -21.096000   -5.962020   88.687400
  H    -20.198000   -6.000760   88.013200
  H    -21.519400   -4.892620   88.611800
  C    -22.114900   -6.919340   88.157700
  H    -23.111600   -6.830420   88.588700
  H    -21.704100   -7.915260   88.251600
  H    -22.492400   -6.687400   87.145800
  H    -23.172600   -1.018440   92.368900
  H    -16.250700   -5.324480   91.727700

 Total Charge           Charge          ....    0
 Multiplicity           Mult            ....    1
 Number of Electrons    NEL             ....  134
 Basis Dimension        Dim             ....  322

ORBITAL ENERGIES
----------------

  NO   OCC          E(Eh)            E(eV)
   0   2.0000     -88.966607     -2420.9045
   1   2.0000     -88.965333     -2420.8698
   2   2.0000     -10.325681      -280.9761
   3   2.0000     -10.321803      -280.8705
   4   2.0000     -10.320291      -280.8294
   5   2.0000     -10.311307      -280.5849
   6   2.0000     -10.302509      -280.3455
   7   2.0000     -10.297984      -280.2224
   8   2.0000     -10.293131      -280.0903
   9   2.0000     -10.292387      -280.0701
  10   2.0000     -10.291035      -280.0333
  11   2.0000     -10.290970      -280.0315
  12   2.0000     -10.288408      -279.9618
  13   2.0000     -10.286958      -279.9224
  14   2.0000     -10.273876      -279.5664
  15   2.0000     -10.267827      -279.4018
  16   2.0000      -8.081300      -219.9033
  17   2.0000      -8.079476      -219.8537
  18   2.0000      -6.039807      -164.3515
  19   2.0000      -6.037894      -164.2995
  20   2.0000      -6.035712      -164.2401
  21   2.0000      -6.034326      -164.2024
  22   2.0000      -6.032141      -164.1429
  23   2.0000      -6.030102      -164.0874
  24   2.0000      -1.009749       -27.4767
  25   2.0000      -0.983569       -26.7643
  26   2.0000      -0.912010       -24.8171
  27   2.0000      -0.905174       -24.6310
  28   2.0000      -0.871171       -23.7058
  29   2.0000      -0.851009       -23.1571
  30   2.0000      -0.842867       -22.9356
  31   2.0000      -0.813612       -22.1395
  32   2.0000      -0.784733       -21.3537
  33   2.0000      -0.771735       -21.0000
  34   2.0000      -0.707436       -19.2503
  35   2.0000      -0.704976       -19.1834
  36   2.0000      -0.688485       -18.7346
  37   2.0000      -0.668611       -18.1938
  38   2.0000      -0.642174       -17.4744
  39   2.0000      -0.610565       -16.6143
  40   2.0000      -0.594319       -16.1722
  41   2.0000      -0.578949       -15.7540
  42   2.0000      -0.570746       -15.5308
  43   2.0000      -0.552889       -15.0449
  44   2.0000      -0.540617       -14.7109
  45   2.0000      -0.524050       -14.2601
  46   2.0000      -0.512629       -13.9493
  47   2.0000      -0.509715       -13.8701
  48   2.0000      -0.506707       -13.7882
  49   2.0000      -0.496043       -13.4980
  50   2.0000      -0.485524       -13.2118
  51   2.0000      -0.482010       -13.1162
  52   2.0000      -0.475211       -12.9312
  53   2.0000      -0.463982       -12.6256
  54   2.0000      -0.458810       -12.4848
  55   2.0000      -0.452047       -12.3008
  56   2.0000      -0.445117       -12.1122
  57   2.0000      -0.437874       -11.9152
  58   2.0000      -0.429055       -11.6752
  59   2.0000      -0.426568       -11.6075
  60   2.0000      -0.422556       -11.4983
  61   2.0000      -0.410043       -11.1578
  62   2.0000      -0.407274       -11.0825
  63   2.0000      -0.339089        -9.2271
  64   2.0000      -0.328406        -8.9364
  65   2.0000      -0.322128        -8.7656
  66   2.0000      -0.309354        -8.4180
  67   0.0000       0.037841         1.0297
  68   0.0000       0.048827         1.3286
  69   0.0000       0.107319         2.9203
  70   0.0000       0.120820         3.2877
  71   0.0000       0.128263         3.4902

MULLIKEN ATOMIC CHARGES
-----------------------
   0 S :    0.120299
   1 C :   -0.137197
   2 C :   -0.091233
   3 C :    0.037528
   4 C :   -0.156584
   5 H :    0.007117
   6 C :    0.085002
   7 H :    0.006683
   8 H :    0.021361
   9 C :   -0.051076
  10 H :    0.020909
  11 H :    0.026431
  12 C :   -0.045447
  13 H :    0.040490
  14 H :    0.033546
  15 H :    0.016899
  16 S :    0.110399
  17 C :   -0.093421
  18 C :   -0.016517
  19 C :   -0.027351
  20 C :   -0.186550
  21 H :    0.007999
  22 C :    0.094218
  23 H :    0.028365
  24 H :    0.013036
  25 C :   -0.103741
  26 H :    0.033690
  27 H :    0.044481
  28 C :   -0.033288
  29 H :    0.022512
  30 H :    0.032053
  31 H :    0.026500
  32 H :    0.054471
  33 H :    0.058416
Sum of atomic charges:   -0.0000000

LOEWDIN ATOMIC CHARGES
----------------------
   0 S :    0.414062
   1 C :   -0.189437
   2 C :   -0.071842
   3 C :   -0.055911
   4 C :   -0.210388
   5 H :    0.025506
   6 C :   -0.017838
   7 H :    0.013583
   8 H :    0.033515
   9 C :   -0.031290
  10 H :    0.021241
  11 H :    0.019819
  12 C :   -0.060408
  13 H :    0.018986
  14 H :    0.024027
  15 H :    0.020369
  16 S :    0.386362
  17 C :   -0.166176
  18 C :   -0.060613
  19 C :   -0.050541
  20 C :   -0.194944
  21 H :    0.026157
  22 C :   -0.023777
  23 H :    0.029305
  24 H :    0.028048
  25 C :   -0.049202
  26 H :    0.026953
  27 H :    0.032149
  28 C :   -0.075355
  29 H :    0.026358
  30 H :    0.023497
  31 H :    0.030894
  32 H :    0.034501
  33 H :    0.022390

  Mayer bond orders larger than 0.100000
B(  0-S ,  1-C ) :   1.1360 B(  0-S ,  4-C ) :   1.1590 B(  1-C ,  2-C ) :   1.6149
B(  1-C , 32-H ) :   0.9646 B(  2-C ,  3-C ) :   1.2540 B(  2-C ,  6-C ) :   1.0209
B(  3-C ,  4-C ) :   1.5426 B(  3-C ,  5-H ) :   0.9968 B(  4-C , 20-C ) :   1.0476
B(  6-C ,  7-H ) :   0.9464 B(  6-C ,  8-H ) :   0.9385 B(  6-C ,  9-C ) :   1.0683
B(  9-C , 10-H ) :   0.9574 B(  9-C , 11-H ) :   0.9610 B(  9-C , 12-C ) :   1.0655
B( 12-C , 13-H ) :   0.9761 B( 12-C , 14-H ) :   0.9744 B( 12-C , 15-H ) :   0.9751
B( 16-S , 17-C ) :   1.1489 B( 16-S , 20-C ) :   1.1356 B( 17-C , 18-C ) :   1.6090
B( 17-C , 20-C ) :   0.1036 B( 17-C , 33-H ) :   0.9683 B( 18-C , 19-C ) :   1.2378
B( 18-C , 21-H ) :   0.9907 B( 19-C , 20-C ) :   1.6302 B( 19-C , 22-C ) :   1.0344
B( 22-C , 23-H ) :   0.9285 B( 22-C , 24-H ) :   0.9345 B( 22-C , 25-C ) :   1.0677
B( 25-C , 26-H ) :   0.9544 B( 25-C , 27-H ) :   0.9453 B( 25-C , 28-C ) :   1.0935
B( 28-C , 29-H ) :   0.9680 B( 28-C , 30-H ) :   0.9730 B( 28-C , 31-H ) :   0.9671

Dispersion correction           -0.015489983
FINAL SINGLE POINT ENERGY     -1339.865442967975

DIPOLE MOMENT
-------------
                                X             Y             Z
Electronic contribution:     17.64474       3.67798      22.02489
Nuclear contribution   :    -17.85660      -3.65171     -22.50694
                        -----------------------------------------
Total Dipole Moment    :     -0.21185       0.02627      -0.48205
                        -----------------------------------------
Magnitude (a.u.)       :      0.52720
Magnitude (Debye)      :      1.34004

Rotational constants in cm-1:     0.017608     0.010168     0.007518
Rotational constants in MHz :   527.861323   304.820755   225.376876

                             ****ORCA TERMINATED NORMALLY****
TOTAL RUN TIME: 0 days 0 hours 0 minutes 30 seconds 435 msec
