                         Program Version 4.2.1 -  RELEASE  -
|  1> ! wB97X-D3 SP def2-SVP
|  2> %pal
|  3> nprocs 16
|  4> end
|  5>
|  6> * xyz 0 1
|  7> S 	 -107.711 	 58.7493 	 118.469
|  8> C 	 -107.127 	 59.2842 	 116.906
|  9> C 	 -106.585 	 58.2462 	 116.142
| 10> C 	 -106.662 	 57.0132 	 116.899
| 11> C 	 -107.173 	 57.1123 	 118.193
| 12> H 	 -106.332 	 55.9858 	 116.624
| 13> C 	 -106.092 	 58.2836 	 114.716
| 14> H 	 -105.024 	 58.2077 	 114.698
| 15> H 	 -106.293 	 59.3257 	 114.357
| 16> C 	 -106.822 	 57.3148 	 113.782
| 17> H 	 -106.268 	 57.1183 	 112.896
| 18> H 	 -106.959 	 56.2643 	 114.18
| 19> C 	 -108.215 	 57.8953 	 113.399
| 20> H 	 -109.017 	 57.2171 	 113.135
| 21> H 	 -108.5 	 58.4547 	 114.31
| 22> H 	 -108.209 	 58.6081 	 112.605
| 23> S 	 -106.61 	 56.0314 	 120.781
| 24> C 	 -107.527 	 54.6616 	 121.317
| 25> C 	 -108.384 	 54.169 	 120.344
| 26> C 	 -108.277 	 54.8715 	 119.073
| 27> C 	 -107.396 	 56.0125 	 119.197
| 28> H 	 -108.981 	 53.2836 	 120.521
| 29> C 	 -109.137 	 54.5803 	 117.889
| 30> H 	 -108.92 	 55.2695 	 117.067
| 31> H 	 -110.19 	 54.8878 	 118.176
| 32> C 	 -109.048 	 53.0775 	 117.465
| 33> H 	 -109.417 	 52.4314 	 118.288
| 34> H 	 -108.081 	 52.7545 	 117.453
| 35> C 	 -109.637 	 52.8841 	 116.05
| 36> H 	 -109.592 	 51.8686 	 115.654
| 37> H 	 -109.129 	 53.3665 	 115.288
| 38> H 	 -110.684 	 53.1874 	 116.007
| 39> H 	 -107.423 	 60.2076 	 116.425
| 40> H 	 -107.385 	 54.1176 	 122.255
| 41> *
| 42>
| 43>                          ****END OF INPUT****

CARTESIAN COORDINATES (ANGSTROEM)
---------------------------------
  S    -107.711000   58.749300  118.469000
  C    -107.127000   59.284200  116.906000
  C    -106.585000   58.246200  116.142000
  C    -106.662000   57.013200  116.899000
  C    -107.173000   57.112300  118.193000
  H    -106.332000   55.985800  116.624000
  C    -106.092000   58.283600  114.716000
  H    -105.024000   58.207700  114.698000
  H    -106.293000   59.325700  114.357000
  C    -106.822000   57.314800  113.782000
  H    -106.268000   57.118300  112.896000
  H    -106.959000   56.264300  114.180000
  C    -108.215000   57.895300  113.399000
  H    -109.017000   57.217100  113.135000
  H    -108.500000   58.454700  114.310000
  H    -108.209000   58.608100  112.605000
  S    -106.610000   56.031400  120.781000
  C    -107.527000   54.661600  121.317000
  C    -108.384000   54.169000  120.344000
  C    -108.277000   54.871500  119.073000
  C    -107.396000   56.012500  119.197000
  H    -108.981000   53.283600  120.521000
  C    -109.137000   54.580300  117.889000
  H    -108.920000   55.269500  117.067000
  H    -110.190000   54.887800  118.176000
  C    -109.048000   53.077500  117.465000
  H    -109.417000   52.431400  118.288000
  H    -108.081000   52.754500  117.453000
  C    -109.637000   52.884100  116.050000
  H    -109.592000   51.868600  115.654000
  H    -109.129000   53.366500  115.288000
  H    -110.684000   53.187400  116.007000
  H    -107.423000   60.207600  116.425000
  H    -107.385000   54.117600  122.255000

 Total Charge           Charge          ....    0
 Multiplicity           Mult            ....    1
 Number of Electrons    NEL             ....  134
 Basis Dimension        Dim             ....  322

ORBITAL ENERGIES
----------------

  NO   OCC          E(Eh)            E(eV)
   0   2.0000     -88.969858     -2420.9929
   1   2.0000     -88.966764     -2420.9087
   2   2.0000     -10.335325      -281.2385
   3   2.0000     -10.333285      -281.1830
   4   2.0000     -10.319659      -280.8122
   5   2.0000     -10.317011      -280.7402
   6   2.0000     -10.311733      -280.5965
   7   2.0000     -10.307554      -280.4828
   8   2.0000     -10.298678      -280.2413
   9   2.0000     -10.298661      -280.2408
  10   2.0000     -10.297413      -280.2069
  11   2.0000     -10.295138      -280.1449
  12   2.0000     -10.292663      -280.0776
  13   2.0000     -10.286884      -279.9203
  14   2.0000     -10.275581      -279.6128
  15   2.0000     -10.274661      -279.5877
  16   2.0000      -8.084147      -219.9808
  17   2.0000      -8.081366      -219.9051
  18   2.0000      -6.042650      -164.4289
  19   2.0000      -6.039885      -164.3536
  20   2.0000      -6.038639      -164.3197
  21   2.0000      -6.035803      -164.2425
  22   2.0000      -6.035020      -164.2212
  23   2.0000      -6.032209      -164.1447
  24   2.0000      -0.998676       -27.1754
  25   2.0000      -0.979841       -26.6628
  26   2.0000      -0.913819       -24.8663
  27   2.0000      -0.907925       -24.7059
  28   2.0000      -0.862026       -23.4569
  29   2.0000      -0.849701       -23.1216
  30   2.0000      -0.841421       -22.8962
  31   2.0000      -0.812457       -22.1081
  32   2.0000      -0.783117       -21.3097
  33   2.0000      -0.770343       -20.9621
  34   2.0000      -0.717210       -19.5163
  35   2.0000      -0.708159       -19.2700
  36   2.0000      -0.690864       -18.7994
  37   2.0000      -0.649764       -17.6810
  38   2.0000      -0.640906       -17.4399
  39   2.0000      -0.616292       -16.7701
  40   2.0000      -0.595906       -16.2154
  41   2.0000      -0.574149       -15.6234
  42   2.0000      -0.561360       -15.2754
  43   2.0000      -0.555471       -15.1151
  44   2.0000      -0.528694       -14.3865
  45   2.0000      -0.523681       -14.2501
  46   2.0000      -0.517896       -14.0927
  47   2.0000      -0.511377       -13.9153
  48   2.0000      -0.498212       -13.5570
  49   2.0000      -0.492780       -13.4092
  50   2.0000      -0.481140       -13.0925
  51   2.0000      -0.479152       -13.0384
  52   2.0000      -0.469604       -12.7786
  53   2.0000      -0.466753       -12.7010
  54   2.0000      -0.460542       -12.5320
  55   2.0000      -0.450011       -12.2454
  56   2.0000      -0.445720       -12.1287
  57   2.0000      -0.442924       -12.0526
  58   2.0000      -0.436084       -11.8665
  59   2.0000      -0.431317       -11.7367
  60   2.0000      -0.426257       -11.5990
  61   2.0000      -0.416677       -11.3383
  62   2.0000      -0.411416       -11.1952
  63   2.0000      -0.338973        -9.2239
  64   2.0000      -0.331032        -9.0078
  65   2.0000      -0.328457        -8.9378
  66   2.0000      -0.296126        -8.0580
  67   0.0000       0.036626         0.9966
  68   0.0000       0.059148         1.6095
  69   0.0000       0.115158         3.1336
  70   0.0000       0.118064         3.2127
  71   0.0000       0.125695         3.4203

MULLIKEN ATOMIC CHARGES
-----------------------
   0 S :    0.115133
   1 C :   -0.108976
   2 C :   -0.110833
   3 C :    0.023367
   4 C :   -0.177691
   5 H :    0.025406
   6 C :    0.068434
   7 H :    0.042050
   8 H :    0.021136
   9 C :   -0.064747
  10 H :    0.020917
  11 H :    0.039829
  12 C :   -0.054852
  13 H :    0.033079
  14 H :    0.028974
  15 H :    0.023684
  16 S :    0.123898
  17 C :   -0.098199
  18 C :   -0.039013
  19 C :   -0.031674
  20 C :   -0.175250
  21 H :    0.023396
  22 C :    0.047101
  23 H :    0.024657
  24 H :    0.049798
  25 C :   -0.050693
  26 H :    0.029345
  27 H :    0.006775
  28 C :   -0.021647
  29 H :    0.023807
  30 H :    0.014460
  31 H :    0.031123
  32 H :    0.051582
  33 H :    0.065620
Sum of atomic charges:    0.0000000

LOEWDIN ATOMIC CHARGES
----------------------
   0 S :    0.411055
   1 C :   -0.201791
   2 C :   -0.063392
   3 C :   -0.068470
   4 C :   -0.200937
   5 H :    0.035234
   6 C :   -0.030093
   7 H :    0.032897
   8 H :    0.035035
   9 C :   -0.040684
  10 H :    0.018497
  11 H :    0.030510
  12 C :   -0.067457
  13 H :    0.024774
  14 H :    0.028785
  15 H :    0.019378
  16 S :    0.413365
  17 C :   -0.193803
  18 C :   -0.075396
  19 C :   -0.044049
  20 C :   -0.210873
  21 H :    0.030341
  22 C :   -0.036591
  23 H :    0.030320
  24 H :    0.042809
  25 C :   -0.033153
  26 H :    0.028214
  27 H :    0.012655
  28 C :   -0.062383
  29 H :    0.027905
  30 H :    0.017048
  31 H :    0.027011
  32 H :    0.027803
  33 H :    0.035436

  Mayer bond orders larger than 0.100000
B(  0-S ,  1-C ) :   1.1484 B(  0-S ,  4-C ) :   1.1564 B(  1-C ,  2-C ) :   1.6071
B(  1-C , 32-H ) :   0.9595 B(  2-C ,  3-C ) :   1.2251 B(  2-C ,  6-C ) :   1.0244
B(  3-C ,  4-C ) :   1.5978 B(  3-C ,  5-H ) :   0.9846 B(  4-C , 20-C ) :   1.0162
B(  6-C ,  7-H ) :   0.9357 B(  6-C ,  8-H ) :   0.9450 B(  6-C ,  9-C ) :   1.0619
B(  9-C , 10-H ) :   0.9569 B(  9-C , 11-H ) :   0.9601 B(  9-C , 12-C ) :   1.0549
B( 12-C , 13-H ) :   0.9764 B( 12-C , 14-H ) :   0.9817 B( 12-C , 15-H ) :   0.9754
B( 16-S , 17-C ) :   1.1631 B( 16-S , 20-C ) :   1.1494 B( 17-C , 18-C ) :   1.6084
B( 17-C , 33-H ) :   0.9626 B( 18-C , 19-C ) :   1.2455 B( 18-C , 21-H ) :   0.9854
B( 19-C , 20-C ) :   1.5548 B( 19-C , 22-C ) :   1.0590 B( 22-C , 23-H ) :   0.9373
B( 22-C , 24-H ) :   0.9301 B( 22-C , 25-C ) :   1.0351 B( 25-C , 26-H ) :   0.9539
B( 25-C , 27-H ) :   0.9597 B( 25-C , 28-C ) :   1.0828 B( 28-C , 29-H ) :   0.9723
B( 28-C , 30-H ) :   0.9731 B( 28-C , 31-H ) :   0.9752

Dispersion correction           -0.014566383
FINAL SINGLE POINT ENERGY     -1339.874868453994

DIPOLE MOMENT
-------------
                                X             Y             Z
Electronic contribution:      8.74921      11.48760      27.56650
Nuclear contribution   :     -8.92127     -11.94522     -28.16546
                        -----------------------------------------
Total Dipole Moment    :     -0.17206      -0.45761      -0.59895
                        -----------------------------------------
Magnitude (a.u.)       :      0.77315
Magnitude (Debye)      :      1.96519

Rotational constants in cm-1:     0.016923     0.009690     0.006767
Rotational constants in MHz :   507.325641   290.492007   202.867906

                             ****ORCA TERMINATED NORMALLY****
TOTAL RUN TIME: 0 days 0 hours 0 minutes 35 seconds 133 msec
