                         Program Version 4.2.1 -  RELEASE  -
|  1> ! wB97X-D3 SP def2-SVP
|  2> %pal
|  3> nprocs 16
|  4> end
|  5>
|  6> * xyz 0 1
|  7> S 	 -33.5031 	 55.9026 	 108.213
|  8> C 	 -32.9945 	 57.3423 	 107.287
|  9> C 	 -32.4369 	 57.0005 	 106.084
| 10> C 	 -32.1966 	 55.6227 	 105.926
| 11> C 	 -32.515 	 54.9879 	 107.137
| 12> H 	 -31.728 	 55.2136 	 105.054
| 13> C 	 -32.1432 	 57.9437 	 104.898
| 14> H 	 -32.2 	 57.4197 	 103.999
| 15> H 	 -31.1038 	 58.1903 	 104.935
| 16> C 	 -33.0433 	 59.1709 	 104.787
| 17> H 	 -34.0935 	 58.9108 	 104.768
| 18> H 	 -32.818 	 59.8121 	 105.665
| 19> C 	 -32.8843 	 59.9379 	 103.44
| 20> H 	 -31.8695 	 60.2663 	 103.343
| 21> H 	 -33.1739 	 59.33 	 102.559
| 22> H 	 -33.5879 	 60.772 	 103.479
| 23> S 	 -33.7543 	 52.6449 	 107.92
| 24> C 	 -32.9099 	 51.178 	 107.641
| 25> C 	 -31.5292 	 51.3481 	 107.534
| 26> C 	 -31.2449 	 52.7375 	 107.25
| 27> C 	 -32.319 	 53.5924 	 107.428
| 28> H 	 -30.9153 	 50.4737 	 107.533
| 29> C 	 -29.8262 	 53.1771 	 106.782
| 30> H 	 -29.821 	 54.2645 	 106.56
| 31> H 	 -29.7194 	 52.6463 	 105.779
| 32> C 	 -28.6889 	 52.8385 	 107.794
| 33> H 	 -28.8037 	 51.7979 	 108.024
| 34> H 	 -28.8737 	 53.3935 	 108.714
| 35> C 	 -27.2011 	 53.0314 	 107.291
| 36> H 	 -27.0758 	 52.4582 	 106.371
| 37> H 	 -26.5716 	 52.727 	 108.136
| 38> H 	 -26.987 	 54.0333 	 107.06
| 39> H 	 -33.3984 	 58.3066 	 107.509
| 40> H 	 -33.1568 	 50.1321 	 107.902
| 41> *
| 42>
| 43>                          ****END OF INPUT****

CARTESIAN COORDINATES (ANGSTROEM)
---------------------------------
  S    -33.503100   55.902600  108.213000
  C    -32.994500   57.342300  107.287000
  C    -32.436900   57.000500  106.084000
  C    -32.196600   55.622700  105.926000
  C    -32.515000   54.987900  107.137000
  H    -31.728000   55.213600  105.054000
  C    -32.143200   57.943700  104.898000
  H    -32.200000   57.419700  103.999000
  H    -31.103800   58.190300  104.935000
  C    -33.043300   59.170900  104.787000
  H    -34.093500   58.910800  104.768000
  H    -32.818000   59.812100  105.665000
  C    -32.884300   59.937900  103.440000
  H    -31.869500   60.266300  103.343000
  H    -33.173900   59.330000  102.559000
  H    -33.587900   60.772000  103.479000
  S    -33.754300   52.644900  107.920000
  C    -32.909900   51.178000  107.641000
  C    -31.529200   51.348100  107.534000
  C    -31.244900   52.737500  107.250000
  C    -32.319000   53.592400  107.428000
  H    -30.915300   50.473700  107.533000
  C    -29.826200   53.177100  106.782000
  H    -29.821000   54.264500  106.560000
  H    -29.719400   52.646300  105.779000
  C    -28.688900   52.838500  107.794000
  H    -28.803700   51.797900  108.024000
  H    -28.873700   53.393500  108.714000
  C    -27.201100   53.031400  107.291000
  H    -27.075800   52.458200  106.371000
  H    -26.571600   52.727000  108.136000
  H    -26.987000   54.033300  107.060000
  H    -33.398400   58.306600  107.509000
  H    -33.156800   50.132100  107.902000

 Total Charge           Charge          ....    0
 Multiplicity           Mult            ....    1
 Number of Electrons    NEL             ....  134
 Basis Dimension        Dim             ....  322

ORBITAL ENERGIES
----------------

  NO   OCC          E(Eh)            E(eV)
   0   2.0000     -88.967405     -2420.9262
   1   2.0000     -88.964638     -2420.8509
   2   2.0000     -10.330273      -281.1010
   3   2.0000     -10.323333      -280.9122
   4   2.0000     -10.316093      -280.7152
   5   2.0000     -10.308336      -280.5041
   6   2.0000     -10.307297      -280.4758
   7   2.0000     -10.298824      -280.2452
   8   2.0000     -10.298541      -280.2376
   9   2.0000     -10.294167      -280.1185
  10   2.0000     -10.292885      -280.0836
  11   2.0000     -10.288253      -279.9576
  12   2.0000     -10.287146      -279.9275
  13   2.0000     -10.285518      -279.8832
  14   2.0000     -10.281010      -279.7605
  15   2.0000     -10.278527      -279.6929
  16   2.0000      -8.082410      -219.9336
  17   2.0000      -8.079471      -219.8536
  18   2.0000      -6.040763      -164.3775
  19   2.0000      -6.038136      -164.3060
  20   2.0000      -6.037344      -164.2845
  21   2.0000      -6.034115      -164.1966
  22   2.0000      -6.032866      -164.1626
  23   2.0000      -6.029911      -164.0822
  24   2.0000      -1.008486       -27.4423
  25   2.0000      -0.983038       -26.7498
  26   2.0000      -0.912239       -24.8233
  27   2.0000      -0.897215       -24.4145
  28   2.0000      -0.868400       -23.6304
  29   2.0000      -0.853676       -23.2297
  30   2.0000      -0.843340       -22.9485
  31   2.0000      -0.809976       -22.0406
  32   2.0000      -0.784865       -21.3573
  33   2.0000      -0.770789       -20.9742
  34   2.0000      -0.711225       -19.3534
  35   2.0000      -0.700086       -19.0503
  36   2.0000      -0.690190       -18.7810
  37   2.0000      -0.656883       -17.8747
  38   2.0000      -0.636601       -17.3228
  39   2.0000      -0.621104       -16.9011
  40   2.0000      -0.583672       -15.8825
  41   2.0000      -0.572758       -15.5855
  42   2.0000      -0.567447       -15.4410
  43   2.0000      -0.556541       -15.1442
  44   2.0000      -0.528655       -14.3854
  45   2.0000      -0.524256       -14.2657
  46   2.0000      -0.517466       -14.0810
  47   2.0000      -0.510922       -13.9029
  48   2.0000      -0.502005       -13.6603
  49   2.0000      -0.497520       -13.5382
  50   2.0000      -0.486593       -13.2409
  51   2.0000      -0.479701       -13.0533
  52   2.0000      -0.471290       -12.8245
  53   2.0000      -0.463007       -12.5991
  54   2.0000      -0.459432       -12.5018
  55   2.0000      -0.456101       -12.4111
  56   2.0000      -0.446755       -12.1568
  57   2.0000      -0.438392       -11.9293
  58   2.0000      -0.434190       -11.8149
  59   2.0000      -0.429098       -11.6764
  60   2.0000      -0.421340       -11.4653
  61   2.0000      -0.413907       -11.2630
  62   2.0000      -0.408466       -11.1149
  63   2.0000      -0.346096        -9.4178
  64   2.0000      -0.334460        -9.1011
  65   2.0000      -0.327522        -8.9123
  66   2.0000      -0.284488        -7.7413
  67   0.0000       0.024907         0.6778
  68   0.0000       0.063086         1.7167
  69   0.0000       0.095549         2.6000
  70   0.0000       0.120383         3.2758
  71   0.0000       0.134615         3.6631

MULLIKEN ATOMIC CHARGES
-----------------------
   0 S :    0.099284
   1 C :   -0.112379
   2 C :   -0.086490
   3 C :    0.030523
   4 C :   -0.139983
   5 H :    0.014243
   6 C :    0.117282
   7 H :   -0.005479
   8 H :    0.026923
   9 C :   -0.121767
  10 H :    0.035557
  11 H :    0.042255
  12 C :   -0.045641
  13 H :    0.028443
  14 H :    0.038784
  15 H :    0.035873
  16 S :    0.100030
  17 C :   -0.082633
  18 C :   -0.061570
  19 C :   -0.053274
  20 C :   -0.128643
  21 H :    0.022252
  22 C :    0.037037
  23 H :    0.031418
  24 H :    0.040344
  25 C :   -0.094007
  26 H :    0.021714
  27 H :    0.038978
  28 C :   -0.025813
  29 H :    0.032506
  30 H :    0.044899
  31 H :    0.022591
  32 H :    0.035427
  33 H :    0.061318
Sum of atomic charges:   -0.0000000

LOEWDIN ATOMIC CHARGES
----------------------
   0 S :    0.399862
   1 C :   -0.192569
   2 C :   -0.052184
   3 C :   -0.057733
   4 C :   -0.182452
   5 H :    0.031662
   6 C :   -0.027098
   7 H :    0.019766
   8 H :    0.031579
   9 C :   -0.042349
  10 H :    0.025039
  11 H :    0.025891
  12 C :   -0.061438
  13 H :    0.018912
  14 H :    0.028480
  15 H :    0.028108
  16 S :    0.393554
  17 C :   -0.200011
  18 C :   -0.071565
  19 C :   -0.051883
  20 C :   -0.195166
  21 H :    0.028511
  22 C :   -0.037713
  23 H :    0.027135
  24 H :    0.035704
  25 C :   -0.038075
  26 H :    0.017011
  27 H :    0.027399
  28 C :   -0.057888
  29 H :    0.026446
  30 H :    0.032701
  31 H :    0.015772
  32 H :    0.017282
  33 H :    0.037309

  Mayer bond orders larger than 0.100000
B(  0-S ,  1-C ) :   1.1064 B(  0-S ,  4-C ) :   1.1727 B(  1-C ,  2-C ) :   1.6372
B(  1-C , 32-H ) :   0.9672 B(  2-C ,  3-C ) :   1.2465 B(  2-C ,  6-C ) :   1.0039
B(  3-C ,  4-C ) :   1.5222 B(  3-C ,  5-H ) :   1.0028 B(  4-C , 20-C ) :   1.0539
B(  6-C ,  7-H ) :   0.9418 B(  6-C ,  8-H ) :   0.9245 B(  6-C ,  9-C ) :   1.0704
B(  9-C , 10-H ) :   0.9630 B(  9-C , 11-H ) :   0.9495 B(  9-C , 12-C ) :   1.0862
B( 12-C , 13-H ) :   0.9764 B( 12-C , 14-H ) :   0.9747 B( 12-C , 15-H ) :   0.9751
B( 16-S , 17-C ) :   1.1645 B( 16-S , 20-C ) :   1.0990 B( 17-C , 18-C ) :   1.6419
B( 17-C , 33-H ) :   0.9535 B( 18-C , 19-C ) :   1.2034 B( 18-C , 21-H ) :   0.9896
B( 19-C , 20-C ) :   1.6420 B( 19-C , 22-C ) :   1.0302 B( 22-C , 23-H ) :   0.9391
B( 22-C , 24-H ) :   0.9375 B( 22-C , 25-C ) :   1.0558 B( 25-C , 26-H ) :   0.9602
B( 25-C , 27-H ) :   0.9564 B( 25-C , 28-C ) :   1.0768 B( 28-C , 29-H ) :   0.9760
B( 28-C , 30-H ) :   0.9753 B( 28-C , 31-H ) :   0.9786

Dispersion correction           -0.013309466
FINAL SINGLE POINT ENERGY     -1339.860698047594

DIPOLE MOMENT
-------------
                                X             Y             Z
Electronic contribution:    -19.25144     -12.01011      14.95413
Nuclear contribution   :     19.71346      12.07820     -15.43109
                        -----------------------------------------
Total Dipole Moment    :      0.46202       0.06809      -0.47696
                        -----------------------------------------
Magnitude (a.u.)       :      0.66752
Magnitude (Debye)      :      1.69670

Rotational constants in cm-1:     0.018671     0.007514     0.005954
Rotational constants in MHz :   559.729798   225.277283   178.489179

                             ****ORCA TERMINATED NORMALLY****
TOTAL RUN TIME: 0 days 0 hours 0 minutes 29 seconds 186 msec
