                         Program Version 4.2.1 -  RELEASE  -
|  1> ! wB97X-D3 SP def2-SVP
|  2> %pal
|  3> nprocs 16
|  4> end
|  5>
|  6> * xyz 0 1
|  7> S 	 -93.9174 	 55.2673 	 127.437
|  8> C 	 -92.4847 	 55.5418 	 128.405
|  9> C 	 -91.4173 	 54.7273 	 128.056
| 10> C 	 -91.8925 	 53.6955 	 127.205
| 11> C 	 -93.2111 	 53.8005 	 126.887
| 12> H 	 -91.3021 	 52.9222 	 126.879
| 13> C 	 -90.1441 	 54.4936 	 128.842
| 14> H 	 -89.6015 	 55.4447 	 129.052
| 15> H 	 -89.5101 	 53.9621 	 128.068
| 16> C 	 -90.3066 	 53.6318 	 130.102
| 17> H 	 -90.7816 	 54.2827 	 130.87
| 18> H 	 -90.9914 	 52.8549 	 129.927
| 19> C 	 -89.0214 	 52.9549 	 130.624
| 20> H 	 -89.2101 	 52.6548 	 131.683
| 21> H 	 -88.8347 	 52.0619 	 130.006
| 22> H 	 -88.1385 	 53.5312 	 130.54
| 23> S 	 -94.5401 	 53.6917 	 124.451
| 24> C 	 -95.0052 	 52.1924 	 123.741
| 25> C 	 -94.4778 	 51.1669 	 124.458
| 26> C 	 -93.8292 	 51.5492 	 125.676
| 27> C 	 -93.9137 	 52.9095 	 125.936
| 28> H 	 -94.6275 	 50.0591 	 124.188
| 29> C 	 -93.3682 	 50.4292 	 126.579
| 30> H 	 -94.1929 	 49.8131 	 126.959
| 31> H 	 -92.9226 	 50.9683 	 127.439
| 32> C 	 -92.2747 	 49.4861 	 126.086
| 33> H 	 -91.4019 	 50.0981 	 125.925
| 34> H 	 -92.4983 	 48.9307 	 125.208
| 35> C 	 -91.8042 	 48.5679 	 127.168
| 36> H 	 -90.9244 	 48.0759 	 126.684
| 37> H 	 -92.5147 	 47.8134 	 127.521
| 38> H 	 -91.4527 	 49.2129 	 127.98
| 39> H 	 -92.4995 	 56.2898 	 129.25
| 40> H 	 -95.4694 	 52.1775 	 122.782
| 41> *
| 42>
| 43>                          ****END OF INPUT****

CARTESIAN COORDINATES (ANGSTROEM)
---------------------------------
  S    -93.917400   55.267300  127.437000
  C    -92.484700   55.541800  128.405000
  C    -91.417300   54.727300  128.056000
  C    -91.892500   53.695500  127.205000
  C    -93.211100   53.800500  126.887000
  H    -91.302100   52.922200  126.879000
  C    -90.144100   54.493600  128.842000
  H    -89.601500   55.444700  129.052000
  H    -89.510100   53.962100  128.068000
  C    -90.306600   53.631800  130.102000
  H    -90.781600   54.282700  130.870000
  H    -90.991400   52.854900  129.927000
  C    -89.021400   52.954900  130.624000
  H    -89.210100   52.654800  131.683000
  H    -88.834700   52.061900  130.006000
  H    -88.138500   53.531200  130.540000
  S    -94.540100   53.691700  124.451000
  C    -95.005200   52.192400  123.741000
  C    -94.477800   51.166900  124.458000
  C    -93.829200   51.549200  125.676000
  C    -93.913700   52.909500  125.936000
  H    -94.627500   50.059100  124.188000
  C    -93.368200   50.429200  126.579000
  H    -94.192900   49.813100  126.959000
  H    -92.922600   50.968300  127.439000
  C    -92.274700   49.486100  126.086000
  H    -91.401900   50.098100  125.925000
  H    -92.498300   48.930700  125.208000
  C    -91.804200   48.567900  127.168000
  H    -90.924400   48.075900  126.684000
  H    -92.514700   47.813400  127.521000
  H    -91.452700   49.212900  127.980000
  H    -92.499500   56.289800  129.250000
  H    -95.469400   52.177500  122.782000

 Total Charge           Charge          ....    0
 Multiplicity           Mult            ....    1
 Number of Electrons    NEL             ....  134
 Basis Dimension        Dim             ....  322

ORBITAL ENERGIES
----------------

  NO   OCC          E(Eh)            E(eV)
   0   2.0000     -88.968719     -2420.9619
   1   2.0000     -88.958320     -2420.6789
   2   2.0000     -10.329941      -281.0920
   3   2.0000     -10.326777      -281.0059
   4   2.0000     -10.320113      -280.8246
   5   2.0000     -10.312609      -280.6203
   6   2.0000     -10.301567      -280.3199
   7   2.0000     -10.300506      -280.2910
   8   2.0000     -10.300324      -280.2861
   9   2.0000     -10.294649      -280.1316
  10   2.0000     -10.290146      -280.0091
  11   2.0000     -10.287968      -279.9498
  12   2.0000     -10.286249      -279.9031
  13   2.0000     -10.282219      -279.7934
  14   2.0000     -10.280261      -279.7401
  15   2.0000     -10.279810      -279.7278
  16   2.0000      -8.084204      -219.9824
  17   2.0000      -8.073577      -219.6932
  18   2.0000      -6.042524      -164.4254
  19   2.0000      -6.038775      -164.3234
  20   2.0000      -6.034939      -164.2190
  21   2.0000      -6.032113      -164.1421
  22   2.0000      -6.028041      -164.0313
  23   2.0000      -6.024233      -163.9277
  24   2.0000      -1.011400       -27.5216
  25   2.0000      -0.988185       -26.8899
  26   2.0000      -0.917553       -24.9679
  27   2.0000      -0.912807       -24.8388
  28   2.0000      -0.868444       -23.6316
  29   2.0000      -0.858855       -23.3706
  30   2.0000      -0.849897       -23.1269
  31   2.0000      -0.811637       -22.0858
  32   2.0000      -0.780488       -21.2381
  33   2.0000      -0.771358       -20.9897
  34   2.0000      -0.705467       -19.1967
  35   2.0000      -0.698343       -19.0029
  36   2.0000      -0.693086       -18.8598
  37   2.0000      -0.660470       -17.9723
  38   2.0000      -0.640823       -17.4377
  39   2.0000      -0.625271       -17.0145
  40   2.0000      -0.602641       -16.3987
  41   2.0000      -0.579293       -15.7634
  42   2.0000      -0.561301       -15.2738
  43   2.0000      -0.559173       -15.2159
  44   2.0000      -0.531744       -14.4695
  45   2.0000      -0.528279       -14.3752
  46   2.0000      -0.517178       -14.0731
  47   2.0000      -0.516511       -14.0550
  48   2.0000      -0.507065       -13.7979
  49   2.0000      -0.496374       -13.5070
  50   2.0000      -0.490313       -13.3421
  51   2.0000      -0.478522       -13.0212
  52   2.0000      -0.469090       -12.7646
  53   2.0000      -0.462659       -12.5896
  54   2.0000      -0.459955       -12.5160
  55   2.0000      -0.452838       -12.3224
  56   2.0000      -0.446674       -12.1546
  57   2.0000      -0.441471       -12.0130
  58   2.0000      -0.428455       -11.6588
  59   2.0000      -0.426660       -11.6100
  60   2.0000      -0.426054       -11.5935
  61   2.0000      -0.417400       -11.3580
  62   2.0000      -0.409880       -11.1534
  63   2.0000      -0.349451        -9.5091
  64   2.0000      -0.335096        -9.1184
  65   2.0000      -0.326050        -8.8723
  66   2.0000      -0.293242        -7.9795
  67   0.0000       0.030128         0.8198
  68   0.0000       0.066183         1.8009
  69   0.0000       0.107517         2.9257
  70   0.0000       0.115628         3.1464
  71   0.0000       0.120325         3.2742

MULLIKEN ATOMIC CHARGES
-----------------------
   0 S :    0.120805
   1 C :   -0.150068
   2 C :   -0.037486
   3 C :    0.031072
   4 C :   -0.142531
   5 H :   -0.028211
   6 C :   -0.002326
   7 H :    0.040138
   8 H :    0.028230
   9 C :   -0.043518
  10 H :    0.030054
  11 H :    0.018545
  12 C :   -0.048599
  13 H :    0.045591
  14 H :    0.032275
  15 H :    0.028130
  16 S :    0.071171
  17 C :   -0.078745
  18 C :   -0.039892
  19 C :   -0.042640
  20 C :   -0.105824
  21 H :    0.043454
  22 C :    0.025687
  23 H :    0.040258
  24 H :    0.010230
  25 C :   -0.060604
  26 H :    0.016963
  27 H :    0.024993
  28 C :   -0.057154
  29 H :    0.038332
  30 H :    0.040193
  31 H :    0.027019
  32 H :    0.069070
  33 H :    0.055392
Sum of atomic charges:    0.0000000

LOEWDIN ATOMIC CHARGES
----------------------
   0 S :    0.418999
   1 C :   -0.192430
   2 C :   -0.068470
   3 C :   -0.048924
   4 C :   -0.202362
   5 H :    0.015812
   6 C :   -0.038185
   7 H :    0.032612
   8 H :    0.032572
   9 C :   -0.038120
  10 H :    0.027244
  11 H :    0.018519
  12 C :   -0.062739
  13 H :    0.035232
  14 H :    0.027695
  15 H :    0.017469
  16 S :    0.389079
  17 C :   -0.183942
  18 C :   -0.081099
  19 C :   -0.065479
  20 C :   -0.180953
  21 H :    0.042411
  22 C :   -0.036891
  23 H :    0.032844
  24 H :    0.028671
  25 C :   -0.040558
  26 H :    0.024469
  27 H :    0.015721
  28 C :   -0.061981
  29 H :    0.033750
  30 H :    0.022726
  31 H :    0.024548
  32 H :    0.035456
  33 H :    0.026308

  Mayer bond orders larger than 0.100000
B(  0-S ,  1-C ) :   1.1506 B(  0-S ,  4-C ) :   1.1516 B(  1-C ,  2-C ) :   1.5978
B(  1-C , 32-H ) :   0.9641 B(  2-C ,  3-C ) :   1.2288 B(  2-C ,  6-C ) :   1.0410
B(  3-C ,  4-C ) :   1.5765 B(  3-C ,  5-H ) :   1.0131 B(  4-C , 20-C ) :   1.0069
B(  6-C ,  7-H ) :   0.9390 B(  6-C ,  8-H ) :   0.9454 B(  6-C ,  9-C ) :   1.0527
B(  9-C , 10-H ) :   0.9543 B(  9-C , 11-H ) :   0.9592 B(  9-C , 12-C ) :   1.0736
B( 12-C , 13-H ) :   0.9737 B( 12-C , 14-H ) :   0.9766 B( 12-C , 15-H ) :   0.9799
B( 16-S , 17-C ) :   1.1572 B( 16-S , 20-C ) :   1.1316 B( 17-C , 18-C ) :   1.5986
B( 17-C , 33-H ) :   0.9742 B( 18-C , 19-C ) :   1.2387 B( 18-C , 21-H ) :   0.9782
B( 19-C , 20-C ) :   1.6146 B( 19-C , 22-C ) :   1.0468 B( 22-C , 23-H ) :   0.9432
B( 22-C , 24-H ) :   0.9338 B( 22-C , 25-C ) :   1.0686 B( 25-C , 26-H ) :   0.9507
B( 25-C , 27-H ) :   0.9535 B( 25-C , 28-C ) :   1.0905 B( 28-C , 29-H ) :   0.9753
B( 28-C , 30-H ) :   0.9742 B( 28-C , 31-H ) :   0.9731

Dispersion correction           -0.013922775
FINAL SINGLE POINT ENERGY     -1339.869965547128

DIPOLE MOMENT
-------------
                                X             Y             Z
Electronic contribution:    -21.35140      20.29383     -15.93909
Nuclear contribution   :     21.83439     -20.81558      16.20948
                        -----------------------------------------
Total Dipole Moment    :      0.48299      -0.52175       0.27040
                        -----------------------------------------
Magnitude (a.u.)       :      0.76067
Magnitude (Debye)      :      1.93347

Rotational constants in cm-1:     0.016179     0.009849     0.006465
Rotational constants in MHz :   485.048467   295.278877   193.802588

                             ****ORCA TERMINATED NORMALLY****
TOTAL RUN TIME: 0 days 0 hours 0 minutes 34 seconds 297 msec
