                         Program Version 4.2.1 -  RELEASE  -
|  1> ! wB97X-D3 SP def2-SVP
|  2> %pal
|  3> nprocs 16
|  4> end
|  5>
|  6> * xyz 0 1
|  7> S 	 -34.1747 	 61.73 	 106.77
|  8> C 	 -34.164 	 62.3532 	 108.421
|  9> C 	 -35.3377 	 62.194 	 109.023
| 10> C 	 -36.3221 	 61.6992 	 108.171
| 11> C 	 -35.9265 	 61.5092 	 106.854
| 12> H 	 -37.3825 	 61.5312 	 108.398
| 13> C 	 -35.5918 	 62.4429 	 110.51
| 14> H 	 -36.5826 	 62.8714 	 110.592
| 15> H 	 -34.787 	 63.1712 	 110.843
| 16> C 	 -35.4718 	 61.2543 	 111.534
| 17> H 	 -34.3942 	 60.909 	 111.605
| 18> H 	 -35.7333 	 61.4605 	 112.566
| 19> C 	 -36.4189 	 60.0995 	 111.134
| 20> H 	 -36.2472 	 59.2305 	 111.776
| 21> H 	 -37.4683 	 60.4914 	 111.22
| 22> H 	 -36.2788 	 59.6571 	 110.111
| 23> S 	 -35.9625 	 60.0633 	 104.601
| 24> C 	 -37.5559 	 59.6594 	 103.904
| 25> C 	 -38.5863 	 60.3287 	 104.511
| 26> C 	 -38.1201 	 61.3001 	 105.438
| 27> C 	 -36.7071 	 61.1743 	 105.699
| 28> H 	 -39.6059 	 60.2483 	 104.217
| 29> C 	 -39.052 	 62.2163 	 106.177
| 30> H 	 -39.4762 	 62.8347 	 105.413
| 31> H 	 -38.3974 	 62.8332 	 106.746
| 32> C 	 -40.0395 	 61.6056 	 107.243
| 33> H 	 -39.3881 	 61.148 	 108.004
| 34> H 	 -40.6952 	 60.8565 	 106.785
| 35> C 	 -40.9748 	 62.5725 	 108.103
| 36> H 	 -41.6137 	 61.8416 	 108.599
| 37> H 	 -41.4413 	 63.3665 	 107.509
| 38> H 	 -40.3871 	 63.0162 	 108.912
| 39> H 	 -33.1782 	 62.472 	 108.955
| 40> H 	 -37.755 	 58.8299 	 103.226
| 41> *
| 42>
| 43>                          ****END OF INPUT****

CARTESIAN COORDINATES (ANGSTROEM)
---------------------------------
  S    -34.174700   61.730000  106.770000
  C    -34.164000   62.353200  108.421000
  C    -35.337700   62.194000  109.023000
  C    -36.322100   61.699200  108.171000
  C    -35.926500   61.509200  106.854000
  H    -37.382500   61.531200  108.398000
  C    -35.591800   62.442900  110.510000
  H    -36.582600   62.871400  110.592000
  H    -34.787000   63.171200  110.843000
  C    -35.471800   61.254300  111.534000
  H    -34.394200   60.909000  111.605000
  H    -35.733300   61.460500  112.566000
  C    -36.418900   60.099500  111.134000
  H    -36.247200   59.230500  111.776000
  H    -37.468300   60.491400  111.220000
  H    -36.278800   59.657100  110.111000
  S    -35.962500   60.063300  104.601000
  C    -37.555900   59.659400  103.904000
  C    -38.586300   60.328700  104.511000
  C    -38.120100   61.300100  105.438000
  C    -36.707100   61.174300  105.699000
  H    -39.605900   60.248300  104.217000
  C    -39.052000   62.216300  106.177000
  H    -39.476200   62.834700  105.413000
  H    -38.397400   62.833200  106.746000
  C    -40.039500   61.605600  107.243000
  H    -39.388100   61.148000  108.004000
  H    -40.695200   60.856500  106.785000
  C    -40.974800   62.572500  108.103000
  H    -41.613700   61.841600  108.599000
  H    -41.441300   63.366500  107.509000
  H    -40.387100   63.016200  108.912000
  H    -33.178200   62.472000  108.955000
  H    -37.755000   58.829900  103.226000

 Total Charge           Charge          ....    0
 Multiplicity           Mult            ....    1
 Number of Electrons    NEL             ....  134
 Basis Dimension        Dim             ....  322

ORBITAL ENERGIES
----------------

  NO   OCC          E(Eh)            E(eV)
   0   2.0000     -88.969586     -2420.9855
   1   2.0000     -88.962355     -2420.7888
   2   2.0000     -10.331334      -281.1299
   3   2.0000     -10.329410      -281.0775
   4   2.0000     -10.322007      -280.8761
   5   2.0000     -10.312827      -280.6263
   6   2.0000     -10.308461      -280.5075
   7   2.0000     -10.300268      -280.2845
   8   2.0000     -10.298929      -280.2481
   9   2.0000     -10.295723      -280.1609
  10   2.0000     -10.295637      -280.1585
  11   2.0000     -10.294003      -280.1141
  12   2.0000     -10.291946      -280.0581
  13   2.0000     -10.287955      -279.9495
  14   2.0000     -10.287871      -279.9472
  15   2.0000     -10.282543      -279.8022
  16   2.0000      -8.084163      -219.9813
  17   2.0000      -8.077152      -219.7905
  18   2.0000      -6.042680      -164.4297
  19   2.0000      -6.038698      -164.3213
  20   2.0000      -6.035727      -164.2405
  21   2.0000      -6.034925      -164.2187
  22   2.0000      -6.031843      -164.1348
  23   2.0000      -6.027662      -164.0210
  24   2.0000      -1.010267       -27.4908
  25   2.0000      -0.986093       -26.8330
  26   2.0000      -0.907479       -24.6938
  27   2.0000      -0.902656       -24.5625
  28   2.0000      -0.874065       -23.7845
  29   2.0000      -0.851185       -23.1619
  30   2.0000      -0.843408       -22.9503
  31   2.0000      -0.818135       -22.2626
  32   2.0000      -0.782658       -21.2972
  33   2.0000      -0.768572       -20.9139
  34   2.0000      -0.708394       -19.2764
  35   2.0000      -0.699574       -19.0364
  36   2.0000      -0.695678       -18.9304
  37   2.0000      -0.666349       -18.1323
  38   2.0000      -0.635993       -17.3063
  39   2.0000      -0.616398       -16.7730
  40   2.0000      -0.590971       -16.0811
  41   2.0000      -0.570990       -15.5374
  42   2.0000      -0.567225       -15.4350
  43   2.0000      -0.544573       -14.8186
  44   2.0000      -0.540959       -14.7202
  45   2.0000      -0.534128       -14.5344
  46   2.0000      -0.514138       -13.9904
  47   2.0000      -0.511658       -13.9229
  48   2.0000      -0.503810       -13.7094
  49   2.0000      -0.500591       -13.6218
  50   2.0000      -0.490035       -13.3345
  51   2.0000      -0.478468       -13.0198
  52   2.0000      -0.472611       -12.8604
  53   2.0000      -0.468570       -12.7504
  54   2.0000      -0.455878       -12.4051
  55   2.0000      -0.452582       -12.3154
  56   2.0000      -0.443999       -12.0818
  57   2.0000      -0.436470       -11.8770
  58   2.0000      -0.428449       -11.6587
  59   2.0000      -0.421336       -11.4651
  60   2.0000      -0.420137       -11.4325
  61   2.0000      -0.416850       -11.3431
  62   2.0000      -0.415053       -11.2942
  63   2.0000      -0.360564        -9.8114
  64   2.0000      -0.335678        -9.1343
  65   2.0000      -0.329589        -8.9686
  66   2.0000      -0.281260        -7.6535
  67   0.0000       0.014589         0.3970
  68   0.0000       0.075934         2.0663
  69   0.0000       0.091903         2.5008
  70   0.0000       0.115760         3.1500
  71   0.0000       0.123764         3.3678

MULLIKEN ATOMIC CHARGES
-----------------------
   0 S :    0.082552
   1 C :   -0.143050
   2 C :   -0.053944
   3 C :    0.017794
   4 C :   -0.134229
   5 H :   -0.020929
   6 C :    0.053499
   7 H :    0.027057
   8 H :    0.036208
   9 C :   -0.060146
  10 H :    0.031872
  11 H :    0.034719
  12 C :   -0.106030
  13 H :    0.035446
  14 H :    0.034664
  15 H :    0.056717
  16 S :    0.097296
  17 C :   -0.081849
  18 C :   -0.015512
  19 C :   -0.094539
  20 C :   -0.113834
  21 H :    0.014750
  22 C :    0.099846
  23 H :    0.028818
  24 H :    0.008629
  25 C :   -0.109781
  26 H :    0.035270
  27 H :    0.034138
  28 C :   -0.048926
  29 H :    0.041386
  30 H :    0.049809
  31 H :    0.030259
  32 H :    0.069268
  33 H :    0.062770
Sum of atomic charges:   -0.0000000

LOEWDIN ATOMIC CHARGES
----------------------
   0 S :    0.376512
   1 C :   -0.190849
   2 C :   -0.075521
   3 C :   -0.070577
   4 C :   -0.179424
   5 H :    0.028680
   6 C :   -0.028222
   7 H :    0.026819
   8 H :    0.038261
   9 C :   -0.042981
  10 H :    0.026604
  11 H :    0.025694
  12 C :   -0.079821
  13 H :    0.025237
  14 H :    0.026611
  15 H :    0.031308
  16 S :    0.405585
  17 C :   -0.171836
  18 C :   -0.063448
  19 C :   -0.047952
  20 C :   -0.207404
  21 H :    0.030603
  22 C :   -0.038169
  23 H :    0.030515
  24 H :    0.025517
  25 C :   -0.037019
  26 H :    0.023648
  27 H :    0.019793
  28 C :   -0.063512
  29 H :    0.032173
  30 H :    0.027501
  31 H :    0.023920
  32 H :    0.039629
  33 H :    0.032127

  Mayer bond orders larger than 0.100000
B(  0-S ,  1-C ) :   1.1224 B(  0-S ,  4-C ) :   1.1379 B(  1-C ,  2-C ) :   1.6489
B(  1-C , 32-H ) :   0.9535 B(  2-C ,  3-C ) :   1.2426 B(  2-C ,  6-C ) :   1.0102
B(  3-C ,  4-C ) :   1.5628 B(  3-C ,  5-H ) :   0.9900 B(  4-C , 20-C ) :   1.0720
B(  6-C ,  7-H ) :   0.9418 B(  6-C ,  8-H ) :   0.9438 B(  6-C ,  9-C ) :   1.0659
B(  9-C , 10-H ) :   0.9566 B(  9-C , 11-H ) :   0.9578 B(  9-C , 12-C ) :   1.0716
B( 12-C , 13-H ) :   0.9734 B( 12-C , 14-H ) :   0.9755 B( 12-C , 15-H ) :   0.9722
B( 16-S , 17-C ) :   1.1486 B( 16-S , 20-C ) :   1.1398 B( 17-C , 18-C ) :   1.6057
B( 17-C , 33-H ) :   0.9641 B( 18-C , 19-C ) :   1.2654 B( 18-C , 21-H ) :   0.9915
B( 19-C , 20-C ) :   1.5372 B( 19-C , 22-C ) :   1.0513 B( 22-C , 23-H ) :   0.9257
B( 22-C , 24-H ) :   0.9317 B( 22-C , 25-C ) :   1.0462 B( 25-C , 26-H ) :   0.9540
B( 25-C , 27-H ) :   0.9624 B( 25-C , 28-C ) :   1.0675 B( 28-C , 29-H ) :   0.9756
B( 28-C , 30-H ) :   0.9788 B( 28-C , 31-H ) :   0.9794

Dispersion correction           -0.014749253
FINAL SINGLE POINT ENERGY     -1339.865525458049

DIPOLE MOMENT
-------------
                                X             Y             Z
Electronic contribution:     18.87185      -3.03475     -23.85828
Nuclear contribution   :    -19.49630       2.91086      24.35793
                        -----------------------------------------
Total Dipole Moment    :     -0.62445      -0.12389       0.49965
                        -----------------------------------------
Magnitude (a.u.)       :      0.80928
Magnitude (Debye)      :      2.05703

Rotational constants in cm-1:     0.015991     0.010372     0.007207
Rotational constants in MHz :   479.391089   310.949241   216.053818

                             ****ORCA TERMINATED NORMALLY****
TOTAL RUN TIME: 0 days 0 hours 0 minutes 31 seconds 369 msec
