                         Program Version 4.2.1 -  RELEASE  -
|  1> ! wB97X-D3 SP def2-SVP
|  2> %pal
|  3> nprocs 16
|  4> end
|  5>
|  6> * xyz 0 1
|  7> S 	 -48.9069 	 26.5759 	 86.9662
|  8> C 	 -49.1398 	 27.593 	 85.5528
|  9> C 	 -47.8981 	 27.8758 	 84.9543
| 10> C 	 -46.8548 	 27.5069 	 85.8372
| 11> C 	 -47.1376 	 26.9123 	 87.0612
| 12> H 	 -45.7946 	 27.7112 	 85.6203
| 13> C 	 -47.7763 	 28.4967 	 83.599
| 14> H 	 -46.7885 	 29.0006 	 83.6221
| 15> H 	 -48.6104 	 29.2781 	 83.4942
| 16> C 	 -47.9025 	 27.5139 	 82.479
| 17> H 	 -47.274 	 26.6514 	 82.6928
| 18> H 	 -48.9029 	 26.9782 	 82.5279
| 19> C 	 -47.6254 	 28.1726 	 81.0517
| 20> H 	 -46.711 	 27.702 	 80.7303
| 21> H 	 -48.4116 	 28.0602 	 80.2892
| 22> H 	 -47.4881 	 29.253 	 81.1078
| 23> S 	 -46.3248 	 24.6447 	 88.4005
| 24> C 	 -44.8488 	 24.7127 	 89.4056
| 25> C 	 -44.3978 	 26.0092 	 89.5332
| 26> C 	 -45.1035 	 26.9682 	 88.7279
| 27> C 	 -46.2081 	 26.3819 	 88.0418
| 28> H 	 -43.5559 	 26.1813 	 90.2015
| 29> C 	 -44.6423 	 28.3512 	 88.5299
| 30> H 	 -44.3183 	 28.6869 	 89.494
| 31> H 	 -45.5283 	 28.9241 	 88.2469
| 32> C 	 -43.5477 	 28.5473 	 87.4866
| 33> H 	 -43.2513 	 29.6155 	 87.4368
| 34> H 	 -43.8223 	 28.2039 	 86.5395
| 35> C 	 -42.3102 	 27.6795 	 87.8719
| 36> H 	 -41.4986 	 27.7866 	 87.1001
| 37> H 	 -42.5176 	 26.6144 	 87.9106
| 38> H 	 -41.8943 	 28.0409 	 88.8214
| 39> H 	 -50.0545 	 27.7272 	 85.0947
| 40> H 	 -44.4395 	 23.8674 	 89.9652
| 41> *
| 42>
| 43>                          ****END OF INPUT****

CARTESIAN COORDINATES (ANGSTROEM)
---------------------------------
  S    -48.906900   26.575900   86.966200
  C    -49.139800   27.593000   85.552800
  C    -47.898100   27.875800   84.954300
  C    -46.854800   27.506900   85.837200
  C    -47.137600   26.912300   87.061200
  H    -45.794600   27.711200   85.620300
  C    -47.776300   28.496700   83.599000
  H    -46.788500   29.000600   83.622100
  H    -48.610400   29.278100   83.494200
  C    -47.902500   27.513900   82.479000
  H    -47.274000   26.651400   82.692800
  H    -48.902900   26.978200   82.527900
  C    -47.625400   28.172600   81.051700
  H    -46.711000   27.702000   80.730300
  H    -48.411600   28.060200   80.289200
  H    -47.488100   29.253000   81.107800
  S    -46.324800   24.644700   88.400500
  C    -44.848800   24.712700   89.405600
  C    -44.397800   26.009200   89.533200
  C    -45.103500   26.968200   88.727900
  C    -46.208100   26.381900   88.041800
  H    -43.555900   26.181300   90.201500
  C    -44.642300   28.351200   88.529900
  H    -44.318300   28.686900   89.494000
  H    -45.528300   28.924100   88.246900
  C    -43.547700   28.547300   87.486600
  H    -43.251300   29.615500   87.436800
  H    -43.822300   28.203900   86.539500
  C    -42.310200   27.679500   87.871900
  H    -41.498600   27.786600   87.100100
  H    -42.517600   26.614400   87.910600
  H    -41.894300   28.040900   88.821400
  H    -50.054500   27.727200   85.094700
  H    -44.439500   23.867400   89.965200

 Total Charge           Charge          ....    0
 Multiplicity           Mult            ....    1
 Number of Electrons    NEL             ....  134
 Basis Dimension        Dim             ....  322

ORBITAL ENERGIES
----------------

  NO   OCC          E(Eh)            E(eV)
   0   2.0000     -88.966336     -2420.8971
   1   2.0000     -88.965382     -2420.8711
   2   2.0000     -10.335710      -281.2490
   3   2.0000     -10.335081      -281.2319
   4   2.0000     -10.322140      -280.8797
   5   2.0000     -10.314881      -280.6822
   6   2.0000     -10.307763      -280.4885
   7   2.0000     -10.302667      -280.3498
   8   2.0000     -10.299643      -280.2675
   9   2.0000     -10.298066      -280.2246
  10   2.0000     -10.297833      -280.2183
  11   2.0000     -10.293425      -280.0983
  12   2.0000     -10.287181      -279.9284
  13   2.0000     -10.285477      -279.8821
  14   2.0000     -10.284079      -279.8440
  15   2.0000     -10.279235      -279.7122
  16   2.0000      -8.080079      -219.8701
  17   2.0000      -8.079121      -219.8441
  18   2.0000      -6.038714      -164.3218
  19   2.0000      -6.037693      -164.2940
  20   2.0000      -6.034728      -164.2133
  21   2.0000      -6.033783      -164.1876
  22   2.0000      -6.030748      -164.1050
  23   2.0000      -6.029833      -164.0801
  24   2.0000      -1.000328       -27.2203
  25   2.0000      -0.979682       -26.6585
  26   2.0000      -0.915070       -24.9003
  27   2.0000      -0.912192       -24.8220
  28   2.0000      -0.869327       -23.6556
  29   2.0000      -0.844843       -22.9894
  30   2.0000      -0.840755       -22.8781
  31   2.0000      -0.816704       -22.2237
  32   2.0000      -0.782011       -21.2796
  33   2.0000      -0.769293       -20.9335
  34   2.0000      -0.713573       -19.4173
  35   2.0000      -0.703858       -19.1529
  36   2.0000      -0.694597       -18.9010
  37   2.0000      -0.660755       -17.9801
  38   2.0000      -0.644832       -17.5468
  39   2.0000      -0.618490       -16.8300
  40   2.0000      -0.592608       -16.1257
  41   2.0000      -0.569995       -15.5103
  42   2.0000      -0.561465       -15.2782
  43   2.0000      -0.553663       -15.0659
  44   2.0000      -0.545949       -14.8560
  45   2.0000      -0.525538       -14.3006
  46   2.0000      -0.517145       -14.0722
  47   2.0000      -0.509583       -13.8664
  48   2.0000      -0.506319       -13.7776
  49   2.0000      -0.503395       -13.6981
  50   2.0000      -0.487752       -13.2724
  51   2.0000      -0.485404       -13.2085
  52   2.0000      -0.468147       -12.7389
  53   2.0000      -0.464066       -12.6279
  54   2.0000      -0.457897       -12.4600
  55   2.0000      -0.446151       -12.1404
  56   2.0000      -0.443337       -12.0638
  57   2.0000      -0.438479       -11.9316
  58   2.0000      -0.435864       -11.8605
  59   2.0000      -0.424222       -11.5437
  60   2.0000      -0.420189       -11.4339
  61   2.0000      -0.417997       -11.3743
  62   2.0000      -0.404993       -11.0204
  63   2.0000      -0.349960        -9.5229
  64   2.0000      -0.329950        -8.9784
  65   2.0000      -0.325984        -8.8705
  66   2.0000      -0.289211        -7.8698
  67   0.0000       0.021497         0.5850
  68   0.0000       0.057717         1.5706
  69   0.0000       0.109846         2.9891
  70   0.0000       0.119598         3.2544
  71   0.0000       0.129084         3.5126

MULLIKEN ATOMIC CHARGES
-----------------------
   0 S :    0.093964
   1 C :   -0.078720
   2 C :   -0.101766
   3 C :    0.024515
   4 C :   -0.141863
   5 H :    0.000576
   6 C :    0.044387
   7 H :    0.031395
   8 H :    0.045084
   9 C :   -0.091607
  10 H :    0.029312
  11 H :    0.029536
  12 C :   -0.040553
  13 H :    0.040013
  14 H :    0.042069
  15 H :    0.033838
  16 S :    0.096006
  17 C :   -0.105013
  18 C :   -0.036432
  19 C :   -0.063428
  20 C :   -0.155125
  21 H :    0.026611
  22 C :    0.092712
  23 H :    0.014187
  24 H :    0.032004
  25 C :   -0.017085
  26 H :    0.041545
  27 H :    0.013304
  28 C :   -0.108982
  29 H :    0.034606
  30 H :    0.058087
  31 H :    0.026638
  32 H :    0.025364
  33 H :    0.064822
Sum of atomic charges:   -0.0000000

LOEWDIN ATOMIC CHARGES
----------------------
   0 S :    0.383139
   1 C :   -0.171046
   2 C :   -0.067411
   3 C :   -0.063451
   4 C :   -0.189050
   5 H :    0.027750
   6 C :   -0.040457
   7 H :    0.032456
   8 H :    0.040994
   9 C :   -0.048202
  10 H :    0.023835
  11 H :    0.029199
  12 C :   -0.066887
  13 H :    0.028693
  14 H :    0.029845
  15 H :    0.026070
  16 S :    0.380775
  17 C :   -0.177769
  18 C :   -0.070595
  19 C :   -0.051304
  20 C :   -0.187505
  21 H :    0.035185
  22 C :   -0.034532
  23 H :    0.028553
  24 H :    0.034911
  25 C :   -0.026469
  26 H :    0.031340
  27 H :    0.011112
  28 C :   -0.070397
  29 H :    0.028225
  30 H :    0.026623
  31 H :    0.020522
  32 H :    0.012117
  33 H :    0.033731

  Mayer bond orders larger than 0.100000
B(  0-S ,  1-C ) :   1.1621 B(  0-S ,  4-C ) :   1.1257 B(  1-C ,  2-C ) :   1.5588
B(  1-C ,  4-C ) :   0.1102 B(  1-C , 32-H ) :   0.9772 B(  2-C ,  3-C ) :   1.2842
B(  2-C ,  6-C ) :   1.0204 B(  3-C ,  4-C ) :   1.5429 B(  3-C ,  5-H ) :   0.9858
B(  4-C , 20-C ) :   1.0760 B(  6-C ,  7-H ) :   0.9392 B(  6-C ,  8-H ) :   0.9375
B(  6-C ,  9-C ) :   1.0670 B(  9-C , 10-H ) :   0.9634 B(  9-C , 11-H ) :   0.9565
B(  9-C , 12-C ) :   1.0381 B( 12-C , 13-H ) :   0.9804 B( 12-C , 14-H ) :   0.9798
B( 12-C , 15-H ) :   0.9804 B( 16-S , 17-C ) :   1.1402 B( 16-S , 20-C ) :   1.1347
B( 17-C , 18-C ) :   1.6229 B( 17-C , 20-C ) :   0.1007 B( 17-C , 33-H ) :   0.9641
B( 18-C , 19-C ) :   1.2240 B( 18-C , 21-H ) :   0.9853 B( 19-C , 20-C ) :   1.5756
B( 19-C , 22-C ) :   1.0630 B( 22-C , 23-H ) :   0.9283 B( 22-C , 24-H ) :   0.9205
B( 22-C , 25-C ) :   1.0726 B( 25-C , 26-H ) :   0.9545 B( 25-C , 27-H ) :   0.9494
B( 25-C , 28-C ) :   1.0775 B( 28-C , 29-H ) :   0.9727 B( 28-C , 30-H ) :   0.9678
B( 28-C , 31-H ) :   0.9770

Dispersion correction           -0.014506591
FINAL SINGLE POINT ENERGY     -1339.871353704269

DIPOLE MOMENT
-------------
                                X             Y             Z
Electronic contribution:    -13.91271     -14.35675      18.08059
Nuclear contribution   :     14.39429      14.69030     -18.48528
                        -----------------------------------------
Total Dipole Moment    :      0.48158       0.33355      -0.40470
                        -----------------------------------------
Magnitude (a.u.)       :      0.71201
Magnitude (Debye)      :      1.80978

Rotational constants in cm-1:     0.019959     0.008001     0.006485
Rotational constants in MHz :   598.343537   239.856888   194.410246

                             ****ORCA TERMINATED NORMALLY****
TOTAL RUN TIME: 0 days 0 hours 0 minutes 30 seconds 191 msec
