                         Program Version 4.2.1 -  RELEASE  -
|  1> ! wB97X-D3 SP def2-SVP
|  2> %pal
|  3> nprocs 16
|  4> end
|  5>
|  6> * xyz 0 1
|  7> S 	 6.09598 	 19.9031 	 52.6279
|  8> C 	 4.9833 	 19.259 	 53.8143
|  9> C 	 4.81725 	 17.8643 	 53.6448
| 10> C 	 5.57598 	 17.3779 	 52.5745
| 11> C 	 6.17941 	 18.3606 	 51.8475
| 12> H 	 5.659 	 16.3633 	 52.2595
| 13> C 	 3.9819 	 16.9936 	 54.4643
| 14> H 	 3.33498 	 16.3356 	 53.9385
| 15> H 	 3.48137 	 17.7336 	 55.0974
| 16> C 	 4.76285 	 15.9493 	 55.2544
| 17> H 	 5.39543 	 15.3203 	 54.5437
| 18> H 	 5.57565 	 16.5343 	 55.738
| 19> C 	 4.01833 	 15.0935 	 56.1967
| 20> H 	 3.44779 	 15.6494 	 56.9424
| 21> H 	 3.12555 	 14.5697 	 55.7502
| 22> H 	 4.59171 	 14.3242 	 56.6361
| 23> S 	 8.4939 	 18.3643 	 50.5761
| 24> C 	 8.71651 	 17.7733 	 48.963
| 25> C 	 7.49662 	 17.5009 	 48.4338
| 26> C 	 6.36503 	 17.6679 	 49.3304
| 27> C 	 6.78298 	 18.1769 	 50.558
| 28> H 	 7.47302 	 17.1516 	 47.4532
| 29> C 	 4.91049 	 17.3173 	 49.0162
| 30> H 	 4.20661 	 17.3802 	 49.8921
| 31> H 	 4.96388 	 16.1807 	 48.8419
| 32> C 	 4.25418 	 18.0726 	 47.8396
| 33> H 	 3.20222 	 17.7835 	 47.9001
| 34> H 	 4.65093 	 17.873 	 46.932
| 35> C 	 4.26109 	 19.6495 	 48.0224
| 36> H 	 3.63069 	 20.135 	 47.2618
| 37> H 	 5.32231 	 19.9752 	 47.9031
| 38> H 	 3.79708 	 19.9106 	 49.0374
| 39> H 	 4.60769 	 19.968 	 54.618
| 40> H 	 9.53971 	 17.9125 	 48.3502
| 41> *
| 42>
| 43>                          ****END OF INPUT****

CARTESIAN COORDINATES (ANGSTROEM)
---------------------------------
  S      6.095980   19.903100   52.627900
  C      4.983300   19.259000   53.814300
  C      4.817250   17.864300   53.644800
  C      5.575980   17.377900   52.574500
  C      6.179410   18.360600   51.847500
  H      5.659000   16.363300   52.259500
  C      3.981900   16.993600   54.464300
  H      3.334980   16.335600   53.938500
  H      3.481370   17.733600   55.097400
  C      4.762850   15.949300   55.254400
  H      5.395430   15.320300   54.543700
  H      5.575650   16.534300   55.738000
  C      4.018330   15.093500   56.196700
  H      3.447790   15.649400   56.942400
  H      3.125550   14.569700   55.750200
  H      4.591710   14.324200   56.636100
  S      8.493900   18.364300   50.576100
  C      8.716510   17.773300   48.963000
  C      7.496620   17.500900   48.433800
  C      6.365030   17.667900   49.330400
  C      6.782980   18.176900   50.558000
  H      7.473020   17.151600   47.453200
  C      4.910490   17.317300   49.016200
  H      4.206610   17.380200   49.892100
  H      4.963880   16.180700   48.841900
  C      4.254180   18.072600   47.839600
  H      3.202220   17.783500   47.900100
  H      4.650930   17.873000   46.932000
  C      4.261090   19.649500   48.022400
  H      3.630690   20.135000   47.261800
  H      5.322310   19.975200   47.903100
  H      3.797080   19.910600   49.037400
  H      4.607690   19.968000   54.618000
  H      9.539710   17.912500   48.350200

 Total Charge           Charge          ....    0
 Multiplicity           Mult            ....    1
 Number of Electrons    NEL             ....  134
 Basis Dimension        Dim             ....  322

ORBITAL ENERGIES
----------------

  NO   OCC          E(Eh)            E(eV)
   0   2.0000     -88.966995     -2420.9150
   1   2.0000     -88.957306     -2420.6514
   2   2.0000     -10.322798      -280.8976
   3   2.0000     -10.322252      -280.8828
   4   2.0000     -10.320673      -280.8398
   5   2.0000     -10.307581      -280.4835
   6   2.0000     -10.307070      -280.4696
   7   2.0000     -10.301514      -280.3184
   8   2.0000     -10.300638      -280.2946
   9   2.0000     -10.289253      -279.9848
  10   2.0000     -10.288795      -279.9723
  11   2.0000     -10.286773      -279.9173
  12   2.0000     -10.284963      -279.8681
  13   2.0000     -10.283710      -279.8340
  14   2.0000     -10.281008      -279.7605
  15   2.0000     -10.277503      -279.6651
  16   2.0000      -8.082246      -219.9291
  17   2.0000      -8.073314      -219.6860
  18   2.0000      -6.040551      -164.3717
  19   2.0000      -6.036704      -164.2671
  20   2.0000      -6.033170      -164.1709
  21   2.0000      -6.031792      -164.1334
  22   2.0000      -6.027478      -164.0160
  23   2.0000      -6.024175      -163.9261
  24   2.0000      -1.013630       -27.5823
  25   2.0000      -0.988951       -26.9107
  26   2.0000      -0.923442       -25.1281
  27   2.0000      -0.900994       -24.5173
  28   2.0000      -0.875898       -23.8344
  29   2.0000      -0.857505       -23.3339
  30   2.0000      -0.839689       -22.8491
  31   2.0000      -0.820460       -22.3259
  32   2.0000      -0.782656       -21.2972
  33   2.0000      -0.768225       -20.9045
  34   2.0000      -0.710863       -19.3436
  35   2.0000      -0.695073       -18.9139
  36   2.0000      -0.692309       -18.8387
  37   2.0000      -0.658631       -17.9222
  38   2.0000      -0.647314       -17.6143
  39   2.0000      -0.627043       -17.0627
  40   2.0000      -0.599824       -16.3221
  41   2.0000      -0.584856       -15.9147
  42   2.0000      -0.558081       -15.1862
  43   2.0000      -0.547480       -14.8977
  44   2.0000      -0.539714       -14.6864
  45   2.0000      -0.530371       -14.4321
  46   2.0000      -0.521224       -14.1832
  47   2.0000      -0.516934       -14.0665
  48   2.0000      -0.506219       -13.7749
  49   2.0000      -0.499083       -13.5808
  50   2.0000      -0.485398       -13.2083
  51   2.0000      -0.478107       -13.0100
  52   2.0000      -0.469467       -12.7748
  53   2.0000      -0.464388       -12.6366
  54   2.0000      -0.461785       -12.5658
  55   2.0000      -0.453120       -12.3300
  56   2.0000      -0.438987       -11.9455
  57   2.0000      -0.435728       -11.8568
  58   2.0000      -0.432961       -11.7815
  59   2.0000      -0.429994       -11.7007
  60   2.0000      -0.425086       -11.5672
  61   2.0000      -0.402541       -10.9537
  62   2.0000      -0.400950       -10.9104
  63   2.0000      -0.341272        -9.2865
  64   2.0000      -0.331916        -9.0319
  65   2.0000      -0.321765        -8.7557
  66   2.0000      -0.300454        -8.1758
  67   0.0000       0.037045         1.0081
  68   0.0000       0.065378         1.7790
  69   0.0000       0.119679         3.2566
  70   0.0000       0.121161         3.2970
  71   0.0000       0.128820         3.5054

MULLIKEN ATOMIC CHARGES
-----------------------
   0 S :    0.124878
   1 C :   -0.163013
   2 C :   -0.085136
   3 C :    0.046861
   4 C :   -0.156818
   5 H :    0.005434
   6 C :    0.131570
   7 H :    0.014710
   8 H :    0.015926
   9 C :   -0.135669
  10 H :    0.031956
  11 H :    0.025606
  12 C :    0.001915
  13 H :    0.020926
  14 H :    0.015690
  15 H :    0.035039
  16 S :    0.091064
  17 C :   -0.048971
  18 C :   -0.044007
  19 C :   -0.013531
  20 C :   -0.171841
  21 H :   -0.004258
  22 C :    0.010629
  23 H :    0.038931
  24 H :    0.045444
  25 C :   -0.027632
  26 H :    0.029414
  27 H :    0.010609
  28 C :   -0.102872
  29 H :    0.040150
  30 H :    0.055050
  31 H :    0.044863
  32 H :    0.078403
  33 H :    0.038680
Sum of atomic charges:    0.0000000

LOEWDIN ATOMIC CHARGES
----------------------
   0 S :    0.420618
   1 C :   -0.211892
   2 C :   -0.062044
   3 C :   -0.054050
   4 C :   -0.206076
   5 H :    0.030354
   6 C :   -0.031441
   7 H :    0.026871
   8 H :    0.033337
   9 C :   -0.050587
  10 H :    0.028376
  11 H :    0.025216
  12 C :   -0.069535
  13 H :    0.027054
  14 H :    0.029798
  15 H :    0.025145
  16 S :    0.419520
  17 C :   -0.183915
  18 C :   -0.065419
  19 C :   -0.058321
  20 C :   -0.206978
  21 H :    0.019859
  22 C :   -0.041368
  23 H :    0.035869
  24 H :    0.041187
  25 C :   -0.031102
  26 H :    0.027599
  27 H :    0.004497
  28 C :   -0.071197
  29 H :    0.024919
  30 H :    0.030015
  31 H :    0.032794
  32 H :    0.040418
  33 H :    0.020475

  Mayer bond orders larger than 0.100000
B(  0-S ,  1-C ) :   1.1499 B(  0-S ,  4-C ) :   1.1717 B(  1-C ,  2-C ) :   1.5641
B(  1-C ,  4-C ) :   0.1037 B(  1-C , 32-H ) :   0.9610 B(  2-C ,  3-C ) :   1.2437
B(  2-C ,  6-C ) :   1.0523 B(  3-C ,  4-C ) :   1.5635 B(  3-C ,  5-H ) :   1.0057
B(  4-C , 20-C ) :   0.9974 B(  6-C ,  7-H ) :   0.9288 B(  6-C ,  8-H ) :   0.9312
B(  6-C ,  9-C ) :   1.0513 B(  9-C , 10-H ) :   0.9503 B(  9-C , 11-H ) :   0.9498
B(  9-C , 12-C ) :   1.0969 B( 12-C , 13-H ) :   0.9672 B( 12-C , 14-H ) :   0.9637
B( 12-C , 15-H ) :   0.9711 B( 16-S , 17-C ) :   1.1493 B( 16-S , 20-C ) :   1.1679
B( 17-C , 18-C ) :   1.6282 B( 17-C , 33-H ) :   0.9706 B( 18-C , 19-C ) :   1.2171
B( 18-C , 21-H ) :   0.9988 B( 19-C , 20-C ) :   1.5955 B( 19-C , 22-C ) :   1.0329
B( 22-C , 23-H ) :   0.9438 B( 22-C , 24-H ) :   0.9349 B( 22-C , 25-C ) :   1.0681
B( 25-C , 26-H ) :   0.9577 B( 25-C , 27-H ) :   0.9614 B( 25-C , 28-C ) :   1.0671
B( 28-C , 29-H ) :   0.9765 B( 28-C , 30-H ) :   0.9746 B( 28-C , 31-H ) :   0.9765

Dispersion correction           -0.014440815
FINAL SINGLE POINT ENERGY     -1339.861736975114

DIPOLE MOMENT
-------------
                                X             Y             Z
Electronic contribution:     18.77633      11.78460      -2.32109
Nuclear contribution   :    -19.23487     -12.18864       2.21821
                        -----------------------------------------
Total Dipole Moment    :     -0.45854      -0.40404      -0.10289
                        -----------------------------------------
Magnitude (a.u.)       :      0.61975
Magnitude (Debye)      :      1.57529

Rotational constants in cm-1:     0.019988     0.007776     0.007248
Rotational constants in MHz :   599.219280   233.118379   217.297597

                             ****ORCA TERMINATED NORMALLY****
TOTAL RUN TIME: 0 days 0 hours 0 minutes 33 seconds 162 msec
