                         Program Version 4.2.1 -  RELEASE  -
|  1> ! wB97X-D3 SP def2-SVP
|  2> %pal
|  3> nprocs 16
|  4> end
|  5>
|  6> * xyz 0 1
|  7> S 	 -34.1505 	 45.998 	 99.6411
|  8> C 	 -34.7595 	 44.3142 	 99.5755
|  9> C 	 -34.8115 	 43.871 	 98.2617
| 10> C 	 -34.1489 	 44.7288 	 97.3632
| 11> C 	 -33.5027 	 45.7862 	 97.9982
| 12> H 	 -34.0757 	 44.6285 	 96.3031
| 13> C 	 -35.4573 	 42.6313 	 97.7481
| 14> H 	 -34.7373 	 41.7525 	 97.8936
| 15> H 	 -35.5403 	 42.7924 	 96.6756
| 16> C 	 -36.958 	 42.4472 	 98.1361
| 17> H 	 -37.0959 	 42.4609 	 99.2732
| 18> H 	 -37.4396 	 43.4155 	 97.7546
| 19> C 	 -37.598 	 41.0749 	 97.6998
| 20> H 	 -38.598 	 40.9449 	 98.1729
| 21> H 	 -37.6538 	 41.0585 	 96.5906
| 22> H 	 -36.8915 	 40.353 	 98.073
| 23> S 	 -33.6668 	 48.3962 	 97.3126
| 24> C 	 -32.3677 	 49.1587 	 96.4341
| 25> C 	 -31.3758 	 48.2933 	 96.0764
| 26> C 	 -31.5374 	 46.9888 	 96.7592
| 27> C 	 -32.785 	 46.9173 	 97.3682
| 28> H 	 -30.5726 	 48.6901 	 95.5038
| 29> C 	 -30.5243 	 45.8504 	 96.5289
| 30> H 	 -29.7849 	 46.153 	 95.802
| 31> H 	 -31.042 	 45.0752 	 96.004
| 32> C 	 -29.8647 	 45.3287 	 97.793
| 33> H 	 -29.1492 	 44.5933 	 97.6432
| 34> H 	 -30.6865 	 44.8502 	 98.3835
| 35> C 	 -29.2324 	 46.4538 	 98.5709
| 36> H 	 -28.7379 	 45.9719 	 99.4448
| 37> H 	 -29.8177 	 47.2827 	 98.9022
| 38> H 	 -28.3482 	 46.8458 	 98.0245
| 39> H 	 -35.068 	 43.7517 	 100.38
| 40> H 	 -32.1963 	 50.1638 	 96.2735
| 41> *
| 42>
| 43>                          ****END OF INPUT****

CARTESIAN COORDINATES (ANGSTROEM)
---------------------------------
  S    -34.150500   45.998000   99.641100
  C    -34.759500   44.314200   99.575500
  C    -34.811500   43.871000   98.261700
  C    -34.148900   44.728800   97.363200
  C    -33.502700   45.786200   97.998200
  H    -34.075700   44.628500   96.303100
  C    -35.457300   42.631300   97.748100
  H    -34.737300   41.752500   97.893600
  H    -35.540300   42.792400   96.675600
  C    -36.958000   42.447200   98.136100
  H    -37.095900   42.460900   99.273200
  H    -37.439600   43.415500   97.754600
  C    -37.598000   41.074900   97.699800
  H    -38.598000   40.944900   98.172900
  H    -37.653800   41.058500   96.590600
  H    -36.891500   40.353000   98.073000
  S    -33.666800   48.396200   97.312600
  C    -32.367700   49.158700   96.434100
  C    -31.375800   48.293300   96.076400
  C    -31.537400   46.988800   96.759200
  C    -32.785000   46.917300   97.368200
  H    -30.572600   48.690100   95.503800
  C    -30.524300   45.850400   96.528900
  H    -29.784900   46.153000   95.802000
  H    -31.042000   45.075200   96.004000
  C    -29.864700   45.328700   97.793000
  H    -29.149200   44.593300   97.643200
  H    -30.686500   44.850200   98.383500
  C    -29.232400   46.453800   98.570900
  H    -28.737900   45.971900   99.444800
  H    -29.817700   47.282700   98.902200
  H    -28.348200   46.845800   98.024500
  H    -35.068000   43.751700  100.380000
  H    -32.196300   50.163800   96.273500

 Total Charge           Charge          ....    0
 Multiplicity           Mult            ....    1
 Number of Electrons    NEL             ....  134
 Basis Dimension        Dim             ....  322

ORBITAL ENERGIES
----------------

  NO   OCC          E(Eh)            E(eV)
   0   2.0000     -88.966803     -2420.9098
   1   2.0000     -88.964264     -2420.8407
   2   2.0000     -10.332092      -281.1505
   3   2.0000     -10.324285      -280.9381
   4   2.0000     -10.312562      -280.6191
   5   2.0000     -10.308463      -280.5075
   6   2.0000     -10.305959      -280.4394
   7   2.0000     -10.302032      -280.3326
   8   2.0000     -10.299490      -280.2634
   9   2.0000     -10.297685      -280.2143
  10   2.0000     -10.294094      -280.1165
  11   2.0000     -10.291736      -280.0524
  12   2.0000     -10.288370      -279.9608
  13   2.0000     -10.284812      -279.8640
  14   2.0000     -10.276120      -279.6275
  15   2.0000     -10.268893      -279.4308
  16   2.0000      -8.080476      -219.8809
  17   2.0000      -8.079649      -219.8584
  18   2.0000      -6.039015      -164.3299
  19   2.0000      -6.038237      -164.3088
  20   2.0000      -6.035437      -164.2326
  21   2.0000      -6.034097      -164.1961
  22   2.0000      -6.030969      -164.1110
  23   2.0000      -6.030253      -164.0915
  24   2.0000      -1.004846       -27.3433
  25   2.0000      -0.981970       -26.7207
  26   2.0000      -0.909525       -24.7494
  27   2.0000      -0.907012       -24.6811
  28   2.0000      -0.865684       -23.5565
  29   2.0000      -0.848277       -23.0828
  30   2.0000      -0.842518       -22.9261
  31   2.0000      -0.815607       -22.1938
  32   2.0000      -0.781128       -21.2556
  33   2.0000      -0.771618       -20.9968
  34   2.0000      -0.709973       -19.3193
  35   2.0000      -0.695786       -18.9333
  36   2.0000      -0.684929       -18.6379
  37   2.0000      -0.660954       -17.9855
  38   2.0000      -0.644451       -17.5364
  39   2.0000      -0.613462       -16.6931
  40   2.0000      -0.587653       -15.9908
  41   2.0000      -0.570134       -15.5141
  42   2.0000      -0.559149       -15.2152
  43   2.0000      -0.555290       -15.1102
  44   2.0000      -0.547936       -14.9101
  45   2.0000      -0.524088       -14.2612
  46   2.0000      -0.517567       -14.0837
  47   2.0000      -0.508197       -13.8288
  48   2.0000      -0.503950       -13.7132
  49   2.0000      -0.500608       -13.6222
  50   2.0000      -0.486506       -13.2385
  51   2.0000      -0.480729       -13.0813
  52   2.0000      -0.473620       -12.8878
  53   2.0000      -0.461897       -12.5689
  54   2.0000      -0.453741       -12.3469
  55   2.0000      -0.445794       -12.1307
  56   2.0000      -0.440110       -11.9760
  57   2.0000      -0.432512       -11.7692
  58   2.0000      -0.428746       -11.6668
  59   2.0000      -0.425448       -11.5770
  60   2.0000      -0.424669       -11.5558
  61   2.0000      -0.409990       -11.1564
  62   2.0000      -0.407336       -11.0842
  63   2.0000      -0.338300        -9.2056
  64   2.0000      -0.329157        -8.9568
  65   2.0000      -0.325389        -8.8543
  66   2.0000      -0.297301        -8.0900
  67   0.0000       0.028829         0.7845
  68   0.0000       0.058457         1.5907
  69   0.0000       0.098990         2.6937
  70   0.0000       0.120484         3.2785
  71   0.0000       0.133282         3.6268

MULLIKEN ATOMIC CHARGES
-----------------------
   0 S :    0.095044
   1 C :   -0.081288
   2 C :   -0.077395
   3 C :    0.048919
   4 C :   -0.156717
   5 H :    0.012430
   6 C :    0.050494
   7 H :    0.057385
   8 H :    0.019973
   9 C :   -0.156651
  10 H :    0.036530
  11 H :    0.049185
  12 C :   -0.037020
  13 H :    0.052674
  14 H :    0.041393
  15 H :    0.034119
  16 S :    0.118877
  17 C :   -0.059801
  18 C :   -0.038074
  19 C :   -0.065569
  20 C :   -0.173227
  21 H :    0.013703
  22 C :    0.105706
  23 H :    0.005795
  24 H :    0.019733
  25 C :   -0.041856
  26 H :    0.012534
  27 H :    0.041120
  28 C :   -0.063252
  29 H :    0.026160
  30 H :    0.050210
  31 H :    0.018489
  32 H :    0.014961
  33 H :    0.025413
Sum of atomic charges:    0.0000000

LOEWDIN ATOMIC CHARGES
----------------------
   0 S :    0.377672
   1 C :   -0.164392
   2 C :   -0.065057
   3 C :   -0.052460
   4 C :   -0.182264
   5 H :    0.030468
   6 C :   -0.045247
   7 H :    0.041056
   8 H :    0.030381
   9 C :   -0.051757
  10 H :    0.022395
  11 H :    0.032513
  12 C :   -0.065789
  13 H :    0.033898
  14 H :    0.027197
  15 H :    0.025226
  16 S :    0.414720
  17 C :   -0.180164
  18 C :   -0.064082
  19 C :   -0.047862
  20 C :   -0.214136
  21 H :    0.027828
  22 C :   -0.029661
  23 H :    0.025072
  24 H :    0.027313
  25 C :   -0.038041
  26 H :    0.016431
  27 H :    0.031698
  28 C :   -0.066945
  29 H :    0.029481
  30 H :    0.023393
  31 H :    0.024577
  32 H :    0.010552
  33 H :    0.015988

  Mayer bond orders larger than 0.100000
B(  0-S ,  1-C ) :   1.1291 B(  0-S ,  4-C ) :   1.1429 B(  1-C ,  2-C ) :   1.5939
B(  1-C ,  4-C ) :   0.1086 B(  1-C , 32-H ) :   0.9848 B(  2-C ,  3-C ) :   1.2427
B(  2-C ,  6-C ) :   1.0231 B(  3-C ,  4-C ) :   1.5771 B(  3-C ,  5-H ) :   0.9955
B(  4-C , 20-C ) :   1.0096 B(  6-C ,  7-H ) :   0.9315 B(  6-C ,  8-H ) :   0.9454
B(  6-C ,  9-C ) :   1.0402 B(  9-C , 10-H ) :   0.9624 B(  9-C , 11-H ) :   0.9583
B(  9-C , 12-C ) :   1.0601 B( 12-C , 13-H ) :   0.9760 B( 12-C , 14-H ) :   0.9778
B( 12-C , 15-H ) :   0.9747 B( 16-S , 17-C ) :   1.1337 B( 16-S , 20-C ) :   1.1482
B( 17-C , 18-C ) :   1.6676 B( 17-C , 33-H ) :   0.9698 B( 18-C , 19-C ) :   1.1998
B( 18-C , 21-H ) :   0.9881 B( 19-C , 20-C ) :   1.6302 B( 19-C , 22-C ) :   1.0277
B( 22-C , 23-H ) :   0.9363 B( 22-C , 24-H ) :   0.9345 B( 22-C , 25-C ) :   1.0761
B( 25-C , 26-H ) :   0.9526 B( 25-C , 27-H ) :   0.9519 B( 25-C , 28-C ) :   1.0842
B( 28-C , 29-H ) :   0.9714 B( 28-C , 30-H ) :   0.9739 B( 28-C , 31-H ) :   0.9725

Dispersion correction           -0.014479614
FINAL SINGLE POINT ENERGY     -1339.854280409796

DIPOLE MOMENT
-------------
                                X             Y             Z
Electronic contribution:     -3.20323      20.24814       3.16327
Nuclear contribution   :      3.33744     -20.72024      -3.49980
                        -----------------------------------------
Total Dipole Moment    :      0.13421      -0.47210      -0.33653
                        -----------------------------------------
Magnitude (a.u.)       :      0.59510
Magnitude (Debye)      :      1.51261

Rotational constants in cm-1:     0.023118     0.007287     0.006628
Rotational constants in MHz :   693.054426   218.448389   198.696168

                             ****ORCA TERMINATED NORMALLY****
TOTAL RUN TIME: 0 days 0 hours 0 minutes 31 seconds 939 msec
