                         Program Version 4.2.1 -  RELEASE  -
|  1> ! wB97X-D3 SP def2-SVP
|  2> %pal
|  3> nprocs 16
|  4> end
|  5>
|  6> * xyz 0 1
|  7> S 	 -118.474 	 47.3489 	 130.639
|  8> C 	 -118.302 	 47.6072 	 132.339
|  9> C 	 -117.926 	 46.4387 	 132.957
| 10> C 	 -117.759 	 45.3276 	 132.095
| 11> C 	 -117.807 	 45.6863 	 130.764
| 12> H 	 -117.624 	 44.3301 	 132.474
| 13> C 	 -117.832 	 46.3722 	 134.45
| 14> H 	 -117.19 	 47.2281 	 134.75
| 15> H 	 -117.262 	 45.5127 	 134.786
| 16> C 	 -119.097 	 46.512 	 135.345
| 17> H 	 -118.912 	 46.3721 	 136.442
| 18> H 	 -119.582 	 47.5037 	 135.125
| 19> C 	 -120.164 	 45.4806 	 134.966
| 20> H 	 -121.1 	 45.6032 	 135.51
| 21> H 	 -120.489 	 45.4427 	 133.941
| 22> H 	 -119.798 	 44.4818 	 135.191
| 23> S 	 -119.4 	 44.8295 	 128.713
| 24> C 	 -118.928 	 43.2884 	 127.965
| 25> C 	 -117.666 	 42.7996 	 128.205
| 26> C 	 -117.061 	 43.7334 	 129.155
| 27> C 	 -117.942 	 44.7936 	 129.611
| 28> H 	 -117.301 	 41.9131 	 127.707
| 29> C 	 -115.657 	 43.4851 	 129.605
| 30> H 	 -115.454 	 42.4474 	 129.477
| 31> H 	 -115.502 	 43.7202 	 130.677
| 32> C 	 -114.622 	 44.0887 	 128.731
| 33> H 	 -114.972 	 44.1628 	 127.718
| 34> H 	 -113.855 	 43.363 	 128.511
| 35> C 	 -114.19 	 45.4541 	 129.078
| 36> H 	 -113.442 	 45.8051 	 128.41
| 37> H 	 -113.817 	 45.5071 	 130.062
| 38> H 	 -115.027 	 46.1517 	 129.018
| 39> H 	 -118.55 	 48.5206 	 132.866
| 40> H 	 -119.523 	 42.7277 	 127.305
| 41> *
| 42>
| 43>                          ****END OF INPUT****

CARTESIAN COORDINATES (ANGSTROEM)
---------------------------------
  S    -118.474000   47.348900  130.639000
  C    -118.302000   47.607200  132.339000
  C    -117.926000   46.438700  132.957000
  C    -117.759000   45.327600  132.095000
  C    -117.807000   45.686300  130.764000
  H    -117.624000   44.330100  132.474000
  C    -117.832000   46.372200  134.450000
  H    -117.190000   47.228100  134.750000
  H    -117.262000   45.512700  134.786000
  C    -119.097000   46.512000  135.345000
  H    -118.912000   46.372100  136.442000
  H    -119.582000   47.503700  135.125000
  C    -120.164000   45.480600  134.966000
  H    -121.100000   45.603200  135.510000
  H    -120.489000   45.442700  133.941000
  H    -119.798000   44.481800  135.191000
  S    -119.400000   44.829500  128.713000
  C    -118.928000   43.288400  127.965000
  C    -117.666000   42.799600  128.205000
  C    -117.061000   43.733400  129.155000
  C    -117.942000   44.793600  129.611000
  H    -117.301000   41.913100  127.707000
  C    -115.657000   43.485100  129.605000
  H    -115.454000   42.447400  129.477000
  H    -115.502000   43.720200  130.677000
  C    -114.622000   44.088700  128.731000
  H    -114.972000   44.162800  127.718000
  H    -113.855000   43.363000  128.511000
  C    -114.190000   45.454100  129.078000
  H    -113.442000   45.805100  128.410000
  H    -113.817000   45.507100  130.062000
  H    -115.027000   46.151700  129.018000
  H    -118.550000   48.520600  132.866000
  H    -119.523000   42.727700  127.305000

 Total Charge           Charge          ....    0
 Multiplicity           Mult            ....    1
 Number of Electrons    NEL             ....  134
 Basis Dimension        Dim             ....  322

ORBITAL ENERGIES
----------------

  NO   OCC          E(Eh)            E(eV)
   0   2.0000     -88.970225     -2421.0029
   1   2.0000     -88.965920     -2420.8858
   2   2.0000     -10.334037      -281.2034
   3   2.0000     -10.328320      -281.0479
   4   2.0000     -10.314138      -280.6620
   5   2.0000     -10.313011      -280.6313
   6   2.0000     -10.310027      -280.5501
   7   2.0000     -10.298882      -280.2468
   8   2.0000     -10.297673      -280.2139
   9   2.0000     -10.296120      -280.1717
  10   2.0000     -10.295935      -280.1666
  11   2.0000     -10.290985      -280.0319
  12   2.0000     -10.279505      -279.7195
  13   2.0000     -10.269149      -279.4378
  14   2.0000     -10.267786      -279.4007
  15   2.0000     -10.258224      -279.1405
  16   2.0000      -8.084947      -220.0026
  17   2.0000      -8.080492      -219.8814
  18   2.0000      -6.043433      -164.4502
  19   2.0000      -6.039623      -164.3465
  20   2.0000      -6.039011      -164.3298
  21   2.0000      -6.035553      -164.2357
  22   2.0000      -6.035076      -164.2228
  23   2.0000      -6.031201      -164.1173
  24   2.0000      -1.006327       -27.3835
  25   2.0000      -0.983277       -26.7563
  26   2.0000      -0.919654       -25.0251
  27   2.0000      -0.907693       -24.6996
  28   2.0000      -0.871314       -23.7097
  29   2.0000      -0.852009       -23.1843
  30   2.0000      -0.845999       -23.0208
  31   2.0000      -0.819545       -22.3010
  32   2.0000      -0.783419       -21.3179
  33   2.0000      -0.767766       -20.8920
  34   2.0000      -0.706549       -19.2262
  35   2.0000      -0.698377       -19.0038
  36   2.0000      -0.690570       -18.7914
  37   2.0000      -0.660746       -17.9798
  38   2.0000      -0.639683       -17.4066
  39   2.0000      -0.619925       -16.8690
  40   2.0000      -0.597157       -16.2495
  41   2.0000      -0.576827       -15.6963
  42   2.0000      -0.559707       -15.2304
  43   2.0000      -0.547415       -14.8959
  44   2.0000      -0.542072       -14.7505
  45   2.0000      -0.529417       -14.4062
  46   2.0000      -0.517960       -14.0944
  47   2.0000      -0.513144       -13.9634
  48   2.0000      -0.503444       -13.6994
  49   2.0000      -0.501566       -13.6483
  50   2.0000      -0.490880       -13.3575
  51   2.0000      -0.475214       -12.9312
  52   2.0000      -0.469753       -12.7826
  53   2.0000      -0.468623       -12.7519
  54   2.0000      -0.457992       -12.4626
  55   2.0000      -0.451762       -12.2931
  56   2.0000      -0.441452       -12.0125
  57   2.0000      -0.434335       -11.8189
  58   2.0000      -0.429350       -11.6832
  59   2.0000      -0.424240       -11.5442
  60   2.0000      -0.420395       -11.4395
  61   2.0000      -0.413278       -11.2459
  62   2.0000      -0.398027       -10.8309
  63   2.0000      -0.354131        -9.6364
  64   2.0000      -0.334229        -9.0948
  65   2.0000      -0.323058        -8.7908
  66   2.0000      -0.284122        -7.7314
  67   0.0000       0.026150         0.7116
  68   0.0000       0.062761         1.7078
  69   0.0000       0.099715         2.7134
  70   0.0000       0.117231         3.1900
  71   0.0000       0.131544         3.5795

MULLIKEN ATOMIC CHARGES
-----------------------
   0 S :    0.082402
   1 C :   -0.111278
   2 C :   -0.091672
   3 C :    0.052574
   4 C :   -0.136172
   5 H :    0.017664
   6 C :    0.042181
   7 H :    0.036545
   8 H :    0.016329
   9 C :   -0.072339
  10 H :    0.048695
  11 H :    0.029860
  12 C :   -0.063406
  13 H :    0.028208
  14 H :    0.036916
  15 H :    0.015078
  16 S :    0.124863
  17 C :   -0.068782
  18 C :   -0.024828
  19 C :   -0.081683
  20 C :   -0.138645
  21 H :    0.030013
  22 C :    0.099936
  23 H :   -0.001055
  24 H :    0.027206
  25 C :   -0.060057
  26 H :    0.003309
  27 H :    0.006068
  28 C :    0.012621
  29 H :    0.019834
  30 H :    0.011432
  31 H :    0.028576
  32 H :    0.052630
  33 H :    0.026973
Sum of atomic charges:    0.0000000

LOEWDIN ATOMIC CHARGES
----------------------
   0 S :    0.390414
   1 C :   -0.195105
   2 C :   -0.070553
   3 C :   -0.049940
   4 C :   -0.178810
   5 H :    0.033656
   6 C :   -0.041565
   7 H :    0.038722
   8 H :    0.025321
   9 C :   -0.041290
  10 H :    0.034410
  11 H :    0.024568
  12 C :   -0.073689
  13 H :    0.024731
  14 H :    0.023824
  15 H :    0.019042
  16 S :    0.413260
  17 C :   -0.165613
  18 C :   -0.063011
  19 C :   -0.042480
  20 C :   -0.225686
  21 H :    0.039022
  22 C :   -0.037326
  23 H :    0.028598
  24 H :    0.032136
  25 C :   -0.048500
  26 H :    0.025145
  27 H :    0.020374
  28 C :   -0.053521
  29 H :    0.022881
  30 H :    0.015650
  31 H :    0.030004
  32 H :    0.031131
  33 H :    0.014203

  Mayer bond orders larger than 0.100000
B(  0-S ,  1-C ) :   1.1403 B(  0-S ,  4-C ) :   1.1410 B(  1-C ,  2-C ) :   1.5877
B(  1-C , 32-H ) :   0.9724 B(  2-C ,  3-C ) :   1.2646 B(  2-C ,  6-C ) :   1.0239
B(  3-C ,  4-C ) :   1.5509 B(  3-C ,  5-H ) :   0.9934 B(  4-C , 20-C ) :   1.0414
B(  6-C ,  7-H ) :   0.9379 B(  6-C ,  8-H ) :   0.9450 B(  6-C ,  9-C ) :   1.0699
B(  9-C , 10-H ) :   0.9560 B(  9-C , 11-H ) :   0.9546 B(  9-C , 12-C ) :   1.0736
B( 12-C , 13-H ) :   0.9746 B( 12-C , 14-H ) :   0.9747 B( 12-C , 15-H ) :   0.9761
B( 16-S , 17-C ) :   1.1499 B( 16-S , 20-C ) :   1.1317 B( 17-C , 18-C ) :   1.6434
B( 17-C , 33-H ) :   0.9647 B( 18-C , 19-C ) :   1.2196 B( 18-C , 21-H ) :   0.9899
B( 19-C , 20-C ) :   1.5746 B( 19-C , 22-C ) :   1.0721 B( 22-C , 23-H ) :   0.9193
B( 22-C , 24-H ) :   0.9360 B( 22-C , 25-C ) :   1.0709 B( 25-C , 26-H ) :   0.9392
B( 25-C , 27-H ) :   0.9494 B( 25-C , 28-C ) :   1.0931 B( 28-C , 29-H ) :   0.9678
B( 28-C , 30-H ) :   0.9746 B( 28-C , 31-H ) :   0.9674

Dispersion correction           -0.014802726
FINAL SINGLE POINT ENERGY     -1339.858572596538

DIPOLE MOMENT
-------------
                                X             Y             Z
Electronic contribution:    -10.96626       4.49092     -14.87953
Nuclear contribution   :     11.11197      -4.92795      15.17918
                        -----------------------------------------
Total Dipole Moment    :      0.14571      -0.43703       0.29966
                        -----------------------------------------
Magnitude (a.u.)       :      0.54957
Magnitude (Debye)      :      1.39689

Rotational constants in cm-1:     0.020693     0.008298     0.007425
Rotational constants in MHz :   620.360544   248.762581   222.608126

                             ****ORCA TERMINATED NORMALLY****
TOTAL RUN TIME: 0 days 0 hours 0 minutes 34 seconds 370 msec
