                         Program Version 4.2.1 -  RELEASE  -
|  1> ! wB97X-D3 SP def2-SVP
|  2> %pal
|  3> nprocs 16
|  4> end
|  5>
|  6> * xyz 0 1
|  7> S 	 -42.3486 	 34.7179 	 81.7108
|  8> C 	 -43.2548 	 34.0475 	 80.3782
|  9> C 	 -43.7746 	 32.8363 	 80.6475
| 10> C 	 -43.442 	 32.4241 	 82.0159
| 11> C 	 -42.5268 	 33.2527 	 82.6806
| 12> H 	 -43.64 	 31.4073 	 82.3053
| 13> C 	 -44.5334 	 32.1007 	 79.5999
| 14> H 	 -43.6862 	 31.6948 	 78.9858
| 15> H 	 -44.9515 	 32.6821 	 78.7722
| 16> C 	 -45.5895 	 31.0663 	 80.0801
| 17> H 	 -45.8561 	 30.5374 	 79.1801
| 18> H 	 -44.9996 	 30.3584 	 80.6574
| 19> C 	 -46.8381 	 31.6793 	 80.8553
| 20> H 	 -47.518 	 30.8909 	 81.0427
| 21> H 	 -46.5293 	 32.0003 	 81.8941
| 22> H 	 -47.3809 	 32.4549 	 80.2909
| 23> S 	 -41.9517 	 34.6597 	 84.9018
| 24> C 	 -41.5563 	 33.8065 	 86.3781
| 25> C 	 -41.2643 	 32.4453 	 86.18
| 26> C 	 -41.6388 	 31.9766 	 84.8399
| 27> C 	 -41.9522 	 33.0963 	 84.0054
| 28> H 	 -41.0809 	 31.7755 	 86.9247
| 29> C 	 -41.6459 	 30.5236 	 84.4517
| 30> H 	 -40.6992 	 30.0539 	 84.7784
| 31> H 	 -41.4998 	 30.448 	 83.3458
| 32> C 	 -42.9322 	 29.7544 	 84.8677
| 33> H 	 -43.7832 	 30.0797 	 84.3421
| 34> H 	 -43.0371 	 29.9453 	 85.8984
| 35> C 	 -42.8681 	 28.3315 	 84.5502
| 36> H 	 -42.1019 	 27.8918 	 85.1717
| 37> H 	 -42.7045 	 28.2662 	 83.4268
| 38> H 	 -43.8296 	 27.8512 	 84.6955
| 39> H 	 -43.3722 	 34.5629 	 79.4087
| 40> H 	 -41.5312 	 34.2147 	 87.3243
| 41> *
| 42>
| 43>                          ****END OF INPUT****

CARTESIAN COORDINATES (ANGSTROEM)
---------------------------------
  S    -42.348600   34.717900   81.710800
  C    -43.254800   34.047500   80.378200
  C    -43.774600   32.836300   80.647500
  C    -43.442000   32.424100   82.015900
  C    -42.526800   33.252700   82.680600
  H    -43.640000   31.407300   82.305300
  C    -44.533400   32.100700   79.599900
  H    -43.686200   31.694800   78.985800
  H    -44.951500   32.682100   78.772200
  C    -45.589500   31.066300   80.080100
  H    -45.856100   30.537400   79.180100
  H    -44.999600   30.358400   80.657400
  C    -46.838100   31.679300   80.855300
  H    -47.518000   30.890900   81.042700
  H    -46.529300   32.000300   81.894100
  H    -47.380900   32.454900   80.290900
  S    -41.951700   34.659700   84.901800
  C    -41.556300   33.806500   86.378100
  C    -41.264300   32.445300   86.180000
  C    -41.638800   31.976600   84.839900
  C    -41.952200   33.096300   84.005400
  H    -41.080900   31.775500   86.924700
  C    -41.645900   30.523600   84.451700
  H    -40.699200   30.053900   84.778400
  H    -41.499800   30.448000   83.345800
  C    -42.932200   29.754400   84.867700
  H    -43.783200   30.079700   84.342100
  H    -43.037100   29.945300   85.898400
  C    -42.868100   28.331500   84.550200
  H    -42.101900   27.891800   85.171700
  H    -42.704500   28.266200   83.426800
  H    -43.829600   27.851200   84.695500
  H    -43.372200   34.562900   79.408700
  H    -41.531200   34.214700   87.324300

 Total Charge           Charge          ....    0
 Multiplicity           Mult            ....    1
 Number of Electrons    NEL             ....  134
 Basis Dimension        Dim             ....  322

ORBITAL ENERGIES
----------------

  NO   OCC          E(Eh)            E(eV)
   0   2.0000     -88.969073     -2420.9716
   1   2.0000     -88.960952     -2420.7506
   2   2.0000     -10.335365      -281.2396
   3   2.0000     -10.334425      -281.2140
   4   2.0000     -10.318760      -280.7877
   5   2.0000     -10.314977      -280.6848
   6   2.0000     -10.305155      -280.4175
   7   2.0000     -10.299120      -280.2533
   8   2.0000     -10.296597      -280.1846
   9   2.0000     -10.295947      -280.1670
  10   2.0000     -10.295058      -280.1428
  11   2.0000     -10.294286      -280.1218
  12   2.0000     -10.293989      -280.1137
  13   2.0000     -10.286384      -279.9067
  14   2.0000     -10.279168      -279.7104
  15   2.0000     -10.278295      -279.6866
  16   2.0000      -8.082972      -219.9488
  17   2.0000      -8.075704      -219.7511
  18   2.0000      -6.041583      -164.3998
  19   2.0000      -6.037679      -164.2936
  20   2.0000      -6.034384      -164.2039
  21   2.0000      -6.033573      -164.1819
  22   2.0000      -6.030262      -164.0918
  23   2.0000      -6.026242      -163.9824
  24   2.0000      -0.999700       -27.2032
  25   2.0000      -0.975886       -26.5552
  26   2.0000      -0.920343       -25.0438
  27   2.0000      -0.907718       -24.7003
  28   2.0000      -0.867049       -23.5936
  29   2.0000      -0.859997       -23.4017
  30   2.0000      -0.836419       -22.7601
  31   2.0000      -0.814608       -22.1666
  32   2.0000      -0.784483       -21.3469
  33   2.0000      -0.771363       -20.9899
  34   2.0000      -0.713994       -19.4288
  35   2.0000      -0.699777       -19.0419
  36   2.0000      -0.691271       -18.8104
  37   2.0000      -0.667456       -18.1624
  38   2.0000      -0.634987       -17.2789
  39   2.0000      -0.623550       -16.9677
  40   2.0000      -0.599450       -16.3119
  41   2.0000      -0.584412       -15.9027
  42   2.0000      -0.563737       -15.3401
  43   2.0000      -0.546339       -14.8666
  44   2.0000      -0.535346       -14.5675
  45   2.0000      -0.527163       -14.3448
  46   2.0000      -0.517244       -14.0749
  47   2.0000      -0.513617       -13.9762
  48   2.0000      -0.507266       -13.8034
  49   2.0000      -0.497414       -13.5353
  50   2.0000      -0.492418       -13.3994
  51   2.0000      -0.478555       -13.0222
  52   2.0000      -0.473936       -12.8965
  53   2.0000      -0.462544       -12.5865
  54   2.0000      -0.461179       -12.5493
  55   2.0000      -0.452155       -12.3038
  56   2.0000      -0.440179       -11.9779
  57   2.0000      -0.439333       -11.9548
  58   2.0000      -0.431324       -11.7369
  59   2.0000      -0.429941       -11.6993
  60   2.0000      -0.423195       -11.5157
  61   2.0000      -0.415168       -11.2973
  62   2.0000      -0.408301       -11.1104
  63   2.0000      -0.353867        -9.6292
  64   2.0000      -0.332563        -9.0495
  65   2.0000      -0.321678        -8.7533
  66   2.0000      -0.280340        -7.6284
  67   0.0000       0.021457         0.5839
  68   0.0000       0.070114         1.9079
  69   0.0000       0.100591         2.7372
  70   0.0000       0.117011         3.1840
  71   0.0000       0.119369         3.2482

MULLIKEN ATOMIC CHARGES
-----------------------
   0 S :    0.091778
   1 C :   -0.141229
   2 C :   -0.069185
   3 C :    0.033529
   4 C :   -0.127787
   5 H :   -0.009518
   6 C :   -0.001747
   7 H :    0.042697
   8 H :    0.018179
   9 C :   -0.051237
  10 H :    0.024356
  11 H :    0.022753
  12 C :   -0.045946
  13 H :    0.027564
  14 H :    0.050155
  15 H :    0.047129
  16 S :    0.096880
  17 C :   -0.056073
  18 C :    0.025670
  19 C :   -0.061770
  20 C :   -0.117451
  21 H :   -0.015592
  22 C :   -0.004975
  23 H :    0.031565
  24 H :    0.026646
  25 C :   -0.022365
  26 H :    0.017580
  27 H :    0.014032
  28 C :   -0.028804
  29 H :    0.031869
  30 H :    0.030309
  31 H :    0.033966
  32 H :    0.053617
  33 H :    0.033402
Sum of atomic charges:    0.0000000

LOEWDIN ATOMIC CHARGES
----------------------
   0 S :    0.385004
   1 C :   -0.202997
   2 C :   -0.065849
   3 C :   -0.072710
   4 C :   -0.185295
   5 H :    0.019512
   6 C :   -0.047260
   7 H :    0.044932
   8 H :    0.029266
   9 C :   -0.038041
  10 H :    0.023907
  11 H :    0.020646
  12 C :   -0.064404
  13 H :    0.021047
  14 H :    0.036831
  15 H :    0.031318
  16 S :    0.391264
  17 C :   -0.164516
  18 C :   -0.055401
  19 C :   -0.041775
  20 C :   -0.178208
  21 H :    0.012487
  22 C :   -0.040924
  23 H :    0.035296
  24 H :    0.033080
  25 C :   -0.034361
  26 H :    0.019811
  27 H :    0.017554
  28 C :   -0.060266
  29 H :    0.023146
  30 H :    0.032754
  31 H :    0.026385
  32 H :    0.033836
  33 H :    0.013932

  Mayer bond orders larger than 0.100000
B(  0-S ,  1-C ) :   1.1157 B(  0-S ,  4-C ) :   1.1430 B(  1-C ,  2-C ) :   1.6455
B(  1-C , 32-H ) :   0.9643 B(  2-C ,  3-C ) :   1.2322 B(  2-C ,  6-C ) :   1.0126
B(  3-C ,  4-C ) :   1.5653 B(  3-C ,  5-H ) :   0.9815 B(  4-C , 20-C ) :   1.0707
B(  6-C ,  7-H ) :   0.9309 B(  6-C ,  8-H ) :   0.9456 B(  6-C ,  9-C ) :   1.0706
B(  9-C , 10-H ) :   0.9536 B(  9-C , 11-H ) :   0.9546 B(  9-C , 12-C ) :   1.0627
B( 12-C , 13-H ) :   0.9755 B( 12-C , 14-H ) :   0.9738 B( 12-C , 15-H ) :   0.9769
B( 16-S , 17-C ) :   1.1581 B( 16-S , 20-C ) :   1.1202 B( 17-C , 18-C ) :   1.6067
B( 17-C , 33-H ) :   0.9764 B( 18-C , 19-C ) :   1.2332 B( 18-C , 21-H ) :   0.9913
B( 19-C , 20-C ) :   1.5926 B( 19-C , 22-C ) :   1.0539 B( 22-C , 23-H ) :   0.9386
B( 22-C , 24-H ) :   0.9319 B( 22-C , 25-C ) :   1.0509 B( 25-C , 26-H ) :   0.9483
B( 25-C , 27-H ) :   0.9525 B( 25-C , 28-C ) :   1.1003 B( 28-C , 29-H ) :   0.9732
B( 28-C , 30-H ) :   0.9678 B( 28-C , 31-H ) :   0.9712

Dispersion correction           -0.014300775
FINAL SINGLE POINT ENERGY     -1339.853510700147

DIPOLE MOMENT
-------------
                                X             Y             Z
Electronic contribution:     14.25668      26.85449       5.75582
Nuclear contribution   :    -14.60588     -27.64819      -5.79400
                        -----------------------------------------
Total Dipole Moment    :     -0.34920      -0.79371      -0.03818
                        -----------------------------------------
Magnitude (a.u.)       :      0.86797
Magnitude (Debye)      :      2.20620

Rotational constants in cm-1:     0.016053     0.010137     0.006900
Rotational constants in MHz :   481.261212   303.898849   206.853306

                             ****ORCA TERMINATED NORMALLY****
TOTAL RUN TIME: 0 days 0 hours 0 minutes 30 seconds 783 msec
