                         Program Version 4.2.1 -  RELEASE  -
|  1> ! wB97X-D3 SP def2-SVP
|  2> %pal
|  3> nprocs 16
|  4> end
|  5>
|  6> * xyz 0 1
|  7> S 	 17.7357 	 31.3932 	 57.593
|  8> C 	 16.9396 	 30.3114 	 58.5684
|  9> C 	 15.6825 	 30.6765 	 59.0114
| 10> C 	 15.3918 	 31.9972 	 58.5339
| 11> C 	 16.4004 	 32.4994 	 57.7683
| 12> H 	 14.5131 	 32.5117 	 58.7319
| 13> C 	 14.7701 	 29.8679 	 59.9292
| 14> H 	 15.4169 	 29.2453 	 60.5203
| 15> H 	 14.1887 	 29.1731 	 59.2829
| 16> C 	 13.7029 	 30.605 	 60.7853
| 17> H 	 14.2054 	 31.4166 	 61.356
| 18> H 	 12.9079 	 31.0076 	 60.1262
| 19> C 	 12.9938 	 29.7236 	 61.7537
| 20> H 	 12.3267 	 30.3604 	 62.3162
| 21> H 	 12.409 	 28.9395 	 61.3261
| 22> H 	 13.6606 	 29.1917 	 62.4315
| 23> S 	 15.3294 	 34.0612 	 55.7831
| 24> C 	 15.9553 	 35.6909 	 55.4797
| 25> C 	 16.9123 	 36.0143 	 56.4257
| 26> C 	 16.9629 	 35.0823 	 57.554
| 27> C 	 16.3253 	 33.832 	 57.2109
| 28> H 	 17.3219 	 37.0153 	 56.3317
| 29> C 	 17.7295 	 35.2932 	 58.8051
| 30> H 	 18.3878 	 36.1083 	 58.6204
| 31> H 	 18.4013 	 34.4146 	 58.9736
| 32> C 	 16.8684 	 35.5143 	 60.0261
| 33> H 	 17.4802 	 35.7083 	 60.9503
| 34> H 	 16.2641 	 34.6841 	 60.1485
| 35> C 	 16.0668 	 36.8379 	 60.0631
| 36> H 	 16.7609 	 37.6691 	 59.8936
| 37> H 	 15.6377 	 37.0062 	 61.04
| 38> H 	 15.3095 	 36.8372 	 59.3105
| 39> H 	 17.1795 	 29.2605 	 58.7009
| 40> H 	 15.7854 	 36.2723 	 54.5738
| 41> *
| 42>
| 43>                          ****END OF INPUT****

CARTESIAN COORDINATES (ANGSTROEM)
---------------------------------
  S     17.735700   31.393200   57.593000
  C     16.939600   30.311400   58.568400
  C     15.682500   30.676500   59.011400
  C     15.391800   31.997200   58.533900
  C     16.400400   32.499400   57.768300
  H     14.513100   32.511700   58.731900
  C     14.770100   29.867900   59.929200
  H     15.416900   29.245300   60.520300
  H     14.188700   29.173100   59.282900
  C     13.702900   30.605000   60.785300
  H     14.205400   31.416600   61.356000
  H     12.907900   31.007600   60.126200
  C     12.993800   29.723600   61.753700
  H     12.326700   30.360400   62.316200
  H     12.409000   28.939500   61.326100
  H     13.660600   29.191700   62.431500
  S     15.329400   34.061200   55.783100
  C     15.955300   35.690900   55.479700
  C     16.912300   36.014300   56.425700
  C     16.962900   35.082300   57.554000
  C     16.325300   33.832000   57.210900
  H     17.321900   37.015300   56.331700
  C     17.729500   35.293200   58.805100
  H     18.387800   36.108300   58.620400
  H     18.401300   34.414600   58.973600
  C     16.868400   35.514300   60.026100
  H     17.480200   35.708300   60.950300
  H     16.264100   34.684100   60.148500
  C     16.066800   36.837900   60.063100
  H     16.760900   37.669100   59.893600
  H     15.637700   37.006200   61.040000
  H     15.309500   36.837200   59.310500
  H     17.179500   29.260500   58.700900
  H     15.785400   36.272300   54.573800

 Total Charge           Charge          ....    0
 Multiplicity           Mult            ....    1
 Number of Electrons    NEL             ....  134
 Basis Dimension        Dim             ....  322

ORBITAL ENERGIES
----------------

  NO   OCC          E(Eh)            E(eV)
   0   2.0000     -88.972107     -2421.0541
   1   2.0000     -88.961185     -2420.7569
   2   2.0000     -10.325706      -280.9767
   3   2.0000     -10.322033      -280.8768
   4   2.0000     -10.316446      -280.7248
   5   2.0000     -10.308337      -280.5041
   6   2.0000     -10.304975      -280.4126
   7   2.0000     -10.298235      -280.2292
   8   2.0000     -10.296226      -280.1746
   9   2.0000     -10.295686      -280.1599
  10   2.0000     -10.293207      -280.0924
  11   2.0000     -10.286605      -279.9128
  12   2.0000     -10.283602      -279.8310
  13   2.0000     -10.277409      -279.6625
  14   2.0000     -10.274628      -279.5868
  15   2.0000     -10.269302      -279.4419
  16   2.0000      -8.088147      -220.0897
  17   2.0000      -8.075420      -219.7433
  18   2.0000      -6.046456      -164.5324
  19   2.0000      -6.042472      -164.4240
  20   2.0000      -6.039039      -164.3306
  21   2.0000      -6.033899      -164.1907
  22   2.0000      -6.029844      -164.0804
  23   2.0000      -6.026396      -163.9866
  24   2.0000      -1.012408       -27.5490
  25   2.0000      -0.979277       -26.6475
  26   2.0000      -0.913728       -24.8638
  27   2.0000      -0.909009       -24.7354
  28   2.0000      -0.873701       -23.7746
  29   2.0000      -0.860776       -23.4229
  30   2.0000      -0.840772       -22.8786
  31   2.0000      -0.815957       -22.2033
  32   2.0000      -0.783692       -21.3253
  33   2.0000      -0.767380       -20.8815
  34   2.0000      -0.712231       -19.3808
  35   2.0000      -0.695363       -18.9218
  36   2.0000      -0.682629       -18.5753
  37   2.0000      -0.654758       -17.8169
  38   2.0000      -0.646550       -17.5935
  39   2.0000      -0.620852       -16.8942
  40   2.0000      -0.586032       -15.9467
  41   2.0000      -0.575533       -15.6610
  42   2.0000      -0.569653       -15.5011
  43   2.0000      -0.552973       -15.0472
  44   2.0000      -0.545911       -14.8550
  45   2.0000      -0.529654       -14.4126
  46   2.0000      -0.516901       -14.0656
  47   2.0000      -0.510229       -13.8840
  48   2.0000      -0.505598       -13.7580
  49   2.0000      -0.492813       -13.4101
  50   2.0000      -0.486201       -13.2302
  51   2.0000      -0.476442       -12.9646
  52   2.0000      -0.474967       -12.9245
  53   2.0000      -0.470915       -12.8142
  54   2.0000      -0.458314       -12.4714
  55   2.0000      -0.454761       -12.3747
  56   2.0000      -0.440783       -11.9943
  57   2.0000      -0.435524       -11.8512
  58   2.0000      -0.433678       -11.8010
  59   2.0000      -0.427627       -11.6363
  60   2.0000      -0.424589       -11.5537
  61   2.0000      -0.416291       -11.3278
  62   2.0000      -0.404064       -10.9951
  63   2.0000      -0.341092        -9.2816
  64   2.0000      -0.330189        -8.9849
  65   2.0000      -0.315917        -8.5965
  66   2.0000      -0.297553        -8.0968
  67   0.0000       0.040853         1.1117
  68   0.0000       0.054304         1.4777
  69   0.0000       0.114131         3.1057
  70   0.0000       0.121179         3.2974
  71   0.0000       0.132381         3.6023

MULLIKEN ATOMIC CHARGES
-----------------------
   0 S :    0.162190
   1 C :   -0.113041
   2 C :   -0.102081
   3 C :    0.046564
   4 C :   -0.150699
   5 H :   -0.010683
   6 C :    0.076151
   7 H :    0.015255
   8 H :    0.036245
   9 C :   -0.107517
  10 H :    0.041058
  11 H :    0.041587
  12 C :   -0.014497
  13 H :    0.031306
  14 H :    0.019655
  15 H :    0.023017
  16 S :    0.104169
  17 C :   -0.110668
  18 C :   -0.027905
  19 C :   -0.066285
  20 C :   -0.194366
  21 H :    0.027686
  22 C :    0.103735
  23 H :   -0.000668
  24 H :    0.038173
  25 C :   -0.060861
  26 H :    0.030875
  27 H :    0.017998
  28 C :   -0.047582
  29 H :    0.020437
  30 H :    0.030532
  31 H :    0.033021
  32 H :    0.041152
  33 H :    0.066050
Sum of atomic charges:    0.0000000

LOEWDIN ATOMIC CHARGES
----------------------
   0 S :    0.457585
   1 C :   -0.230508
   2 C :   -0.063582
   3 C :   -0.043815
   4 C :   -0.212977
   5 H :    0.020830
   6 C :   -0.035030
   7 H :    0.025545
   8 H :    0.037055
   9 C :   -0.044629
  10 H :    0.028786
  11 H :    0.029982
  12 C :   -0.060586
  13 H :    0.028966
  14 H :    0.020613
  15 H :    0.023775
  16 S :    0.396454
  17 C :   -0.188483
  18 C :   -0.075175
  19 C :   -0.050357
  20 C :   -0.201034
  21 H :    0.032980
  22 C :   -0.037806
  23 H :    0.023107
  24 H :    0.039452
  25 C :   -0.033380
  26 H :    0.031683
  27 H :    0.012323
  28 C :   -0.059841
  29 H :    0.023674
  30 H :    0.024280
  31 H :    0.017583
  32 H :    0.029169
  33 H :    0.033362

  Mayer bond orders larger than 0.100000
B(  0-S ,  1-C ) :   1.1633 B(  0-S ,  4-C ) :   1.1477 B(  1-C ,  2-C ) :   1.6212
B(  1-C , 32-H ) :   0.9555 B(  2-C ,  3-C ) :   1.2576 B(  2-C ,  6-C ) :   1.0093
B(  3-C ,  4-C ) :   1.5592 B(  3-C ,  5-H ) :   1.0060 B(  4-C , 20-C ) :   1.0415
B(  6-C ,  7-H ) :   0.9452 B(  6-C ,  8-H ) :   0.9263 B(  6-C ,  9-C ) :   1.0775
B(  9-C , 10-H ) :   0.9575 B(  9-C , 11-H ) :   0.9433 B(  9-C , 12-C ) :   1.0985
B( 12-C , 13-H ) :   0.9710 B( 12-C , 14-H ) :   0.9718 B( 12-C , 15-H ) :   0.9716
B( 16-S , 17-C ) :   1.1470 B( 16-S , 20-C ) :   1.1550 B( 17-C , 18-C ) :   1.6281
B( 17-C , 20-C ) :   0.1058 B( 17-C , 33-H ) :   0.9633 B( 18-C , 19-C ) :   1.2347
B( 18-C , 21-H ) :   0.9801 B( 19-C , 20-C ) :   1.5477 B( 19-C , 22-C ) :   1.0561
B( 22-C , 23-H ) :   0.9275 B( 22-C , 24-H ) :   0.9267 B( 22-C , 25-C ) :   1.0727
B( 25-C , 26-H ) :   0.9578 B( 25-C , 27-H ) :   0.9588 B( 25-C , 28-C ) :   1.0707
B( 28-C , 29-H ) :   0.9751 B( 28-C , 30-H ) :   0.9769 B( 28-C , 31-H ) :   0.9770

Dispersion correction           -0.014585067
FINAL SINGLE POINT ENERGY     -1339.871103143651

DIPOLE MOMENT
-------------
                                X             Y             Z
Electronic contribution:      9.68818      -2.14246     -23.94913
Nuclear contribution   :     -9.84565       2.07680      24.39141
                        -----------------------------------------
Total Dipole Moment    :     -0.15747      -0.06566       0.44228
                        -----------------------------------------
Magnitude (a.u.)       :      0.47404
Magnitude (Debye)      :      1.20491

Rotational constants in cm-1:     0.018482     0.008267     0.007269
Rotational constants in MHz :   554.070824   247.851018   217.931417

                             ****ORCA TERMINATED NORMALLY****
TOTAL RUN TIME: 0 days 0 hours 0 minutes 33 seconds 777 msec
