                         Program Version 4.2.1 -  RELEASE  -
|  1> ! wB97X-D3 SP def2-SVP
|  2> %pal
|  3> nprocs 16
|  4> end
|  5>
|  6> * xyz 0 1
|  7> S 	 1.00007 	 -13.3921 	 69.097
|  8> C 	 2.20917 	 -13.8442 	 67.9215
|  9> C 	 2.83553 	 -15.0038 	 68.298
| 10> C 	 2.52936 	 -15.4082 	 69.6355
| 11> C 	 1.71091 	 -14.5008 	 70.2662
| 12> H 	 2.85913 	 -16.3561 	 70.0438
| 13> C 	 3.66245 	 -15.9495 	 67.445
| 14> H 	 4.19711 	 -16.6662 	 68.0809
| 15> H 	 4.47668 	 -15.4597 	 66.9407
| 16> C 	 2.90996 	 -16.7784 	 66.4399
| 17> H 	 2.09059 	 -17.2651 	 66.9879
| 18> H 	 2.23936 	 -16.2244 	 65.7325
| 19> C 	 3.76321 	 -17.9011 	 65.7533
| 20> H 	 4.5114 	 -17.5486 	 65.0608
| 21> H 	 4.50361 	 -18.2714 	 66.4275
| 22> H 	 3.21656 	 -18.7014 	 65.2489
| 23> S 	 -0.609999 	 -14.0339 	 71.6782
| 24> C 	 -0.575728 	 -14.1453 	 73.4226
| 25> C 	 0.7005 	 -14.3733 	 73.9134
| 26> C 	 1.70865 	 -14.4834 	 72.8466
| 27> C 	 1.09854 	 -14.4224 	 71.5853
| 28> H 	 0.870142 	 -14.4494 	 74.9919
| 29> C 	 3.11647 	 -14.7881 	 73.1192
| 30> H 	 3.28963 	 -15.8031 	 72.9586
| 31> H 	 3.16819 	 -14.4975 	 74.2385
| 32> C 	 4.20583 	 -13.9203 	 72.4334
| 33> H 	 3.88141 	 -12.9078 	 72.6586
| 34> H 	 4.20739 	 -14.0049 	 71.3305
| 35> C 	 5.63474 	 -14.1707 	 72.8931
| 36> H 	 5.97027 	 -15.1941 	 72.6747
| 37> H 	 5.81848 	 -13.9802 	 73.9779
| 38> H 	 6.35443 	 -13.5238 	 72.4131
| 39> H 	 2.23817 	 -13.3972 	 66.9064
| 40> H 	 -1.40765 	 -14.2891 	 74.0787
| 41> *
| 42>
| 43>                          ****END OF INPUT****

CARTESIAN COORDINATES (ANGSTROEM)
---------------------------------
  S      1.000070  -13.392100   69.097000
  C      2.209170  -13.844200   67.921500
  C      2.835530  -15.003800   68.298000
  C      2.529360  -15.408200   69.635500
  C      1.710910  -14.500800   70.266200
  H      2.859130  -16.356100   70.043800
  C      3.662450  -15.949500   67.445000
  H      4.197110  -16.666200   68.080900
  H      4.476680  -15.459700   66.940700
  C      2.909960  -16.778400   66.439900
  H      2.090590  -17.265100   66.987900
  H      2.239360  -16.224400   65.732500
  C      3.763210  -17.901100   65.753300
  H      4.511400  -17.548600   65.060800
  H      4.503610  -18.271400   66.427500
  H      3.216560  -18.701400   65.248900
  S     -0.609999  -14.033900   71.678200
  C     -0.575728  -14.145300   73.422600
  C      0.700500  -14.373300   73.913400
  C      1.708650  -14.483400   72.846600
  C      1.098540  -14.422400   71.585300
  H      0.870142  -14.449400   74.991900
  C      3.116470  -14.788100   73.119200
  H      3.289630  -15.803100   72.958600
  H      3.168190  -14.497500   74.238500
  C      4.205830  -13.920300   72.433400
  H      3.881410  -12.907800   72.658600
  H      4.207390  -14.004900   71.330500
  C      5.634740  -14.170700   72.893100
  H      5.970270  -15.194100   72.674700
  H      5.818480  -13.980200   73.977900
  H      6.354430  -13.523800   72.413100
  H      2.238170  -13.397200   66.906400
  H     -1.407650  -14.289100   74.078700

 Total Charge           Charge          ....    0
 Multiplicity           Mult            ....    1
 Number of Electrons    NEL             ....  134
 Basis Dimension        Dim             ....  322

ORBITAL ENERGIES
----------------

  NO   OCC          E(Eh)            E(eV)
   0   2.0000     -88.968484     -2420.9555
   1   2.0000     -88.963874     -2420.8301
   2   2.0000     -10.331899      -281.1453
   3   2.0000     -10.327465      -281.0246
   4   2.0000     -10.316082      -280.7149
   5   2.0000     -10.315280      -280.6930
   6   2.0000     -10.305267      -280.4206
   7   2.0000     -10.301975      -280.3310
   8   2.0000     -10.299850      -280.2732
   9   2.0000     -10.296457      -280.1808
  10   2.0000     -10.291399      -280.0432
  11   2.0000     -10.291027      -280.0331
  12   2.0000     -10.290535      -280.0197
  13   2.0000     -10.283085      -279.8170
  14   2.0000     -10.279037      -279.7068
  15   2.0000     -10.277529      -279.6658
  16   2.0000      -8.083073      -219.9516
  17   2.0000      -8.079065      -219.8425
  18   2.0000      -6.041717      -164.4035
  19   2.0000      -6.037677      -164.2935
  20   2.0000      -6.037629      -164.2922
  21   2.0000      -6.033768      -164.1872
  22   2.0000      -6.033628      -164.1834
  23   2.0000      -6.029468      -164.0702
  24   2.0000      -1.009328       -27.4652
  25   2.0000      -0.983182       -26.7537
  26   2.0000      -0.912955       -24.8428
  27   2.0000      -0.909140       -24.7390
  28   2.0000      -0.868606       -23.6360
  29   2.0000      -0.852739       -23.2042
  30   2.0000      -0.845887       -23.0178
  31   2.0000      -0.816018       -22.2050
  32   2.0000      -0.784513       -21.3477
  33   2.0000      -0.770679       -20.9713
  34   2.0000      -0.709336       -19.3020
  35   2.0000      -0.709217       -19.2988
  36   2.0000      -0.687621       -18.7111
  37   2.0000      -0.663839       -18.0640
  38   2.0000      -0.640041       -17.4164
  39   2.0000      -0.626483       -17.0475
  40   2.0000      -0.594131       -16.1671
  41   2.0000      -0.567254       -15.4358
  42   2.0000      -0.565480       -15.3875
  43   2.0000      -0.546890       -14.8816
  44   2.0000      -0.529317       -14.4035
  45   2.0000      -0.522533       -14.2189
  46   2.0000      -0.518583       -14.1114
  47   2.0000      -0.513575       -13.9751
  48   2.0000      -0.503502       -13.7010
  49   2.0000      -0.499248       -13.5852
  50   2.0000      -0.493846       -13.4382
  51   2.0000      -0.479445       -13.0464
  52   2.0000      -0.471269       -12.8239
  53   2.0000      -0.464506       -12.6398
  54   2.0000      -0.455234       -12.3876
  55   2.0000      -0.453196       -12.3321
  56   2.0000      -0.449043       -12.2191
  57   2.0000      -0.444341       -12.0911
  58   2.0000      -0.431916       -11.7530
  59   2.0000      -0.425530       -11.5793
  60   2.0000      -0.422735       -11.5032
  61   2.0000      -0.408782       -11.1235
  62   2.0000      -0.401645       -10.9293
  63   2.0000      -0.353118        -9.6088
  64   2.0000      -0.333402        -9.0723
  65   2.0000      -0.327366        -8.9081
  66   2.0000      -0.285546        -7.7701
  67   0.0000       0.022884         0.6227
  68   0.0000       0.062270         1.6944
  69   0.0000       0.094417         2.5692
  70   0.0000       0.120433         3.2771
  71   0.0000       0.134887         3.6705

MULLIKEN ATOMIC CHARGES
-----------------------
   0 S :    0.085399
   1 C :   -0.122706
   2 C :   -0.089001
   3 C :    0.022248
   4 C :   -0.128713
   5 H :    0.016829
   6 C :    0.075760
   7 H :    0.009353
   8 H :    0.022171
   9 C :   -0.072638
  10 H :    0.017676
  11 H :    0.028429
  12 C :   -0.028908
  13 H :    0.015142
  14 H :    0.007219
  15 H :    0.049006
  16 S :    0.106510
  17 C :   -0.072121
  18 C :   -0.049191
  19 C :   -0.042842
  20 C :   -0.138225
  21 H :    0.028609
  22 C :    0.048689
  23 H :    0.031177
  24 H :    0.031443
  25 C :   -0.089141
  26 H :    0.025173
  27 H :    0.054217
  28 C :   -0.040502
  29 H :    0.025717
  30 H :    0.027894
  31 H :    0.029836
  32 H :    0.061820
  33 H :    0.053672
Sum of atomic charges:   -0.0000000

LOEWDIN ATOMIC CHARGES
----------------------
   0 S :    0.397383
   1 C :   -0.199663
   2 C :   -0.063279
   3 C :   -0.063825
   4 C :   -0.172669
   5 H :    0.033201
   6 C :   -0.033795
   7 H :    0.029125
   8 H :    0.027098
   9 C :   -0.047253
  10 H :    0.024854
  11 H :    0.026345
  12 C :   -0.072406
  13 H :    0.024701
  14 H :    0.022755
  15 H :    0.031756
  16 S :    0.400181
  17 C :   -0.188639
  18 C :   -0.067309
  19 C :   -0.057435
  20 C :   -0.199892
  21 H :    0.034273
  22 C :   -0.035445
  23 H :    0.023139
  24 H :    0.044598
  25 C :   -0.043692
  26 H :    0.025193
  27 H :    0.029232
  28 C :   -0.069491
  29 H :    0.024088
  30 H :    0.025869
  31 H :    0.026343
  32 H :    0.035452
  33 H :    0.029206

  Mayer bond orders larger than 0.100000
B(  0-S ,  1-C ) :   1.1290 B(  0-S ,  4-C ) :   1.1501 B(  1-C ,  2-C ) :   1.6203
B(  1-C , 32-H ) :   0.9680 B(  2-C ,  3-C ) :   1.2349 B(  2-C ,  6-C ) :   1.0261
B(  3-C ,  4-C ) :   1.5552 B(  3-C ,  5-H ) :   1.0024 B(  4-C , 20-C ) :   1.0556
B(  6-C ,  7-H ) :   0.9371 B(  6-C ,  8-H ) :   0.9380 B(  6-C ,  9-C ) :   1.0601
B(  9-C , 10-H ) :   0.9516 B(  9-C , 11-H ) :   0.9560 B(  9-C , 12-C ) :   1.0676
B( 12-C , 13-H ) :   0.9702 B( 12-C , 14-H ) :   0.9681 B( 12-C , 15-H ) :   0.9776
B( 16-S , 17-C ) :   1.1375 B( 16-S , 20-C ) :   1.1324 B( 17-C , 18-C ) :   1.6429
B( 17-C , 33-H ) :   0.9629 B( 18-C , 19-C ) :   1.2251 B( 18-C , 21-H ) :   0.9811
B( 19-C , 20-C ) :   1.5877 B( 19-C , 22-C ) :   1.0461 B( 22-C , 23-H ) :   0.9333
B( 22-C , 24-H ) :   0.9343 B( 22-C , 25-C ) :   1.0556 B( 25-C , 26-H ) :   0.9560
B( 25-C , 27-H ) :   0.9494 B( 25-C , 28-C ) :   1.0925 B( 28-C , 29-H ) :   0.9725
B( 28-C , 30-H ) :   0.9729 B( 28-C , 31-H ) :   0.9725

Dispersion correction           -0.014199405
FINAL SINGLE POINT ENERGY     -1339.867198689821

DIPOLE MOMENT
-------------
                                X             Y             Z
Electronic contribution:    -24.44976      12.84073       5.90460
Nuclear contribution   :     24.87405     -13.30456      -5.85958
                        -----------------------------------------
Total Dipole Moment    :      0.42429      -0.46382       0.04503
                        -----------------------------------------
Magnitude (a.u.)       :      0.63022
Magnitude (Debye)      :      1.60189

Rotational constants in cm-1:     0.018906     0.008366     0.006659
Rotational constants in MHz :   566.776140   250.807079   199.628112

                             ****ORCA TERMINATED NORMALLY****
TOTAL RUN TIME: 0 days 0 hours 0 minutes 33 seconds 426 msec
