                         Program Version 4.2.1 -  RELEASE  -
|  1> ! wB97X-D3 SP def2-SVP
|  2> %pal
|  3> nprocs 16
|  4> end
|  5>
|  6> * xyz 0 1
|  7> S 	 -64.8421 	 52.2675 	 123.045
|  8> C 	 -65.9606 	 51.1936 	 123.825
|  9> C 	 -66.0625 	 49.9561 	 123.203
| 10> C 	 -65.2676 	 49.9134 	 122.022
| 11> C 	 -64.6797 	 51.1238 	 121.754
| 12> H 	 -65.2241 	 49.0105 	 121.451
| 13> C 	 -67.0468 	 48.8802 	 123.653
| 14> H 	 -67.6868 	 48.4457 	 122.866
| 15> H 	 -67.7513 	 49.2293 	 124.405
| 16> C 	 -66.2824 	 47.7896 	 124.327
| 17> H 	 -65.9985 	 47.2412 	 123.434
| 18> H 	 -65.4549 	 48.1808 	 124.951
| 19> C 	 -67.1266 	 46.8447 	 125.174
| 20> H 	 -67.5109 	 47.4424 	 126.057
| 21> H 	 -67.9708 	 46.3912 	 124.585
| 22> H 	 -66.4407 	 46.0705 	 125.587
| 23> S 	 -62.0613 	 51.7566 	 120.935
| 24> C 	 -61.715 	 51.9241 	 119.295
| 25> C 	 -62.8965 	 51.8928 	 118.538
| 26> C 	 -64.0142 	 51.4783 	 119.284
| 27> C 	 -63.7575 	 51.3767 	 120.637
| 28> H 	 -62.8505 	 51.9914 	 117.444
| 29> C 	 -65.3567 	 51.2399 	 118.587
| 30> H 	 -65.3738 	 51.8997 	 117.719
| 31> H 	 -66.1897 	 51.6656 	 119.13
| 32> C 	 -65.5847 	 49.8098 	 118.201
| 33> H 	 -65.1717 	 49.1857 	 118.989
| 34> H 	 -65.0492 	 49.5768 	 117.305
| 35> C 	 -67.0167 	 49.2749 	 118.023
| 36> H 	 -67.126 	 48.2074 	 118.062
| 37> H 	 -67.504 	 49.631 	 117.065
| 38> H 	 -67.6879 	 49.712 	 118.858
| 39> H 	 -66.4991 	 51.4328 	 124.764
| 40> H 	 -60.7775 	 52.4454 	 118.954
| 41> *
| 42>
| 43>                          ****END OF INPUT****

CARTESIAN COORDINATES (ANGSTROEM)
---------------------------------
  S    -64.842100   52.267500  123.045000
  C    -65.960600   51.193600  123.825000
  C    -66.062500   49.956100  123.203000
  C    -65.267600   49.913400  122.022000
  C    -64.679700   51.123800  121.754000
  H    -65.224100   49.010500  121.451000
  C    -67.046800   48.880200  123.653000
  H    -67.686800   48.445700  122.866000
  H    -67.751300   49.229300  124.405000
  C    -66.282400   47.789600  124.327000
  H    -65.998500   47.241200  123.434000
  H    -65.454900   48.180800  124.951000
  C    -67.126600   46.844700  125.174000
  H    -67.510900   47.442400  126.057000
  H    -67.970800   46.391200  124.585000
  H    -66.440700   46.070500  125.587000
  S    -62.061300   51.756600  120.935000
  C    -61.715000   51.924100  119.295000
  C    -62.896500   51.892800  118.538000
  C    -64.014200   51.478300  119.284000
  C    -63.757500   51.376700  120.637000
  H    -62.850500   51.991400  117.444000
  C    -65.356700   51.239900  118.587000
  H    -65.373800   51.899700  117.719000
  H    -66.189700   51.665600  119.130000
  C    -65.584700   49.809800  118.201000
  H    -65.171700   49.185700  118.989000
  H    -65.049200   49.576800  117.305000
  C    -67.016700   49.274900  118.023000
  H    -67.126000   48.207400  118.062000
  H    -67.504000   49.631000  117.065000
  H    -67.687900   49.712000  118.858000
  H    -66.499100   51.432800  124.764000
  H    -60.777500   52.445400  118.954000

 Total Charge           Charge          ....    0
 Multiplicity           Mult            ....    1
 Number of Electrons    NEL             ....  134
 Basis Dimension        Dim             ....  322

ORBITAL ENERGIES
----------------

  NO   OCC          E(Eh)            E(eV)
   0   2.0000     -88.970491     -2421.0101
   1   2.0000     -88.964516     -2420.8476
   2   2.0000     -10.328599      -281.0555
   3   2.0000     -10.323938      -280.9286
   4   2.0000     -10.315588      -280.7014
   5   2.0000     -10.314695      -280.6771
   6   2.0000     -10.300807      -280.2992
   7   2.0000     -10.299733      -280.2700
   8   2.0000     -10.293963      -280.1130
   9   2.0000     -10.292606      -280.0760
  10   2.0000     -10.290507      -280.0189
  11   2.0000     -10.287869      -279.9471
  12   2.0000     -10.286906      -279.9209
  13   2.0000     -10.285849      -279.8922
  14   2.0000     -10.281087      -279.7626
  15   2.0000     -10.280297      -279.7411
  16   2.0000      -8.085634      -220.0213
  17   2.0000      -8.080287      -219.8758
  18   2.0000      -6.043982      -164.4651
  19   2.0000      -6.040183      -164.3617
  20   2.0000      -6.038569      -164.3178
  21   2.0000      -6.036455      -164.2603
  22   2.0000      -6.034503      -164.2072
  23   2.0000      -6.031369      -164.1219
  24   2.0000      -1.011457       -27.5232
  25   2.0000      -0.990632       -26.9565
  26   2.0000      -0.921267       -25.0689
  27   2.0000      -0.910822       -24.7847
  28   2.0000      -0.865888       -23.5620
  29   2.0000      -0.853571       -23.2269
  30   2.0000      -0.849187       -23.1076
  31   2.0000      -0.809674       -22.0324
  32   2.0000      -0.783799       -21.3283
  33   2.0000      -0.771365       -20.9899
  34   2.0000      -0.701301       -19.0834
  35   2.0000      -0.693049       -18.8588
  36   2.0000      -0.682715       -18.5776
  37   2.0000      -0.659506       -17.9461
  38   2.0000      -0.641514       -17.4565
  39   2.0000      -0.627761       -17.0822
  40   2.0000      -0.599043       -16.3008
  41   2.0000      -0.583001       -15.8643
  42   2.0000      -0.563183       -15.3250
  43   2.0000      -0.555069       -15.1042
  44   2.0000      -0.525814       -14.3081
  45   2.0000      -0.523584       -14.2474
  46   2.0000      -0.517442       -14.0803
  47   2.0000      -0.511097       -13.9077
  48   2.0000      -0.503886       -13.7114
  49   2.0000      -0.498409       -13.5624
  50   2.0000      -0.491500       -13.3744
  51   2.0000      -0.476783       -12.9739
  52   2.0000      -0.471008       -12.8168
  53   2.0000      -0.465205       -12.6589
  54   2.0000      -0.460508       -12.5311
  55   2.0000      -0.455034       -12.3821
  56   2.0000      -0.440900       -11.9975
  57   2.0000      -0.438641       -11.9360
  58   2.0000      -0.432912       -11.7801
  59   2.0000      -0.424921       -11.5627
  60   2.0000      -0.421383       -11.4664
  61   2.0000      -0.409083       -11.1317
  62   2.0000      -0.405327       -11.0295
  63   2.0000      -0.341778        -9.3002
  64   2.0000      -0.335593        -9.1320
  65   2.0000      -0.328020        -8.9259
  66   2.0000      -0.298656        -8.1268
  67   0.0000       0.035618         0.9692
  68   0.0000       0.061470         1.6727
  69   0.0000       0.115596         3.1455
  70   0.0000       0.123977         3.3736
  71   0.0000       0.130204         3.5430

MULLIKEN ATOMIC CHARGES
-----------------------
   0 S :    0.129227
   1 C :   -0.135982
   2 C :   -0.080974
   3 C :    0.046759
   4 C :   -0.146372
   5 H :    0.007261
   6 C :    0.072427
   7 H :    0.034264
   8 H :    0.002388
   9 C :   -0.117262
  10 H :    0.023789
  11 H :    0.048920
  12 C :   -0.062974
  13 H :    0.037272
  14 H :    0.040672
  15 H :    0.046331
  16 S :    0.118700
  17 C :   -0.117599
  18 C :   -0.055762
  19 C :   -0.044588
  20 C :   -0.177810
  21 H :    0.029561
  22 C :    0.107194
  23 H :    0.010778
  24 H :    0.019812
  25 C :   -0.042883
  26 H :    0.023181
  27 H :    0.021916
  28 C :   -0.086855
  29 H :    0.037220
  30 H :    0.035776
  31 H :    0.035659
  32 H :    0.055877
  33 H :    0.084077
Sum of atomic charges:    0.0000000

LOEWDIN ATOMIC CHARGES
----------------------
   0 S :    0.423938
   1 C :   -0.205090
   2 C :   -0.058049
   3 C :   -0.051548
   4 C :   -0.197835
   5 H :    0.028837
   6 C :   -0.033287
   7 H :    0.031712
   8 H :    0.022011
   9 C :   -0.052065
  10 H :    0.022954
  11 H :    0.031074
  12 C :   -0.072878
  13 H :    0.027604
  14 H :    0.029019
  15 H :    0.031690
  16 S :    0.432159
  17 C :   -0.222841
  18 C :   -0.078181
  19 C :   -0.054852
  20 C :   -0.202923
  21 H :    0.034024
  22 C :   -0.029081
  23 H :    0.029880
  24 H :    0.029671
  25 C :   -0.043958
  26 H :    0.023746
  27 H :    0.022685
  28 C :   -0.073359
  29 H :    0.022516
  30 H :    0.026402
  31 H :    0.031211
  32 H :    0.032534
  33 H :    0.042283

  Mayer bond orders larger than 0.100000
B(  0-S ,  1-C ) :   1.1442 B(  0-S ,  4-C ) :   1.1617 B(  1-C ,  2-C ) :   1.6142
B(  1-C , 32-H ) :   0.9598 B(  2-C ,  3-C ) :   1.2542 B(  2-C ,  6-C ) :   1.0265
B(  3-C ,  4-C ) :   1.5662 B(  3-C ,  5-H ) :   0.9966 B(  4-C , 20-C ) :   1.0196
B(  6-C ,  7-H ) :   0.9455 B(  6-C ,  8-H ) :   0.9437 B(  6-C ,  9-C ) :   1.0395
B(  9-C , 10-H ) :   0.9565 B(  9-C , 11-H ) :   0.9585 B(  9-C , 12-C ) :   1.0948
B( 12-C , 13-H ) :   0.9729 B( 12-C , 14-H ) :   0.9694 B( 12-C , 15-H ) :   0.9736
B( 16-S , 17-C ) :   1.1957 B( 16-S , 20-C ) :   1.1591 B( 17-C , 18-C ) :   1.5606
B( 17-C , 20-C ) :   0.1048 B( 17-C , 33-H ) :   0.9548 B( 18-C , 19-C ) :   1.3003
B( 18-C , 21-H ) :   0.9826 B( 19-C , 20-C ) :   1.5745 B( 19-C , 22-C ) :   1.0436
B( 22-C , 23-H ) :   0.9291 B( 22-C , 24-H ) :   0.9308 B( 22-C , 25-C ) :   1.0580
B( 25-C , 26-H ) :   0.9584 B( 25-C , 27-H ) :   0.9486 B( 25-C , 28-C ) :   1.0813
B( 28-C , 29-H ) :   0.9764 B( 28-C , 30-H ) :   0.9755 B( 28-C , 31-H ) :   0.9743

Dispersion correction           -0.014199005
FINAL SINGLE POINT ENERGY     -1339.878800874661

DIPOLE MOMENT
-------------
                                X             Y             Z
Electronic contribution:     20.05794      21.30607       3.07074
Nuclear contribution   :    -20.42818     -21.61913      -3.20376
                        -----------------------------------------
Total Dipole Moment    :     -0.37024      -0.31305      -0.13301
                        -----------------------------------------
Magnitude (a.u.)       :      0.50276
Magnitude (Debye)      :      1.27792

Rotational constants in cm-1:     0.018448     0.008521     0.006711
Rotational constants in MHz :   553.046394   255.451037   201.179129

                             ****ORCA TERMINATED NORMALLY****
TOTAL RUN TIME: 0 days 0 hours 0 minutes 32 seconds 485 msec
