                         Program Version 4.2.1 -  RELEASE  -
|  1> ! wB97X-D3 SP def2-SVP
|  2> %pal
|  3> nprocs 16
|  4> end
|  5>
|  6> * xyz 0 1
|  7> S 	 -49.8089 	 37.8261 	 81.2478
|  8> C 	 -49.3832 	 37.4925 	 79.6335
|  9> C 	 -49.4119 	 38.665 	 78.8949
| 10> C 	 -49.868 	 39.79 	 79.5717
| 11> C 	 -50.2106 	 39.5041 	 80.888
| 12> H 	 -49.9754 	 40.856 	 79.3564
| 13> C 	 -49.0004 	 38.8463 	 77.4182
| 14> H 	 -48.0205 	 39.0329 	 77.4071
| 15> H 	 -49.58 	 39.6378 	 77.0046
| 16> C 	 -49.3003 	 37.608 	 76.4752
| 17> H 	 -49.157 	 37.9609 	 75.4787
| 18> H 	 -48.6469 	 36.8254 	 76.6236
| 19> C 	 -50.768 	 37.1214 	 76.4545
| 20> H 	 -50.9583 	 36.8193 	 77.4902
| 21> H 	 -51.4398 	 37.93 	 76.2931
| 22> H 	 -51.0304 	 36.2559 	 75.8068
| 23> S 	 -50.1016 	 40.0263 	 83.5892
| 24> C 	 -51.1906 	 41.2237 	 84.2385
| 25> C 	 -51.6062 	 42.1328 	 83.2337
| 26> C 	 -51.3431 	 41.6156 	 81.9353
| 27> C 	 -50.6396 	 40.4074 	 81.9573
| 28> H 	 -52.1953 	 43.0175 	 83.4266
| 29> C 	 -51.9934 	 42.3604 	 80.7438
| 30> H 	 -51.1959 	 42.7071 	 80.0197
| 31> H 	 -52.4529 	 43.357 	 81.154
| 32> C 	 -53.0176 	 41.493 	 79.9796
| 33> H 	 -52.4827 	 40.6771 	 79.4336
| 34> H 	 -53.53 	 41.9515 	 79.1656
| 35> C 	 -54.1379 	 41.0015 	 80.8577
| 36> H 	 -54.4417 	 41.6504 	 81.5414
| 37> H 	 -53.8057 	 40.1009 	 81.3901
| 38> H 	 -55.0362 	 40.6217 	 80.3057
| 39> H 	 -49.1441 	 36.4961 	 79.3097
| 40> H 	 -51.2625 	 41.4584 	 85.3434
| 41> *
| 42>
| 43>                          ****END OF INPUT****

CARTESIAN COORDINATES (ANGSTROEM)
---------------------------------
  S    -49.808900   37.826100   81.247800
  C    -49.383200   37.492500   79.633500
  C    -49.411900   38.665000   78.894900
  C    -49.868000   39.790000   79.571700
  C    -50.210600   39.504100   80.888000
  H    -49.975400   40.856000   79.356400
  C    -49.000400   38.846300   77.418200
  H    -48.020500   39.032900   77.407100
  H    -49.580000   39.637800   77.004600
  C    -49.300300   37.608000   76.475200
  H    -49.157000   37.960900   75.478700
  H    -48.646900   36.825400   76.623600
  C    -50.768000   37.121400   76.454500
  H    -50.958300   36.819300   77.490200
  H    -51.439800   37.930000   76.293100
  H    -51.030400   36.255900   75.806800
  S    -50.101600   40.026300   83.589200
  C    -51.190600   41.223700   84.238500
  C    -51.606200   42.132800   83.233700
  C    -51.343100   41.615600   81.935300
  C    -50.639600   40.407400   81.957300
  H    -52.195300   43.017500   83.426600
  C    -51.993400   42.360400   80.743800
  H    -51.195900   42.707100   80.019700
  H    -52.452900   43.357000   81.154000
  C    -53.017600   41.493000   79.979600
  H    -52.482700   40.677100   79.433600
  H    -53.530000   41.951500   79.165600
  C    -54.137900   41.001500   80.857700
  H    -54.441700   41.650400   81.541400
  H    -53.805700   40.100900   81.390100
  H    -55.036200   40.621700   80.305700
  H    -49.144100   36.496100   79.309700
  H    -51.262500   41.458400   85.343400

 Total Charge           Charge          ....    0
 Multiplicity           Mult            ....    1
 Number of Electrons    NEL             ....  134
 Basis Dimension        Dim             ....  322

ORBITAL ENERGIES
----------------

  NO   OCC          E(Eh)            E(eV)
   0   2.0000     -88.970220     -2421.0028
   1   2.0000     -88.966055     -2420.8894
   2   2.0000     -10.331703      -281.1399
   3   2.0000     -10.330700      -281.1126
   4   2.0000     -10.324396      -280.9411
   5   2.0000     -10.312850      -280.6269
   6   2.0000     -10.310542      -280.5641
   7   2.0000     -10.307105      -280.4706
   8   2.0000     -10.301588      -280.3205
   9   2.0000     -10.298436      -280.2347
  10   2.0000     -10.292637      -280.0769
  11   2.0000     -10.284183      -279.8468
  12   2.0000     -10.282089      -279.7899
  13   2.0000     -10.279409      -279.7169
  14   2.0000     -10.273232      -279.5489
  15   2.0000     -10.261120      -279.2193
  16   2.0000      -8.084709      -219.9961
  17   2.0000      -8.081414      -219.9064
  18   2.0000      -6.043204      -164.4439
  19   2.0000      -6.039732      -164.3495
  20   2.0000      -6.039371      -164.3397
  21   2.0000      -6.035737      -164.2407
  22   2.0000      -6.035387      -164.2312
  23   2.0000      -6.032437      -164.1509
  24   2.0000      -1.011044       -27.5119
  25   2.0000      -0.987374       -26.8678
  26   2.0000      -0.908322       -24.7167
  27   2.0000      -0.906109       -24.6565
  28   2.0000      -0.867238       -23.5987
  29   2.0000      -0.856319       -23.3016
  30   2.0000      -0.847464       -23.0607
  31   2.0000      -0.808988       -22.0137
  32   2.0000      -0.783670       -21.3247
  33   2.0000      -0.773402       -21.0453
  34   2.0000      -0.709306       -19.3012
  35   2.0000      -0.705102       -19.1868
  36   2.0000      -0.685805       -18.6617
  37   2.0000      -0.669022       -18.2050
  38   2.0000      -0.646761       -17.5992
  39   2.0000      -0.607987       -16.5442
  40   2.0000      -0.585461       -15.9312
  41   2.0000      -0.576132       -15.6774
  42   2.0000      -0.562739       -15.3129
  43   2.0000      -0.551676       -15.0119
  44   2.0000      -0.547659       -14.9026
  45   2.0000      -0.534474       -14.5438
  46   2.0000      -0.523137       -14.2353
  47   2.0000      -0.505536       -13.7563
  48   2.0000      -0.502865       -13.6836
  49   2.0000      -0.495738       -13.4897
  50   2.0000      -0.488677       -13.2976
  51   2.0000      -0.482013       -13.1162
  52   2.0000      -0.472451       -12.8560
  53   2.0000      -0.468795       -12.7566
  54   2.0000      -0.455833       -12.4038
  55   2.0000      -0.450231       -12.2514
  56   2.0000      -0.445408       -12.1202
  57   2.0000      -0.436628       -11.8812
  58   2.0000      -0.435385       -11.8474
  59   2.0000      -0.428090       -11.6489
  60   2.0000      -0.419083       -11.4038
  61   2.0000      -0.405972       -11.0470
  62   2.0000      -0.403326       -10.9750
  63   2.0000      -0.357536        -9.7290
  64   2.0000      -0.335067        -9.1176
  65   2.0000      -0.333141        -9.0652
  66   2.0000      -0.280497        -7.6327
  67   0.0000       0.014814         0.4031
  68   0.0000       0.076777         2.0892
  69   0.0000       0.094432         2.5696
  70   0.0000       0.123803         3.3688
  71   0.0000       0.137559         3.7432

MULLIKEN ATOMIC CHARGES
-----------------------
   0 S :    0.105898
   1 C :   -0.113656
   2 C :   -0.098089
   3 C :    0.018211
   4 C :   -0.162477
   5 H :    0.010295
   6 C :    0.145151
   7 H :    0.015441
   8 H :    0.017950
   9 C :   -0.071097
  10 H :    0.019825
  11 H :    0.014477
  12 C :   -0.056978
  13 H :    0.020627
  14 H :    0.020644
  15 H :    0.046550
  16 S :    0.112649
  17 C :   -0.116229
  18 C :   -0.039012
  19 C :   -0.043321
  20 C :   -0.130357
  21 H :    0.023595
  22 C :   -0.004002
  23 H :    0.049688
  24 H :    0.039539
  25 C :   -0.054780
  26 H :    0.035533
  27 H :    0.017147
  28 C :   -0.015928
  29 H :   -0.003519
  30 H :    0.034524
  31 H :    0.030807
  32 H :    0.050519
  33 H :    0.080371
Sum of atomic charges:    0.0000000

LOEWDIN ATOMIC CHARGES
----------------------
   0 S :    0.422683
   1 C :   -0.212415
   2 C :   -0.063367
   3 C :   -0.071235
   4 C :   -0.185185
   5 H :    0.037997
   6 C :   -0.003915
   7 H :    0.016785
   8 H :    0.027200
   9 C :   -0.031828
  10 H :    0.021649
  11 H :    0.008983
  12 C :   -0.068872
  13 H :    0.022709
  14 H :    0.019297
  15 H :    0.031603
  16 S :    0.409153
  17 C :   -0.199041
  18 C :   -0.067942
  19 C :   -0.062533
  20 C :   -0.193598
  21 H :    0.030504
  22 C :   -0.035919
  23 H :    0.032148
  24 H :    0.038550
  25 C :   -0.049033
  26 H :    0.030550
  27 H :    0.020095
  28 C :   -0.058331
  29 H :    0.002301
  30 H :    0.031454
  31 H :    0.032210
  32 H :    0.027568
  33 H :    0.039777

  Mayer bond orders larger than 0.100000
B(  0-S ,  1-C ) :   1.1525 B(  0-S ,  4-C ) :   1.1717 B(  1-C ,  2-C ) :   1.5595
B(  1-C ,  4-C ) :   0.1060 B(  1-C , 32-H ) :   0.9762 B(  2-C ,  3-C ) :   1.2737
B(  2-C ,  6-C ) :   0.9977 B(  3-C ,  4-C ) :   1.5331 B(  3-C ,  5-H ) :   0.9914
B(  4-C , 20-C ) :   1.0745 B(  6-C ,  7-H ) :   0.9335 B(  6-C ,  8-H ) :   0.9474
B(  6-C ,  9-C ) :   1.0801 B(  9-C , 10-H ) :   0.9587 B(  9-C , 11-H ) :   0.9565
B(  9-C , 12-C ) :   1.0737 B( 12-C , 13-H ) :   0.9729 B( 12-C , 14-H ) :   0.9745
B( 12-C , 15-H ) :   0.9755 B( 16-S , 17-C ) :   1.1594 B( 16-S , 20-C ) :   1.1477
B( 17-C , 18-C ) :   1.5778 B( 17-C , 20-C ) :   0.1065 B( 17-C , 33-H ) :   0.9598
B( 18-C , 19-C ) :   1.2762 B( 18-C , 21-H ) :   0.9861 B( 19-C , 20-C ) :   1.5660
B( 19-C , 22-C ) :   1.0217 B( 22-C , 23-H ) :   0.9357 B( 22-C , 24-H ) :   0.9434
B( 22-C , 25-C ) :   1.0682 B( 25-C , 26-H ) :   0.9485 B( 25-C , 27-H ) :   0.9582
B( 25-C , 28-C ) :   1.0726 B( 28-C , 29-H ) :   0.9773 B( 28-C , 30-H ) :   0.9698
B( 28-C , 31-H ) :   0.9741

Dispersion correction           -0.015379071
FINAL SINGLE POINT ENERGY     -1339.851611517393

DIPOLE MOMENT
-------------
                                X             Y             Z
Electronic contribution:     11.72242      -2.65264      23.68144
Nuclear contribution   :    -11.81304       2.98379     -24.11077
                        -----------------------------------------
Total Dipole Moment    :     -0.09063       0.33115      -0.42932
                        -----------------------------------------
Magnitude (a.u.)       :      0.54972
Magnitude (Debye)      :      1.39728

Rotational constants in cm-1:     0.022368     0.008780     0.007089
Rotational constants in MHz :   670.565409   263.230729   212.511348

                             ****ORCA TERMINATED NORMALLY****
TOTAL RUN TIME: 0 days 0 hours 0 minutes 30 seconds 124 msec
