                         Program Version 4.2.1 -  RELEASE  -
|  1> ! wB97X-D3 SP def2-SVP
|  2> %pal
|  3> nprocs 16
|  4> end
|  5>
|  6> * xyz 0 1
|  7> S 	 -3.6582 	 51.3312 	 47.757
|  8> C 	 -3.6551 	 52.4571 	 49.0672
|  9> C 	 -4.87631 	 52.4104 	 49.7836
| 10> C 	 -5.85417 	 51.5782 	 49.0973
| 11> C 	 -5.33251 	 50.963 	 47.9365
| 12> H 	 -6.93787 	 51.5777 	 49.2693
| 13> C 	 -5.20915 	 53.1862 	 51.06
| 14> H 	 -4.27517 	 53.6166 	 51.5417
| 15> H 	 -5.4739 	 52.3601 	 51.7494
| 16> C 	 -6.4141 	 54.1522 	 50.8622
| 17> H 	 -6.2251 	 54.8576 	 50.0312
| 18> H 	 -7.25271 	 53.573 	 50.3714
| 19> C 	 -7.01842 	 54.8661 	 52.0875
| 20> H 	 -7.87172 	 55.3986 	 51.6811
| 21> H 	 -7.31353 	 54.1398 	 52.8267
| 22> H 	 -6.46369 	 55.6362 	 52.6747
| 23> S 	 -6.15077 	 51.3379 	 45.2274
| 24> C 	 -7.32594 	 50.2438 	 44.5149
| 25> C 	 -7.65362 	 49.2523 	 45.3738
| 26> C 	 -7.02985 	 49.3707 	 46.6657
| 27> C 	 -6.15802 	 50.4934 	 46.7892
| 28> H 	 -8.30131 	 48.4783 	 45.141
| 29> C 	 -7.20649 	 48.2008 	 47.6917
| 30> H 	 -6.35729 	 48.3769 	 48.3979
| 31> H 	 -6.96054 	 47.2424 	 47.1991
| 32> C 	 -8.48183 	 48.0609 	 48.5249
| 33> H 	 -8.62296 	 47.0978 	 48.8866
| 34> H 	 -9.25181 	 48.1794 	 47.8316
| 35> C 	 -8.68142 	 49.0072 	 49.7671
| 36> H 	 -9.58447 	 48.8852 	 50.3096
| 37> H 	 -8.73189 	 50.0681 	 49.4532
| 38> H 	 -7.8578 	 48.9319 	 50.4363
| 39> H 	 -2.80651 	 53.0101 	 49.4198
| 40> H 	 -7.75162 	 50.507 	 43.5623
| 41> *
| 42>
| 43>                          ****END OF INPUT****

CARTESIAN COORDINATES (ANGSTROEM)
---------------------------------
  S     -3.658200   51.331200   47.757000
  C     -3.655100   52.457100   49.067200
  C     -4.876310   52.410400   49.783600
  C     -5.854170   51.578200   49.097300
  C     -5.332510   50.963000   47.936500
  H     -6.937870   51.577700   49.269300
  C     -5.209150   53.186200   51.060000
  H     -4.275170   53.616600   51.541700
  H     -5.473900   52.360100   51.749400
  C     -6.414100   54.152200   50.862200
  H     -6.225100   54.857600   50.031200
  H     -7.252710   53.573000   50.371400
  C     -7.018420   54.866100   52.087500
  H     -7.871720   55.398600   51.681100
  H     -7.313530   54.139800   52.826700
  H     -6.463690   55.636200   52.674700
  S     -6.150770   51.337900   45.227400
  C     -7.325940   50.243800   44.514900
  C     -7.653620   49.252300   45.373800
  C     -7.029850   49.370700   46.665700
  C     -6.158020   50.493400   46.789200
  H     -8.301310   48.478300   45.141000
  C     -7.206490   48.200800   47.691700
  H     -6.357290   48.376900   48.397900
  H     -6.960540   47.242400   47.199100
  C     -8.481830   48.060900   48.524900
  H     -8.622960   47.097800   48.886600
  H     -9.251810   48.179400   47.831600
  C     -8.681420   49.007200   49.767100
  H     -9.584470   48.885200   50.309600
  H     -8.731890   50.068100   49.453200
  H     -7.857800   48.931900   50.436300
  H     -2.806510   53.010100   49.419800
  H     -7.751620   50.507000   43.562300

 Total Charge           Charge          ....    0
 Multiplicity           Mult            ....    1
 Number of Electrons    NEL             ....  134
 Basis Dimension        Dim             ....  322

ORBITAL ENERGIES
----------------

  NO   OCC          E(Eh)            E(eV)
   0   2.0000     -88.968486     -2420.9556
   1   2.0000     -88.963009     -2420.8065
   2   2.0000     -10.336109      -281.2598
   3   2.0000     -10.332938      -281.1735
   4   2.0000     -10.316850      -280.7358
   5   2.0000     -10.316707      -280.7319
   6   2.0000     -10.309876      -280.5460
   7   2.0000     -10.308598      -280.5112
   8   2.0000     -10.303480      -280.3719
   9   2.0000     -10.302409      -280.3428
  10   2.0000     -10.297863      -280.2191
  11   2.0000     -10.295566      -280.1566
  12   2.0000     -10.288056      -279.9522
  13   2.0000     -10.282004      -279.7875
  14   2.0000     -10.278463      -279.6912
  15   2.0000     -10.275025      -279.5976
  16   2.0000      -8.083743      -219.9698
  17   2.0000      -8.077453      -219.7987
  18   2.0000      -6.042185      -164.4162
  19   2.0000      -6.037967      -164.3014
  20   2.0000      -6.036036      -164.2489
  21   2.0000      -6.034755      -164.2140
  22   2.0000      -6.031901      -164.1364
  23   2.0000      -6.028237      -164.0367
  24   2.0000      -1.001494       -27.2520
  25   2.0000      -0.980680       -26.6857
  26   2.0000      -0.905292       -24.6342
  27   2.0000      -0.900195       -24.4956
  28   2.0000      -0.865757       -23.5584
  29   2.0000      -0.847085       -23.0504
  30   2.0000      -0.842812       -22.9341
  31   2.0000      -0.813836       -22.1456
  32   2.0000      -0.782144       -21.2832
  33   2.0000      -0.773078       -21.0365
  34   2.0000      -0.710489       -19.3334
  35   2.0000      -0.701185       -19.0802
  36   2.0000      -0.691857       -18.8264
  37   2.0000      -0.657591       -17.8940
  38   2.0000      -0.641257       -17.4495
  39   2.0000      -0.615403       -16.7460
  40   2.0000      -0.596358       -16.2277
  41   2.0000      -0.568232       -15.4624
  42   2.0000      -0.550568       -14.9817
  43   2.0000      -0.548264       -14.9190
  44   2.0000      -0.541449       -14.7336
  45   2.0000      -0.530044       -14.4232
  46   2.0000      -0.516847       -14.0641
  47   2.0000      -0.506673       -13.7873
  48   2.0000      -0.505159       -13.7461
  49   2.0000      -0.495705       -13.4888
  50   2.0000      -0.491261       -13.3679
  51   2.0000      -0.477628       -12.9969
  52   2.0000      -0.468569       -12.7504
  53   2.0000      -0.464366       -12.6360
  54   2.0000      -0.460564       -12.5326
  55   2.0000      -0.449345       -12.2273
  56   2.0000      -0.443693       -12.0735
  57   2.0000      -0.440111       -11.9760
  58   2.0000      -0.436388       -11.8747
  59   2.0000      -0.425727       -11.5846
  60   2.0000      -0.415760       -11.3134
  61   2.0000      -0.411094       -11.1864
  62   2.0000      -0.406768       -11.0687
  63   2.0000      -0.346168        -9.4197
  64   2.0000      -0.328195        -8.9306
  65   2.0000      -0.325132        -8.8473
  66   2.0000      -0.296580        -8.0704
  67   0.0000       0.029948         0.8149
  68   0.0000       0.063548         1.7292
  69   0.0000       0.112772         3.0687
  70   0.0000       0.123024         3.3477
  71   0.0000       0.128509         3.4969

MULLIKEN ATOMIC CHARGES
-----------------------
   0 S :    0.122178
   1 C :   -0.112805
   2 C :   -0.119212
   3 C :    0.033741
   4 C :   -0.170837
   5 H :    0.027105
   6 C :    0.070108
   7 H :    0.034304
   8 H :    0.038312
   9 C :   -0.114269
  10 H :    0.036495
  11 H :    0.032126
  12 C :   -0.038033
  13 H :    0.035521
  14 H :    0.028653
  15 H :    0.039269
  16 S :    0.095449
  17 C :   -0.092286
  18 C :    0.024064
  19 C :   -0.059349
  20 C :   -0.147176
  21 H :   -0.006055
  22 C :    0.016620
  23 H :    0.026619
  24 H :    0.041193
  25 C :    0.006686
  26 H :    0.011404
  27 H :    0.000524
  28 C :   -0.050086
  29 H :    0.026209
  30 H :    0.028784
  31 H :    0.027355
  32 H :    0.045774
  33 H :    0.061615
Sum of atomic charges:    0.0000000

LOEWDIN ATOMIC CHARGES
----------------------
   0 S :    0.432312
   1 C :   -0.205171
   2 C :   -0.060874
   3 C :   -0.056723
   4 C :   -0.213197
   5 H :    0.031900
   6 C :   -0.040943
   7 H :    0.034958
   8 H :    0.037014
   9 C :   -0.049667
  10 H :    0.028539
  11 H :    0.032534
  12 C :   -0.071065
  13 H :    0.030706
  14 H :    0.023004
  15 H :    0.028535
  16 S :    0.392056
  17 C :   -0.172326
  18 C :   -0.067085
  19 C :   -0.055692
  20 C :   -0.196270
  21 H :    0.020817
  22 C :   -0.034591
  23 H :    0.031839
  24 H :    0.037228
  25 C :   -0.031753
  26 H :    0.018145
  27 H :    0.014665
  28 C :   -0.059925
  29 H :    0.022692
  30 H :    0.024144
  31 H :    0.020198
  32 H :    0.026062
  33 H :    0.027932

  Mayer bond orders larger than 0.100000
B(  0-S ,  1-C ) :   1.1530 B(  0-S ,  4-C ) :   1.1710 B(  1-C ,  2-C ) :   1.5857
B(  1-C , 32-H ) :   0.9709 B(  2-C ,  3-C ) :   1.2570 B(  2-C ,  6-C ) :   1.0215
B(  3-C ,  4-C ) :   1.5556 B(  3-C ,  5-H ) :   0.9773 B(  4-C , 20-C ) :   1.0212
B(  6-C ,  7-H ) :   0.9479 B(  6-C ,  8-H ) :   0.9355 B(  6-C ,  9-C ) :   1.0447
B(  9-C , 10-H ) :   0.9577 B(  9-C , 11-H ) :   0.9533 B(  9-C , 12-C ) :   1.0754
B( 12-C , 13-H ) :   0.9733 B( 12-C , 14-H ) :   0.9742 B( 12-C , 15-H ) :   0.9773
B( 16-S , 17-C ) :   1.1571 B( 16-S , 20-C ) :   1.1403 B( 17-C , 18-C ) :   1.5832
B( 17-C , 33-H ) :   0.9709 B( 18-C , 19-C ) :   1.2556 B( 18-C , 21-H ) :   1.0047
B( 19-C , 20-C ) :   1.5859 B( 19-C , 22-C ) :   1.0278 B( 22-C , 23-H ) :   0.9396
B( 22-C , 24-H ) :   0.9464 B( 22-C , 25-C ) :   1.0634 B( 25-C , 26-H ) :   0.9527
B( 25-C , 27-H ) :   0.9536 B( 25-C , 28-C ) :   1.0766 B( 28-C , 29-H ) :   0.9715
B( 28-C , 30-H ) :   0.9738 B( 28-C , 31-H ) :   0.9772

Dispersion correction           -0.014380127
FINAL SINGLE POINT ENERGY     -1339.868962623486

DIPOLE MOMENT
-------------
                                X             Y             Z
Electronic contribution:     16.19914      -1.77334     -23.66252
Nuclear contribution   :    -16.66041       1.77005      24.06816
                        -----------------------------------------
Total Dipole Moment    :     -0.46127      -0.00329       0.40565
                        -----------------------------------------
Magnitude (a.u.)       :      0.61428
Magnitude (Debye)      :      1.56136

Rotational constants in cm-1:     0.017007     0.008706     0.007042
Rotational constants in MHz :   509.863757   261.008442   211.126128

                             ****ORCA TERMINATED NORMALLY****
TOTAL RUN TIME: 0 days 0 hours 0 minutes 33 seconds 383 msec
