                         Program Version 4.2.1 -  RELEASE  -
|  1> ! wB97X-D3 SP def2-SVP
|  2> %pal
|  3> nprocs 16
|  4> end
|  5>
|  6> * xyz 0 1
|  7> S 	 -22.7411 	 -0.921713 	 79.6834
|  8> C 	 -21.3383 	 -1.31679 	 78.7879
|  9> C 	 -21.2719 	 -0.714965 	 77.5735
| 10> C 	 -22.5072 	 -0.00445763 	 77.2991
| 11> C 	 -23.418 	 -0.111161 	 78.3133
| 12> H 	 -22.7301 	 0.434633 	 76.3305
| 13> C 	 -20.2272 	 -0.98387 	 76.5585
| 14> H 	 -20.7935 	 -1.2643 	 75.6798
| 15> H 	 -19.6346 	 -1.8509 	 76.8373
| 16> C 	 -19.2186 	 0.175072 	 76.1825
| 17> H 	 -18.7423 	 0.467753 	 77.1174
| 18> H 	 -18.4497 	 -0.137761 	 75.4592
| 19> C 	 -19.8652 	 1.46341 	 75.6642
| 20> H 	 -20.3892 	 1.27514 	 74.7969
| 21> H 	 -20.6287 	 1.74472 	 76.4082
| 22> H 	 -19.188 	 2.26415 	 75.5096
| 23> S 	 -25.2959 	 1.10825 	 76.7042
| 24> C 	 -26.6217 	 1.97462 	 77.42
| 25> C 	 -26.6113 	 1.87791 	 78.7686
| 26> C 	 -25.5823 	 1.11364 	 79.3008
| 27> C 	 -24.7315 	 0.622877 	 78.2675
| 28> H 	 -27.4114 	 2.45947 	 79.2841
| 29> C 	 -25.4073 	 0.962716 	 80.8048
| 30> H 	 -25.1265 	 -0.0228786 	 81.0995
| 31> H 	 -26.3155 	 1.09504 	 81.3321
| 32> C 	 -24.4541 	 2.00411 	 81.35
| 33> H 	 -25.066 	 2.99666 	 81.3766
| 34> H 	 -23.5236 	 2.30401 	 80.7869
| 35> C 	 -23.8627 	 1.62546 	 82.728
| 36> H 	 -23.3618 	 2.45501 	 83.3327
| 37> H 	 -23.1467 	 0.77161 	 82.7219
| 38> H 	 -24.6435 	 1.25024 	 83.4709
| 39> H 	 -20.5578 	 -1.84702 	 79.214
| 40> H 	 -27.3613 	 2.46332 	 76.7752
| 41> *
| 42>
| 43>                          ****END OF INPUT****

CARTESIAN COORDINATES (ANGSTROEM)
---------------------------------
  S    -22.741100   -0.921713   79.683400
  C    -21.338300   -1.316790   78.787900
  C    -21.271900   -0.714965   77.573500
  C    -22.507200   -0.004458   77.299100
  C    -23.418000   -0.111161   78.313300
  H    -22.730100    0.434633   76.330500
  C    -20.227200   -0.983870   76.558500
  H    -20.793500   -1.264300   75.679800
  H    -19.634600   -1.850900   76.837300
  C    -19.218600    0.175072   76.182500
  H    -18.742300    0.467753   77.117400
  H    -18.449700   -0.137761   75.459200
  C    -19.865200    1.463410   75.664200
  H    -20.389200    1.275140   74.796900
  H    -20.628700    1.744720   76.408200
  H    -19.188000    2.264150   75.509600
  S    -25.295900    1.108250   76.704200
  C    -26.621700    1.974620   77.420000
  C    -26.611300    1.877910   78.768600
  C    -25.582300    1.113640   79.300800
  C    -24.731500    0.622877   78.267500
  H    -27.411400    2.459470   79.284100
  C    -25.407300    0.962716   80.804800
  H    -25.126500   -0.022879   81.099500
  H    -26.315500    1.095040   81.332100
  C    -24.454100    2.004110   81.350000
  H    -25.066000    2.996660   81.376600
  H    -23.523600    2.304010   80.786900
  C    -23.862700    1.625460   82.728000
  H    -23.361800    2.455010   83.332700
  H    -23.146700    0.771610   82.721900
  H    -24.643500    1.250240   83.470900
  H    -20.557800   -1.847020   79.214000
  H    -27.361300    2.463320   76.775200

 Total Charge           Charge          ....    0
 Multiplicity           Mult            ....    1
 Number of Electrons    NEL             ....  134
 Basis Dimension        Dim             ....  322

ORBITAL ENERGIES
----------------

  NO   OCC          E(Eh)            E(eV)
   0   2.0000     -88.968630     -2420.9595
   1   2.0000     -88.966775     -2420.9090
   2   2.0000     -10.333166      -281.1797
   3   2.0000     -10.331871      -281.1445
   4   2.0000     -10.313027      -280.6317
   5   2.0000     -10.304844      -280.4091
   6   2.0000     -10.303461      -280.3714
   7   2.0000     -10.297790      -280.2171
   8   2.0000     -10.295883      -280.1652
   9   2.0000     -10.291954      -280.0583
  10   2.0000     -10.291370      -280.0424
  11   2.0000     -10.291150      -280.0364
  12   2.0000     -10.288938      -279.9762
  13   2.0000     -10.288110      -279.9537
  14   2.0000     -10.287095      -279.9261
  15   2.0000     -10.265672      -279.3431
  16   2.0000      -8.083978      -219.9762
  17   2.0000      -8.081951      -219.9211
  18   2.0000      -6.042513      -164.4251
  19   2.0000      -6.040287      -164.3646
  20   2.0000      -6.038472      -164.3152
  21   2.0000      -6.036394      -164.2586
  22   2.0000      -6.034632      -164.2107
  23   2.0000      -6.032910      -164.1638
  24   2.0000      -1.013248       -27.5719
  25   2.0000      -0.993794       -27.0425
  26   2.0000      -0.911367       -24.7996
  27   2.0000      -0.909761       -24.7559
  28   2.0000      -0.872818       -23.7506
  29   2.0000      -0.853422       -23.2228
  30   2.0000      -0.843902       -22.9638
  31   2.0000      -0.816333       -22.2136
  32   2.0000      -0.784992       -21.3607
  33   2.0000      -0.772606       -21.0237
  34   2.0000      -0.702548       -19.1173
  35   2.0000      -0.700713       -19.0674
  36   2.0000      -0.688963       -18.7476
  37   2.0000      -0.667098       -18.1527
  38   2.0000      -0.639161       -17.3925
  39   2.0000      -0.618923       -16.8417
  40   2.0000      -0.602403       -16.3922
  41   2.0000      -0.573162       -15.5965
  42   2.0000      -0.558274       -15.1914
  43   2.0000      -0.546324       -14.8662
  44   2.0000      -0.543934       -14.8012
  45   2.0000      -0.524062       -14.2605
  46   2.0000      -0.519233       -14.1290
  47   2.0000      -0.510800       -13.8996
  48   2.0000      -0.506809       -13.7910
  49   2.0000      -0.498501       -13.5649
  50   2.0000      -0.488518       -13.2933
  51   2.0000      -0.481907       -13.1133
  52   2.0000      -0.476389       -12.9632
  53   2.0000      -0.466656       -12.6984
  54   2.0000      -0.458152       -12.4670
  55   2.0000      -0.450067       -12.2470
  56   2.0000      -0.437198       -11.8968
  57   2.0000      -0.433650       -11.8002
  58   2.0000      -0.429594       -11.6898
  59   2.0000      -0.428188       -11.6516
  60   2.0000      -0.424755       -11.5582
  61   2.0000      -0.421753       -11.4765
  62   2.0000      -0.402432       -10.9507
  63   2.0000      -0.363353        -9.8873
  64   2.0000      -0.335953        -9.1417
  65   2.0000      -0.329145        -8.9565
  66   2.0000      -0.283946        -7.7266
  67   0.0000       0.024904         0.6777
  68   0.0000       0.086787         2.3616
  69   0.0000       0.112818         3.0699
  70   0.0000       0.122178         3.3246
  71   0.0000       0.131012         3.5650

MULLIKEN ATOMIC CHARGES
-----------------------
   0 S :    0.107610
   1 C :   -0.095116
   2 C :   -0.062897
   3 C :   -0.049622
   4 C :   -0.074082
   5 H :    0.026463
   6 C :    0.057235
   7 H :    0.029591
   8 H :    0.022007
   9 C :   -0.077277
  10 H :    0.025238
  11 H :    0.037702
  12 C :   -0.032323
  13 H :    0.007603
  14 H :    0.036383
  15 H :    0.033087
  16 S :    0.089713
  17 C :   -0.106355
  18 C :   -0.044553
  19 C :   -0.049100
  20 C :   -0.134652
  21 H :    0.032063
  22 C :    0.116469
  23 H :    0.017155
  24 H :    0.012877
  25 C :   -0.102587
  26 H :    0.036670
  27 H :    0.055456
  28 C :   -0.102247
  29 H :    0.045722
  30 H :    0.039742
  31 H :    0.023142
  32 H :    0.016888
  33 H :    0.061996
Sum of atomic charges:   -0.0000000

LOEWDIN ATOMIC CHARGES
----------------------
   0 S :    0.429760
   1 C :   -0.193728
   2 C :   -0.062102
   3 C :   -0.076747
   4 C :   -0.190706
   5 H :    0.023414
   6 C :   -0.030261
   7 H :    0.031650
   8 H :    0.032219
   9 C :   -0.035400
  10 H :    0.022643
  11 H :    0.024767
  12 C :   -0.061227
  13 H :    0.010260
  14 H :    0.030716
  15 H :    0.023335
  16 S :    0.426282
  17 C :   -0.193054
  18 C :   -0.079653
  19 C :   -0.059011
  20 C :   -0.188377
  21 H :    0.042139
  22 C :   -0.029847
  23 H :    0.019370
  24 H :    0.031511
  25 C :   -0.052032
  26 H :    0.032522
  27 H :    0.033667
  28 C :   -0.088057
  29 H :    0.032990
  30 H :    0.025192
  31 H :    0.023069
  32 H :    0.012951
  33 H :    0.031746

  Mayer bond orders larger than 0.100000
B(  0-S ,  1-C ) :   1.1335 B(  0-S ,  4-C ) :   1.1469 B(  1-C ,  2-C ) :   1.6308
B(  1-C , 32-H ) :   0.9710 B(  2-C ,  3-C ) :   1.2292 B(  2-C ,  6-C ) :   1.0235
B(  3-C ,  4-C ) :   1.5751 B(  3-C ,  5-H ) :   0.9783 B(  4-C , 20-C ) :   1.0432
B(  6-C ,  7-H ) :   0.9426 B(  6-C ,  8-H ) :   0.9437 B(  6-C ,  9-C ) :   1.0608
B(  9-C , 10-H ) :   0.9562 B(  9-C , 11-H ) :   0.9595 B(  9-C , 12-C ) :   1.0834
B( 12-C , 13-H ) :   0.9750 B( 12-C , 14-H ) :   0.9700 B( 12-C , 15-H ) :   0.9726
B( 16-S , 17-C ) :   1.1585 B( 16-S , 20-C ) :   1.1763 B( 17-C , 18-C ) :   1.5941
B( 17-C , 20-C ) :   0.1005 B( 17-C , 33-H ) :   0.9665 B( 18-C , 19-C ) :   1.2767
B( 18-C , 21-H ) :   0.9862 B( 19-C , 20-C ) :   1.5336 B( 19-C , 22-C ) :   1.0429
B( 22-C , 23-H ) :   0.9433 B( 22-C , 24-H ) :   0.9218 B( 22-C , 25-C ) :   1.0375
B( 25-C , 26-H ) :   0.9538 B( 25-C , 27-H ) :   0.9656 B( 25-C , 28-C ) :   1.0629
B( 28-C , 29-H ) :   0.9747 B( 28-C , 30-H ) :   0.9750 B( 28-C , 31-H ) :   0.9718

Dispersion correction           -0.014720354
FINAL SINGLE POINT ENERGY     -1339.880499252147

DIPOLE MOMENT
-------------
                                X             Y             Z
Electronic contribution:    -12.86572      -7.10088      -5.27052
Nuclear contribution   :     12.99606       7.25387       5.26760
                        -----------------------------------------
Total Dipole Moment    :      0.13035       0.15298      -0.00292
                        -----------------------------------------
Magnitude (a.u.)       :      0.20100
Magnitude (Debye)      :      0.51091

Rotational constants in cm-1:     0.018679     0.009291     0.007181
Rotational constants in MHz :   559.969884   278.534686   215.285092

                             ****ORCA TERMINATED NORMALLY****
TOTAL RUN TIME: 0 days 0 hours 0 minutes 33 seconds 914 msec
