                         Program Version 4.2.1 -  RELEASE  -
|  1> ! wB97X-D3 SP def2-SVP
|  2> %pal
|  3> nprocs 16
|  4> end
|  5>
|  6> * xyz 0 1
|  7> S 	 2.14562 	 -17.1953 	 48.1292
|  8> C 	 0.529344 	 -16.9684 	 47.5025
|  9> C 	 -0.326916 	 -16.3852 	 48.458
| 10> C 	 0.320077 	 -16.2741 	 49.7399
| 11> C 	 1.72607 	 -16.4181 	 49.625
| 12> H 	 -0.12703 	 -16.0758 	 50.7117
| 13> C 	 -1.73465 	 -16.0925 	 48.1779
| 14> H 	 -2.388 	 -16.9231 	 48.4643
| 15> H 	 -1.80946 	 -15.9901 	 47.1222
| 16> C 	 -2.23419 	 -14.7998 	 48.8402
| 17> H 	 -3.21104 	 -14.6543 	 48.3999
| 18> H 	 -2.47857 	 -14.9494 	 49.856
| 19> C 	 -1.30659 	 -13.5627 	 48.609
| 20> H 	 -1.44666 	 -13.1867 	 47.6327
| 21> H 	 -1.52575 	 -12.7199 	 49.2415
| 22> H 	 -0.26103 	 -13.7819 	 48.6725
| 23> S 	 3.38905 	 -17.5625 	 51.4894
| 24> C 	 4.37487 	 -16.4769 	 52.4593
| 25> C 	 3.99971 	 -15.16 	 52.3919
| 26> C 	 3.13032 	 -15.0148 	 51.2614
| 27> C 	 2.7296 	 -16.2159 	 50.6372
| 28> H 	 4.37861 	 -14.3569 	 52.9762
| 29> C 	 2.61131 	 -13.5986 	 50.9863
| 30> H 	 1.63567 	 -13.7051 	 51.4103
| 31> H 	 2.55872 	 -13.5921 	 49.916
| 32> C 	 3.28228 	 -12.3203 	 51.6153
| 33> H 	 4.3452 	 -12.1373 	 51.2505
| 34> H 	 3.38838 	 -12.4499 	 52.7057
| 35> C 	 2.56159 	 -11.0163 	 51.303
| 36> H 	 1.65438 	 -10.8297 	 51.9262
| 37> H 	 2.3105 	 -10.9345 	 50.2358
| 38> H 	 3.21797 	 -10.1709 	 51.6233
| 39> H 	 0.276884 	 -17.151 	 46.5311
| 40> H 	 5.17918 	 -16.7387 	 53.1302
| 41> *
| 42>
| 43>                          ****END OF INPUT****

CARTESIAN COORDINATES (ANGSTROEM)
---------------------------------
  S      2.145620  -17.195300   48.129200
  C      0.529344  -16.968400   47.502500
  C     -0.326916  -16.385200   48.458000
  C      0.320077  -16.274100   49.739900
  C      1.726070  -16.418100   49.625000
  H     -0.127030  -16.075800   50.711700
  C     -1.734650  -16.092500   48.177900
  H     -2.388000  -16.923100   48.464300
  H     -1.809460  -15.990100   47.122200
  C     -2.234190  -14.799800   48.840200
  H     -3.211040  -14.654300   48.399900
  H     -2.478570  -14.949400   49.856000
  C     -1.306590  -13.562700   48.609000
  H     -1.446660  -13.186700   47.632700
  H     -1.525750  -12.719900   49.241500
  H     -0.261030  -13.781900   48.672500
  S      3.389050  -17.562500   51.489400
  C      4.374870  -16.476900   52.459300
  C      3.999710  -15.160000   52.391900
  C      3.130320  -15.014800   51.261400
  C      2.729600  -16.215900   50.637200
  H      4.378610  -14.356900   52.976200
  C      2.611310  -13.598600   50.986300
  H      1.635670  -13.705100   51.410300
  H      2.558720  -13.592100   49.916000
  C      3.282280  -12.320300   51.615300
  H      4.345200  -12.137300   51.250500
  H      3.388380  -12.449900   52.705700
  C      2.561590  -11.016300   51.303000
  H      1.654380  -10.829700   51.926200
  H      2.310500  -10.934500   50.235800
  H      3.217970  -10.170900   51.623300
  H      0.276884  -17.151000   46.531100
  H      5.179180  -16.738700   53.130200

 Total Charge           Charge          ....    0
 Multiplicity           Mult            ....    1
 Number of Electrons    NEL             ....  134
 Basis Dimension        Dim             ....  322

ORBITAL ENERGIES
----------------

  NO   OCC          E(Eh)            E(eV)
   0   2.0000     -88.964938     -2420.8590
   1   2.0000     -88.964055     -2420.8350
   2   2.0000     -10.327088      -281.0144
   3   2.0000     -10.317981      -280.7665
   4   2.0000     -10.314508      -280.6720
   5   2.0000     -10.307582      -280.4836
   6   2.0000     -10.302859      -280.3551
   7   2.0000     -10.300468      -280.2900
   8   2.0000     -10.299043      -280.2512
   9   2.0000     -10.299029      -280.2508
  10   2.0000     -10.287780      -279.9447
  11   2.0000     -10.287378      -279.9338
  12   2.0000     -10.285804      -279.8910
  13   2.0000     -10.285742      -279.8893
  14   2.0000     -10.282965      -279.8137
  15   2.0000     -10.268735      -279.4265
  16   2.0000      -8.079870      -219.8645
  17   2.0000      -8.079000      -219.8408
  18   2.0000      -6.038376      -164.3126
  19   2.0000      -6.037355      -164.2848
  20   2.0000      -6.034470      -164.2063
  21   2.0000      -6.033438      -164.1782
  22   2.0000      -6.030505      -164.0984
  23   2.0000      -6.029972      -164.0839
  24   2.0000      -1.004564       -27.3356
  25   2.0000      -0.981730       -26.7142
  26   2.0000      -0.915989       -24.9253
  27   2.0000      -0.902700       -24.5637
  28   2.0000      -0.868091       -23.6220
  29   2.0000      -0.850449       -23.1419
  30   2.0000      -0.841258       -22.8918
  31   2.0000      -0.816058       -22.2061
  32   2.0000      -0.786212       -21.3939
  33   2.0000      -0.766214       -20.8498
  34   2.0000      -0.714725       -19.4487
  35   2.0000      -0.700665       -19.0661
  36   2.0000      -0.694367       -18.8947
  37   2.0000      -0.653454       -17.7814
  38   2.0000      -0.642591       -17.4858
  39   2.0000      -0.618426       -16.8282
  40   2.0000      -0.589033       -16.0284
  41   2.0000      -0.567172       -15.4335
  42   2.0000      -0.566245       -15.4083
  43   2.0000      -0.558915       -15.2088
  44   2.0000      -0.538964       -14.6659
  45   2.0000      -0.523393       -14.2423
  46   2.0000      -0.519558       -14.1379
  47   2.0000      -0.512000       -13.9322
  48   2.0000      -0.506498       -13.7825
  49   2.0000      -0.497353       -13.5337
  50   2.0000      -0.489548       -13.3213
  51   2.0000      -0.479472       -13.0471
  52   2.0000      -0.471083       -12.8188
  53   2.0000      -0.462749       -12.5920
  54   2.0000      -0.458744       -12.4831
  55   2.0000      -0.452565       -12.3149
  56   2.0000      -0.447059       -12.1651
  57   2.0000      -0.440503       -11.9867
  58   2.0000      -0.428956       -11.6725
  59   2.0000      -0.424316       -11.5462
  60   2.0000      -0.419635       -11.4189
  61   2.0000      -0.418014       -11.3747
  62   2.0000      -0.409712       -11.1488
  63   2.0000      -0.337118        -9.1735
  64   2.0000      -0.324436        -8.8284
  65   2.0000      -0.316909        -8.6235
  66   2.0000      -0.295202        -8.0329
  67   0.0000       0.033111         0.9010
  68   0.0000       0.061068         1.6617
  69   0.0000       0.110961         3.0194
  70   0.0000       0.120010         3.2656
  71   0.0000       0.131851         3.5878

MULLIKEN ATOMIC CHARGES
-----------------------
   0 S :    0.119571
   1 C :   -0.075246
   2 C :   -0.137079
   3 C :    0.051747
   4 C :   -0.212532
   5 H :    0.025799
   6 C :    0.107399
   7 H :    0.045374
   8 H :    0.005120
   9 C :   -0.070772
  10 H :    0.019280
  11 H :    0.018767
  12 C :   -0.028621
  13 H :    0.013616
  14 H :    0.026878
  15 H :    0.043385
  16 S :    0.124655
  17 C :   -0.069938
  18 C :   -0.032526
  19 C :   -0.080860
  20 C :   -0.153893
  21 H :    0.015806
  22 C :    0.093324
  23 H :    0.034337
  24 H :    0.038107
  25 C :   -0.115972
  26 H :    0.042904
  27 H :    0.036720
  28 C :   -0.057636
  29 H :    0.035236
  30 H :    0.044339
  31 H :    0.036057
  32 H :    0.010633
  33 H :    0.046023
Sum of atomic charges:   -0.0000000

LOEWDIN ATOMIC CHARGES
----------------------
   0 S :    0.418438
   1 C :   -0.185788
   2 C :   -0.061048
   3 C :   -0.051072
   4 C :   -0.206094
   5 H :    0.033502
   6 C :   -0.032145
   7 H :    0.039730
   8 H :    0.026561
   9 C :   -0.035855
  10 H :    0.025462
  11 H :    0.014822
  12 C :   -0.061102
  13 H :    0.020919
  14 H :    0.025793
  15 H :    0.024925
  16 S :    0.416023
  17 C :   -0.173392
  18 C :   -0.071539
  19 C :   -0.041206
  20 C :   -0.240802
  21 H :    0.028365
  22 C :   -0.033353
  23 H :    0.035304
  24 H :    0.030539
  25 C :   -0.050853
  26 H :    0.031849
  27 H :    0.023251
  28 C :   -0.070727
  29 H :    0.026589
  30 H :    0.028770
  31 H :    0.032212
  32 H :    0.005504
  33 H :    0.026414

  Mayer bond orders larger than 0.100000
B(  0-S ,  1-C ) :   1.1481 B(  0-S ,  4-C ) :   1.1721 B(  1-C ,  2-C ) :   1.5861
B(  1-C ,  4-C ) :   0.1086 B(  1-C , 32-H ) :   0.9793 B(  2-C ,  3-C ) :   1.2287
B(  2-C ,  6-C ) :   1.0436 B(  3-C ,  4-C ) :   1.5527 B(  3-C ,  5-H ) :   0.9911
B(  4-C , 20-C ) :   1.0387 B(  6-C ,  7-H ) :   0.9270 B(  6-C ,  8-H ) :   0.9324
B(  6-C ,  9-C ) :   1.0781 B(  9-C , 10-H ) :   0.9559 B(  9-C , 11-H ) :   0.9555
B(  9-C , 12-C ) :   1.0656 B( 12-C , 13-H ) :   0.9730 B( 12-C , 14-H ) :   0.9752
B( 12-C , 15-H ) :   0.9743 B( 16-S , 17-C ) :   1.1655 B( 16-S , 20-C ) :   1.1358
B( 17-C , 18-C ) :   1.5983 B( 17-C , 33-H ) :   0.9625 B( 18-C , 19-C ) :   1.2656
B( 18-C , 21-H ) :   0.9864 B( 19-C , 20-C ) :   1.5890 B( 19-C , 22-C ) :   1.0166
B( 22-C , 23-H ) :   0.9311 B( 22-C , 24-H ) :   0.9308 B( 22-C , 25-C ) :   1.0673
B( 25-C , 26-H ) :   0.9576 B( 25-C , 27-H ) :   0.9439 B( 25-C , 28-C ) :   1.0886
B( 28-C , 29-H ) :   0.9740 B( 28-C , 30-H ) :   0.9746 B( 28-C , 31-H ) :   0.9720

Dispersion correction           -0.014808964
FINAL SINGLE POINT ENERGY     -1339.859203377676

DIPOLE MOMENT
-------------
                                X             Y             Z
Electronic contribution:     13.86729     -27.14376      -0.92216
Nuclear contribution   :    -14.29286      27.74026       1.10781
                        -----------------------------------------
Total Dipole Moment    :     -0.42557       0.59650       0.18565
                        -----------------------------------------
Magnitude (a.u.)       :      0.75590
Magnitude (Debye)      :      1.92135

Rotational constants in cm-1:     0.015743     0.010382     0.007020
Rotational constants in MHz :   471.959259   311.230428   210.446131

                             ****ORCA TERMINATED NORMALLY****
TOTAL RUN TIME: 0 days 0 hours 0 minutes 30 seconds 820 msec
