                         Program Version 4.2.1 -  RELEASE  -
|  1> ! wB97X-D3 SP def2-SVP
|  2> %pal
|  3> nprocs 16
|  4> end
|  5>
|  6> * xyz 0 1
|  7> S 	 12.7307 	 -12.9356 	 79.3767
|  8> C 	 12.2581 	 -14.1086 	 80.6201
|  9> C 	 11.0813 	 -14.747 	 80.2796
| 10> C 	 10.5612 	 -14.2978 	 79.0047
| 11> C 	 11.4224 	 -13.4094 	 78.3197
| 12> H 	 9.54304 	 -14.5078 	 78.6017
| 13> C 	 10.3564 	 -15.7734 	 81.1994
| 14> H 	 9.5529 	 -15.2338 	 81.8161
| 15> H 	 10.941 	 -16.2905 	 81.944
| 16> C 	 9.48268 	 -16.7909 	 80.4866
| 17> H 	 8.89625 	 -16.3047 	 79.7229
| 18> H 	 10.1197 	 -17.4385 	 79.9846
| 19> C 	 8.39824 	 -17.5491 	 81.2931
| 20> H 	 7.65027 	 -16.9531 	 81.8011
| 21> H 	 7.79707 	 -18.2981 	 80.7108
| 22> H 	 8.74738 	 -18.0829 	 82.1748
| 23> S 	 11.6543 	 -11.1395 	 76.8668
| 24> C 	 10.8829 	 -11.04 	 75.321
| 25> C 	 10.446 	 -12.2942 	 74.892
| 26> C 	 10.5753 	 -13.3172 	 75.9168
| 27> C 	 11.1536 	 -12.8131 	 77.0572
| 28> H 	 10.16 	 -12.3599 	 73.8407
| 29> C 	 10.2147 	 -14.7909 	 75.6983
| 30> H 	 9.51408 	 -14.8566 	 74.8384
| 31> H 	 9.72969 	 -15.2364 	 76.5302
| 32> C 	 11.3654 	 -15.7446 	 75.3049
| 33> H 	 12.1947 	 -15.5206 	 75.9259
| 34> H 	 11.5551 	 -15.5699 	 74.2238
| 35> C 	 10.9026 	 -17.2763 	 75.4402
| 36> H 	 11.7856 	 -17.8644 	 75.0734
| 37> H 	 10.0281 	 -17.5565 	 74.8173
| 38> H 	 10.7218 	 -17.6432 	 76.4969
| 39> H 	 12.8302 	 -14.1429 	 81.5556
| 40> H 	 10.9653 	 -10.2663 	 74.6527
| 41> *
| 42>
| 43>                          ****END OF INPUT****

CARTESIAN COORDINATES (ANGSTROEM)
---------------------------------
  S     12.730700  -12.935600   79.376700
  C     12.258100  -14.108600   80.620100
  C     11.081300  -14.747000   80.279600
  C     10.561200  -14.297800   79.004700
  C     11.422400  -13.409400   78.319700
  H      9.543040  -14.507800   78.601700
  C     10.356400  -15.773400   81.199400
  H      9.552900  -15.233800   81.816100
  H     10.941000  -16.290500   81.944000
  C      9.482680  -16.790900   80.486600
  H      8.896250  -16.304700   79.722900
  H     10.119700  -17.438500   79.984600
  C      8.398240  -17.549100   81.293100
  H      7.650270  -16.953100   81.801100
  H      7.797070  -18.298100   80.710800
  H      8.747380  -18.082900   82.174800
  S     11.654300  -11.139500   76.866800
  C     10.882900  -11.040000   75.321000
  C     10.446000  -12.294200   74.892000
  C     10.575300  -13.317200   75.916800
  C     11.153600  -12.813100   77.057200
  H     10.160000  -12.359900   73.840700
  C     10.214700  -14.790900   75.698300
  H      9.514080  -14.856600   74.838400
  H      9.729690  -15.236400   76.530200
  C     11.365400  -15.744600   75.304900
  H     12.194700  -15.520600   75.925900
  H     11.555100  -15.569900   74.223800
  C     10.902600  -17.276300   75.440200
  H     11.785600  -17.864400   75.073400
  H     10.028100  -17.556500   74.817300
  H     10.721800  -17.643200   76.496900
  H     12.830200  -14.142900   81.555600
  H     10.965300  -10.266300   74.652700

 Total Charge           Charge          ....    0
 Multiplicity           Mult            ....    1
 Number of Electrons    NEL             ....  134
 Basis Dimension        Dim             ....  322

ORBITAL ENERGIES
----------------

  NO   OCC          E(Eh)            E(eV)
   0   2.0000     -88.968014     -2420.9427
   1   2.0000     -88.966257     -2420.8949
   2   2.0000     -10.333105      -281.1781
   3   2.0000     -10.326009      -280.9850
   4   2.0000     -10.319950      -280.8201
   5   2.0000     -10.313197      -280.6364
   6   2.0000     -10.312295      -280.6118
   7   2.0000     -10.308710      -280.5143
   8   2.0000     -10.303322      -280.3677
   9   2.0000     -10.301231      -280.3107
  10   2.0000     -10.299728      -280.2699
  11   2.0000     -10.290844      -280.0281
  12   2.0000     -10.289642      -279.9954
  13   2.0000     -10.289494      -279.9914
  14   2.0000     -10.283396      -279.8254
  15   2.0000     -10.282755      -279.8080
  16   2.0000      -8.082498      -219.9359
  17   2.0000      -8.081437      -219.9071
  18   2.0000      -6.041060      -164.3856
  19   2.0000      -6.039939      -164.3551
  20   2.0000      -6.037088      -164.2775
  21   2.0000      -6.035982      -164.2474
  22   2.0000      -6.033171      -164.1709
  23   2.0000      -6.032075      -164.1411
  24   2.0000      -1.008813       -27.4512
  25   2.0000      -0.981343       -26.7037
  26   2.0000      -0.911368       -24.7996
  27   2.0000      -0.903099       -24.5746
  28   2.0000      -0.874293       -23.7907
  29   2.0000      -0.848119       -23.0785
  30   2.0000      -0.839208       -22.8360
  31   2.0000      -0.811900       -22.0929
  32   2.0000      -0.783155       -21.3107
  33   2.0000      -0.772964       -21.0334
  34   2.0000      -0.715486       -19.4694
  35   2.0000      -0.698434       -19.0053
  36   2.0000      -0.693007       -18.8577
  37   2.0000      -0.665689       -18.1143
  38   2.0000      -0.641092       -17.4450
  39   2.0000      -0.621887       -16.9224
  40   2.0000      -0.595294       -16.1988
  41   2.0000      -0.569197       -15.4887
  42   2.0000      -0.565662       -15.3924
  43   2.0000      -0.561441       -15.2776
  44   2.0000      -0.523875       -14.2554
  45   2.0000      -0.519645       -14.1403
  46   2.0000      -0.513556       -13.9746
  47   2.0000      -0.506797       -13.7906
  48   2.0000      -0.498753       -13.5718
  49   2.0000      -0.498130       -13.5548
  50   2.0000      -0.492594       -13.4042
  51   2.0000      -0.485599       -13.2138
  52   2.0000      -0.473965       -12.8973
  53   2.0000      -0.469372       -12.7723
  54   2.0000      -0.457185       -12.4406
  55   2.0000      -0.452737       -12.3196
  56   2.0000      -0.445577       -12.1248
  57   2.0000      -0.431087       -11.7305
  58   2.0000      -0.429878       -11.6976
  59   2.0000      -0.426141       -11.5959
  60   2.0000      -0.421127       -11.4594
  61   2.0000      -0.418487       -11.3876
  62   2.0000      -0.415205       -11.2983
  63   2.0000      -0.357385        -9.7249
  64   2.0000      -0.333444        -9.0735
  65   2.0000      -0.327686        -8.9168
  66   2.0000      -0.284831        -7.7506
  67   0.0000       0.017647         0.4802
  68   0.0000       0.074498         2.0272
  69   0.0000       0.102275         2.7831
  70   0.0000       0.113817         3.0971
  71   0.0000       0.128550         3.4980

MULLIKEN ATOMIC CHARGES
-----------------------
   0 S :    0.097073
   1 C :   -0.148439
   2 C :   -0.034031
   3 C :   -0.038282
   4 C :   -0.121041
   5 H :    0.051947
   6 C :    0.053952
   7 H :    0.040700
   8 H :    0.027295
   9 C :   -0.054723
  10 H :    0.021893
  11 H :    0.018885
  12 C :   -0.070252
  13 H :    0.020662
  14 H :    0.042430
  15 H :    0.018761
  16 S :    0.102885
  17 C :   -0.052074
  18 C :   -0.057658
  19 C :   -0.030687
  20 C :   -0.142537
  21 H :    0.027126
  22 C :    0.068421
  23 H :    0.018897
  24 H :    0.004636
  25 C :   -0.055215
  26 H :    0.037838
  27 H :    0.035077
  28 C :   -0.112400
  29 H :    0.044775
  30 H :    0.043439
  31 H :    0.049489
  32 H :    0.064337
  33 H :    0.026819
Sum of atomic charges:   -0.0000000

LOEWDIN ATOMIC CHARGES
----------------------
   0 S :    0.394436
   1 C :   -0.191246
   2 C :   -0.058919
   3 C :   -0.071315
   4 C :   -0.193104
   5 H :    0.038188
   6 C :   -0.032143
   7 H :    0.041362
   8 H :    0.027294
   9 C :   -0.039710
  10 H :    0.022487
  11 H :    0.014920
  12 C :   -0.075012
  13 H :    0.023154
  14 H :    0.035104
  15 H :    0.021012
  16 S :    0.407603
  17 C :   -0.179165
  18 C :   -0.066559
  19 C :   -0.053669
  20 C :   -0.192644
  21 H :    0.034964
  22 C :   -0.033961
  23 H :    0.031593
  24 H :    0.018701
  25 C :   -0.027168
  26 H :    0.020848
  27 H :    0.027830
  28 C :   -0.079661
  29 H :    0.032058
  30 H :    0.026620
  31 H :    0.029967
  32 H :    0.033711
  33 H :    0.012422

  Mayer bond orders larger than 0.100000
B(  0-S ,  1-C ) :   1.1286 B(  0-S ,  4-C ) :   1.1488 B(  1-C ,  2-C ) :   1.6058
B(  1-C , 32-H ) :   0.9725 B(  2-C ,  3-C ) :   1.2477 B(  2-C ,  6-C ) :   1.0134
B(  3-C ,  4-C ) :   1.5509 B(  3-C ,  5-H ) :   0.9744 B(  4-C , 20-C ) :   1.1007
B(  6-C ,  7-H ) :   0.9406 B(  6-C ,  8-H ) :   0.9533 B(  6-C ,  9-C ) :   1.0570
B(  9-C , 10-H ) :   0.9495 B(  9-C , 11-H ) :   0.9584 B(  9-C , 12-C ) :   1.0771
B( 12-C , 13-H ) :   0.9716 B( 12-C , 14-H ) :   0.9759 B( 12-C , 15-H ) :   0.9752
B( 16-S , 17-C ) :   1.1543 B( 16-S , 20-C ) :   1.1263 B( 17-C , 18-C ) :   1.6266
B( 17-C , 33-H ) :   0.9735 B( 18-C , 19-C ) :   1.2237 B( 18-C , 21-H ) :   0.9876
B( 19-C , 20-C ) :   1.5933 B( 19-C , 22-C ) :   1.0481 B( 22-C , 23-H ) :   0.9337
B( 22-C , 24-H ) :   0.9380 B( 22-C , 25-C ) :   1.0586 B( 25-C , 26-H ) :   0.9611
B( 25-C , 27-H ) :   0.9584 B( 25-C , 28-C ) :   1.0702 B( 28-C , 29-H ) :   0.9759
B( 28-C , 30-H ) :   0.9762 B( 28-C , 31-H ) :   0.9750

Dispersion correction           -0.014046926
FINAL SINGLE POINT ENERGY     -1339.869096058344

DIPOLE MOMENT
-------------
                                X             Y             Z
Electronic contribution:     14.21286      29.63446      -1.12390
Nuclear contribution   :    -14.54276     -30.11457       1.02861
                        -----------------------------------------
Total Dipole Moment    :     -0.32990      -0.48011      -0.09529
                        -----------------------------------------
Magnitude (a.u.)       :      0.59027
Magnitude (Debye)      :      1.50035

Rotational constants in cm-1:     0.017219     0.009232     0.006890
Rotational constants in MHz :   516.200000   276.771349   206.561489

                             ****ORCA TERMINATED NORMALLY****
TOTAL RUN TIME: 0 days 0 hours 0 minutes 28 seconds 427 msec
