                         Program Version 4.2.1 -  RELEASE  -
|  1> ! wB97X-D3 SP def2-SVP
|  2> %pal
|  3> nprocs 16
|  4> end
|  5>
|  6> * xyz 0 1
|  7> S 	 -66.4637 	 56.4384 	 130.658
|  8> C 	 -65.6352 	 57.0984 	 132.006
|  9> C 	 -66.4501 	 57.0861 	 133.133
| 10> C 	 -67.7356 	 56.591 	 132.878
| 11> C 	 -67.9279 	 56.1542 	 131.594
| 12> H 	 -68.4894 	 56.3084 	 133.564
| 13> C 	 -66.0002 	 57.568 	 134.478
| 14> H 	 -66.6155 	 58.4502 	 134.592
| 15> H 	 -64.8589 	 57.7198 	 134.584
| 16> C 	 -66.4395 	 56.5401 	 135.605
| 17> H 	 -67.606 	 56.4522 	 135.526
| 18> H 	 -66.1429 	 55.5315 	 135.263
| 19> C 	 -65.9671 	 56.8382 	 137.006
| 20> H 	 -66.1119 	 57.8621 	 137.203
| 21> H 	 -66.4679 	 56.2968 	 137.788
| 22> H 	 -64.8603 	 56.8107 	 137.194
| 23> S 	 -69.5594 	 53.9844 	 131.672
| 24> C 	 -71.0869 	 54.0884 	 130.888
| 25> C 	 -71.3135 	 55.3666 	 130.398
| 26> C 	 -70.1536 	 56.2068 	 130.505
| 27> C 	 -69.0972 	 55.5322 	 131.059
| 28> H 	 -72.2085 	 55.7195 	 129.885
| 29> C 	 -70.1803 	 57.6115 	 130.016
| 30> H 	 -70.7032 	 57.7314 	 129.073
| 31> H 	 -69.1899 	 57.9436 	 129.879
| 32> C 	 -70.708 	 58.6951 	 131
| 33> H 	 -70.4597 	 59.709 	 130.647
| 34> H 	 -70.2581 	 58.4875 	 131.874
| 35> C 	 -72.178 	 58.4729 	 131.463
| 36> H 	 -72.3123 	 57.4867 	 132.003
| 37> H 	 -72.8981 	 58.5379 	 130.704
| 38> H 	 -72.5741 	 59.1708 	 132.224
| 39> H 	 -64.625 	 57.3973 	 132.084
| 40> H 	 -71.8685 	 53.39 	 131
| 41> *
| 42>
| 43>                          ****END OF INPUT****

CARTESIAN COORDINATES (ANGSTROEM)
---------------------------------
  S    -66.463700   56.438400  130.658000
  C    -65.635200   57.098400  132.006000
  C    -66.450100   57.086100  133.133000
  C    -67.735600   56.591000  132.878000
  C    -67.927900   56.154200  131.594000
  H    -68.489400   56.308400  133.564000
  C    -66.000200   57.568000  134.478000
  H    -66.615500   58.450200  134.592000
  H    -64.858900   57.719800  134.584000
  C    -66.439500   56.540100  135.605000
  H    -67.606000   56.452200  135.526000
  H    -66.142900   55.531500  135.263000
  C    -65.967100   56.838200  137.006000
  H    -66.111900   57.862100  137.203000
  H    -66.467900   56.296800  137.788000
  H    -64.860300   56.810700  137.194000
  S    -69.559400   53.984400  131.672000
  C    -71.086900   54.088400  130.888000
  C    -71.313500   55.366600  130.398000
  C    -70.153600   56.206800  130.505000
  C    -69.097200   55.532200  131.059000
  H    -72.208500   55.719500  129.885000
  C    -70.180300   57.611500  130.016000
  H    -70.703200   57.731400  129.073000
  H    -69.189900   57.943600  129.879000
  C    -70.708000   58.695100  131.000000
  H    -70.459700   59.709000  130.647000
  H    -70.258100   58.487500  131.874000
  C    -72.178000   58.472900  131.463000
  H    -72.312300   57.486700  132.003000
  H    -72.898100   58.537900  130.704000
  H    -72.574100   59.170800  132.224000
  H    -64.625000   57.397300  132.084000
  H    -71.868500   53.390000  131.000000

 Total Charge           Charge          ....    0
 Multiplicity           Mult            ....    1
 Number of Electrons    NEL             ....  134
 Basis Dimension        Dim             ....  322

ORBITAL ENERGIES
----------------

  NO   OCC          E(Eh)            E(eV)
   0   2.0000     -88.968483     -2420.9555
   1   2.0000     -88.964868     -2420.8571
   2   2.0000     -10.323382      -280.9135
   3   2.0000     -10.318211      -280.7728
   4   2.0000     -10.315428      -280.6971
   5   2.0000     -10.306281      -280.4482
   6   2.0000     -10.299622      -280.2670
   7   2.0000     -10.299479      -280.2631
   8   2.0000     -10.297445      -280.2077
   9   2.0000     -10.296182      -280.1734
  10   2.0000     -10.294354      -280.1236
  11   2.0000     -10.286647      -279.9139
  12   2.0000     -10.283417      -279.8260
  13   2.0000     -10.280115      -279.7362
  14   2.0000     -10.276386      -279.6347
  15   2.0000     -10.275397      -279.6078
  16   2.0000      -8.084063      -219.9785
  17   2.0000      -8.079669      -219.8590
  18   2.0000      -6.042439      -164.4231
  19   2.0000      -6.038500      -164.3159
  20   2.0000      -6.038082      -164.3046
  21   2.0000      -6.034859      -164.2169
  22   2.0000      -6.034004      -164.1936
  23   2.0000      -6.030696      -164.1036
  24   2.0000      -1.015494       -27.6330
  25   2.0000      -0.991006       -26.9666
  26   2.0000      -0.911788       -24.8110
  27   2.0000      -0.908247       -24.7146
  28   2.0000      -0.875352       -23.8195
  29   2.0000      -0.851791       -23.1784
  30   2.0000      -0.848496       -23.0888
  31   2.0000      -0.817153       -22.2359
  32   2.0000      -0.786441       -21.4001
  33   2.0000      -0.771537       -20.9946
  34   2.0000      -0.714190       -19.4341
  35   2.0000      -0.699658       -19.0386
  36   2.0000      -0.689811       -18.7707
  37   2.0000      -0.668876       -18.2010
  38   2.0000      -0.644647       -17.5417
  39   2.0000      -0.619743       -16.8641
  40   2.0000      -0.603042       -16.4096
  41   2.0000      -0.568446       -15.4682
  42   2.0000      -0.557749       -15.1771
  43   2.0000      -0.553954       -15.0738
  44   2.0000      -0.541848       -14.7444
  45   2.0000      -0.528071       -14.3695
  46   2.0000      -0.515806       -14.0358
  47   2.0000      -0.508116       -13.8265
  48   2.0000      -0.503364       -13.6972
  49   2.0000      -0.501561       -13.6482
  50   2.0000      -0.488494       -13.2926
  51   2.0000      -0.487871       -13.2757
  52   2.0000      -0.478013       -13.0074
  53   2.0000      -0.474150       -12.9023
  54   2.0000      -0.458868       -12.4864
  55   2.0000      -0.455763       -12.4019
  56   2.0000      -0.442731       -12.0473
  57   2.0000      -0.432563       -11.7706
  58   2.0000      -0.426990       -11.6190
  59   2.0000      -0.424175       -11.5424
  60   2.0000      -0.420096       -11.4314
  61   2.0000      -0.418463       -11.3870
  62   2.0000      -0.406613       -11.0645
  63   2.0000      -0.339879        -9.2486
  64   2.0000      -0.330585        -8.9957
  65   2.0000      -0.324451        -8.8288
  66   2.0000      -0.304661        -8.2902
  67   0.0000       0.043614         1.1868
  68   0.0000       0.054661         1.4874
  69   0.0000       0.113070         3.0768
  70   0.0000       0.123858         3.3703
  71   0.0000       0.132126         3.5953

MULLIKEN ATOMIC CHARGES
-----------------------
   0 S :    0.119934
   1 C :   -0.096394
   2 C :   -0.096553
   3 C :    0.055123
   4 C :   -0.206023
   5 H :   -0.001174
   6 C :    0.069351
   7 H :    0.041752
   8 H :    0.043976
   9 C :   -0.156798
  10 H :    0.042228
  11 H :    0.036430
  12 C :    0.005219
  13 H :    0.004871
  14 H :    0.036675
  15 H :    0.030845
  16 S :    0.119653
  17 C :   -0.064069
  18 C :   -0.029895
  19 C :   -0.053998
  20 C :   -0.159261
  21 H :    0.022349
  22 C :    0.109622
  23 H :    0.027462
  24 H :    0.004501
  25 C :   -0.007458
  26 H :    0.041628
  27 H :   -0.001837
  28 C :   -0.095554
  29 H :    0.043023
  30 H :    0.012731
  31 H :    0.029746
  32 H :    0.026595
  33 H :    0.045299
Sum of atomic charges:    0.0000000

LOEWDIN ATOMIC CHARGES
----------------------
   0 S :    0.419917
   1 C :   -0.208918
   2 C :   -0.066815
   3 C :   -0.065640
   4 C :   -0.190603
   5 H :    0.024584
   6 C :   -0.032867
   7 H :    0.034902
   8 H :    0.039016
   9 C :   -0.051330
  10 H :    0.031363
  11 H :    0.022728
  12 C :   -0.072469
  13 H :    0.019675
  14 H :    0.028278
  15 H :    0.032718
  16 S :    0.435504
  17 C :   -0.187339
  18 C :   -0.065326
  19 C :   -0.045933
  20 C :   -0.219148
  21 H :    0.032158
  22 C :   -0.025899
  23 H :    0.029914
  24 H :    0.024740
  25 C :   -0.022355
  26 H :    0.029833
  27 H :    0.010758
  28 C :   -0.075956
  29 H :    0.034037
  30 H :    0.008220
  31 H :    0.028122
  32 H :    0.022513
  33 H :    0.021620

  Mayer bond orders larger than 0.100000
B(  0-S ,  1-C ) :   1.1471 B(  0-S ,  4-C ) :   1.1573 B(  1-C ,  2-C ) :   1.5973
B(  1-C ,  4-C ) :   0.1001 B(  1-C , 32-H ) :   0.9743 B(  2-C ,  3-C ) :   1.2411
B(  2-C ,  6-C ) :   1.0216 B(  3-C ,  4-C ) :   1.5918 B(  3-C ,  5-H ) :   0.9926
B(  4-C , 20-C ) :   1.0038 B(  6-C ,  7-H ) :   0.9273 B(  6-C ,  8-H ) :   0.9496
B(  6-C ,  9-C ) :   1.0504 B(  9-C , 10-H ) :   0.9472 B(  9-C , 11-H ) :   0.9631
B(  9-C , 12-C ) :   1.0837 B( 12-C , 13-H ) :   0.9658 B( 12-C , 14-H ) :   0.9723
B( 12-C , 15-H ) :   0.9699 B( 16-S , 17-C ) :   1.1703 B( 16-S , 20-C ) :   1.1481
B( 17-C , 18-C ) :   1.5797 B( 17-C , 33-H ) :   0.9714 B( 18-C , 19-C ) :   1.2673
B( 18-C , 21-H ) :   0.9858 B( 19-C , 20-C ) :   1.5891 B( 19-C , 22-C ) :   1.0557
B( 22-C , 23-H ) :   0.9396 B( 22-C , 24-H ) :   0.9143 B( 22-C , 25-C ) :   1.0721
B( 25-C , 26-H ) :   0.9601 B( 25-C , 27-H ) :   0.9457 B( 25-C , 28-C ) :   1.0699
B( 28-C , 29-H ) :   0.9696 B( 28-C , 30-H ) :   0.9790 B( 28-C , 31-H ) :   0.9740

Dispersion correction           -0.015071717
FINAL SINGLE POINT ENERGY     -1339.862500152767

DIPOLE MOMENT
-------------
                                X             Y             Z
Electronic contribution:      4.93709     -15.17525     -16.56007
Nuclear contribution   :     -5.19109      15.51807      17.00828
                        -----------------------------------------
Total Dipole Moment    :     -0.25399       0.34282       0.44821
                        -----------------------------------------
Magnitude (a.u.)       :      0.61881
Magnitude (Debye)      :      1.57290

Rotational constants in cm-1:     0.018586     0.008112     0.007944
Rotational constants in MHz :   557.190762   243.189374   238.148200

                             ****ORCA TERMINATED NORMALLY****
TOTAL RUN TIME: 0 days 0 hours 0 minutes 33 seconds 687 msec
