                         Program Version 4.2.1 -  RELEASE  -
|  1> ! wB97X-D3 SP def2-SVP
|  2> %pal
|  3> nprocs 16
|  4> end
|  5>
|  6> * xyz 0 1
|  7> S 	 -57.3652 	 51.5473 	 137.35
|  8> C 	 -57.1921 	 53.0248 	 136.456
|  9> C 	 -57.6842 	 54.1587 	 137.14
| 10> C 	 -58.0023 	 53.7813 	 138.494
| 11> C 	 -57.8096 	 52.4288 	 138.755
| 12> H 	 -58.238 	 54.4791 	 139.284
| 13> C 	 -57.7682 	 55.5296 	 136.508
| 14> H 	 -57.4207 	 55.4131 	 135.522
| 15> H 	 -57.024 	 56.1345 	 136.993
| 16> C 	 -59.0692 	 56.3267 	 136.658
| 17> H 	 -59.8973 	 55.6751 	 136.444
| 18> H 	 -59.0708 	 56.5695 	 137.72
| 19> C 	 -58.9701 	 57.6094 	 135.834
| 20> H 	 -59.492 	 57.5311 	 134.813
| 21> H 	 -59.4894 	 58.4156 	 136.349
| 22> H 	 -57.8993 	 57.7648 	 135.581
| 23> S 	 -56.5118 	 51.3334 	 140.928
| 24> C 	 -57.3595 	 50.2773 	 141.973
| 25> C 	 -58.7623 	 50.3162 	 141.754
| 26> C 	 -59.0915 	 51.1397 	 140.645
| 27> C 	 -57.9803 	 51.7327 	 140.006
| 28> H 	 -59.5575 	 49.8596 	 142.404
| 29> C 	 -60.525 	 51.285 	 140.049
| 30> H 	 -60.4351 	 51.035 	 138.952
| 31> H 	 -60.6366 	 52.3571 	 140.114
| 32> C 	 -61.6961 	 50.7527 	 140.804
| 33> H 	 -61.697 	 51.3708 	 141.732
| 34> H 	 -61.5895 	 49.7883 	 141.086
| 35> C 	 -62.9883 	 51.0735 	 140.124
| 36> H 	 -63.029 	 50.6251 	 139.138
| 37> H 	 -63.0968 	 52.1467 	 140.008
| 38> H 	 -63.7505 	 50.7598 	 140.852
| 39> H 	 -56.891 	 53.0286 	 135.404
| 40> H 	 -56.8583 	 49.7656 	 142.749
| 41> *
| 42>
| 43>                          ****END OF INPUT****

CARTESIAN COORDINATES (ANGSTROEM)
---------------------------------
  S    -57.365200   51.547300  137.350000
  C    -57.192100   53.024800  136.456000
  C    -57.684200   54.158700  137.140000
  C    -58.002300   53.781300  138.494000
  C    -57.809600   52.428800  138.755000
  H    -58.238000   54.479100  139.284000
  C    -57.768200   55.529600  136.508000
  H    -57.420700   55.413100  135.522000
  H    -57.024000   56.134500  136.993000
  C    -59.069200   56.326700  136.658000
  H    -59.897300   55.675100  136.444000
  H    -59.070800   56.569500  137.720000
  C    -58.970100   57.609400  135.834000
  H    -59.492000   57.531100  134.813000
  H    -59.489400   58.415600  136.349000
  H    -57.899300   57.764800  135.581000
  S    -56.511800   51.333400  140.928000
  C    -57.359500   50.277300  141.973000
  C    -58.762300   50.316200  141.754000
  C    -59.091500   51.139700  140.645000
  C    -57.980300   51.732700  140.006000
  H    -59.557500   49.859600  142.404000
  C    -60.525000   51.285000  140.049000
  H    -60.435100   51.035000  138.952000
  H    -60.636600   52.357100  140.114000
  C    -61.696100   50.752700  140.804000
  H    -61.697000   51.370800  141.732000
  H    -61.589500   49.788300  141.086000
  C    -62.988300   51.073500  140.124000
  H    -63.029000   50.625100  139.138000
  H    -63.096800   52.146700  140.008000
  H    -63.750500   50.759800  140.852000
  H    -56.891000   53.028600  135.404000
  H    -56.858300   49.765600  142.749000

 Total Charge           Charge          ....    0
 Multiplicity           Mult            ....    1
 Number of Electrons    NEL             ....  134
 Basis Dimension        Dim             ....  322

ORBITAL ENERGIES
----------------

  NO   OCC          E(Eh)            E(eV)
   0   2.0000     -88.965991     -2420.8877
   1   2.0000     -88.963169     -2420.8109
   2   2.0000     -10.323004      -280.9032
   3   2.0000     -10.319699      -280.8133
   4   2.0000     -10.317004      -280.7400
   5   2.0000     -10.313547      -280.6459
   6   2.0000     -10.304664      -280.4041
   7   2.0000     -10.303616      -280.3756
   8   2.0000     -10.298693      -280.2417
   9   2.0000     -10.295219      -280.1472
  10   2.0000     -10.288024      -279.9514
  11   2.0000     -10.288016      -279.9512
  12   2.0000     -10.286119      -279.8995
  13   2.0000     -10.285669      -279.8873
  14   2.0000     -10.276030      -279.6250
  15   2.0000     -10.275506      -279.6107
  16   2.0000      -8.081420      -219.9066
  17   2.0000      -8.078112      -219.8166
  18   2.0000      -6.039703      -164.3487
  19   2.0000      -6.036417      -164.2593
  20   2.0000      -6.035864      -164.2442
  21   2.0000      -6.032370      -164.1491
  22   2.0000      -6.032342      -164.1484
  23   2.0000      -6.029315      -164.0660
  24   2.0000      -1.003998       -27.3202
  25   2.0000      -0.980031       -26.6680
  26   2.0000      -0.918213       -24.9859
  27   2.0000      -0.916877       -24.9495
  28   2.0000      -0.866477       -23.5780
  29   2.0000      -0.852036       -23.1851
  30   2.0000      -0.846884       -23.0449
  31   2.0000      -0.808450       -21.9990
  32   2.0000      -0.781710       -21.2714
  33   2.0000      -0.766684       -20.8625
  34   2.0000      -0.709020       -19.2934
  35   2.0000      -0.703893       -19.1539
  36   2.0000      -0.687544       -18.7090
  37   2.0000      -0.647895       -17.6301
  38   2.0000      -0.643713       -17.5163
  39   2.0000      -0.616684       -16.7808
  40   2.0000      -0.597225       -16.2513
  41   2.0000      -0.578741       -15.7484
  42   2.0000      -0.575672       -15.6648
  43   2.0000      -0.558777       -15.2051
  44   2.0000      -0.533528       -14.5180
  45   2.0000      -0.530324       -14.4308
  46   2.0000      -0.512907       -13.9569
  47   2.0000      -0.507701       -13.8152
  48   2.0000      -0.500714       -13.6251
  49   2.0000      -0.489770       -13.3273
  50   2.0000      -0.487364       -13.2618
  51   2.0000      -0.484642       -13.1878
  52   2.0000      -0.472394       -12.8545
  53   2.0000      -0.464998       -12.6532
  54   2.0000      -0.455595       -12.3974
  55   2.0000      -0.451619       -12.2892
  56   2.0000      -0.446818       -12.1585
  57   2.0000      -0.439850       -11.9689
  58   2.0000      -0.431029       -11.7289
  59   2.0000      -0.427521       -11.6334
  60   2.0000      -0.421268       -11.4633
  61   2.0000      -0.419323       -11.4104
  62   2.0000      -0.411403       -11.1948
  63   2.0000      -0.333794        -9.0830
  64   2.0000      -0.327476        -8.9111
  65   2.0000      -0.312318        -8.4986
  66   2.0000      -0.304419        -8.2837
  67   0.0000       0.040119         1.0917
  68   0.0000       0.054842         1.4923
  69   0.0000       0.115027         3.1301
  70   0.0000       0.125609         3.4180
  71   0.0000       0.132445         3.6040

MULLIKEN ATOMIC CHARGES
-----------------------
   0 S :    0.139803
   1 C :   -0.141969
   2 C :   -0.097055
   3 C :    0.050363
   4 C :   -0.190755
   5 H :    0.011011
   6 C :    0.080632
   7 H :   -0.001379
   8 H :    0.027912
   9 C :   -0.067629
  10 H :    0.036374
  11 H :    0.029919
  12 C :   -0.065909
  13 H :    0.044188
  14 H :    0.042507
  15 H :    0.040947
  16 S :    0.119815
  17 C :   -0.079139
  18 C :   -0.063612
  19 C :   -0.033914
  20 C :   -0.203232
  21 H :    0.040859
  22 C :    0.060353
  23 H :    0.045920
  24 H :    0.019756
  25 C :   -0.067493
  26 H :    0.023789
  27 H :    0.011609
  28 C :   -0.008611
  29 H :    0.035320
  30 H :    0.021979
  31 H :    0.036704
  32 H :    0.052445
  33 H :    0.048491
Sum of atomic charges:   -0.0000000

LOEWDIN ATOMIC CHARGES
----------------------
   0 S :    0.434620
   1 C :   -0.207756
   2 C :   -0.058283
   3 C :   -0.057301
   4 C :   -0.216919
   5 H :    0.030303
   6 C :   -0.032402
   7 H :    0.019555
   8 H :    0.031421
   9 C :   -0.038321
  10 H :    0.022493
  11 H :    0.025089
  12 C :   -0.070109
  13 H :    0.036030
  14 H :    0.027755
  15 H :    0.030667
  16 S :    0.423705
  17 C :   -0.187697
  18 C :   -0.089800
  19 C :   -0.046618
  20 C :   -0.218145
  21 H :    0.040635
  22 C :   -0.037035
  23 H :    0.035937
  24 H :    0.033666
  25 C :   -0.042224
  26 H :    0.032741
  27 H :    0.004324
  28 C :   -0.053444
  29 H :    0.025126
  30 H :    0.024508
  31 H :    0.032141
  32 H :    0.026163
  33 H :    0.019174

  Mayer bond orders larger than 0.100000
B(  0-S ,  1-C ) :   1.1572 B(  0-S ,  4-C ) :   1.1697 B(  1-C ,  2-C ) :   1.5905
B(  1-C , 32-H ) :   0.9630 B(  2-C ,  3-C ) :   1.2428 B(  2-C ,  6-C ) :   1.0333
B(  3-C ,  4-C ) :   1.5732 B(  3-C ,  5-H ) :   0.9946 B(  4-C , 20-C ) :   1.0290
B(  6-C ,  7-H ) :   0.9377 B(  6-C ,  8-H ) :   0.9271 B(  6-C ,  9-C ) :   1.0601
B(  9-C , 10-H ) :   0.9648 B(  9-C , 11-H ) :   0.9541 B(  9-C , 12-C ) :   1.0714
B( 12-C , 13-H ) :   0.9743 B( 12-C , 14-H ) :   0.9748 B( 12-C , 15-H ) :   0.9742
B( 16-S , 17-C ) :   1.2067 B( 16-S , 20-C ) :   1.1508 B( 17-C , 18-C ) :   1.5235
B( 17-C , 20-C ) :   0.1156 B( 17-C , 33-H ) :   0.9722 B( 18-C , 19-C ) :   1.3100
B( 18-C , 21-H ) :   0.9757 B( 19-C , 20-C ) :   1.5614 B( 19-C , 22-C ) :   1.0068
B( 22-C , 23-H ) :   0.9322 B( 22-C , 24-H ) :   0.9337 B( 22-C , 25-C ) :   1.0775
B( 25-C , 26-H ) :   0.9483 B( 25-C , 27-H ) :   0.9508 B( 25-C , 28-C ) :   1.0925
B( 28-C , 29-H ) :   0.9738 B( 28-C , 30-H ) :   0.9717 B( 28-C , 31-H ) :   0.9708

Dispersion correction           -0.013370484
FINAL SINGLE POINT ENERGY     -1339.868769993145

DIPOLE MOMENT
-------------
                                X             Y             Z
Electronic contribution:     21.68011     -16.08571       5.90194
Nuclear contribution   :    -22.14112      16.47009      -5.92809
                        -----------------------------------------
Total Dipole Moment    :     -0.46101       0.38437      -0.02615
                        -----------------------------------------
Magnitude (a.u.)       :      0.60080
Magnitude (Debye)      :      1.52710

Rotational constants in cm-1:     0.017513     0.007805     0.006236
Rotational constants in MHz :   525.012160   233.983138   186.958873

                             ****ORCA TERMINATED NORMALLY****
TOTAL RUN TIME: 0 days 0 hours 0 minutes 35 seconds 700 msec
