                         Program Version 4.2.1 -  RELEASE  -
|  1> ! wB97X-D3 SP def2-SVP
|  2> %pal
|  3> nprocs 16
|  4> end
|  5>
|  6> * xyz 0 1
|  7> S 	 -107.783 	 52.6474 	 115.866
|  8> C 	 -108.795 	 53.2494 	 117.246
|  9> C 	 -108.09 	 54.2099 	 118.048
| 10> C 	 -106.738 	 54.3897 	 117.603
| 11> C 	 -106.464 	 53.7211 	 116.405
| 12> H 	 -106.081 	 55.1016 	 117.981
| 13> C 	 -108.505 	 54.8971 	 119.312
| 14> H 	 -107.674 	 55.3551 	 119.802
| 15> H 	 -108.937 	 54.2363 	 120.057
| 16> C 	 -109.489 	 56.0723 	 119.111
| 17> H 	 -110.313 	 55.7933 	 118.488
| 18> H 	 -109.894 	 56.3281 	 120.106
| 19> C 	 -108.861 	 57.3417 	 118.506
| 20> H 	 -109.484 	 58.2425 	 118.357
| 21> H 	 -108.064 	 57.6117 	 119.262
| 22> H 	 -108.389 	 57.1268 	 117.543
| 23> S 	 -104.316 	 52.1804 	 115.329
| 24> C 	 -102.88 	 53.0727 	 114.785
| 25> C 	 -103.093 	 54.4187 	 114.931
| 26> C 	 -104.371 	 54.7714 	 115.442
| 27> C 	 -105.22 	 53.7123 	 115.65
| 28> H 	 -102.288 	 55.0284 	 114.61
| 29> C 	 -104.615 	 56.2749 	 115.638
| 30> H 	 -103.651 	 56.6229 	 115.928
| 31> H 	 -105.127 	 56.4661 	 116.53
| 32> C 	 -105.161 	 57.1722 	 114.407
| 33> H 	 -104.459 	 57.1821 	 113.568
| 34> H 	 -105.22 	 58.192 	 114.784
| 35> C 	 -106.525 	 56.6482 	 113.874
| 36> H 	 -107.247 	 56.859 	 114.647
| 37> H 	 -106.506 	 55.5776 	 113.876
| 38> H 	 -106.819 	 57.028 	 112.85
| 39> H 	 -109.705 	 52.8431 	 117.649
| 40> H 	 -102.047 	 52.5961 	 114.27
| 41> *
| 42>
| 43>                          ****END OF INPUT****

CARTESIAN COORDINATES (ANGSTROEM)
---------------------------------
  S    -107.783000   52.647400  115.866000
  C    -108.795000   53.249400  117.246000
  C    -108.090000   54.209900  118.048000
  C    -106.738000   54.389700  117.603000
  C    -106.464000   53.721100  116.405000
  H    -106.081000   55.101600  117.981000
  C    -108.505000   54.897100  119.312000
  H    -107.674000   55.355100  119.802000
  H    -108.937000   54.236300  120.057000
  C    -109.489000   56.072300  119.111000
  H    -110.313000   55.793300  118.488000
  H    -109.894000   56.328100  120.106000
  C    -108.861000   57.341700  118.506000
  H    -109.484000   58.242500  118.357000
  H    -108.064000   57.611700  119.262000
  H    -108.389000   57.126800  117.543000
  S    -104.316000   52.180400  115.329000
  C    -102.880000   53.072700  114.785000
  C    -103.093000   54.418700  114.931000
  C    -104.371000   54.771400  115.442000
  C    -105.220000   53.712300  115.650000
  H    -102.288000   55.028400  114.610000
  C    -104.615000   56.274900  115.638000
  H    -103.651000   56.622900  115.928000
  H    -105.127000   56.466100  116.530000
  C    -105.161000   57.172200  114.407000
  H    -104.459000   57.182100  113.568000
  H    -105.220000   58.192000  114.784000
  C    -106.525000   56.648200  113.874000
  H    -107.247000   56.859000  114.647000
  H    -106.506000   55.577600  113.876000
  H    -106.819000   57.028000  112.850000
  H    -109.705000   52.843100  117.649000
  H    -102.047000   52.596100  114.270000

 Total Charge           Charge          ....    0
 Multiplicity           Mult            ....    1
 Number of Electrons    NEL             ....  134
 Basis Dimension        Dim             ....  322

ORBITAL ENERGIES
----------------

  NO   OCC          E(Eh)            E(eV)
   0   2.0000     -88.974859     -2421.1290
   1   2.0000     -88.963785     -2420.8277
   2   2.0000     -10.336625      -281.2739
   3   2.0000     -10.330423      -281.1051
   4   2.0000     -10.324010      -280.9306
   5   2.0000     -10.321173      -280.8534
   6   2.0000     -10.309392      -280.5328
   7   2.0000     -10.305365      -280.4232
   8   2.0000     -10.295440      -280.1532
   9   2.0000     -10.293757      -280.1074
  10   2.0000     -10.292597      -280.0758
  11   2.0000     -10.290984      -280.0319
  12   2.0000     -10.290698      -280.0241
  13   2.0000     -10.287159      -279.9278
  14   2.0000     -10.283721      -279.8343
  15   2.0000     -10.272849      -279.5384
  16   2.0000      -8.087444      -220.0705
  17   2.0000      -8.077535      -219.8009
  18   2.0000      -6.046091      -164.5225
  19   2.0000      -6.042273      -164.4186
  20   2.0000      -6.038173      -164.3070
  21   2.0000      -6.036234      -164.2543
  22   2.0000      -6.032191      -164.1443
  23   2.0000      -6.028128      -164.0337
  24   2.0000      -0.999333       -27.1932
  25   2.0000      -0.974590       -26.5199
  26   2.0000      -0.913806       -24.8659
  27   2.0000      -0.896998       -24.4086
  28   2.0000      -0.865853       -23.5611
  29   2.0000      -0.849594       -23.1186
  30   2.0000      -0.842230       -22.9183
  31   2.0000      -0.811346       -22.0779
  32   2.0000      -0.784357       -21.3434
  33   2.0000      -0.773905       -21.0590
  34   2.0000      -0.708843       -19.2886
  35   2.0000      -0.701974       -19.1017
  36   2.0000      -0.693891       -18.8817
  37   2.0000      -0.662176       -18.0187
  38   2.0000      -0.640268       -17.4226
  39   2.0000      -0.620171       -16.8757
  40   2.0000      -0.595517       -16.2048
  41   2.0000      -0.576855       -15.6970
  42   2.0000      -0.552713       -15.0401
  43   2.0000      -0.547812       -14.9067
  44   2.0000      -0.540834       -14.7168
  45   2.0000      -0.533808       -14.5256
  46   2.0000      -0.517691       -14.0871
  47   2.0000      -0.506690       -13.7877
  48   2.0000      -0.498426       -13.5629
  49   2.0000      -0.495853       -13.4929
  50   2.0000      -0.491860       -13.3842
  51   2.0000      -0.470348       -12.7988
  52   2.0000      -0.468037       -12.7359
  53   2.0000      -0.465258       -12.6603
  54   2.0000      -0.456251       -12.4152
  55   2.0000      -0.445158       -12.1134
  56   2.0000      -0.442668       -12.0456
  57   2.0000      -0.441180       -12.0051
  58   2.0000      -0.433434       -11.7943
  59   2.0000      -0.424774       -11.5587
  60   2.0000      -0.419001       -11.4016
  61   2.0000      -0.416061       -11.3216
  62   2.0000      -0.413487       -11.2516
  63   2.0000      -0.345979        -9.4146
  64   2.0000      -0.334797        -9.1103
  65   2.0000      -0.331172        -9.0116
  66   2.0000      -0.292086        -7.9481
  67   0.0000       0.017195         0.4679
  68   0.0000       0.064449         1.7537
  69   0.0000       0.097016         2.6399
  70   0.0000       0.114972         3.1285
  71   0.0000       0.117508         3.1976

MULLIKEN ATOMIC CHARGES
-----------------------
   0 S :    0.112829
   1 C :   -0.092421
   2 C :   -0.109992
   3 C :    0.064129
   4 C :   -0.177012
   5 H :   -0.004260
   6 C :    0.071123
   7 H :    0.008202
   8 H :    0.036456
   9 C :   -0.062751
  10 H :    0.025261
  11 H :    0.027999
  12 C :   -0.092142
  13 H :    0.047940
  14 H :    0.024961
  15 H :    0.043357
  16 S :    0.080027
  17 C :   -0.104713
  18 C :   -0.019852
  19 C :   -0.064792
  20 C :   -0.099717
  21 H :    0.011614
  22 C :    0.100486
  23 H :    0.004230
  24 H :   -0.006541
  25 C :   -0.055526
  26 H :    0.027781
  27 H :    0.035261
  28 C :   -0.050828
  29 H :    0.026151
  30 H :    0.031229
  31 H :    0.049692
  32 H :    0.043250
  33 H :    0.068569
Sum of atomic charges:    0.0000000

LOEWDIN ATOMIC CHARGES
----------------------
   0 S :    0.382181
   1 C :   -0.187360
   2 C :   -0.051497
   3 C :   -0.048885
   4 C :   -0.173262
   5 H :    0.019826
   6 C :   -0.029964
   7 H :    0.026583
   8 H :    0.034876
   9 C :   -0.036090
  10 H :    0.016952
  11 H :    0.024425
  12 C :   -0.074870
  13 H :    0.030141
  14 H :    0.026284
  15 H :    0.024034
  16 S :    0.365315
  17 C :   -0.168936
  18 C :   -0.069246
  19 C :   -0.054613
  20 C :   -0.192105
  21 H :    0.029044
  22 C :   -0.025443
  23 H :    0.028624
  24 H :    0.016679
  25 C :   -0.028248
  26 H :    0.020868
  27 H :    0.023961
  28 C :   -0.069968
  29 H :    0.023909
  30 H :    0.023374
  31 H :    0.033356
  32 H :    0.025680
  33 H :    0.034376

  Mayer bond orders larger than 0.100000
B(  0-S ,  1-C ) :   1.1234 B(  0-S ,  4-C ) :   1.1435 B(  1-C ,  2-C ) :   1.6086
B(  1-C ,  4-C ) :   0.1052 B(  1-C , 32-H ) :   0.9645 B(  2-C ,  3-C ) :   1.2441
B(  2-C ,  6-C ) :   1.0310 B(  3-C ,  4-C ) :   1.5710 B(  3-C ,  5-H ) :   0.9903
B(  4-C , 20-C ) :   1.0463 B(  6-C ,  7-H ) :   0.9433 B(  6-C ,  8-H ) :   0.9375
B(  6-C ,  9-C ) :   1.0642 B(  9-C , 10-H ) :   0.9596 B(  9-C , 11-H ) :   0.9572
B(  9-C , 12-C ) :   1.0668 B( 12-C , 13-H ) :   0.9751 B( 12-C , 14-H ) :   0.9748
B( 12-C , 15-H ) :   0.9775 B( 16-S , 17-C ) :   1.1444 B( 16-S , 20-C ) :   1.1103
B( 17-C , 18-C ) :   1.6220 B( 17-C , 33-H ) :   0.9642 B( 18-C , 19-C ) :   1.2271
B( 18-C , 21-H ) :   0.9985 B( 19-C , 20-C ) :   1.6067 B( 19-C , 22-C ) :   1.0303
B( 22-C , 23-H ) :   0.9268 B( 22-C , 24-H ) :   0.9342 B( 22-C , 25-C ) :   1.0585
B( 25-C , 26-H ) :   0.9610 B( 25-C , 27-H ) :   0.9584 B( 25-C , 28-C ) :   1.0657
B( 28-C , 29-H ) :   0.9755 B( 28-C , 30-H ) :   0.9756 B( 28-C , 31-H ) :   0.9747

Dispersion correction           -0.015578325
FINAL SINGLE POINT ENERGY     -1339.866131077625

DIPOLE MOMENT
-------------
                                X             Y             Z
Electronic contribution:      8.17122     -26.54672      -6.51176
Nuclear contribution   :     -8.00702      27.16654       6.85458
                        -----------------------------------------
Total Dipole Moment    :      0.16420       0.61982       0.34281
                        -----------------------------------------
Magnitude (a.u.)       :      0.72709
Magnitude (Debye)      :      1.84812

Rotational constants in cm-1:     0.019205     0.009506     0.007506
Rotational constants in MHz :   575.755654   284.988967   225.031935

                             ****ORCA TERMINATED NORMALLY****
TOTAL RUN TIME: 0 days 0 hours 0 minutes 33 seconds 29 msec
