                         Program Version 4.2.1 -  RELEASE  -
|  1> ! wB97X-D3 SP def2-SVP
|  2> %pal
|  3> nprocs 16
|  4> end
|  5>
|  6> * xyz 0 1
|  7> S 	 -19.5851 	 -3.51514 	 85.9013
|  8> C 	 -19.4197 	 -2.09934 	 84.9637
|  9> C 	 -18.2117 	 -1.4131 	 85.2184
| 10> C 	 -17.3564 	 -2.12765 	 86.1238
| 11> C 	 -17.9504 	 -3.31421 	 86.4905
| 12> H 	 -16.3767 	 -1.88825 	 86.4063
| 13> C 	 -17.694 	 -0.175833 	 84.4994
| 14> H 	 -16.6414 	 -0.276411 	 84.1543
| 15> H 	 -17.6854 	 0.523336 	 85.3124
| 16> C 	 -18.575 	 0.375095 	 83.3223
| 17> H 	 -19.6685 	 0.317043 	 83.5598
| 18> H 	 -18.287 	 1.39991 	 83.2145
| 19> C 	 -18.3225 	 -0.383891 	 82.0277
| 20> H 	 -17.273 	 -0.259621 	 81.9062
| 21> H 	 -18.4478 	 -1.48915 	 82.1006
| 22> H 	 -18.9025 	 0.020295 	 81.1337
| 23> S 	 -16.2486 	 -5.4737 	 86.653
| 24> C 	 -16.2825 	 -6.52406 	 88.0264
| 25> C 	 -17.085 	 -6.00866 	 89.0324
| 26> C 	 -17.6947 	 -4.80664 	 88.6832
| 27> C 	 -17.328 	 -4.33882 	 87.3618
| 28> H 	 -17.3015 	 -6.44527 	 90.0295
| 29> C 	 -18.7186 	 -4.1908 	 89.6261
| 30> H 	 -19.6603 	 -4.59532 	 89.3737
| 31> H 	 -18.6214 	 -3.18107 	 89.3022
| 32> C 	 -18.723 	 -4.32031 	 91.1984
| 33> H 	 -17.874 	 -3.83237 	 91.6933
| 34> H 	 -18.6311 	 -5.35661 	 91.4028
| 35> C 	 -20.0499 	 -3.76334 	 91.7935
| 36> H 	 -20.9057 	 -4.45771 	 91.7861
| 37> H 	 -20.5257 	 -2.85209 	 91.3007
| 38> H 	 -19.8562 	 -3.45138 	 92.8186
| 39> H 	 -20.188 	 -1.69074 	 84.2548
| 40> H 	 -15.6335 	 -7.31449 	 88.3466
| 41> *
| 42>
| 43>                          ****END OF INPUT****

CARTESIAN COORDINATES (ANGSTROEM)
---------------------------------
  S    -19.585100   -3.515140   85.901300
  C    -19.419700   -2.099340   84.963700
  C    -18.211700   -1.413100   85.218400
  C    -17.356400   -2.127650   86.123800
  C    -17.950400   -3.314210   86.490500
  H    -16.376700   -1.888250   86.406300
  C    -17.694000   -0.175833   84.499400
  H    -16.641400   -0.276411   84.154300
  H    -17.685400    0.523336   85.312400
  C    -18.575000    0.375095   83.322300
  H    -19.668500    0.317043   83.559800
  H    -18.287000    1.399910   83.214500
  C    -18.322500   -0.383891   82.027700
  H    -17.273000   -0.259621   81.906200
  H    -18.447800   -1.489150   82.100600
  H    -18.902500    0.020295   81.133700
  S    -16.248600   -5.473700   86.653000
  C    -16.282500   -6.524060   88.026400
  C    -17.085000   -6.008660   89.032400
  C    -17.694700   -4.806640   88.683200
  C    -17.328000   -4.338820   87.361800
  H    -17.301500   -6.445270   90.029500
  C    -18.718600   -4.190800   89.626100
  H    -19.660300   -4.595320   89.373700
  H    -18.621400   -3.181070   89.302200
  C    -18.723000   -4.320310   91.198400
  H    -17.874000   -3.832370   91.693300
  H    -18.631100   -5.356610   91.402800
  C    -20.049900   -3.763340   91.793500
  H    -20.905700   -4.457710   91.786100
  H    -20.525700   -2.852090   91.300700
  H    -19.856200   -3.451380   92.818600
  H    -20.188000   -1.690740   84.254800
  H    -15.633500   -7.314490   88.346600

 Total Charge           Charge          ....    0
 Multiplicity           Mult            ....    1
 Number of Electrons    NEL             ....  134
 Basis Dimension        Dim             ....  322

ORBITAL ENERGIES
----------------

  NO   OCC          E(Eh)            E(eV)
   0   2.0000     -88.969315     -2420.9781
   1   2.0000     -88.968686     -2420.9610
   2   2.0000     -10.327853      -281.0352
   3   2.0000     -10.324920      -280.9553
   4   2.0000     -10.315533      -280.6999
   5   2.0000     -10.311735      -280.5966
   6   2.0000     -10.303335      -280.3680
   7   2.0000     -10.300033      -280.2781
   8   2.0000     -10.295667      -280.1593
   9   2.0000     -10.293341      -280.0961
  10   2.0000     -10.291911      -280.0571
  11   2.0000     -10.290629      -280.0222
  12   2.0000     -10.287001      -279.9235
  13   2.0000     -10.286142      -279.9002
  14   2.0000     -10.282353      -279.7970
  15   2.0000     -10.280013      -279.7334
  16   2.0000      -8.084096      -219.9794
  17   2.0000      -8.083850      -219.9727
  18   2.0000      -6.042552      -164.4262
  19   2.0000      -6.042191      -164.4164
  20   2.0000      -6.038367      -164.3123
  21   2.0000      -6.038279      -164.3099
  22   2.0000      -6.035242      -164.2273
  23   2.0000      -6.034699      -164.2125
  24   2.0000      -1.006402       -27.3856
  25   2.0000      -0.985935       -26.8286
  26   2.0000      -0.909481       -24.7482
  27   2.0000      -0.903172       -24.5766
  28   2.0000      -0.864623       -23.5276
  29   2.0000      -0.855282       -23.2734
  30   2.0000      -0.848775       -23.0963
  31   2.0000      -0.811077       -22.0705
  32   2.0000      -0.779188       -21.2028
  33   2.0000      -0.763803       -20.7841
  34   2.0000      -0.709004       -19.2930
  35   2.0000      -0.702679       -19.1209
  36   2.0000      -0.692252       -18.8371
  37   2.0000      -0.649951       -17.6861
  38   2.0000      -0.645238       -17.5578
  39   2.0000      -0.607383       -16.5277
  40   2.0000      -0.592577       -16.1248
  41   2.0000      -0.578251       -15.7350
  42   2.0000      -0.566073       -15.4036
  43   2.0000      -0.552464       -15.0333
  44   2.0000      -0.536855       -14.6086
  45   2.0000      -0.516021       -14.0416
  46   2.0000      -0.513133       -13.9631
  47   2.0000      -0.507669       -13.8144
  48   2.0000      -0.501471       -13.6457
  49   2.0000      -0.490954       -13.3595
  50   2.0000      -0.488353       -13.2887
  51   2.0000      -0.484335       -13.1794
  52   2.0000      -0.472122       -12.8471
  53   2.0000      -0.466880       -12.7044
  54   2.0000      -0.462467       -12.5844
  55   2.0000      -0.452398       -12.3104
  56   2.0000      -0.443193       -12.0599
  57   2.0000      -0.432976       -11.7819
  58   2.0000      -0.430136       -11.7046
  59   2.0000      -0.424827       -11.5601
  60   2.0000      -0.420476       -11.4417
  61   2.0000      -0.418456       -11.3868
  62   2.0000      -0.412351       -11.2207
  63   2.0000      -0.338424        -9.2090
  64   2.0000      -0.335795        -9.1374
  65   2.0000      -0.313545        -8.5320
  66   2.0000      -0.300469        -8.1762
  67   0.0000       0.041385         1.1261
  68   0.0000       0.057360         1.5608
  69   0.0000       0.116835         3.1792
  70   0.0000       0.122911         3.3446
  71   0.0000       0.132571         3.6075

MULLIKEN ATOMIC CHARGES
-----------------------
   0 S :    0.145804
   1 C :   -0.145298
   2 C :   -0.091938
   3 C :    0.052836
   4 C :   -0.164272
   5 H :   -0.003371
   6 C :    0.037815
   7 H :    0.040448
   8 H :    0.032511
   9 C :   -0.070749
  10 H :    0.031903
  11 H :    0.027875
  12 C :   -0.060382
  13 H :    0.013715
  14 H :    0.043486
  15 H :    0.052674
  16 S :    0.136167
  17 C :   -0.067709
  18 C :   -0.076901
  19 C :   -0.054331
  20 C :   -0.184869
  21 H :    0.027332
  22 C :    0.070042
  23 H :    0.028071
  24 H :    0.028183
  25 C :   -0.049231
  26 H :    0.037576
  27 H :    0.021969
  28 C :   -0.090050
  29 H :    0.037664
  30 H :    0.042354
  31 H :    0.035683
  32 H :    0.064937
  33 H :    0.050057
Sum of atomic charges:   -0.0000000

LOEWDIN ATOMIC CHARGES
----------------------
   0 S :    0.431184
   1 C :   -0.229204
   2 C :   -0.061548
   3 C :   -0.047123
   4 C :   -0.198832
   5 H :    0.026594
   6 C :   -0.032877
   7 H :    0.034594
   8 H :    0.032909
   9 C :   -0.041389
  10 H :    0.023171
  11 H :    0.023524
  12 C :   -0.073023
  13 H :    0.018356
  14 H :    0.029662
  15 H :    0.034555
  16 S :    0.449983
  17 C :   -0.203493
  18 C :   -0.082074
  19 C :   -0.055436
  20 C :   -0.231902
  21 H :    0.035337
  22 C :   -0.032996
  23 H :    0.029022
  24 H :    0.028690
  25 C :   -0.031734
  26 H :    0.026506
  27 H :    0.016681
  28 C :   -0.075105
  29 H :    0.026171
  30 H :    0.034779
  31 H :    0.027178
  32 H :    0.036881
  33 H :    0.030961

  Mayer bond orders larger than 0.100000
B(  0-S ,  1-C ) :   1.1468 B(  0-S ,  4-C ) :   1.1548 B(  1-C ,  2-C ) :   1.6143
B(  1-C , 32-H ) :   0.9528 B(  2-C ,  3-C ) :   1.2339 B(  2-C ,  6-C ) :   1.0031
B(  3-C ,  4-C ) :   1.5838 B(  3-C ,  5-H ) :   1.0061 B(  4-C , 20-C ) :   1.0023
B(  6-C ,  7-H ) :   0.9509 B(  6-C ,  8-H ) :   0.9274 B(  6-C ,  9-C ) :   1.0807
B(  9-C , 10-H ) :   0.9541 B(  9-C , 11-H ) :   0.9533 B(  9-C , 12-C ) :   1.0655
B( 12-C , 13-H ) :   0.9733 B( 12-C , 14-H ) :   0.9768 B( 12-C , 15-H ) :   0.9735
B( 16-S , 17-C ) :   1.1879 B( 16-S , 20-C ) :   1.1775 B( 17-C , 18-C ) :   1.5400
B( 17-C , 20-C ) :   0.1142 B( 17-C , 33-H ) :   0.9604 B( 18-C , 19-C ) :   1.3434
B( 18-C , 21-H ) :   0.9772 B( 19-C , 20-C ) :   1.5120 B( 19-C , 22-C ) :   1.0184
B( 22-C , 23-H ) :   0.9357 B( 22-C , 24-H ) :   0.9331 B( 22-C , 25-C ) :   1.0639
B( 25-C , 26-H ) :   0.9635 B( 25-C , 27-H ) :   0.9486 B( 25-C , 28-C ) :   1.0725
B( 28-C , 29-H ) :   0.9759 B( 28-C , 30-H ) :   0.9779 B( 28-C , 31-H ) :   0.9766

Dispersion correction           -0.013768479
FINAL SINGLE POINT ENERGY     -1339.861964593632

DIPOLE MOMENT
-------------
                                X             Y             Z
Electronic contribution:      6.59050     -15.02280      -4.44618
Nuclear contribution   :     -6.60486      15.38930       4.68453
                        -----------------------------------------
Total Dipole Moment    :     -0.01436       0.36651       0.23834
                        -----------------------------------------
Magnitude (a.u.)       :      0.43742
Magnitude (Debye)      :      1.11184

Rotational constants in cm-1:     0.022126     0.007095     0.005939
Rotational constants in MHz :   663.321141   212.707387   178.034657

                             ****ORCA TERMINATED NORMALLY****
TOTAL RUN TIME: 0 days 0 hours 0 minutes 32 seconds 476 msec
