                         Program Version 4.2.1 -  RELEASE  -
|  1> ! wB97X-D3 SP def2-SVP
|  2> %pal
|  3> nprocs 16
|  4> end
|  5>
|  6> * xyz 0 1
|  7> S 	 38.8902 	 14.0586 	 80.8
|  8> C 	 39.0649 	 13.6131 	 79.1154
|  9> C 	 40.2253 	 14.0706 	 78.5118
| 10> C 	 41.1058 	 14.7044 	 79.5094
| 11> C 	 40.5111 	 14.7418 	 80.7546
| 12> H 	 42.128 	 15.1295 	 79.334
| 13> C 	 40.5249 	 13.9526 	 77.0892
| 14> H 	 41.4091 	 14.5926 	 76.9359
| 15> H 	 39.71 	 14.3887 	 76.5509
| 16> C 	 40.7682 	 12.5446 	 76.5802
| 17> H 	 41.6719 	 12.1765 	 76.9861
| 18> H 	 39.9791 	 11.8439 	 76.9051
| 19> C 	 40.901 	 12.6127 	 75.0435
| 20> H 	 41.7319 	 13.2754 	 74.7826
| 21> H 	 41.2589 	 11.6608 	 74.6332
| 22> H 	 39.8911 	 12.9017 	 74.6223
| 23> S 	 40.3402 	 16.5323 	 82.8753
| 24> C 	 41.736 	 16.6977 	 83.9029
| 25> C 	 42.7735 	 15.8681 	 83.5959
| 26> C 	 42.3991 	 14.973 	 82.5671
| 27> C 	 41.1744 	 15.2728 	 81.9351
| 28> H 	 43.7062 	 15.8889 	 84.1728
| 29> C 	 43.3941 	 13.9323 	 82.1181
| 30> H 	 44.428 	 14.1596 	 82.2306
| 31> H 	 43.3627 	 13.8723 	 81.0054
| 32> C 	 43.2324 	 12.4857 	 82.6725
| 33> H 	 42.1972 	 12.1205 	 82.6196
| 34> H 	 43.4752 	 12.4883 	 83.7207
| 35> C 	 44.0554 	 11.4448 	 81.9602
| 36> H 	 44.1397 	 10.5204 	 82.5914
| 37> H 	 45.1476 	 11.7246 	 81.9882
| 38> H 	 43.7086 	 11.2569 	 80.9466
| 39> H 	 38.2592 	 13.2146 	 78.503
| 40> H 	 41.8454 	 17.3096 	 84.7877
| 41> *
| 42>
| 43>                          ****END OF INPUT****

CARTESIAN COORDINATES (ANGSTROEM)
---------------------------------
  S     38.890200   14.058600   80.800000
  C     39.064900   13.613100   79.115400
  C     40.225300   14.070600   78.511800
  C     41.105800   14.704400   79.509400
  C     40.511100   14.741800   80.754600
  H     42.128000   15.129500   79.334000
  C     40.524900   13.952600   77.089200
  H     41.409100   14.592600   76.935900
  H     39.710000   14.388700   76.550900
  C     40.768200   12.544600   76.580200
  H     41.671900   12.176500   76.986100
  H     39.979100   11.843900   76.905100
  C     40.901000   12.612700   75.043500
  H     41.731900   13.275400   74.782600
  H     41.258900   11.660800   74.633200
  H     39.891100   12.901700   74.622300
  S     40.340200   16.532300   82.875300
  C     41.736000   16.697700   83.902900
  C     42.773500   15.868100   83.595900
  C     42.399100   14.973000   82.567100
  C     41.174400   15.272800   81.935100
  H     43.706200   15.888900   84.172800
  C     43.394100   13.932300   82.118100
  H     44.428000   14.159600   82.230600
  H     43.362700   13.872300   81.005400
  C     43.232400   12.485700   82.672500
  H     42.197200   12.120500   82.619600
  H     43.475200   12.488300   83.720700
  C     44.055400   11.444800   81.960200
  H     44.139700   10.520400   82.591400
  H     45.147600   11.724600   81.988200
  H     43.708600   11.256900   80.946600
  H     38.259200   13.214600   78.503000
  H     41.845400   17.309600   84.787700

 Total Charge           Charge          ....    0
 Multiplicity           Mult            ....    1
 Number of Electrons    NEL             ....  134
 Basis Dimension        Dim             ....  322

ORBITAL ENERGIES
----------------

  NO   OCC          E(Eh)            E(eV)
   0   2.0000     -88.969394     -2420.9803
   1   2.0000     -88.966523     -2420.9022
   2   2.0000     -10.329261      -281.0735
   3   2.0000     -10.327964      -281.0382
   4   2.0000     -10.312722      -280.6234
   5   2.0000     -10.312091      -280.6063
   6   2.0000     -10.304202      -280.3916
   7   2.0000     -10.301734      -280.3244
   8   2.0000     -10.300665      -280.2954
   9   2.0000     -10.289876      -280.0018
  10   2.0000     -10.286517      -279.9103
  11   2.0000     -10.286136      -279.9000
  12   2.0000     -10.285522      -279.8833
  13   2.0000     -10.285298      -279.8772
  14   2.0000     -10.280162      -279.7374
  15   2.0000     -10.279586      -279.7218
  16   2.0000      -8.083821      -219.9719
  17   2.0000      -8.080880      -219.8919
  18   2.0000      -6.042381      -164.4215
  19   2.0000      -6.039366      -164.3395
  20   2.0000      -6.038530      -164.3168
  21   2.0000      -6.035434      -164.2325
  22   2.0000      -6.034393      -164.2042
  23   2.0000      -6.031702      -164.1310
  24   2.0000      -1.003154       -27.2972
  25   2.0000      -0.982027       -26.7223
  26   2.0000      -0.920765       -25.0553
  27   2.0000      -0.904159       -24.6034
  28   2.0000      -0.868908       -23.6442
  29   2.0000      -0.852510       -23.1980
  30   2.0000      -0.848545       -23.0901
  31   2.0000      -0.813824       -22.1453
  32   2.0000      -0.779202       -21.2032
  33   2.0000      -0.765326       -20.8256
  34   2.0000      -0.706708       -19.2305
  35   2.0000      -0.702534       -19.1169
  36   2.0000      -0.688495       -18.7349
  37   2.0000      -0.658474       -17.9180
  38   2.0000      -0.638199       -17.3663
  39   2.0000      -0.617793       -16.8110
  40   2.0000      -0.596620       -16.2349
  41   2.0000      -0.574469       -15.6321
  42   2.0000      -0.567553       -15.4439
  43   2.0000      -0.560387       -15.2489
  44   2.0000      -0.523730       -14.2514
  45   2.0000      -0.519685       -14.1413
  46   2.0000      -0.512883       -13.9563
  47   2.0000      -0.507720       -13.8158
  48   2.0000      -0.505203       -13.7473
  49   2.0000      -0.494354       -13.4520
  50   2.0000      -0.493069       -13.4171
  51   2.0000      -0.480358       -13.0712
  52   2.0000      -0.469945       -12.7879
  53   2.0000      -0.462395       -12.5824
  54   2.0000      -0.458557       -12.4780
  55   2.0000      -0.452213       -12.3053
  56   2.0000      -0.443124       -12.0580
  57   2.0000      -0.437389       -11.9020
  58   2.0000      -0.428790       -11.6680
  59   2.0000      -0.427620       -11.6361
  60   2.0000      -0.422956       -11.5092
  61   2.0000      -0.419917       -11.4265
  62   2.0000      -0.409056       -11.1310
  63   2.0000      -0.342819        -9.3286
  64   2.0000      -0.332740        -9.0543
  65   2.0000      -0.327427        -8.9097
  66   2.0000      -0.291382        -7.9289
  67   0.0000       0.030385         0.8268
  68   0.0000       0.066682         1.8145
  69   0.0000       0.107363         2.9215
  70   0.0000       0.123093         3.3495
  71   0.0000       0.125497         3.4149

MULLIKEN ATOMIC CHARGES
-----------------------
   0 S :    0.124517
   1 C :   -0.121324
   2 C :   -0.098254
   3 C :    0.011971
   4 C :   -0.142462
   5 H :    0.041961
   6 C :    0.072068
   7 H :    0.017764
   8 H :    0.024122
   9 C :   -0.062217
  10 H :    0.014231
  11 H :    0.034560
  12 C :   -0.052608
  13 H :    0.030494
  14 H :    0.030965
  15 H :    0.047079
  16 S :    0.108588
  17 C :   -0.072649
  18 C :   -0.051526
  19 C :    0.006097
  20 C :   -0.174728
  21 H :    0.029834
  22 C :    0.047123
  23 H :    0.004614
  24 H :    0.006852
  25 C :   -0.055674
  26 H :    0.033855
  27 H :    0.017404
  28 C :   -0.071769
  29 H :    0.036246
  30 H :    0.021255
  31 H :    0.047696
  32 H :    0.045820
  33 H :    0.048095
Sum of atomic charges:    0.0000000

LOEWDIN ATOMIC CHARGES
----------------------
   0 S :    0.401488
   1 C :   -0.200968
   2 C :   -0.059047
   3 C :   -0.060006
   4 C :   -0.196357
   5 H :    0.041984
   6 C :   -0.037671
   7 H :    0.033977
   8 H :    0.030616
   9 C :   -0.033450
  10 H :    0.018032
  11 H :    0.025780
  12 C :   -0.067303
  13 H :    0.026327
  14 H :    0.024682
  15 H :    0.032200
  16 S :    0.398209
  17 C :   -0.184538
  18 C :   -0.075449
  19 C :   -0.050366
  20 C :   -0.194009
  21 H :    0.039066
  22 C :   -0.037840
  23 H :    0.023021
  24 H :    0.029444
  25 C :   -0.041252
  26 H :    0.027186
  27 H :    0.019153
  28 C :   -0.072886
  29 H :    0.033587
  30 H :    0.024874
  31 H :    0.025676
  32 H :    0.026401
  33 H :    0.029441

  Mayer bond orders larger than 0.100000
B(  0-S ,  1-C ) :   1.1228 B(  0-S ,  4-C ) :   1.1398 B(  1-C ,  2-C ) :   1.6366
B(  1-C , 32-H ) :   0.9624 B(  2-C ,  3-C ) :   1.2125 B(  2-C ,  6-C ) :   1.0299
B(  3-C ,  4-C ) :   1.6014 B(  3-C ,  5-H ) :   0.9785 B(  4-C , 20-C ) :   1.0454
B(  6-C ,  7-H ) :   0.9341 B(  6-C ,  8-H ) :   0.9324 B(  6-C ,  9-C ) :   1.0652
B(  9-C , 10-H ) :   0.9507 B(  9-C , 11-H ) :   0.9589 B(  9-C , 12-C ) :   1.0827
B( 12-C , 13-H ) :   0.9717 B( 12-C , 14-H ) :   0.9740 B( 12-C , 15-H ) :   0.9758
B( 16-S , 17-C ) :   1.1563 B( 16-S , 20-C ) :   1.1268 B( 17-C , 18-C ) :   1.6222
B( 17-C , 20-C ) :   0.1010 B( 17-C , 33-H ) :   0.9605 B( 18-C , 19-C ) :   1.2445
B( 18-C , 21-H ) :   0.9880 B( 19-C , 20-C ) :   1.5834 B( 19-C , 22-C ) :   1.0424
B( 22-C , 23-H ) :   0.9382 B( 22-C , 24-H ) :   0.9362 B( 22-C , 25-C ) :   1.0521
B( 25-C , 26-H ) :   0.9567 B( 25-C , 27-H ) :   0.9526 B( 25-C , 28-C ) :   1.0941
B( 28-C , 29-H ) :   0.9702 B( 28-C , 30-H ) :   0.9700 B( 28-C , 31-H ) :   0.9747

Dispersion correction           -0.013735227
FINAL SINGLE POINT ENERGY     -1339.882762742613

DIPOLE MOMENT
-------------
                                X             Y             Z
Electronic contribution:    -16.63148      17.90347      17.83677
Nuclear contribution   :     17.15006     -18.12453     -18.16630
                        -----------------------------------------
Total Dipole Moment    :      0.51858      -0.22106      -0.32952
                        -----------------------------------------
Magnitude (a.u.)       :      0.65298
Magnitude (Debye)      :      1.65973

Rotational constants in cm-1:     0.018732     0.008180     0.006497
Rotational constants in MHz :   561.585519   245.233098   194.789198

                             ****ORCA TERMINATED NORMALLY****
TOTAL RUN TIME: 0 days 0 hours 0 minutes 29 seconds 841 msec
