                         Program Version 4.2.1 -  RELEASE  -
|  1> ! wB97X-D3 SP def2-SVP
|  2> %pal
|  3> nprocs 16
|  4> end
|  5>
|  6> * xyz 0 1
|  7> S 	 29.9208 	 33.1649 	 54.0102
|  8> C 	 29.9784 	 31.9877 	 52.7089
|  9> C 	 30.5468 	 30.7984 	 53.1814
| 10> C 	 30.6978 	 30.7312 	 54.6113
| 11> C 	 30.3907 	 31.9038 	 55.2042
| 12> H 	 30.9659 	 29.9297 	 55.285
| 13> C 	 30.8064 	 29.5459 	 52.3056
| 14> H 	 30.5345 	 29.8285 	 51.2971
| 15> H 	 30.0806 	 28.8229 	 52.5718
| 16> C 	 32.2256 	 29.0043 	 52.3208
| 17> H 	 32.8862 	 29.8698 	 52.0576
| 18> H 	 32.5588 	 28.661 	 53.307
| 19> C 	 32.4181 	 27.8354 	 51.2582
| 20> H 	 32.2701 	 28.275 	 50.2625
| 21> H 	 33.3453 	 27.2912 	 51.22
| 22> H 	 31.6787 	 27.028 	 51.404
| 23> S 	 28.6563 	 32.5102 	 57.2931
| 24> C 	 29.2105 	 32.6022 	 58.9388
| 25> C 	 30.4631 	 32.1054 	 59.0057
| 26> C 	 31.0254 	 31.7784 	 57.7385
| 27> C 	 30.2779 	 32.1128 	 56.6695
| 28> H 	 30.9208 	 32.0769 	 59.9983
| 29> C 	 32.4697 	 31.2968 	 57.5913
| 30> H 	 32.5555 	 30.8954 	 56.5506
| 31> H 	 32.4734 	 30.4806 	 58.2821
| 32> C 	 33.5768 	 32.4248 	 57.7982
| 33> H 	 33.4564 	 33.1049 	 58.6942
| 34> H 	 33.5446 	 33.0138 	 56.9343
| 35> C 	 35.0207 	 31.9322 	 57.9746
| 36> H 	 35.6655 	 32.7345 	 58.3246
| 37> H 	 35.4989 	 31.5737 	 57.0538
| 38> H 	 35.0637 	 31.1629 	 58.768
| 39> H 	 29.7461 	 32.2547 	 51.6618
| 40> H 	 28.7454 	 33.0532 	 59.8125
| 41> *
| 42>
| 43>                          ****END OF INPUT****

CARTESIAN COORDINATES (ANGSTROEM)
---------------------------------
  S     29.920800   33.164900   54.010200
  C     29.978400   31.987700   52.708900
  C     30.546800   30.798400   53.181400
  C     30.697800   30.731200   54.611300
  C     30.390700   31.903800   55.204200
  H     30.965900   29.929700   55.285000
  C     30.806400   29.545900   52.305600
  H     30.534500   29.828500   51.297100
  H     30.080600   28.822900   52.571800
  C     32.225600   29.004300   52.320800
  H     32.886200   29.869800   52.057600
  H     32.558800   28.661000   53.307000
  C     32.418100   27.835400   51.258200
  H     32.270100   28.275000   50.262500
  H     33.345300   27.291200   51.220000
  H     31.678700   27.028000   51.404000
  S     28.656300   32.510200   57.293100
  C     29.210500   32.602200   58.938800
  C     30.463100   32.105400   59.005700
  C     31.025400   31.778400   57.738500
  C     30.277900   32.112800   56.669500
  H     30.920800   32.076900   59.998300
  C     32.469700   31.296800   57.591300
  H     32.555500   30.895400   56.550600
  H     32.473400   30.480600   58.282100
  C     33.576800   32.424800   57.798200
  H     33.456400   33.104900   58.694200
  H     33.544600   33.013800   56.934300
  C     35.020700   31.932200   57.974600
  H     35.665500   32.734500   58.324600
  H     35.498900   31.573700   57.053800
  H     35.063700   31.162900   58.768000
  H     29.746100   32.254700   51.661800
  H     28.745400   33.053200   59.812500

 Total Charge           Charge          ....    0
 Multiplicity           Mult            ....    1
 Number of Electrons    NEL             ....  134
 Basis Dimension        Dim             ....  322

ORBITAL ENERGIES
----------------

  NO   OCC          E(Eh)            E(eV)
   0   2.0000     -88.967207     -2420.9208
   1   2.0000     -88.956176     -2420.6206
   2   2.0000     -10.333651      -281.1929
   3   2.0000     -10.324971      -280.9567
   4   2.0000     -10.323850      -280.9263
   5   2.0000     -10.312357      -280.6135
   6   2.0000     -10.309906      -280.5468
   7   2.0000     -10.299227      -280.2562
   8   2.0000     -10.296805      -280.1903
   9   2.0000     -10.296021      -280.1690
  10   2.0000     -10.294966      -280.1403
  11   2.0000     -10.289889      -280.0021
  12   2.0000     -10.289243      -279.9845
  13   2.0000     -10.288842      -279.9736
  14   2.0000     -10.284003      -279.8420
  15   2.0000     -10.277811      -279.6735
  16   2.0000      -8.081185      -219.9002
  17   2.0000      -8.071108      -219.6260
  18   2.0000      -6.039822      -164.3519
  19   2.0000      -6.035844      -164.2437
  20   2.0000      -6.031791      -164.1334
  21   2.0000      -6.029801      -164.0792
  22   2.0000      -6.025623      -163.9655
  23   2.0000      -6.021589      -163.8558
  24   2.0000      -1.007245       -27.4085
  25   2.0000      -0.985338       -26.8124
  26   2.0000      -0.906502       -24.6672
  27   2.0000      -0.899316       -24.4716
  28   2.0000      -0.871874       -23.7249
  29   2.0000      -0.848248       -23.0820
  30   2.0000      -0.844095       -22.9690
  31   2.0000      -0.819566       -22.3015
  32   2.0000      -0.778162       -21.1749
  33   2.0000      -0.769363       -20.9354
  34   2.0000      -0.708863       -19.2891
  35   2.0000      -0.698353       -19.0032
  36   2.0000      -0.694304       -18.8930
  37   2.0000      -0.659034       -17.9332
  38   2.0000      -0.648915       -17.6579
  39   2.0000      -0.618765       -16.8375
  40   2.0000      -0.585930       -15.9440
  41   2.0000      -0.569366       -15.4932
  42   2.0000      -0.563815       -15.3422
  43   2.0000      -0.558174       -15.1887
  44   2.0000      -0.527166       -14.3449
  45   2.0000      -0.520695       -14.1688
  46   2.0000      -0.518266       -14.1027
  47   2.0000      -0.514215       -13.9925
  48   2.0000      -0.505992       -13.7687
  49   2.0000      -0.498976       -13.5778
  50   2.0000      -0.490384       -13.3440
  51   2.0000      -0.479869       -13.0579
  52   2.0000      -0.470727       -12.8091
  53   2.0000      -0.462751       -12.5921
  54   2.0000      -0.457936       -12.4611
  55   2.0000      -0.452379       -12.3099
  56   2.0000      -0.441109       -12.0032
  57   2.0000      -0.434826       -11.8322
  58   2.0000      -0.430974       -11.7274
  59   2.0000      -0.424899       -11.5621
  60   2.0000      -0.420902       -11.4533
  61   2.0000      -0.417008       -11.3474
  62   2.0000      -0.406494       -11.0613
  63   2.0000      -0.350633        -9.5412
  64   2.0000      -0.329698        -8.9715
  65   2.0000      -0.324611        -8.8331
  66   2.0000      -0.302753        -8.2383
  67   0.0000       0.028799         0.7837
  68   0.0000       0.074159         2.0180
  69   0.0000       0.111145         3.0244
  70   0.0000       0.118550         3.2259
  71   0.0000       0.130761         3.5582

MULLIKEN ATOMIC CHARGES
-----------------------
   0 S :    0.106330
   1 C :   -0.132969
   2 C :   -0.092701
   3 C :    0.048948
   4 C :   -0.169468
   5 H :    0.027009
   6 C :    0.091940
   7 H :    0.001152
   8 H :    0.028785
   9 C :   -0.089628
  10 H :    0.040591
  11 H :    0.032970
  12 C :   -0.059430
  13 H :    0.032482
  14 H :    0.034951
  15 H :    0.030535
  16 S :    0.081505
  17 C :   -0.080181
  18 C :   -0.047884
  19 C :   -0.061315
  20 C :   -0.129569
  21 H :    0.020703
  22 C :    0.075339
  23 H :    0.021436
  24 H :    0.021180
  25 C :   -0.054662
  26 H :    0.038791
  27 H :    0.023788
  28 C :   -0.062822
  29 H :    0.030879
  30 H :    0.034515
  31 H :    0.029491
  32 H :    0.068782
  33 H :    0.058526
Sum of atomic charges:    0.0000000

LOEWDIN ATOMIC CHARGES
----------------------
   0 S :    0.381621
   1 C :   -0.195803
   2 C :   -0.058277
   3 C :   -0.057363
   4 C :   -0.176127
   5 H :    0.037765
   6 C :   -0.029246
   7 H :    0.025604
   8 H :    0.026299
   9 C :   -0.040619
  10 H :    0.031206
  11 H :    0.020427
  12 C :   -0.069834
  13 H :    0.026257
  14 H :    0.023912
  15 H :    0.026447
  16 S :    0.382957
  17 C :   -0.182334
  18 C :   -0.080006
  19 C :   -0.065479
  20 C :   -0.184931
  21 H :    0.034901
  22 C :   -0.027763
  23 H :    0.032662
  24 H :    0.024349
  25 C :   -0.035919
  26 H :    0.032204
  27 H :    0.019543
  28 C :   -0.070902
  29 H :    0.026365
  30 H :    0.023238
  31 H :    0.024568
  32 H :    0.037062
  33 H :    0.037218

  Mayer bond orders larger than 0.100000
B(  0-S ,  1-C ) :   1.1295 B(  0-S ,  4-C ) :   1.1346 B(  1-C ,  2-C ) :   1.6279
B(  1-C , 32-H ) :   0.9658 B(  2-C ,  3-C ) :   1.1889 B(  2-C ,  6-C ) :   1.0257
B(  3-C ,  4-C ) :   1.6273 B(  3-C ,  5-H ) :   0.9862 B(  4-C , 20-C ) :   1.0059
B(  6-C ,  7-H ) :   0.9405 B(  6-C ,  8-H ) :   0.9396 B(  6-C ,  9-C ) :   1.0529
B(  9-C , 10-H ) :   0.9586 B(  9-C , 11-H ) :   0.9594 B(  9-C , 12-C ) :   1.0675
B( 12-C , 13-H ) :   0.9781 B( 12-C , 14-H ) :   0.9787 B( 12-C , 15-H ) :   0.9770
B( 16-S , 17-C ) :   1.1437 B( 16-S , 20-C ) :   1.1183 B( 17-C , 18-C ) :   1.6464
B( 17-C , 33-H ) :   0.9636 B( 18-C , 19-C ) :   1.2017 B( 18-C , 21-H ) :   0.9933
B( 19-C , 20-C ) :   1.6467 B( 19-C , 22-C ) :   1.0405 B( 22-C , 23-H ) :   0.9335
B( 22-C , 24-H ) :   0.9352 B( 22-C , 25-C ) :   1.0493 B( 25-C , 26-H ) :   0.9652
B( 25-C , 27-H ) :   0.9561 B( 25-C , 28-C ) :   1.0806 B( 28-C , 29-H ) :   0.9747
B( 28-C , 30-H ) :   0.9765 B( 28-C , 31-H ) :   0.9767

Dispersion correction           -0.013598082
FINAL SINGLE POINT ENERGY     -1339.872253659397

DIPOLE MOMENT
-------------
                                X             Y             Z
Electronic contribution:    -23.75573      16.18225       5.70921
Nuclear contribution   :     24.23300     -16.60108      -5.71034
                        -----------------------------------------
Total Dipole Moment    :      0.47727      -0.41883      -0.00113
                        -----------------------------------------
Magnitude (a.u.)       :      0.63498
Magnitude (Debye)      :      1.61400

Rotational constants in cm-1:     0.016748     0.008336     0.006441
Rotational constants in MHz :   502.080268   249.912743   193.095007

                             ****ORCA TERMINATED NORMALLY****
TOTAL RUN TIME: 0 days 0 hours 0 minutes 32 seconds 850 msec
