                         Program Version 4.2.1 -  RELEASE  -
|  1> ! wB97X-D3 SP def2-SVP
|  2> %pal
|  3> nprocs 16
|  4> end
|  5>
|  6> * xyz 0 1
|  7> S 	 -6.94901 	 62.9993 	 53.756
|  8> C 	 -7.20766 	 62.3927 	 55.3699
|  9> C 	 -6.18686 	 62.769 	 56.2536
| 10> C 	 -5.15005 	 63.4238 	 55.595
| 11> C 	 -5.46274 	 63.6967 	 54.3176
| 12> H 	 -4.20558 	 63.6732 	 56.0403
| 13> C 	 -6.14266 	 62.3953 	 57.7074
| 14> H 	 -5.18826 	 62.7337 	 58.1124
| 15> H 	 -6.12401 	 61.2755 	 57.719
| 16> C 	 -7.36361 	 62.9289 	 58.5445
| 17> H 	 -7.30265 	 64.0002 	 58.5554
| 18> H 	 -8.34902 	 62.6216 	 58.1289
| 19> C 	 -7.23406 	 62.5946 	 60.057
| 20> H 	 -7.4754 	 61.5418 	 60.1585
| 21> H 	 -6.2617 	 62.9166 	 60.5377
| 22> H 	 -7.97006 	 63.1416 	 60.7
| 23> S 	 -3.77098 	 63.2995 	 52.1725
| 24> C 	 -2.62267 	 64.5859 	 51.8801
| 25> C 	 -2.73099 	 65.6806 	 52.6976
| 26> C 	 -3.85551 	 65.5457 	 53.5736
| 27> C 	 -4.51661 	 64.3168 	 53.3826
| 28> H 	 -2.09721 	 66.5509 	 52.6072
| 29> C 	 -4.12245 	 66.5587 	 54.6919
| 30> H 	 -3.14169 	 66.4508 	 55.2473
| 31> H 	 -4.91085 	 66.2458 	 55.3853
| 32> C 	 -4.23512 	 68.0207 	 54.2449
| 33> H 	 -4.94091 	 68.0944 	 53.415
| 34> H 	 -3.24843 	 68.3561 	 53.8132
| 35> C 	 -4.77976 	 68.9083 	 55.3145
| 36> H 	 -4.16767 	 68.861 	 56.2247
| 37> H 	 -5.85833 	 68.7583 	 55.5408
| 38> H 	 -4.50136 	 69.9035 	 55.0798
| 39> H 	 -8.02932 	 61.8186 	 55.6769
| 40> H 	 -1.80094 	 64.4512 	 51.1337
| 41> *
| 42>
| 43>                          ****END OF INPUT****

CARTESIAN COORDINATES (ANGSTROEM)
---------------------------------
  S     -6.949010   62.999300   53.756000
  C     -7.207660   62.392700   55.369900
  C     -6.186860   62.769000   56.253600
  C     -5.150050   63.423800   55.595000
  C     -5.462740   63.696700   54.317600
  H     -4.205580   63.673200   56.040300
  C     -6.142660   62.395300   57.707400
  H     -5.188260   62.733700   58.112400
  H     -6.124010   61.275500   57.719000
  C     -7.363610   62.928900   58.544500
  H     -7.302650   64.000200   58.555400
  H     -8.349020   62.621600   58.128900
  C     -7.234060   62.594600   60.057000
  H     -7.475400   61.541800   60.158500
  H     -6.261700   62.916600   60.537700
  H     -7.970060   63.141600   60.700000
  S     -3.770980   63.299500   52.172500
  C     -2.622670   64.585900   51.880100
  C     -2.730990   65.680600   52.697600
  C     -3.855510   65.545700   53.573600
  C     -4.516610   64.316800   53.382600
  H     -2.097210   66.550900   52.607200
  C     -4.122450   66.558700   54.691900
  H     -3.141690   66.450800   55.247300
  H     -4.910850   66.245800   55.385300
  C     -4.235120   68.020700   54.244900
  H     -4.940910   68.094400   53.415000
  H     -3.248430   68.356100   53.813200
  C     -4.779760   68.908300   55.314500
  H     -4.167670   68.861000   56.224700
  H     -5.858330   68.758300   55.540800
  H     -4.501360   69.903500   55.079800
  H     -8.029320   61.818600   55.676900
  H     -1.800940   64.451200   51.133700

 Total Charge           Charge          ....    0
 Multiplicity           Mult            ....    1
 Number of Electrons    NEL             ....  134
 Basis Dimension        Dim             ....  322

ORBITAL ENERGIES
----------------

  NO   OCC          E(Eh)            E(eV)
   0   2.0000     -88.966792     -2420.9095
   1   2.0000     -88.964943     -2420.8592
   2   2.0000     -10.318813      -280.7892
   3   2.0000     -10.318205      -280.7726
   4   2.0000     -10.317857      -280.7632
   5   2.0000     -10.305580      -280.4291
   6   2.0000     -10.302804      -280.3535
   7   2.0000     -10.295949      -280.1670
   8   2.0000     -10.294260      -280.1211
   9   2.0000     -10.293511      -280.1007
  10   2.0000     -10.292725      -280.0793
  11   2.0000     -10.292569      -280.0750
  12   2.0000     -10.287817      -279.9457
  13   2.0000     -10.285700      -279.8881
  14   2.0000     -10.282722      -279.8071
  15   2.0000     -10.275610      -279.6136
  16   2.0000      -8.081792      -219.9168
  17   2.0000      -8.079889      -219.8650
  18   2.0000      -6.040069      -164.3586
  19   2.0000      -6.038221      -164.3083
  20   2.0000      -6.036363      -164.2578
  21   2.0000      -6.034570      -164.2090
  22   2.0000      -6.032707      -164.1583
  23   2.0000      -6.030627      -164.1017
  24   2.0000      -1.008640       -27.4465
  25   2.0000      -0.983678       -26.7672
  26   2.0000      -0.910297       -24.7704
  27   2.0000      -0.905775       -24.6474
  28   2.0000      -0.863447       -23.4956
  29   2.0000      -0.857033       -23.3211
  30   2.0000      -0.851515       -23.1709
  31   2.0000      -0.811861       -22.0919
  32   2.0000      -0.780774       -21.2460
  33   2.0000      -0.763667       -20.7804
  34   2.0000      -0.703256       -19.1366
  35   2.0000      -0.698390       -19.0042
  36   2.0000      -0.688424       -18.7330
  37   2.0000      -0.655139       -17.8272
  38   2.0000      -0.642041       -17.4708
  39   2.0000      -0.617565       -16.8048
  40   2.0000      -0.595069       -16.1927
  41   2.0000      -0.570056       -15.5120
  42   2.0000      -0.568097       -15.4587
  43   2.0000      -0.556287       -15.1373
  44   2.0000      -0.524904       -14.2834
  45   2.0000      -0.519333       -14.1318
  46   2.0000      -0.515544       -14.0287
  47   2.0000      -0.509698       -13.8696
  48   2.0000      -0.503477       -13.7003
  49   2.0000      -0.495325       -13.4785
  50   2.0000      -0.485638       -13.2149
  51   2.0000      -0.478469       -13.0198
  52   2.0000      -0.471280       -12.8242
  53   2.0000      -0.462374       -12.5818
  54   2.0000      -0.457504       -12.4493
  55   2.0000      -0.454446       -12.3661
  56   2.0000      -0.451526       -12.2866
  57   2.0000      -0.435416       -11.8483
  58   2.0000      -0.432869       -11.7790
  59   2.0000      -0.425917       -11.5898
  60   2.0000      -0.420509       -11.4426
  61   2.0000      -0.416746       -11.3402
  62   2.0000      -0.411202       -11.1894
  63   2.0000      -0.344761        -9.3814
  64   2.0000      -0.330884        -9.0038
  65   2.0000      -0.321331        -8.7439
  66   2.0000      -0.291475        -7.9314
  67   0.0000       0.039546         1.0761
  68   0.0000       0.067721         1.8428
  69   0.0000       0.113256         3.0818
  70   0.0000       0.118146         3.2149
  71   0.0000       0.133921         3.6442

MULLIKEN ATOMIC CHARGES
-----------------------
   0 S :    0.122981
   1 C :   -0.108398
   2 C :   -0.081268
   3 C :    0.034099
   4 C :   -0.172934
   5 H :    0.009355
   6 C :    0.067199
   7 H :    0.011336
   8 H :    0.044254
   9 C :   -0.077673
  10 H :    0.027745
  11 H :    0.041616
  12 C :   -0.079852
  13 H :    0.035040
  14 H :    0.041839
  15 H :    0.035435
  16 S :    0.115556
  17 C :   -0.107610
  18 C :   -0.031453
  19 C :   -0.041702
  20 C :   -0.149789
  21 H :    0.021905
  22 C :    0.041123
  23 H :    0.040121
  24 H :    0.036488
  25 C :   -0.096075
  26 H :    0.034195
  27 H :    0.031136
  28 C :   -0.013713
  29 H :    0.011124
  30 H :    0.057170
  31 H :    0.013355
  32 H :    0.020455
  33 H :    0.066942
Sum of atomic charges:    0.0000000

LOEWDIN ATOMIC CHARGES
----------------------
   0 S :    0.417511
   1 C :   -0.197019
   2 C :   -0.061788
   3 C :   -0.059953
   4 C :   -0.199010
   5 H :    0.033168
   6 C :   -0.031700
   7 H :    0.026647
   8 H :    0.037805
   9 C :   -0.037764
  10 H :    0.022187
  11 H :    0.027837
  12 C :   -0.076049
  13 H :    0.021785
  14 H :    0.031460
  15 H :    0.028713
  16 S :    0.404969
  17 C :   -0.183986
  18 C :   -0.074558
  19 C :   -0.049877
  20 C :   -0.212880
  21 H :    0.032120
  22 C :   -0.037142
  23 H :    0.040765
  24 H :    0.029824
  25 C :   -0.047253
  26 H :    0.026088
  27 H :    0.026735
  28 C :   -0.069374
  29 H :    0.025291
  30 H :    0.035370
  31 H :    0.024513
  32 H :    0.012357
  33 H :    0.033210

  Mayer bond orders larger than 0.100000
B(  0-S ,  1-C ) :   1.1427 B(  0-S ,  4-C ) :   1.1648 B(  1-C ,  2-C ) :   1.5860
B(  1-C , 32-H ) :   0.9764 B(  2-C ,  3-C ) :   1.2649 B(  2-C ,  6-C ) :   1.0192
B(  3-C ,  4-C ) :   1.5695 B(  3-C ,  5-H ) :   0.9981 B(  4-C , 20-C ) :   0.9976
B(  6-C ,  7-H ) :   0.9432 B(  6-C ,  8-H ) :   0.9376 B(  6-C ,  9-C ) :   1.0530
B(  9-C , 10-H ) :   0.9590 B(  9-C , 11-H ) :   0.9591 B(  9-C , 12-C ) :   1.0780
B( 12-C , 13-H ) :   0.9778 B( 12-C , 14-H ) :   0.9735 B( 12-C , 15-H ) :   0.9759
B( 16-S , 17-C ) :   1.1580 B( 16-S , 20-C ) :   1.1421 B( 17-C , 18-C ) :   1.6245
B( 17-C , 33-H ) :   0.9595 B( 18-C , 19-C ) :   1.2291 B( 18-C , 21-H ) :   0.9908
B( 19-C , 20-C ) :   1.6099 B( 19-C , 22-C ) :   1.0335 B( 22-C , 23-H ) :   0.9310
B( 22-C , 24-H ) :   0.9427 B( 22-C , 25-C ) :   1.0506 B( 25-C , 26-H ) :   0.9584
B( 25-C , 27-H ) :   0.9483 B( 25-C , 28-C ) :   1.1033 B( 28-C , 29-H ) :   0.9642
B( 28-C , 30-H ) :   0.9723 B( 28-C , 31-H ) :   0.9647

Dispersion correction           -0.013681615
FINAL SINGLE POINT ENERGY     -1339.879115887615

DIPOLE MOMENT
-------------
                                X             Y             Z
Electronic contribution:      2.25327     -13.97234     -26.32548
Nuclear contribution   :     -1.97896      14.28610      26.91663
                        -----------------------------------------
Total Dipole Moment    :      0.27432       0.31376       0.59114
                        -----------------------------------------
Magnitude (a.u.)       :      0.72329
Magnitude (Debye)      :      1.83846

Rotational constants in cm-1:     0.017330     0.008260     0.006340
Rotational constants in MHz :   519.531994   247.636807   190.069816

                             ****ORCA TERMINATED NORMALLY****
TOTAL RUN TIME: 0 days 0 hours 0 minutes 32 seconds 874 msec
