                         Program Version 4.2.1 -  RELEASE  -
|  1> ! wB97X-D3 SP def2-SVP
|  2> %pal
|  3> nprocs 16
|  4> end
|  5>
|  6> * xyz 0 1
|  7> S 	 -90.43 	 51.9261 	 131.104
|  8> C 	 -90.2694 	 50.183 	 131.165
|  9> C 	 -88.8973 	 49.8628 	 130.926
| 10> C 	 -88.0277 	 51.0006 	 130.776
| 11> C 	 -88.6971 	 52.1912 	 130.866
| 12> H 	 -86.9881 	 50.9563 	 130.542
| 13> C 	 -88.4186 	 48.4516 	 130.724
| 14> H 	 -87.606 	 48.503 	 130.001
| 15> H 	 -89.2251 	 47.8661 	 130.377
| 16> C 	 -87.8583 	 47.8775 	 132.042
| 17> H 	 -88.6372 	 47.6953 	 132.73
| 18> H 	 -87.4707 	 46.8286 	 131.898
| 19> C 	 -86.8017 	 48.7108 	 132.765
| 20> H 	 -86.4738 	 48.1635 	 133.659
| 21> H 	 -85.927 	 49.0045 	 132.125
| 22> H 	 -87.1793 	 49.6313 	 133.137
| 23> S 	 -86.9109 	 54.1577 	 131.458
| 24> C 	 -86.784 	 55.575 	 130.318
| 25> C 	 -87.6063 	 55.4477 	 129.202
| 26> C 	 -88.3418 	 54.2169 	 129.253
| 27> C 	 -88.1439 	 53.4513 	 130.429
| 28> H 	 -87.5618 	 56.1348 	 128.33
| 29> C 	 -89.3476 	 53.7878 	 128.136
| 30> H 	 -89.9074 	 54.6602 	 127.847
| 31> H 	 -90.0889 	 53.1549 	 128.563
| 32> C 	 -88.6248 	 53.1122 	 126.968
| 33> H 	 -88.3324 	 52.0626 	 127.04
| 34> H 	 -87.7041 	 53.6826 	 126.738
| 35> C 	 -89.511 	 53.0888 	 125.742
| 36> H 	 -90.4554 	 52.5851 	 125.918
| 37> H 	 -89.1304 	 52.4123 	 125.007
| 38> H 	 -89.5987 	 54.0605 	 125.346
| 39> H 	 -91.0121 	 49.4127 	 131.375
| 40> H 	 -86.0157 	 56.3462 	 130.199
| 41> *
| 42>
| 43>                          ****END OF INPUT****

CARTESIAN COORDINATES (ANGSTROEM)
---------------------------------
  S    -90.430000   51.926100  131.104000
  C    -90.269400   50.183000  131.165000
  C    -88.897300   49.862800  130.926000
  C    -88.027700   51.000600  130.776000
  C    -88.697100   52.191200  130.866000
  H    -86.988100   50.956300  130.542000
  C    -88.418600   48.451600  130.724000
  H    -87.606000   48.503000  130.001000
  H    -89.225100   47.866100  130.377000
  C    -87.858300   47.877500  132.042000
  H    -88.637200   47.695300  132.730000
  H    -87.470700   46.828600  131.898000
  C    -86.801700   48.710800  132.765000
  H    -86.473800   48.163500  133.659000
  H    -85.927000   49.004500  132.125000
  H    -87.179300   49.631300  133.137000
  S    -86.910900   54.157700  131.458000
  C    -86.784000   55.575000  130.318000
  C    -87.606300   55.447700  129.202000
  C    -88.341800   54.216900  129.253000
  C    -88.143900   53.451300  130.429000
  H    -87.561800   56.134800  128.330000
  C    -89.347600   53.787800  128.136000
  H    -89.907400   54.660200  127.847000
  H    -90.088900   53.154900  128.563000
  C    -88.624800   53.112200  126.968000
  H    -88.332400   52.062600  127.040000
  H    -87.704100   53.682600  126.738000
  C    -89.511000   53.088800  125.742000
  H    -90.455400   52.585100  125.918000
  H    -89.130400   52.412300  125.007000
  H    -89.598700   54.060500  125.346000
  H    -91.012100   49.412700  131.375000
  H    -86.015700   56.346200  130.199000

 Total Charge           Charge          ....    0
 Multiplicity           Mult            ....    1
 Number of Electrons    NEL             ....  134
 Basis Dimension        Dim             ....  322

ORBITAL ENERGIES
----------------

  NO   OCC          E(Eh)            E(eV)
   0   2.0000     -88.970534     -2421.0113
   1   2.0000     -88.970466     -2421.0095
   2   2.0000     -10.329704      -281.0855
   3   2.0000     -10.327890      -281.0362
   4   2.0000     -10.322494      -280.8893
   5   2.0000     -10.321833      -280.8714
   6   2.0000     -10.306644      -280.4580
   7   2.0000     -10.305261      -280.4204
   8   2.0000     -10.300479      -280.2903
   9   2.0000     -10.295858      -280.1645
  10   2.0000     -10.289023      -279.9785
  11   2.0000     -10.285542      -279.8838
  12   2.0000     -10.285204      -279.8746
  13   2.0000     -10.281848      -279.7833
  14   2.0000     -10.275883      -279.6210
  15   2.0000     -10.264835      -279.3204
  16   2.0000      -8.083984      -219.9764
  17   2.0000      -8.083541      -219.9643
  18   2.0000      -6.042590      -164.4272
  19   2.0000      -6.042256      -164.4182
  20   2.0000      -6.038510      -164.3162
  21   2.0000      -6.038297      -164.3104
  22   2.0000      -6.034835      -164.2162
  23   2.0000      -6.034179      -164.1984
  24   2.0000      -1.001755       -27.2591
  25   2.0000      -0.974756       -26.5245
  26   2.0000      -0.912729       -24.8366
  27   2.0000      -0.905836       -24.6490
  28   2.0000      -0.870875       -23.6977
  29   2.0000      -0.846758       -23.0414
  30   2.0000      -0.843341       -22.9485
  31   2.0000      -0.817853       -22.2549
  32   2.0000      -0.782835       -21.3020
  33   2.0000      -0.764586       -20.8055
  34   2.0000      -0.704713       -19.1762
  35   2.0000      -0.701172       -19.0799
  36   2.0000      -0.692286       -18.8381
  37   2.0000      -0.659656       -17.9501
  38   2.0000      -0.642191       -17.4749
  39   2.0000      -0.614323       -16.7166
  40   2.0000      -0.585711       -15.9380
  41   2.0000      -0.570802       -15.5323
  42   2.0000      -0.569931       -15.5086
  43   2.0000      -0.554424       -15.0866
  44   2.0000      -0.542399       -14.7594
  45   2.0000      -0.520423       -14.1614
  46   2.0000      -0.516236       -14.0475
  47   2.0000      -0.512589       -13.9483
  48   2.0000      -0.507134       -13.7998
  49   2.0000      -0.498479       -13.5643
  50   2.0000      -0.491682       -13.3793
  51   2.0000      -0.475017       -12.9259
  52   2.0000      -0.469296       -12.7702
  53   2.0000      -0.464246       -12.6328
  54   2.0000      -0.458851       -12.4860
  55   2.0000      -0.446375       -12.1465
  56   2.0000      -0.438537       -11.9332
  57   2.0000      -0.436078       -11.8663
  58   2.0000      -0.434137       -11.8135
  59   2.0000      -0.429757       -11.6943
  60   2.0000      -0.420237       -11.4352
  61   2.0000      -0.409503       -11.1432
  62   2.0000      -0.406753       -11.0683
  63   2.0000      -0.343468        -9.3462
  64   2.0000      -0.336845        -9.1660
  65   2.0000      -0.319778        -8.7016
  66   2.0000      -0.295564        -8.0427
  67   0.0000       0.030131         0.8199
  68   0.0000       0.059392         1.6161
  69   0.0000       0.103146         2.8068
  70   0.0000       0.113030         3.0757
  71   0.0000       0.123757         3.3676

MULLIKEN ATOMIC CHARGES
-----------------------
   0 S :    0.116102
   1 C :   -0.113679
   2 C :   -0.146830
   3 C :    0.060676
   4 C :   -0.140807
   5 H :    0.011855
   6 C :    0.114787
   7 H :    0.026086
   8 H :    0.014557
   9 C :   -0.073335
  10 H :    0.010646
  11 H :    0.029976
  12 C :   -0.059963
  13 H :    0.035776
  14 H :    0.032880
  15 H :    0.035893
  16 S :    0.106782
  17 C :   -0.085698
  18 C :   -0.057675
  19 C :   -0.047777
  20 C :   -0.181211
  21 H :    0.040850
  22 C :    0.110764
  23 H :    0.019511
  24 H :    0.005839
  25 C :   -0.078953
  26 H :    0.031417
  27 H :    0.026140
  28 C :   -0.023147
  29 H :    0.022038
  30 H :    0.014552
  31 H :    0.025692
  32 H :    0.057141
  33 H :    0.059113
Sum of atomic charges:   -0.0000000

LOEWDIN ATOMIC CHARGES
----------------------
   0 S :    0.413424
   1 C :   -0.208653
   2 C :   -0.056732
   3 C :   -0.050402
   4 C :   -0.197134
   5 H :    0.030564
   6 C :   -0.026311
   7 H :    0.031304
   8 H :    0.025723
   9 C :   -0.041687
  10 H :    0.016415
  11 H :    0.026453
  12 C :   -0.067877
  13 H :    0.031223
  14 H :    0.026499
  15 H :    0.020408
  16 S :    0.386759
  17 C :   -0.178597
  18 C :   -0.072483
  19 C :   -0.050441
  20 C :   -0.201990
  21 H :    0.041123
  22 C :   -0.026051
  23 H :    0.028552
  24 H :    0.016454
  25 C :   -0.040214
  26 H :    0.028178
  27 H :    0.023924
  28 C :   -0.062303
  29 H :    0.025644
  30 H :    0.022038
  31 H :    0.016409
  32 H :    0.035138
  33 H :    0.034643

  Mayer bond orders larger than 0.100000
B(  0-S ,  1-C ) :   1.1408 B(  0-S ,  4-C ) :   1.1490 B(  1-C ,  2-C ) :   1.5865
B(  1-C , 32-H ) :   0.9682 B(  2-C ,  3-C ) :   1.2510 B(  2-C ,  6-C ) :   1.0292
B(  3-C ,  4-C ) :   1.5636 B(  3-C ,  5-H ) :   0.9923 B(  4-C , 20-C ) :   1.0175
B(  6-C ,  7-H ) :   0.9417 B(  6-C ,  8-H ) :   0.9393 B(  6-C ,  9-C ) :   1.0695
B(  9-C , 10-H ) :   0.9515 B(  9-C , 11-H ) :   0.9567 B(  9-C , 12-C ) :   1.0876
B( 12-C , 13-H ) :   0.9698 B( 12-C , 14-H ) :   0.9746 B( 12-C , 15-H ) :   0.9671
B( 16-S , 17-C ) :   1.1335 B( 16-S , 20-C ) :   1.1303 B( 17-C , 18-C ) :   1.6335
B( 17-C , 20-C ) :   0.1016 B( 17-C , 33-H ) :   0.9578 B( 18-C , 19-C ) :   1.2473
B( 18-C , 21-H ) :   0.9765 B( 19-C , 20-C ) :   1.5999 B( 19-C , 22-C ) :   1.0311
B( 22-C , 23-H ) :   0.9449 B( 22-C , 24-H ) :   0.9243 B( 22-C , 25-C ) :   1.0536
B( 25-C , 26-H ) :   0.9552 B( 25-C , 27-H ) :   0.9620 B( 25-C , 28-C ) :   1.0915
B( 28-C , 29-H ) :   0.9681 B( 28-C , 30-H ) :   0.9719 B( 28-C , 31-H ) :   0.9777

Dispersion correction           -0.014921284
FINAL SINGLE POINT ENERGY     -1339.868652900542

DIPOLE MOMENT
-------------
                                X             Y             Z
Electronic contribution:     -2.50340      14.43825      12.50920
Nuclear contribution   :      2.60428     -14.88424     -13.01900
                        -----------------------------------------
Total Dipole Moment    :      0.10087      -0.44599      -0.50980
                        -----------------------------------------
Magnitude (a.u.)       :      0.68482
Magnitude (Debye)      :      1.74067

Rotational constants in cm-1:     0.018213     0.009023     0.007355
Rotational constants in MHz :   546.012901   270.500750   220.495454

                             ****ORCA TERMINATED NORMALLY****
TOTAL RUN TIME: 0 days 0 hours 0 minutes 33 seconds 816 msec
