                         Program Version 4.2.1 -  RELEASE  -
|  1> ! wB97X-D3 SP def2-SVP
|  2> %pal
|  3> nprocs 16
|  4> end
|  5>
|  6> * xyz 0 1
|  7> S 	 0.435997 	 8.73288 	 79.3359
|  8> C 	 0.260114 	 7.71969 	 77.9164
|  9> C 	 -1.00262 	 7.54303 	 77.5104
| 10> C 	 -1.84802 	 8.14682 	 78.4634
| 11> C 	 -1.31082 	 8.88021 	 79.4841
| 12> H 	 -2.88688 	 8.14733 	 78.4343
| 13> C 	 -1.4594 	 6.79055 	 76.2965
| 14> H 	 -0.73479 	 7.08543 	 75.4703
| 15> H 	 -2.38018 	 7.19403 	 75.9763
| 16> C 	 -1.57572 	 5.31026 	 76.5218
| 17> H 	 -0.617096 	 5.01064 	 76.9188
| 18> H 	 -2.31985 	 5.15125 	 77.3378
| 19> C 	 -1.87653 	 4.61675 	 75.2488
| 20> H 	 -2.84143 	 4.97977 	 74.8533
| 21> H 	 -1.12323 	 4.88232 	 74.6104
| 22> H 	 -1.99165 	 3.58682 	 75.3232
| 23> S 	 -1.30676 	 10.5724 	 81.6257
| 24> C 	 -2.67954 	 10.6984 	 82.6593
| 25> C 	 -3.56388 	 9.70975 	 82.3558
| 26> C 	 -3.23264 	 8.87463 	 81.2678
| 27> C 	 -2.06264 	 9.33234 	 80.657
| 28> H 	 -4.50328 	 9.72936 	 82.8542
| 29> C 	 -4.01404 	 7.60079 	 80.9531
| 30> H 	 -4.37295 	 7.18535 	 81.8097
| 31> H 	 -3.21183 	 7.03002 	 80.6247
| 32> C 	 -5.24087 	 7.72217 	 79.9996
| 33> H 	 -5.65902 	 6.67328 	 79.9497
| 34> H 	 -4.89335 	 7.88534 	 78.9843
| 35> C 	 -6.30971 	 8.79156 	 80.4086
| 36> H 	 -6.63893 	 8.65252 	 81.4755
| 37> H 	 -7.22968 	 8.74672 	 79.7753
| 38> H 	 -5.8559 	 9.83321 	 80.3046
| 39> H 	 1.13752 	 7.37144 	 77.4548
| 40> H 	 -2.69848 	 11.4191 	 83.4797
| 41> *
| 42>
| 43>                          ****END OF INPUT****

CARTESIAN COORDINATES (ANGSTROEM)
---------------------------------
  S      0.435997    8.732880   79.335900
  C      0.260114    7.719690   77.916400
  C     -1.002620    7.543030   77.510400
  C     -1.848020    8.146820   78.463400
  C     -1.310820    8.880210   79.484100
  H     -2.886880    8.147330   78.434300
  C     -1.459400    6.790550   76.296500
  H     -0.734790    7.085430   75.470300
  H     -2.380180    7.194030   75.976300
  C     -1.575720    5.310260   76.521800
  H     -0.617096    5.010640   76.918800
  H     -2.319850    5.151250   77.337800
  C     -1.876530    4.616750   75.248800
  H     -2.841430    4.979770   74.853300
  H     -1.123230    4.882320   74.610400
  H     -1.991650    3.586820   75.323200
  S     -1.306760   10.572400   81.625700
  C     -2.679540   10.698400   82.659300
  C     -3.563880    9.709750   82.355800
  C     -3.232640    8.874630   81.267800
  C     -2.062640    9.332340   80.657000
  H     -4.503280    9.729360   82.854200
  C     -4.014040    7.600790   80.953100
  H     -4.372950    7.185350   81.809700
  H     -3.211830    7.030020   80.624700
  C     -5.240870    7.722170   79.999600
  H     -5.659020    6.673280   79.949700
  H     -4.893350    7.885340   78.984300
  C     -6.309710    8.791560   80.408600
  H     -6.638930    8.652520   81.475500
  H     -7.229680    8.746720   79.775300
  H     -5.855900    9.833210   80.304600
  H      1.137520    7.371440   77.454800
  H     -2.698480   11.419100   83.479700

 Total Charge           Charge          ....    0
 Multiplicity           Mult            ....    1
 Number of Electrons    NEL             ....  134
 Basis Dimension        Dim             ....  322

ORBITAL ENERGIES
----------------

  NO   OCC          E(Eh)            E(eV)
   0   2.0000     -88.962526     -2420.7934
   1   2.0000     -88.960249     -2420.7314
   2   2.0000     -10.328464      -281.0518
   3   2.0000     -10.325626      -280.9746
   4   2.0000     -10.313243      -280.6376
   5   2.0000     -10.307759      -280.4884
   6   2.0000     -10.301972      -280.3309
   7   2.0000     -10.297263      -280.2028
   8   2.0000     -10.294844      -280.1369
   9   2.0000     -10.294059      -280.1156
  10   2.0000     -10.291579      -280.0481
  11   2.0000     -10.285547      -279.8840
  12   2.0000     -10.283944      -279.8403
  13   2.0000     -10.282787      -279.8088
  14   2.0000     -10.282697      -279.8064
  15   2.0000     -10.266991      -279.3790
  16   2.0000      -8.077476      -219.7993
  17   2.0000      -8.076061      -219.7608
  18   2.0000      -6.036049      -164.2493
  19   2.0000      -6.034450      -164.2057
  20   2.0000      -6.032047      -164.1403
  21   2.0000      -6.030394      -164.0954
  22   2.0000      -6.028063      -164.0319
  23   2.0000      -6.026939      -164.0013
  24   2.0000      -1.011834       -27.5334
  25   2.0000      -0.991936       -26.9920
  26   2.0000      -0.926559       -25.2129
  27   2.0000      -0.907977       -24.7073
  28   2.0000      -0.876779       -23.8584
  29   2.0000      -0.853490       -23.2246
  30   2.0000      -0.844368       -22.9764
  31   2.0000      -0.817859       -22.2551
  32   2.0000      -0.788841       -21.4655
  33   2.0000      -0.779364       -21.2076
  34   2.0000      -0.708172       -19.2703
  35   2.0000      -0.705480       -19.1971
  36   2.0000      -0.694835       -18.9074
  37   2.0000      -0.669104       -18.2072
  38   2.0000      -0.645582       -17.5672
  39   2.0000      -0.622080       -16.9276
  40   2.0000      -0.595987       -16.2176
  41   2.0000      -0.581528       -15.8242
  42   2.0000      -0.571882       -15.5617
  43   2.0000      -0.561436       -15.2775
  44   2.0000      -0.539166       -14.6715
  45   2.0000      -0.532345       -14.4858
  46   2.0000      -0.520392       -14.1606
  47   2.0000      -0.511660       -13.9230
  48   2.0000      -0.500034       -13.6066
  49   2.0000      -0.499604       -13.5949
  50   2.0000      -0.496708       -13.5161
  51   2.0000      -0.482613       -13.1326
  52   2.0000      -0.474597       -12.9144
  53   2.0000      -0.468396       -12.7457
  54   2.0000      -0.462809       -12.5937
  55   2.0000      -0.447490       -12.1768
  56   2.0000      -0.442548       -12.0423
  57   2.0000      -0.440540       -11.9877
  58   2.0000      -0.436904       -11.8888
  59   2.0000      -0.426913       -11.6169
  60   2.0000      -0.421571       -11.4715
  61   2.0000      -0.420532       -11.4433
  62   2.0000      -0.413571       -11.2538
  63   2.0000      -0.359461        -9.7814
  64   2.0000      -0.333917        -9.0863
  65   2.0000      -0.328688        -8.9441
  66   2.0000      -0.285905        -7.7799
  67   0.0000       0.026541         0.7222
  68   0.0000       0.081791         2.2257
  69   0.0000       0.107873         2.9354
  70   0.0000       0.122753         3.3403
  71   0.0000       0.134623         3.6633

MULLIKEN ATOMIC CHARGES
-----------------------
   0 S :    0.090600
   1 C :   -0.134944
   2 C :   -0.020579
   3 C :   -0.015634
   4 C :   -0.054947
   5 H :   -0.061271
   6 C :    0.060185
   7 H :    0.033530
   8 H :    0.003766
   9 C :   -0.066737
  10 H :    0.015566
  11 H :    0.029653
  12 C :    0.052364
  13 H :    0.017381
  14 H :    0.007592
  15 H :    0.021788
  16 S :    0.088955
  17 C :   -0.087821
  18 C :   -0.032733
  19 C :   -0.068715
  20 C :   -0.171592
  21 H :    0.006819
  22 C :    0.136846
  23 H :   -0.004160
  24 H :    0.021233
  25 C :   -0.075235
  26 H :    0.035768
  27 H :    0.032589
  28 C :   -0.101837
  29 H :    0.040982
  30 H :    0.050043
  31 H :    0.062098
  32 H :    0.026166
  33 H :    0.062279
Sum of atomic charges:   -0.0000000

LOEWDIN ATOMIC CHARGES
----------------------
   0 S :    0.388876
   1 C :   -0.170158
   2 C :   -0.066774
   3 C :   -0.059009
   4 C :   -0.192965
   5 H :    0.013045
   6 C :   -0.026875
   7 H :    0.038351
   8 H :    0.021248
   9 C :   -0.037132
  10 H :    0.020894
  11 H :    0.027901
  12 C :   -0.049030
  13 H :    0.029063
  14 H :    0.016359
  15 H :    0.019070
  16 S :    0.409278
  17 C :   -0.189869
  18 C :   -0.074953
  19 C :   -0.056013
  20 C :   -0.189873
  21 H :    0.026054
  22 C :   -0.017654
  23 H :    0.019057
  24 H :    0.028743
  25 C :   -0.039482
  26 H :    0.029596
  27 H :    0.016081
  28 C :   -0.077767
  29 H :    0.027075
  30 H :    0.032210
  31 H :    0.037671
  32 H :    0.014731
  33 H :    0.032252

  Mayer bond orders larger than 0.100000
B(  0-S ,  1-C ) :   1.1498 B(  0-S ,  4-C ) :   1.1182 B(  1-C ,  2-C ) :   1.6037
B(  1-C , 32-H ) :   0.9722 B(  2-C ,  3-C ) :   1.2297 B(  2-C ,  6-C ) :   1.0119
B(  3-C ,  4-C ) :   1.5913 B(  3-C ,  5-H ) :   1.0140 B(  4-C , 20-C ) :   1.0559
B(  6-C ,  7-H ) :   0.9379 B(  6-C ,  8-H ) :   0.9302 B(  6-C ,  9-C ) :   1.0691
B(  9-C , 10-H ) :   0.9533 B(  9-C , 11-H ) :   0.9497 B(  9-C , 12-C ) :   1.0866
B( 12-C , 13-H ) :   0.9675 B( 12-C , 14-H ) :   0.9686 B( 12-C , 15-H ) :   0.9698
B( 16-S , 17-C ) :   1.1566 B( 16-S , 20-C ) :   1.1515 B( 17-C , 18-C ) :   1.5964
B( 17-C , 33-H ) :   0.9700 B( 18-C , 19-C ) :   1.2475 B( 18-C , 21-H ) :   0.9954
B( 19-C , 20-C ) :   1.5676 B( 19-C , 22-C ) :   1.0134 B( 22-C , 23-H ) :   0.9303
B( 22-C , 24-H ) :   0.9311 B( 22-C , 25-C ) :   1.0687 B( 25-C , 26-H ) :   0.9541
B( 25-C , 27-H ) :   0.9521 B( 25-C , 28-C ) :   1.0665 B( 28-C , 29-H ) :   0.9752
B( 28-C , 30-H ) :   0.9740 B( 28-C , 31-H ) :   0.9701

Dispersion correction           -0.014516749
FINAL SINGLE POINT ENERGY     -1339.869195661381

DIPOLE MOMENT
-------------
                                X             Y             Z
Electronic contribution:     19.75558      18.17181      14.77977
Nuclear contribution   :    -20.30695     -18.70007     -15.02642
                        -----------------------------------------
Total Dipole Moment    :     -0.55137      -0.52826      -0.24665
                        -----------------------------------------
Magnitude (a.u.)       :      0.80244
Magnitude (Debye)      :      2.03964

Rotational constants in cm-1:     0.019169     0.009003     0.006395
Rotational constants in MHz :   574.672458   269.898001   191.719687

                             ****ORCA TERMINATED NORMALLY****
TOTAL RUN TIME: 0 days 0 hours 0 minutes 35 seconds 957 msec
