                         Program Version 4.2.1 -  RELEASE  -
|  1> ! wB97X-D3 SP def2-SVP
|  2> %pal
|  3> nprocs 16
|  4> end
|  5>
|  6> * xyz 0 1
|  7> S 	 -27.7741 	 31.8455 	 40.0038
|  8> C 	 -26.2652 	 31.9558 	 39.094
|  9> C 	 -25.1561 	 31.4154 	 39.6974
| 10> C 	 -25.4945 	 30.808 	 40.9328
| 11> C 	 -26.8689 	 30.9978 	 41.231
| 12> H 	 -24.9039 	 30.174 	 41.6137
| 13> C 	 -23.8016 	 31.5333 	 39.0883
| 14> H 	 -23.7359 	 32.5845 	 38.6871
| 15> H 	 -23.7136 	 30.9217 	 38.2363
| 16> C 	 -22.6702 	 31.2903 	 40.1223
| 17> H 	 -22.8114 	 31.9668 	 40.9824
| 18> H 	 -22.6478 	 30.252 	 40.57
| 19> C 	 -21.189 	 31.4824 	 39.6381
| 20> H 	 -20.8008 	 30.7212 	 38.8825
| 21> H 	 -21.078 	 32.4497 	 39.1355
| 22> H 	 -20.4913 	 31.5161 	 40.4949
| 23> S 	 -28.9646 	 29.3991 	 41.8295
| 24> C 	 -29.1684 	 28.6918 	 43.3227
| 25> C 	 -28.271 	 29.1995 	 44.238
| 26> C 	 -27.3022 	 30.1487 	 43.6913
| 27> C 	 -27.5761 	 30.3346 	 42.3388
| 28> H 	 -28.3269 	 28.8898 	 45.2622
| 29> C 	 -26.2361 	 30.8246 	 44.5102
| 30> H 	 -25.2861 	 30.7499 	 43.9633
| 31> H 	 -26.1372 	 30.3159 	 45.4513
| 32> C 	 -26.5097 	 32.326 	 44.8381
| 33> H 	 -26.2695 	 32.7972 	 43.9087
| 34> H 	 -25.8964 	 32.7171 	 45.5783
| 35> C 	 -28.0055 	 32.6798 	 45.1848
| 36> H 	 -28.1375 	 32.2419 	 46.1829
| 37> H 	 -28.8123 	 32.3606 	 44.5764
| 38> H 	 -28.1347 	 33.7559 	 45.2894
| 39> H 	 -26.1149 	 32.4912 	 38.1595
| 40> H 	 -29.9254 	 27.9597 	 43.5236
| 41> *
| 42>
| 43>                          ****END OF INPUT****

CARTESIAN COORDINATES (ANGSTROEM)
---------------------------------
  S    -27.774100   31.845500   40.003800
  C    -26.265200   31.955800   39.094000
  C    -25.156100   31.415400   39.697400
  C    -25.494500   30.808000   40.932800
  C    -26.868900   30.997800   41.231000
  H    -24.903900   30.174000   41.613700
  C    -23.801600   31.533300   39.088300
  H    -23.735900   32.584500   38.687100
  H    -23.713600   30.921700   38.236300
  C    -22.670200   31.290300   40.122300
  H    -22.811400   31.966800   40.982400
  H    -22.647800   30.252000   40.570000
  C    -21.189000   31.482400   39.638100
  H    -20.800800   30.721200   38.882500
  H    -21.078000   32.449700   39.135500
  H    -20.491300   31.516100   40.494900
  S    -28.964600   29.399100   41.829500
  C    -29.168400   28.691800   43.322700
  C    -28.271000   29.199500   44.238000
  C    -27.302200   30.148700   43.691300
  C    -27.576100   30.334600   42.338800
  H    -28.326900   28.889800   45.262200
  C    -26.236100   30.824600   44.510200
  H    -25.286100   30.749900   43.963300
  H    -26.137200   30.315900   45.451300
  C    -26.509700   32.326000   44.838100
  H    -26.269500   32.797200   43.908700
  H    -25.896400   32.717100   45.578300
  C    -28.005500   32.679800   45.184800
  H    -28.137500   32.241900   46.182900
  H    -28.812300   32.360600   44.576400
  H    -28.134700   33.755900   45.289400
  H    -26.114900   32.491200   38.159500
  H    -29.925400   27.959700   43.523600

 Total Charge           Charge          ....    0
 Multiplicity           Mult            ....    1
 Number of Electrons    NEL             ....  134
 Basis Dimension        Dim             ....  322

ORBITAL ENERGIES
----------------

  NO   OCC          E(Eh)            E(eV)
   0   2.0000     -88.973150     -2421.0825
   1   2.0000     -88.960176     -2420.7295
   2   2.0000     -10.331221      -281.1268
   3   2.0000     -10.323124      -280.9065
   4   2.0000     -10.308795      -280.5166
   5   2.0000     -10.308095      -280.4975
   6   2.0000     -10.305224      -280.4194
   7   2.0000     -10.298748      -280.2432
   8   2.0000     -10.298626      -280.2399
   9   2.0000     -10.298429      -280.2345
  10   2.0000     -10.295701      -280.1603
  11   2.0000     -10.291326      -280.0412
  12   2.0000     -10.290966      -280.0314
  13   2.0000     -10.288382      -279.9611
  14   2.0000     -10.279300      -279.7140
  15   2.0000     -10.270246      -279.4676
  16   2.0000      -8.087267      -220.0657
  17   2.0000      -8.076925      -219.7843
  18   2.0000      -6.045661      -164.5108
  19   2.0000      -6.042015      -164.4116
  20   2.0000      -6.038045      -164.3036
  21   2.0000      -6.035216      -164.2266
  22   2.0000      -6.031020      -164.1124
  23   2.0000      -6.027902      -164.0275
  24   2.0000      -1.008872       -27.4528
  25   2.0000      -0.985905       -26.8278
  26   2.0000      -0.911000       -24.7896
  27   2.0000      -0.906410       -24.6647
  28   2.0000      -0.864198       -23.5160
  29   2.0000      -0.848912       -23.1001
  30   2.0000      -0.840820       -22.8799
  31   2.0000      -0.812008       -22.0959
  32   2.0000      -0.785233       -21.3673
  33   2.0000      -0.772693       -21.0260
  34   2.0000      -0.713589       -19.4177
  35   2.0000      -0.699036       -19.0217
  36   2.0000      -0.682563       -18.5735
  37   2.0000      -0.662052       -18.0154
  38   2.0000      -0.636276       -17.3140
  39   2.0000      -0.616181       -16.7672
  40   2.0000      -0.588898       -16.0247
  41   2.0000      -0.568477       -15.4690
  42   2.0000      -0.564472       -15.3601
  43   2.0000      -0.558001       -15.1840
  44   2.0000      -0.540080       -14.6963
  45   2.0000      -0.520879       -14.1738
  46   2.0000      -0.511257       -13.9120
  47   2.0000      -0.504347       -13.7240
  48   2.0000      -0.500031       -13.6065
  49   2.0000      -0.493745       -13.4355
  50   2.0000      -0.487384       -13.2624
  51   2.0000      -0.485616       -13.2143
  52   2.0000      -0.469155       -12.7664
  53   2.0000      -0.466365       -12.6904
  54   2.0000      -0.460215       -12.5231
  55   2.0000      -0.449552       -12.2329
  56   2.0000      -0.447274       -12.1710
  57   2.0000      -0.434645       -11.8273
  58   2.0000      -0.432474       -11.7682
  59   2.0000      -0.431896       -11.7525
  60   2.0000      -0.422377       -11.4935
  61   2.0000      -0.419341       -11.4108
  62   2.0000      -0.406463       -11.0604
  63   2.0000      -0.346278        -9.4227
  64   2.0000      -0.335518        -9.1299
  65   2.0000      -0.326947        -8.8967
  66   2.0000      -0.284852        -7.7512
  67   0.0000       0.031398         0.8544
  68   0.0000       0.071625         1.9490
  69   0.0000       0.107773         2.9326
  70   0.0000       0.122406         3.3308
  71   0.0000       0.136735         3.7208

MULLIKEN ATOMIC CHARGES
-----------------------
   0 S :    0.126793
   1 C :   -0.120345
   2 C :   -0.080677
   3 C :    0.002074
   4 C :   -0.148744
   5 H :    0.029211
   6 C :    0.102750
   7 H :    0.036965
   8 H :    0.032803
   9 C :   -0.135154
  10 H :    0.039537
  11 H :    0.046565
  12 C :   -0.068378
  13 H :    0.045135
  14 H :    0.025294
  15 H :    0.040106
  16 S :    0.110320
  17 C :   -0.079647
  18 C :   -0.042707
  19 C :   -0.064386
  20 C :   -0.169786
  21 H :    0.007200
  22 C :    0.101696
  23 H :    0.028553
  24 H :    0.010621
  25 C :   -0.047234
  26 H :    0.027005
  27 H :    0.021170
  28 C :   -0.057599
  29 H :    0.019275
  30 H :    0.043776
  31 H :    0.030693
  32 H :    0.034177
  33 H :    0.052939
Sum of atomic charges:   -0.0000000

LOEWDIN ATOMIC CHARGES
----------------------
   0 S :    0.408310
   1 C :   -0.199743
   2 C :   -0.062799
   3 C :   -0.064881
   4 C :   -0.193752
   5 H :    0.036037
   6 C :   -0.030025
   7 H :    0.042073
   8 H :    0.028066
   9 C :   -0.048627
  10 H :    0.028099
  11 H :    0.030319
  12 C :   -0.076700
  13 H :    0.030951
  14 H :    0.020882
  15 H :    0.029443
  16 S :    0.438422
  17 C :   -0.211356
  18 C :   -0.073267
  19 C :   -0.054292
  20 C :   -0.203625
  21 H :    0.024611
  22 C :   -0.028329
  23 H :    0.033652
  24 H :    0.024836
  25 C :   -0.025681
  26 H :    0.020289
  27 H :    0.016209
  28 C :   -0.064688
  29 H :    0.023308
  30 H :    0.022401
  31 H :    0.026471
  32 H :    0.024987
  33 H :    0.028397

  Mayer bond orders larger than 0.100000
B(  0-S ,  1-C ) :   1.1228 B(  0-S ,  4-C ) :   1.1660 B(  1-C ,  2-C ) :   1.6403
B(  1-C , 32-H ) :   0.9633 B(  2-C ,  3-C ) :   1.2448 B(  2-C ,  6-C ) :   1.0071
B(  3-C ,  4-C ) :   1.5548 B(  3-C ,  5-H ) :   0.9840 B(  4-C , 20-C ) :   1.0243
B(  6-C ,  7-H ) :   0.9385 B(  6-C ,  8-H ) :   0.9300 B(  6-C ,  9-C ) :   1.0754
B(  9-C , 10-H ) :   0.9579 B(  9-C , 11-H ) :   0.9492 B(  9-C , 12-C ) :   1.0790
B( 12-C , 13-H ) :   0.9761 B( 12-C , 14-H ) :   0.9747 B( 12-C , 15-H ) :   0.9749
B( 16-S , 17-C ) :   1.1784 B( 16-S , 20-C ) :   1.1585 B( 17-C , 18-C ) :   1.5846
B( 17-C , 33-H ) :   0.9720 B( 18-C , 19-C ) :   1.2411 B( 18-C , 21-H ) :   0.9943
B( 19-C , 20-C ) :   1.5789 B( 19-C , 22-C ) :   1.0542 B( 22-C , 23-H ) :   0.9355
B( 22-C , 24-H ) :   0.9277 B( 22-C , 25-C ) :   1.0602 B( 25-C , 26-H ) :   0.9577
B( 25-C , 27-H ) :   0.9609 B( 25-C , 28-C ) :   1.0771 B( 28-C , 29-H ) :   0.9789
B( 28-C , 30-H ) :   0.9740 B( 28-C , 31-H ) :   0.9760

Dispersion correction           -0.014583746
FINAL SINGLE POINT ENERGY     -1339.881052979491

DIPOLE MOMENT
-------------
                                X             Y             Z
Electronic contribution:    -23.10234      -7.85575      -8.52149
Nuclear contribution   :     23.62429       7.87699       8.70455
                        -----------------------------------------
Total Dipole Moment    :      0.52195       0.02124       0.18307
                        -----------------------------------------
Magnitude (a.u.)       :      0.55353
Magnitude (Debye)      :      1.40697

Rotational constants in cm-1:     0.019533     0.008315     0.007100
Rotational constants in MHz :   585.595213   249.284865   212.856726

                             ****ORCA TERMINATED NORMALLY****
TOTAL RUN TIME: 0 days 0 hours 0 minutes 34 seconds 364 msec
