                         Program Version 4.2.1 -  RELEASE  -
|  1> ! wB97X-D3 SP def2-SVP
|  2> %pal
|  3> nprocs 16
|  4> end
|  5>
|  6> * xyz 0 1
|  7> S 	 48.0271 	 15.8772 	 77.9911
|  8> C 	 47.304 	 17.3627 	 78.7478
|  9> C 	 47.5575 	 17.3254 	 80.1217
| 10> C 	 47.988 	 16.0116 	 80.5718
| 11> C 	 48.3732 	 15.1842 	 79.5785
| 12> H 	 48.2918 	 15.74 	 81.5362
| 13> C 	 47.1974 	 18.4673 	 81.1389
| 14> H 	 47.3185 	 19.4094 	 80.6263
| 15> H 	 48.0519 	 18.5261 	 81.8465
| 16> C 	 45.8687 	 18.3682 	 81.8166
| 17> H 	 45.8409 	 17.5183 	 82.4214
| 18> H 	 45.7622 	 19.3164 	 82.4019
| 19> C 	 44.7464 	 18.1813 	 80.8095
| 20> H 	 44.5904 	 18.9655 	 80.0865
| 21> H 	 44.8832 	 17.3042 	 80.1874
| 22> H 	 43.7799 	 18.0866 	 81.3633
| 23> S 	 48.1906 	 12.6256 	 80.521
| 24> C 	 49.4936 	 11.531 	 80.2472
| 25> C 	 50.5186 	 12.1545 	 79.6848
| 26> C 	 50.2657 	 13.5092 	 79.2688
| 27> C 	 49.0365 	 13.9147 	 79.721
| 28> H 	 51.4547 	 11.6199 	 79.3916
| 29> C 	 51.2303 	 14.3755 	 78.5181
| 30> H 	 50.7605 	 15.2735 	 78.2492
| 31> H 	 51.486 	 13.8049 	 77.6069
| 32> C 	 52.5685 	 14.5686 	 79.2347
| 33> H 	 53.0394 	 15.2746 	 78.5255
| 34> H 	 53.2523 	 13.7352 	 79.3213
| 35> C 	 52.3839 	 15.3132 	 80.5451
| 36> H 	 53.2934 	 15.6263 	 81.0014
| 37> H 	 51.8127 	 14.738 	 81.2676
| 38> H 	 51.8176 	 16.2559 	 80.3822
| 39> H 	 47.0115 	 18.262 	 78.1883
| 40> H 	 49.443 	 10.5237 	 80.6115
| 41> *
| 42>
| 43>                          ****END OF INPUT****

CARTESIAN COORDINATES (ANGSTROEM)
---------------------------------
  S     48.027100   15.877200   77.991100
  C     47.304000   17.362700   78.747800
  C     47.557500   17.325400   80.121700
  C     47.988000   16.011600   80.571800
  C     48.373200   15.184200   79.578500
  H     48.291800   15.740000   81.536200
  C     47.197400   18.467300   81.138900
  H     47.318500   19.409400   80.626300
  H     48.051900   18.526100   81.846500
  C     45.868700   18.368200   81.816600
  H     45.840900   17.518300   82.421400
  H     45.762200   19.316400   82.401900
  C     44.746400   18.181300   80.809500
  H     44.590400   18.965500   80.086500
  H     44.883200   17.304200   80.187400
  H     43.779900   18.086600   81.363300
  S     48.190600   12.625600   80.521000
  C     49.493600   11.531000   80.247200
  C     50.518600   12.154500   79.684800
  C     50.265700   13.509200   79.268800
  C     49.036500   13.914700   79.721000
  H     51.454700   11.619900   79.391600
  C     51.230300   14.375500   78.518100
  H     50.760500   15.273500   78.249200
  H     51.486000   13.804900   77.606900
  C     52.568500   14.568600   79.234700
  H     53.039400   15.274600   78.525500
  H     53.252300   13.735200   79.321300
  C     52.383900   15.313200   80.545100
  H     53.293400   15.626300   81.001400
  H     51.812700   14.738000   81.267600
  H     51.817600   16.255900   80.382200
  H     47.011500   18.262000   78.188300
  H     49.443000   10.523700   80.611500

 Total Charge           Charge          ....    0
 Multiplicity           Mult            ....    1
 Number of Electrons    NEL             ....  134
 Basis Dimension        Dim             ....  322

ORBITAL ENERGIES
----------------

  NO   OCC          E(Eh)            E(eV)
   0   2.0000     -88.965102     -2420.8635
   1   2.0000     -88.960099     -2420.7274
   2   2.0000     -10.326773      -281.0058
   3   2.0000     -10.322764      -280.8967
   4   2.0000     -10.318733      -280.7870
   5   2.0000     -10.310905      -280.5740
   6   2.0000     -10.310383      -280.5598
   7   2.0000     -10.297894      -280.2199
   8   2.0000     -10.293156      -280.0910
   9   2.0000     -10.291539      -280.0470
  10   2.0000     -10.288868      -279.9743
  11   2.0000     -10.286778      -279.9175
  12   2.0000     -10.285372      -279.8792
  13   2.0000     -10.283303      -279.8229
  14   2.0000     -10.271026      -279.4888
  15   2.0000     -10.269529      -279.4481
  16   2.0000      -8.078380      -219.8239
  17   2.0000      -8.076098      -219.7618
  18   2.0000      -6.037081      -164.2773
  19   2.0000      -6.034583      -164.2094
  20   2.0000      -6.033127      -164.1697
  21   2.0000      -6.030481      -164.0977
  22   2.0000      -6.028961      -164.0564
  23   2.0000      -6.026749      -163.9962
  24   2.0000      -1.012249       -27.5447
  25   2.0000      -0.982107       -26.7245
  26   2.0000      -0.916155       -24.9298
  27   2.0000      -0.913851       -24.8672
  28   2.0000      -0.872787       -23.7498
  29   2.0000      -0.848287       -23.0831
  30   2.0000      -0.838903       -22.8277
  31   2.0000      -0.815819       -22.1996
  32   2.0000      -0.785291       -21.3688
  33   2.0000      -0.777208       -21.1489
  34   2.0000      -0.708086       -19.2680
  35   2.0000      -0.701170       -19.0798
  36   2.0000      -0.691927       -18.8283
  37   2.0000      -0.660474       -17.9724
  38   2.0000      -0.639161       -17.3924
  39   2.0000      -0.618259       -16.8237
  40   2.0000      -0.605429       -16.4746
  41   2.0000      -0.566810       -15.4237
  42   2.0000      -0.555628       -15.1194
  43   2.0000      -0.547979       -14.9113
  44   2.0000      -0.543604       -14.7922
  45   2.0000      -0.541131       -14.7249
  46   2.0000      -0.523979       -14.2582
  47   2.0000      -0.516972       -14.0675
  48   2.0000      -0.501678       -13.6514
  49   2.0000      -0.496513       -13.5108
  50   2.0000      -0.486618       -13.2415
  51   2.0000      -0.479520       -13.0484
  52   2.0000      -0.468473       -12.7478
  53   2.0000      -0.462879       -12.5956
  54   2.0000      -0.457372       -12.4457
  55   2.0000      -0.444278       -12.0894
  56   2.0000      -0.439777       -11.9669
  57   2.0000      -0.436231       -11.8705
  58   2.0000      -0.433774       -11.8036
  59   2.0000      -0.431564       -11.7435
  60   2.0000      -0.421611       -11.4726
  61   2.0000      -0.410858       -11.1800
  62   2.0000      -0.407438       -11.0870
  63   2.0000      -0.346530        -9.4296
  64   2.0000      -0.332959        -9.0603
  65   2.0000      -0.325542        -8.8585
  66   2.0000      -0.300929        -8.1887
  67   0.0000       0.037595         1.0230
  68   0.0000       0.070629         1.9219
  69   0.0000       0.104116         2.8331
  70   0.0000       0.118145         3.2149
  71   0.0000       0.131669         3.5829

MULLIKEN ATOMIC CHARGES
-----------------------
   0 S :    0.091995
   1 C :   -0.127726
   2 C :   -0.127835
   3 C :    0.056313
   4 C :   -0.146482
   5 H :   -0.005430
   6 C :    0.051259
   7 H :    0.012213
   8 H :    0.028269
   9 C :   -0.007961
  10 H :    0.019975
  11 H :    0.041957
  12 C :   -0.077094
  13 H :    0.016278
  14 H :    0.048399
  15 H :    0.034652
  16 S :    0.106280
  17 C :   -0.079583
  18 C :   -0.029664
  19 C :   -0.067358
  20 C :   -0.173918
  21 H :    0.028027
  22 C :    0.122486
  23 H :    0.004229
  24 H :    0.031851
  25 C :   -0.081500
  26 H :    0.029148
  27 H :    0.033885
  28 C :   -0.039019
  29 H :    0.023211
  30 H :    0.037526
  31 H :    0.025958
  32 H :    0.064932
  33 H :    0.054728
Sum of atomic charges:    0.0000000

LOEWDIN ATOMIC CHARGES
----------------------
   0 S :    0.371043
   1 C :   -0.186496
   2 C :   -0.051393
   3 C :   -0.064465
   4 C :   -0.177369
   5 H :    0.023311
   6 C :   -0.034096
   7 H :    0.024817
   8 H :    0.032482
   9 C :   -0.036190
  10 H :    0.019163
  11 H :    0.034838
  12 C :   -0.068950
  13 H :    0.017911
  14 H :    0.027718
  15 H :    0.030082
  16 S :    0.412932
  17 C :   -0.182230
  18 C :   -0.078152
  19 C :   -0.055113
  20 C :   -0.208868
  21 H :    0.037245
  22 C :   -0.024625
  23 H :    0.014935
  24 H :    0.039466
  25 C :   -0.040475
  26 H :    0.030762
  27 H :    0.021775
  28 C :   -0.065555
  29 H :    0.019241
  30 H :    0.023593
  31 H :    0.029943
  32 H :    0.033741
  33 H :    0.028981

  Mayer bond orders larger than 0.100000
B(  0-S ,  1-C ) :   1.1092 B(  0-S ,  4-C ) :   1.1226 B(  1-C ,  2-C ) :   1.6423
B(  1-C , 32-H ) :   0.9653 B(  2-C ,  3-C ) :   1.1890 B(  2-C ,  6-C ) :   1.0218
B(  3-C ,  4-C ) :   1.6349 B(  3-C ,  5-H ) :   0.9915 B(  4-C , 20-C ) :   1.0224
B(  6-C ,  7-H ) :   0.9416 B(  6-C ,  8-H ) :   0.9405 B(  6-C ,  9-C ) :   1.0717
B(  9-C , 10-H ) :   0.9522 B(  9-C , 11-H ) :   0.9513 B(  9-C , 12-C ) :   1.0819
B( 12-C , 13-H ) :   0.9762 B( 12-C , 14-H ) :   0.9684 B( 12-C , 15-H ) :   0.9733
B( 16-S , 17-C ) :   1.1453 B( 16-S , 20-C ) :   1.1420 B( 17-C , 18-C ) :   1.6307
B( 17-C , 33-H ) :   0.9711 B( 18-C , 19-C ) :   1.2188 B( 18-C , 21-H ) :   0.9821
B( 19-C , 20-C ) :   1.6047 B( 19-C , 22-C ) :   1.0581 B( 22-C , 23-H ) :   0.9235
B( 22-C , 24-H ) :   0.9190 B( 22-C , 25-C ) :   1.0796 B( 25-C , 26-H ) :   0.9534
B( 25-C , 27-H ) :   0.9562 B( 25-C , 28-C ) :   1.0757 B( 28-C , 29-H ) :   0.9734
B( 28-C , 30-H ) :   0.9738 B( 28-C , 31-H ) :   0.9719

Dispersion correction           -0.015480452
FINAL SINGLE POINT ENERGY     -1339.885068404557

DIPOLE MOMENT
-------------
                                X             Y             Z
Electronic contribution:     -4.56476     -15.34893      -7.39881
Nuclear contribution   :      4.98060      15.60187       7.61047
                        -----------------------------------------
Total Dipole Moment    :      0.41584       0.25294       0.21167
                        -----------------------------------------
Magnitude (a.u.)       :      0.53076
Magnitude (Debye)      :      1.34908

Rotational constants in cm-1:     0.022242     0.008291     0.007420
Rotational constants in MHz :   666.808673   248.559919   222.442221

                             ****ORCA TERMINATED NORMALLY****
TOTAL RUN TIME: 0 days 0 hours 0 minutes 31 seconds 155 msec
