                         Program Version 4.2.1 -  RELEASE  -
|  1> ! wB97X-D3 SP def2-SVP
|  2> %pal
|  3> nprocs 16
|  4> end
|  5>
|  6> * xyz 0 1
|  7> S 	 -108.168 	 53.0976 	 116.158
|  8> C 	 -109.566 	 54.0615 	 116.282
|  9> C 	 -109.271 	 55.3458 	 115.853
| 10> C 	 -107.903 	 55.6417 	 115.703
| 11> C 	 -107.123 	 54.5177 	 115.937
| 12> H 	 -107.396 	 56.5826 	 115.453
| 13> C 	 -110.374 	 56.4082 	 115.63
| 14> H 	 -110.001 	 57.2412 	 116.199
| 15> H 	 -111.324 	 56.1597 	 116.19
| 16> C 	 -110.729 	 56.7435 	 114.121
| 17> H 	 -111.168 	 55.8216 	 113.711
| 18> H 	 -111.59 	 57.3558 	 113.99
| 19> C 	 -109.588 	 57.1539 	 113.225
| 20> H 	 -108.778 	 56.41 	 113.196
| 21> H 	 -110.03 	 57.4071 	 112.304
| 22> H 	 -109.129 	 57.9931 	 113.601
| 23> S 	 -104.992 	 53.5715 	 117.267
| 24> C 	 -103.358 	 53.7693 	 116.736
| 25> C 	 -103.379 	 54.4884 	 115.553
| 26> C 	 -104.704 	 54.8322 	 115.032
| 27> C 	 -105.672 	 54.426 	 115.95
| 28> H 	 -102.384 	 54.7436 	 115.132
| 29> C 	 -104.802 	 55.6041 	 113.746
| 30> H 	 -104.696 	 56.6712 	 114.056
| 31> H 	 -105.921 	 55.6226 	 113.591
| 32> C 	 -103.958 	 55.2696 	 112.544
| 33> H 	 -102.963 	 54.9871 	 112.935
| 34> H 	 -103.732 	 56.2337 	 112.063
| 35> C 	 -104.534 	 54.0938 	 111.696
| 36> H 	 -105.542 	 54.3483 	 111.448
| 37> H 	 -104.598 	 53.1057 	 112.227
| 38> H 	 -103.986 	 53.9205 	 110.806
| 39> H 	 -110.626 	 53.6965 	 116.311
| 40> H 	 -102.456 	 53.5529 	 117.194
| 41> *
| 42>
| 43>                          ****END OF INPUT****

CARTESIAN COORDINATES (ANGSTROEM)
---------------------------------
  S    -108.168000   53.097600  116.158000
  C    -109.566000   54.061500  116.282000
  C    -109.271000   55.345800  115.853000
  C    -107.903000   55.641700  115.703000
  C    -107.123000   54.517700  115.937000
  H    -107.396000   56.582600  115.453000
  C    -110.374000   56.408200  115.630000
  H    -110.001000   57.241200  116.199000
  H    -111.324000   56.159700  116.190000
  C    -110.729000   56.743500  114.121000
  H    -111.168000   55.821600  113.711000
  H    -111.590000   57.355800  113.990000
  C    -109.588000   57.153900  113.225000
  H    -108.778000   56.410000  113.196000
  H    -110.030000   57.407100  112.304000
  H    -109.129000   57.993100  113.601000
  S    -104.992000   53.571500  117.267000
  C    -103.358000   53.769300  116.736000
  C    -103.379000   54.488400  115.553000
  C    -104.704000   54.832200  115.032000
  C    -105.672000   54.426000  115.950000
  H    -102.384000   54.743600  115.132000
  C    -104.802000   55.604100  113.746000
  H    -104.696000   56.671200  114.056000
  H    -105.921000   55.622600  113.591000
  C    -103.958000   55.269600  112.544000
  H    -102.963000   54.987100  112.935000
  H    -103.732000   56.233700  112.063000
  C    -104.534000   54.093800  111.696000
  H    -105.542000   54.348300  111.448000
  H    -104.598000   53.105700  112.227000
  H    -103.986000   53.920500  110.806000
  H    -110.626000   53.696500  116.311000
  H    -102.456000   53.552900  117.194000

 Total Charge           Charge          ....    0
 Multiplicity           Mult            ....    1
 Number of Electrons    NEL             ....  134
 Basis Dimension        Dim             ....  322

ORBITAL ENERGIES
----------------

  NO   OCC          E(Eh)            E(eV)
   0   2.0000     -88.966363     -2420.8978
   1   2.0000     -88.963618     -2420.8231
   2   2.0000     -10.331446      -281.1329
   3   2.0000     -10.325475      -280.9705
   4   2.0000     -10.313066      -280.6328
   5   2.0000     -10.310061      -280.5510
   6   2.0000     -10.307671      -280.4860
   7   2.0000     -10.300683      -280.2958
   8   2.0000     -10.297079      -280.1978
   9   2.0000     -10.296409      -280.1795
  10   2.0000     -10.295690      -280.1600
  11   2.0000     -10.294623      -280.1309
  12   2.0000     -10.294484      -280.1272
  13   2.0000     -10.285328      -279.8780
  14   2.0000     -10.278543      -279.6934
  15   2.0000     -10.266881      -279.3760
  16   2.0000      -8.081395      -219.9059
  17   2.0000      -8.079218      -219.8467
  18   2.0000      -6.039827      -164.3521
  19   2.0000      -6.037808      -164.2971
  20   2.0000      -6.035920      -164.2457
  21   2.0000      -6.033390      -164.1769
  22   2.0000      -6.032130      -164.1426
  23   2.0000      -6.030028      -164.0854
  24   2.0000      -1.011202       -27.5162
  25   2.0000      -0.988482       -26.8980
  26   2.0000      -0.911581       -24.8054
  27   2.0000      -0.903906       -24.5965
  28   2.0000      -0.873203       -23.7611
  29   2.0000      -0.852812       -23.2062
  30   2.0000      -0.844275       -22.9739
  31   2.0000      -0.819046       -22.2874
  32   2.0000      -0.783338       -21.3157
  33   2.0000      -0.772619       -21.0240
  34   2.0000      -0.713038       -19.4027
  35   2.0000      -0.704239       -19.1633
  36   2.0000      -0.700369       -19.0580
  37   2.0000      -0.654904       -17.8209
  38   2.0000      -0.639034       -17.3890
  39   2.0000      -0.615764       -16.7558
  40   2.0000      -0.595051       -16.1922
  41   2.0000      -0.567766       -15.4497
  42   2.0000      -0.555820       -15.1246
  43   2.0000      -0.551895       -15.0178
  44   2.0000      -0.535184       -14.5631
  45   2.0000      -0.525836       -14.3087
  46   2.0000      -0.524638       -14.2761
  47   2.0000      -0.514445       -13.9988
  48   2.0000      -0.507244       -13.8028
  49   2.0000      -0.497719       -13.5436
  50   2.0000      -0.491961       -13.3869
  51   2.0000      -0.484671       -13.1886
  52   2.0000      -0.475809       -12.9474
  53   2.0000      -0.465122       -12.6566
  54   2.0000      -0.457027       -12.4363
  55   2.0000      -0.449419       -12.2293
  56   2.0000      -0.441797       -12.0219
  57   2.0000      -0.439096       -11.9484
  58   2.0000      -0.435183       -11.8419
  59   2.0000      -0.425883       -11.5889
  60   2.0000      -0.422005       -11.4834
  61   2.0000      -0.408638       -11.1196
  62   2.0000      -0.405856       -11.0439
  63   2.0000      -0.351518        -9.5653
  64   2.0000      -0.329628        -8.9696
  65   2.0000      -0.323980        -8.8159
  66   2.0000      -0.292497        -7.9593
  67   0.0000       0.029993         0.8162
  68   0.0000       0.072844         1.9822
  69   0.0000       0.114959         3.1282
  70   0.0000       0.124434         3.3860
  71   0.0000       0.129871         3.5340

MULLIKEN ATOMIC CHARGES
-----------------------
   0 S :    0.125237
   1 C :   -0.116558
   2 C :   -0.113250
   3 C :    0.022071
   4 C :   -0.161238
   5 H :    0.024707
   6 C :    0.041101
   7 H :    0.025919
   8 H :    0.025893
   9 C :   -0.061264
  10 H :    0.013450
  11 H :    0.017534
  12 C :    0.002426
  13 H :    0.045147
  14 H :    0.025063
  15 H :    0.002339
  16 S :    0.117726
  17 C :   -0.053999
  18 C :   -0.083895
  19 C :   -0.025700
  20 C :   -0.174827
  21 H :    0.031128
  22 C :    0.014421
  23 H :    0.042485
  24 H :    0.017454
  25 C :   -0.033104
  26 H :    0.022406
  27 H :    0.031492
  28 C :   -0.025212
  29 H :    0.022392
  30 H :    0.049581
  31 H :    0.030668
  32 H :    0.071050
  33 H :    0.027357
Sum of atomic charges:   -0.0000000

LOEWDIN ATOMIC CHARGES
----------------------
   0 S :    0.417774
   1 C :   -0.223566
   2 C :   -0.068664
   3 C :   -0.068566
   4 C :   -0.184698
   5 H :    0.038071
   6 C :   -0.034595
   7 H :    0.023928
   8 H :    0.034248
   9 C :   -0.040049
  10 H :    0.024810
  11 H :    0.020096
  12 C :   -0.055796
  13 H :    0.029431
  14 H :    0.025616
  15 H :    0.011429
  16 S :    0.435005
  17 C :   -0.189433
  18 C :   -0.076005
  19 C :   -0.057101
  20 C :   -0.218939
  21 H :    0.031716
  22 C :   -0.049451
  23 H :    0.040635
  24 H :    0.032943
  25 C :   -0.042183
  26 H :    0.025538
  27 H :    0.032240
  28 C :   -0.058487
  29 H :    0.021535
  30 H :    0.038713
  31 H :    0.020980
  32 H :    0.043268
  33 H :    0.019557

  Mayer bond orders larger than 0.100000
B(  0-S ,  1-C ) :   1.1451 B(  0-S ,  4-C ) :   1.1697 B(  1-C ,  2-C ) :   1.6029
B(  1-C ,  4-C ) :   0.1005 B(  1-C , 32-H ) :   0.9580 B(  2-C ,  3-C ) :   1.2499
B(  2-C ,  6-C ) :   1.0097 B(  3-C ,  4-C ) :   1.5459 B(  3-C ,  5-H ) :   0.9955
B(  4-C , 20-C ) :   1.0425 B(  6-C ,  7-H ) :   0.9493 B(  6-C ,  8-H ) :   0.9489
B(  6-C ,  9-C ) :   1.0538 B(  9-C , 10-H ) :   0.9507 B(  9-C , 11-H ) :   0.9582
B(  9-C , 12-C ) :   1.0895 B( 12-C , 13-H ) :   0.9676 B( 12-C , 14-H ) :   0.9671
B( 12-C , 15-H ) :   0.9723 B( 16-S , 17-C ) :   1.1483 B( 16-S , 20-C ) :   1.1588
B( 17-C , 18-C ) :   1.6288 B( 17-C , 33-H ) :   0.9757 B( 18-C , 19-C ) :   1.2195
B( 18-C , 21-H ) :   0.9773 B( 19-C , 20-C ) :   1.5637 B( 19-C , 22-C ) :   1.0459
B( 22-C , 23-H ) :   0.9278 B( 22-C , 24-H ) :   0.9256 B( 22-C , 25-C ) :   1.0624
B( 25-C , 26-H ) :   0.9528 B( 25-C , 27-H ) :   0.9508 B( 25-C , 28-C ) :   1.0618
B( 28-C , 29-H ) :   0.9771 B( 28-C , 30-H ) :   0.9757 B( 28-C , 31-H ) :   0.9757

Dispersion correction           -0.014684109
FINAL SINGLE POINT ENERGY     -1339.865047988878

DIPOLE MOMENT
-------------
                                X             Y             Z
Electronic contribution:      4.60854     -15.17920      22.39450
Nuclear contribution   :     -4.56578      15.68905     -22.92508
                        -----------------------------------------
Total Dipole Moment    :      0.04276       0.50985      -0.53058
                        -----------------------------------------
Magnitude (a.u.)       :      0.73708
Magnitude (Debye)      :      1.87350

Rotational constants in cm-1:     0.018001     0.009478     0.007058
Rotational constants in MHz :   539.646403   284.148832   211.606849

                             ****ORCA TERMINATED NORMALLY****
TOTAL RUN TIME: 0 days 0 hours 0 minutes 33 seconds 972 msec
