                         Program Version 4.2.1 -  RELEASE  -
|  1> ! wB97X-D3 SP def2-SVP
|  2> %pal
|  3> nprocs 16
|  4> end
|  5>
|  6> * xyz 0 1
|  7> S 	 5.83895 	 -15.0547 	 55.3327
|  8> C 	 4.21688 	 -14.8078 	 55.7894
|  9> C 	 3.38337 	 -15.8367 	 55.3855
| 10> C 	 4.14788 	 -16.8722 	 54.6941
| 11> C 	 5.47442 	 -16.5409 	 54.5678
| 12> H 	 3.86325 	 -17.8321 	 54.3446
| 13> C 	 1.88458 	 -15.8488 	 55.5933
| 14> H 	 1.43091 	 -15.9151 	 54.6031
| 15> H 	 1.52192 	 -14.923 	 56.0943
| 16> C 	 1.37642 	 -17.0236 	 56.4888
| 17> H 	 0.327119 	 -17.1001 	 56.5416
| 18> H 	 1.73756 	 -17.9984 	 56.0996
| 19> C 	 1.8495 	 -17.0423 	 57.9121
| 20> H 	 1.69551 	 -17.9846 	 58.3212
| 21> H 	 2.95005 	 -16.8048 	 57.9469
| 22> H 	 1.37528 	 -16.3022 	 58.6051
| 23> S 	 6.27284 	 -17.4481 	 52.1183
| 24> C 	 7.60485 	 -18.5063 	 51.9818
| 25> C 	 8.12054 	 -18.7918 	 53.2413
| 26> C 	 7.43961 	 -18.162 	 54.3122
| 27> C 	 6.43513 	 -17.3566 	 53.8571
| 28> H 	 8.88026 	 -19.5259 	 53.2353
| 29> C 	 7.65614 	 -18.5489 	 55.7452
| 30> H 	 7.29461 	 -17.7779 	 56.4148
| 31> H 	 8.71434 	 -18.6913 	 55.9095
| 32> C 	 6.86842 	 -19.9232 	 56.0475
| 33> H 	 7.10767 	 -20.5988 	 55.2498
| 34> H 	 5.79713 	 -19.7819 	 56.1457
| 35> C 	 7.34036 	 -20.5983 	 57.3174
| 36> H 	 8.34399 	 -20.9429 	 57.2969
| 37> H 	 6.78407 	 -21.5624 	 57.5457
| 38> H 	 7.24393 	 -19.8665 	 58.1659
| 39> H 	 3.87566 	 -13.9085 	 56.2901
| 40> H 	 8.01453 	 -18.8226 	 51.0436
| 41> *
| 42>
| 43>                          ****END OF INPUT****

CARTESIAN COORDINATES (ANGSTROEM)
---------------------------------
  S      5.838950  -15.054700   55.332700
  C      4.216880  -14.807800   55.789400
  C      3.383370  -15.836700   55.385500
  C      4.147880  -16.872200   54.694100
  C      5.474420  -16.540900   54.567800
  H      3.863250  -17.832100   54.344600
  C      1.884580  -15.848800   55.593300
  H      1.430910  -15.915100   54.603100
  H      1.521920  -14.923000   56.094300
  C      1.376420  -17.023600   56.488800
  H      0.327119  -17.100100   56.541600
  H      1.737560  -17.998400   56.099600
  C      1.849500  -17.042300   57.912100
  H      1.695510  -17.984600   58.321200
  H      2.950050  -16.804800   57.946900
  H      1.375280  -16.302200   58.605100
  S      6.272840  -17.448100   52.118300
  C      7.604850  -18.506300   51.981800
  C      8.120540  -18.791800   53.241300
  C      7.439610  -18.162000   54.312200
  C      6.435130  -17.356600   53.857100
  H      8.880260  -19.525900   53.235300
  C      7.656140  -18.548900   55.745200
  H      7.294610  -17.777900   56.414800
  H      8.714340  -18.691300   55.909500
  C      6.868420  -19.923200   56.047500
  H      7.107670  -20.598800   55.249800
  H      5.797130  -19.781900   56.145700
  C      7.340360  -20.598300   57.317400
  H      8.343990  -20.942900   57.296900
  H      6.784070  -21.562400   57.545700
  H      7.243930  -19.866500   58.165900
  H      3.875660  -13.908500   56.290100
  H      8.014530  -18.822600   51.043600

 Total Charge           Charge          ....    0
 Multiplicity           Mult            ....    1
 Number of Electrons    NEL             ....  134
 Basis Dimension        Dim             ....  322

ORBITAL ENERGIES
----------------

  NO   OCC          E(Eh)            E(eV)
   0   2.0000     -88.965670     -2420.8790
   1   2.0000     -88.962576     -2420.7948
   2   2.0000     -10.321314      -280.8572
   3   2.0000     -10.318676      -280.7854
   4   2.0000     -10.312738      -280.6239
   5   2.0000     -10.310492      -280.5628
   6   2.0000     -10.304690      -280.4049
   7   2.0000     -10.298895      -280.2472
   8   2.0000     -10.297145      -280.1996
   9   2.0000     -10.292493      -280.0730
  10   2.0000     -10.292240      -280.0661
  11   2.0000     -10.288351      -279.9603
  12   2.0000     -10.285908      -279.8938
  13   2.0000     -10.282692      -279.8063
  14   2.0000     -10.278607      -279.6951
  15   2.0000     -10.271105      -279.4910
  16   2.0000      -8.081793      -219.9168
  17   2.0000      -8.078253      -219.8204
  18   2.0000      -6.040095      -164.3593
  19   2.0000      -6.036555      -164.2630
  20   2.0000      -6.036040      -164.2490
  21   2.0000      -6.032762      -164.1598
  22   2.0000      -6.032515      -164.1531
  23   2.0000      -6.029293      -164.0654
  24   2.0000      -1.014127       -27.5958
  25   2.0000      -0.991270       -26.9738
  26   2.0000      -0.910813       -24.7845
  27   2.0000      -0.905451       -24.6386
  28   2.0000      -0.873378       -23.7658
  29   2.0000      -0.853636       -23.2286
  30   2.0000      -0.849786       -23.1239
  31   2.0000      -0.814491       -22.1634
  32   2.0000      -0.782680       -21.2978
  33   2.0000      -0.770882       -20.9768
  34   2.0000      -0.704331       -19.1658
  35   2.0000      -0.697256       -18.9733
  36   2.0000      -0.688730       -18.7413
  37   2.0000      -0.665309       -18.1040
  38   2.0000      -0.647640       -17.6232
  39   2.0000      -0.616864       -16.7857
  40   2.0000      -0.596792       -16.2395
  41   2.0000      -0.569652       -15.5010
  42   2.0000      -0.563596       -15.3362
  43   2.0000      -0.554895       -15.0995
  44   2.0000      -0.543278       -14.7833
  45   2.0000      -0.528942       -14.3932
  46   2.0000      -0.518875       -14.1193
  47   2.0000      -0.512052       -13.9337
  48   2.0000      -0.509022       -13.8512
  49   2.0000      -0.499421       -13.5899
  50   2.0000      -0.484099       -13.1730
  51   2.0000      -0.476477       -12.9656
  52   2.0000      -0.472364       -12.8537
  53   2.0000      -0.468449       -12.7472
  54   2.0000      -0.456835       -12.4311
  55   2.0000      -0.447555       -12.1786
  56   2.0000      -0.444575       -12.0975
  57   2.0000      -0.441951       -12.0261
  58   2.0000      -0.430513       -11.7149
  59   2.0000      -0.423539       -11.5251
  60   2.0000      -0.420998       -11.4559
  61   2.0000      -0.417080       -11.3493
  62   2.0000      -0.415037       -11.2937
  63   2.0000      -0.338009        -9.1977
  64   2.0000      -0.330512        -8.9937
  65   2.0000      -0.325746        -8.8640
  66   2.0000      -0.304478        -8.2853
  67   0.0000       0.047629         1.2961
  68   0.0000       0.064800         1.7633
  69   0.0000       0.111728         3.0403
  70   0.0000       0.127585         3.4718
  71   0.0000       0.135331         3.6825

MULLIKEN ATOMIC CHARGES
-----------------------
   0 S :    0.135738
   1 C :   -0.127067
   2 C :   -0.084771
   3 C :    0.039712
   4 C :   -0.172517
   5 H :    0.000888
   6 C :    0.087612
   7 H :    0.042901
   8 H :    0.022540
   9 C :   -0.073297
  10 H :    0.021686
  11 H :    0.023735
  12 C :   -0.061884
  13 H :    0.021167
  14 H :    0.039466
  15 H :    0.027453
  16 S :    0.122904
  17 C :   -0.096667
  18 C :   -0.040248
  19 C :    0.007739
  20 C :   -0.207708
  21 H :   -0.000157
  22 C :    0.095029
  23 H :    0.024271
  24 H :    0.021479
  25 C :   -0.062470
  26 H :    0.024178
  27 H :    0.038867
  28 C :   -0.066678
  29 H :    0.020608
  30 H :    0.039869
  31 H :    0.035483
  32 H :    0.048039
  33 H :    0.052101
Sum of atomic charges:   -0.0000000

LOEWDIN ATOMIC CHARGES
----------------------
   0 S :    0.441968
   1 C :   -0.212716
   2 C :   -0.061994
   3 C :   -0.057545
   4 C :   -0.212790
   5 H :    0.025242
   6 C :   -0.028921
   7 H :    0.036181
   8 H :    0.032223
   9 C :   -0.042499
  10 H :    0.018113
  11 H :    0.025471
  12 C :   -0.067940
  13 H :    0.016720
  14 H :    0.030764
  15 H :    0.023798
  16 S :    0.428534
  17 C :   -0.193161
  18 C :   -0.070840
  19 C :   -0.056859
  20 C :   -0.205302
  21 H :    0.022932
  22 C :   -0.021160
  23 H :    0.026866
  24 H :    0.028783
  25 C :   -0.031101
  26 H :    0.020623
  27 H :    0.026784
  28 C :   -0.073803
  29 H :    0.015459
  30 H :    0.033260
  31 H :    0.028219
  32 H :    0.028537
  33 H :    0.026156

  Mayer bond orders larger than 0.100000
B(  0-S ,  1-C ) :   1.1522 B(  0-S ,  4-C ) :   1.1616 B(  1-C ,  2-C ) :   1.6047
B(  1-C , 32-H ) :   0.9682 B(  2-C ,  3-C ) :   1.2065 B(  2-C ,  6-C ) :   1.0302
B(  3-C ,  4-C ) :   1.5900 B(  3-C ,  5-H ) :   1.0010 B(  4-C , 20-C ) :   1.0144
B(  6-C ,  7-H ) :   0.9373 B(  6-C ,  8-H ) :   0.9451 B(  6-C ,  9-C ) :   1.0637
B(  9-C , 10-H ) :   0.9570 B(  9-C , 11-H ) :   0.9590 B(  9-C , 12-C ) :   1.0804
B( 12-C , 13-H ) :   0.9731 B( 12-C , 14-H ) :   0.9731 B( 12-C , 15-H ) :   0.9732
B( 16-S , 17-C ) :   1.1747 B( 16-S , 20-C ) :   1.1578 B( 17-C , 18-C ) :   1.5911
B( 17-C , 20-C ) :   0.1002 B( 17-C , 33-H ) :   0.9713 B( 18-C , 19-C ) :   1.2289
B( 18-C , 21-H ) :   1.0016 B( 19-C , 20-C ) :   1.5893 B( 19-C , 22-C ) :   1.0736
B( 22-C , 23-H ) :   0.9196 B( 22-C , 24-H ) :   0.9347 B( 22-C , 25-C ) :   1.0547
B( 25-C , 26-H ) :   0.9599 B( 25-C , 27-H ) :   0.9553 B( 25-C , 28-C ) :   1.0891
B( 28-C , 29-H ) :   0.9755 B( 28-C , 30-H ) :   0.9714 B( 28-C , 31-H ) :   0.9727

Dispersion correction           -0.014744122
FINAL SINGLE POINT ENERGY     -1339.894091761196

DIPOLE MOMENT
-------------
                                X             Y             Z
Electronic contribution:     10.14734      14.22003     -20.27446
Nuclear contribution   :    -10.32502     -14.62887      20.47925
                        -----------------------------------------
Total Dipole Moment    :     -0.17768      -0.40884       0.20479
                        -----------------------------------------
Magnitude (a.u.)       :      0.49057
Magnitude (Debye)      :      1.24693

Rotational constants in cm-1:     0.017703     0.009160     0.007408
Rotational constants in MHz :   530.721821   274.602366   222.082624

                             ****ORCA TERMINATED NORMALLY****
TOTAL RUN TIME: 0 days 0 hours 0 minutes 28 seconds 705 msec
