                         Program Version 4.2.1 -  RELEASE  -
|  1> ! wB97X-D3 SP def2-SVP
|  2> %pal
|  3> nprocs 16
|  4> end
|  5>
|  6> * xyz 0 1
|  7> S 	 0.788603 	 8.5591 	 80.6724
|  8> C 	 0.499626 	 7.32564 	 79.4111
|  9> C 	 -0.775092 	 7.43289 	 78.8741
| 10> C 	 -1.52287 	 8.49875 	 79.5211
| 11> C 	 -0.857359 	 9.14411 	 80.5253
| 12> H 	 -2.50978 	 8.7843 	 79.2527
| 13> C 	 -1.41757 	 6.44317 	 77.9296
| 14> H 	 -2.11799 	 5.78332 	 78.4385
| 15> H 	 -0.589816 	 5.79555 	 77.7328
| 16> C 	 -2.12899 	 6.89765 	 76.6628
| 17> H 	 -3.20798 	 7.09543 	 76.7916
| 18> H 	 -1.81546 	 7.96565 	 76.5746
| 19> C 	 -1.72358 	 6.03454 	 75.4709
| 20> H 	 -0.665623 	 5.67454 	 75.4801
| 21> H 	 -2.29383 	 5.01867 	 75.513
| 22> H 	 -1.80512 	 6.52118 	 74.4666
| 23> S 	 -0.830586 	 11.8258 	 81.2074
| 24> C 	 -2.01407 	 12.4275 	 82.2802
| 25> C 	 -2.87285 	 11.4383 	 82.6828
| 26> C 	 -2.58481 	 10.1423 	 82.1255
| 27> C 	 -1.46911 	 10.1568 	 81.3746
| 28> H 	 -3.66622 	 11.6681 	 83.4064
| 29> C 	 -3.39497 	 8.87735 	 82.4917
| 30> H 	 -3.39378 	 8.67424 	 83.5265
| 31> H 	 -2.74894 	 8.07217 	 82.1855
| 32> C 	 -4.7574 	 8.7888 	 81.6943
| 33> H 	 -5.21475 	 7.94656 	 82.266
| 34> H 	 -4.67915 	 8.52204 	 80.6513
| 35> C 	 -5.76673 	 9.89176 	 81.9665
| 36> H 	 -5.93378 	 10.0892 	 83.0102
| 37> H 	 -6.77219 	 9.60759 	 81.6079
| 38> H 	 -5.46309 	 10.7788 	 81.4637
| 39> H 	 1.11123 	 6.43311 	 79.3098
| 40> H 	 -2.12346 	 13.4702 	 82.5434
| 41> *
| 42>
| 43>                          ****END OF INPUT****

CARTESIAN COORDINATES (ANGSTROEM)
---------------------------------
  S      0.788603    8.559100   80.672400
  C      0.499626    7.325640   79.411100
  C     -0.775092    7.432890   78.874100
  C     -1.522870    8.498750   79.521100
  C     -0.857359    9.144110   80.525300
  H     -2.509780    8.784300   79.252700
  C     -1.417570    6.443170   77.929600
  H     -2.117990    5.783320   78.438500
  H     -0.589816    5.795550   77.732800
  C     -2.128990    6.897650   76.662800
  H     -3.207980    7.095430   76.791600
  H     -1.815460    7.965650   76.574600
  C     -1.723580    6.034540   75.470900
  H     -0.665623    5.674540   75.480100
  H     -2.293830    5.018670   75.513000
  H     -1.805120    6.521180   74.466600
  S     -0.830586   11.825800   81.207400
  C     -2.014070   12.427500   82.280200
  C     -2.872850   11.438300   82.682800
  C     -2.584810   10.142300   82.125500
  C     -1.469110   10.156800   81.374600
  H     -3.666220   11.668100   83.406400
  C     -3.394970    8.877350   82.491700
  H     -3.393780    8.674240   83.526500
  H     -2.748940    8.072170   82.185500
  C     -4.757400    8.788800   81.694300
  H     -5.214750    7.946560   82.266000
  H     -4.679150    8.522040   80.651300
  C     -5.766730    9.891760   81.966500
  H     -5.933780   10.089200   83.010200
  H     -6.772190    9.607590   81.607900
  H     -5.463090   10.778800   81.463700
  H      1.111230    6.433110   79.309800
  H     -2.123460   13.470200   82.543400

 Total Charge           Charge          ....    0
 Multiplicity           Mult            ....    1
 Number of Electrons    NEL             ....  134
 Basis Dimension        Dim             ....  322

ORBITAL ENERGIES
----------------

  NO   OCC          E(Eh)            E(eV)
   0   2.0000     -88.966605     -2420.9044
   1   2.0000     -88.959489     -2420.7108
   2   2.0000     -10.328143      -281.0431
   3   2.0000     -10.322774      -280.8970
   4   2.0000     -10.318950      -280.7929
   5   2.0000     -10.312582      -280.6196
   6   2.0000     -10.305614      -280.4300
   7   2.0000     -10.300676      -280.2956
   8   2.0000     -10.294262      -280.1211
   9   2.0000     -10.292797      -280.0812
  10   2.0000     -10.292197      -280.0649
  11   2.0000     -10.291541      -280.0471
  12   2.0000     -10.291141      -280.0362
  13   2.0000     -10.290831      -280.0277
  14   2.0000     -10.288989      -279.9776
  15   2.0000     -10.273979      -279.5692
  16   2.0000      -8.080778      -219.8891
  17   2.0000      -8.074895      -219.7291
  18   2.0000      -6.039411      -164.3407
  19   2.0000      -6.035411      -164.2319
  20   2.0000      -6.033404      -164.1773
  21   2.0000      -6.031378      -164.1221
  22   2.0000      -6.029344      -164.0668
  23   2.0000      -6.025577      -163.9643
  24   2.0000      -1.005857       -27.3708
  25   2.0000      -0.982384       -26.7320
  26   2.0000      -0.913946       -24.8697
  27   2.0000      -0.905442       -24.6383
  28   2.0000      -0.870897       -23.6983
  29   2.0000      -0.849989       -23.1294
  30   2.0000      -0.842347       -22.9214
  31   2.0000      -0.813144       -22.1268
  32   2.0000      -0.787767       -21.4362
  33   2.0000      -0.772939       -21.0327
  34   2.0000      -0.712305       -19.3828
  35   2.0000      -0.699909       -19.0455
  36   2.0000      -0.691796       -18.8247
  37   2.0000      -0.659131       -17.9359
  38   2.0000      -0.643401       -17.5078
  39   2.0000      -0.619509       -16.8577
  40   2.0000      -0.597610       -16.2618
  41   2.0000      -0.569485       -15.4965
  42   2.0000      -0.557788       -15.1782
  43   2.0000      -0.554076       -15.0772
  44   2.0000      -0.538613       -14.6564
  45   2.0000      -0.525915       -14.3109
  46   2.0000      -0.518623       -14.1124
  47   2.0000      -0.513243       -13.9660
  48   2.0000      -0.503448       -13.6995
  49   2.0000      -0.497042       -13.5252
  50   2.0000      -0.489065       -13.3081
  51   2.0000      -0.482061       -13.1176
  52   2.0000      -0.479729       -13.0541
  53   2.0000      -0.466989       -12.7074
  54   2.0000      -0.458613       -12.4795
  55   2.0000      -0.444056       -12.0834
  56   2.0000      -0.440876       -11.9969
  57   2.0000      -0.439669       -11.9640
  58   2.0000      -0.432758       -11.7759
  59   2.0000      -0.426223       -11.5981
  60   2.0000      -0.422623       -11.5002
  61   2.0000      -0.405545       -11.0355
  62   2.0000      -0.400393       -10.8952
  63   2.0000      -0.341569        -9.2946
  64   2.0000      -0.333335        -9.0705
  65   2.0000      -0.326853        -8.8941
  66   2.0000      -0.301187        -8.1957
  67   0.0000       0.038796         1.0557
  68   0.0000       0.063823         1.7367
  69   0.0000       0.115604         3.1457
  70   0.0000       0.121402         3.3035
  71   0.0000       0.128153         3.4872

MULLIKEN ATOMIC CHARGES
-----------------------
   0 S :    0.105520
   1 C :   -0.127037
   2 C :   -0.107398
   3 C :    0.051130
   4 C :   -0.152704
   5 H :   -0.005757
   6 C :    0.086165
   7 H :    0.038326
   8 H :   -0.001777
   9 C :   -0.068863
  10 H :    0.037998
  11 H :    0.031354
  12 C :   -0.100886
  13 H :    0.039618
  14 H :    0.046605
  15 H :    0.050151
  16 S :    0.095507
  17 C :   -0.080469
  18 C :   -0.050863
  19 C :   -0.033947
  20 C :   -0.166780
  21 H :    0.022711
  22 C :    0.091130
  23 H :    0.025825
  24 H :    0.016771
  25 C :   -0.078855
  26 H :    0.028545
  27 H :    0.038679
  28 C :   -0.035333
  29 H :    0.022648
  30 H :    0.030337
  31 H :    0.035838
  32 H :    0.059019
  33 H :    0.056788
Sum of atomic charges:   -0.0000000

LOEWDIN ATOMIC CHARGES
----------------------
   0 S :    0.386659
   1 C :   -0.188894
   2 C :   -0.057696
   3 C :   -0.054864
   4 C :   -0.193419
   5 H :    0.023089
   6 C :   -0.034603
   7 H :    0.034638
   8 H :    0.026302
   9 C :   -0.055716
  10 H :    0.028995
  11 H :    0.028973
  12 C :   -0.078036
  13 H :    0.029135
  14 H :    0.036239
  15 H :    0.031838
  16 S :    0.394897
  17 C :   -0.191839
  18 C :   -0.080273
  19 C :   -0.055133
  20 C :   -0.185360
  21 H :    0.032910
  22 C :   -0.024993
  23 H :    0.028159
  24 H :    0.032988
  25 C :   -0.035519
  26 H :    0.031477
  27 H :    0.022954
  28 C :   -0.065037
  29 H :    0.022427
  30 H :    0.029779
  31 H :    0.018636
  32 H :    0.030451
  33 H :    0.030836

  Mayer bond orders larger than 0.100000
B(  0-S ,  1-C ) :   1.1205 B(  0-S ,  4-C ) :   1.1375 B(  1-C ,  2-C ) :   1.6499
B(  1-C , 32-H ) :   0.9580 B(  2-C ,  3-C ) :   1.1981 B(  2-C ,  6-C ) :   1.0422
B(  3-C ,  4-C ) :   1.6092 B(  3-C ,  5-H ) :   1.0027 B(  4-C , 20-C ) :   1.0045
B(  6-C ,  7-H ) :   0.9320 B(  6-C ,  8-H ) :   0.9379 B(  6-C ,  9-C ) :   1.0352
B(  9-C , 10-H ) :   0.9515 B(  9-C , 11-H ) :   0.9660 B(  9-C , 12-C ) :   1.0684
B( 12-C , 13-H ) :   0.9781 B( 12-C , 14-H ) :   0.9748 B( 12-C , 15-H ) :   0.9756
B( 16-S , 17-C ) :   1.1562 B( 16-S , 20-C ) :   1.1260 B( 17-C , 18-C ) :   1.6245
B( 17-C , 33-H ) :   0.9670 B( 18-C , 19-C ) :   1.2041 B( 18-C , 21-H ) :   0.9893
B( 19-C , 20-C ) :   1.6686 B( 19-C , 22-C ) :   1.0179 B( 22-C , 23-H ) :   0.9469
B( 22-C , 24-H ) :   0.9257 B( 22-C , 25-C ) :   1.0637 B( 25-C , 26-H ) :   0.9547
B( 25-C , 27-H ) :   0.9580 B( 25-C , 28-C ) :   1.0869 B( 28-C , 29-H ) :   0.9719
B( 28-C , 30-H ) :   0.9705 B( 28-C , 31-H ) :   0.9714

Dispersion correction           -0.014577053
FINAL SINGLE POINT ENERGY     -1339.867270169150

DIPOLE MOMENT
-------------
                                X             Y             Z
Electronic contribution:     21.27825      15.01438      11.54053
Nuclear contribution   :    -21.96562     -15.46172     -11.56526
                        -----------------------------------------
Total Dipole Moment    :     -0.68738      -0.44734      -0.02473
                        -----------------------------------------
Magnitude (a.u.)       :      0.82050
Magnitude (Debye)      :      2.08553

Rotational constants in cm-1:     0.018435     0.008427     0.006683
Rotational constants in MHz :   552.680371   252.624490   200.337271

                             ****ORCA TERMINATED NORMALLY****
TOTAL RUN TIME: 0 days 0 hours 0 minutes 34 seconds 658 msec
