                         Program Version 4.2.1 -  RELEASE  -
|  1> ! wB97X-D3 SP def2-SVP
|  2> %pal
|  3> nprocs 16
|  4> end
|  5>
|  6> * xyz 0 1
|  7> S 	 -68.1532 	 54.2908 	 133.885
|  8> C 	 -67.5822 	 54.401 	 135.522
|  9> C 	 -68.3168 	 53.6506 	 136.411
| 10> C 	 -69.401 	 52.9949 	 135.774
| 11> C 	 -69.4565 	 53.175 	 134.41
| 12> H 	 -70.1183 	 52.3646 	 136.222
| 13> C 	 -68.1071 	 53.696 	 137.914
| 14> H 	 -67.345 	 53.0037 	 138.095
| 15> H 	 -69.0329 	 53.3744 	 138.472
| 16> C 	 -67.5803 	 55.0287 	 138.516
| 17> H 	 -66.7206 	 55.2596 	 137.925
| 18> H 	 -68.2908 	 55.8369 	 138.249
| 19> C 	 -67.2502 	 54.9294 	 139.997
| 20> H 	 -67.0664 	 55.8896 	 140.494
| 21> H 	 -68.124 	 54.5911 	 140.581
| 22> H 	 -66.4142 	 54.2988 	 140.234
| 23> S 	 -69.8169 	 51.6891 	 132.116
| 24> C 	 -71.4824 	 51.2631 	 131.605
| 25> C 	 -72.423 	 51.7295 	 132.505
| 26> C 	 -71.8302 	 52.5963 	 133.525
| 27> C 	 -70.4252 	 52.6248 	 133.46
| 28> H 	 -73.4849 	 51.529 	 132.436
| 29> C 	 -72.6061 	 53.2271 	 134.67
| 30> H 	 -73.4465 	 53.7543 	 134.252
| 31> H 	 -71.9409 	 53.9348 	 135.06
| 32> C 	 -73.1191 	 52.2945 	 135.853
| 33> H 	 -73.1715 	 52.8579 	 136.722
| 34> H 	 -72.3965 	 51.559 	 136.16
| 35> C 	 -74.4647 	 51.601 	 135.559
| 36> H 	 -75.2105 	 52.3874 	 135.311
| 37> H 	 -74.8116 	 51.027 	 136.37
| 38> H 	 -74.4531 	 50.8763 	 134.787
| 39> H 	 -66.8413 	 55.105 	 135.801
| 40> H 	 -71.7317 	 50.4812 	 130.885
| 41> *
| 42>
| 43>                          ****END OF INPUT****

CARTESIAN COORDINATES (ANGSTROEM)
---------------------------------
  S    -68.153200   54.290800  133.885000
  C    -67.582200   54.401000  135.522000
  C    -68.316800   53.650600  136.411000
  C    -69.401000   52.994900  135.774000
  C    -69.456500   53.175000  134.410000
  H    -70.118300   52.364600  136.222000
  C    -68.107100   53.696000  137.914000
  H    -67.345000   53.003700  138.095000
  H    -69.032900   53.374400  138.472000
  C    -67.580300   55.028700  138.516000
  H    -66.720600   55.259600  137.925000
  H    -68.290800   55.836900  138.249000
  C    -67.250200   54.929400  139.997000
  H    -67.066400   55.889600  140.494000
  H    -68.124000   54.591100  140.581000
  H    -66.414200   54.298800  140.234000
  S    -69.816900   51.689100  132.116000
  C    -71.482400   51.263100  131.605000
  C    -72.423000   51.729500  132.505000
  C    -71.830200   52.596300  133.525000
  C    -70.425200   52.624800  133.460000
  H    -73.484900   51.529000  132.436000
  C    -72.606100   53.227100  134.670000
  H    -73.446500   53.754300  134.252000
  H    -71.940900   53.934800  135.060000
  C    -73.119100   52.294500  135.853000
  H    -73.171500   52.857900  136.722000
  H    -72.396500   51.559000  136.160000
  C    -74.464700   51.601000  135.559000
  H    -75.210500   52.387400  135.311000
  H    -74.811600   51.027000  136.370000
  H    -74.453100   50.876300  134.787000
  H    -66.841300   55.105000  135.801000
  H    -71.731700   50.481200  130.885000

 Total Charge           Charge          ....    0
 Multiplicity           Mult            ....    1
 Number of Electrons    NEL             ....  134
 Basis Dimension        Dim             ....  322

ORBITAL ENERGIES
----------------

  NO   OCC          E(Eh)            E(eV)
   0   2.0000     -88.965872     -2420.8844
   1   2.0000     -88.965671     -2420.8790
   2   2.0000     -10.331744      -281.1410
   3   2.0000     -10.327766      -281.0328
   4   2.0000     -10.321266      -280.8559
   5   2.0000     -10.310398      -280.5602
   6   2.0000     -10.305889      -280.4375
   7   2.0000     -10.300917      -280.3022
   8   2.0000     -10.298753      -280.2433
   9   2.0000     -10.293032      -280.0876
  10   2.0000     -10.292548      -280.0745
  11   2.0000     -10.290297      -280.0132
  12   2.0000     -10.287175      -279.9283
  13   2.0000     -10.285753      -279.8896
  14   2.0000     -10.282403      -279.7984
  15   2.0000     -10.275366      -279.6069
  16   2.0000      -8.080242      -219.8746
  17   2.0000      -8.079744      -219.8610
  18   2.0000      -6.038659      -164.3203
  19   2.0000      -6.038363      -164.3122
  20   2.0000      -6.034874      -164.2173
  21   2.0000      -6.034368      -164.2035
  22   2.0000      -6.031049      -164.1132
  23   2.0000      -6.030392      -164.0953
  24   2.0000      -1.002030       -27.2666
  25   2.0000      -0.978553       -26.6278
  26   2.0000      -0.911770       -24.8105
  27   2.0000      -0.902429       -24.5563
  28   2.0000      -0.868214       -23.6253
  29   2.0000      -0.853288       -23.2191
  30   2.0000      -0.845945       -23.0193
  31   2.0000      -0.818256       -22.2659
  32   2.0000      -0.783810       -21.3286
  33   2.0000      -0.769470       -20.9383
  34   2.0000      -0.715609       -19.4727
  35   2.0000      -0.711114       -19.3504
  36   2.0000      -0.693381       -18.8679
  37   2.0000      -0.662469       -18.0267
  38   2.0000      -0.645784       -17.5727
  39   2.0000      -0.615408       -16.7461
  40   2.0000      -0.589054       -16.0290
  41   2.0000      -0.573794       -15.6137
  42   2.0000      -0.565293       -15.3824
  43   2.0000      -0.553877       -15.0718
  44   2.0000      -0.540406       -14.7052
  45   2.0000      -0.522637       -14.2217
  46   2.0000      -0.516465       -14.0537
  47   2.0000      -0.514987       -14.0135
  48   2.0000      -0.501747       -13.6532
  49   2.0000      -0.496189       -13.5020
  50   2.0000      -0.493683       -13.4338
  51   2.0000      -0.480523       -13.0757
  52   2.0000      -0.474293       -12.9062
  53   2.0000      -0.466267       -12.6878
  54   2.0000      -0.463240       -12.6054
  55   2.0000      -0.450119       -12.2484
  56   2.0000      -0.439615       -11.9625
  57   2.0000      -0.438436       -11.9304
  58   2.0000      -0.434145       -11.8137
  59   2.0000      -0.431488       -11.7414
  60   2.0000      -0.426975       -11.6186
  61   2.0000      -0.420739       -11.4489
  62   2.0000      -0.416544       -11.3347
  63   2.0000      -0.348699        -9.4886
  64   2.0000      -0.331960        -9.0331
  65   2.0000      -0.326484        -8.8841
  66   2.0000      -0.292541        -7.9604
  67   0.0000       0.031625         0.8606
  68   0.0000       0.063474         1.7272
  69   0.0000       0.110044         2.9944
  70   0.0000       0.121226         3.2987
  71   0.0000       0.128331         3.4921

MULLIKEN ATOMIC CHARGES
-----------------------
   0 S :    0.111587
   1 C :   -0.132095
   2 C :   -0.052800
   3 C :    0.039960
   4 C :   -0.159167
   5 H :   -0.018564
   6 C :    0.072562
   7 H :    0.023676
   8 H :    0.031758
   9 C :   -0.091149
  10 H :    0.021200
  11 H :    0.036946
  12 C :   -0.036833
  13 H :    0.032255
  14 H :    0.027296
  15 H :    0.033626
  16 S :    0.102794
  17 C :   -0.090286
  18 C :   -0.034079
  19 C :   -0.058553
  20 C :   -0.153451
  21 H :    0.026402
  22 C :    0.084148
  23 H :    0.020640
  24 H :    0.017761
  25 C :   -0.041206
  26 H :    0.012495
  27 H :    0.024411
  28 C :   -0.031886
  29 H :    0.032140
  30 H :    0.019386
  31 H :    0.021426
  32 H :    0.041017
  33 H :    0.066583
Sum of atomic charges:    0.0000000

LOEWDIN ATOMIC CHARGES
----------------------
   0 S :    0.393520
   1 C :   -0.193712
   2 C :   -0.062922
   3 C :   -0.052573
   4 C :   -0.179476
   5 H :    0.024657
   6 C :   -0.028596
   7 H :    0.026699
   8 H :    0.032815
   9 C :   -0.041162
  10 H :    0.016919
  11 H :    0.028211
  12 C :   -0.067778
  13 H :    0.030666
  14 H :    0.028757
  15 H :    0.024760
  16 S :    0.391145
  17 C :   -0.178222
  18 C :   -0.065710
  19 C :   -0.052385
  20 C :   -0.204103
  21 H :    0.031846
  22 C :   -0.024707
  23 H :    0.028908
  24 H :    0.024647
  25 C :   -0.029712
  26 H :    0.017182
  27 H :    0.020596
  28 C :   -0.061313
  29 H :    0.029005
  30 H :    0.021618
  31 H :    0.018371
  32 H :    0.018533
  33 H :    0.033517

  Mayer bond orders larger than 0.100000
B(  0-S ,  1-C ) :   1.1443 B(  0-S ,  4-C ) :   1.1425 B(  1-C ,  2-C ) :   1.6094
B(  1-C , 32-H ) :   0.9682 B(  2-C ,  3-C ) :   1.2414 B(  2-C ,  6-C ) :   1.0081
B(  3-C ,  4-C ) :   1.5792 B(  3-C ,  5-H ) :   1.0074 B(  4-C , 20-C ) :   1.0291
B(  6-C ,  7-H ) :   0.9252 B(  6-C ,  8-H ) :   0.9510 B(  6-C ,  9-C ) :   1.0682
B(  9-C , 10-H ) :   0.9465 B(  9-C , 11-H ) :   0.9608 B(  9-C , 12-C ) :   1.0859
B( 12-C , 13-H ) :   0.9718 B( 12-C , 14-H ) :   0.9730 B( 12-C , 15-H ) :   0.9745
B( 16-S , 17-C ) :   1.1336 B( 16-S , 20-C ) :   1.1432 B( 17-C , 18-C ) :   1.6332
B( 17-C , 33-H ) :   0.9629 B( 18-C , 19-C ) :   1.2224 B( 18-C , 21-H ) :   0.9841
B( 19-C , 20-C ) :   1.5968 B( 19-C , 22-C ) :   1.0616 B( 22-C , 23-H ) :   0.9336
B( 22-C , 24-H ) :   0.9265 B( 22-C , 25-C ) :   1.0552 B( 25-C , 26-H ) :   0.9561
B( 25-C , 27-H ) :   0.9516 B( 25-C , 28-C ) :   1.0810 B( 28-C , 29-H ) :   0.9765
B( 28-C , 30-H ) :   0.9693 B( 28-C , 31-H ) :   0.9751

Dispersion correction           -0.014245330
FINAL SINGLE POINT ENERGY     -1339.882459466623

DIPOLE MOMENT
-------------
                                X             Y             Z
Electronic contribution:     10.02419      -2.72213     -27.75034
Nuclear contribution   :    -10.39462       2.66106      28.53488
                        -----------------------------------------
Total Dipole Moment    :     -0.37043      -0.06107       0.78454
                        -----------------------------------------
Magnitude (a.u.)       :      0.86974
Magnitude (Debye)      :      2.21070

Rotational constants in cm-1:     0.020017     0.007904     0.005999
Rotational constants in MHz :   600.083698   236.964687   179.845999

                             ****ORCA TERMINATED NORMALLY****
TOTAL RUN TIME: 0 days 0 hours 0 minutes 34 seconds 965 msec
