                         Program Version 4.2.1 -  RELEASE  -
|  1> ! wB97X-D3 SP def2-SVP
|  2> %pal
|  3> nprocs 16
|  4> end
|  5>
|  6> * xyz 0 1
|  7> S 	 -37.9192 	 54.6909 	 111.747
|  8> C 	 -38.841 	 56.1822 	 111.698
|  9> C 	 -40.0422 	 56.0675 	 112.384
| 10> C 	 -40.2177 	 54.7544 	 112.889
| 11> C 	 -39.0963 	 53.9571 	 112.72
| 12> H 	 -41.1488 	 54.469 	 113.347
| 13> C 	 -41.2108 	 57.1013 	 112.507
| 14> H 	 -40.8303 	 58.082 	 112.201
| 15> H 	 -41.4501 	 57.1323 	 113.559
| 16> C 	 -42.4196 	 56.9947 	 111.536
| 17> H 	 -42.7573 	 55.929 	 111.613
| 18> H 	 -43.1841 	 57.5422 	 112.06
| 19> C 	 -42.2238 	 57.4936 	 110.094
| 20> H 	 -41.317 	 57.1168 	 109.587
| 21> H 	 -43.1167 	 57.3024 	 109.536
| 22> H 	 -42.1772 	 58.5972 	 110.016
| 23> S 	 -37.8249 	 52.4536 	 114.575
| 24> C 	 -38.1482 	 50.7796 	 114.685
| 25> C 	 -38.9359 	 50.2785 	 113.673
| 26> C 	 -39.5181 	 51.3676 	 112.892
| 27> C 	 -38.9679 	 52.6233 	 113.248
| 28> H 	 -39.145 	 49.25 	 113.521
| 29> C 	 -40.3852 	 51.1047 	 111.695
| 30> H 	 -40.6537 	 50.0502 	 111.702
| 31> H 	 -39.847 	 51.2253 	 110.743
| 32> C 	 -41.6486 	 51.9823 	 111.609
| 33> H 	 -41.2241 	 52.859 	 111.232
| 34> H 	 -42.009 	 52.2781 	 112.615
| 35> C 	 -42.7426 	 51.4316 	 110.629
| 36> H 	 -43.2219 	 50.579 	 111.077
| 37> H 	 -42.2475 	 51.2227 	 109.717
| 38> H 	 -43.4445 	 52.2479 	 110.299
| 39> H 	 -38.668 	 57.1495 	 111.169
| 40> H 	 -37.6799 	 50.2519 	 115.478
| 41> *
| 42>
| 43>                          ****END OF INPUT****

CARTESIAN COORDINATES (ANGSTROEM)
---------------------------------
  S    -37.919200   54.690900  111.747000
  C    -38.841000   56.182200  111.698000
  C    -40.042200   56.067500  112.384000
  C    -40.217700   54.754400  112.889000
  C    -39.096300   53.957100  112.720000
  H    -41.148800   54.469000  113.347000
  C    -41.210800   57.101300  112.507000
  H    -40.830300   58.082000  112.201000
  H    -41.450100   57.132300  113.559000
  C    -42.419600   56.994700  111.536000
  H    -42.757300   55.929000  111.613000
  H    -43.184100   57.542200  112.060000
  C    -42.223800   57.493600  110.094000
  H    -41.317000   57.116800  109.587000
  H    -43.116700   57.302400  109.536000
  H    -42.177200   58.597200  110.016000
  S    -37.824900   52.453600  114.575000
  C    -38.148200   50.779600  114.685000
  C    -38.935900   50.278500  113.673000
  C    -39.518100   51.367600  112.892000
  C    -38.967900   52.623300  113.248000
  H    -39.145000   49.250000  113.521000
  C    -40.385200   51.104700  111.695000
  H    -40.653700   50.050200  111.702000
  H    -39.847000   51.225300  110.743000
  C    -41.648600   51.982300  111.609000
  H    -41.224100   52.859000  111.232000
  H    -42.009000   52.278100  112.615000
  C    -42.742600   51.431600  110.629000
  H    -43.221900   50.579000  111.077000
  H    -42.247500   51.222700  109.717000
  H    -43.444500   52.247900  110.299000
  H    -38.668000   57.149500  111.169000
  H    -37.679900   50.251900  115.478000

 Total Charge           Charge          ....    0
 Multiplicity           Mult            ....    1
 Number of Electrons    NEL             ....  134
 Basis Dimension        Dim             ....  322

ORBITAL ENERGIES
----------------

  NO   OCC          E(Eh)            E(eV)
   0   2.0000     -88.971788     -2421.0454
   1   2.0000     -88.961755     -2420.7724
   2   2.0000     -10.323086      -280.9055
   3   2.0000     -10.322191      -280.8811
   4   2.0000     -10.315153      -280.6896
   5   2.0000     -10.311811      -280.5986
   6   2.0000     -10.307176      -280.4725
   7   2.0000     -10.297643      -280.2131
   8   2.0000     -10.295406      -280.1522
   9   2.0000     -10.294019      -280.1145
  10   2.0000     -10.293673      -280.1051
  11   2.0000     -10.287853      -279.9467
  12   2.0000     -10.287724      -279.9432
  13   2.0000     -10.284510      -279.8557
  14   2.0000     -10.279036      -279.7068
  15   2.0000     -10.278247      -279.6853
  16   2.0000      -8.086884      -220.0553
  17   2.0000      -8.077534      -219.8009
  18   2.0000      -6.045340      -164.5021
  19   2.0000      -6.041330      -164.3929
  20   2.0000      -6.037681      -164.2937
  21   2.0000      -6.035800      -164.2425
  22   2.0000      -6.031888      -164.1360
  23   2.0000      -6.028506      -164.0440
  24   2.0000      -1.009781       -27.4775
  25   2.0000      -0.984226       -26.7822
  26   2.0000      -0.907463       -24.6933
  27   2.0000      -0.906726       -24.6733
  28   2.0000      -0.867772       -23.6133
  29   2.0000      -0.849200       -23.1079
  30   2.0000      -0.847029       -23.0488
  31   2.0000      -0.808205       -21.9924
  32   2.0000      -0.787074       -21.4174
  33   2.0000      -0.772100       -21.0099
  34   2.0000      -0.708782       -19.2869
  35   2.0000      -0.700928       -19.0732
  36   2.0000      -0.688813       -18.7436
  37   2.0000      -0.663460       -18.0537
  38   2.0000      -0.632383       -17.2080
  39   2.0000      -0.620428       -16.8827
  40   2.0000      -0.598802       -16.2942
  41   2.0000      -0.567035       -15.4298
  42   2.0000      -0.565841       -15.3973
  43   2.0000      -0.552804       -15.0426
  44   2.0000      -0.538179       -14.6446
  45   2.0000      -0.517682       -14.0868
  46   2.0000      -0.513451       -13.9717
  47   2.0000      -0.509914       -13.8755
  48   2.0000      -0.501221       -13.6389
  49   2.0000      -0.495712       -13.4890
  50   2.0000      -0.484074       -13.1723
  51   2.0000      -0.480123       -13.0648
  52   2.0000      -0.475443       -12.9375
  53   2.0000      -0.469968       -12.7885
  54   2.0000      -0.460377       -12.5275
  55   2.0000      -0.452101       -12.3023
  56   2.0000      -0.446956       -12.1623
  57   2.0000      -0.445099       -12.1118
  58   2.0000      -0.428767       -11.6673
  59   2.0000      -0.423861       -11.5339
  60   2.0000      -0.419876       -11.4254
  61   2.0000      -0.413475       -11.2512
  62   2.0000      -0.409944       -11.1551
  63   2.0000      -0.336164        -9.1475
  64   2.0000      -0.330376        -8.9900
  65   2.0000      -0.324720        -8.8361
  66   2.0000      -0.297960        -8.1079
  67   0.0000       0.044653         1.2151
  68   0.0000       0.057640         1.5685
  69   0.0000       0.114891         3.1263
  70   0.0000       0.121440         3.3046
  71   0.0000       0.126254         3.4356

MULLIKEN ATOMIC CHARGES
-----------------------
   0 S :    0.147467
   1 C :   -0.133608
   2 C :   -0.107178
   3 C :    0.044931
   4 C :   -0.169902
   5 H :    0.002770
   6 C :    0.053064
   7 H :    0.005737
   8 H :    0.038743
   9 C :   -0.061015
  10 H :    0.027441
  11 H :    0.026905
  12 C :   -0.048998
  13 H :    0.049479
  14 H :    0.033863
  15 H :    0.028075
  16 S :    0.113228
  17 C :   -0.080699
  18 C :   -0.007197
  19 C :   -0.037880
  20 C :   -0.183870
  21 H :    0.010173
  22 C :    0.069734
  23 H :    0.002079
  24 H :    0.040745
  25 C :   -0.110800
  26 H :    0.033916
  27 H :    0.031833
  28 C :   -0.019320
  29 H :    0.044387
  30 H :    0.016497
  31 H :    0.038446
  32 H :    0.052394
  33 H :    0.048557
Sum of atomic charges:   -0.0000000

LOEWDIN ATOMIC CHARGES
----------------------
   0 S :    0.440884
   1 C :   -0.217383
   2 C :   -0.066660
   3 C :   -0.055672
   4 C :   -0.227716
   5 H :    0.027079
   6 C :   -0.031145
   7 H :    0.025956
   8 H :    0.031750
   9 C :   -0.040733
  10 H :    0.024385
  11 H :    0.025694
  12 C :   -0.069638
  13 H :    0.031242
  14 H :    0.028312
  15 H :    0.028557
  16 S :    0.423209
  17 C :   -0.186244
  18 C :   -0.066571
  19 C :   -0.045945
  20 C :   -0.204693
  21 H :    0.027178
  22 C :   -0.033286
  23 H :    0.021783
  24 H :    0.036306
  25 C :   -0.040582
  26 H :    0.016539
  27 H :    0.020579
  28 C :   -0.060112
  29 H :    0.024461
  30 H :    0.020101
  31 H :    0.034785
  32 H :    0.038313
  33 H :    0.019266

  Mayer bond orders larger than 0.100000
B(  0-S ,  1-C ) :   1.1354 B(  0-S ,  4-C ) :   1.1766 B(  1-C ,  2-C ) :   1.6141
B(  1-C , 32-H ) :   0.9562 B(  2-C ,  3-C ) :   1.2677 B(  2-C ,  6-C ) :   1.0202
B(  3-C ,  4-C ) :   1.5410 B(  3-C ,  5-H ) :   0.9986 B(  4-C , 20-C ) :   1.0258
B(  6-C ,  7-H ) :   0.9395 B(  6-C ,  8-H ) :   0.9435 B(  6-C ,  9-C ) :   1.0591
B(  9-C , 10-H ) :   0.9580 B(  9-C , 11-H ) :   0.9520 B(  9-C , 12-C ) :   1.0753
B( 12-C , 13-H ) :   0.9776 B( 12-C , 14-H ) :   0.9713 B( 12-C , 15-H ) :   0.9695
B( 16-S , 17-C ) :   1.1810 B( 16-S , 20-C ) :   1.1539 B( 17-C , 18-C ) :   1.5798
B( 17-C , 33-H ) :   0.9722 B( 18-C , 19-C ) :   1.2459 B( 18-C , 21-H ) :   0.9965
B( 19-C , 20-C ) :   1.5804 B( 19-C , 22-C ) :   1.0539 B( 22-C , 23-H ) :   0.9357
B( 22-C , 24-H ) :   0.9316 B( 22-C , 25-C ) :   1.0424 B( 25-C , 26-H ) :   0.9492
B( 25-C , 27-H ) :   0.9644 B( 25-C , 28-C ) :   1.0779 B( 28-C , 29-H ) :   0.9788
B( 28-C , 30-H ) :   0.9697 B( 28-C , 31-H ) :   0.9741

Dispersion correction           -0.015060817
FINAL SINGLE POINT ENERGY     -1339.872930541270

DIPOLE MOMENT
-------------
                                X             Y             Z
Electronic contribution:     26.18122      -6.05921      13.92859
Nuclear contribution   :    -26.73963       6.11930     -14.19021
                        -----------------------------------------
Total Dipole Moment    :     -0.55841       0.06008      -0.26162
                        -----------------------------------------
Magnitude (a.u.)       :      0.61958
Magnitude (Debye)      :      1.57484

Rotational constants in cm-1:     0.019279     0.009240     0.007097
Rotational constants in MHz :   577.970216   277.008251   212.752673

                             ****ORCA TERMINATED NORMALLY****
TOTAL RUN TIME: 0 days 0 hours 0 minutes 31 seconds 296 msec
