                         Program Version 4.2.1 -  RELEASE  -
|  1> ! wB97X-D3 SP def2-SVP
|  2> %pal
|  3> nprocs 16
|  4> end
|  5>
|  6> * xyz 0 1
|  7> S 	 -1.75117 	 29.7778 	 45.0446
|  8> C 	 -1.73666 	 28.9459 	 43.5491
|  9> C 	 -0.604657 	 29.2708 	 42.7693
| 10> C 	 0.150122 	 30.3418 	 43.3767
| 11> C 	 -0.306706 	 30.6146 	 44.6845
| 12> H 	 1.01793 	 30.8346 	 43.0396
| 13> C 	 -0.284644 	 28.8415 	 41.3115
| 14> H 	 -1.01113 	 28.0356 	 40.9476
| 15> H 	 0.71878 	 28.4902 	 41.2378
| 16> C 	 -0.425482 	 30.0201 	 40.3096
| 17> H 	 -1.36391 	 30.4523 	 40.5035
| 18> H 	 0.37551 	 30.8517 	 40.3108
| 19> C 	 -0.51157 	 29.5641 	 38.879
| 20> H 	 0.268221 	 28.8293 	 38.5246
| 21> H 	 -1.47738 	 29.0474 	 38.5673
| 22> H 	 -0.527966 	 30.4433 	 38.2821
| 23> S 	 -1.1835 	 32.5133 	 46.4892
| 24> C 	 -0.0268875 	 33.6017 	 47.3081
| 25> C 	 1.25441 	 33.2017 	 46.9935
| 26> C 	 1.34426 	 32.0413 	 46.165
| 27> C 	 0.146143 	 31.6777 	 45.5673
| 28> H 	 2.13733 	 33.7335 	 47.4232
| 29> C 	 2.6961 	 31.4867 	 45.6639
| 30> H 	 3.1107 	 32.3739 	 45.097
| 31> H 	 2.54988 	 30.5947 	 44.995
| 32> C 	 3.87676 	 31.3979 	 46.7002
| 33> H 	 3.59009 	 30.8116 	 47.5851
| 34> H 	 4.18714 	 32.4227 	 46.9895
| 35> C 	 5.16464 	 30.7153 	 46.2094
| 36> H 	 5.11261 	 29.6252 	 46.102
| 37> H 	 5.92101 	 31.0423 	 46.9173
| 38> H 	 5.37822 	 31.1617 	 45.2199
| 39> H 	 -2.33556 	 28.0822 	 43.1994
| 40> H 	 -0.186523 	 34.3447 	 48.0851
| 41> *
| 42>
| 43>                          ****END OF INPUT****

CARTESIAN COORDINATES (ANGSTROEM)
---------------------------------
  S     -1.751170   29.777800   45.044600
  C     -1.736660   28.945900   43.549100
  C     -0.604657   29.270800   42.769300
  C      0.150122   30.341800   43.376700
  C     -0.306706   30.614600   44.684500
  H      1.017930   30.834600   43.039600
  C     -0.284644   28.841500   41.311500
  H     -1.011130   28.035600   40.947600
  H      0.718780   28.490200   41.237800
  C     -0.425482   30.020100   40.309600
  H     -1.363910   30.452300   40.503500
  H      0.375510   30.851700   40.310800
  C     -0.511570   29.564100   38.879000
  H      0.268221   28.829300   38.524600
  H     -1.477380   29.047400   38.567300
  H     -0.527966   30.443300   38.282100
  S     -1.183500   32.513300   46.489200
  C     -0.026887   33.601700   47.308100
  C      1.254410   33.201700   46.993500
  C      1.344260   32.041300   46.165000
  C      0.146143   31.677700   45.567300
  H      2.137330   33.733500   47.423200
  C      2.696100   31.486700   45.663900
  H      3.110700   32.373900   45.097000
  H      2.549880   30.594700   44.995000
  C      3.876760   31.397900   46.700200
  H      3.590090   30.811600   47.585100
  H      4.187140   32.422700   46.989500
  C      5.164640   30.715300   46.209400
  H      5.112610   29.625200   46.102000
  H      5.921010   31.042300   46.917300
  H      5.378220   31.161700   45.219900
  H     -2.335560   28.082200   43.199400
  H     -0.186523   34.344700   48.085100

 Total Charge           Charge          ....    0
 Multiplicity           Mult            ....    1
 Number of Electrons    NEL             ....  134
 Basis Dimension        Dim             ....  322

ORBITAL ENERGIES
----------------

  NO   OCC          E(Eh)            E(eV)
   0   2.0000     -88.972146     -2421.0552
   1   2.0000     -88.961239     -2420.7584
   2   2.0000     -10.331862      -281.1442
   3   2.0000     -10.330025      -281.0943
   4   2.0000     -10.322014      -280.8763
   5   2.0000     -10.317031      -280.7407
   6   2.0000     -10.308529      -280.5093
   7   2.0000     -10.308350      -280.5045
   8   2.0000     -10.303750      -280.3793
   9   2.0000     -10.301505      -280.3182
  10   2.0000     -10.297643      -280.2131
  11   2.0000     -10.295850      -280.1643
  12   2.0000     -10.293352      -280.0963
  13   2.0000     -10.289179      -279.9828
  14   2.0000     -10.282086      -279.7898
  15   2.0000     -10.281019      -279.7608
  16   2.0000      -8.087792      -220.0800
  17   2.0000      -8.074619      -219.7216
  18   2.0000      -6.046207      -164.5257
  19   2.0000      -6.042064      -164.4129
  20   2.0000      -6.038676      -164.3207
  21   2.0000      -6.033374      -164.1765
  22   2.0000      -6.029433      -164.0692
  23   2.0000      -6.025045      -163.9498
  24   2.0000      -1.008266       -27.4363
  25   2.0000      -0.979183       -26.6449
  26   2.0000      -0.911738       -24.8096
  27   2.0000      -0.901408       -24.5286
  28   2.0000      -0.870220       -23.6799
  29   2.0000      -0.854901       -23.2630
  30   2.0000      -0.843857       -22.9625
  31   2.0000      -0.811986       -22.0953
  32   2.0000      -0.778677       -21.1889
  33   2.0000      -0.769762       -20.9463
  34   2.0000      -0.704270       -19.1642
  35   2.0000      -0.692432       -18.8420
  36   2.0000      -0.689839       -18.7715
  37   2.0000      -0.655707       -17.8427
  38   2.0000      -0.641355       -17.4522
  39   2.0000      -0.617384       -16.7999
  40   2.0000      -0.588411       -16.0115
  41   2.0000      -0.571760       -15.5584
  42   2.0000      -0.569793       -15.5049
  43   2.0000      -0.559649       -15.2288
  44   2.0000      -0.530049       -14.4234
  45   2.0000      -0.524008       -14.2590
  46   2.0000      -0.519159       -14.1270
  47   2.0000      -0.508149       -13.8274
  48   2.0000      -0.500912       -13.6305
  49   2.0000      -0.499647       -13.5961
  50   2.0000      -0.489311       -13.3148
  51   2.0000      -0.479916       -13.0592
  52   2.0000      -0.472137       -12.8475
  53   2.0000      -0.467187       -12.7128
  54   2.0000      -0.454633       -12.3712
  55   2.0000      -0.450690       -12.2639
  56   2.0000      -0.443058       -12.0562
  57   2.0000      -0.432452       -11.7676
  58   2.0000      -0.431678       -11.7466
  59   2.0000      -0.427401       -11.6302
  60   2.0000      -0.416240       -11.3265
  61   2.0000      -0.414900       -11.2900
  62   2.0000      -0.407011       -11.0753
  63   2.0000      -0.352128        -9.5819
  64   2.0000      -0.331953        -9.0329
  65   2.0000      -0.325116        -8.8469
  66   2.0000      -0.287009        -7.8099
  67   0.0000       0.022873         0.6224
  68   0.0000       0.070281         1.9125
  69   0.0000       0.104025         2.8307
  70   0.0000       0.114654         3.1199
  71   0.0000       0.127442         3.4679

MULLIKEN ATOMIC CHARGES
-----------------------
   0 S :    0.135838
   1 C :   -0.118786
   2 C :   -0.100132
   3 C :    0.029777
   4 C :   -0.148253
   5 H :    0.004243
   6 C :    0.065889
   7 H :    0.032907
   8 H :    0.028794
   9 C :   -0.082534
  10 H :    0.026208
  11 H :    0.049001
  12 C :   -0.079008
  13 H :    0.037246
  14 H :    0.030545
  15 H :    0.028022
  16 S :    0.060768
  17 C :   -0.074216
  18 C :   -0.056685
  19 C :    0.000922
  20 C :   -0.139818
  21 H :    0.036895
  22 C :   -0.003786
  23 H :    0.048439
  24 H :    0.048845
  25 C :   -0.119080
  26 H :    0.038190
  27 H :    0.033063
  28 C :   -0.043870
  29 H :    0.046973
  30 H :    0.038991
  31 H :    0.021400
  32 H :    0.061804
  33 H :    0.061409
Sum of atomic charges:   -0.0000000

LOEWDIN ATOMIC CHARGES
----------------------
   0 S :    0.451869
   1 C :   -0.227648
   2 C :   -0.059831
   3 C :   -0.055268
   4 C :   -0.208726
   5 H :    0.023200
   6 C :   -0.028847
   7 H :    0.037506
   8 H :    0.025767
   9 C :   -0.045651
  10 H :    0.022315
  11 H :    0.034750
  12 C :   -0.076594
  13 H :    0.027172
  14 H :    0.027827
  15 H :    0.022763
  16 S :    0.348616
  17 C :   -0.172317
  18 C :   -0.079449
  19 C :   -0.057903
  20 C :   -0.172251
  21 H :    0.037225
  22 C :   -0.044294
  23 H :    0.043762
  24 H :    0.034525
  25 C :   -0.046426
  26 H :    0.022476
  27 H :    0.023923
  28 C :   -0.063700
  29 H :    0.026581
  30 H :    0.029647
  31 H :    0.023197
  32 H :    0.039062
  33 H :    0.036720

  Mayer bond orders larger than 0.100000
B(  0-S ,  1-C ) :   1.1499 B(  0-S ,  4-C ) :   1.1747 B(  1-C ,  2-C ) :   1.5934
B(  1-C , 32-H ) :   0.9577 B(  2-C ,  3-C ) :   1.2461 B(  2-C ,  6-C ) :   1.0379
B(  3-C ,  4-C ) :   1.5360 B(  3-C ,  5-H ) :   0.9986 B(  4-C , 20-C ) :   1.0671
B(  6-C ,  7-H ) :   0.9495 B(  6-C ,  8-H ) :   0.9339 B(  6-C ,  9-C ) :   1.0568
B(  9-C , 10-H ) :   0.9529 B(  9-C , 11-H ) :   0.9532 B(  9-C , 12-C ) :   1.0901
B( 12-C , 13-H ) :   0.9735 B( 12-C , 14-H ) :   0.9716 B( 12-C , 15-H ) :   0.9726
B( 16-S , 17-C ) :   1.1324 B( 16-S , 20-C ) :   1.0972 B( 17-C , 18-C ) :   1.6438
B( 17-C , 33-H ) :   0.9650 B( 18-C , 19-C ) :   1.2187 B( 18-C , 21-H ) :   0.9752
B( 19-C , 20-C ) :   1.6008 B( 19-C , 22-C ) :   1.0458 B( 22-C , 23-H ) :   0.9376
B( 22-C , 24-H ) :   0.9450 B( 22-C , 25-C ) :   1.0426 B( 25-C , 26-H ) :   0.9602
B( 25-C , 27-H ) :   0.9556 B( 25-C , 28-C ) :   1.0866 B( 28-C , 29-H ) :   0.9771
B( 28-C , 30-H ) :   0.9750 B( 28-C , 31-H ) :   0.9719

Dispersion correction           -0.013109507
FINAL SINGLE POINT ENERGY     -1339.856799163489

DIPOLE MOMENT
-------------
                                X             Y             Z
Electronic contribution:    -21.03030       4.71479      18.02911
Nuclear contribution   :     21.64846      -4.73517     -18.34152
                        -----------------------------------------
Total Dipole Moment    :      0.61816      -0.02037      -0.31242
                        -----------------------------------------
Magnitude (a.u.)       :      0.69292
Magnitude (Debye)      :      1.76126

Rotational constants in cm-1:     0.017105     0.007836     0.006143
Rotational constants in MHz :   512.807795   234.914899   184.173202

                             ****ORCA TERMINATED NORMALLY****
TOTAL RUN TIME: 0 days 0 hours 0 minutes 33 seconds 237 msec
