                         Program Version 4.2.1 -  RELEASE  -
|  1> ! wB97X-D3 SP def2-SVP
|  2> %pal
|  3> nprocs 16
|  4> end
|  5>
|  6> * xyz 0 1
|  7> S 	 -99.8887 	 53.262 	 115.223
|  8> C 	 -98.2354 	 53.5609 	 115.04
|  9> C 	 -97.5364 	 53.2109 	 116.101
| 10> C 	 -98.3381 	 52.7927 	 117.199
| 11> C 	 -99.6667 	 52.6963 	 116.875
| 12> H 	 -97.8828 	 52.3835 	 118.132
| 13> C 	 -96.0563 	 53.1316 	 116.191
| 14> H 	 -95.7014 	 53.1062 	 115.134
| 15> H 	 -95.8247 	 52.1128 	 116.519
| 16> C 	 -95.3405 	 54.1389 	 117.062
| 17> H 	 -95.6278 	 54.0258 	 118.114
| 18> H 	 -94.2241 	 53.9464 	 116.999
| 19> C 	 -95.5839 	 55.5667 	 116.54
| 20> H 	 -95.0506 	 55.7211 	 115.612
| 21> H 	 -96.6443 	 55.792 	 116.351
| 22> H 	 -95.0447 	 56.3461 	 117.162
| 23> S 	 -101.052 	 50.6008 	 118.078
| 24> C 	 -102.389 	 50.9267 	 119.139
| 25> C 	 -102.693 	 52.285 	 119.124
| 26> C 	 -101.724 	 53.0796 	 118.406
| 27> C 	 -100.782 	 52.2816 	 117.775
| 28> H 	 -103.509 	 52.5965 	 119.649
| 29> C 	 -101.77 	 54.647 	 118.414
| 30> H 	 -102.026 	 54.9008 	 117.463
| 31> H 	 -100.739 	 55.0093 	 118.498
| 32> C 	 -102.684 	 55.3724 	 119.369
| 33> H 	 -103.693 	 55.0021 	 119.255
| 34> H 	 -102.673 	 56.4066 	 119.149
| 35> C 	 -102.375 	 55.3337 	 120.816
| 36> H 	 -102.896 	 56.1073 	 121.4
| 37> H 	 -101.299 	 55.1294 	 121.031
| 38> H 	 -102.832 	 54.3777 	 121.125
| 39> H 	 -97.7573 	 54.0478 	 114.122
| 40> H 	 -103.002 	 50.1485 	 119.525
| 41> *
| 42>
| 43>                          ****END OF INPUT****

CARTESIAN COORDINATES (ANGSTROEM)
---------------------------------
  S    -99.888700   53.262000  115.223000
  C    -98.235400   53.560900  115.040000
  C    -97.536400   53.210900  116.101000
  C    -98.338100   52.792700  117.199000
  C    -99.666700   52.696300  116.875000
  H    -97.882800   52.383500  118.132000
  C    -96.056300   53.131600  116.191000
  H    -95.701400   53.106200  115.134000
  H    -95.824700   52.112800  116.519000
  C    -95.340500   54.138900  117.062000
  H    -95.627800   54.025800  118.114000
  H    -94.224100   53.946400  116.999000
  C    -95.583900   55.566700  116.540000
  H    -95.050600   55.721100  115.612000
  H    -96.644300   55.792000  116.351000
  H    -95.044700   56.346100  117.162000
  S    -101.052000   50.600800  118.078000
  C    -102.389000   50.926700  119.139000
  C    -102.693000   52.285000  119.124000
  C    -101.724000   53.079600  118.406000
  C    -100.782000   52.281600  117.775000
  H    -103.509000   52.596500  119.649000
  C    -101.770000   54.647000  118.414000
  H    -102.026000   54.900800  117.463000
  H    -100.739000   55.009300  118.498000
  C    -102.684000   55.372400  119.369000
  H    -103.693000   55.002100  119.255000
  H    -102.673000   56.406600  119.149000
  C    -102.375000   55.333700  120.816000
  H    -102.896000   56.107300  121.400000
  H    -101.299000   55.129400  121.031000
  H    -102.832000   54.377700  121.125000
  H    -97.757300   54.047800  114.122000
  H    -103.002000   50.148500  119.525000

 Total Charge           Charge          ....    0
 Multiplicity           Mult            ....    1
 Number of Electrons    NEL             ....  134
 Basis Dimension        Dim             ....  322

ORBITAL ENERGIES
----------------

  NO   OCC          E(Eh)            E(eV)
   0   2.0000     -88.964492     -2420.8469
   1   2.0000     -88.963896     -2420.8307
   2   2.0000     -10.330003      -281.0937
   3   2.0000     -10.324918      -280.9553
   4   2.0000     -10.315284      -280.6932
   5   2.0000     -10.308895      -280.5193
   6   2.0000     -10.307268      -280.4750
   7   2.0000     -10.293675      -280.1051
   8   2.0000     -10.292617      -280.0764
   9   2.0000     -10.290163      -280.0096
  10   2.0000     -10.288737      -279.9708
  11   2.0000     -10.286809      -279.9183
  12   2.0000     -10.284828      -279.8644
  13   2.0000     -10.279319      -279.7145
  14   2.0000     -10.275898      -279.6214
  15   2.0000     -10.274036      -279.5707
  16   2.0000      -8.079799      -219.8625
  17   2.0000      -8.079750      -219.8612
  18   2.0000      -6.038204      -164.3079
  19   2.0000      -6.038136      -164.3060
  20   2.0000      -6.034159      -164.1978
  21   2.0000      -6.034125      -164.1969
  22   2.0000      -6.030777      -164.1058
  23   2.0000      -6.030466      -164.0973
  24   2.0000      -1.012902       -27.5625
  25   2.0000      -0.991229       -26.9727
  26   2.0000      -0.915380       -24.9088
  27   2.0000      -0.914743       -24.8914
  28   2.0000      -0.869400       -23.6576
  29   2.0000      -0.850084       -23.1320
  30   2.0000      -0.847425       -23.0596
  31   2.0000      -0.817943       -22.2574
  32   2.0000      -0.787039       -21.4164
  33   2.0000      -0.775405       -21.0998
  34   2.0000      -0.706137       -19.2150
  35   2.0000      -0.695076       -18.9140
  36   2.0000      -0.689855       -18.7719
  37   2.0000      -0.660926       -17.9847
  38   2.0000      -0.636864       -17.3300
  39   2.0000      -0.621892       -16.9225
  40   2.0000      -0.601142       -16.3579
  41   2.0000      -0.572699       -15.5839
  42   2.0000      -0.559350       -15.2207
  43   2.0000      -0.551653       -15.0113
  44   2.0000      -0.547114       -14.8877
  45   2.0000      -0.539500       -14.6805
  46   2.0000      -0.521203       -14.1827
  47   2.0000      -0.511689       -13.9238
  48   2.0000      -0.503780       -13.7086
  49   2.0000      -0.495054       -13.4711
  50   2.0000      -0.489947       -13.3321
  51   2.0000      -0.479514       -13.0482
  52   2.0000      -0.471853       -12.8398
  53   2.0000      -0.461306       -12.5528
  54   2.0000      -0.460223       -12.5233
  55   2.0000      -0.448382       -12.2011
  56   2.0000      -0.445090       -12.1115
  57   2.0000      -0.435952       -11.8628
  58   2.0000      -0.430216       -11.7068
  59   2.0000      -0.424716       -11.5571
  60   2.0000      -0.423371       -11.5205
  61   2.0000      -0.414602       -11.2819
  62   2.0000      -0.403216       -10.9721
  63   2.0000      -0.337024        -9.1709
  64   2.0000      -0.331592        -9.0231
  65   2.0000      -0.323212        -8.7950
  66   2.0000      -0.312659        -8.5079
  67   0.0000       0.045787         1.2459
  68   0.0000       0.062934         1.7125
  69   0.0000       0.117927         3.2089
  70   0.0000       0.123274         3.3544
  71   0.0000       0.133873         3.6429

MULLIKEN ATOMIC CHARGES
-----------------------
   0 S :    0.118356
   1 C :   -0.153040
   2 C :   -0.092897
   3 C :    0.033411
   4 C :   -0.170608
   5 H :    0.030494
   6 C :    0.053903
   7 H :    0.014304
   8 H :    0.028586
   9 C :   -0.056573
  10 H :    0.036195
  11 H :    0.039522
  12 C :   -0.076714
  13 H :    0.016529
  14 H :    0.052637
  15 H :    0.038187
  16 S :    0.116954
  17 C :   -0.088284
  18 C :   -0.020122
  19 C :   -0.038430
  20 C :   -0.188777
  21 H :   -0.014736
  22 C :    0.147870
  23 H :    0.001715
  24 H :    0.028973
  25 C :   -0.060305
  26 H :    0.021140
  27 H :    0.018763
  28 C :   -0.050954
  29 H :    0.044353
  30 H :    0.039605
  31 H :    0.007349
  32 H :    0.070447
  33 H :    0.052144
Sum of atomic charges:    0.0000000

LOEWDIN ATOMIC CHARGES
----------------------
   0 S :    0.420206
   1 C :   -0.220712
   2 C :   -0.085341
   3 C :   -0.058760
   4 C :   -0.193864
   5 H :    0.039880
   6 C :   -0.036826
   7 H :    0.031219
   8 H :    0.033311
   9 C :   -0.043263
  10 H :    0.023616
  11 H :    0.033671
  12 C :   -0.076144
  13 H :    0.021690
  14 H :    0.027762
  15 H :    0.032552
  16 S :    0.424355
  17 C :   -0.183001
  18 C :   -0.063855
  19 C :   -0.045246
  20 C :   -0.217159
  21 H :    0.012637
  22 C :   -0.019958
  23 H :    0.021377
  24 H :    0.036518
  25 C :   -0.045282
  26 H :    0.022740
  27 H :    0.023846
  28 C :   -0.072395
  29 H :    0.030730
  30 H :    0.032038
  31 H :    0.022667
  32 H :    0.047129
  33 H :    0.023863

  Mayer bond orders larger than 0.100000
B(  0-S ,  1-C ) :   1.1398 B(  0-S ,  4-C ) :   1.1508 B(  1-C ,  2-C ) :   1.6443
B(  1-C , 32-H ) :   0.9480 B(  2-C ,  3-C ) :   1.2350 B(  2-C ,  6-C ) :   1.0168
B(  3-C ,  4-C ) :   1.6013 B(  3-C ,  5-H ) :   0.9869 B(  4-C , 20-C ) :   0.9926
B(  6-C ,  7-H ) :   0.9428 B(  6-C ,  8-H ) :   0.9357 B(  6-C ,  9-C ) :   1.0726
B(  9-C , 10-H ) :   0.9561 B(  9-C , 11-H ) :   0.9533 B(  9-C , 12-C ) :   1.0684
B( 12-C , 13-H ) :   0.9724 B( 12-C , 14-H ) :   0.9765 B( 12-C , 15-H ) :   0.9727
B( 16-S , 17-C ) :   1.1719 B( 16-S , 20-C ) :   1.1649 B( 17-C , 18-C ) :   1.5902
B( 17-C , 33-H ) :   0.9696 B( 18-C , 19-C ) :   1.2488 B( 18-C , 21-H ) :   0.9993
B( 19-C , 20-C ) :   1.6049 B( 19-C , 22-C ) :   1.0022 B( 22-C , 23-H ) :   0.9145
B( 22-C , 24-H ) :   0.9289 B( 22-C , 25-C ) :   1.1021 B( 25-C , 26-H ) :   0.9479
B( 25-C , 27-H ) :   0.9481 B( 25-C , 28-C ) :   1.0772 B( 28-C , 29-H ) :   0.9726
B( 28-C , 30-H ) :   0.9719 B( 28-C , 31-H ) :   0.9731

Dispersion correction           -0.014556263
FINAL SINGLE POINT ENERGY     -1339.872776388734

DIPOLE MOMENT
-------------
                                X             Y             Z
Electronic contribution:     -9.79847     -18.87304     -10.00480
Nuclear contribution   :      9.97343      19.15607      10.16031
                        -----------------------------------------
Total Dipole Moment    :      0.17496       0.28303       0.15552
                        -----------------------------------------
Magnitude (a.u.)       :      0.36729
Magnitude (Debye)      :      0.93357

Rotational constants in cm-1:     0.019708     0.007986     0.006851
Rotational constants in MHz :   590.838224   239.401891   205.393130

                             ****ORCA TERMINATED NORMALLY****
TOTAL RUN TIME: 0 days 0 hours 0 minutes 34 seconds 307 msec
