                         Program Version 4.2.1 -  RELEASE  -
|  1> ! wB97X-D3 SP def2-SVP
|  2> %pal
|  3> nprocs 16
|  4> end
|  5>
|  6> * xyz 0 1
|  7> S 	 -36.8375 	 50.8264 	 101.31
|  8> C 	 -35.9915 	 51.9109 	 102.387
|  9> C 	 -36.8547 	 52.3771 	 103.326
| 10> C 	 -38.1004 	 51.6778 	 103.313
| 11> C 	 -38.2209 	 50.707 	 102.409
| 12> H 	 -38.8799 	 51.7725 	 104.095
| 13> C 	 -36.675 	 53.6693 	 104.155
| 14> H 	 -35.6885 	 54.0658 	 104.066
| 15> H 	 -36.7671 	 53.3787 	 105.189
| 16> C 	 -37.5337 	 54.8426 	 103.712
| 17> H 	 -38.566 	 54.5967 	 103.565
| 18> H 	 -37.5873 	 55.4222 	 104.646
| 19> C 	 -36.8358 	 55.7131 	 102.677
| 20> H 	 -36.0036 	 56.2891 	 103.07
| 21> H 	 -36.5433 	 55.2106 	 101.781
| 22> H 	 -37.3882 	 56.6324 	 102.381
| 23> S 	 -39.9573 	 49.1514 	 100.985
| 24> C 	 -40.9303 	 47.9279 	 101.838
| 25> C 	 -40.6465 	 47.8675 	 103.177
| 26> C 	 -39.6638 	 48.86 	 103.584
| 27> C 	 -39.1922 	 49.6315 	 102.538
| 28> H 	 -41.1321 	 47.1647 	 103.822
| 29> C 	 -39.2389 	 48.9975 	 105.043
| 30> H 	 -39.9277 	 48.6776 	 105.763
| 31> H 	 -39.1454 	 50.0701 	 105.196
| 32> C 	 -37.8288 	 48.4201 	 105.305
| 33> H 	 -37.1138 	 48.9381 	 104.733
| 34> H 	 -37.8576 	 47.3387 	 105.131
| 35> C 	 -37.3852 	 48.6411 	 106.707
| 36> H 	 -38.1171 	 48.2896 	 107.418
| 37> H 	 -37.0874 	 49.6452 	 107.071
| 38> H 	 -36.4861 	 48.1316 	 106.935
| 39> H 	 -35.0693 	 52.3931 	 102.173
| 40> H 	 -41.5863 	 47.2546 	 101.38
| 41> *
| 42>
| 43>                          ****END OF INPUT****

CARTESIAN COORDINATES (ANGSTROEM)
---------------------------------
  S    -36.837500   50.826400  101.310000
  C    -35.991500   51.910900  102.387000
  C    -36.854700   52.377100  103.326000
  C    -38.100400   51.677800  103.313000
  C    -38.220900   50.707000  102.409000
  H    -38.879900   51.772500  104.095000
  C    -36.675000   53.669300  104.155000
  H    -35.688500   54.065800  104.066000
  H    -36.767100   53.378700  105.189000
  C    -37.533700   54.842600  103.712000
  H    -38.566000   54.596700  103.565000
  H    -37.587300   55.422200  104.646000
  C    -36.835800   55.713100  102.677000
  H    -36.003600   56.289100  103.070000
  H    -36.543300   55.210600  101.781000
  H    -37.388200   56.632400  102.381000
  S    -39.957300   49.151400  100.985000
  C    -40.930300   47.927900  101.838000
  C    -40.646500   47.867500  103.177000
  C    -39.663800   48.860000  103.584000
  C    -39.192200   49.631500  102.538000
  H    -41.132100   47.164700  103.822000
  C    -39.238900   48.997500  105.043000
  H    -39.927700   48.677600  105.763000
  H    -39.145400   50.070100  105.196000
  C    -37.828800   48.420100  105.305000
  H    -37.113800   48.938100  104.733000
  H    -37.857600   47.338700  105.131000
  C    -37.385200   48.641100  106.707000
  H    -38.117100   48.289600  107.418000
  H    -37.087400   49.645200  107.071000
  H    -36.486100   48.131600  106.935000
  H    -35.069300   52.393100  102.173000
  H    -41.586300   47.254600  101.380000

 Total Charge           Charge          ....    0
 Multiplicity           Mult            ....    1
 Number of Electrons    NEL             ....  134
 Basis Dimension        Dim             ....  322

ORBITAL ENERGIES
----------------

  NO   OCC          E(Eh)            E(eV)
   0   2.0000     -88.962357     -2420.7888
   1   2.0000     -88.962250     -2420.7859
   2   2.0000     -10.330807      -281.1156
   3   2.0000     -10.325820      -280.9798
   4   2.0000     -10.316433      -280.7244
   5   2.0000     -10.311731      -280.5965
   6   2.0000     -10.309186      -280.5272
   7   2.0000     -10.298300      -280.2310
   8   2.0000     -10.295176      -280.1460
   9   2.0000     -10.289846      -280.0010
  10   2.0000     -10.289175      -279.9827
  11   2.0000     -10.287266      -279.9307
  12   2.0000     -10.286645      -279.9138
  13   2.0000     -10.278798      -279.7003
  14   2.0000     -10.278694      -279.6975
  15   2.0000     -10.268273      -279.4139
  16   2.0000      -8.077055      -219.7878
  17   2.0000      -8.076275      -219.7666
  18   2.0000      -6.035812      -164.2428
  19   2.0000      -6.034920      -164.2185
  20   2.0000      -6.031719      -164.1314
  21   2.0000      -6.030959      -164.1107
  22   2.0000      -6.027350      -164.0125
  23   2.0000      -6.026898      -164.0002
  24   2.0000      -1.008289       -27.4369
  25   2.0000      -0.981061       -26.6960
  26   2.0000      -0.914878       -24.8951
  27   2.0000      -0.911968       -24.8159
  28   2.0000      -0.875117       -23.8131
  29   2.0000      -0.851788       -23.1783
  30   2.0000      -0.842775       -22.9331
  31   2.0000      -0.819231       -22.2924
  32   2.0000      -0.784566       -21.3491
  33   2.0000      -0.775777       -21.1100
  34   2.0000      -0.712199       -19.3799
  35   2.0000      -0.702792       -19.1240
  36   2.0000      -0.695669       -18.9301
  37   2.0000      -0.666627       -18.1399
  38   2.0000      -0.643071       -17.4988
  39   2.0000      -0.623682       -16.9712
  40   2.0000      -0.596345       -16.2274
  41   2.0000      -0.577284       -15.7087
  42   2.0000      -0.570230       -15.5167
  43   2.0000      -0.559683       -15.2297
  44   2.0000      -0.535934       -14.5835
  45   2.0000      -0.522969       -14.2307
  46   2.0000      -0.517102       -14.0710
  47   2.0000      -0.515941       -14.0395
  48   2.0000      -0.507879       -13.8201
  49   2.0000      -0.499544       -13.5933
  50   2.0000      -0.493693       -13.4341
  51   2.0000      -0.486562       -13.2400
  52   2.0000      -0.477940       -13.0054
  53   2.0000      -0.462714       -12.5911
  54   2.0000      -0.452396       -12.3103
  55   2.0000      -0.447113       -12.1666
  56   2.0000      -0.443978       -12.0812
  57   2.0000      -0.434169       -11.8143
  58   2.0000      -0.430045       -11.7021
  59   2.0000      -0.426468       -11.6048
  60   2.0000      -0.420113       -11.4319
  61   2.0000      -0.416082       -11.3222
  62   2.0000      -0.405041       -11.0217
  63   2.0000      -0.353637        -9.6229
  64   2.0000      -0.331418        -9.0183
  65   2.0000      -0.325760        -8.8644
  66   2.0000      -0.294434        -8.0120
  67   0.0000       0.027568         0.7502
  68   0.0000       0.068466         1.8630
  69   0.0000       0.102454         2.7879
  70   0.0000       0.124736         3.3942
  71   0.0000       0.132505         3.6056

MULLIKEN ATOMIC CHARGES
-----------------------
   0 S :    0.096091
   1 C :   -0.097301
   2 C :   -0.094075
   3 C :   -0.018719
   4 C :   -0.084027
   5 H :    0.029740
   6 C :    0.075909
   7 H :   -0.000791
   8 H :    0.026640
   9 C :   -0.041451
  10 H :    0.030718
  11 H :    0.022525
  12 C :   -0.053451
  13 H :    0.023350
  14 H :    0.039904
  15 H :    0.028304
  16 S :    0.077556
  17 C :   -0.054680
  18 C :   -0.026544
  19 C :   -0.036639
  20 C :   -0.170484
  21 H :    0.013426
  22 C :    0.086804
  23 H :    0.004601
  24 H :    0.001704
  25 C :   -0.032148
  26 H :    0.032348
  27 H :    0.033973
  28 C :   -0.040247
  29 H :    0.013712
  30 H :    0.022683
  31 H :    0.016808
  32 H :    0.037565
  33 H :    0.036198
Sum of atomic charges:    0.0000000

LOEWDIN ATOMIC CHARGES
----------------------
   0 S :    0.383501
   1 C :   -0.184521
   2 C :   -0.068002
   3 C :   -0.067192
   4 C :   -0.192480
   5 H :    0.034325
   6 C :   -0.025221
   7 H :    0.024840
   8 H :    0.027533
   9 C :   -0.039101
  10 H :    0.021486
  11 H :    0.032363
  12 C :   -0.072121
  13 H :    0.027691
  14 H :    0.022133
  15 H :    0.034157
  16 S :    0.365731
  17 C :   -0.157923
  18 C :   -0.066655
  19 C :   -0.044433
  20 C :   -0.173692
  21 H :    0.030473
  22 C :   -0.025949
  23 H :    0.019960
  24 H :    0.027734
  25 C :   -0.028081
  26 H :    0.024853
  27 H :    0.028877
  28 C :   -0.070075
  29 H :    0.018883
  30 H :    0.026201
  31 H :    0.022377
  32 H :    0.024055
  33 H :    0.018275

  Mayer bond orders larger than 0.100000
B(  0-S ,  1-C ) :   1.1222 B(  0-S ,  4-C ) :   1.1136 B(  1-C ,  2-C ) :   1.6474
B(  1-C , 32-H ) :   0.9681 B(  2-C ,  3-C ) :   1.2080 B(  2-C ,  6-C ) :   1.0229
B(  3-C ,  4-C ) :   1.6086 B(  3-C ,  5-H ) :   0.9905 B(  4-C , 20-C ) :   1.0376
B(  6-C ,  7-H ) :   0.9404 B(  6-C ,  8-H ) :   0.9406 B(  6-C ,  9-C ) :   1.0609
B(  9-C , 10-H ) :   0.9613 B(  9-C , 11-H ) :   0.9483 B(  9-C , 12-C ) :   1.0804
B( 12-C , 13-H ) :   0.9669 B( 12-C , 14-H ) :   0.9803 B( 12-C , 15-H ) :   0.9682
B( 16-S , 17-C ) :   1.1386 B( 16-S , 20-C ) :   1.1071 B( 17-C , 18-C ) :   1.6447
B( 17-C , 33-H ) :   0.9717 B( 18-C , 19-C ) :   1.2034 B( 18-C , 21-H ) :   0.9940
B( 19-C , 20-C ) :   1.6429 B( 19-C , 22-C ) :   1.0391 B( 22-C , 23-H ) :   0.9348
B( 22-C , 24-H ) :   0.9306 B( 22-C , 25-C ) :   1.0724 B( 25-C , 26-H ) :   0.9520
B( 25-C , 27-H ) :   0.9535 B( 25-C , 28-C ) :   1.0966 B( 28-C , 29-H ) :   0.9699
B( 28-C , 30-H ) :   0.9710 B( 28-C , 31-H ) :   0.9683

Dispersion correction           -0.014738585
FINAL SINGLE POINT ENERGY     -1339.859662744038

DIPOLE MOMENT
-------------
                                X             Y             Z
Electronic contribution:     -6.86687     -12.68923     -21.96553
Nuclear contribution   :      6.89362      12.96984      22.74604
                        -----------------------------------------
Total Dipole Moment    :      0.02675       0.28062       0.78051
                        -----------------------------------------
Magnitude (a.u.)       :      0.82985
Magnitude (Debye)      :      2.10932

Rotational constants in cm-1:     0.018750     0.008927     0.007170
Rotational constants in MHz :   562.099520   267.616379   214.945842

                             ****ORCA TERMINATED NORMALLY****
TOTAL RUN TIME: 0 days 0 hours 0 minutes 30 seconds 917 msec
