                         Program Version 4.2.1 -  RELEASE  -
|  1> ! wB97X-D3 SP def2-SVP
|  2> %pal
|  3> nprocs 16
|  4> end
|  5>
|  6> * xyz 0 1
|  7> S 	 3.70294 	 -28.0636 	 77.904
|  8> C 	 2.58811 	 -28.8675 	 78.9976
|  9> C 	 3.25375 	 -29.686 	 79.8772
| 10> C 	 4.704 	 -29.5162 	 79.8267
| 11> C 	 5.10832 	 -28.7426 	 78.7701
| 12> H 	 5.41266 	 -30.0078 	 80.3945
| 13> C 	 2.64652 	 -30.5336 	 80.9748
| 14> H 	 3.346 	 -31.3888 	 81.1368
| 15> H 	 1.69263 	 -30.9585 	 80.6011
| 16> C 	 2.18064 	 -29.8199 	 82.3251
| 17> H 	 1.98229 	 -30.5898 	 83.1042
| 18> H 	 2.99882 	 -29.2953 	 82.6938
| 19> C 	 1.02242 	 -28.7736 	 82.2097
| 20> H 	 0.753329 	 -28.2965 	 83.1485
| 21> H 	 1.25336 	 -27.9891 	 81.4402
| 22> H 	 0.0644005 	 -29.2194 	 81.9811
| 23> S 	 6.79365 	 -26.5717 	 78.6083
| 24> C 	 8.43332 	 -26.6944 	 78.1412
| 25> C 	 8.78985 	 -28.0412 	 77.9341
| 26> C 	 7.68673 	 -28.9468 	 78.0994
| 27> C 	 6.48344 	 -28.3127 	 78.4748
| 28> H 	 9.80046 	 -28.2446 	 77.6083
| 29> C 	 7.78916 	 -30.5086 	 77.8628
| 30> H 	 6.76268 	 -30.8994 	 77.6371
| 31> H 	 8.05526 	 -30.8488 	 78.7884
| 32> C 	 8.77171 	 -31.0428 	 76.7931
| 33> H 	 9.70971 	 -30.5596 	 76.9941
| 34> H 	 8.55443 	 -30.7692 	 75.7628
| 35> C 	 8.78832 	 -32.5846 	 76.9794
| 36> H 	 9.01524 	 -32.8444 	 78.0694
| 37> H 	 9.54851 	 -32.9178 	 76.2423
| 38> H 	 7.84856 	 -33.0734 	 76.6755
| 39> H 	 1.57235 	 -28.8881 	 78.843
| 40> H 	 9.16917 	 -25.9209 	 78.0527
| 41> *
| 42>
| 43>                          ****END OF INPUT****

CARTESIAN COORDINATES (ANGSTROEM)
---------------------------------
  S      3.702940  -28.063600   77.904000
  C      2.588110  -28.867500   78.997600
  C      3.253750  -29.686000   79.877200
  C      4.704000  -29.516200   79.826700
  C      5.108320  -28.742600   78.770100
  H      5.412660  -30.007800   80.394500
  C      2.646520  -30.533600   80.974800
  H      3.346000  -31.388800   81.136800
  H      1.692630  -30.958500   80.601100
  C      2.180640  -29.819900   82.325100
  H      1.982290  -30.589800   83.104200
  H      2.998820  -29.295300   82.693800
  C      1.022420  -28.773600   82.209700
  H      0.753329  -28.296500   83.148500
  H      1.253360  -27.989100   81.440200
  H      0.064400  -29.219400   81.981100
  S      6.793650  -26.571700   78.608300
  C      8.433320  -26.694400   78.141200
  C      8.789850  -28.041200   77.934100
  C      7.686730  -28.946800   78.099400
  C      6.483440  -28.312700   78.474800
  H      9.800460  -28.244600   77.608300
  C      7.789160  -30.508600   77.862800
  H      6.762680  -30.899400   77.637100
  H      8.055260  -30.848800   78.788400
  C      8.771710  -31.042800   76.793100
  H      9.709710  -30.559600   76.994100
  H      8.554430  -30.769200   75.762800
  C      8.788320  -32.584600   76.979400
  H      9.015240  -32.844400   78.069400
  H      9.548510  -32.917800   76.242300
  H      7.848560  -33.073400   76.675500
  H      1.572350  -28.888100   78.843000
  H      9.169170  -25.920900   78.052700

 Total Charge           Charge          ....    0
 Multiplicity           Mult            ....    1
 Number of Electrons    NEL             ....  134
 Basis Dimension        Dim             ....  322

ORBITAL ENERGIES
----------------

  NO   OCC          E(Eh)            E(eV)
   0   2.0000     -88.965029     -2420.8615
   1   2.0000     -88.964204     -2420.8391
   2   2.0000     -10.333126      -281.1787
   3   2.0000     -10.328760      -281.0598
   4   2.0000     -10.316278      -280.7202
   5   2.0000     -10.311263      -280.5837
   6   2.0000     -10.311188      -280.5817
   7   2.0000     -10.304027      -280.3868
   8   2.0000     -10.300198      -280.2826
   9   2.0000     -10.295602      -280.1576
  10   2.0000     -10.292070      -280.0615
  11   2.0000     -10.290955      -280.0311
  12   2.0000     -10.290220      -280.0111
  13   2.0000     -10.289493      -279.9913
  14   2.0000     -10.287922      -279.9486
  15   2.0000     -10.281543      -279.7750
  16   2.0000      -8.079309      -219.8492
  17   2.0000      -8.079051      -219.8421
  18   2.0000      -6.037980      -164.3018
  19   2.0000      -6.037504      -164.2888
  20   2.0000      -6.033860      -164.1897
  21   2.0000      -6.033302      -164.1745
  22   2.0000      -6.030085      -164.0869
  23   2.0000      -6.029934      -164.0828
  24   2.0000      -1.000863       -27.2349
  25   2.0000      -0.979999       -26.6671
  26   2.0000      -0.904970       -24.6255
  27   2.0000      -0.900048       -24.4916
  28   2.0000      -0.866735       -23.5851
  29   2.0000      -0.846948       -23.0466
  30   2.0000      -0.842459       -22.9245
  31   2.0000      -0.813724       -22.1426
  32   2.0000      -0.778448       -21.1827
  33   2.0000      -0.769156       -20.9298
  34   2.0000      -0.707930       -19.2637
  35   2.0000      -0.702895       -19.1267
  36   2.0000      -0.700360       -19.0578
  37   2.0000      -0.655082       -17.8257
  38   2.0000      -0.648494       -17.6464
  39   2.0000      -0.618094       -16.8192
  40   2.0000      -0.589739       -16.0476
  41   2.0000      -0.567077       -15.4310
  42   2.0000      -0.565789       -15.3959
  43   2.0000      -0.545202       -14.8357
  44   2.0000      -0.537751       -14.6329
  45   2.0000      -0.524393       -14.2695
  46   2.0000      -0.514794       -14.0083
  47   2.0000      -0.510564       -13.8932
  48   2.0000      -0.502383       -13.6705
  49   2.0000      -0.492850       -13.4111
  50   2.0000      -0.484683       -13.1889
  51   2.0000      -0.482416       -13.1272
  52   2.0000      -0.476018       -12.9531
  53   2.0000      -0.463425       -12.6104
  54   2.0000      -0.456415       -12.4197
  55   2.0000      -0.447639       -12.1809
  56   2.0000      -0.444043       -12.0830
  57   2.0000      -0.441199       -12.0056
  58   2.0000      -0.438835       -11.9413
  59   2.0000      -0.424155       -11.5418
  60   2.0000      -0.419525       -11.4159
  61   2.0000      -0.416425       -11.3315
  62   2.0000      -0.402127       -10.9424
  63   2.0000      -0.343593        -9.3496
  64   2.0000      -0.330884        -9.0038
  65   2.0000      -0.324634        -8.8337
  66   2.0000      -0.298595        -8.1252
  67   0.0000       0.033594         0.9141
  68   0.0000       0.063192         1.7196
  69   0.0000       0.112435         3.0595
  70   0.0000       0.126320         3.4374
  71   0.0000       0.135376         3.6838

MULLIKEN ATOMIC CHARGES
-----------------------
   0 S :    0.104175
   1 C :   -0.087838
   2 C :   -0.086018
   3 C :    0.069798
   4 C :   -0.154106
   5 H :   -0.013323
   6 C :    0.030825
   7 H :    0.037281
   8 H :    0.025147
   9 C :   -0.034068
  10 H :    0.035949
  11 H :    0.013777
  12 C :   -0.075378
  13 H :    0.032430
  14 H :    0.052104
  15 H :    0.019133
  16 S :    0.115460
  17 C :   -0.080744
  18 C :   -0.071339
  19 C :   -0.008603
  20 C :   -0.181980
  21 H :    0.020081
  22 C :    0.072300
  23 H :    0.038261
  24 H :    0.010236
  25 C :   -0.074188
  26 H :    0.023322
  27 H :    0.036102
  28 C :   -0.073820
  29 H :    0.046215
  30 H :    0.040514
  31 H :    0.042019
  32 H :    0.025257
  33 H :    0.051020
Sum of atomic charges:   -0.0000000

LOEWDIN ATOMIC CHARGES
----------------------
   0 S :    0.386498
   1 C :   -0.178006
   2 C :   -0.061743
   3 C :   -0.044886
   4 C :   -0.183338
   5 H :    0.020254
   6 C :   -0.037989
   7 H :    0.035835
   8 H :    0.030502
   9 C :   -0.033398
  10 H :    0.029693
  11 H :    0.013208
  12 C :   -0.073511
  13 H :    0.028908
  14 H :    0.033616
  15 H :    0.019312
  16 S :    0.423071
  17 C :   -0.195778
  18 C :   -0.084173
  19 C :   -0.048756
  20 C :   -0.206073
  21 H :    0.028817
  22 C :   -0.023541
  23 H :    0.035340
  24 H :    0.016211
  25 C :   -0.038288
  26 H :    0.017886
  27 H :    0.026004
  28 C :   -0.068006
  29 H :    0.033657
  30 H :    0.029851
  31 H :    0.027342
  32 H :    0.012586
  33 H :    0.028898

  Mayer bond orders larger than 0.100000
B(  0-S ,  1-C ) :   1.1281 B(  0-S ,  4-C ) :   1.1354 B(  1-C ,  2-C ) :   1.6308
B(  1-C , 32-H ) :   0.9738 B(  2-C ,  3-C ) :   1.1971 B(  2-C ,  6-C ) :   1.0390
B(  3-C ,  4-C ) :   1.6133 B(  3-C ,  5-H ) :   1.0010 B(  4-C , 20-C ) :   1.0232
B(  6-C ,  7-H ) :   0.9430 B(  6-C ,  8-H ) :   0.9421 B(  6-C ,  9-C ) :   1.0496
B(  9-C , 10-H ) :   0.9570 B(  9-C , 11-H ) :   0.9583 B(  9-C , 12-C ) :   1.0729
B( 12-C , 13-H ) :   0.9731 B( 12-C , 14-H ) :   0.9725 B( 12-C , 15-H ) :   0.9759
B( 16-S , 17-C ) :   1.1843 B( 16-S , 20-C ) :   1.1487 B( 17-C , 18-C ) :   1.5808
B( 17-C , 20-C ) :   0.1059 B( 17-C , 33-H ) :   0.9676 B( 18-C , 19-C ) :   1.2604
B( 18-C , 21-H ) :   0.9907 B( 19-C , 20-C ) :   1.5820 B( 19-C , 22-C ) :   1.0043
B( 22-C , 23-H ) :   0.9450 B( 22-C , 24-H ) :   0.9365 B( 22-C , 25-C ) :   1.0647
B( 25-C , 26-H ) :   0.9520 B( 25-C , 27-H ) :   0.9586 B( 25-C , 28-C ) :   1.0770
B( 28-C , 29-H ) :   0.9744 B( 28-C , 30-H ) :   0.9738 B( 28-C , 31-H ) :   0.9757

Dispersion correction           -0.013620452
FINAL SINGLE POINT ENERGY     -1339.870417694203

DIPOLE MOMENT
-------------
                                X             Y             Z
Electronic contribution:      1.35261      19.95044      -8.24365
Nuclear contribution   :     -1.17774     -20.47476       8.47085
                        -----------------------------------------
Total Dipole Moment    :      0.17487      -0.52432       0.22720
                        -----------------------------------------
Magnitude (a.u.)       :      0.59759
Magnitude (Debye)      :      1.51894

Rotational constants in cm-1:     0.019631     0.007403     0.006156
Rotational constants in MHz :   588.508166   221.932183   184.549975

                             ****ORCA TERMINATED NORMALLY****
TOTAL RUN TIME: 0 days 0 hours 0 minutes 32 seconds 247 msec
