                         Program Version 4.2.1 -  RELEASE  -
|  1> ! wB97X-D3 SP def2-SVP
|  2> %pal
|  3> nprocs 16
|  4> end
|  5>
|  6> * xyz 0 1
|  7> S 	 10.5435 	 24.8132 	 65.8643
|  8> C 	 11.2823 	 23.2488 	 65.9979
|  9> C 	 10.4071 	 22.1496 	 66.012
| 10> C 	 9.11726 	 22.63 	 65.5545
| 11> C 	 9.02639 	 24.0029 	 65.4793
| 12> H 	 8.20621 	 21.9677 	 65.4349
| 13> C 	 10.7194 	 20.7089 	 66.3516
| 14> H 	 10.3122 	 20.6333 	 67.3218
| 15> H 	 11.8479 	 20.5445 	 66.4827
| 16> C 	 10.1347 	 19.6922 	 65.4216
| 17> H 	 10.4809 	 18.7228 	 65.67
| 18> H 	 9.04441 	 19.706 	 65.4656
| 19> C 	 10.6379 	 20.0991 	 64.0278
| 20> H 	 10.2209 	 21.04 	 63.7215
| 21> H 	 11.7658 	 20.0875 	 64.0188
| 22> H 	 10.3008 	 19.2738 	 63.3335
| 23> S 	 7.09121 	 25.8396 	 66.1713
| 24> C 	 5.69826 	 26.0294 	 65.1282
| 25> C 	 5.77222 	 25.2219 	 64.033
| 26> C 	 6.92437 	 24.4492 	 64.0371
| 27> C 	 7.85828 	 24.7488 	 65.0402
| 28> H 	 5.07952 	 25.2 	 63.2172
| 29> C 	 7.13644 	 23.4097 	 62.959
| 30> H 	 8.128 	 22.919 	 63.0305
| 31> H 	 7.32336 	 24.0691 	 62.0216
| 32> C 	 6.07416 	 22.3124 	 62.8019
| 33> H 	 5.06586 	 22.7675 	 62.7008
| 34> H 	 6.05099 	 21.6835 	 63.6907
| 35> C 	 6.43284 	 21.5339 	 61.488
| 36> H 	 5.70207 	 20.8186 	 61.343
| 37> H 	 7.41897 	 21.1386 	 61.5205
| 38> H 	 6.36672 	 22.2176 	 60.6574
| 39> H 	 12.2589 	 23.2459 	 66.5019
| 40> H 	 4.88 	 26.783 	 65.3839
| 41> *
| 42>
| 43>                          ****END OF INPUT****

CARTESIAN COORDINATES (ANGSTROEM)
---------------------------------
  S     10.543500   24.813200   65.864300
  C     11.282300   23.248800   65.997900
  C     10.407100   22.149600   66.012000
  C      9.117260   22.630000   65.554500
  C      9.026390   24.002900   65.479300
  H      8.206210   21.967700   65.434900
  C     10.719400   20.708900   66.351600
  H     10.312200   20.633300   67.321800
  H     11.847900   20.544500   66.482700
  C     10.134700   19.692200   65.421600
  H     10.480900   18.722800   65.670000
  H      9.044410   19.706000   65.465600
  C     10.637900   20.099100   64.027800
  H     10.220900   21.040000   63.721500
  H     11.765800   20.087500   64.018800
  H     10.300800   19.273800   63.333500
  S      7.091210   25.839600   66.171300
  C      5.698260   26.029400   65.128200
  C      5.772220   25.221900   64.033000
  C      6.924370   24.449200   64.037100
  C      7.858280   24.748800   65.040200
  H      5.079520   25.200000   63.217200
  C      7.136440   23.409700   62.959000
  H      8.128000   22.919000   63.030500
  H      7.323360   24.069100   62.021600
  C      6.074160   22.312400   62.801900
  H      5.065860   22.767500   62.700800
  H      6.050990   21.683500   63.690700
  C      6.432840   21.533900   61.488000
  H      5.702070   20.818600   61.343000
  H      7.418970   21.138600   61.520500
  H      6.366720   22.217600   60.657400
  H     12.258900   23.245900   66.501900
  H      4.880000   26.783000   65.383900

 Total Charge           Charge          ....    0
 Multiplicity           Mult            ....    1
 Number of Electrons    NEL             ....  134
 Basis Dimension        Dim             ....  322

ORBITAL ENERGIES
----------------

  NO   OCC          E(Eh)            E(eV)
   0   2.0000     -88.965819     -2420.8830
   1   2.0000     -88.962478     -2420.7921
   2   2.0000     -10.328047      -281.0405
   3   2.0000     -10.322388      -280.8865
   4   2.0000     -10.320732      -280.8414
   5   2.0000     -10.312239      -280.6103
   6   2.0000     -10.308000      -280.4949
   7   2.0000     -10.300616      -280.2940
   8   2.0000     -10.297047      -280.1969
   9   2.0000     -10.294184      -280.1190
  10   2.0000     -10.293626      -280.1038
  11   2.0000     -10.293509      -280.1006
  12   2.0000     -10.288041      -279.9518
  13   2.0000     -10.284819      -279.8642
  14   2.0000     -10.280676      -279.7514
  15   2.0000     -10.271921      -279.5132
  16   2.0000      -8.080832      -219.8906
  17   2.0000      -8.077478      -219.7994
  18   2.0000      -6.039211      -164.3353
  19   2.0000      -6.035911      -164.2455
  20   2.0000      -6.035543      -164.2355
  21   2.0000      -6.031922      -164.1369
  22   2.0000      -6.031487      -164.1251
  23   2.0000      -6.028337      -164.0394
  24   2.0000      -1.007009       -27.4021
  25   2.0000      -0.985037       -26.8042
  26   2.0000      -0.923077       -25.1182
  27   2.0000      -0.906771       -24.6745
  28   2.0000      -0.869117       -23.6499
  29   2.0000      -0.852124       -23.1875
  30   2.0000      -0.844408       -22.9775
  31   2.0000      -0.810289       -22.0491
  32   2.0000      -0.781334       -21.2612
  33   2.0000      -0.766595       -20.8601
  34   2.0000      -0.708071       -19.2676
  35   2.0000      -0.700118       -19.0512
  36   2.0000      -0.688890       -18.7456
  37   2.0000      -0.659201       -17.9378
  38   2.0000      -0.635785       -17.3006
  39   2.0000      -0.623276       -16.9602
  40   2.0000      -0.599442       -16.3116
  41   2.0000      -0.565169       -15.3790
  42   2.0000      -0.561012       -15.2659
  43   2.0000      -0.558873       -15.2077
  44   2.0000      -0.546325       -14.8663
  45   2.0000      -0.529255       -14.4018
  46   2.0000      -0.514204       -13.9922
  47   2.0000      -0.510365       -13.8877
  48   2.0000      -0.498494       -13.5647
  49   2.0000      -0.496276       -13.5043
  50   2.0000      -0.479877       -13.0581
  51   2.0000      -0.476654       -12.9704
  52   2.0000      -0.467615       -12.7244
  53   2.0000      -0.462828       -12.5942
  54   2.0000      -0.456684       -12.4270
  55   2.0000      -0.451039       -12.2734
  56   2.0000      -0.448964       -12.2169
  57   2.0000      -0.445874       -12.1328
  58   2.0000      -0.433326       -11.7914
  59   2.0000      -0.429774       -11.6947
  60   2.0000      -0.422376       -11.4934
  61   2.0000      -0.420297       -11.4369
  62   2.0000      -0.407567       -11.0905
  63   2.0000      -0.347258        -9.4494
  64   2.0000      -0.330921        -9.0048
  65   2.0000      -0.325050        -8.8451
  66   2.0000      -0.290345        -7.9007
  67   0.0000       0.031282         0.8512
  68   0.0000       0.068785         1.8717
  69   0.0000       0.112327         3.0566
  70   0.0000       0.116333         3.1656
  71   0.0000       0.126678         3.4471

MULLIKEN ATOMIC CHARGES
-----------------------
   0 S :    0.113795
   1 C :   -0.124762
   2 C :   -0.138658
   3 C :   -0.019430
   4 C :   -0.151580
   5 H :    0.039746
   6 C :    0.079892
   7 H :    0.029401
   8 H :    0.036728
   9 C :   -0.049871
  10 H :    0.023311
  11 H :    0.030099
  12 C :   -0.077327
  13 H :    0.054885
  14 H :    0.039312
  15 H :    0.034860
  16 S :    0.093052
  17 C :   -0.115897
  18 C :   -0.002012
  19 C :   -0.040910
  20 C :   -0.111245
  21 H :    0.011048
  22 C :   -0.028932
  23 H :    0.024537
  24 H :    0.045977
  25 C :   -0.079823
  26 H :    0.031610
  27 H :    0.033417
  28 C :    0.011147
  29 H :    0.017709
  30 H :    0.028445
  31 H :    0.021229
  32 H :    0.056588
  33 H :    0.083657
Sum of atomic charges:   -0.0000000

LOEWDIN ATOMIC CHARGES
----------------------
   0 S :    0.404871
   1 C :   -0.211546
   2 C :   -0.053546
   3 C :   -0.069939
   4 C :   -0.192140
   5 H :    0.040785
   6 C :   -0.034401
   7 H :    0.028779
   8 H :    0.039987
   9 C :   -0.038953
  10 H :    0.022118
  11 H :    0.023061
  12 C :   -0.062838
  13 H :    0.022007
  14 H :    0.031677
  15 H :    0.026915
  16 S :    0.405583
  17 C :   -0.185207
  18 C :   -0.074707
  19 C :   -0.058961
  20 C :   -0.212064
  21 H :    0.031141
  22 C :   -0.048172
  23 H :    0.028461
  24 H :    0.042212
  25 C :   -0.034472
  26 H :    0.024012
  27 H :    0.022317
  28 C :   -0.047412
  29 H :    0.015016
  30 H :    0.022553
  31 H :    0.025639
  32 H :    0.023798
  33 H :    0.043429

  Mayer bond orders larger than 0.100000
B(  0-S ,  1-C ) :   1.1449 B(  0-S ,  4-C ) :   1.1504 B(  1-C ,  2-C ) :   1.6288
B(  1-C , 32-H ) :   0.9544 B(  2-C ,  3-C ) :   1.2226 B(  2-C ,  6-C ) :   1.0058
B(  3-C ,  4-C ) :   1.6073 B(  3-C ,  5-H ) :   0.9753 B(  4-C , 20-C ) :   1.0058
B(  6-C ,  7-H ) :   0.9241 B(  6-C ,  8-H ) :   0.9453 B(  6-C ,  9-C ) :   1.0851
B(  9-C , 10-H ) :   0.9516 B(  9-C , 11-H ) :   0.9445 B(  9-C , 12-C ) :   1.0820
B( 12-C , 13-H ) :   0.9679 B( 12-C , 14-H ) :   0.9735 B( 12-C , 15-H ) :   0.9736
B( 16-S , 17-C ) :   1.1794 B( 16-S , 20-C ) :   1.1371 B( 17-C , 18-C ) :   1.5570
B( 17-C , 20-C ) :   0.1031 B( 17-C , 33-H ) :   0.9574 B( 18-C , 19-C ) :   1.2777
B( 18-C , 21-H ) :   0.9988 B( 19-C , 20-C ) :   1.5788 B( 19-C , 22-C ) :   1.0298
B( 22-C , 23-H ) :   0.9411 B( 22-C , 24-H ) :   0.9414 B( 22-C , 25-C ) :   1.0516
B( 25-C , 26-H ) :   0.9555 B( 25-C , 27-H ) :   0.9538 B( 25-C , 28-C ) :   1.0769
B( 28-C , 29-H ) :   0.9736 B( 28-C , 30-H ) :   0.9757 B( 28-C , 31-H ) :   0.9755

Dispersion correction           -0.015246013
FINAL SINGLE POINT ENERGY     -1339.875145498157

DIPOLE MOMENT
-------------
                                X             Y             Z
Electronic contribution:      1.89008      26.49295      15.79088
Nuclear contribution   :     -2.16696     -27.17348     -15.95853
                        -----------------------------------------
Total Dipole Moment    :     -0.27688      -0.68053      -0.16765
                        -----------------------------------------
Magnitude (a.u.)       :      0.75358
Magnitude (Debye)      :      1.91545

Rotational constants in cm-1:     0.016448     0.010871     0.007212
Rotational constants in MHz :   493.110029   325.889683   216.223455

                             ****ORCA TERMINATED NORMALLY****
TOTAL RUN TIME: 0 days 0 hours 0 minutes 37 seconds 280 msec
