                         Program Version 4.2.1 -  RELEASE  -
|  1> ! wB97X-D3 SP def2-SVP
|  2> %pal
|  3> nprocs 16
|  4> end
|  5>
|  6> * xyz 0 1
|  7> S 	 -62.5347 	 53.1228 	 126.435
|  8> C 	 -63.1936 	 51.4775 	 126.24
|  9> C 	 -62.3153 	 50.5025 	 126.701
| 10> C 	 -61.0384 	 51.07 	 127.062
| 11> C 	 -61.0393 	 52.4398 	 127.038
| 12> H 	 -60.1419 	 50.5335 	 127.353
| 13> C 	 -62.6819 	 49.012 	 126.628
| 14> H 	 -62.6517 	 48.7529 	 125.598
| 15> H 	 -63.677 	 48.8261 	 126.979
| 16> C 	 -61.6851 	 48.0658 	 127.356
| 17> H 	 -60.7095 	 48.0329 	 126.801
| 18> H 	 -61.4732 	 48.3158 	 128.442
| 19> C 	 -62.2058 	 46.5663 	 127.323
| 20> H 	 -62.1136 	 46.1546 	 126.286
| 21> H 	 -61.6122 	 45.9075 	 128.051
| 22> H 	 -63.3292 	 46.5679 	 127.539
| 23> S 	 -59.8783 	 54.8115 	 126.28
| 24> C 	 -58.6536 	 55.5447 	 127.371
| 25> C 	 -58.3229 	 54.594 	 128.298
| 26> C 	 -58.97 	 53.3252 	 128.262
| 27> C 	 -59.915 	 53.3217 	 127.243
| 28> H 	 -57.6157 	 54.9208 	 129.023
| 29> C 	 -58.7256 	 52.2752 	 129.304
| 30> H 	 -57.6403 	 52.1591 	 129.452
| 31> H 	 -58.9435 	 51.1979 	 129.033
| 32> C 	 -59.4495 	 52.4376 	 130.652
| 33> H 	 -59.2478 	 51.5567 	 131.29
| 34> H 	 -60.5685 	 52.4921 	 130.559
| 35> C 	 -59.0921 	 53.7016 	 131.373
| 36> H 	 -59.4693 	 54.5562 	 130.806
| 37> H 	 -58.0676 	 54.0908 	 131.25
| 38> H 	 -59.409 	 53.9225 	 132.436
| 39> H 	 -64.1253 	 51.221 	 125.786
| 40> H 	 -58.1338 	 56.4638 	 127.244
| 41> *
| 42>
| 43>                          ****END OF INPUT****

CARTESIAN COORDINATES (ANGSTROEM)
---------------------------------
  S    -62.534700   53.122800  126.435000
  C    -63.193600   51.477500  126.240000
  C    -62.315300   50.502500  126.701000
  C    -61.038400   51.070000  127.062000
  C    -61.039300   52.439800  127.038000
  H    -60.141900   50.533500  127.353000
  C    -62.681900   49.012000  126.628000
  H    -62.651700   48.752900  125.598000
  H    -63.677000   48.826100  126.979000
  C    -61.685100   48.065800  127.356000
  H    -60.709500   48.032900  126.801000
  H    -61.473200   48.315800  128.442000
  C    -62.205800   46.566300  127.323000
  H    -62.113600   46.154600  126.286000
  H    -61.612200   45.907500  128.051000
  H    -63.329200   46.567900  127.539000
  S    -59.878300   54.811500  126.280000
  C    -58.653600   55.544700  127.371000
  C    -58.322900   54.594000  128.298000
  C    -58.970000   53.325200  128.262000
  C    -59.915000   53.321700  127.243000
  H    -57.615700   54.920800  129.023000
  C    -58.725600   52.275200  129.304000
  H    -57.640300   52.159100  129.452000
  H    -58.943500   51.197900  129.033000
  C    -59.449500   52.437600  130.652000
  H    -59.247800   51.556700  131.290000
  H    -60.568500   52.492100  130.559000
  C    -59.092100   53.701600  131.373000
  H    -59.469300   54.556200  130.806000
  H    -58.067600   54.090800  131.250000
  H    -59.409000   53.922500  132.436000
  H    -64.125300   51.221000  125.786000
  H    -58.133800   56.463800  127.244000

 Total Charge           Charge          ....    0
 Multiplicity           Mult            ....    1
 Number of Electrons    NEL             ....  134
 Basis Dimension        Dim             ....  322

ORBITAL ENERGIES
----------------

  NO   OCC          E(Eh)            E(eV)
   0   2.0000     -88.967483     -2420.9283
   1   2.0000     -88.965344     -2420.8701
   2   2.0000     -10.330780      -281.1148
   3   2.0000     -10.327292      -281.0199
   4   2.0000     -10.318269      -280.7744
   5   2.0000     -10.312064      -280.6055
   6   2.0000     -10.306648      -280.4582
   7   2.0000     -10.305726      -280.4331
   8   2.0000     -10.301465      -280.3171
   9   2.0000     -10.301288      -280.3123
  10   2.0000     -10.297198      -280.2010
  11   2.0000     -10.294924      -280.1391
  12   2.0000     -10.294862      -280.1374
  13   2.0000     -10.292806      -280.0815
  14   2.0000     -10.292408      -280.0707
  15   2.0000     -10.274830      -279.5923
  16   2.0000      -8.081500      -219.9088
  17   2.0000      -8.079107      -219.8437
  18   2.0000      -6.040069      -164.3586
  19   2.0000      -6.037779      -164.2963
  20   2.0000      -6.036203      -164.2534
  21   2.0000      -6.033725      -164.1860
  22   2.0000      -6.032118      -164.1423
  23   2.0000      -6.029748      -164.0778
  24   2.0000      -1.006068       -27.3765
  25   2.0000      -0.979116       -26.6431
  26   2.0000      -0.911487       -24.8028
  27   2.0000      -0.906643       -24.6710
  28   2.0000      -0.869250       -23.6535
  29   2.0000      -0.850108       -23.1326
  30   2.0000      -0.838141       -22.8070
  31   2.0000      -0.817648       -22.2493
  32   2.0000      -0.784375       -21.3439
  33   2.0000      -0.770463       -20.9654
  34   2.0000      -0.714517       -19.4430
  35   2.0000      -0.696437       -18.9510
  36   2.0000      -0.686670       -18.6852
  37   2.0000      -0.661741       -18.0069
  38   2.0000      -0.641356       -17.4522
  39   2.0000      -0.619873       -16.8676
  40   2.0000      -0.599792       -16.3212
  41   2.0000      -0.569584       -15.4992
  42   2.0000      -0.562208       -15.2985
  43   2.0000      -0.549454       -14.9514
  44   2.0000      -0.541910       -14.7461
  45   2.0000      -0.522705       -14.2235
  46   2.0000      -0.515799       -14.0356
  47   2.0000      -0.507655       -13.8140
  48   2.0000      -0.503781       -13.7086
  49   2.0000      -0.496333       -13.5059
  50   2.0000      -0.488477       -13.2921
  51   2.0000      -0.484276       -13.1778
  52   2.0000      -0.476262       -12.9598
  53   2.0000      -0.461358       -12.5542
  54   2.0000      -0.456766       -12.4292
  55   2.0000      -0.452083       -12.3018
  56   2.0000      -0.437724       -11.9111
  57   2.0000      -0.436245       -11.8708
  58   2.0000      -0.428503       -11.6602
  59   2.0000      -0.426346       -11.6015
  60   2.0000      -0.419044       -11.4028
  61   2.0000      -0.413800       -11.2601
  62   2.0000      -0.402454       -10.9513
  63   2.0000      -0.353959        -9.6317
  64   2.0000      -0.333315        -9.0700
  65   2.0000      -0.331672        -9.0252
  66   2.0000      -0.285209        -7.7609
  67   0.0000       0.019460         0.5295
  68   0.0000       0.075741         2.0610
  69   0.0000       0.103224         2.8089
  70   0.0000       0.117036         3.1847
  71   0.0000       0.131459         3.5772

MULLIKEN ATOMIC CHARGES
-----------------------
   0 S :    0.108901
   1 C :   -0.121186
   2 C :   -0.070210
   3 C :   -0.009973
   4 C :   -0.101193
   5 H :    0.018211
   6 C :    0.086288
   7 H :    0.035846
   8 H :    0.027806
   9 C :   -0.139317
  10 H :    0.045952
  11 H :    0.050364
  12 C :   -0.097834
  13 H :    0.040610
  14 H :    0.056387
  15 H :    0.041130
  16 S :    0.085357
  17 C :   -0.083954
  18 C :   -0.040888
  19 C :    0.013058
  20 C :   -0.155417
  21 H :    0.007240
  22 C :    0.023756
  23 H :    0.036020
  24 H :    0.025408
  25 C :   -0.045975
  26 H :    0.035539
  27 H :    0.048376
  28 C :   -0.086480
  29 H :    0.024035
  30 H :    0.007796
  31 H :    0.049614
  32 H :    0.034126
  33 H :    0.050608
Sum of atomic charges:   -0.0000000

LOEWDIN ATOMIC CHARGES
----------------------
   0 S :    0.392481
   1 C :   -0.188832
   2 C :   -0.053666
   3 C :   -0.066536
   4 C :   -0.184957
   5 H :    0.030539
   6 C :   -0.027943
   7 H :    0.033779
   8 H :    0.028160
   9 C :   -0.051846
  10 H :    0.028438
  11 H :    0.028737
  12 C :   -0.080469
  13 H :    0.026158
  14 H :    0.035137
  15 H :    0.028650
  16 S :    0.371614
  17 C :   -0.171310
  18 C :   -0.063647
  19 C :   -0.060928
  20 C :   -0.175753
  21 H :    0.024733
  22 C :   -0.038431
  23 H :    0.037536
  24 H :    0.037201
  25 C :   -0.041598
  26 H :    0.026698
  27 H :    0.036839
  28 C :   -0.094220
  29 H :    0.027930
  30 H :    0.019954
  31 H :    0.034467
  32 H :    0.022138
  33 H :    0.028947

  Mayer bond orders larger than 0.100000
B(  0-S ,  1-C ) :   1.1203 B(  0-S ,  4-C ) :   1.1346 B(  1-C ,  2-C ) :   1.6337
B(  1-C , 32-H ) :   0.9745 B(  2-C ,  3-C ) :   1.2274 B(  2-C ,  6-C ) :   1.0075
B(  3-C ,  4-C ) :   1.5779 B(  3-C ,  5-H ) :   0.9892 B(  4-C , 20-C ) :   1.0725
B(  6-C ,  7-H ) :   0.9360 B(  6-C ,  8-H ) :   0.9442 B(  6-C ,  9-C ) :   1.0733
B(  9-C , 10-H ) :   0.9486 B(  9-C , 11-H ) :   0.9628 B(  9-C , 12-C ) :   1.0688
B( 12-C , 13-H ) :   0.9763 B( 12-C , 14-H ) :   0.9748 B( 12-C , 15-H ) :   0.9758
B( 16-S , 17-C ) :   1.1120 B( 16-S , 20-C ) :   1.1426 B( 17-C , 18-C ) :   1.6377
B( 17-C , 33-H ) :   0.9716 B( 18-C , 19-C ) :   1.2319 B( 18-C , 21-H ) :   0.9867
B( 19-C , 20-C ) :   1.5772 B( 19-C , 22-C ) :   1.0394 B( 22-C , 23-H ) :   0.9318
B( 22-C , 24-H ) :   0.9374 B( 22-C , 25-C ) :   1.0726 B( 25-C , 26-H ) :   0.9556
B( 25-C , 27-H ) :   0.9534 B( 25-C , 28-C ) :   1.0735 B( 28-C , 29-H ) :   0.9599
B( 28-C , 30-H ) :   0.9684 B( 28-C , 31-H ) :   0.9720

Dispersion correction           -0.014306789
FINAL SINGLE POINT ENERGY     -1339.869920199493

DIPOLE MOMENT
-------------
                                X             Y             Z
Electronic contribution:     -3.17568      22.81536     -16.47098
Nuclear contribution   :      3.37960     -23.32551      16.74204
                        -----------------------------------------
Total Dipole Moment    :      0.20392      -0.51015       0.27106
                        -----------------------------------------
Magnitude (a.u.)       :      0.61263
Magnitude (Debye)      :      1.55717

Rotational constants in cm-1:     0.019482     0.008465     0.006574
Rotational constants in MHz :   584.053346   253.782640   197.097517

                             ****ORCA TERMINATED NORMALLY****
TOTAL RUN TIME: 0 days 0 hours 0 minutes 33 seconds 888 msec
