                         Program Version 4.2.1 -  RELEASE  -
|  1> ! wB97X-D3 SP def2-SVP
|  2> %pal
|  3> nprocs 16
|  4> end
|  5>
|  6> * xyz 0 1
|  7> S 	 -15.8375 	 38.1197 	 33.6078
|  8> C 	 -16.424 	 38.5652 	 35.2592
|  9> C 	 -15.5492 	 38.0699 	 36.1956
| 10> C 	 -14.5687 	 37.1797 	 35.6651
| 11> C 	 -14.5582 	 37.0811 	 34.2758
| 12> H 	 -13.7007 	 36.8026 	 36.1115
| 13> C 	 -15.605 	 38.4384 	 37.6692
| 14> H 	 -15.215 	 37.5737 	 38.2367
| 15> H 	 -16.6568 	 38.54 	 37.9546
| 16> C 	 -14.8251 	 39.7448 	 38.0794
| 17> H 	 -15.1806 	 40.5461 	 37.5762
| 18> H 	 -14.8962 	 39.8051 	 39.1328
| 19> C 	 -13.362 	 39.7022 	 37.7968
| 20> H 	 -13.0321 	 38.7322 	 38.2002
| 21> H 	 -13.1679 	 39.8876 	 36.7387
| 22> H 	 -12.8266 	 40.5217 	 38.2491
| 23> S 	 -12.0988 	 37.4483 	 33.3173
| 24> C 	 -11.3066 	 36.0927 	 32.4692
| 25> C 	 -11.9866 	 34.9012 	 32.5784
| 26> C 	 -13.2774 	 35.1064 	 33.1012
| 27> C 	 -13.51 	 36.4396 	 33.4909
| 28> H 	 -11.4737 	 33.9471 	 32.3557
| 29> C 	 -14.2461 	 33.9496 	 33.2654
| 30> H 	 -13.7922 	 32.9214 	 32.896
| 31> H 	 -15.1789 	 34.2438 	 32.8483
| 32> C 	 -14.5006 	 33.4961 	 34.7046
| 33> H 	 -15.0521 	 32.5533 	 34.944
| 34> H 	 -15.2131 	 34.2122 	 35.145
| 35> C 	 -13.1923 	 33.523 	 35.5649
| 36> H 	 -13.4431 	 33.0811 	 36.5079
| 37> H 	 -12.8111 	 34.5184 	 35.7513
| 38> H 	 -12.3128 	 33.0839 	 35.0273
| 39> H 	 -17.141 	 39.283 	 35.4571
| 40> H 	 -10.3926 	 36.0716 	 31.9031
| 41> *
| 42>
| 43>                          ****END OF INPUT****

CARTESIAN COORDINATES (ANGSTROEM)
---------------------------------
  S    -15.837500   38.119700   33.607800
  C    -16.424000   38.565200   35.259200
  C    -15.549200   38.069900   36.195600
  C    -14.568700   37.179700   35.665100
  C    -14.558200   37.081100   34.275800
  H    -13.700700   36.802600   36.111500
  C    -15.605000   38.438400   37.669200
  H    -15.215000   37.573700   38.236700
  H    -16.656800   38.540000   37.954600
  C    -14.825100   39.744800   38.079400
  H    -15.180600   40.546100   37.576200
  H    -14.896200   39.805100   39.132800
  C    -13.362000   39.702200   37.796800
  H    -13.032100   38.732200   38.200200
  H    -13.167900   39.887600   36.738700
  H    -12.826600   40.521700   38.249100
  S    -12.098800   37.448300   33.317300
  C    -11.306600   36.092700   32.469200
  C    -11.986600   34.901200   32.578400
  C    -13.277400   35.106400   33.101200
  C    -13.510000   36.439600   33.490900
  H    -11.473700   33.947100   32.355700
  C    -14.246100   33.949600   33.265400
  H    -13.792200   32.921400   32.896000
  H    -15.178900   34.243800   32.848300
  C    -14.500600   33.496100   34.704600
  H    -15.052100   32.553300   34.944000
  H    -15.213100   34.212200   35.145000
  C    -13.192300   33.523000   35.564900
  H    -13.443100   33.081100   36.507900
  H    -12.811100   34.518400   35.751300
  H    -12.312800   33.083900   35.027300
  H    -17.141000   39.283000   35.457100
  H    -10.392600   36.071600   31.903100

 Total Charge           Charge          ....    0
 Multiplicity           Mult            ....    1
 Number of Electrons    NEL             ....  134
 Basis Dimension        Dim             ....  322

ORBITAL ENERGIES
----------------

  NO   OCC          E(Eh)            E(eV)
   0   2.0000     -88.972764     -2421.0720
   1   2.0000     -88.965195     -2420.8660
   2   2.0000     -10.332288      -281.1558
   3   2.0000     -10.328162      -281.0436
   4   2.0000     -10.318517      -280.7811
   5   2.0000     -10.313851      -280.6542
   6   2.0000     -10.308704      -280.5141
   7   2.0000     -10.302289      -280.3395
   8   2.0000     -10.296742      -280.1886
   9   2.0000     -10.295694      -280.1601
  10   2.0000     -10.295369      -280.1512
  11   2.0000     -10.290985      -280.0319
  12   2.0000     -10.284770      -279.8628
  13   2.0000     -10.274654      -279.5875
  14   2.0000     -10.273941      -279.5681
  15   2.0000     -10.271862      -279.5116
  16   2.0000      -8.086720      -220.0508
  17   2.0000      -8.078542      -219.8283
  18   2.0000      -6.045265      -164.5000
  19   2.0000      -6.041427      -164.3956
  20   2.0000      -6.037387      -164.2857
  21   2.0000      -6.037133      -164.2787
  22   2.0000      -6.033244      -164.1729
  23   2.0000      -6.029286      -164.0652
  24   2.0000      -1.004882       -27.3442
  25   2.0000      -0.979772       -26.6610
  26   2.0000      -0.913131       -24.8475
  27   2.0000      -0.905402       -24.6372
  28   2.0000      -0.874957       -23.8088
  29   2.0000      -0.847415       -23.0593
  30   2.0000      -0.840596       -22.8738
  31   2.0000      -0.816319       -22.2132
  32   2.0000      -0.781670       -21.2703
  33   2.0000      -0.771081       -20.9822
  34   2.0000      -0.711365       -19.3572
  35   2.0000      -0.700793       -19.0695
  36   2.0000      -0.684294       -18.6206
  37   2.0000      -0.663215       -18.0470
  38   2.0000      -0.647468       -17.6185
  39   2.0000      -0.609894       -16.5961
  40   2.0000      -0.588409       -16.0114
  41   2.0000      -0.581164       -15.8143
  42   2.0000      -0.561747       -15.2859
  43   2.0000      -0.556037       -15.1305
  44   2.0000      -0.543997       -14.8029
  45   2.0000      -0.541114       -14.7244
  46   2.0000      -0.522187       -14.2094
  47   2.0000      -0.509983       -13.8773
  48   2.0000      -0.501934       -13.6583
  49   2.0000      -0.486380       -13.2351
  50   2.0000      -0.484649       -13.1880
  51   2.0000      -0.477163       -12.9843
  52   2.0000      -0.473120       -12.8743
  53   2.0000      -0.467005       -12.7079
  54   2.0000      -0.458386       -12.4733
  55   2.0000      -0.448232       -12.1970
  56   2.0000      -0.443299       -12.0628
  57   2.0000      -0.437752       -11.9118
  58   2.0000      -0.434375       -11.8199
  59   2.0000      -0.421804       -11.4779
  60   2.0000      -0.420070       -11.4307
  61   2.0000      -0.411984       -11.2107
  62   2.0000      -0.393594       -10.7102
  63   2.0000      -0.341621        -9.2960
  64   2.0000      -0.327993        -8.9251
  65   2.0000      -0.317524        -8.6403
  66   2.0000      -0.309498        -8.4219
  67   0.0000       0.035037         0.9534
  68   0.0000       0.043664         1.1882
  69   0.0000       0.100543         2.7359
  70   0.0000       0.116926         3.1817
  71   0.0000       0.122506         3.3336

MULLIKEN ATOMIC CHARGES
-----------------------
   0 S :    0.092950
   1 C :   -0.083773
   2 C :   -0.093050
   3 C :    0.082193
   4 C :   -0.183319
   5 H :   -0.002636
   6 C :    0.030197
   7 H :    0.027728
   8 H :    0.030118
   9 C :    0.006582
  10 H :    0.000345
  11 H :    0.023528
  12 C :   -0.061490
  13 H :    0.027849
  14 H :    0.037189
  15 H :    0.027487
  16 S :    0.130723
  17 C :   -0.079515
  18 C :   -0.065999
  19 C :   -0.015597
  20 C :   -0.193246
  21 H :    0.038752
  22 C :    0.085676
  23 H :    0.044030
  24 H :    0.035716
  25 C :   -0.119556
  26 H :    0.038454
  27 H :    0.027402
  28 C :   -0.038293
  29 H :    0.032554
  30 H :    0.023397
  31 H :    0.023305
  32 H :    0.023122
  33 H :    0.047179
Sum of atomic charges:   -0.0000000

LOEWDIN ATOMIC CHARGES
----------------------
   0 S :    0.371027
   1 C :   -0.167808
   2 C :   -0.061815
   3 C :   -0.056674
   4 C :   -0.193037
   5 H :    0.021258
   6 C :   -0.029849
   7 H :    0.030523
   8 H :    0.031838
   9 C :   -0.023869
  10 H :    0.008376
  11 H :    0.022248
  12 C :   -0.062865
  13 H :    0.024543
  14 H :    0.026885
  15 H :    0.024913
  16 S :    0.413903
  17 C :   -0.172844
  18 C :   -0.073537
  19 C :   -0.047541
  20 C :   -0.209292
  21 H :    0.041425
  22 C :   -0.032752
  23 H :    0.045404
  24 H :    0.030963
  25 C :   -0.053541
  26 H :    0.028715
  27 H :    0.020854
  28 C :   -0.067701
  29 H :    0.022779
  30 H :    0.019775
  31 H :    0.025870
  32 H :    0.014484
  33 H :    0.027343

  Mayer bond orders larger than 0.100000
B(  0-S ,  1-C ) :   1.1221 B(  0-S ,  4-C ) :   1.1444 B(  1-C ,  2-C ) :   1.6261
B(  1-C , 32-H ) :   0.9769 B(  2-C ,  3-C ) :   1.2231 B(  2-C ,  6-C ) :   1.0179
B(  3-C ,  4-C ) :   1.5910 B(  3-C ,  5-H ) :   0.9929 B(  4-C , 20-C ) :   1.0210
B(  6-C ,  7-H ) :   0.9434 B(  6-C ,  8-H ) :   0.9437 B(  6-C ,  9-C ) :   1.0725
B(  9-C , 10-H ) :   0.9532 B(  9-C , 11-H ) :   0.9554 B(  9-C , 12-C ) :   1.0904
B( 12-C , 13-H ) :   0.9762 B( 12-C , 14-H ) :   0.9719 B( 12-C , 15-H ) :   0.9703
B( 16-S , 17-C ) :   1.1485 B( 16-S , 20-C ) :   1.1548 B( 17-C , 18-C ) :   1.6272
B( 17-C , 20-C ) :   0.1068 B( 17-C , 33-H ) :   0.9634 B( 18-C , 19-C ) :   1.2558
B( 18-C , 21-H ) :   0.9808 B( 19-C , 20-C ) :   1.5748 B( 19-C , 22-C ) :   1.0339
B( 22-C , 23-H ) :   0.9482 B( 22-C , 24-H ) :   0.9352 B( 22-C , 25-C ) :   1.0524
B( 25-C , 26-H ) :   0.9662 B( 25-C , 27-H ) :   0.9484 B( 25-C , 28-C ) :   1.0734
B( 28-C , 29-H ) :   0.9753 B( 28-C , 30-H ) :   0.9645 B( 28-C , 31-H ) :   0.9749

Dispersion correction           -0.016357362
FINAL SINGLE POINT ENERGY     -1339.843375619919

DIPOLE MOMENT
-------------
                                X             Y             Z
Electronic contribution:     -0.85547       7.15397     -19.19297
Nuclear contribution   :      1.04388      -7.23623      19.70816
                        -----------------------------------------
Total Dipole Moment    :      0.18841      -0.08226       0.51520
                        -----------------------------------------
Magnitude (a.u.)       :      0.55470
Magnitude (Debye)      :      1.40993

Rotational constants in cm-1:     0.019833     0.009004     0.008563
Rotational constants in MHz :   594.588717   269.920954   256.711794

                             ****ORCA TERMINATED NORMALLY****
TOTAL RUN TIME: 0 days 0 hours 0 minutes 36 seconds 319 msec
