                         Program Version 4.2.1 -  RELEASE  -
|  1> ! wB97X-D3 SP def2-SVP
|  2> %pal
|  3> nprocs 16
|  4> end
|  5>
|  6> * xyz 0 1
|  7> S 	 -37.31 	 30.1311 	 93.5778
|  8> C 	 -38.2628 	 29.7379 	 94.9883
|  9> C 	 -39.6132 	 29.6031 	 94.648
| 10> C 	 -39.8496 	 29.7649 	 93.2678
| 11> C 	 -38.6868 	 29.7755 	 92.5173
| 12> H 	 -40.8371 	 29.6782 	 92.8873
| 13> C 	 -40.7822 	 29.5173 	 95.6248
| 14> H 	 -40.4336 	 28.8199 	 96.4299
| 15> H 	 -41.5394 	 29.2214 	 94.9369
| 16> C 	 -41.1732 	 30.9139 	 96.1792
| 17> H 	 -41.8794 	 30.7768 	 96.953
| 18> H 	 -40.295 	 31.4171 	 96.6312
| 19> C 	 -41.8182 	 31.9251 	 95.2798
| 20> H 	 -41.3614 	 31.9361 	 94.306
| 21> H 	 -42.9061 	 31.7003 	 95.131
| 22> H 	 -41.6988 	 32.9043 	 95.8013
| 23> S 	 -38.6164 	 31.4348 	 90.3016
| 24> C 	 -38.9726 	 30.8086 	 88.7518
| 25> C 	 -38.9411 	 29.4233 	 88.7061
| 26> C 	 -38.8001 	 28.85 	 90.0681
| 27> C 	 -38.6424 	 29.817 	 91.0659
| 28> H 	 -39.09 	 28.9519 	 87.7627
| 29> C 	 -38.9883 	 27.3721 	 90.3399
| 30> H 	 -39.728 	 27.0998 	 89.5669
| 31> H 	 -39.5038 	 27.1583 	 91.2897
| 32> C 	 -37.6872 	 26.4927 	 90.3021
| 33> H 	 -38.1547 	 25.503 	 90.1504
| 34> H 	 -37.0882 	 26.7158 	 91.1899
| 35> C 	 -36.8547 	 26.7755 	 89.1012
| 36> H 	 -36.3423 	 27.7837 	 89.1135
| 37> H 	 -37.4858 	 26.6612 	 88.2023
| 38> H 	 -36.0353 	 26.0418 	 88.9828
| 39> H 	 -37.7533 	 29.7863 	 96.0145
| 40> H 	 -38.7997 	 31.4266 	 87.8723
| 41> *
| 42>
| 43>                          ****END OF INPUT****

CARTESIAN COORDINATES (ANGSTROEM)
---------------------------------
  S    -37.310000   30.131100   93.577800
  C    -38.262800   29.737900   94.988300
  C    -39.613200   29.603100   94.648000
  C    -39.849600   29.764900   93.267800
  C    -38.686800   29.775500   92.517300
  H    -40.837100   29.678200   92.887300
  C    -40.782200   29.517300   95.624800
  H    -40.433600   28.819900   96.429900
  H    -41.539400   29.221400   94.936900
  C    -41.173200   30.913900   96.179200
  H    -41.879400   30.776800   96.953000
  H    -40.295000   31.417100   96.631200
  C    -41.818200   31.925100   95.279800
  H    -41.361400   31.936100   94.306000
  H    -42.906100   31.700300   95.131000
  H    -41.698800   32.904300   95.801300
  S    -38.616400   31.434800   90.301600
  C    -38.972600   30.808600   88.751800
  C    -38.941100   29.423300   88.706100
  C    -38.800100   28.850000   90.068100
  C    -38.642400   29.817000   91.065900
  H    -39.090000   28.951900   87.762700
  C    -38.988300   27.372100   90.339900
  H    -39.728000   27.099800   89.566900
  H    -39.503800   27.158300   91.289700
  C    -37.687200   26.492700   90.302100
  H    -38.154700   25.503000   90.150400
  H    -37.088200   26.715800   91.189900
  C    -36.854700   26.775500   89.101200
  H    -36.342300   27.783700   89.113500
  H    -37.485800   26.661200   88.202300
  H    -36.035300   26.041800   88.982800
  H    -37.753300   29.786300   96.014500
  H    -38.799700   31.426600   87.872300

 Total Charge           Charge          ....    0
 Multiplicity           Mult            ....    1
 Number of Electrons    NEL             ....  134
 Basis Dimension        Dim             ....  322

ORBITAL ENERGIES
----------------

  NO   OCC          E(Eh)            E(eV)
   0   2.0000     -88.967264     -2420.9223
   1   2.0000     -88.958435     -2420.6821
   2   2.0000     -10.330855      -281.1169
   3   2.0000     -10.326807      -281.0067
   4   2.0000     -10.321782      -280.8700
   5   2.0000     -10.314568      -280.6737
   6   2.0000     -10.310546      -280.5642
   7   2.0000     -10.298827      -280.2453
   8   2.0000     -10.297316      -280.2042
   9   2.0000     -10.295199      -280.1466
  10   2.0000     -10.292663      -280.0776
  11   2.0000     -10.290280      -280.0128
  12   2.0000     -10.285828      -279.8916
  13   2.0000     -10.281274      -279.7677
  14   2.0000     -10.277910      -279.6762
  15   2.0000     -10.276057      -279.6257
  16   2.0000      -8.081689      -219.9139
  17   2.0000      -8.073796      -219.6991
  18   2.0000      -6.040128      -164.3602
  19   2.0000      -6.036322      -164.2567
  20   2.0000      -6.032467      -164.1518
  21   2.0000      -6.032254      -164.1460
  22   2.0000      -6.028176      -164.0350
  23   2.0000      -6.024610      -163.9380
  24   2.0000      -1.002803       -27.2877
  25   2.0000      -0.980858       -26.6905
  26   2.0000      -0.912681       -24.8353
  27   2.0000      -0.907538       -24.6954
  28   2.0000      -0.867924       -23.6174
  29   2.0000      -0.852858       -23.2075
  30   2.0000      -0.843355       -22.9488
  31   2.0000      -0.812314       -22.1042
  32   2.0000      -0.781263       -21.2592
  33   2.0000      -0.766943       -20.8696
  34   2.0000      -0.703606       -19.1461
  35   2.0000      -0.696522       -18.9533
  36   2.0000      -0.680666       -18.5219
  37   2.0000      -0.658154       -17.9093
  38   2.0000      -0.642227       -17.4759
  39   2.0000      -0.612901       -16.6779
  40   2.0000      -0.588522       -16.0145
  41   2.0000      -0.571583       -15.5536
  42   2.0000      -0.562493       -15.3062
  43   2.0000      -0.552251       -15.0275
  44   2.0000      -0.545012       -14.8305
  45   2.0000      -0.530195       -14.4273
  46   2.0000      -0.522381       -14.2147
  47   2.0000      -0.513679       -13.9779
  48   2.0000      -0.502722       -13.6798
  49   2.0000      -0.487936       -13.2774
  50   2.0000      -0.484438       -13.1822
  51   2.0000      -0.476047       -12.9539
  52   2.0000      -0.473914       -12.8959
  53   2.0000      -0.461455       -12.5568
  54   2.0000      -0.457292       -12.4436
  55   2.0000      -0.443950       -12.0805
  56   2.0000      -0.440271       -11.9804
  57   2.0000      -0.436162       -11.8686
  58   2.0000      -0.430956       -11.7269
  59   2.0000      -0.426849       -11.6152
  60   2.0000      -0.419328       -11.4105
  61   2.0000      -0.408906       -11.1269
  62   2.0000      -0.402921       -10.9640
  63   2.0000      -0.336487        -9.1563
  64   2.0000      -0.323340        -8.7985
  65   2.0000      -0.321251        -8.7417
  66   2.0000      -0.305842        -8.3224
  67   0.0000       0.035335         0.9615
  68   0.0000       0.050249         1.3673
  69   0.0000       0.113675         3.0933
  70   0.0000       0.115509         3.1432
  71   0.0000       0.125077         3.4035

MULLIKEN ATOMIC CHARGES
-----------------------
   0 S :    0.109126
   1 C :   -0.157441
   2 C :   -0.121844
   3 C :    0.061659
   4 C :   -0.168763
   5 H :    0.010326
   6 C :    0.098840
   7 H :    0.046914
   8 H :    0.008538
   9 C :   -0.058558
  10 H :    0.020278
  11 H :    0.024873
  12 C :   -0.075957
  13 H :    0.037711
  14 H :    0.035608
  15 H :    0.046973
  16 S :    0.092587
  17 C :   -0.091769
  18 C :   -0.040937
  19 C :   -0.041371
  20 C :   -0.164786
  21 H :    0.018191
  22 C :    0.026299
  23 H :    0.024595
  24 H :    0.035493
  25 C :   -0.036445
  26 H :    0.037473
  27 H :    0.047196
  28 C :   -0.085999
  29 H :    0.055674
  30 H :    0.020549
  31 H :    0.034153
  32 H :    0.082009
  33 H :    0.068805
Sum of atomic charges:   -0.0000000

LOEWDIN ATOMIC CHARGES
----------------------
   0 S :    0.401443
   1 C :   -0.210291
   2 C :   -0.070671
   3 C :   -0.052497
   4 C :   -0.195607
   5 H :    0.027660
   6 C :   -0.026402
   7 H :    0.043021
   8 H :    0.024829
   9 C :   -0.043543
  10 H :    0.018293
  11 H :    0.025187
  12 C :   -0.067786
  13 H :    0.021176
  14 H :    0.027156
  15 H :    0.037530
  16 S :    0.397666
  17 C :   -0.197011
  18 C :   -0.072761
  19 C :   -0.046351
  20 C :   -0.197025
  21 H :    0.027815
  22 C :   -0.040360
  23 H :    0.030573
  24 H :    0.032931
  25 C :   -0.037928
  26 H :    0.033353
  27 H :    0.030731
  28 C :   -0.077239
  29 H :    0.033778
  30 H :    0.021827
  31 H :    0.026089
  32 H :    0.042979
  33 H :    0.031435

  Mayer bond orders larger than 0.100000
B(  0-S ,  1-C ) :   1.1534 B(  0-S ,  4-C ) :   1.1574 B(  1-C ,  2-C ) :   1.5707
B(  1-C ,  4-C ) :   0.1091 B(  1-C , 32-H ) :   0.9606 B(  2-C ,  3-C ) :   1.2832
B(  2-C ,  6-C ) :   1.0142 B(  3-C ,  4-C ) :   1.5481 B(  3-C ,  5-H ) :   0.9888
B(  4-C , 20-C ) :   1.0303 B(  6-C ,  7-H ) :   0.9379 B(  6-C ,  8-H ) :   0.9362
B(  6-C ,  9-C ) :   1.0707 B(  9-C , 10-H ) :   0.9553 B(  9-C , 11-H ) :   0.9594
B(  9-C , 12-C ) :   1.0804 B( 12-C , 13-H ) :   0.9752 B( 12-C , 14-H ) :   0.9745
B( 12-C , 15-H ) :   0.9716 B( 16-S , 17-C ) :   1.1732 B( 16-S , 20-C ) :   1.1270
B( 17-C , 18-C ) :   1.6276 B( 17-C , 33-H ) :   0.9565 B( 18-C , 19-C ) :   1.2067
B( 18-C , 21-H ) :   0.9943 B( 19-C , 20-C ) :   1.6247 B( 19-C , 22-C ) :   1.0327
B( 22-C , 23-H ) :   0.9382 B( 22-C , 24-H ) :   0.9407 B( 22-C , 25-C ) :   1.0641
B( 25-C , 26-H ) :   0.9520 B( 25-C , 27-H ) :   0.9541 B( 25-C , 28-C ) :   1.1022
B( 28-C , 29-H ) :   0.9640 B( 28-C , 30-H ) :   0.9731 B( 28-C , 31-H ) :   0.9706

Dispersion correction           -0.014886620
FINAL SINGLE POINT ENERGY     -1339.864266658624

DIPOLE MOMENT
-------------
                                X             Y             Z
Electronic contribution:      9.47233       9.98656      -4.14845
Nuclear contribution   :     -9.82237     -10.26469       4.25658
                        -----------------------------------------
Total Dipole Moment    :     -0.35005      -0.27813       0.10813
                        -----------------------------------------
Magnitude (a.u.)       :      0.45998
Magnitude (Debye)      :      1.16918

Rotational constants in cm-1:     0.021959     0.008051     0.007158
Rotational constants in MHz :   658.307297   241.366624   214.604818

                             ****ORCA TERMINATED NORMALLY****
TOTAL RUN TIME: 0 days 0 hours 0 minutes 30 seconds 326 msec
