                         Program Version 4.2.1 -  RELEASE  -
|  1> ! wB97X-D3 SP def2-SVP
|  2> %pal
|  3> nprocs 16
|  4> end
|  5>
|  6> * xyz 0 1
|  7> S 	 -15.3896 	 -7.89962 	 85.7762
|  8> C 	 -15.2086 	 -9.47586 	 84.9825
|  9> C 	 -16.1926 	 -9.70125 	 84.0884
| 10> C 	 -17.0788 	 -8.57295 	 84.0069
| 11> C 	 -16.7967 	 -7.47783 	 84.8339
| 12> H 	 -17.9613 	 -8.55522 	 83.3365
| 13> C 	 -16.3523 	 -10.8457 	 83.139
| 14> H 	 -17.0938 	 -11.5285 	 83.5922
| 15> H 	 -15.4583 	 -11.4353 	 83.0591
| 16> C 	 -16.7726 	 -10.67 	 81.6661
| 17> H 	 -17.2847 	 -11.6131 	 81.3394
| 18> H 	 -17.7236 	 -10.1892 	 81.4726
| 19> C 	 -15.5786 	 -10.275 	 80.7795
| 20> H 	 -15.8531 	 -10.3468 	 79.7239
| 21> H 	 -15.1804 	 -9.23766 	 80.9581
| 22> H 	 -14.8364 	 -11.0676 	 81.0332
| 23> S 	 -18.0573 	 -5.56258 	 83.3377
| 24> C 	 -18.7817 	 -4.18309 	 84.1
| 25> C 	 -18.4169 	 -4.10713 	 85.4705
| 26> C 	 -17.6304 	 -5.25972 	 85.8629
| 27> C 	 -17.4439 	 -6.19993 	 84.8678
| 28> H 	 -18.6213 	 -3.22718 	 86.144
| 29> C 	 -17.2622 	 -5.49047 	 87.3443
| 30> H 	 -16.1889 	 -5.75309 	 87.4469
| 31> H 	 -17.8057 	 -6.33886 	 87.6882
| 32> C 	 -17.5833 	 -4.29944 	 88.3634
| 33> H 	 -18.6452 	 -4.18503 	 88.4869
| 34> H 	 -17.1302 	 -3.4387 	 88.036
| 35> C 	 -16.9948 	 -4.61462 	 89.7461
| 36> H 	 -17.0577 	 -3.78864 	 90.5617
| 37> H 	 -15.9035 	 -4.73496 	 89.6081
| 38> H 	 -17.2744 	 -5.57573 	 90.2094
| 39> H 	 -14.4078 	 -10.1772 	 85.276
| 40> H 	 -19.083 	 -3.25762 	 83.5857
| 41> *
| 42>
| 43>                          ****END OF INPUT****

CARTESIAN COORDINATES (ANGSTROEM)
---------------------------------
  S    -15.389600   -7.899620   85.776200
  C    -15.208600   -9.475860   84.982500
  C    -16.192600   -9.701250   84.088400
  C    -17.078800   -8.572950   84.006900
  C    -16.796700   -7.477830   84.833900
  H    -17.961300   -8.555220   83.336500
  C    -16.352300  -10.845700   83.139000
  H    -17.093800  -11.528500   83.592200
  H    -15.458300  -11.435300   83.059100
  C    -16.772600  -10.670000   81.666100
  H    -17.284700  -11.613100   81.339400
  H    -17.723600  -10.189200   81.472600
  C    -15.578600  -10.275000   80.779500
  H    -15.853100  -10.346800   79.723900
  H    -15.180400   -9.237660   80.958100
  H    -14.836400  -11.067600   81.033200
  S    -18.057300   -5.562580   83.337700
  C    -18.781700   -4.183090   84.100000
  C    -18.416900   -4.107130   85.470500
  C    -17.630400   -5.259720   85.862900
  C    -17.443900   -6.199930   84.867800
  H    -18.621300   -3.227180   86.144000
  C    -17.262200   -5.490470   87.344300
  H    -16.188900   -5.753090   87.446900
  H    -17.805700   -6.338860   87.688200
  C    -17.583300   -4.299440   88.363400
  H    -18.645200   -4.185030   88.486900
  H    -17.130200   -3.438700   88.036000
  C    -16.994800   -4.614620   89.746100
  H    -17.057700   -3.788640   90.561700
  H    -15.903500   -4.734960   89.608100
  H    -17.274400   -5.575730   90.209400
  H    -14.407800  -10.177200   85.276000
  H    -19.083000   -3.257620   83.585700

 Total Charge           Charge          ....    0
 Multiplicity           Mult            ....    1
 Number of Electrons    NEL             ....  134
 Basis Dimension        Dim             ....  322

ORBITAL ENERGIES
----------------

  NO   OCC          E(Eh)            E(eV)
   0   2.0000     -88.968455     -2420.9547
   1   2.0000     -88.964617     -2420.8503
   2   2.0000     -10.332024      -281.1487
   3   2.0000     -10.328656      -281.0570
   4   2.0000     -10.322207      -280.8815
   5   2.0000     -10.315792      -280.7070
   6   2.0000     -10.307164      -280.4722
   7   2.0000     -10.304625      -280.4031
   8   2.0000     -10.300034      -280.2782
   9   2.0000     -10.295208      -280.1468
  10   2.0000     -10.294969      -280.1404
  11   2.0000     -10.293515      -280.1008
  12   2.0000     -10.291264      -280.0395
  13   2.0000     -10.286672      -279.9146
  14   2.0000     -10.286342      -279.9056
  15   2.0000     -10.285993      -279.8961
  16   2.0000      -8.082813      -219.9445
  17   2.0000      -8.078877      -219.8374
  18   2.0000      -6.041338      -164.3932
  19   2.0000      -6.037577      -164.2908
  20   2.0000      -6.037317      -164.2837
  21   2.0000      -6.033614      -164.1830
  22   2.0000      -6.033416      -164.1776
  23   2.0000      -6.029508      -164.0713
  24   2.0000      -1.006040       -27.3757
  25   2.0000      -0.982557       -26.7367
  26   2.0000      -0.912970       -24.8432
  27   2.0000      -0.902894       -24.5690
  28   2.0000      -0.872783       -23.7496
  29   2.0000      -0.849275       -23.1100
  30   2.0000      -0.841750       -22.9052
  31   2.0000      -0.807846       -21.9826
  32   2.0000      -0.780786       -21.2463
  33   2.0000      -0.769246       -20.9322
  34   2.0000      -0.712737       -19.3946
  35   2.0000      -0.708938       -19.2912
  36   2.0000      -0.694636       -18.9020
  37   2.0000      -0.660442       -17.9715
  38   2.0000      -0.629724       -17.1357
  39   2.0000      -0.619481       -16.8569
  40   2.0000      -0.594442       -16.1756
  41   2.0000      -0.572885       -15.5890
  42   2.0000      -0.568119       -15.4593
  43   2.0000      -0.556269       -15.1368
  44   2.0000      -0.528085       -14.3699
  45   2.0000      -0.518067       -14.0973
  46   2.0000      -0.515212       -14.0196
  47   2.0000      -0.513125       -13.9628
  48   2.0000      -0.502350       -13.6696
  49   2.0000      -0.495291       -13.4775
  50   2.0000      -0.481844       -13.1116
  51   2.0000      -0.478832       -13.0297
  52   2.0000      -0.471939       -12.8421
  53   2.0000      -0.464450       -12.6383
  54   2.0000      -0.456515       -12.4224
  55   2.0000      -0.452601       -12.3159
  56   2.0000      -0.444367       -12.0918
  57   2.0000      -0.436395       -11.8749
  58   2.0000      -0.433864       -11.8060
  59   2.0000      -0.430484       -11.7141
  60   2.0000      -0.420503       -11.4425
  61   2.0000      -0.412813       -11.2332
  62   2.0000      -0.399383       -10.8678
  63   2.0000      -0.357118        -9.7177
  64   2.0000      -0.330971        -9.0062
  65   2.0000      -0.328057        -8.9269
  66   2.0000      -0.285848        -7.7783
  67   0.0000       0.020363         0.5541
  68   0.0000       0.076377         2.0783
  69   0.0000       0.112590         3.0637
  70   0.0000       0.118974         3.2374
  71   0.0000       0.125068         3.4033

MULLIKEN ATOMIC CHARGES
-----------------------
   0 S :    0.086465
   1 C :   -0.152262
   2 C :   -0.024952
   3 C :   -0.023500
   4 C :   -0.131716
   5 H :    0.020836
   6 C :    0.058305
   7 H :    0.041250
   8 H :    0.006464
   9 C :   -0.081225
  10 H :    0.014197
  11 H :    0.011423
  12 C :   -0.049421
  13 H :    0.039035
  14 H :    0.061518
  15 H :    0.034307
  16 S :    0.113895
  17 C :   -0.086850
  18 C :   -0.082027
  19 C :   -0.046298
  20 C :   -0.121999
  21 H :    0.050502
  22 C :    0.011814
  23 H :    0.038082
  24 H :    0.039728
  25 C :   -0.034904
  26 H :    0.038925
  27 H :    0.021903
  28 C :   -0.096475
  29 H :    0.049842
  30 H :    0.024659
  31 H :    0.035683
  32 H :    0.058352
  33 H :    0.074448
Sum of atomic charges:    0.0000000

LOEWDIN ATOMIC CHARGES
----------------------
   0 S :    0.398227
   1 C :   -0.188605
   2 C :   -0.069369
   3 C :   -0.071877
   4 C :   -0.193886
   5 H :    0.029135
   6 C :   -0.033513
   7 H :    0.041173
   8 H :    0.026293
   9 C :   -0.058363
  10 H :    0.033953
  11 H :    0.020498
  12 C :   -0.067068
  13 H :    0.027017
  14 H :    0.036459
  15 H :    0.029725
  16 S :    0.420249
  17 C :   -0.204271
  18 C :   -0.076736
  19 C :   -0.059834
  20 C :   -0.193049
  21 H :    0.042942
  22 C :   -0.031340
  23 H :    0.026069
  24 H :    0.030985
  25 C :   -0.030718
  26 H :    0.023638
  27 H :    0.013160
  28 C :   -0.078884
  29 H :    0.035869
  30 H :    0.024578
  31 H :    0.024897
  32 H :    0.034858
  33 H :    0.037790

  Mayer bond orders larger than 0.100000
B(  0-S ,  1-C ) :   1.1219 B(  0-S ,  4-C ) :   1.1382 B(  1-C ,  2-C ) :   1.6223
B(  1-C , 32-H ) :   0.9639 B(  2-C ,  3-C ) :   1.2387 B(  2-C ,  6-C ) :   1.0241
B(  3-C ,  4-C ) :   1.5517 B(  3-C ,  5-H ) :   0.9867 B(  4-C , 20-C ) :   1.1007
B(  6-C ,  7-H ) :   0.9227 B(  6-C ,  8-H ) :   0.9458 B(  6-C ,  9-C ) :   1.0893
B(  9-C , 10-H ) :   0.9416 B(  9-C , 11-H ) :   0.9411 B(  9-C , 12-C ) :   1.0589
B( 12-C , 13-H ) :   0.9742 B( 12-C , 14-H ) :   0.9772 B( 12-C , 15-H ) :   0.9749
B( 16-S , 17-C ) :   1.1704 B( 16-S , 20-C ) :   1.1341 B( 17-C , 18-C ) :   1.5733
B( 17-C , 33-H ) :   0.9566 B( 18-C , 19-C ) :   1.2841 B( 18-C , 21-H ) :   0.9701
B( 19-C , 20-C ) :   1.5689 B( 19-C , 22-C ) :   1.0203 B( 22-C , 23-H ) :   0.9364
B( 22-C , 24-H ) :   0.9381 B( 22-C , 25-C ) :   1.0787 B( 25-C , 26-H ) :   0.9512
B( 25-C , 27-H ) :   0.9539 B( 25-C , 28-C ) :   1.0777 B( 28-C , 29-H ) :   0.9737
B( 28-C , 30-H ) :   0.9734 B( 28-C , 31-H ) :   0.9760

Dispersion correction           -0.013554976
FINAL SINGLE POINT ENERGY     -1339.867942670743

DIPOLE MOMENT
-------------
                                X             Y             Z
Electronic contribution:     -1.08442       5.81030      -3.90651
Nuclear contribution   :      1.03567      -5.96859       3.89523
                        -----------------------------------------
Total Dipole Moment    :     -0.04875      -0.15829      -0.01129
                        -----------------------------------------
Magnitude (a.u.)       :      0.16601
Magnitude (Debye)      :      0.42196

Rotational constants in cm-1:     0.023209     0.007600     0.005975
Rotational constants in MHz :   695.789985   227.829417   179.126868

                             ****ORCA TERMINATED NORMALLY****
TOTAL RUN TIME: 0 days 0 hours 0 minutes 31 seconds 927 msec
