                         Program Version 4.2.1 -  RELEASE  -
|  1> ! wB97X-D3 SP def2-SVP
|  2> %pal
|  3> nprocs 16
|  4> end
|  5>
|  6> * xyz 0 1
|  7> S 	 -30.5583 	 32.0265 	 43.5657
|  8> C 	 -29.9775 	 32.4368 	 41.9511
|  9> C 	 -29.4713 	 33.6961 	 42.0194
| 10> C 	 -29.5476 	 34.2297 	 43.3266
| 11> C 	 -30.191 	 33.5402 	 44.3183
| 12> H 	 -29.1381 	 35.1625 	 43.4534
| 13> C 	 -28.8043 	 34.4046 	 40.901
| 14> H 	 -29.3581 	 35.2983 	 40.7289
| 15> H 	 -28.7752 	 33.7934 	 39.9933
| 16> C 	 -27.3249 	 34.8768 	 41.1286
| 17> H 	 -26.953 	 35.4516 	 40.3283
| 18> H 	 -27.2687 	 35.4613 	 42.0275
| 19> C 	 -26.3765 	 33.7257 	 41.4174
| 20> H 	 -26.3875 	 32.9664 	 40.6451
| 21> H 	 -25.347 	 34.0306 	 41.4112
| 22> H 	 -26.6154 	 33.2993 	 42.3371
| 23> S 	 -30.4211 	 32.6558 	 46.8627
| 24> C 	 -30.8542 	 33.7434 	 48.1574
| 25> C 	 -30.78 	 35.0472 	 47.6454
| 26> C 	 -30.4938 	 35.1924 	 46.2605
| 27> C 	 -30.4633 	 33.9214 	 45.6744
| 28> H 	 -31.0291 	 35.8255 	 48.3181
| 29> C 	 -30.6751 	 36.5422 	 45.5911
| 30> H 	 -31.6416 	 36.8878 	 45.9934
| 31> H 	 -30.7115 	 36.4404 	 44.4962
| 32> C 	 -29.5806 	 37.6381 	 45.966
| 33> H 	 -29.3734 	 37.7924 	 47.0301
| 34> H 	 -29.7745 	 38.6015 	 45.5723
| 35> C 	 -28.2275 	 37.2492 	 45.3575
| 36> H 	 -28.043 	 37.2529 	 44.2884
| 37> H 	 -27.864 	 36.3325 	 45.7255
| 38> H 	 -27.4899 	 38.0139 	 45.7013
| 39> H 	 -29.9467 	 31.8406 	 41.0808
| 40> H 	 -31.0055 	 33.4911 	 49.1879
| 41> *
| 42>
| 43>                          ****END OF INPUT****

CARTESIAN COORDINATES (ANGSTROEM)
---------------------------------
  S    -30.558300   32.026500   43.565700
  C    -29.977500   32.436800   41.951100
  C    -29.471300   33.696100   42.019400
  C    -29.547600   34.229700   43.326600
  C    -30.191000   33.540200   44.318300
  H    -29.138100   35.162500   43.453400
  C    -28.804300   34.404600   40.901000
  H    -29.358100   35.298300   40.728900
  H    -28.775200   33.793400   39.993300
  C    -27.324900   34.876800   41.128600
  H    -26.953000   35.451600   40.328300
  H    -27.268700   35.461300   42.027500
  C    -26.376500   33.725700   41.417400
  H    -26.387500   32.966400   40.645100
  H    -25.347000   34.030600   41.411200
  H    -26.615400   33.299300   42.337100
  S    -30.421100   32.655800   46.862700
  C    -30.854200   33.743400   48.157400
  C    -30.780000   35.047200   47.645400
  C    -30.493800   35.192400   46.260500
  C    -30.463300   33.921400   45.674400
  H    -31.029100   35.825500   48.318100
  C    -30.675100   36.542200   45.591100
  H    -31.641600   36.887800   45.993400
  H    -30.711500   36.440400   44.496200
  C    -29.580600   37.638100   45.966000
  H    -29.373400   37.792400   47.030100
  H    -29.774500   38.601500   45.572300
  C    -28.227500   37.249200   45.357500
  H    -28.043000   37.252900   44.288400
  H    -27.864000   36.332500   45.725500
  H    -27.489900   38.013900   45.701300
  H    -29.946700   31.840600   41.080800
  H    -31.005500   33.491100   49.187900

 Total Charge           Charge          ....    0
 Multiplicity           Mult            ....    1
 Number of Electrons    NEL             ....  134
 Basis Dimension        Dim             ....  322

ORBITAL ENERGIES
----------------

  NO   OCC          E(Eh)            E(eV)
   0   2.0000     -88.967757     -2420.9358
   1   2.0000     -88.961124     -2420.7552
   2   2.0000     -10.332293      -281.1560
   3   2.0000     -10.329085      -281.0687
   4   2.0000     -10.320556      -280.8366
   5   2.0000     -10.310586      -280.5653
   6   2.0000     -10.308853      -280.5181
   7   2.0000     -10.303162      -280.3633
   8   2.0000     -10.294429      -280.1257
   9   2.0000     -10.292774      -280.0806
  10   2.0000     -10.292766      -280.0804
  11   2.0000     -10.289581      -279.9937
  12   2.0000     -10.281755      -279.7808
  13   2.0000     -10.280564      -279.7484
  14   2.0000     -10.273960      -279.5687
  15   2.0000     -10.264036      -279.2986
  16   2.0000      -8.082821      -219.9447
  17   2.0000      -8.076036      -219.7601
  18   2.0000      -6.041361      -164.3938
  19   2.0000      -6.037181      -164.2801
  20   2.0000      -6.034761      -164.2142
  21   2.0000      -6.033621      -164.1832
  22   2.0000      -6.030341      -164.0939
  23   2.0000      -6.026693      -163.9946
  24   2.0000      -1.014593       -27.6085
  25   2.0000      -0.990919       -26.9643
  26   2.0000      -0.915909       -24.9231
  27   2.0000      -0.907793       -24.7023
  28   2.0000      -0.876262       -23.8443
  29   2.0000      -0.855743       -23.2859
  30   2.0000      -0.844068       -22.9683
  31   2.0000      -0.818626       -22.2759
  32   2.0000      -0.784281       -21.3414
  33   2.0000      -0.778028       -21.1712
  34   2.0000      -0.718322       -19.5465
  35   2.0000      -0.704020       -19.1574
  36   2.0000      -0.700490       -19.0613
  37   2.0000      -0.663885       -18.0652
  38   2.0000      -0.639487       -17.4013
  39   2.0000      -0.634050       -17.2534
  40   2.0000      -0.598566       -16.2878
  41   2.0000      -0.574409       -15.6305
  42   2.0000      -0.556581       -15.1453
  43   2.0000      -0.553052       -15.0493
  44   2.0000      -0.549845       -14.9620
  45   2.0000      -0.542877       -14.7724
  46   2.0000      -0.526596       -14.3294
  47   2.0000      -0.515382       -14.0243
  48   2.0000      -0.511673       -13.9233
  49   2.0000      -0.499776       -13.5996
  50   2.0000      -0.493013       -13.4156
  51   2.0000      -0.474737       -12.9182
  52   2.0000      -0.473475       -12.8839
  53   2.0000      -0.471035       -12.8175
  54   2.0000      -0.464110       -12.6291
  55   2.0000      -0.449167       -12.2225
  56   2.0000      -0.443921       -12.0797
  57   2.0000      -0.437616       -11.9081
  58   2.0000      -0.435072       -11.8389
  59   2.0000      -0.426095       -11.5946
  60   2.0000      -0.422446       -11.4953
  61   2.0000      -0.418221       -11.3804
  62   2.0000      -0.405500       -11.0342
  63   2.0000      -0.361149        -9.8274
  64   2.0000      -0.331641        -9.0244
  65   2.0000      -0.324864        -8.8400
  66   2.0000      -0.287999        -7.8368
  67   0.0000       0.017637         0.4799
  68   0.0000       0.087268         2.3747
  69   0.0000       0.106916         2.9093
  70   0.0000       0.120505         3.2791
  71   0.0000       0.130960         3.5636

MULLIKEN ATOMIC CHARGES
-----------------------
   0 S :    0.086624
   1 C :   -0.103392
   2 C :   -0.092419
   3 C :    0.031069
   4 C :   -0.071441
   5 H :   -0.078665
   6 C :    0.090982
   7 H :    0.028750
   8 H :    0.016909
   9 C :   -0.069226
  10 H :    0.022846
  11 H :    0.021164
  12 C :   -0.025407
  13 H :    0.011843
  14 H :    0.023100
  15 H :    0.030312
  16 S :    0.107538
  17 C :   -0.081195
  18 C :   -0.040714
  19 C :   -0.013333
  20 C :   -0.134745
  21 H :    0.005784
  22 C :    0.037702
  23 H :    0.044566
  24 H :    0.037545
  25 C :   -0.041379
  26 H :    0.036018
  27 H :    0.023359
  28 C :   -0.082789
  29 H :    0.037215
  30 H :    0.031087
  31 H :    0.025474
  32 H :    0.028825
  33 H :    0.055990
Sum of atomic charges:    0.0000000

LOEWDIN ATOMIC CHARGES
----------------------
   0 S :    0.402367
   1 C :   -0.181036
   2 C :   -0.068921
   3 C :   -0.067938
   4 C :   -0.194327
   5 H :    0.006092
   6 C :   -0.024831
   7 H :    0.030623
   8 H :    0.029459
   9 C :   -0.030828
  10 H :    0.018418
  11 H :    0.019391
  12 C :   -0.057055
  13 H :    0.019046
  14 H :    0.024575
  15 H :    0.019061
  16 S :    0.418885
  17 C :   -0.186305
  18 C :   -0.062766
  19 C :   -0.057924
  20 C :   -0.192586
  21 H :    0.022874
  22 C :   -0.024514
  23 H :    0.036779
  24 H :    0.033170
  25 C :   -0.032081
  26 H :    0.028749
  27 H :    0.020549
  28 C :   -0.072704
  29 H :    0.019953
  30 H :    0.017687
  31 H :    0.031091
  32 H :    0.025161
  33 H :    0.029887

  Mayer bond orders larger than 0.100000
B(  0-S ,  1-C ) :   1.1314 B(  0-S ,  4-C ) :   1.1415 B(  1-C ,  2-C ) :   1.5835
B(  1-C , 32-H ) :   0.9754 B(  2-C ,  3-C ) :   1.2837 B(  2-C ,  6-C ) :   1.0353
B(  3-C ,  4-C ) :   1.5189 B(  3-C ,  5-H ) :   1.0041 B(  4-C , 20-C ) :   1.0827
B(  6-C ,  7-H ) :   0.9273 B(  6-C ,  8-H ) :   0.9446 B(  6-C ,  9-C ) :   1.0763
B(  9-C , 10-H ) :   0.9577 B(  9-C , 11-H ) :   0.9549 B(  9-C , 12-C ) :   1.0781
B( 12-C , 13-H ) :   0.9752 B( 12-C , 14-H ) :   0.9724 B( 12-C , 15-H ) :   0.9758
B( 16-S , 17-C ) :   1.1463 B( 16-S , 20-C ) :   1.1621 B( 17-C , 18-C ) :   1.5942
B( 17-C , 20-C ) :   0.1075 B( 17-C , 33-H ) :   0.9750 B( 18-C , 19-C ) :   1.2456
B( 18-C , 21-H ) :   0.9920 B( 19-C , 20-C ) :   1.5414 B( 19-C , 22-C ) :   1.0297
B( 22-C , 23-H ) :   0.9450 B( 22-C , 24-H ) :   0.9451 B( 22-C , 25-C ) :   1.0570
B( 25-C , 26-H ) :   0.9605 B( 25-C , 27-H ) :   0.9588 B( 25-C , 28-C ) :   1.0752
B( 28-C , 29-H ) :   0.9696 B( 28-C , 30-H ) :   0.9760 B( 28-C , 31-H ) :   0.9693

Dispersion correction           -0.015186276
FINAL SINGLE POINT ENERGY     -1339.868791726626

DIPOLE MOMENT
-------------
                                X             Y             Z
Electronic contribution:    -16.28237     -20.78954      11.42897
Nuclear contribution   :     16.56238      21.55635     -11.50523
                        -----------------------------------------
Total Dipole Moment    :      0.28000       0.76681      -0.07626
                        -----------------------------------------
Magnitude (a.u.)       :      0.81989
Magnitude (Debye)      :      2.08399

Rotational constants in cm-1:     0.018458     0.010070     0.007342
Rotational constants in MHz :   553.371102   301.899651   220.112410

                             ****ORCA TERMINATED NORMALLY****
TOTAL RUN TIME: 0 days 0 hours 0 minutes 36 seconds 652 msec
