                         Program Version 4.2.1 -  RELEASE  -
|  1> ! wB97X-D3 SP def2-SVP
|  2> %pal
|  3> nprocs 16
|  4> end
|  5>
|  6> * xyz 0 1
|  7> S 	 48.221 	 10.5206 	 52.0618
|  8> C 	 46.834 	 9.62729 	 51.5939
|  9> C 	 46.0507 	 10.3603 	 50.736
| 10> C 	 46.4748 	 11.7166 	 50.5411
| 11> C 	 47.6158 	 12.0049 	 51.2304
| 12> H 	 45.9274 	 12.4216 	 49.8674
| 13> C 	 44.7931 	 9.95512 	 50.0026
| 14> H 	 44.4613 	 9.04844 	 50.4765
| 15> H 	 44.9324 	 9.54145 	 49.0331
| 16> C 	 43.6168 	 10.9555 	 50.1101
| 17> H 	 43.6831 	 11.8018 	 49.3448
| 18> H 	 42.7498 	 10.4096 	 49.7517
| 19> C 	 43.4321 	 11.4984 	 51.5679
| 20> H 	 44.3074 	 12.0385 	 51.9839
| 21> H 	 42.561 	 12.1474 	 51.647
| 22> H 	 43.3166 	 10.5891 	 52.1687
| 23> S 	 50.2016 	 13.0268 	 50.8897
| 24> C 	 50.44 	 14.785 	 50.9028
| 25> C 	 49.2727 	 15.4146 	 51.0375
| 26> C 	 48.1435 	 14.5361 	 51.2727
| 27> C 	 48.4683 	 13.2098 	 51.0914
| 28> H 	 49.2899 	 16.5052 	 51.0153
| 29> C 	 46.786 	 15.1047 	 51.6244
| 30> H 	 46.0629 	 14.2603 	 51.5549
| 31> H 	 46.5971 	 15.8772 	 50.8783
| 32> C 	 46.7815 	 15.706 	 53.0121
| 33> H 	 45.9158 	 16.3565 	 53.1531
| 34> H 	 47.5931 	 16.4495 	 53.0963
| 35> C 	 47.014 	 14.7469 	 54.1692
| 36> H 	 46.1313 	 14.0801 	 54.2746
| 37> H 	 46.9737 	 15.3682 	 55.1262
| 38> H 	 48.013 	 14.3268 	 54.0241
| 39> H 	 46.5988 	 8.61802 	 51.9065
| 40> H 	 51.3997 	 15.2018 	 50.5592
| 41> *
| 42>
| 43>                          ****END OF INPUT****

CARTESIAN COORDINATES (ANGSTROEM)
---------------------------------
  S     48.221000   10.520600   52.061800
  C     46.834000    9.627290   51.593900
  C     46.050700   10.360300   50.736000
  C     46.474800   11.716600   50.541100
  C     47.615800   12.004900   51.230400
  H     45.927400   12.421600   49.867400
  C     44.793100    9.955120   50.002600
  H     44.461300    9.048440   50.476500
  H     44.932400    9.541450   49.033100
  C     43.616800   10.955500   50.110100
  H     43.683100   11.801800   49.344800
  H     42.749800   10.409600   49.751700
  C     43.432100   11.498400   51.567900
  H     44.307400   12.038500   51.983900
  H     42.561000   12.147400   51.647000
  H     43.316600   10.589100   52.168700
  S     50.201600   13.026800   50.889700
  C     50.440000   14.785000   50.902800
  C     49.272700   15.414600   51.037500
  C     48.143500   14.536100   51.272700
  C     48.468300   13.209800   51.091400
  H     49.289900   16.505200   51.015300
  C     46.786000   15.104700   51.624400
  H     46.062900   14.260300   51.554900
  H     46.597100   15.877200   50.878300
  C     46.781500   15.706000   53.012100
  H     45.915800   16.356500   53.153100
  H     47.593100   16.449500   53.096300
  C     47.014000   14.746900   54.169200
  H     46.131300   14.080100   54.274600
  H     46.973700   15.368200   55.126200
  H     48.013000   14.326800   54.024100
  H     46.598800    8.618020   51.906500
  H     51.399700   15.201800   50.559200

 Total Charge           Charge          ....    0
 Multiplicity           Mult            ....    1
 Number of Electrons    NEL             ....  134
 Basis Dimension        Dim             ....  322

ORBITAL ENERGIES
----------------

  NO   OCC          E(Eh)            E(eV)
   0   2.0000     -88.965784     -2420.8821
   1   2.0000     -88.959589     -2420.7135
   2   2.0000     -10.334221      -281.2084
   3   2.0000     -10.328389      -281.0498
   4   2.0000     -10.316177      -280.7174
   5   2.0000     -10.313661      -280.6490
   6   2.0000     -10.301903      -280.3290
   7   2.0000     -10.298072      -280.2248
   8   2.0000     -10.296663      -280.1864
   9   2.0000     -10.296165      -280.1729
  10   2.0000     -10.293146      -280.0907
  11   2.0000     -10.291540      -280.0470
  12   2.0000     -10.287343      -279.9328
  13   2.0000     -10.281806      -279.7822
  14   2.0000     -10.281327      -279.7691
  15   2.0000     -10.279118      -279.7090
  16   2.0000      -8.080321      -219.8767
  17   2.0000      -8.074453      -219.7170
  18   2.0000      -6.039025      -164.3302
  19   2.0000      -6.034881      -164.2175
  20   2.0000      -6.033138      -164.1700
  21   2.0000      -6.030847      -164.1077
  22   2.0000      -6.029030      -164.0583
  23   2.0000      -6.024918      -163.9464
  24   2.0000      -1.005804       -27.3693
  25   2.0000      -0.986290       -26.8383
  26   2.0000      -0.911213       -24.7954
  27   2.0000      -0.909193       -24.7404
  28   2.0000      -0.871777       -23.7223
  29   2.0000      -0.845194       -22.9989
  30   2.0000      -0.838229       -22.8094
  31   2.0000      -0.819573       -22.3017
  32   2.0000      -0.782213       -21.2851
  33   2.0000      -0.772381       -21.0176
  34   2.0000      -0.706395       -19.2220
  35   2.0000      -0.695524       -18.9262
  36   2.0000      -0.689361       -18.7585
  37   2.0000      -0.654559       -17.8115
  38   2.0000      -0.637633       -17.3509
  39   2.0000      -0.627863       -17.0850
  40   2.0000      -0.595400       -16.2017
  41   2.0000      -0.565349       -15.3839
  42   2.0000      -0.559160       -15.2155
  43   2.0000      -0.555742       -15.1225
  44   2.0000      -0.540677       -14.7126
  45   2.0000      -0.529297       -14.4029
  46   2.0000      -0.517428       -14.0799
  47   2.0000      -0.505428       -13.7534
  48   2.0000      -0.501140       -13.6367
  49   2.0000      -0.499468       -13.5912
  50   2.0000      -0.489673       -13.3247
  51   2.0000      -0.477259       -12.9869
  52   2.0000      -0.471694       -12.8355
  53   2.0000      -0.462458       -12.5841
  54   2.0000      -0.452535       -12.3141
  55   2.0000      -0.446367       -12.1463
  56   2.0000      -0.440501       -11.9866
  57   2.0000      -0.438586       -11.9345
  58   2.0000      -0.434854       -11.8330
  59   2.0000      -0.423449       -11.5226
  60   2.0000      -0.416162       -11.3244
  61   2.0000      -0.410713       -11.1761
  62   2.0000      -0.405410       -11.0318
  63   2.0000      -0.359628        -9.7860
  64   2.0000      -0.330216        -8.9856
  65   2.0000      -0.326021        -8.8715
  66   2.0000      -0.292816        -7.9679
  67   0.0000       0.033297         0.9061
  68   0.0000       0.072651         1.9769
  69   0.0000       0.109133         2.9696
  70   0.0000       0.119576         3.2538
  71   0.0000       0.134431         3.6581

MULLIKEN ATOMIC CHARGES
-----------------------
   0 S :    0.103255
   1 C :   -0.104874
   2 C :   -0.126270
   3 C :    0.009761
   4 C :   -0.132867
   5 H :    0.042569
   6 C :    0.113258
   7 H :   -0.007933
   8 H :    0.032423
   9 C :   -0.120012
  10 H :    0.034377
  11 H :    0.029945
  12 C :   -0.053154
  13 H :    0.059720
  14 H :    0.041040
  15 H :    0.029538
  16 S :    0.075671
  17 C :   -0.104899
  18 C :   -0.017157
  19 C :   -0.105350
  20 C :   -0.130342
  21 H :    0.026181
  22 C :    0.120288
  23 H :    0.021397
  24 H :    0.030598
  25 C :   -0.100588
  26 H :    0.022153
  27 H :    0.016358
  28 C :   -0.057274
  29 H :    0.040387
  30 H :    0.035924
  31 H :    0.060230
  32 H :    0.044980
  33 H :    0.070669
Sum of atomic charges:    0.0000000

LOEWDIN ATOMIC CHARGES
----------------------
   0 S :    0.394395
   1 C :   -0.204578
   2 C :   -0.068239
   3 C :   -0.060858
   4 C :   -0.172911
   5 H :    0.043271
   6 C :   -0.036904
   7 H :    0.025798
   8 H :    0.031521
   9 C :   -0.045177
  10 H :    0.021859
  11 H :    0.025601
  12 C :   -0.067171
  13 H :    0.031207
  14 H :    0.025961
  15 H :    0.028382
  16 S :    0.375100
  17 C :   -0.174952
  18 C :   -0.072669
  19 C :   -0.061775
  20 C :   -0.192852
  21 H :    0.035188
  22 C :   -0.030868
  23 H :    0.031017
  24 H :    0.034631
  25 C :   -0.051505
  26 H :    0.020865
  27 H :    0.022001
  28 C :   -0.066746
  29 H :    0.027358
  30 H :    0.033934
  31 H :    0.032356
  32 H :    0.031266
  33 H :    0.035495

  Mayer bond orders larger than 0.100000
B(  0-S ,  1-C ) :   1.1302 B(  0-S ,  4-C ) :   1.1345 B(  1-C ,  2-C ) :   1.6310
B(  1-C , 32-H ) :   0.9653 B(  2-C ,  3-C ) :   1.2359 B(  2-C ,  6-C ) :   1.0247
B(  3-C ,  4-C ) :   1.5837 B(  3-C ,  5-H ) :   0.9834 B(  4-C , 20-C ) :   1.0298
B(  6-C ,  7-H ) :   0.9274 B(  6-C ,  8-H ) :   0.9321 B(  6-C ,  9-C ) :   1.0664
B(  9-C , 10-H ) :   0.9523 B(  9-C , 11-H ) :   0.9560 B(  9-C , 12-C ) :   1.0679
B( 12-C , 13-H ) :   0.9672 B( 12-C , 14-H ) :   0.9748 B( 12-C , 15-H ) :   0.9735
B( 16-S , 17-C ) :   1.1277 B( 16-S , 20-C ) :   1.1250 B( 17-C , 18-C ) :   1.6620
B( 17-C , 33-H ) :   0.9610 B( 18-C , 19-C ) :   1.1930 B( 18-C , 21-H ) :   0.9862
B( 19-C , 20-C ) :   1.6312 B( 19-C , 22-C ) :   1.0372 B( 22-C , 23-H ) :   0.9302
B( 22-C , 24-H ) :   0.9279 B( 22-C , 25-C ) :   1.0763 B( 25-C , 26-H ) :   0.9537
B( 25-C , 27-H ) :   0.9534 B( 25-C , 28-C ) :   1.0747 B( 28-C , 29-H ) :   0.9749
B( 28-C , 30-H ) :   0.9711 B( 28-C , 31-H ) :   0.9726

Dispersion correction           -0.015715549
FINAL SINGLE POINT ENERGY     -1339.887543602575

DIPOLE MOMENT
-------------
                                X             Y             Z
Electronic contribution:     24.17668      -7.91093      -4.50158
Nuclear contribution   :    -24.78017       8.18205       4.29822
                        -----------------------------------------
Total Dipole Moment    :     -0.60348       0.27112      -0.20335
                        -----------------------------------------
Magnitude (a.u.)       :      0.69213
Magnitude (Debye)      :      1.75926

Rotational constants in cm-1:     0.019495     0.009840     0.007859
Rotational constants in MHz :   584.435274   295.003790   235.616973

                             ****ORCA TERMINATED NORMALLY****
TOTAL RUN TIME: 0 days 0 hours 0 minutes 37 seconds 332 msec
