                         Program Version 4.2.1 -  RELEASE  -
|  1> ! wB97X-D3 SP def2-SVP
|  2> %pal
|  3> nprocs 16
|  4> end
|  5>
|  6> * xyz 0 1
|  7> S 	 19.6724 	 1.75195 	 85.7672
|  8> C 	 20.9142 	 1.44359 	 84.6669
|  9> C 	 20.8775 	 2.33627 	 83.6072
| 10> C 	 19.6663 	 3.12931 	 83.5184
| 11> C 	 18.9076 	 2.92709 	 84.6688
| 12> H 	 19.3353 	 3.81268 	 82.7782
| 13> C 	 21.957 	 2.63995 	 82.6147
| 14> H 	 21.4733 	 2.68846 	 81.6467
| 15> H 	 22.6831 	 1.79213 	 82.5752
| 16> C 	 22.7439 	 3.86864 	 82.9988
| 17> H 	 22.0726 	 4.75151 	 83.0348
| 18> H 	 23.0684 	 3.82528 	 83.9957
| 19> C 	 23.93 	 4.2295 	 81.9908
| 20> H 	 24.5274 	 3.31539 	 81.7246
| 21> H 	 23.6041 	 4.57383 	 80.9358
| 22> H 	 24.5671 	 5.01623 	 82.3943
| 23> S 	 16.5205 	 2.28042 	 85.6718
| 24> C 	 15.1329 	 3.33726 	 85.5084
| 25> C 	 15.4788 	 4.44548 	 84.7384
| 26> C 	 16.8889 	 4.50874 	 84.3988
| 27> C 	 17.5626 	 3.3977 	 84.8984
| 28> H 	 14.715 	 5.18408 	 84.7022
| 29> C 	 17.4338 	 5.76553 	 83.7561
| 30> H 	 17.0003 	 5.78988 	 82.8208
| 31> H 	 18.481 	 5.55832 	 83.57
| 32> C 	 17.0637 	 7.11175 	 84.3958
| 33> H 	 17.5742 	 7.24941 	 85.3577
| 34> H 	 15.9763 	 7.21521 	 84.4203
| 35> C 	 17.6264 	 8.22956 	 83.5146
| 36> H 	 17.28 	 8.0763 	 82.5677
| 37> H 	 18.6629 	 8.19899 	 83.5458
| 38> H 	 17.2238 	 9.16753 	 83.7791
| 39> H 	 21.9076 	 1.05634 	 84.8966
| 40> H 	 14.2181 	 3.144 	 85.9798
| 41> *
| 42>
| 43>                          ****END OF INPUT****

CARTESIAN COORDINATES (ANGSTROEM)
---------------------------------
  S     19.672400    1.751950   85.767200
  C     20.914200    1.443590   84.666900
  C     20.877500    2.336270   83.607200
  C     19.666300    3.129310   83.518400
  C     18.907600    2.927090   84.668800
  H     19.335300    3.812680   82.778200
  C     21.957000    2.639950   82.614700
  H     21.473300    2.688460   81.646700
  H     22.683100    1.792130   82.575200
  C     22.743900    3.868640   82.998800
  H     22.072600    4.751510   83.034800
  H     23.068400    3.825280   83.995700
  C     23.930000    4.229500   81.990800
  H     24.527400    3.315390   81.724600
  H     23.604100    4.573830   80.935800
  H     24.567100    5.016230   82.394300
  S     16.520500    2.280420   85.671800
  C     15.132900    3.337260   85.508400
  C     15.478800    4.445480   84.738400
  C     16.888900    4.508740   84.398800
  C     17.562600    3.397700   84.898400
  H     14.715000    5.184080   84.702200
  C     17.433800    5.765530   83.756100
  H     17.000300    5.789880   82.820800
  H     18.481000    5.558320   83.570000
  C     17.063700    7.111750   84.395800
  H     17.574200    7.249410   85.357700
  H     15.976300    7.215210   84.420300
  C     17.626400    8.229560   83.514600
  H     17.280000    8.076300   82.567700
  H     18.662900    8.198990   83.545800
  H     17.223800    9.167530   83.779100
  H     21.907600    1.056340   84.896600
  H     14.218100    3.144000   85.979800

 Total Charge           Charge          ....    0
 Multiplicity           Mult            ....    1
 Number of Electrons    NEL             ....  134
 Basis Dimension        Dim             ....  322

ORBITAL ENERGIES
----------------

  NO   OCC          E(Eh)            E(eV)
   0   2.0000     -88.967703     -2420.9343
   1   2.0000     -88.961681     -2420.7704
   2   2.0000     -10.332323      -281.1568
   3   2.0000     -10.323321      -280.9119
   4   2.0000     -10.312972      -280.6302
   5   2.0000     -10.308461      -280.5075
   6   2.0000     -10.304908      -280.4108
   7   2.0000     -10.301570      -280.3200
   8   2.0000     -10.294935      -280.1394
   9   2.0000     -10.293611      -280.1034
  10   2.0000     -10.293067      -280.0886
  11   2.0000     -10.290836      -280.0279
  12   2.0000     -10.289506      -279.9917
  13   2.0000     -10.289000      -279.9779
  14   2.0000     -10.286107      -279.8992
  15   2.0000     -10.262004      -279.2433
  16   2.0000      -8.082894      -219.9467
  17   2.0000      -8.077303      -219.7946
  18   2.0000      -6.041456      -164.3964
  19   2.0000      -6.037337      -164.2843
  20   2.0000      -6.035806      -164.2426
  21   2.0000      -6.033558      -164.1814
  22   2.0000      -6.031550      -164.1268
  23   2.0000      -6.028138      -164.0340
  24   2.0000      -1.011044       -27.5119
  25   2.0000      -0.985978       -26.8298
  26   2.0000      -0.918361       -24.9899
  27   2.0000      -0.911882       -24.8136
  28   2.0000      -0.873839       -23.7784
  29   2.0000      -0.857792       -23.3417
  30   2.0000      -0.844878       -22.9903
  31   2.0000      -0.814959       -22.1762
  32   2.0000      -0.782979       -21.3059
  33   2.0000      -0.769922       -20.9506
  34   2.0000      -0.711707       -19.3665
  35   2.0000      -0.704287       -19.1646
  36   2.0000      -0.700605       -19.0644
  37   2.0000      -0.666810       -18.1448
  38   2.0000      -0.640717       -17.4348
  39   2.0000      -0.620855       -16.8943
  40   2.0000      -0.597016       -16.2456
  41   2.0000      -0.582764       -15.8578
  42   2.0000      -0.568523       -15.4703
  43   2.0000      -0.552996       -15.0478
  44   2.0000      -0.535202       -14.5636
  45   2.0000      -0.528006       -14.3678
  46   2.0000      -0.522692       -14.2232
  47   2.0000      -0.515395       -14.0246
  48   2.0000      -0.505058       -13.7433
  49   2.0000      -0.502823       -13.6825
  50   2.0000      -0.486584       -13.2406
  51   2.0000      -0.485398       -13.2084
  52   2.0000      -0.473433       -12.8828
  53   2.0000      -0.463407       -12.6099
  54   2.0000      -0.459203       -12.4955
  55   2.0000      -0.449216       -12.2238
  56   2.0000      -0.446010       -12.1365
  57   2.0000      -0.442231       -12.0337
  58   2.0000      -0.435519       -11.8511
  59   2.0000      -0.433266       -11.7898
  60   2.0000      -0.421925       -11.4812
  61   2.0000      -0.415907       -11.3174
  62   2.0000      -0.412832       -11.2337
  63   2.0000      -0.362243        -9.8571
  64   2.0000      -0.329715        -8.9720
  65   2.0000      -0.324723        -8.8362
  66   2.0000      -0.284707        -7.7473
  67   0.0000       0.023253         0.6327
  68   0.0000       0.083220         2.2645
  69   0.0000       0.107382         2.9220
  70   0.0000       0.110830         3.0158
  71   0.0000       0.137081         3.7302

MULLIKEN ATOMIC CHARGES
-----------------------
   0 S :    0.110901
   1 C :   -0.073323
   2 C :   -0.145095
   3 C :    0.021752
   4 C :   -0.144840
   5 H :    0.010916
   6 C :    0.061392
   7 H :    0.029957
   8 H :    0.018939
   9 C :   -0.047278
  10 H :    0.022329
  11 H :    0.017726
  12 C :   -0.084538
  13 H :    0.036198
  14 H :    0.038875
  15 H :    0.045781
  16 S :    0.096797
  17 C :   -0.091054
  18 C :   -0.030279
  19 C :   -0.062317
  20 C :   -0.112193
  21 H :    0.012060
  22 C :    0.104429
  23 H :    0.002066
  24 H :    0.005302
  25 C :   -0.083362
  26 H :    0.041458
  27 H :    0.033840
  28 C :    0.037521
  29 H :   -0.008422
  30 H :    0.020066
  31 H :    0.017689
  32 H :    0.055124
  33 H :    0.041580
Sum of atomic charges:    0.0000000

LOEWDIN ATOMIC CHARGES
----------------------
   0 S :    0.415122
   1 C :   -0.233396
   2 C :   -0.054585
   3 C :   -0.058704
   4 C :   -0.173885
   5 H :    0.027007
   6 C :   -0.036473
   7 H :    0.031218
   8 H :    0.029414
   9 C :   -0.037057
  10 H :    0.025192
  11 H :    0.019325
  12 C :   -0.077654
  13 H :    0.026652
  14 H :    0.032261
  15 H :    0.026143
  16 S :    0.417240
  17 C :   -0.175896
  18 C :   -0.065064
  19 C :   -0.056690
  20 C :   -0.210425
  21 H :    0.024877
  22 C :   -0.031488
  23 H :    0.023981
  24 H :    0.025839
  25 C :   -0.026344
  26 H :    0.028723
  27 H :    0.024846
  28 C :   -0.044065
  29 H :    0.010423
  30 H :    0.018575
  31 H :    0.022354
  32 H :    0.034809
  33 H :    0.017726

  Mayer bond orders larger than 0.100000
B(  0-S ,  1-C ) :   1.1289 B(  0-S ,  4-C ) :   1.1540 B(  1-C ,  2-C ) :   1.6349
B(  1-C , 32-H ) :   0.9517 B(  2-C ,  3-C ) :   1.2181 B(  2-C ,  6-C ) :   1.0427
B(  3-C ,  4-C ) :   1.5673 B(  3-C ,  5-H ) :   0.9880 B(  4-C , 20-C ) :   1.0532
B(  6-C ,  7-H ) :   0.9367 B(  6-C ,  8-H ) :   0.9382 B(  6-C ,  9-C ) :   1.0629
B(  9-C , 10-H ) :   0.9529 B(  9-C , 11-H ) :   0.9546 B(  9-C , 12-C ) :   1.0644
B( 12-C , 13-H ) :   0.9764 B( 12-C , 14-H ) :   0.9768 B( 12-C , 15-H ) :   0.9774
B( 16-S , 17-C ) :   1.1507 B( 16-S , 20-C ) :   1.1511 B( 17-C , 18-C ) :   1.6125
B( 17-C , 33-H ) :   0.9777 B( 18-C , 19-C ) :   1.2204 B( 18-C , 21-H ) :   0.9917
B( 19-C , 20-C ) :   1.5875 B( 19-C , 22-C ) :   1.0431 B( 22-C , 23-H ) :   0.9134
B( 22-C , 24-H ) :   0.9292 B( 22-C , 25-C ) :   1.0759 B( 25-C , 26-H ) :   0.9578
B( 25-C , 27-H ) :   0.9489 B( 25-C , 28-C ) :   1.0901 B( 28-C , 29-H ) :   0.9689
B( 28-C , 30-H ) :   0.9756 B( 28-C , 31-H ) :   0.9697

Dispersion correction           -0.013513062
FINAL SINGLE POINT ENERGY     -1339.861326482073

DIPOLE MOMENT
-------------
                                X             Y             Z
Electronic contribution:    -14.44281     -22.89092      16.38282
Nuclear contribution   :     14.56537      23.58683     -16.73872
                        -----------------------------------------
Total Dipole Moment    :      0.12255       0.69592      -0.35591
                        -----------------------------------------
Magnitude (a.u.)       :      0.79119
Magnitude (Debye)      :      2.01106

Rotational constants in cm-1:     0.016714     0.009129     0.006210
Rotational constants in MHz :   501.063368   273.692647   186.162607

                             ****ORCA TERMINATED NORMALLY****
TOTAL RUN TIME: 0 days 0 hours 0 minutes 32 seconds 576 msec
