                         Program Version 4.2.1 -  RELEASE  -
|  1> ! wB97X-D3 SP def2-SVP
|  2> %pal
|  3> nprocs 16
|  4> end
|  5>
|  6> * xyz 0 1
|  7> S 	 -89.2802 	 48.2157 	 129.525
|  8> C 	 -89.9599 	 47.8913 	 127.878
|  9> C 	 -88.8669 	 47.5798 	 127.016
| 10> C 	 -87.5965 	 47.7628 	 127.592
| 11> C 	 -87.6484 	 48.0186 	 128.922
| 12> H 	 -86.6141 	 47.7035 	 127.099
| 13> C 	 -89.0008 	 47.2737 	 125.492
| 14> H 	 -87.9347 	 47.457 	 125.187
| 15> H 	 -89.6301 	 48.031 	 125.129
| 16> C 	 -89.367 	 45.8943 	 124.957
| 17> H 	 -89.2577 	 45.9706 	 123.861
| 18> H 	 -88.7378 	 45.1331 	 125.357
| 19> C 	 -90.8463 	 45.6509 	 125.272
| 20> H 	 -91.4602 	 46.4402 	 124.874
| 21> H 	 -91.2173 	 44.6836 	 125.058
| 22> H 	 -90.9252 	 45.7525 	 126.406
| 23> S 	 -86.7879 	 47.6304 	 131.546
| 24> C 	 -85.1391 	 47.9832 	 131.927
| 25> C 	 -84.4874 	 48.6091 	 130.886
| 26> C 	 -85.2147 	 48.6439 	 129.698
| 27> C 	 -86.5214 	 48.1297 	 129.852
| 28> H 	 -83.4948 	 49.0272 	 130.998
| 29> C 	 -84.6393 	 49.2695 	 128.428
| 30> H 	 -84.0436 	 50.2323 	 128.718
| 31> H 	 -85.3052 	 49.412 	 127.581
| 32> C 	 -83.5788 	 48.4048 	 127.765
| 33> H 	 -84.0266 	 47.4613 	 127.429
| 34> H 	 -82.8555 	 48.1354 	 128.518
| 35> C 	 -83.025 	 48.9836 	 126.405
| 36> H 	 -82.2899 	 48.242 	 125.966
| 37> H 	 -82.3927 	 49.8571 	 126.48
| 38> H 	 -83.8636 	 49.2594 	 125.74
| 39> H 	 -91.0242 	 47.6938 	 127.612
| 40> H 	 -84.6907 	 47.9555 	 132.929
| 41> *
| 42>
| 43>                          ****END OF INPUT****

CARTESIAN COORDINATES (ANGSTROEM)
---------------------------------
  S    -89.280200   48.215700  129.525000
  C    -89.959900   47.891300  127.878000
  C    -88.866900   47.579800  127.016000
  C    -87.596500   47.762800  127.592000
  C    -87.648400   48.018600  128.922000
  H    -86.614100   47.703500  127.099000
  C    -89.000800   47.273700  125.492000
  H    -87.934700   47.457000  125.187000
  H    -89.630100   48.031000  125.129000
  C    -89.367000   45.894300  124.957000
  H    -89.257700   45.970600  123.861000
  H    -88.737800   45.133100  125.357000
  C    -90.846300   45.650900  125.272000
  H    -91.460200   46.440200  124.874000
  H    -91.217300   44.683600  125.058000
  H    -90.925200   45.752500  126.406000
  S    -86.787900   47.630400  131.546000
  C    -85.139100   47.983200  131.927000
  C    -84.487400   48.609100  130.886000
  C    -85.214700   48.643900  129.698000
  C    -86.521400   48.129700  129.852000
  H    -83.494800   49.027200  130.998000
  C    -84.639300   49.269500  128.428000
  H    -84.043600   50.232300  128.718000
  H    -85.305200   49.412000  127.581000
  C    -83.578800   48.404800  127.765000
  H    -84.026600   47.461300  127.429000
  H    -82.855500   48.135400  128.518000
  C    -83.025000   48.983600  126.405000
  H    -82.289900   48.242000  125.966000
  H    -82.392700   49.857100  126.480000
  H    -83.863600   49.259400  125.740000
  H    -91.024200   47.693800  127.612000
  H    -84.690700   47.955500  132.929000

 Total Charge           Charge          ....    0
 Multiplicity           Mult            ....    1
 Number of Electrons    NEL             ....  134
 Basis Dimension        Dim             ....  322

ORBITAL ENERGIES
----------------

  NO   OCC          E(Eh)            E(eV)
   0   2.0000     -88.971073     -2421.0260
   1   2.0000     -88.969321     -2420.9783
   2   2.0000     -10.334049      -281.2038
   3   2.0000     -10.331075      -281.1228
   4   2.0000     -10.323911      -280.9279
   5   2.0000     -10.319218      -280.8002
   6   2.0000     -10.307935      -280.4932
   7   2.0000     -10.307708      -280.4870
   8   2.0000     -10.301579      -280.3202
   9   2.0000     -10.293279      -280.0944
  10   2.0000     -10.292316      -280.0682
  11   2.0000     -10.291629      -280.0495
  12   2.0000     -10.289689      -279.9967
  13   2.0000     -10.288826      -279.9732
  14   2.0000     -10.287076      -279.9256
  15   2.0000     -10.276130      -279.6277
  16   2.0000      -8.085412      -220.0152
  17   2.0000      -8.082885      -219.9465
  18   2.0000      -6.043904      -164.4630
  19   2.0000      -6.041577      -164.3997
  20   2.0000      -6.040007      -164.3569
  21   2.0000      -6.037570      -164.2906
  22   2.0000      -6.036189      -164.2531
  23   2.0000      -6.033513      -164.1802
  24   2.0000      -1.007119       -27.4051
  25   2.0000      -0.983053       -26.7502
  26   2.0000      -0.913461       -24.8565
  27   2.0000      -0.911619       -24.8064
  28   2.0000      -0.866225       -23.5712
  29   2.0000      -0.854137       -23.2423
  30   2.0000      -0.846167       -23.0254
  31   2.0000      -0.810315       -22.0498
  32   2.0000      -0.783097       -21.3091
  33   2.0000      -0.772688       -21.0259
  34   2.0000      -0.706845       -19.2342
  35   2.0000      -0.699372       -19.0309
  36   2.0000      -0.693135       -18.8612
  37   2.0000      -0.661665       -18.0048
  38   2.0000      -0.637846       -17.3567
  39   2.0000      -0.622932       -16.9508
  40   2.0000      -0.603919       -16.4335
  41   2.0000      -0.570446       -15.5226
  42   2.0000      -0.566268       -15.4089
  43   2.0000      -0.545999       -14.8574
  44   2.0000      -0.538912       -14.6645
  45   2.0000      -0.525851       -14.3091
  46   2.0000      -0.517461       -14.0808
  47   2.0000      -0.515919       -14.0389
  48   2.0000      -0.500942       -13.6313
  49   2.0000      -0.496652       -13.5146
  50   2.0000      -0.486640       -13.2422
  51   2.0000      -0.484055       -13.1718
  52   2.0000      -0.473920       -12.8960
  53   2.0000      -0.466195       -12.6858
  54   2.0000      -0.458325       -12.4716
  55   2.0000      -0.452364       -12.3094
  56   2.0000      -0.446835       -12.1590
  57   2.0000      -0.441362       -12.0101
  58   2.0000      -0.433703       -11.8017
  59   2.0000      -0.428569       -11.6620
  60   2.0000      -0.425143       -11.5687
  61   2.0000      -0.413572       -11.2539
  62   2.0000      -0.403949       -10.9920
  63   2.0000      -0.353566        -9.6210
  64   2.0000      -0.338223        -9.2035
  65   2.0000      -0.333690        -9.0802
  66   2.0000      -0.283184        -7.7058
  67   0.0000       0.018091         0.4923
  68   0.0000       0.069294         1.8856
  69   0.0000       0.097560         2.6547
  70   0.0000       0.117808         3.2057
  71   0.0000       0.126079         3.4308

MULLIKEN ATOMIC CHARGES
-----------------------
   0 S :    0.096540
   1 C :   -0.134417
   2 C :   -0.105750
   3 C :   -0.009814
   4 C :   -0.101999
   5 H :    0.015654
   6 C :    0.031136
   7 H :    0.021158
   8 H :    0.026983
   9 C :   -0.015826
  10 H :    0.037125
  11 H :    0.029602
  12 C :   -0.058847
  13 H :    0.023991
  14 H :    0.030197
  15 H :    0.027067
  16 S :    0.110609
  17 C :   -0.086565
  18 C :   -0.044541
  19 C :    0.001568
  20 C :   -0.155420
  21 H :    0.018468
  22 C :    0.030040
  23 H :    0.047535
  24 H :    0.017812
  25 C :   -0.093924
  26 H :    0.028864
  27 H :    0.022652
  28 C :   -0.062811
  29 H :    0.047657
  30 H :    0.026734
  31 H :    0.039908
  32 H :    0.072841
  33 H :    0.065773
Sum of atomic charges:    0.0000000

LOEWDIN ATOMIC CHARGES
----------------------
   0 S :    0.383007
   1 C :   -0.203845
   2 C :   -0.054894
   3 C :   -0.081347
   4 C :   -0.177987
   5 H :    0.036263
   6 C :   -0.027500
   7 H :    0.033445
   8 H :    0.024587
   9 C :   -0.033116
  10 H :    0.029084
  11 H :    0.022961
  12 C :   -0.066689
  13 H :    0.021032
  14 H :    0.017543
  15 H :    0.031011
  16 S :    0.406088
  17 C :   -0.193707
  18 C :   -0.072255
  19 C :   -0.054480
  20 C :   -0.184692
  21 H :    0.032734
  22 C :   -0.037119
  23 H :    0.044203
  24 H :    0.024496
  25 C :   -0.044393
  26 H :    0.021838
  27 H :    0.017608
  28 C :   -0.072192
  29 H :    0.037184
  30 H :    0.019272
  31 H :    0.028339
  32 H :    0.037326
  33 H :    0.036193

  Mayer bond orders larger than 0.100000
B(  0-S ,  1-C ) :   1.1124 B(  0-S ,  4-C ) :   1.1493 B(  1-C ,  2-C ) :   1.5960
B(  1-C ,  4-C ) :   0.1052 B(  1-C , 32-H ) :   0.9612 B(  2-C ,  3-C ) :   1.2564
B(  2-C ,  6-C ) :   0.9960 B(  3-C ,  4-C ) :   1.5816 B(  3-C ,  5-H ) :   0.9812
B(  4-C , 20-C ) :   1.0613 B(  6-C ,  7-H ) :   0.9439 B(  6-C ,  8-H ) :   0.9451
B(  6-C ,  9-C ) :   1.0728 B(  9-C , 10-H ) :   0.9517 B(  9-C , 11-H ) :   0.9540
B(  9-C , 12-C ) :   1.0768 B( 12-C , 13-H ) :   0.9752 B( 12-C , 14-H ) :   0.9736
B( 12-C , 15-H ) :   0.9714 B( 16-S , 17-C ) :   1.1628 B( 16-S , 20-C ) :   1.1410
B( 17-C , 18-C ) :   1.5879 B( 17-C , 20-C ) :   0.1050 B( 17-C , 33-H ) :   0.9620
B( 18-C , 19-C ) :   1.2772 B( 18-C , 21-H ) :   0.9860 B( 19-C , 20-C ) :   1.5550
B( 19-C , 22-C ) :   1.0419 B( 22-C , 23-H ) :   0.9366 B( 22-C , 24-H ) :   0.9368
B( 22-C , 25-C ) :   1.0581 B( 25-C , 26-H ) :   0.9519 B( 25-C , 27-H ) :   0.9561
B( 25-C , 28-C ) :   1.0699 B( 28-C , 29-H ) :   0.9753 B( 28-C , 30-H ) :   0.9768
B( 28-C , 31-H ) :   0.9715

Dispersion correction           -0.013893686
FINAL SINGLE POINT ENERGY     -1339.868588439741

DIPOLE MOMENT
-------------
                                X             Y             Z
Electronic contribution:     -7.78158       2.97258      27.25542
Nuclear contribution   :      8.24191      -2.95949     -27.73408
                        -----------------------------------------
Total Dipole Moment    :      0.46033       0.01309      -0.47866
                        -----------------------------------------
Magnitude (a.u.)       :      0.66422
Magnitude (Debye)      :      1.68831

Rotational constants in cm-1:     0.017935     0.008707     0.006281
Rotational constants in MHz :   537.686283   261.017865   188.286158

                             ****ORCA TERMINATED NORMALLY****
TOTAL RUN TIME: 0 days 0 hours 0 minutes 31 seconds 676 msec
