                         Program Version 4.2.1 -  RELEASE  -
|  1> ! wB97X-D3 SP def2-SVP
|  2> %pal
|  3> nprocs 16
|  4> end
|  5>
|  6> * xyz 0 1
|  7> S 	 -41.6329 	 51.4022 	 102.755
|  8> C 	 -42.1428 	 51.1969 	 104.409
|  9> C 	 -42.9325 	 52.2212 	 104.87
| 10> C 	 -43.2625 	 53.1491 	 103.878
| 11> C 	 -42.7337 	 52.8442 	 102.636
| 12> H 	 -43.8534 	 54.0159 	 103.921
| 13> C 	 -43.3843 	 52.417 	 106.316
| 14> H 	 -42.8155 	 53.195 	 106.836
| 15> H 	 -43.2504 	 51.4792 	 106.805
| 16> C 	 -44.8687 	 52.7697 	 106.325
| 17> H 	 -45.0962 	 53.0699 	 107.295
| 18> H 	 -45.2253 	 53.674 	 105.781
| 19> C 	 -45.805 	 51.5536 	 106.022
| 20> H 	 -45.3416 	 50.9008 	 105.32
| 21> H 	 -45.8897 	 51.0004 	 106.916
| 22> H 	 -46.8151 	 51.8484 	 105.744
| 23> S 	 -43.4714 	 52.9252 	 100.029
| 24> C 	 -43.0508 	 54.3046 	 99.0899
| 25> C 	 -42.5037 	 55.3598 	 99.8137
| 26> C 	 -42.437 	 55.0055 	 101.188
| 27> C 	 -42.753 	 53.6841 	 101.436
| 28> H 	 -42.2361 	 56.3234 	 99.4346
| 29> C 	 -41.8934 	 55.9073 	 102.279
| 30> H 	 -40.9163 	 55.5517 	 102.377
| 31> H 	 -42.3088 	 55.6917 	 103.254
| 32> C 	 -41.809 	 57.3929 	 102.091
| 33> H 	 -42.7069 	 57.9068 	 101.745
| 34> H 	 -41.1722 	 57.602 	 101.202
| 35> C 	 -41.184 	 58.0827 	 103.328
| 36> H 	 -41.9971 	 58.2571 	 104.021
| 37> H 	 -40.5593 	 58.965 	 103.162
| 38> H 	 -40.5304 	 57.2662 	 103.854
| 39> H 	 -41.6069 	 50.5284 	 105.036
| 40> H 	 -43.2876 	 54.4878 	 98.1071
| 41> *
| 42>
| 43>                          ****END OF INPUT****

CARTESIAN COORDINATES (ANGSTROEM)
---------------------------------
  S    -41.632900   51.402200  102.755000
  C    -42.142800   51.196900  104.409000
  C    -42.932500   52.221200  104.870000
  C    -43.262500   53.149100  103.878000
  C    -42.733700   52.844200  102.636000
  H    -43.853400   54.015900  103.921000
  C    -43.384300   52.417000  106.316000
  H    -42.815500   53.195000  106.836000
  H    -43.250400   51.479200  106.805000
  C    -44.868700   52.769700  106.325000
  H    -45.096200   53.069900  107.295000
  H    -45.225300   53.674000  105.781000
  C    -45.805000   51.553600  106.022000
  H    -45.341600   50.900800  105.320000
  H    -45.889700   51.000400  106.916000
  H    -46.815100   51.848400  105.744000
  S    -43.471400   52.925200  100.029000
  C    -43.050800   54.304600   99.089900
  C    -42.503700   55.359800   99.813700
  C    -42.437000   55.005500  101.188000
  C    -42.753000   53.684100  101.436000
  H    -42.236100   56.323400   99.434600
  C    -41.893400   55.907300  102.279000
  H    -40.916300   55.551700  102.377000
  H    -42.308800   55.691700  103.254000
  C    -41.809000   57.392900  102.091000
  H    -42.706900   57.906800  101.745000
  H    -41.172200   57.602000  101.202000
  C    -41.184000   58.082700  103.328000
  H    -41.997100   58.257100  104.021000
  H    -40.559300   58.965000  103.162000
  H    -40.530400   57.266200  103.854000
  H    -41.606900   50.528400  105.036000
  H    -43.287600   54.487800   98.107100

 Total Charge           Charge          ....    0
 Multiplicity           Mult            ....    1
 Number of Electrons    NEL             ....  134
 Basis Dimension        Dim             ....  322

ORBITAL ENERGIES
----------------

  NO   OCC          E(Eh)            E(eV)
   0   2.0000     -88.965782     -2420.8820
   1   2.0000     -88.964445     -2420.8456
   2   2.0000     -10.330336      -281.1027
   3   2.0000     -10.319452      -280.8066
   4   2.0000     -10.309610      -280.5387
   5   2.0000     -10.309346      -280.5316
   6   2.0000     -10.302352      -280.3412
   7   2.0000     -10.297029      -280.1964
   8   2.0000     -10.293205      -280.0924
   9   2.0000     -10.292167      -280.0641
  10   2.0000     -10.288813      -279.9728
  11   2.0000     -10.288599      -279.9670
  12   2.0000     -10.288078      -279.9528
  13   2.0000     -10.283154      -279.8188
  14   2.0000     -10.281478      -279.7732
  15   2.0000     -10.268462      -279.4191
  16   2.0000      -8.080908      -219.8927
  17   2.0000      -8.078454      -219.8259
  18   2.0000      -6.039252      -164.3364
  19   2.0000      -6.036820      -164.2702
  20   2.0000      -6.035438      -164.2326
  21   2.0000      -6.033250      -164.1731
  22   2.0000      -6.031745      -164.1321
  23   2.0000      -6.029220      -164.0634
  24   2.0000      -1.005544       -27.3623
  25   2.0000      -0.984507       -26.7898
  26   2.0000      -0.915096       -24.9010
  27   2.0000      -0.911242       -24.7961
  28   2.0000      -0.868116       -23.6226
  29   2.0000      -0.852845       -23.2071
  30   2.0000      -0.844761       -22.9871
  31   2.0000      -0.815353       -22.1869
  32   2.0000      -0.783391       -21.3172
  33   2.0000      -0.771211       -20.9857
  34   2.0000      -0.711495       -19.3608
  35   2.0000      -0.706757       -19.2318
  36   2.0000      -0.693503       -18.8712
  37   2.0000      -0.658475       -17.9180
  38   2.0000      -0.647551       -17.6208
  39   2.0000      -0.624560       -16.9951
  40   2.0000      -0.603626       -16.4255
  41   2.0000      -0.567506       -15.4426
  42   2.0000      -0.564347       -15.3567
  43   2.0000      -0.557468       -15.1695
  44   2.0000      -0.531989       -14.4762
  45   2.0000      -0.524992       -14.2858
  46   2.0000      -0.521056       -14.1786
  47   2.0000      -0.516895       -14.0654
  48   2.0000      -0.502795       -13.6817
  49   2.0000      -0.495589       -13.4857
  50   2.0000      -0.483795       -13.1647
  51   2.0000      -0.476970       -12.9790
  52   2.0000      -0.471115       -12.8197
  53   2.0000      -0.465845       -12.6763
  54   2.0000      -0.457212       -12.4414
  55   2.0000      -0.454896       -12.3783
  56   2.0000      -0.445616       -12.1258
  57   2.0000      -0.440170       -11.9776
  58   2.0000      -0.436148       -11.8682
  59   2.0000      -0.430575       -11.7165
  60   2.0000      -0.424602       -11.5540
  61   2.0000      -0.412667       -11.2292
  62   2.0000      -0.409688       -11.1482
  63   2.0000      -0.341865        -9.3026
  64   2.0000      -0.331001        -9.0070
  65   2.0000      -0.329496        -8.9660
  66   2.0000      -0.291725        -7.9382
  67   0.0000       0.032884         0.8948
  68   0.0000       0.061318         1.6686
  69   0.0000       0.111653         3.0382
  70   0.0000       0.116731         3.1764
  71   0.0000       0.136055         3.7022

MULLIKEN ATOMIC CHARGES
-----------------------
   0 S :    0.098513
   1 C :   -0.105380
   2 C :   -0.094843
   3 C :    0.044411
   4 C :   -0.149960
   5 H :    0.001399
   6 C :    0.118442
   7 H :    0.045899
   8 H :    0.008418
   9 C :   -0.093297
  10 H :   -0.000823
  11 H :    0.032634
  12 C :   -0.022144
  13 H :    0.032897
  14 H :    0.014143
  15 H :    0.034592
  16 S :    0.126338
  17 C :   -0.032143
  18 C :   -0.052903
  19 C :   -0.012175
  20 C :   -0.198974
  21 H :    0.010585
  22 C :    0.083417
  23 H :    0.026803
  24 H :    0.008949
  25 C :   -0.087586
  26 H :    0.027467
  27 H :    0.021186
  28 C :   -0.069793
  29 H :    0.038790
  30 H :    0.049693
  31 H :    0.037459
  32 H :    0.038362
  33 H :    0.019624
Sum of atomic charges:   -0.0000000

LOEWDIN ATOMIC CHARGES
----------------------
   0 S :    0.380300
   1 C :   -0.194343
   2 C :   -0.066396
   3 C :   -0.051330
   4 C :   -0.173388
   5 H :    0.025507
   6 C :   -0.018641
   7 H :    0.036200
   8 H :    0.026728
   9 C :   -0.043322
  10 H :    0.012347
  11 H :    0.026000
  12 C :   -0.055736
  13 H :    0.022016
  14 H :    0.019098
  15 H :    0.027791
  16 S :    0.427218
  17 C :   -0.177389
  18 C :   -0.069060
  19 C :   -0.044177
  20 C :   -0.211866
  21 H :    0.028492
  22 C :   -0.035213
  23 H :    0.035381
  24 H :    0.026456
  25 C :   -0.050004
  26 H :    0.020847
  27 H :    0.022347
  28 C :   -0.066908
  29 H :    0.024937
  30 H :    0.028778
  31 H :    0.036383
  32 H :    0.019620
  33 H :    0.011325

  Mayer bond orders larger than 0.100000
B(  0-S ,  1-C ) :   1.1387 B(  0-S ,  4-C ) :   1.1425 B(  1-C ,  2-C ) :   1.6211
B(  1-C , 32-H ) :   0.9664 B(  2-C ,  3-C ) :   1.2243 B(  2-C ,  6-C ) :   1.0186
B(  3-C ,  4-C ) :   1.5902 B(  3-C ,  5-H ) :   1.0037 B(  4-C , 20-C ) :   1.0258
B(  6-C ,  7-H ) :   0.9363 B(  6-C ,  8-H ) :   0.9384 B(  6-C ,  9-C ) :   1.0760
B(  9-C , 10-H ) :   0.9532 B(  9-C , 11-H ) :   0.9584 B(  9-C , 12-C ) :   1.0621
B( 12-C , 13-H ) :   0.9812 B( 12-C , 14-H ) :   0.9756 B( 12-C , 15-H ) :   0.9760
B( 16-S , 17-C ) :   1.1765 B( 16-S , 20-C ) :   1.1445 B( 17-C , 18-C ) :   1.5832
B( 17-C , 20-C ) :   0.1004 B( 17-C , 33-H ) :   0.9699 B( 18-C , 19-C ) :   1.2601
B( 18-C , 21-H ) :   0.9912 B( 19-C , 20-C ) :   1.5972 B( 19-C , 22-C ) :   1.0247
B( 22-C , 23-H ) :   0.9121 B( 22-C , 24-H ) :   0.9368 B( 22-C , 25-C ) :   1.0745
B( 25-C , 26-H ) :   0.9626 B( 25-C , 27-H ) :   0.9427 B( 25-C , 28-C ) :   1.0645
B( 28-C , 29-H ) :   0.9758 B( 28-C , 30-H ) :   0.9756 B( 28-C , 31-H ) :   0.9747

Dispersion correction           -0.014109399
FINAL SINGLE POINT ENERGY     -1339.863027407370

DIPOLE MOMENT
-------------
                                X             Y             Z
Electronic contribution:      4.36392     -15.99300     -19.78308
Nuclear contribution   :     -4.35675      16.60782      20.29747
                        -----------------------------------------
Total Dipole Moment    :      0.00717       0.61482       0.51439
                        -----------------------------------------
Magnitude (a.u.)       :      0.80166
Magnitude (Debye)      :      2.03765

Rotational constants in cm-1:     0.016681     0.008955     0.007101
Rotational constants in MHz :   500.091662   268.470587   212.890547

                             ****ORCA TERMINATED NORMALLY****
TOTAL RUN TIME: 0 days 0 hours 0 minutes 30 seconds 279 msec
