                         Program Version 4.2.1 -  RELEASE  -
|  1> ! wB97X-D3 SP def2-SVP
|  2> %pal
|  3> nprocs 16
|  4> end
|  5>
|  6> * xyz 0 1
|  7> S 	 -38.0806 	 53.7585 	 109.732
|  8> C 	 -39.7689 	 54.3026 	 109.936
|  9> C 	 -40.5548 	 53.8785 	 108.93
| 10> C 	 -39.7895 	 53.3287 	 107.865
| 11> C 	 -38.4383 	 53.1013 	 108.188
| 12> H 	 -40.2411 	 52.891 	 107.018
| 13> C 	 -42.1837 	 54.0366 	 108.832
| 14> H 	 -42.561 	 53.7672 	 107.794
| 15> H 	 -42.4479 	 55.1149 	 109
| 16> C 	 -42.9178 	 53.1508 	 109.825
| 17> H 	 -42.7184 	 52.0364 	 109.593
| 18> H 	 -42.5393 	 53.3163 	 110.79
| 19> C 	 -44.4091 	 53.5353 	 109.867
| 20> H 	 -45.0023 	 52.6758 	 110.139
| 21> H 	 -44.5394 	 54.3797 	 110.65
| 22> H 	 -44.7507 	 53.8574 	 108.864
| 23> S 	 -36.5343 	 51.1504 	 107.66
| 24> C 	 -35.7128 	 51.1738 	 106.172
| 25> C 	 -35.9961 	 52.3058 	 105.451
| 26> C 	 -37.0419 	 53.07 	 106.021
| 27> C 	 -37.4598 	 52.6223 	 107.238
| 28> H 	 -35.5307 	 52.3908 	 104.411
| 29> C 	 -37.5247 	 54.3314 	 105.29
| 30> H 	 -38.0775 	 54.9012 	 106.012
| 31> H 	 -38.3712 	 54.0983 	 104.624
| 32> C 	 -36.3697 	 55.0117 	 104.479
| 33> H 	 -36.5149 	 54.5319 	 103.519
| 34> H 	 -35.4572 	 54.7649 	 105.012
| 35> C 	 -36.389 	 56.549 	 104.298
| 36> H 	 -35.538 	 56.9414 	 103.783
| 37> H 	 -36.4594 	 57.091 	 105.242
| 38> H 	 -37.2403 	 56.8842 	 103.666
| 39> H 	 -40.2961 	 54.6896 	 110.819
| 40> H 	 -34.9249 	 50.4329 	 105.943
| 41> *
| 42>
| 43>                          ****END OF INPUT****

CARTESIAN COORDINATES (ANGSTROEM)
---------------------------------
  S    -38.080600   53.758500  109.732000
  C    -39.768900   54.302600  109.936000
  C    -40.554800   53.878500  108.930000
  C    -39.789500   53.328700  107.865000
  C    -38.438300   53.101300  108.188000
  H    -40.241100   52.891000  107.018000
  C    -42.183700   54.036600  108.832000
  H    -42.561000   53.767200  107.794000
  H    -42.447900   55.114900  109.000000
  C    -42.917800   53.150800  109.825000
  H    -42.718400   52.036400  109.593000
  H    -42.539300   53.316300  110.790000
  C    -44.409100   53.535300  109.867000
  H    -45.002300   52.675800  110.139000
  H    -44.539400   54.379700  110.650000
  H    -44.750700   53.857400  108.864000
  S    -36.534300   51.150400  107.660000
  C    -35.712800   51.173800  106.172000
  C    -35.996100   52.305800  105.451000
  C    -37.041900   53.070000  106.021000
  C    -37.459800   52.622300  107.238000
  H    -35.530700   52.390800  104.411000
  C    -37.524700   54.331400  105.290000
  H    -38.077500   54.901200  106.012000
  H    -38.371200   54.098300  104.624000
  C    -36.369700   55.011700  104.479000
  H    -36.514900   54.531900  103.519000
  H    -35.457200   54.764900  105.012000
  C    -36.389000   56.549000  104.298000
  H    -35.538000   56.941400  103.783000
  H    -36.459400   57.091000  105.242000
  H    -37.240300   56.884200  103.666000
  H    -40.296100   54.689600  110.819000
  H    -34.924900   50.432900  105.943000

 Total Charge           Charge          ....    0
 Multiplicity           Mult            ....    1
 Number of Electrons    NEL             ....  134
 Basis Dimension        Dim             ....  322

ORBITAL ENERGIES
----------------

  NO   OCC          E(Eh)            E(eV)
   0   2.0000     -88.970824     -2421.0192
   1   2.0000     -88.959747     -2420.7178
   2   2.0000     -10.328655      -281.0570
   3   2.0000     -10.323458      -280.9156
   4   2.0000     -10.315334      -280.6945
   5   2.0000     -10.313068      -280.6328
   6   2.0000     -10.310422      -280.5608
   7   2.0000     -10.301906      -280.3291
   8   2.0000     -10.301612      -280.3211
   9   2.0000     -10.293105      -280.0896
  10   2.0000     -10.290066      -280.0069
  11   2.0000     -10.289336      -279.9871
  12   2.0000     -10.288742      -279.9709
  13   2.0000     -10.288555      -279.9658
  14   2.0000     -10.288411      -279.9619
  15   2.0000     -10.277574      -279.6670
  16   2.0000      -8.085200      -220.0095
  17   2.0000      -8.075452      -219.7442
  18   2.0000      -6.043825      -164.4608
  19   2.0000      -6.039717      -164.3491
  20   2.0000      -6.035881      -164.2447
  21   2.0000      -6.033778      -164.1874
  22   2.0000      -6.029853      -164.0807
  23   2.0000      -6.026320      -163.9845
  24   2.0000      -1.009134       -27.4599
  25   2.0000      -0.987535       -26.8722
  26   2.0000      -0.908343       -24.7173
  27   2.0000      -0.903236       -24.5783
  28   2.0000      -0.872193       -23.7336
  29   2.0000      -0.849294       -23.1105
  30   2.0000      -0.841620       -22.9016
  31   2.0000      -0.807543       -21.9744
  32   2.0000      -0.781742       -21.2723
  33   2.0000      -0.773852       -21.0576
  34   2.0000      -0.706582       -19.2271
  35   2.0000      -0.701478       -19.0882
  36   2.0000      -0.692665       -18.8484
  37   2.0000      -0.648389       -17.6436
  38   2.0000      -0.633589       -17.2408
  39   2.0000      -0.617223       -16.7955
  40   2.0000      -0.598824       -16.2948
  41   2.0000      -0.572045       -15.5661
  42   2.0000      -0.564599       -15.3635
  43   2.0000      -0.559890       -15.2354
  44   2.0000      -0.523643       -14.2491
  45   2.0000      -0.515854       -14.0371
  46   2.0000      -0.512885       -13.9563
  47   2.0000      -0.508760       -13.8441
  48   2.0000      -0.500548       -13.6206
  49   2.0000      -0.494768       -13.4633
  50   2.0000      -0.486840       -13.2476
  51   2.0000      -0.480130       -13.0650
  52   2.0000      -0.470420       -12.8008
  53   2.0000      -0.469033       -12.7630
  54   2.0000      -0.456642       -12.4259
  55   2.0000      -0.448494       -12.2042
  56   2.0000      -0.446296       -12.1443
  57   2.0000      -0.439835       -11.9685
  58   2.0000      -0.428448       -11.6587
  59   2.0000      -0.420847       -11.4518
  60   2.0000      -0.416660       -11.3379
  61   2.0000      -0.416332       -11.3290
  62   2.0000      -0.413058       -11.2399
  63   2.0000      -0.343436        -9.3454
  64   2.0000      -0.334041        -9.0897
  65   2.0000      -0.328850        -8.9485
  66   2.0000      -0.299228        -8.1424
  67   0.0000       0.035907         0.9771
  68   0.0000       0.065473         1.7816
  69   0.0000       0.111227         3.0266
  70   0.0000       0.128687         3.5018
  71   0.0000       0.131455         3.5771

MULLIKEN ATOMIC CHARGES
-----------------------
   0 S :    0.128517
   1 C :   -0.129347
   2 C :   -0.068492
   3 C :    0.024872
   4 C :   -0.143870
   5 H :   -0.001999
   6 C :    0.009769
   7 H :    0.036645
   8 H :    0.045900
   9 C :   -0.081065
  10 H :    0.048624
  11 H :    0.016720
  12 C :   -0.064621
  13 H :    0.038371
  14 H :    0.051001
  15 H :    0.032913
  16 S :    0.096444
  17 C :   -0.097560
  18 C :   -0.074727
  19 C :   -0.039235
  20 C :   -0.183454
  21 H :    0.051633
  22 C :    0.094956
  23 H :    0.011077
  24 H :    0.030271
  25 C :   -0.102558
  26 H :    0.039691
  27 H :    0.052438
  28 C :   -0.032060
  29 H :    0.028216
  30 H :    0.036640
  31 H :    0.026078
  32 H :    0.047696
  33 H :    0.070515
Sum of atomic charges:   -0.0000000

LOEWDIN ATOMIC CHARGES
----------------------
   0 S :    0.416949
   1 C :   -0.198331
   2 C :   -0.063280
   3 C :   -0.060770
   4 C :   -0.208537
   5 H :    0.022592
   6 C :   -0.028249
   7 H :    0.032632
   8 H :    0.033368
   9 C :   -0.050728
  10 H :    0.034777
  11 H :    0.013221
  12 C :   -0.068611
  13 H :    0.025281
  14 H :    0.037903
  15 H :    0.024121
  16 S :    0.402471
  17 C :   -0.195820
  18 C :   -0.094265
  19 C :   -0.051378
  20 C :   -0.195399
  21 H :    0.047486
  22 C :   -0.031492
  23 H :    0.023743
  24 H :    0.034160
  25 C :   -0.038880
  26 H :    0.027947
  27 H :    0.028805
  28 C :   -0.067015
  29 H :    0.023359
  30 H :    0.026905
  31 H :    0.026673
  32 H :    0.034605
  33 H :    0.035758

  Mayer bond orders larger than 0.100000
B(  0-S ,  1-C ) :   1.1262 B(  0-S ,  4-C ) :   1.1622 B(  1-C ,  2-C ) :   1.6524
B(  1-C , 32-H ) :   0.9553 B(  2-C ,  3-C ) :   1.2618 B(  2-C ,  6-C ) :   0.9816
B(  3-C ,  4-C ) :   1.5509 B(  3-C ,  5-H ) :   1.0004 B(  4-C , 20-C ) :   1.0326
B(  6-C ,  7-H ) :   0.9496 B(  6-C ,  8-H ) :   0.9532 B(  6-C ,  9-C ) :   1.0598
B(  9-C , 10-H ) :   0.9559 B(  9-C , 11-H ) :   0.9617 B(  9-C , 12-C ) :   1.0650
B( 12-C , 13-H ) :   0.9750 B( 12-C , 14-H ) :   0.9761 B( 12-C , 15-H ) :   0.9759
B( 16-S , 17-C ) :   1.1813 B( 16-S , 20-C ) :   1.1235 B( 17-C , 18-C ) :   1.6007
B( 17-C , 33-H ) :   0.9584 B( 18-C , 19-C ) :   1.2392 B( 18-C , 21-H ) :   0.9766
B( 19-C , 20-C ) :   1.6307 B( 19-C , 22-C ) :   1.0323 B( 22-C , 23-H ) :   0.9327
B( 22-C , 24-H ) :   0.9332 B( 22-C , 25-C ) :   1.0384 B( 25-C , 26-H ) :   0.9495
B( 25-C , 27-H ) :   0.9653 B( 25-C , 28-C ) :   1.0879 B( 28-C , 29-H ) :   0.9741
B( 28-C , 30-H ) :   0.9753 B( 28-C , 31-H ) :   0.9735

Dispersion correction           -0.013423859
FINAL SINGLE POINT ENERGY     -1339.864783565433

DIPOLE MOMENT
-------------
                                X             Y             Z
Electronic contribution:     17.88658     -13.50314       9.80663
Nuclear contribution   :    -18.31482      13.67826     -10.18664
                        -----------------------------------------
Total Dipole Moment    :     -0.42823       0.17511      -0.38000
                        -----------------------------------------
Magnitude (a.u.)       :      0.59871
Magnitude (Debye)      :      1.52180

Rotational constants in cm-1:     0.019810     0.007021     0.006029
Rotational constants in MHz :   593.882778   210.487634   180.733463

                             ****ORCA TERMINATED NORMALLY****
TOTAL RUN TIME: 0 days 0 hours 0 minutes 28 seconds 745 msec
