                         Program Version 4.2.1 -  RELEASE  -
|  1> ! wB97X-D3 SP def2-SVP
|  2> %pal
|  3> nprocs 16
|  4> end
|  5>
|  6> * xyz 0 1
|  7> S 	 -1.3041 	 -13.2425 	 70.4986
|  8> C 	 -2.82739 	 -14.0241 	 70.8994
|  9> C 	 -3.87311 	 -13.1721 	 70.5228
| 10> C 	 -3.48229 	 -11.9759 	 69.8889
| 11> C 	 -2.14698 	 -11.9986 	 69.6489
| 12> H 	 -4.09884 	 -11.145 	 69.6178
| 13> C 	 -5.33726 	 -13.3439 	 70.8366
| 14> H 	 -5.93521 	 -12.3866 	 70.7364
| 15> H 	 -5.5274 	 -13.5236 	 71.894
| 16> C 	 -6.04663 	 -14.4013 	 70.0278
| 17> H 	 -5.73089 	 -14.1997 	 68.9925
| 18> H 	 -5.59919 	 -15.3497 	 70.2493
| 19> C 	 -7.59621 	 -14.4094 	 70.1345
| 20> H 	 -7.86343 	 -14.0652 	 71.054
| 21> H 	 -7.99993 	 -13.6549 	 69.5591
| 22> H 	 -8.15392 	 -15.3098 	 69.8011
| 23> S 	 -0.189963 	 -10.1811 	 70.2454
| 24> C 	 0.346516 	 -9.06854 	 69.0346
| 25> C 	 -0.316734 	 -9.18746 	 67.8697
| 26> C 	 -1.30353 	 -10.1813 	 67.9333
| 27> C 	 -1.38544 	 -10.8339 	 69.1406
| 28> H 	 -0.0450825 	 -8.49649 	 67.0552
| 29> C 	 -1.9672 	 -10.655 	 66.698
| 30> H 	 -2.22969 	 -9.73661 	 66.1266
| 31> H 	 -2.86859 	 -11.1363 	 67.0699
| 32> C 	 -1.12536 	 -11.6505 	 65.8901
| 33> H 	 -0.805237 	 -12.4845 	 66.557
| 34> H 	 -0.309278 	 -11.1097 	 65.4298
| 35> C 	 -1.84976 	 -12.3308 	 64.7439
| 36> H 	 -2.61943 	 -13.0136 	 65.0411
| 37> H 	 -1.11693 	 -13.0306 	 64.3099
| 38> H 	 -2.18905 	 -11.6522 	 63.9594
| 39> H 	 -3.07239 	 -14.8986 	 71.456
| 40> H 	 1.2181 	 -8.32227 	 69.1304
| 41> *
| 42>
| 43>                          ****END OF INPUT****

CARTESIAN COORDINATES (ANGSTROEM)
---------------------------------
  S     -1.304100  -13.242500   70.498600
  C     -2.827390  -14.024100   70.899400
  C     -3.873110  -13.172100   70.522800
  C     -3.482290  -11.975900   69.888900
  C     -2.146980  -11.998600   69.648900
  H     -4.098840  -11.145000   69.617800
  C     -5.337260  -13.343900   70.836600
  H     -5.935210  -12.386600   70.736400
  H     -5.527400  -13.523600   71.894000
  C     -6.046630  -14.401300   70.027800
  H     -5.730890  -14.199700   68.992500
  H     -5.599190  -15.349700   70.249300
  C     -7.596210  -14.409400   70.134500
  H     -7.863430  -14.065200   71.054000
  H     -7.999930  -13.654900   69.559100
  H     -8.153920  -15.309800   69.801100
  S     -0.189963  -10.181100   70.245400
  C      0.346516   -9.068540   69.034600
  C     -0.316734   -9.187460   67.869700
  C     -1.303530  -10.181300   67.933300
  C     -1.385440  -10.833900   69.140600
  H     -0.045082   -8.496490   67.055200
  C     -1.967200  -10.655000   66.698000
  H     -2.229690   -9.736610   66.126600
  H     -2.868590  -11.136300   67.069900
  C     -1.125360  -11.650500   65.890100
  H     -0.805237  -12.484500   66.557000
  H     -0.309278  -11.109700   65.429800
  C     -1.849760  -12.330800   64.743900
  H     -2.619430  -13.013600   65.041100
  H     -1.116930  -13.030600   64.309900
  H     -2.189050  -11.652200   63.959400
  H     -3.072390  -14.898600   71.456000
  H      1.218100   -8.322270   69.130400

 Total Charge           Charge          ....    0
 Multiplicity           Mult            ....    1
 Number of Electrons    NEL             ....  134
 Basis Dimension        Dim             ....  322

ORBITAL ENERGIES
----------------

  NO   OCC          E(Eh)            E(eV)
   0   2.0000     -88.973768     -2421.0993
   1   2.0000     -88.962471     -2420.7919
   2   2.0000     -10.327620      -281.0288
   3   2.0000     -10.321852      -280.8719
   4   2.0000     -10.315695      -280.7043
   5   2.0000     -10.314906      -280.6829
   6   2.0000     -10.300839      -280.3001
   7   2.0000     -10.293479      -280.0998
   8   2.0000     -10.290747      -280.0255
   9   2.0000     -10.289504      -279.9916
  10   2.0000     -10.286225      -279.9024
  11   2.0000     -10.283689      -279.8334
  12   2.0000     -10.283606      -279.8311
  13   2.0000     -10.282852      -279.8106
  14   2.0000     -10.271451      -279.5004
  15   2.0000     -10.268532      -279.4210
  16   2.0000      -8.088215      -220.0915
  17   2.0000      -8.077716      -219.8058
  18   2.0000      -6.046778      -164.5412
  19   2.0000      -6.042781      -164.4324
  20   2.0000      -6.038900      -164.3268
  21   2.0000      -6.036164      -164.2524
  22   2.0000      -6.032165      -164.1436
  23   2.0000      -6.028491      -164.0436
  24   2.0000      -1.014934       -27.6178
  25   2.0000      -0.992112       -26.9968
  26   2.0000      -0.914848       -24.8943
  27   2.0000      -0.909908       -24.7599
  28   2.0000      -0.869704       -23.6658
  29   2.0000      -0.857055       -23.3217
  30   2.0000      -0.851231       -23.1632
  31   2.0000      -0.819316       -22.2947
  32   2.0000      -0.784999       -21.3609
  33   2.0000      -0.769807       -20.9475
  34   2.0000      -0.709179       -19.2978
  35   2.0000      -0.701857       -19.0985
  36   2.0000      -0.688632       -18.7386
  37   2.0000      -0.659602       -17.9487
  38   2.0000      -0.644630       -17.5413
  39   2.0000      -0.623452       -16.9650
  40   2.0000      -0.588572       -16.0159
  41   2.0000      -0.573904       -15.6167
  42   2.0000      -0.566907       -15.4263
  43   2.0000      -0.556696       -15.1485
  44   2.0000      -0.529539       -14.4095
  45   2.0000      -0.523522       -14.2458
  46   2.0000      -0.521007       -14.1773
  47   2.0000      -0.510180       -13.8827
  48   2.0000      -0.503303       -13.6956
  49   2.0000      -0.498500       -13.5649
  50   2.0000      -0.495223       -13.4757
  51   2.0000      -0.485850       -13.2206
  52   2.0000      -0.470806       -12.8113
  53   2.0000      -0.465077       -12.6554
  54   2.0000      -0.457167       -12.4402
  55   2.0000      -0.455770       -12.4021
  56   2.0000      -0.442024       -12.0281
  57   2.0000      -0.437774       -11.9124
  58   2.0000      -0.429036       -11.6747
  59   2.0000      -0.426804       -11.6139
  60   2.0000      -0.420993       -11.4558
  61   2.0000      -0.415241       -11.2993
  62   2.0000      -0.407323       -11.0838
  63   2.0000      -0.347629        -9.4595
  64   2.0000      -0.332648        -9.0518
  65   2.0000      -0.331228        -9.0132
  66   2.0000      -0.295257        -8.0344
  67   0.0000       0.032994         0.8978
  68   0.0000       0.066124         1.7993
  69   0.0000       0.106774         2.9055
  70   0.0000       0.129704         3.5294
  71   0.0000       0.133164         3.6236

MULLIKEN ATOMIC CHARGES
-----------------------
   0 S :    0.124788
   1 C :   -0.087338
   2 C :   -0.080401
   3 C :    0.039723
   4 C :   -0.136740
   5 H :    0.020605
   6 C :    0.016273
   7 H :    0.019449
   8 H :    0.023917
   9 C :   -0.069026
  10 H :    0.023281
  11 H :    0.017364
  12 C :    0.028560
  13 H :   -0.004857
  14 H :    0.000222
  15 H :    0.045661
  16 S :    0.100169
  17 C :   -0.112695
  18 C :   -0.051705
  19 C :   -0.041493
  20 C :   -0.171532
  21 H :    0.026065
  22 C :    0.082348
  23 H :    0.024226
  24 H :    0.008115
  25 C :   -0.065748
  26 H :    0.039348
  27 H :    0.024465
  28 C :   -0.038345
  29 H :    0.026375
  30 H :    0.026685
  31 H :    0.032847
  32 H :    0.034150
  33 H :    0.075245
Sum of atomic charges:    0.0000000

LOEWDIN ATOMIC CHARGES
----------------------
   0 S :    0.425312
   1 C :   -0.199791
   2 C :   -0.056449
   3 C :   -0.055342
   4 C :   -0.198629
   5 H :    0.035256
   6 C :   -0.041805
   7 H :    0.031841
   8 H :    0.025448
   9 C :   -0.037893
  10 H :    0.024056
  11 H :    0.016452
  12 C :   -0.058885
  13 H :    0.012202
  14 H :    0.019194
  15 H :    0.036674
  16 S :    0.403193
  17 C :   -0.198047
  18 C :   -0.083623
  19 C :   -0.065091
  20 C :   -0.198008
  21 H :    0.039675
  22 C :   -0.036054
  23 H :    0.031850
  24 H :    0.026414
  25 C :   -0.036190
  26 H :    0.034514
  27 H :    0.023272
  28 C :   -0.067614
  29 H :    0.020776
  30 H :    0.030535
  31 H :    0.023241
  32 H :    0.027526
  33 H :    0.045990

  Mayer bond orders larger than 0.100000
B(  0-S ,  1-C ) :   1.1244 B(  0-S ,  4-C ) :   1.1687 B(  1-C ,  2-C ) :   1.5992
B(  1-C , 32-H ) :   0.9726 B(  2-C ,  3-C ) :   1.2529 B(  2-C ,  6-C ) :   1.0233
B(  3-C ,  4-C ) :   1.5567 B(  3-C ,  5-H ) :   0.9998 B(  4-C , 20-C ) :   1.0012
B(  6-C ,  7-H ) :   0.9508 B(  6-C ,  8-H ) :   0.9306 B(  6-C ,  9-C ) :   1.0574
B(  9-C , 10-H ) :   0.9591 B(  9-C , 11-H ) :   0.9599 B(  9-C , 12-C ) :   1.0691
B( 12-C , 13-H ) :   0.9693 B( 12-C , 14-H ) :   0.9653 B( 12-C , 15-H ) :   0.9753
B( 16-S , 17-C ) :   1.1545 B( 16-S , 20-C ) :   1.1348 B( 17-C , 18-C ) :   1.6381
B( 17-C , 33-H ) :   0.9504 B( 18-C , 19-C ) :   1.2247 B( 18-C , 21-H ) :   0.9913
B( 19-C , 20-C ) :   1.6240 B( 19-C , 22-C ) :   1.0630 B( 22-C , 23-H ) :   0.9246
B( 22-C , 24-H ) :   0.9226 B( 22-C , 25-C ) :   1.0760 B( 25-C , 26-H ) :   0.9530
B( 25-C , 27-H ) :   0.9521 B( 25-C , 28-C ) :   1.0988 B( 28-C , 29-H ) :   0.9732
B( 28-C , 30-H ) :   0.9711 B( 28-C , 31-H ) :   0.9729

Dispersion correction           -0.013811469
FINAL SINGLE POINT ENERGY     -1339.864910371969

DIPOLE MOMENT
-------------
                                X             Y             Z
Electronic contribution:     21.47691       8.50448      15.66799
Nuclear contribution   :    -21.86010      -8.41950     -15.93894
                        -----------------------------------------
Total Dipole Moment    :     -0.38318       0.08497      -0.27095
                        -----------------------------------------
Magnitude (a.u.)       :      0.47693
Magnitude (Debye)      :      1.21226

Rotational constants in cm-1:     0.019025     0.008153     0.006628
Rotational constants in MHz :   570.344154   244.407879   198.690901

                             ****ORCA TERMINATED NORMALLY****
TOTAL RUN TIME: 0 days 0 hours 0 minutes 32 seconds 507 msec
