                         Program Version 4.2.1 -  RELEASE  -
|  1> ! wB97X-D3 SP def2-SVP
|  2> %pal
|  3> nprocs 16
|  4> end
|  5>
|  6> * xyz 0 1
|  7> S 	 15.6542 	 -11.276 	 79.5478
|  8> C 	 17.1157 	 -10.9326 	 78.6216
|  9> C 	 17.0892 	 -11.4612 	 77.3774
| 10> C 	 15.9712 	 -12.3541 	 77.3231
| 11> C 	 15.0486 	 -12.3828 	 78.3688
| 12> H 	 15.8375 	 -13.0657 	 76.4895
| 13> C 	 18.1236 	 -11.3227 	 76.3252
| 14> H 	 18.6969 	 -12.2044 	 76.408
| 15> H 	 18.8404 	 -10.5067 	 76.4637
| 16> C 	 17.6306 	 -11.2161 	 74.9105
| 17> H 	 16.8383 	 -11.9683 	 74.6913
| 18> H 	 17.201 	 -10.2634 	 74.7709
| 19> C 	 18.6391 	 -11.3916 	 73.8341
| 20> H 	 19.167 	 -10.4941 	 73.6046
| 21> H 	 19.3367 	 -12.1227 	 74.161
| 22> H 	 18.229 	 -11.7256 	 72.8627
| 23> S 	 14.4435 	 -14.6247 	 79.7408
| 24> C 	 13.2631 	 -15.6623 	 79.1289
| 25> C 	 12.5213 	 -15.0984 	 78.1675
| 26> C 	 12.9959 	 -13.822 	 77.8048
| 27> C 	 14.0252 	 -13.3748 	 78.5935
| 28> H 	 11.7597 	 -15.7013 	 77.7093
| 29> C 	 12.4318 	 -13.1185 	 76.5897
| 30> H 	 11.7172 	 -13.6827 	 76.035
| 31> H 	 13.2823 	 -13.0045 	 75.849
| 32> C 	 11.7192 	 -11.7376 	 76.9072
| 33> H 	 12.4091 	 -11.2002 	 77.634
| 34> H 	 10.7804 	 -11.9687 	 77.3726
| 35> C 	 11.463 	 -10.8307 	 75.7313
| 36> H 	 12.3772 	 -10.3856 	 75.3557
| 37> H 	 10.5912 	 -10.1382 	 75.866
| 38> H 	 11.0534 	 -11.3543 	 74.9196
| 39> H 	 18.0069 	 -10.4244 	 79.0351
| 40> H 	 13.1016 	 -16.6834 	 79.4893
| 41> *
| 42>
| 43>                          ****END OF INPUT****

CARTESIAN COORDINATES (ANGSTROEM)
---------------------------------
  S     15.654200  -11.276000   79.547800
  C     17.115700  -10.932600   78.621600
  C     17.089200  -11.461200   77.377400
  C     15.971200  -12.354100   77.323100
  C     15.048600  -12.382800   78.368800
  H     15.837500  -13.065700   76.489500
  C     18.123600  -11.322700   76.325200
  H     18.696900  -12.204400   76.408000
  H     18.840400  -10.506700   76.463700
  C     17.630600  -11.216100   74.910500
  H     16.838300  -11.968300   74.691300
  H     17.201000  -10.263400   74.770900
  C     18.639100  -11.391600   73.834100
  H     19.167000  -10.494100   73.604600
  H     19.336700  -12.122700   74.161000
  H     18.229000  -11.725600   72.862700
  S     14.443500  -14.624700   79.740800
  C     13.263100  -15.662300   79.128900
  C     12.521300  -15.098400   78.167500
  C     12.995900  -13.822000   77.804800
  C     14.025200  -13.374800   78.593500
  H     11.759700  -15.701300   77.709300
  C     12.431800  -13.118500   76.589700
  H     11.717200  -13.682700   76.035000
  H     13.282300  -13.004500   75.849000
  C     11.719200  -11.737600   76.907200
  H     12.409100  -11.200200   77.634000
  H     10.780400  -11.968700   77.372600
  C     11.463000  -10.830700   75.731300
  H     12.377200  -10.385600   75.355700
  H     10.591200  -10.138200   75.866000
  H     11.053400  -11.354300   74.919600
  H     18.006900  -10.424400   79.035100
  H     13.101600  -16.683400   79.489300

 Total Charge           Charge          ....    0
 Multiplicity           Mult            ....    1
 Number of Electrons    NEL             ....  134
 Basis Dimension        Dim             ....  322

ORBITAL ENERGIES
----------------

  NO   OCC          E(Eh)            E(eV)
   0   2.0000     -88.961699     -2420.7709
   1   2.0000     -88.961287     -2420.7597
   2   2.0000     -10.326153      -280.9889
   3   2.0000     -10.321126      -280.8521
   4   2.0000     -10.312489      -280.6171
   5   2.0000     -10.309678      -280.5406
   6   2.0000     -10.301999      -280.3317
   7   2.0000     -10.298247      -280.2295
   8   2.0000     -10.294140      -280.1178
   9   2.0000     -10.292721      -280.0792
  10   2.0000     -10.289311      -279.9864
  11   2.0000     -10.285288      -279.8769
  12   2.0000     -10.284288      -279.8497
  13   2.0000     -10.279359      -279.7156
  14   2.0000     -10.271820      -279.5104
  15   2.0000     -10.270571      -279.4765
  16   2.0000      -8.077801      -219.8081
  17   2.0000      -8.076722      -219.7788
  18   2.0000      -6.036159      -164.2522
  19   2.0000      -6.035262      -164.2278
  20   2.0000      -6.032001      -164.1391
  21   2.0000      -6.031139      -164.1156
  22   2.0000      -6.028626      -164.0472
  23   2.0000      -6.027475      -164.0159
  24   2.0000      -1.016619       -27.6636
  25   2.0000      -0.993081       -27.0231
  26   2.0000      -0.926022       -25.1983
  27   2.0000      -0.903492       -24.5853
  28   2.0000      -0.879689       -23.9376
  29   2.0000      -0.854464       -23.2511
  30   2.0000      -0.849308       -23.1108
  31   2.0000      -0.812726       -22.1154
  32   2.0000      -0.789257       -21.4768
  33   2.0000      -0.775586       -21.1048
  34   2.0000      -0.712376       -19.3847
  35   2.0000      -0.697747       -18.9867
  36   2.0000      -0.688688       -18.7402
  37   2.0000      -0.662401       -18.0249
  38   2.0000      -0.640398       -17.4261
  39   2.0000      -0.622126       -16.9289
  40   2.0000      -0.597628       -16.2623
  41   2.0000      -0.579320       -15.7641
  42   2.0000      -0.574646       -15.6369
  43   2.0000      -0.564022       -15.3478
  44   2.0000      -0.528423       -14.3791
  45   2.0000      -0.522339       -14.2136
  46   2.0000      -0.520069       -14.1518
  47   2.0000      -0.512763       -13.9530
  48   2.0000      -0.505955       -13.7677
  49   2.0000      -0.500332       -13.6147
  50   2.0000      -0.497928       -13.5493
  51   2.0000      -0.487154       -13.2561
  52   2.0000      -0.474075       -12.9002
  53   2.0000      -0.465831       -12.6759
  54   2.0000      -0.459451       -12.5023
  55   2.0000      -0.453386       -12.3373
  56   2.0000      -0.445381       -12.1194
  57   2.0000      -0.431517       -11.7422
  58   2.0000      -0.428445       -11.6586
  59   2.0000      -0.426104       -11.5949
  60   2.0000      -0.419689       -11.4203
  61   2.0000      -0.414904       -11.2901
  62   2.0000      -0.405132       -11.0242
  63   2.0000      -0.341431        -9.2908
  64   2.0000      -0.328997        -8.9525
  65   2.0000      -0.326928        -8.8962
  66   2.0000      -0.299384        -8.1467
  67   0.0000       0.037531         1.0213
  68   0.0000       0.066101         1.7987
  69   0.0000       0.117717         3.2032
  70   0.0000       0.129123         3.5136
  71   0.0000       0.132747         3.6122

MULLIKEN ATOMIC CHARGES
-----------------------
   0 S :    0.100838
   1 C :   -0.158977
   2 C :   -0.046021
   3 C :   -0.002192
   4 C :   -0.158976
   5 H :    0.018809
   6 C :    0.111035
   7 H :    0.021823
   8 H :    0.021262
   9 C :   -0.093770
  10 H :    0.028596
  11 H :    0.019827
  12 C :   -0.021033
  13 H :    0.022818
  14 H :    0.012731
  15 H :    0.033453
  16 S :    0.118491
  17 C :   -0.093756
  18 C :   -0.028781
  19 C :   -0.034696
  20 C :   -0.136212
  21 H :    0.009839
  22 C :    0.066832
  23 H :    0.003983
  24 H :    0.032130
  25 C :   -0.089828
  26 H :    0.050547
  27 H :    0.025828
  28 C :   -0.020772
  29 H :    0.038120
  30 H :    0.035087
  31 H :   -0.001602
  32 H :    0.056041
  33 H :    0.058526
Sum of atomic charges:   -0.0000000

LOEWDIN ATOMIC CHARGES
----------------------
   0 S :    0.401571
   1 C :   -0.190296
   2 C :   -0.066592
   3 C :   -0.059948
   4 C :   -0.216302
   5 H :    0.026694
   6 C :   -0.028232
   7 H :    0.030455
   8 H :    0.034041
   9 C :   -0.042715
  10 H :    0.027039
  11 H :    0.020342
  12 C :   -0.060233
  13 H :    0.020527
  14 H :    0.019140
  15 H :    0.032215
  16 S :    0.439034
  17 C :   -0.194724
  18 C :   -0.080746
  19 C :   -0.046985
  20 C :   -0.210132
  21 H :    0.031845
  22 C :   -0.032241
  23 H :    0.020476
  24 H :    0.035568
  25 C :   -0.037915
  26 H :    0.031675
  27 H :    0.021337
  28 C :   -0.072116
  29 H :    0.027698
  30 H :    0.036372
  31 H :    0.014927
  32 H :    0.034423
  33 H :    0.033797

  Mayer bond orders larger than 0.100000
B(  0-S ,  1-C ) :   1.1480 B(  0-S ,  4-C ) :   1.1328 B(  1-C ,  2-C ) :   1.6102
B(  1-C , 32-H ) :   0.9625 B(  2-C ,  3-C ) :   1.2358 B(  2-C ,  6-C ) :   1.0300
B(  3-C ,  4-C ) :   1.5903 B(  3-C ,  5-H ) :   0.9802 B(  4-C , 20-C ) :   1.0231
B(  6-C ,  7-H ) :   0.9220 B(  6-C ,  8-H ) :   0.9404 B(  6-C ,  9-C ) :   1.0683
B(  9-C , 10-H ) :   0.9544 B(  9-C , 11-H ) :   0.9549 B(  9-C , 12-C ) :   1.0909
B( 12-C , 13-H ) :   0.9732 B( 12-C , 14-H ) :   0.9722 B( 12-C , 15-H ) :   0.9731
B( 16-S , 17-C ) :   1.1903 B( 16-S , 20-C ) :   1.1383 B( 17-C , 18-C ) :   1.6006
B( 17-C , 33-H ) :   0.9600 B( 18-C , 19-C ) :   1.2492 B( 18-C , 21-H ) :   1.0015
B( 19-C , 20-C ) :   1.5954 B( 19-C , 22-C ) :   1.0433 B( 22-C , 23-H ) :   0.9343
B( 22-C , 24-H ) :   0.9336 B( 22-C , 25-C ) :   1.0478 B( 25-C , 26-H ) :   0.9645
B( 25-C , 27-H ) :   0.9551 B( 25-C , 28-C ) :   1.0898 B( 28-C , 29-H ) :   0.9739
B( 28-C , 30-H ) :   0.9699 B( 28-C , 31-H ) :   0.9656

Dispersion correction           -0.013898982
FINAL SINGLE POINT ENERGY     -1339.867653743364

DIPOLE MOMENT
-------------
                                X             Y             Z
Electronic contribution:     -0.55973      -9.06802      27.19550
Nuclear contribution   :      0.69690       8.78447     -27.95028
                        -----------------------------------------
Total Dipole Moment    :      0.13718      -0.28355      -0.75478
                        -----------------------------------------
Magnitude (a.u.)       :      0.81787
Magnitude (Debye)      :      2.07886

Rotational constants in cm-1:     0.016393     0.008868     0.007381
Rotational constants in MHz :   491.461221   265.844988   221.275587

                             ****ORCA TERMINATED NORMALLY****
TOTAL RUN TIME: 0 days 0 hours 0 minutes 30 seconds 195 msec
