                         Program Version 4.2.1 -  RELEASE  -
|  1> ! wB97X-D3 SP def2-SVP
|  2> %pal
|  3> nprocs 16
|  4> end
|  5>
|  6> * xyz 0 1
|  7> S 	 0.488364 	 -1.90757 	 76.8723
|  8> C 	 -0.898999 	 -1.55865 	 77.8839
|  9> C 	 -0.988554 	 -2.44419 	 78.9916
| 10> C 	 0.0229464 	 -3.4399 	 78.8799
| 11> C 	 0.985049 	 -3.20042 	 77.9632
| 12> H 	 0.192891 	 -4.23837 	 79.6027
| 13> C 	 -1.87196 	 -2.37759 	 80.1301
| 14> H 	 -1.90405 	 -1.31836 	 80.418
| 15> H 	 -1.43116 	 -2.95584 	 80.9478
| 16> C 	 -3.30118 	 -2.9238 	 79.877
| 17> H 	 -3.94416 	 -2.50559 	 80.5929
| 18> H 	 -3.68884 	 -2.4464 	 78.956
| 19> C 	 -3.4336 	 -4.52818 	 79.9653
| 20> H 	 -2.71539 	 -5.05994 	 79.3696
| 21> H 	 -3.2116 	 -4.87921 	 81.013
| 22> H 	 -4.47651 	 -4.99228 	 79.784
| 23> S 	 2.48567 	 -5.41775 	 77.6437
| 24> C 	 4.21057 	 -5.28584 	 77.2736
| 25> C 	 4.72514 	 -3.97272 	 77.46
| 26> C 	 3.59349 	 -3.07016 	 77.842
| 27> C 	 2.34018 	 -3.7275 	 77.8526
| 28> H 	 5.73697 	 -3.65144 	 77.3349
| 29> C 	 3.79123 	 -1.55391 	 77.787
| 30> H 	 3.13745 	 -1.17748 	 77.0277
| 31> H 	 4.83136 	 -1.52682 	 77.328
| 32> C 	 3.91358 	 -0.906456 	 79.1407
| 33> H 	 4.83602 	 -1.14264 	 79.6073
| 34> H 	 3.14565 	 -1.17039 	 79.8564
| 35> C 	 3.79883 	 0.565865 	 79.0618
| 36> H 	 2.8296 	 0.752908 	 78.4928
| 37> H 	 4.71243 	 1.04729 	 78.6592
| 38> H 	 3.68188 	 1.00584 	 80.0144
| 39> H 	 -1.39185 	 -0.60275 	 77.7542
| 40> H 	 4.84071 	 -6.06343 	 76.8353
| 41> *
| 42>
| 43>                          ****END OF INPUT****

CARTESIAN COORDINATES (ANGSTROEM)
---------------------------------
  S      0.488364   -1.907570   76.872300
  C     -0.898999   -1.558650   77.883900
  C     -0.988554   -2.444190   78.991600
  C      0.022946   -3.439900   78.879900
  C      0.985049   -3.200420   77.963200
  H      0.192891   -4.238370   79.602700
  C     -1.871960   -2.377590   80.130100
  H     -1.904050   -1.318360   80.418000
  H     -1.431160   -2.955840   80.947800
  C     -3.301180   -2.923800   79.877000
  H     -3.944160   -2.505590   80.592900
  H     -3.688840   -2.446400   78.956000
  C     -3.433600   -4.528180   79.965300
  H     -2.715390   -5.059940   79.369600
  H     -3.211600   -4.879210   81.013000
  H     -4.476510   -4.992280   79.784000
  S      2.485670   -5.417750   77.643700
  C      4.210570   -5.285840   77.273600
  C      4.725140   -3.972720   77.460000
  C      3.593490   -3.070160   77.842000
  C      2.340180   -3.727500   77.852600
  H      5.736970   -3.651440   77.334900
  C      3.791230   -1.553910   77.787000
  H      3.137450   -1.177480   77.027700
  H      4.831360   -1.526820   77.328000
  C      3.913580   -0.906456   79.140700
  H      4.836020   -1.142640   79.607300
  H      3.145650   -1.170390   79.856400
  C      3.798830    0.565865   79.061800
  H      2.829600    0.752908   78.492800
  H      4.712430    1.047290   78.659200
  H      3.681880    1.005840   80.014400
  H     -1.391850   -0.602750   77.754200
  H      4.840710   -6.063430   76.835300

 Total Charge           Charge          ....    0
 Multiplicity           Mult            ....    1
 Number of Electrons    NEL             ....  134
 Basis Dimension        Dim             ....  322

ORBITAL ENERGIES
----------------

  NO   OCC          E(Eh)            E(eV)
   0   2.0000     -88.968550     -2420.9573
   1   2.0000     -88.965326     -2420.8696
   2   2.0000     -10.326912      -281.0096
   3   2.0000     -10.325070      -280.9594
   4   2.0000     -10.324251      -280.9371
   5   2.0000     -10.315614      -280.7021
   6   2.0000     -10.308806      -280.5169
   7   2.0000     -10.305016      -280.4137
   8   2.0000     -10.303037      -280.3599
   9   2.0000     -10.292830      -280.0821
  10   2.0000     -10.292628      -280.0767
  11   2.0000     -10.292211      -280.0653
  12   2.0000     -10.291003      -280.0324
  13   2.0000     -10.288713      -279.9701
  14   2.0000     -10.272133      -279.5190
  15   2.0000     -10.270357      -279.4706
  16   2.0000      -8.083383      -219.9600
  17   2.0000      -8.079720      -219.8604
  18   2.0000      -6.041950      -164.4098
  19   2.0000      -6.038213      -164.3081
  20   2.0000      -6.037807      -164.2971
  21   2.0000      -6.034247      -164.2002
  22   2.0000      -6.034161      -164.1979
  23   2.0000      -6.030567      -164.1001
  24   2.0000      -1.005708       -27.3667
  25   2.0000      -0.979417       -26.6513
  26   2.0000      -0.914254       -24.8781
  27   2.0000      -0.913157       -24.8483
  28   2.0000      -0.863867       -23.5070
  29   2.0000      -0.851447       -23.1691
  30   2.0000      -0.843992       -22.9662
  31   2.0000      -0.813440       -22.1348
  32   2.0000      -0.780114       -21.2280
  33   2.0000      -0.762941       -20.7607
  34   2.0000      -0.713780       -19.4229
  35   2.0000      -0.698591       -19.0096
  36   2.0000      -0.684828       -18.6351
  37   2.0000      -0.668991       -18.2042
  38   2.0000      -0.643461       -17.5095
  39   2.0000      -0.616012       -16.7625
  40   2.0000      -0.588645       -16.0178
  41   2.0000      -0.571453       -15.5500
  42   2.0000      -0.569443       -15.4953
  43   2.0000      -0.548152       -14.9160
  44   2.0000      -0.538824       -14.6622
  45   2.0000      -0.529584       -14.4107
  46   2.0000      -0.517672       -14.0866
  47   2.0000      -0.507739       -13.8163
  48   2.0000      -0.503571       -13.7029
  49   2.0000      -0.491840       -13.3836
  50   2.0000      -0.488820       -13.3015
  51   2.0000      -0.474733       -12.9182
  52   2.0000      -0.470458       -12.8018
  53   2.0000      -0.466638       -12.6979
  54   2.0000      -0.458065       -12.4646
  55   2.0000      -0.446540       -12.1510
  56   2.0000      -0.439807       -11.9678
  57   2.0000      -0.436366       -11.8741
  58   2.0000      -0.430925       -11.7261
  59   2.0000      -0.426277       -11.5996
  60   2.0000      -0.421223       -11.4621
  61   2.0000      -0.416326       -11.3288
  62   2.0000      -0.406336       -11.0570
  63   2.0000      -0.343866        -9.3571
  64   2.0000      -0.330799        -9.0015
  65   2.0000      -0.322082        -8.7643
  66   2.0000      -0.290001        -7.8913
  67   0.0000       0.027430         0.7464
  68   0.0000       0.063862         1.7378
  69   0.0000       0.107264         2.9188
  70   0.0000       0.111783         3.0418
  71   0.0000       0.125450         3.4137

MULLIKEN ATOMIC CHARGES
-----------------------
   0 S :    0.097944
   1 C :   -0.128137
   2 C :   -0.094076
   3 C :    0.038661
   4 C :   -0.141571
   5 H :    0.010936
   6 C :    0.048966
   7 H :    0.035667
   8 H :    0.023476
   9 C :   -0.026737
  10 H :    0.016182
  11 H :    0.029342
  12 C :   -0.096423
  13 H :    0.039320
  14 H :    0.029793
  15 H :    0.054017
  16 S :    0.122562
  17 C :   -0.101757
  18 C :   -0.028120
  19 C :   -0.060855
  20 C :   -0.155834
  21 H :    0.024996
  22 C :    0.039867
  23 H :    0.035036
  24 H :    0.016172
  25 C :   -0.029506
  26 H :    0.012176
  27 H :    0.028879
  28 C :   -0.043400
  29 H :    0.036689
  30 H :    0.029642
  31 H :    0.015716
  32 H :    0.054135
  33 H :    0.066246
Sum of atomic charges:    0.0000000

LOEWDIN ATOMIC CHARGES
----------------------
   0 S :    0.407764
   1 C :   -0.203559
   2 C :   -0.057288
   3 C :   -0.067294
   4 C :   -0.187047
   5 H :    0.031344
   6 C :   -0.036176
   7 H :    0.040386
   8 H :    0.033102
   9 C :   -0.031147
  10 H :    0.016329
  11 H :    0.026946
  12 C :   -0.078289
  13 H :    0.020149
  14 H :    0.028078
  15 H :    0.038526
  16 S :    0.423174
  17 C :   -0.188259
  18 C :   -0.062648
  19 C :   -0.048997
  20 C :   -0.222539
  21 H :    0.029051
  22 C :   -0.036525
  23 H :    0.018598
  24 H :    0.038087
  25 C :   -0.043235
  26 H :    0.020191
  27 H :    0.026308
  28 C :   -0.064717
  29 H :    0.033708
  30 H :    0.024134
  31 H :    0.016440
  32 H :    0.023576
  33 H :    0.031829

  Mayer bond orders larger than 0.100000
B(  0-S ,  1-C ) :   1.1410 B(  0-S ,  4-C ) :   1.1477 B(  1-C ,  2-C ) :   1.5863
B(  1-C , 32-H ) :   0.9682 B(  2-C ,  3-C ) :   1.2457 B(  2-C ,  6-C ) :   1.0446
B(  3-C ,  4-C ) :   1.6062 B(  3-C ,  5-H ) :   0.9828 B(  4-C , 20-C ) :   1.0116
B(  6-C ,  7-H ) :   0.9300 B(  6-C ,  8-H ) :   0.9388 B(  6-C ,  9-C ) :   1.0707
B(  9-C , 10-H ) :   0.9566 B(  9-C , 11-H ) :   0.9601 B(  9-C , 12-C ) :   1.0488
B( 12-C , 13-H ) :   0.9822 B( 12-C , 14-H ) :   0.9750 B( 12-C , 15-H ) :   0.9777
B( 16-S , 17-C ) :   1.1575 B( 16-S , 20-C ) :   1.1456 B( 17-C , 18-C ) :   1.6088
B( 17-C , 33-H ) :   0.9653 B( 18-C , 19-C ) :   1.2409 B( 18-C , 21-H ) :   0.9847
B( 19-C , 20-C ) :   1.5840 B( 19-C , 22-C ) :   1.0307 B( 22-C , 23-H ) :   0.9493
B( 22-C , 24-H ) :   0.9326 B( 22-C , 25-C ) :   1.0511 B( 25-C , 26-H ) :   0.9455
B( 25-C , 27-H ) :   0.9609 B( 25-C , 28-C ) :   1.0991 B( 28-C , 29-H ) :   0.9738
B( 28-C , 30-H ) :   0.9713 B( 28-C , 31-H ) :   0.9720

Dispersion correction           -0.014557731
FINAL SINGLE POINT ENERGY     -1339.851568167343

DIPOLE MOMENT
-------------
                                X             Y             Z
Electronic contribution:      6.98292     -11.11673     -13.34409
Nuclear contribution   :     -6.91039      11.38791      13.75051
                        -----------------------------------------
Total Dipole Moment    :      0.07253       0.27119       0.40642
                        -----------------------------------------
Magnitude (a.u.)       :      0.49394
Magnitude (Debye)      :      1.25550

Rotational constants in cm-1:     0.019109     0.008839     0.006928
Rotational constants in MHz :   572.870283   264.995190   207.683870

                             ****ORCA TERMINATED NORMALLY****
TOTAL RUN TIME: 0 days 0 hours 0 minutes 32 seconds 823 msec
