                         Program Version 4.2.1 -  RELEASE  -
|  1> ! wB97X-D3 SP def2-SVP
|  2> %pal
|  3> nprocs 16
|  4> end
|  5>
|  6> * xyz 0 1
|  7> S 	 6.96604 	 24.2328 	 65.7792
|  8> C 	 5.54189 	 25.025 	 65.0939
|  9> C 	 5.85192 	 26.3483 	 64.7633
| 10> C 	 7.10172 	 26.7042 	 65.3315
| 11> C 	 7.72954 	 25.7359 	 66.0035
| 12> H 	 7.73766 	 27.6246 	 65.3082
| 13> C 	 5.00638 	 27.2753 	 63.9818
| 14> H 	 5.50308 	 27.1782 	 63.0033
| 15> H 	 5.21614 	 28.3804 	 64.1925
| 16> C 	 3.44138 	 27.1251 	 63.8978
| 17> H 	 3.07106 	 27.8242 	 63.1213
| 18> H 	 3.11371 	 26.1493 	 63.4284
| 19> C 	 2.68832 	 27.3653 	 65.2031
| 20> H 	 1.63759 	 27.4803 	 65.0206
| 21> H 	 3.05627 	 26.6982 	 66.0604
| 22> H 	 2.85065 	 28.3113 	 65.6713
| 23> S 	 10.2383 	 24.6905 	 66.0536
| 24> C 	 11.3919 	 25.1986 	 67.2438
| 25> C 	 10.8926 	 26.3245 	 67.9073
| 26> C 	 9.54085 	 26.6727 	 67.6086
| 27> C 	 9.02005 	 25.8305 	 66.672
| 28> H 	 11.3605 	 26.799 	 68.7647
| 29> C 	 8.77917 	 27.6722 	 68.4977
| 30> H 	 8.52735 	 27.167 	 69.41
| 31> H 	 7.81519 	 27.7374 	 68.0761
| 32> C 	 9.37495 	 29.0379 	 68.7791
| 33> H 	 9.45581 	 29.7151 	 67.989
| 34> H 	 10.3554 	 28.9386 	 69.2561
| 35> C 	 8.50315 	 29.6745 	 69.8107
| 36> H 	 8.40475 	 29.0047 	 70.6431
| 37> H 	 7.39019 	 29.8766 	 69.4909
| 38> H 	 9.04265 	 30.6353 	 70.1233
| 39> H 	 4.65097 	 24.4565 	 64.9475
| 40> H 	 12.4054 	 24.8955 	 67.3128
| 41> *
| 42>
| 43>                          ****END OF INPUT****

CARTESIAN COORDINATES (ANGSTROEM)
---------------------------------
  S      6.966040   24.232800   65.779200
  C      5.541890   25.025000   65.093900
  C      5.851920   26.348300   64.763300
  C      7.101720   26.704200   65.331500
  C      7.729540   25.735900   66.003500
  H      7.737660   27.624600   65.308200
  C      5.006380   27.275300   63.981800
  H      5.503080   27.178200   63.003300
  H      5.216140   28.380400   64.192500
  C      3.441380   27.125100   63.897800
  H      3.071060   27.824200   63.121300
  H      3.113710   26.149300   63.428400
  C      2.688320   27.365300   65.203100
  H      1.637590   27.480300   65.020600
  H      3.056270   26.698200   66.060400
  H      2.850650   28.311300   65.671300
  S     10.238300   24.690500   66.053600
  C     11.391900   25.198600   67.243800
  C     10.892600   26.324500   67.907300
  C      9.540850   26.672700   67.608600
  C      9.020050   25.830500   66.672000
  H     11.360500   26.799000   68.764700
  C      8.779170   27.672200   68.497700
  H      8.527350   27.167000   69.410000
  H      7.815190   27.737400   68.076100
  C      9.374950   29.037900   68.779100
  H      9.455810   29.715100   67.989000
  H     10.355400   28.938600   69.256100
  C      8.503150   29.674500   69.810700
  H      8.404750   29.004700   70.643100
  H      7.390190   29.876600   69.490900
  H      9.042650   30.635300   70.123300
  H      4.650970   24.456500   64.947500
  H     12.405400   24.895500   67.312800

 Total Charge           Charge          ....    0
 Multiplicity           Mult            ....    1
 Number of Electrons    NEL             ....  134
 Basis Dimension        Dim             ....  322

ORBITAL ENERGIES
----------------

  NO   OCC          E(Eh)            E(eV)
   0   2.0000     -88.963299     -2420.8144
   1   2.0000     -88.959316     -2420.7061
   2   2.0000     -10.324507      -280.9441
   3   2.0000     -10.317132      -280.7434
   4   2.0000     -10.315585      -280.7014
   5   2.0000     -10.313185      -280.6360
   6   2.0000     -10.307460      -280.4802
   7   2.0000     -10.301576      -280.3201
   8   2.0000     -10.301218      -280.3104
   9   2.0000     -10.299503      -280.2637
  10   2.0000     -10.291545      -280.0472
  11   2.0000     -10.288615      -279.9674
  12   2.0000     -10.287207      -279.9291
  13   2.0000     -10.287047      -279.9248
  14   2.0000     -10.282684      -279.8061
  15   2.0000     -10.280300      -279.7412
  16   2.0000      -8.078058      -219.8151
  17   2.0000      -8.075233      -219.7383
  18   2.0000      -6.036609      -164.2645
  19   2.0000      -6.033594      -164.1824
  20   2.0000      -6.032554      -164.1541
  21   2.0000      -6.029758      -164.0781
  22   2.0000      -6.028778      -164.0514
  23   2.0000      -6.025879      -163.9725
  24   2.0000      -1.013341       -27.5744
  25   2.0000      -0.986069       -26.8323
  26   2.0000      -0.920020       -25.0350
  27   2.0000      -0.909880       -24.7591
  28   2.0000      -0.867999       -23.6194
  29   2.0000      -0.857842       -23.3431
  30   2.0000      -0.847893       -23.0723
  31   2.0000      -0.813526       -22.1372
  32   2.0000      -0.782553       -21.2944
  33   2.0000      -0.772909       -21.0319
  34   2.0000      -0.711559       -19.3625
  35   2.0000      -0.704195       -19.1621
  36   2.0000      -0.696398       -18.9500
  37   2.0000      -0.662131       -18.0175
  38   2.0000      -0.647075       -17.6078
  39   2.0000      -0.606595       -16.5063
  40   2.0000      -0.597068       -16.2471
  41   2.0000      -0.573705       -15.6113
  42   2.0000      -0.568908       -15.4808
  43   2.0000      -0.556427       -15.1411
  44   2.0000      -0.538767       -14.6606
  45   2.0000      -0.532973       -14.5029
  46   2.0000      -0.516937       -14.0666
  47   2.0000      -0.512088       -13.9346
  48   2.0000      -0.503609       -13.7039
  49   2.0000      -0.496831       -13.5195
  50   2.0000      -0.489465       -13.3190
  51   2.0000      -0.475547       -12.9403
  52   2.0000      -0.473321       -12.8797
  53   2.0000      -0.467458       -12.7202
  54   2.0000      -0.452381       -12.3099
  55   2.0000      -0.448326       -12.1996
  56   2.0000      -0.446072       -12.1382
  57   2.0000      -0.441696       -12.0192
  58   2.0000      -0.434644       -11.8273
  59   2.0000      -0.428554       -11.6616
  60   2.0000      -0.420110       -11.4318
  61   2.0000      -0.413549       -11.2532
  62   2.0000      -0.406846       -11.0708
  63   2.0000      -0.345408        -9.3990
  64   2.0000      -0.330946        -9.0055
  65   2.0000      -0.324764        -8.8373
  66   2.0000      -0.292333        -7.9548
  67   0.0000       0.034515         0.9392
  68   0.0000       0.066452         1.8082
  69   0.0000       0.110157         2.9975
  70   0.0000       0.124702         3.3933
  71   0.0000       0.131088         3.5671

MULLIKEN ATOMIC CHARGES
-----------------------
   0 S :    0.100525
   1 C :   -0.138065
   2 C :   -0.040550
   3 C :    0.008442
   4 C :   -0.163431
   5 H :    0.026048
   6 C :    0.021092
   7 H :    0.047734
   8 H :    0.037394
   9 C :   -0.075541
  10 H :    0.030248
  11 H :    0.035398
  12 C :   -0.043210
  13 H :    0.034398
  14 H :    0.052029
  15 H :    0.008463
  16 S :    0.097319
  17 C :   -0.069445
  18 C :   -0.043971
  19 C :   -0.013553
  20 C :   -0.167766
  21 H :    0.017013
  22 C :    0.066743
  23 H :    0.027315
  24 H :   -0.003454
  25 C :   -0.018410
  26 H :    0.023484
  27 H :    0.027178
  28 C :   -0.090784
  29 H :    0.020783
  30 H :    0.044101
  31 H :    0.043973
  32 H :    0.046539
  33 H :    0.051964
Sum of atomic charges:    0.0000000

LOEWDIN ATOMIC CHARGES
----------------------
   0 S :    0.409012
   1 C :   -0.190662
   2 C :   -0.058977
   3 C :   -0.076809
   4 C :   -0.212177
   5 H :    0.043538
   6 C :   -0.044964
   7 H :    0.045426
   8 H :    0.039081
   9 C :   -0.047612
  10 H :    0.030937
  11 H :    0.027964
  12 C :   -0.079816
  13 H :    0.028770
  14 H :    0.039646
  15 H :    0.021247
  16 S :    0.397127
  17 C :   -0.187100
  18 C :   -0.070058
  19 C :   -0.062212
  20 C :   -0.182635
  21 H :    0.026632
  22 C :   -0.026677
  23 H :    0.035089
  24 H :    0.024491
  25 C :   -0.036279
  26 H :    0.019197
  27 H :    0.027137
  28 C :   -0.069096
  29 H :    0.016312
  30 H :    0.033678
  31 H :    0.033301
  32 H :    0.021178
  33 H :    0.025312

  Mayer bond orders larger than 0.100000
B(  0-S ,  1-C ) :   1.1324 B(  0-S ,  4-C ) :   1.1562 B(  1-C ,  2-C ) :   1.5796
B(  1-C , 32-H ) :   0.9821 B(  2-C ,  3-C ) :   1.2084 B(  2-C ,  6-C ) :   1.0155
B(  3-C ,  4-C ) :   1.6124 B(  3-C ,  5-H ) :   0.9899 B(  4-C , 20-C ) :   1.0017
B(  6-C ,  7-H ) :   0.9227 B(  6-C ,  8-H ) :   0.9482 B(  6-C ,  9-C ) :   1.0747
B(  9-C , 10-H ) :   0.9510 B(  9-C , 11-H ) :   0.9516 B(  9-C , 12-C ) :   1.0778
B( 12-C , 13-H ) :   0.9714 B( 12-C , 14-H ) :   0.9721 B( 12-C , 15-H ) :   0.9678
B( 16-S , 17-C ) :   1.1457 B( 16-S , 20-C ) :   1.1442 B( 17-C , 18-C ) :   1.6074
B( 17-C , 20-C ) :   0.1013 B( 17-C , 33-H ) :   0.9726 B( 18-C , 19-C ) :   1.2414
B( 18-C , 21-H ) :   0.9810 B( 19-C , 20-C ) :   1.6317 B( 19-C , 22-C ) :   1.0276
B( 22-C , 23-H ) :   0.9379 B( 22-C , 24-H ) :   0.9252 B( 22-C , 25-C ) :   1.0668
B( 25-C , 26-H ) :   0.9530 B( 25-C , 27-H ) :   0.9477 B( 25-C , 28-C ) :   1.0877
B( 28-C , 29-H ) :   0.9733 B( 28-C , 30-H ) :   0.9711 B( 28-C , 31-H ) :   0.9712

Dispersion correction           -0.013600348
FINAL SINGLE POINT ENERGY     -1339.854464841757

DIPOLE MOMENT
-------------
                                X             Y             Z
Electronic contribution:     16.14041     -23.23009      -6.84159
Nuclear contribution   :    -16.37204      23.91201       6.90988
                        -----------------------------------------
Total Dipole Moment    :     -0.23163       0.68192       0.06829
                        -----------------------------------------
Magnitude (a.u.)       :      0.72342
Magnitude (Debye)      :      1.83878

Rotational constants in cm-1:     0.018022     0.008426     0.006176
Rotational constants in MHz :   540.290102   252.599857   185.158547

                             ****ORCA TERMINATED NORMALLY****
TOTAL RUN TIME: 0 days 0 hours 0 minutes 33 seconds 618 msec
