                         Program Version 4.2.1 -  RELEASE  -
|  1> ! wB97X-D3 SP def2-SVP
|  2> %pal
|  3> nprocs 16
|  4> end
|  5>
|  6> * xyz 0 1
|  7> S 	 47.275 	 19.1766 	 77.0667
|  8> C 	 46.8086 	 19.7682 	 78.6759
|  9> C 	 46.8029 	 18.7562 	 79.6
| 10> C 	 47.0309 	 17.4734 	 78.9815
| 11> C 	 47.4668 	 17.5862 	 77.6747
| 12> H 	 47.028 	 16.618 	 79.5711
| 13> C 	 46.4873 	 18.9481 	 81.1151
| 14> H 	 46.2355 	 17.9416 	 81.4718
| 15> H 	 45.5639 	 19.5793 	 81.287
| 16> C 	 47.491 	 19.5857 	 81.9985
| 17> H 	 47.7737 	 20.5962 	 81.8631
| 18> H 	 47.0189 	 19.57 	 83.0415
| 19> C 	 48.8235 	 18.7508 	 82.0733
| 20> H 	 49.4557 	 18.8477 	 81.1655
| 21> H 	 49.3501 	 19.2202 	 82.8392
| 22> H 	 48.7183 	 17.6075 	 82.0406
| 23> S 	 46.7788 	 15.4965 	 75.8948
| 24> C 	 48.0134 	 14.3627 	 75.4038
| 25> C 	 49.2071 	 14.6942 	 75.9964
| 26> C 	 49.1143 	 15.7532 	 76.9279
| 27> C 	 47.8991 	 16.4482 	 76.8505
| 28> H 	 50.163 	 14.1874 	 75.8132
| 29> C 	 50.2439 	 16.186 	 77.8186
| 30> H 	 50.9886 	 15.3902 	 77.9372
| 31> H 	 49.8503 	 16.3595 	 78.8236
| 32> C 	 50.9307 	 17.3983 	 77.2656
| 33> H 	 51.8195 	 17.548 	 77.9292
| 34> H 	 50.342 	 18.2767 	 77.4354
| 35> C 	 51.4407 	 17.3385 	 75.8292
| 36> H 	 51.9298 	 18.2325 	 75.5117
| 37> H 	 50.6146 	 17.1098 	 75.1968
| 38> H 	 52.2145 	 16.5643 	 75.7303
| 39> H 	 46.4464 	 20.7231 	 78.9826
| 40> H 	 47.8211 	 13.5564 	 74.6684
| 41> *
| 42>
| 43>                          ****END OF INPUT****

CARTESIAN COORDINATES (ANGSTROEM)
---------------------------------
  S     47.275000   19.176600   77.066700
  C     46.808600   19.768200   78.675900
  C     46.802900   18.756200   79.600000
  C     47.030900   17.473400   78.981500
  C     47.466800   17.586200   77.674700
  H     47.028000   16.618000   79.571100
  C     46.487300   18.948100   81.115100
  H     46.235500   17.941600   81.471800
  H     45.563900   19.579300   81.287000
  C     47.491000   19.585700   81.998500
  H     47.773700   20.596200   81.863100
  H     47.018900   19.570000   83.041500
  C     48.823500   18.750800   82.073300
  H     49.455700   18.847700   81.165500
  H     49.350100   19.220200   82.839200
  H     48.718300   17.607500   82.040600
  S     46.778800   15.496500   75.894800
  C     48.013400   14.362700   75.403800
  C     49.207100   14.694200   75.996400
  C     49.114300   15.753200   76.927900
  C     47.899100   16.448200   76.850500
  H     50.163000   14.187400   75.813200
  C     50.243900   16.186000   77.818600
  H     50.988600   15.390200   77.937200
  H     49.850300   16.359500   78.823600
  C     50.930700   17.398300   77.265600
  H     51.819500   17.548000   77.929200
  H     50.342000   18.276700   77.435400
  C     51.440700   17.338500   75.829200
  H     51.929800   18.232500   75.511700
  H     50.614600   17.109800   75.196800
  H     52.214500   16.564300   75.730300
  H     46.446400   20.723100   78.982600
  H     47.821100   13.556400   74.668400

 Total Charge           Charge          ....    0
 Multiplicity           Mult            ....    1
 Number of Electrons    NEL             ....  134
 Basis Dimension        Dim             ....  322

ORBITAL ENERGIES
----------------

  NO   OCC          E(Eh)            E(eV)
   0   2.0000     -88.971706     -2421.0432
   1   2.0000     -88.963655     -2420.8241
   2   2.0000     -10.329541      -281.0811
   3   2.0000     -10.323875      -280.9269
   4   2.0000     -10.320781      -280.8427
   5   2.0000     -10.312521      -280.6180
   6   2.0000     -10.301200      -280.3099
   7   2.0000     -10.299459      -280.2625
   8   2.0000     -10.298451      -280.2351
   9   2.0000     -10.292860      -280.0830
  10   2.0000     -10.292117      -280.0627
  11   2.0000     -10.291760      -280.0530
  12   2.0000     -10.286080      -279.8985
  13   2.0000     -10.279890      -279.7300
  14   2.0000     -10.276816      -279.6464
  15   2.0000     -10.267552      -279.3943
  16   2.0000      -8.086041      -220.0324
  17   2.0000      -8.078395      -219.8243
  18   2.0000      -6.044580      -164.4814
  19   2.0000      -6.040560      -164.3720
  20   2.0000      -6.036843      -164.2709
  21   2.0000      -6.036821      -164.2703
  22   2.0000      -6.032813      -164.1612
  23   2.0000      -6.029297      -164.0655
  24   2.0000      -1.007726       -27.4216
  25   2.0000      -0.986217       -26.8363
  26   2.0000      -0.913582       -24.8598
  27   2.0000      -0.912447       -24.8290
  28   2.0000      -0.867172       -23.5970
  29   2.0000      -0.847127       -23.0515
  30   2.0000      -0.843157       -22.9435
  31   2.0000      -0.812068       -22.0975
  32   2.0000      -0.787081       -21.4176
  33   2.0000      -0.777010       -21.1435
  34   2.0000      -0.706962       -19.2374
  35   2.0000      -0.701654       -19.0930
  36   2.0000      -0.685047       -18.6411
  37   2.0000      -0.659252       -17.9392
  38   2.0000      -0.640634       -17.4325
  39   2.0000      -0.614573       -16.7234
  40   2.0000      -0.596480       -16.2311
  41   2.0000      -0.573020       -15.5927
  42   2.0000      -0.556713       -15.1489
  43   2.0000      -0.552912       -15.0455
  44   2.0000      -0.547847       -14.9077
  45   2.0000      -0.540175       -14.6989
  46   2.0000      -0.516923       -14.0662
  47   2.0000      -0.509978       -13.8772
  48   2.0000      -0.504704       -13.7337
  49   2.0000      -0.490476       -13.3465
  50   2.0000      -0.488143       -13.2830
  51   2.0000      -0.477571       -12.9954
  52   2.0000      -0.474744       -12.9185
  53   2.0000      -0.464981       -12.6528
  54   2.0000      -0.462624       -12.5886
  55   2.0000      -0.453873       -12.3505
  56   2.0000      -0.445811       -12.1311
  57   2.0000      -0.437295       -11.8994
  58   2.0000      -0.433467       -11.7952
  59   2.0000      -0.419823       -11.4240
  60   2.0000      -0.414487       -11.2788
  61   2.0000      -0.406303       -11.0561
  62   2.0000      -0.405427       -11.0322
  63   2.0000      -0.336895        -9.1674
  64   2.0000      -0.330142        -8.9836
  65   2.0000      -0.318849        -8.6763
  66   2.0000      -0.311743        -8.4830
  67   0.0000       0.041023         1.1163
  68   0.0000       0.053640         1.4596
  69   0.0000       0.111755         3.0410
  70   0.0000       0.120113         3.2684
  71   0.0000       0.126796         3.4503

MULLIKEN ATOMIC CHARGES
-----------------------
   0 S :    0.131441
   1 C :   -0.100920
   2 C :   -0.111355
   3 C :    0.086036
   4 C :   -0.184423
   5 H :   -0.012292
   6 C :    0.054939
   7 H :    0.020932
   8 H :    0.039371
   9 C :   -0.067077
  10 H :    0.027093
  11 H :    0.037917
  12 C :   -0.075233
  13 H :    0.037284
  14 H :    0.027957
  15 H :    0.037450
  16 S :    0.110888
  17 C :   -0.107768
  18 C :   -0.019260
  19 C :   -0.087260
  20 C :   -0.151622
  21 H :    0.023598
  22 C :    0.117654
  23 H :    0.012737
  24 H :    0.024984
  25 C :   -0.087922
  26 H :    0.021011
  27 H :    0.026309
  28 C :   -0.025191
  29 H :    0.029309
  30 H :    0.041186
  31 H :    0.017761
  32 H :    0.029216
  33 H :    0.075252
Sum of atomic charges:   -0.0000000

LOEWDIN ATOMIC CHARGES
----------------------
   0 S :    0.422943
   1 C :   -0.188866
   2 C :   -0.062089
   3 C :   -0.049549
   4 C :   -0.207353
   5 H :    0.019118
   6 C :   -0.037231
   7 H :    0.030574
   8 H :    0.038303
   9 C :   -0.041272
  10 H :    0.019725
  11 H :    0.034892
  12 C :   -0.075129
  13 H :    0.028065
  14 H :    0.017143
  15 H :    0.032309
  16 S :    0.410015
  17 C :   -0.188438
  18 C :   -0.079349
  19 C :   -0.051641
  20 C :   -0.212993
  21 H :    0.034447
  22 C :   -0.032291
  23 H :    0.028100
  24 H :    0.034683
  25 C :   -0.040969
  26 H :    0.024898
  27 H :    0.016571
  28 C :   -0.059261
  29 H :    0.025348
  30 H :    0.022485
  31 H :    0.023348
  32 H :    0.024814
  33 H :    0.038648

  Mayer bond orders larger than 0.100000
B(  0-S ,  1-C ) :   1.1297 B(  0-S ,  4-C ) :   1.1611 B(  1-C ,  2-C ) :   1.6337
B(  1-C , 32-H ) :   0.9698 B(  2-C ,  3-C ) :   1.2475 B(  2-C ,  6-C ) :   1.0033
B(  3-C ,  4-C ) :   1.5721 B(  3-C ,  5-H ) :   0.9986 B(  4-C , 20-C ) :   1.0043
B(  6-C ,  7-H ) :   0.9408 B(  6-C ,  8-H ) :   0.9415 B(  6-C ,  9-C ) :   1.0872
B(  9-C , 10-H ) :   0.9549 B(  9-C , 11-H ) :   0.9538 B(  9-C , 12-C ) :   1.0627
B( 12-C , 13-H ) :   0.9729 B( 12-C , 14-H ) :   0.9759 B( 12-C , 15-H ) :   0.9764
B( 16-S , 17-C ) :   1.1731 B( 16-S , 20-C ) :   1.1502 B( 17-C , 18-C ) :   1.5687
B( 17-C , 20-C ) :   0.1068 B( 17-C , 33-H ) :   0.9655 B( 18-C , 19-C ) :   1.2765
B( 18-C , 21-H ) :   0.9864 B( 19-C , 20-C ) :   1.5642 B( 19-C , 22-C ) :   1.0536
B( 22-C , 23-H ) :   0.9309 B( 22-C , 24-H ) :   0.9186 B( 22-C , 25-C ) :   1.0832
B( 25-C , 26-H ) :   0.9529 B( 25-C , 27-H ) :   0.9547 B( 25-C , 28-C ) :   1.0792
B( 28-C , 29-H ) :   0.9714 B( 28-C , 30-H ) :   0.9706 B( 28-C , 31-H ) :   0.9732

Dispersion correction           -0.016083793
FINAL SINGLE POINT ENERGY     -1339.873672357948

DIPOLE MOMENT
-------------
                                X             Y             Z
Electronic contribution:    -16.15504      -4.83631     -17.76990
Nuclear contribution   :     16.42887       4.83705      18.30121
                        -----------------------------------------
Total Dipole Moment    :      0.27383       0.00074       0.53131
                        -----------------------------------------
Magnitude (a.u.)       :      0.59772
Magnitude (Debye)      :      1.51929

Rotational constants in cm-1:     0.020858     0.008875     0.007842
Rotational constants in MHz :   625.301107   266.075130   235.101044

                             ****ORCA TERMINATED NORMALLY****
TOTAL RUN TIME: 0 days 0 hours 0 minutes 32 seconds 366 msec
