                         Program Version 4.2.1 -  RELEASE  -
|  1> ! wB97X-D3 SP def2-SVP
|  2> %pal
|  3> nprocs 16
|  4> end
|  5>
|  6> * xyz 0 1
|  7> S 	 44.0602 	 3.90171 	 87.0713
|  8> C 	 44.0411 	 5.63692 	 87.5297
|  9> C 	 45.2785 	 6.09196 	 87.7788
| 10> C 	 46.3156 	 5.07733 	 87.5181
| 11> C 	 45.8128 	 3.87561 	 87.0093
| 12> H 	 47.3837 	 5.2374 	 87.5277
| 13> C 	 45.6743 	 7.49926 	 88.172
| 14> H 	 45.1309 	 7.77906 	 89.0053
| 15> H 	 45.2023 	 8.08445 	 87.3694
| 16> C 	 47.242 	 7.77998 	 88.4227
| 17> H 	 47.248 	 8.78287 	 88.8931
| 18> H 	 47.681 	 7.02634 	 89.1506
| 19> C 	 48.0288 	 7.85954 	 87.1362
| 20> H 	 47.641 	 8.61062 	 86.4492
| 21> H 	 48.9893 	 8.0893 	 87.3632
| 22> H 	 48.143 	 6.85008 	 86.6563
| 23> S 	 45.4812 	 1.52228 	 85.4539
| 24> C 	 46.9227 	 0.568837 	 85.0949
| 25> C 	 48.0591 	 1.006 	 85.6847
| 26> C 	 47.7967 	 2.24088 	 86.398
| 27> C 	 46.4639 	 2.68459 	 86.4074
| 28> H 	 49.0474 	 0.515762 	 85.5399
| 29> C 	 49.0458 	 2.94619 	 87.0189
| 30> H 	 49.8088 	 2.28061 	 87.3302
| 31> H 	 48.6947 	 3.38696 	 87.9256
| 32> C 	 49.5934 	 4.10417 	 86.1244
| 33> H 	 48.7204 	 4.75816 	 85.8889
| 34> H 	 49.9554 	 3.66664 	 85.2495
| 35> C 	 50.6897 	 4.91049 	 86.8459
| 36> H 	 51.5804 	 4.27393 	 86.9188
| 37> H 	 50.3426 	 5.2622 	 87.8523
| 38> H 	 50.8928 	 5.7843 	 86.3511
| 39> H 	 43.0683 	 6.21397 	 87.6043
| 40> H 	 47.0549 	 -0.327317 	 84.5179
| 41> *
| 42>
| 43>                          ****END OF INPUT****

CARTESIAN COORDINATES (ANGSTROEM)
---------------------------------
  S     44.060200    3.901710   87.071300
  C     44.041100    5.636920   87.529700
  C     45.278500    6.091960   87.778800
  C     46.315600    5.077330   87.518100
  C     45.812800    3.875610   87.009300
  H     47.383700    5.237400   87.527700
  C     45.674300    7.499260   88.172000
  H     45.130900    7.779060   89.005300
  H     45.202300    8.084450   87.369400
  C     47.242000    7.779980   88.422700
  H     47.248000    8.782870   88.893100
  H     47.681000    7.026340   89.150600
  C     48.028800    7.859540   87.136200
  H     47.641000    8.610620   86.449200
  H     48.989300    8.089300   87.363200
  H     48.143000    6.850080   86.656300
  S     45.481200    1.522280   85.453900
  C     46.922700    0.568837   85.094900
  C     48.059100    1.006000   85.684700
  C     47.796700    2.240880   86.398000
  C     46.463900    2.684590   86.407400
  H     49.047400    0.515762   85.539900
  C     49.045800    2.946190   87.018900
  H     49.808800    2.280610   87.330200
  H     48.694700    3.386960   87.925600
  C     49.593400    4.104170   86.124400
  H     48.720400    4.758160   85.888900
  H     49.955400    3.666640   85.249500
  C     50.689700    4.910490   86.845900
  H     51.580400    4.273930   86.918800
  H     50.342600    5.262200   87.852300
  H     50.892800    5.784300   86.351100
  H     43.068300    6.213970   87.604300
  H     47.054900   -0.327317   84.517900

 Total Charge           Charge          ....    0
 Multiplicity           Mult            ....    1
 Number of Electrons    NEL             ....  134
 Basis Dimension        Dim             ....  322

ORBITAL ENERGIES
----------------

  NO   OCC          E(Eh)            E(eV)
   0   2.0000     -88.970306     -2421.0051
   1   2.0000     -88.960526     -2420.7390
   2   2.0000     -10.337859      -281.3074
   3   2.0000     -10.337772      -281.3051
   4   2.0000     -10.316234      -280.7190
   5   2.0000     -10.315695      -280.7043
   6   2.0000     -10.310189      -280.5545
   7   2.0000     -10.303258      -280.3659
   8   2.0000     -10.302943      -280.3573
   9   2.0000     -10.297260      -280.2027
  10   2.0000     -10.295666      -280.1593
  11   2.0000     -10.292172      -280.0642
  12   2.0000     -10.288858      -279.9741
  13   2.0000     -10.287497      -279.9370
  14   2.0000     -10.279429      -279.7175
  15   2.0000     -10.274901      -279.5943
  16   2.0000      -8.083672      -219.9679
  17   2.0000      -8.074956      -219.7307
  18   2.0000      -6.042535      -164.4257
  19   2.0000      -6.038441      -164.3143
  20   2.0000      -6.034053      -164.1949
  21   2.0000      -6.033735      -164.1863
  22   2.0000      -6.029651      -164.0752
  23   2.0000      -6.025328      -163.9575
  24   2.0000      -0.999063       -27.1859
  25   2.0000      -0.978190       -26.6179
  26   2.0000      -0.909317       -24.7438
  27   2.0000      -0.905979       -24.6530
  28   2.0000      -0.872046       -23.7296
  29   2.0000      -0.847986       -23.0749
  30   2.0000      -0.840466       -22.8702
  31   2.0000      -0.818069       -22.2608
  32   2.0000      -0.786555       -21.4032
  33   2.0000      -0.774253       -21.0685
  34   2.0000      -0.711604       -19.3637
  35   2.0000      -0.701036       -19.0762
  36   2.0000      -0.690780       -18.7971
  37   2.0000      -0.658826       -17.9276
  38   2.0000      -0.635083       -17.2815
  39   2.0000      -0.624669       -16.9981
  40   2.0000      -0.590799       -16.0765
  41   2.0000      -0.572293       -15.5729
  42   2.0000      -0.566993       -15.4287
  43   2.0000      -0.554216       -15.0810
  44   2.0000      -0.528913       -14.3925
  45   2.0000      -0.524312       -14.2673
  46   2.0000      -0.517961       -14.0944
  47   2.0000      -0.512422       -13.9437
  48   2.0000      -0.506976       -13.7955
  49   2.0000      -0.501374       -13.6431
  50   2.0000      -0.496208       -13.5025
  51   2.0000      -0.481601       -13.1050
  52   2.0000      -0.478728       -13.0268
  53   2.0000      -0.463038       -12.5999
  54   2.0000      -0.460013       -12.5176
  55   2.0000      -0.448738       -12.2108
  56   2.0000      -0.444610       -12.0984
  57   2.0000      -0.438431       -11.9303
  58   2.0000      -0.433544       -11.7973
  59   2.0000      -0.428651       -11.6642
  60   2.0000      -0.421367       -11.4660
  61   2.0000      -0.414695       -11.2844
  62   2.0000      -0.409715       -11.1489
  63   2.0000      -0.361437        -9.8352
  64   2.0000      -0.333972        -9.0878
  65   2.0000      -0.324115        -8.8196
  66   2.0000      -0.284628        -7.7451
  67   0.0000       0.019373         0.5272
  68   0.0000       0.080311         2.1854
  69   0.0000       0.098500         2.6803
  70   0.0000       0.120884         3.2894
  71   0.0000       0.126276         3.4361

MULLIKEN ATOMIC CHARGES
-----------------------
   0 S :    0.070424
   1 C :   -0.169799
   2 C :   -0.060472
   3 C :    0.003505
   4 C :   -0.102264
   5 H :   -0.024284
   6 C :    0.082028
   7 H :    0.015890
   8 H :    0.035692
   9 C :   -0.113986
  10 H :    0.038042
  11 H :    0.052303
  12 C :    0.003829
  13 H :    0.038188
  14 H :    0.005157
  15 H :    0.023050
  16 S :    0.104336
  17 C :   -0.056401
  18 C :   -0.045192
  19 C :   -0.090039
  20 C :   -0.098374
  21 H :    0.037984
  22 C :    0.065321
  23 H :    0.011353
  24 H :    0.009538
  25 C :   -0.074992
  26 H :    0.036280
  27 H :    0.015138
  28 C :   -0.007234
  29 H :    0.038009
  30 H :    0.024635
  31 H :    0.018525
  32 H :    0.069099
  33 H :    0.044710
Sum of atomic charges:    0.0000000

LOEWDIN ATOMIC CHARGES
----------------------
   0 S :    0.368358
   1 C :   -0.195504
   2 C :   -0.058523
   3 C :   -0.075601
   4 C :   -0.170851
   5 H :    0.020500
   6 C :   -0.030300
   7 H :    0.021383
   8 H :    0.040240
   9 C :   -0.039144
  10 H :    0.030843
  11 H :    0.033772
  12 C :   -0.062126
  13 H :    0.030643
  14 H :    0.011266
  15 H :    0.028695
  16 S :    0.380624
  17 C :   -0.174622
  18 C :   -0.078137
  19 C :   -0.045473
  20 C :   -0.189512
  21 H :    0.042389
  22 C :   -0.026061
  23 H :    0.021829
  24 H :    0.020592
  25 C :   -0.031318
  26 H :    0.024728
  27 H :    0.015083
  28 C :   -0.057792
  29 H :    0.029509
  30 H :    0.027461
  31 H :    0.013271
  32 H :    0.042178
  33 H :    0.031600

  Mayer bond orders larger than 0.100000
B(  0-S ,  1-C ) :   1.0974 B(  0-S ,  4-C ) :   1.1403 B(  1-C ,  2-C ) :   1.6725
B(  1-C , 32-H ) :   0.9658 B(  2-C ,  3-C ) :   1.2044 B(  2-C ,  6-C ) :   0.9887
B(  3-C ,  4-C ) :   1.5903 B(  3-C ,  5-H ) :   0.9803 B(  4-C , 20-C ) :   1.0727
B(  6-C ,  7-H ) :   0.9360 B(  6-C ,  8-H ) :   0.9392 B(  6-C ,  9-C ) :   1.0737
B(  9-C , 10-H ) :   0.9527 B(  9-C , 11-H ) :   0.9514 B(  9-C , 12-C ) :   1.0839
B( 12-C , 13-H ) :   0.9677 B( 12-C , 14-H ) :   0.9633 B( 12-C , 15-H ) :   0.9692
B( 16-S , 17-C ) :   1.1366 B( 16-S , 20-C ) :   1.1022 B( 17-C , 18-C ) :   1.6558
B( 17-C , 33-H ) :   0.9577 B( 18-C , 19-C ) :   1.2276 B( 18-C , 21-H ) :   0.9813
B( 19-C , 20-C ) :   1.6202 B( 19-C , 22-C ) :   1.0373 B( 22-C , 23-H ) :   0.9415
B( 22-C , 24-H ) :   0.9318 B( 22-C , 25-C ) :   1.0554 B( 25-C , 26-H ) :   0.9517
B( 25-C , 27-H ) :   0.9520 B( 25-C , 28-C ) :   1.0838 B( 28-C , 29-H ) :   0.9731
B( 28-C , 30-H ) :   0.9718 B( 28-C , 31-H ) :   0.9713

Dispersion correction           -0.015861512
FINAL SINGLE POINT ENERGY     -1339.861616322716

DIPOLE MOMENT
-------------
                                X             Y             Z
Electronic contribution:    -24.50356     -21.18298      -5.25286
Nuclear contribution   :     25.26045      21.68427       5.30052
                        -----------------------------------------
Total Dipole Moment    :      0.75689       0.50129       0.04766
                        -----------------------------------------
Magnitude (a.u.)       :      0.90909
Magnitude (Debye)      :      2.31072

Rotational constants in cm-1:     0.016987     0.011191     0.007015
Rotational constants in MHz :   509.258679   335.483894   210.308090

                             ****ORCA TERMINATED NORMALLY****
TOTAL RUN TIME: 0 days 0 hours 0 minutes 33 seconds 196 msec
