                         Program Version 4.2.1 -  RELEASE  -
|  1> ! wB97X-D3 SP def2-SVP
|  2> %pal
|  3> nprocs 16
|  4> end
|  5>
|  6> * xyz 0 1
|  7> S 	 -37.8878 	 68.6813 	 172.385
|  8> C 	 -36.8875 	 69.2506 	 171.033
|  9> C 	 -35.5698 	 69.1254 	 171.278
| 10> C 	 -35.2925 	 68.7555 	 172.63
| 11> C 	 -36.4432 	 68.4636 	 173.396
| 12> H 	 -34.3176 	 68.5295 	 173.086
| 13> C 	 -34.4632 	 69.48 	 170.26
| 14> H 	 -34.8252 	 69.4441 	 169.215
| 15> H 	 -33.7022 	 68.7213 	 170.314
| 16> C 	 -33.6959 	 70.7764 	 170.516
| 17> H 	 -34.4532 	 71.6068 	 170.499
| 18> H 	 -33.2526 	 70.7648 	 171.552
| 19> C 	 -32.6604 	 71.1184 	 169.434
| 20> H 	 -32.3517 	 72.1428 	 169.73
| 21> H 	 -31.7455 	 70.58 	 169.69
| 22> H 	 -32.9336 	 70.8913 	 168.45
| 23> S 	 -37.9499 	 69.1261 	 175.654
| 24> C 	 -37.3976 	 68.6981 	 177.239
| 25> C 	 -36.1688 	 68.0726 	 177.17
| 26> C 	 -35.7422 	 67.8452 	 175.842
| 27> C 	 -36.5656 	 68.4026 	 174.867
| 28> H 	 -35.6219 	 67.8004 	 178.066
| 29> C 	 -34.4895 	 67.0531 	 175.523
| 30> H 	 -34.4535 	 66.8503 	 174.476
| 31> H 	 -34.666 	 66.1186 	 176.017
| 32> C 	 -33.1785 	 67.5323 	 176.121
| 33> H 	 -32.3479 	 66.8283 	 176.033
| 34> H 	 -33.2613 	 67.5583 	 177.246
| 35> C 	 -32.6535 	 68.9901 	 175.76
| 36> H 	 -33.4214 	 69.7173 	 175.891
| 37> H 	 -32.3378 	 69.0645 	 174.756
| 38> H 	 -31.7861 	 69.1776 	 176.363
| 39> H 	 -37.2594 	 69.6681 	 170.146
| 40> H 	 -37.9195 	 68.9503 	 178.155
| 41> *
| 42>
| 43>                          ****END OF INPUT****

CARTESIAN COORDINATES (ANGSTROEM)
---------------------------------
  S    -37.887800   68.681300  172.385000
  C    -36.887500   69.250600  171.033000
  C    -35.569800   69.125400  171.278000
  C    -35.292500   68.755500  172.630000
  C    -36.443200   68.463600  173.396000
  H    -34.317600   68.529500  173.086000
  C    -34.463200   69.480000  170.260000
  H    -34.825200   69.444100  169.215000
  H    -33.702200   68.721300  170.314000
  C    -33.695900   70.776400  170.516000
  H    -34.453200   71.606800  170.499000
  H    -33.252600   70.764800  171.552000
  C    -32.660400   71.118400  169.434000
  H    -32.351700   72.142800  169.730000
  H    -31.745500   70.580000  169.690000
  H    -32.933600   70.891300  168.450000
  S    -37.949900   69.126100  175.654000
  C    -37.397600   68.698100  177.239000
  C    -36.168800   68.072600  177.170000
  C    -35.742200   67.845200  175.842000
  C    -36.565600   68.402600  174.867000
  H    -35.621900   67.800400  178.066000
  C    -34.489500   67.053100  175.523000
  H    -34.453500   66.850300  174.476000
  H    -34.666000   66.118600  176.017000
  C    -33.178500   67.532300  176.121000
  H    -32.347900   66.828300  176.033000
  H    -33.261300   67.558300  177.246000
  C    -32.653500   68.990100  175.760000
  H    -33.421400   69.717300  175.891000
  H    -32.337800   69.064500  174.756000
  H    -31.786100   69.177600  176.363000
  H    -37.259400   69.668100  170.146000
  H    -37.919500   68.950300  178.155000

 Total Charge           Charge          ....    0
 Multiplicity           Mult            ....    1
 Number of Electrons    NEL             ....  134
 Basis Dimension        Dim             ....  322

ORBITAL ENERGIES
----------------

  NO   OCC          E(Eh)            E(eV)
   0   2.0000     -88.966679     -2420.9064
   1   2.0000     -88.965306     -2420.8691
   2   2.0000     -10.338153      -281.3154
   3   2.0000     -10.329669      -281.0846
   4   2.0000     -10.318219      -280.7730
   5   2.0000     -10.310325      -280.5582
   6   2.0000     -10.301932      -280.3298
   7   2.0000     -10.301518      -280.3186
   8   2.0000     -10.300581      -280.2931
   9   2.0000     -10.294312      -280.1225
  10   2.0000     -10.294076      -280.1160
  11   2.0000     -10.293582      -280.1026
  12   2.0000     -10.292253      -280.0664
  13   2.0000     -10.287392      -279.9342
  14   2.0000     -10.278907      -279.7033
  15   2.0000     -10.271688      -279.5068
  16   2.0000      -8.080683      -219.8866
  17   2.0000      -8.080328      -219.8769
  18   2.0000      -6.039316      -164.3381
  19   2.0000      -6.038861      -164.3258
  20   2.0000      -6.035354      -164.2303
  21   2.0000      -6.034643      -164.2110
  22   2.0000      -6.031290      -164.1198
  23   2.0000      -6.031180      -164.1168
  24   2.0000      -1.006472       -27.3875
  25   2.0000      -0.984603       -26.7924
  26   2.0000      -0.910307       -24.7707
  27   2.0000      -0.908072       -24.7099
  28   2.0000      -0.871159       -23.7055
  29   2.0000      -0.848597       -23.0915
  30   2.0000      -0.842410       -22.9232
  31   2.0000      -0.815858       -22.2006
  32   2.0000      -0.788233       -21.4489
  33   2.0000      -0.779041       -21.1988
  34   2.0000      -0.709148       -19.2969
  35   2.0000      -0.699603       -19.0372
  36   2.0000      -0.692077       -18.8324
  37   2.0000      -0.659775       -17.9534
  38   2.0000      -0.641956       -17.4685
  39   2.0000      -0.618922       -16.8417
  40   2.0000      -0.596531       -16.2324
  41   2.0000      -0.570046       -15.5117
  42   2.0000      -0.564660       -15.3652
  43   2.0000      -0.552741       -15.0409
  44   2.0000      -0.543802       -14.7976
  45   2.0000      -0.530238       -14.4285
  46   2.0000      -0.519609       -14.1393
  47   2.0000      -0.508183       -13.8284
  48   2.0000      -0.504201       -13.7200
  49   2.0000      -0.500472       -13.6185
  50   2.0000      -0.495551       -13.4846
  51   2.0000      -0.480588       -13.0775
  52   2.0000      -0.473089       -12.8734
  53   2.0000      -0.471278       -12.8241
  54   2.0000      -0.461185       -12.5495
  55   2.0000      -0.451213       -12.2781
  56   2.0000      -0.446556       -12.1514
  57   2.0000      -0.442016       -12.0279
  58   2.0000      -0.435269       -11.8443
  59   2.0000      -0.421672       -11.4743
  60   2.0000      -0.414821       -11.2879
  61   2.0000      -0.412776       -11.2322
  62   2.0000      -0.407702       -11.0941
  63   2.0000      -0.355175        -9.6648
  64   2.0000      -0.332627        -9.0513
  65   2.0000      -0.330963        -9.0060
  66   2.0000      -0.286495        -7.7959
  67   0.0000       0.020759         0.5649
  68   0.0000       0.080324         2.1857
  69   0.0000       0.103670         2.8210
  70   0.0000       0.122004         3.3199
  71   0.0000       0.129481         3.5234

MULLIKEN ATOMIC CHARGES
-----------------------
   0 S :    0.093304
   1 C :   -0.112581
   2 C :   -0.041566
   3 C :    0.012923
   4 C :   -0.151270
   5 H :    0.016795
   6 C :    0.071129
   7 H :    0.021348
   8 H :    0.014348
   9 C :   -0.132643
  10 H :    0.030925
  11 H :    0.040179
  12 C :   -0.006825
  13 H :    0.038367
  14 H :    0.020593
  15 H :    0.034098
  16 S :    0.105399
  17 C :   -0.094445
  18 C :   -0.030539
  19 C :   -0.071984
  20 C :   -0.125887
  21 H :    0.020169
  22 C :    0.120935
  23 H :    0.017371
  24 H :    0.024849
  25 C :   -0.117193
  26 H :    0.029188
  27 H :    0.022572
  28 C :   -0.023670
  29 H :    0.039034
  30 H :    0.018891
  31 H :    0.028558
  32 H :    0.026066
  33 H :    0.061562
Sum of atomic charges:   -0.0000000

LOEWDIN ATOMIC CHARGES
----------------------
   0 S :    0.379320
   1 C :   -0.174230
   2 C :   -0.062110
   3 C :   -0.062813
   4 C :   -0.178452
   5 H :    0.031345
   6 C :   -0.032854
   7 H :    0.029790
   8 H :    0.025774
   9 C :   -0.046895
  10 H :    0.022386
  11 H :    0.029451
  12 C :   -0.062174
  13 H :    0.037528
  14 H :    0.025659
  15 H :    0.018142
  16 S :    0.414870
  17 C :   -0.186321
  18 C :   -0.073048
  19 C :   -0.059508
  20 C :   -0.202319
  21 H :    0.032446
  22 C :   -0.031192
  23 H :    0.024207
  24 H :    0.038141
  25 C :   -0.043266
  26 H :    0.024506
  27 H :    0.025429
  28 C :   -0.059081
  29 H :    0.024058
  30 H :    0.013697
  31 H :    0.025971
  32 H :    0.019499
  33 H :    0.032042

  Mayer bond orders larger than 0.100000
B(  0-S ,  1-C ) :   1.1220 B(  0-S ,  4-C ) :   1.1397 B(  1-C ,  2-C ) :   1.6358
B(  1-C , 32-H ) :   0.9718 B(  2-C ,  3-C ) :   1.2301 B(  2-C ,  6-C ) :   1.0236
B(  3-C ,  4-C ) :   1.5711 B(  3-C ,  5-H ) :   0.9775 B(  4-C , 20-C ) :   1.0558
B(  6-C ,  7-H ) :   0.9447 B(  6-C ,  8-H ) :   0.9352 B(  6-C ,  9-C ) :   1.0634
B(  9-C , 10-H ) :   0.9603 B(  9-C , 11-H ) :   0.9535 B(  9-C , 12-C ) :   1.0744
B( 12-C , 13-H ) :   0.9720 B( 12-C , 14-H ) :   0.9724 B( 12-C , 15-H ) :   0.9764
B( 16-S , 17-C ) :   1.1702 B( 16-S , 20-C ) :   1.1383 B( 17-C , 18-C ) :   1.5760
B( 17-C , 33-H ) :   0.9691 B( 18-C , 19-C ) :   1.2657 B( 18-C , 21-H ) :   0.9942
B( 19-C , 20-C ) :   1.5661 B( 19-C , 22-C ) :   1.0421 B( 22-C , 23-H ) :   0.9339
B( 22-C , 24-H ) :   0.9192 B( 22-C , 25-C ) :   1.0755 B( 25-C , 26-H ) :   0.9559
B( 25-C , 27-H ) :   0.9532 B( 25-C , 28-C ) :   1.0723 B( 28-C , 29-H ) :   0.9770
B( 28-C , 30-H ) :   0.9736 B( 28-C , 31-H ) :   0.9737

Dispersion correction           -0.014330308
FINAL SINGLE POINT ENERGY     -1339.880454707494

DIPOLE MOMENT
-------------
                                X             Y             Z
Electronic contribution:    -29.82072      -4.46487       6.86473
Nuclear contribution   :     30.55939       4.48845      -6.82427
                        -----------------------------------------
Total Dipole Moment    :      0.73867       0.02357       0.04046
                        -----------------------------------------
Magnitude (a.u.)       :      0.74016
Magnitude (Debye)      :      1.88133

Rotational constants in cm-1:     0.018348     0.008909     0.006585
Rotational constants in MHz :   550.070551   267.072782   197.426834

                             ****ORCA TERMINATED NORMALLY****
TOTAL RUN TIME: 0 days 0 hours 0 minutes 33 seconds 652 msec
