                         Program Version 4.2.1 -  RELEASE  -
|  1> ! wB97X-D3 SP def2-SVP
|  2> %pal
|  3> nprocs 16
|  4> end
|  5>
|  6> * xyz 0 1
|  7> S 	 21.9662 	 0.703789 	 83.0507
|  8> C 	 23.2809 	 1.22724 	 82.1262
|  9> C 	 22.8914 	 2.07616 	 81.0613
| 10> C 	 21.4552 	 2.20607 	 81.0853
| 11> C 	 20.8027 	 1.46324 	 82.0827
| 12> H 	 20.8527 	 2.83464 	 80.3834
| 13> C 	 23.8181 	 2.73111 	 80.089
| 14> H 	 23.2401 	 3.06871 	 79.1969
| 15> H 	 24.4995 	 1.94047 	 79.8559
| 16> C 	 24.5417 	 3.89889 	 80.6588
| 17> H 	 23.6536 	 4.42694 	 81.0738
| 18> H 	 25.1192 	 3.49213 	 81.4851
| 19> C 	 25.3828 	 4.6451 	 79.5898
| 20> H 	 26.4292 	 4.34517 	 79.756
| 21> H 	 25.1078 	 4.3741 	 78.6233
| 22> H 	 25.3499 	 5.69521 	 79.6314
| 23> S 	 18.8459 	 1.31575 	 83.9699
| 24> C 	 17.1735 	 1.29239 	 83.5005
| 25> C 	 17.0406 	 1.08667 	 82.1341
| 26> C 	 18.2634 	 1.19156 	 81.4704
| 27> C 	 19.3566 	 1.39425 	 82.3222
| 28> H 	 16.0237 	 1.02886 	 81.7745
| 29> C 	 18.3496 	 1.33914 	 79.9964
| 30> H 	 19.1696 	 0.656858 	 79.6092
| 31> H 	 18.4868 	 2.3921 	 79.7394
| 32> C 	 17.0552 	 0.906022 	 79.1899
| 33> H 	 16.2533 	 1.61947 	 79.3102
| 34> H 	 16.6689 	 -0.0455413 	 79.5762
| 35> C 	 17.4507 	 0.673565 	 77.6535
| 36> H 	 16.6781 	 1.10597 	 77.0265
| 37> H 	 17.4773 	 -0.438614 	 77.4345
| 38> H 	 18.4158 	 1.135 	 77.4567
| 39> H 	 24.3206 	 1.07509 	 82.2872
| 40> H 	 16.3562 	 1.29386 	 84.2085
| 41> *
| 42>
| 43>                          ****END OF INPUT****

CARTESIAN COORDINATES (ANGSTROEM)
---------------------------------
  S     21.966200    0.703789   83.050700
  C     23.280900    1.227240   82.126200
  C     22.891400    2.076160   81.061300
  C     21.455200    2.206070   81.085300
  C     20.802700    1.463240   82.082700
  H     20.852700    2.834640   80.383400
  C     23.818100    2.731110   80.089000
  H     23.240100    3.068710   79.196900
  H     24.499500    1.940470   79.855900
  C     24.541700    3.898890   80.658800
  H     23.653600    4.426940   81.073800
  H     25.119200    3.492130   81.485100
  C     25.382800    4.645100   79.589800
  H     26.429200    4.345170   79.756000
  H     25.107800    4.374100   78.623300
  H     25.349900    5.695210   79.631400
  S     18.845900    1.315750   83.969900
  C     17.173500    1.292390   83.500500
  C     17.040600    1.086670   82.134100
  C     18.263400    1.191560   81.470400
  C     19.356600    1.394250   82.322200
  H     16.023700    1.028860   81.774500
  C     18.349600    1.339140   79.996400
  H     19.169600    0.656858   79.609200
  H     18.486800    2.392100   79.739400
  C     17.055200    0.906022   79.189900
  H     16.253300    1.619470   79.310200
  H     16.668900   -0.045541   79.576200
  C     17.450700    0.673565   77.653500
  H     16.678100    1.105970   77.026500
  H     17.477300   -0.438614   77.434500
  H     18.415800    1.135000   77.456700
  H     24.320600    1.075090   82.287200
  H     16.356200    1.293860   84.208500

 Total Charge           Charge          ....    0
 Multiplicity           Mult            ....    1
 Number of Electrons    NEL             ....  134
 Basis Dimension        Dim             ....  322

ORBITAL ENERGIES
----------------

  NO   OCC          E(Eh)            E(eV)
   0   2.0000     -88.969876     -2420.9934
   1   2.0000     -88.965478     -2420.8737
   2   2.0000     -10.326588      -281.0008
   3   2.0000     -10.325195      -280.9628
   4   2.0000     -10.315092      -280.6879
   5   2.0000     -10.308299      -280.5031
   6   2.0000     -10.300576      -280.2929
   7   2.0000     -10.299544      -280.2648
   8   2.0000     -10.296169      -280.1730
   9   2.0000     -10.295016      -280.1416
  10   2.0000     -10.291499      -280.0459
  11   2.0000     -10.290982      -280.0319
  12   2.0000     -10.286304      -279.9046
  13   2.0000     -10.285017      -279.8695
  14   2.0000     -10.284548      -279.8568
  15   2.0000     -10.273896      -279.5669
  16   2.0000      -8.086008      -220.0315
  17   2.0000      -8.080877      -219.8918
  18   2.0000      -6.044426      -164.4772
  19   2.0000      -6.040082      -164.3590
  20   2.0000      -6.039204      -164.3351
  21   2.0000      -6.037035      -164.2761
  22   2.0000      -6.035250      -164.2275
  23   2.0000      -6.031853      -164.1351
  24   2.0000      -1.014139       -27.5961
  25   2.0000      -0.991912       -26.9913
  26   2.0000      -0.923535       -25.1307
  27   2.0000      -0.903297       -24.5800
  28   2.0000      -0.869816       -23.6689
  29   2.0000      -0.850244       -23.1363
  30   2.0000      -0.844937       -22.9919
  31   2.0000      -0.813932       -22.1482
  32   2.0000      -0.784316       -21.3423
  33   2.0000      -0.767249       -20.8779
  34   2.0000      -0.707217       -19.2444
  35   2.0000      -0.701483       -19.0883
  36   2.0000      -0.698039       -18.9946
  37   2.0000      -0.654371       -17.8063
  38   2.0000      -0.636370       -17.3165
  39   2.0000      -0.619949       -16.8697
  40   2.0000      -0.597350       -16.2547
  41   2.0000      -0.578776       -15.7493
  42   2.0000      -0.568492       -15.4694
  43   2.0000      -0.567808       -15.4509
  44   2.0000      -0.529644       -14.4124
  45   2.0000      -0.519861       -14.1461
  46   2.0000      -0.519347       -14.1321
  47   2.0000      -0.512830       -13.9548
  48   2.0000      -0.504512       -13.7285
  49   2.0000      -0.497825       -13.5465
  50   2.0000      -0.493368       -13.4252
  51   2.0000      -0.478737       -13.0271
  52   2.0000      -0.470156       -12.7936
  53   2.0000      -0.466316       -12.6891
  54   2.0000      -0.459276       -12.4975
  55   2.0000      -0.451018       -12.2728
  56   2.0000      -0.447654       -12.1813
  57   2.0000      -0.437502       -11.9050
  58   2.0000      -0.430427       -11.7125
  59   2.0000      -0.425391       -11.5755
  60   2.0000      -0.424190       -11.5428
  61   2.0000      -0.415389       -11.3033
  62   2.0000      -0.410375       -11.1669
  63   2.0000      -0.352320        -9.5871
  64   2.0000      -0.333234        -9.0678
  65   2.0000      -0.328139        -8.9291
  66   2.0000      -0.283371        -7.7109
  67   0.0000       0.028327         0.7708
  68   0.0000       0.074312         2.0221
  69   0.0000       0.112802         3.0695
  70   0.0000       0.125930         3.4267
  71   0.0000       0.138918         3.7801

MULLIKEN ATOMIC CHARGES
-----------------------
   0 S :    0.141719
   1 C :   -0.101763
   2 C :   -0.128404
   3 C :   -0.007213
   4 C :   -0.146591
   5 H :    0.018260
   6 C :    0.069550
   7 H :    0.027194
   8 H :    0.021268
   9 C :   -0.096791
  10 H :    0.034513
  11 H :    0.023901
  12 C :    0.022179
  13 H :    0.033494
  14 H :    0.012053
  15 H :    0.028293
  16 S :    0.103638
  17 C :   -0.091379
  18 C :   -0.046577
  19 C :   -0.011200
  20 C :   -0.146133
  21 H :    0.022781
  22 C :   -0.001663
  23 H :    0.055018
  24 H :    0.057803
  25 C :   -0.110061
  26 H :    0.031842
  27 H :    0.033203
  28 C :   -0.054630
  29 H :    0.034037
  30 H :    0.048403
  31 H :    0.039717
  32 H :    0.031074
  33 H :    0.052464
Sum of atomic charges:    0.0000000

LOEWDIN ATOMIC CHARGES
----------------------
   0 S :    0.464271
   1 C :   -0.223287
   2 C :   -0.059658
   3 C :   -0.074591
   4 C :   -0.221884
   5 H :    0.032798
   6 C :   -0.036499
   7 H :    0.032297
   8 H :    0.025889
   9 C :   -0.042469
  10 H :    0.030193
  11 H :    0.021505
  12 C :   -0.054810
  13 H :    0.034501
  14 H :    0.016371
  15 H :    0.022958
  16 S :    0.422753
  17 C :   -0.185446
  18 C :   -0.073129
  19 C :   -0.064653
  20 C :   -0.203782
  21 H :    0.035344
  22 C :   -0.038543
  23 H :    0.042758
  24 H :    0.035124
  25 C :   -0.041360
  26 H :    0.016694
  27 H :    0.021646
  28 C :   -0.066506
  29 H :    0.024376
  30 H :    0.035367
  31 H :    0.023326
  32 H :    0.022339
  33 H :    0.026106

  Mayer bond orders larger than 0.100000
B(  0-S ,  1-C ) :   1.1730 B(  0-S ,  4-C ) :   1.1821 B(  1-C ,  2-C ) :   1.5498
B(  1-C , 32-H ) :   0.9694 B(  2-C ,  3-C ) :   1.2950 B(  2-C ,  6-C ) :   1.0250
B(  3-C ,  4-C ) :   1.5169 B(  3-C ,  5-H ) :   0.9883 B(  4-C , 20-C ) :   1.0551
B(  6-C ,  7-H ) :   0.9382 B(  6-C ,  8-H ) :   0.9291 B(  6-C ,  9-C ) :   1.0641
B(  9-C , 10-H ) :   0.9599 B(  9-C , 11-H ) :   0.9620 B(  9-C , 12-C ) :   1.0584
B( 12-C , 13-H ) :   0.9736 B( 12-C , 14-H ) :   0.9758 B( 12-C , 15-H ) :   0.9766
B( 16-S , 17-C ) :   1.1800 B( 16-S , 20-C ) :   1.1553 B( 17-C , 18-C ) :   1.5677
B( 17-C , 20-C ) :   0.1105 B( 17-C , 33-H ) :   0.9656 B( 18-C , 19-C ) :   1.2722
B( 18-C , 21-H ) :   0.9945 B( 19-C , 20-C ) :   1.5492 B( 19-C , 22-C ) :   1.0485
B( 22-C , 23-H ) :   0.9301 B( 22-C , 24-H ) :   0.9305 B( 22-C , 25-C ) :   1.0826
B( 25-C , 26-H ) :   0.9564 B( 25-C , 27-H ) :   0.9627 B( 25-C , 28-C ) :   1.0547
B( 28-C , 29-H ) :   0.9770 B( 28-C , 30-H ) :   0.9806 B( 28-C , 31-H ) :   0.9800

Dispersion correction           -0.013273736
FINAL SINGLE POINT ENERGY     -1339.870327329975

DIPOLE MOMENT
-------------
                                X             Y             Z
Electronic contribution:     -5.03859      -9.07998      26.60063
Nuclear contribution   :      4.96257       9.31483     -27.15877
                        -----------------------------------------
Total Dipole Moment    :     -0.07602       0.23485      -0.55814
                        -----------------------------------------
Magnitude (a.u.)       :      0.61029
Magnitude (Debye)      :      1.55123

Rotational constants in cm-1:     0.018210     0.007783     0.005948
Rotational constants in MHz :   545.912682   233.334958   178.303728

                             ****ORCA TERMINATED NORMALLY****
TOTAL RUN TIME: 0 days 0 hours 0 minutes 33 seconds 583 msec
