                         Program Version 4.2.1 -  RELEASE  -
|  1> ! wB97X-D3 SP def2-SVP
|  2> %pal
|  3> nprocs 16
|  4> end
|  5>
|  6> * xyz 0 1
|  7> S 	 -3.73805 	 -6.19 	 78.3067
|  8> C 	 -3.82921 	 -6.73078 	 79.969
|  9> C 	 -5.10666 	 -6.57043 	 80.4783
| 10> C 	 -6.05494 	 -6.14855 	 79.4669
| 11> C 	 -5.47287 	 -5.95422 	 78.1976
| 12> H 	 -7.05562 	 -5.97752 	 79.5064
| 13> C 	 -5.56935 	 -6.64908 	 81.9633
| 14> H 	 -6.42481 	 -5.97445 	 82.0782
| 15> H 	 -4.73846 	 -6.30001 	 82.6333
| 16> C 	 -5.88564 	 -8.00253 	 82.5051
| 17> H 	 -6.5673 	 -8.57574 	 81.8663
| 18> H 	 -4.90627 	 -8.56335 	 82.6286
| 19> C 	 -6.58541 	 -7.95348 	 83.9066
| 20> H 	 -7.23376 	 -8.81378 	 84.0931
| 21> H 	 -5.86417 	 -7.71769 	 84.6679
| 22> H 	 -7.27829 	 -7.07165 	 83.8472
| 23> S 	 -5.18344 	 -4.20439 	 76.051
| 24> C 	 -6.46959 	 -4.23238 	 74.8468
| 25> C 	 -7.50454 	 -5.0009 	 75.2296
| 26> C 	 -7.18712 	 -5.86186 	 76.3044
| 27> C 	 -6.04837 	 -5.45751 	 76.9652
| 28> H 	 -8.41081 	 -5.04849 	 74.7013
| 29> C 	 -8.07169 	 -7.05345 	 76.6658
| 30> H 	 -7.6038 	 -7.77411 	 77.2958
| 31> H 	 -8.15109 	 -7.65599 	 75.7001
| 32> C 	 -9.41573 	 -6.62064 	 77.2491
| 33> H 	 -9.98488 	 -5.99883 	 76.5353
| 34> H 	 -9.34523 	 -5.92983 	 78.1554
| 35> C 	 -10.3462 	 -7.79804 	 77.4798
| 36> H 	 -9.97659 	 -8.65327 	 77.9675
| 37> H 	 -10.7973 	 -8.10127 	 76.5245
| 38> H 	 -11.0932 	 -7.43673 	 78.1711
| 39> H 	 -3.04954 	 -7.06831 	 80.5606
| 40> H 	 -6.52969 	 -3.71756 	 73.8359
| 41> *
| 42>
| 43>                          ****END OF INPUT****

CARTESIAN COORDINATES (ANGSTROEM)
---------------------------------
  S     -3.738050   -6.190000   78.306700
  C     -3.829210   -6.730780   79.969000
  C     -5.106660   -6.570430   80.478300
  C     -6.054940   -6.148550   79.466900
  C     -5.472870   -5.954220   78.197600
  H     -7.055620   -5.977520   79.506400
  C     -5.569350   -6.649080   81.963300
  H     -6.424810   -5.974450   82.078200
  H     -4.738460   -6.300010   82.633300
  C     -5.885640   -8.002530   82.505100
  H     -6.567300   -8.575740   81.866300
  H     -4.906270   -8.563350   82.628600
  C     -6.585410   -7.953480   83.906600
  H     -7.233760   -8.813780   84.093100
  H     -5.864170   -7.717690   84.667900
  H     -7.278290   -7.071650   83.847200
  S     -5.183440   -4.204390   76.051000
  C     -6.469590   -4.232380   74.846800
  C     -7.504540   -5.000900   75.229600
  C     -7.187120   -5.861860   76.304400
  C     -6.048370   -5.457510   76.965200
  H     -8.410810   -5.048490   74.701300
  C     -8.071690   -7.053450   76.665800
  H     -7.603800   -7.774110   77.295800
  H     -8.151090   -7.655990   75.700100
  C     -9.415730   -6.620640   77.249100
  H     -9.984880   -5.998830   76.535300
  H     -9.345230   -5.929830   78.155400
  C    -10.346200   -7.798040   77.479800
  H     -9.976590   -8.653270   77.967500
  H    -10.797300   -8.101270   76.524500
  H    -11.093200   -7.436730   78.171100
  H     -3.049540   -7.068310   80.560600
  H     -6.529690   -3.717560   73.835900

 Total Charge           Charge          ....    0
 Multiplicity           Mult            ....    1
 Number of Electrons    NEL             ....  134
 Basis Dimension        Dim             ....  322

ORBITAL ENERGIES
----------------

  NO   OCC          E(Eh)            E(eV)
   0   2.0000     -88.965993     -2420.8878
   1   2.0000     -88.964965     -2420.8598
   2   2.0000     -10.329755      -281.0869
   3   2.0000     -10.324735      -280.9503
   4   2.0000     -10.319365      -280.8042
   5   2.0000     -10.311083      -280.5788
   6   2.0000     -10.306794      -280.4621
   7   2.0000     -10.299603      -280.2664
   8   2.0000     -10.297551      -280.2106
   9   2.0000     -10.295812      -280.1633
  10   2.0000     -10.295173      -280.1459
  11   2.0000     -10.292000      -280.0595
  12   2.0000     -10.289533      -279.9924
  13   2.0000     -10.285156      -279.8733
  14   2.0000     -10.282606      -279.8039
  15   2.0000     -10.274053      -279.5712
  16   2.0000      -8.080153      -219.8722
  17   2.0000      -8.079590      -219.8568
  18   2.0000      -6.038836      -164.3251
  19   2.0000      -6.038125      -164.3057
  20   2.0000      -6.034875      -164.2173
  21   2.0000      -6.034057      -164.1951
  22   2.0000      -6.030624      -164.1016
  23   2.0000      -6.030386      -164.0951
  24   2.0000      -1.005878       -27.3713
  25   2.0000      -0.982273       -26.7290
  26   2.0000      -0.911745       -24.8098
  27   2.0000      -0.910401       -24.7733
  28   2.0000      -0.871467       -23.7138
  29   2.0000      -0.854155       -23.2427
  30   2.0000      -0.843118       -22.9424
  31   2.0000      -0.815559       -22.1925
  32   2.0000      -0.782677       -21.2977
  33   2.0000      -0.772485       -21.0204
  34   2.0000      -0.705435       -19.1959
  35   2.0000      -0.698044       -18.9947
  36   2.0000      -0.692907       -18.8550
  37   2.0000      -0.662907       -18.0386
  38   2.0000      -0.648732       -17.6529
  39   2.0000      -0.616649       -16.7799
  40   2.0000      -0.597254       -16.2521
  41   2.0000      -0.570342       -15.5198
  42   2.0000      -0.568445       -15.4682
  43   2.0000      -0.560773       -15.2594
  44   2.0000      -0.533690       -14.5224
  45   2.0000      -0.524213       -14.2646
  46   2.0000      -0.516204       -14.0466
  47   2.0000      -0.510943       -13.9035
  48   2.0000      -0.504858       -13.7379
  49   2.0000      -0.495886       -13.4937
  50   2.0000      -0.492551       -13.4030
  51   2.0000      -0.486371       -13.2348
  52   2.0000      -0.469936       -12.7876
  53   2.0000      -0.464972       -12.6525
  54   2.0000      -0.463458       -12.6113
  55   2.0000      -0.454160       -12.3583
  56   2.0000      -0.443718       -12.0742
  57   2.0000      -0.440180       -11.9779
  58   2.0000      -0.431236       -11.7345
  59   2.0000      -0.422722       -11.5028
  60   2.0000      -0.418902       -11.3989
  61   2.0000      -0.414021       -11.2661
  62   2.0000      -0.410929       -11.1820
  63   2.0000      -0.347981        -9.4691
  64   2.0000      -0.331441        -9.0190
  65   2.0000      -0.329354        -8.9622
  66   2.0000      -0.288174        -7.8416
  67   0.0000       0.026628         0.7246
  68   0.0000       0.075082         2.0431
  69   0.0000       0.103502         2.8164
  70   0.0000       0.121634         3.3098
  71   0.0000       0.132163         3.5963

MULLIKEN ATOMIC CHARGES
-----------------------
   0 S :    0.105263
   1 C :   -0.080761
   2 C :   -0.061495
   3 C :    0.077948
   4 C :   -0.171625
   5 H :   -0.046429
   6 C :    0.042747
   7 H :    0.027064
   8 H :    0.033297
   9 C :   -0.097115
  10 H :    0.028486
  11 H :    0.038205
  12 C :   -0.048801
  13 H :    0.046175
  14 H :    0.034655
  15 H :    0.019588
  16 S :    0.106789
  17 C :   -0.099748
  18 C :   -0.012209
  19 C :   -0.042374
  20 C :   -0.140856
  21 H :    0.000429
  22 C :    0.068089
  23 H :    0.019379
  24 H :    0.038851
  25 C :   -0.123388
  26 H :    0.028071
  27 H :    0.046440
  28 C :   -0.008811
  29 H :    0.018027
  30 H :    0.035142
  31 H :    0.024966
  32 H :    0.017291
  33 H :    0.076710
Sum of atomic charges:    0.0000000

LOEWDIN ATOMIC CHARGES
----------------------
   0 S :    0.405210
   1 C :   -0.186846
   2 C :   -0.055736
   3 C :   -0.049327
   4 C :   -0.185972
   5 H :    0.011273
   6 C :   -0.035265
   7 H :    0.028684
   8 H :    0.036879
   9 C :   -0.048870
  10 H :    0.020880
  11 H :    0.028493
  12 C :   -0.066532
  13 H :    0.029419
  14 H :    0.021947
  15 H :    0.026008
  16 S :    0.381060
  17 C :   -0.185200
  18 C :   -0.067951
  19 C :   -0.052598
  20 C :   -0.196123
  21 H :    0.023575
  22 C :   -0.032961
  23 H :    0.024977
  24 H :    0.042155
  25 C :   -0.047415
  26 H :    0.026093
  27 H :    0.030088
  28 C :   -0.062727
  29 H :    0.015654
  30 H :    0.028957
  31 H :    0.028554
  32 H :    0.015398
  33 H :    0.048220

  Mayer bond orders larger than 0.100000
B(  0-S ,  1-C ) :   1.1379 B(  0-S ,  4-C ) :   1.1495 B(  1-C ,  2-C ) :   1.6141
B(  1-C , 32-H ) :   0.9779 B(  2-C ,  3-C ) :   1.2241 B(  2-C ,  6-C ) :   1.0113
B(  3-C ,  4-C ) :   1.5625 B(  3-C ,  5-H ) :   1.0113 B(  4-C , 20-C ) :   1.0638
B(  6-C ,  7-H ) :   0.9450 B(  6-C ,  8-H ) :   0.9439 B(  6-C ,  9-C ) :   1.0710
B(  9-C , 10-H ) :   0.9586 B(  9-C , 11-H ) :   0.9565 B(  9-C , 12-C ) :   1.0692
B( 12-C , 13-H ) :   0.9778 B( 12-C , 14-H ) :   0.9768 B( 12-C , 15-H ) :   0.9754
B( 16-S , 17-C ) :   1.1290 B( 16-S , 20-C ) :   1.1108 B( 17-C , 18-C ) :   1.6546
B( 17-C , 33-H ) :   0.9547 B( 18-C , 19-C ) :   1.2201 B( 18-C , 21-H ) :   0.9888
B( 19-C , 20-C ) :   1.6217 B( 19-C , 22-C ) :   1.0407 B( 22-C , 23-H ) :   0.9349
B( 22-C , 24-H ) :   0.9350 B( 22-C , 25-C ) :   1.0531 B( 25-C , 26-H ) :   0.9540
B( 25-C , 27-H ) :   0.9575 B( 25-C , 28-C ) :   1.0782 B( 28-C , 29-H ) :   0.9754
B( 28-C , 30-H ) :   0.9760 B( 28-C , 31-H ) :   0.9713

Dispersion correction           -0.013656843
FINAL SINGLE POINT ENERGY     -1339.866419349828

DIPOLE MOMENT
-------------
                                X             Y             Z
Electronic contribution:     21.85993      14.36557     -19.21885
Nuclear contribution   :    -22.52660     -14.63274      19.43783
                        -----------------------------------------
Total Dipole Moment    :     -0.66666      -0.26718       0.21898
                        -----------------------------------------
Magnitude (a.u.)       :      0.75085
Magnitude (Debye)      :      1.90851

Rotational constants in cm-1:     0.017471     0.008630     0.006122
Rotational constants in MHz :   523.765246   258.716030   183.539278

                             ****ORCA TERMINATED NORMALLY****
TOTAL RUN TIME: 0 days 0 hours 0 minutes 33 seconds 729 msec
