                         Program Version 4.2.1 -  RELEASE  -
|  1> ! wB97X-D3 SP def2-SVP
|  2> %pal
|  3> nprocs 16
|  4> end
|  5>
|  6> * xyz 0 1
|  7> S 	 -2.50534 	 -7.2903 	 84.83
|  8> C 	 -3.95261 	 -7.87826 	 84.1445
|  9> C 	 -4.11652 	 -9.25221 	 84.3316
| 10> C 	 -2.96415 	 -9.86452 	 84.9292
| 11> C 	 -1.94639 	 -8.95357 	 85.1453
| 12> H 	 -2.85974 	 -10.9488 	 85.1384
| 13> C 	 -5.29865 	 -10.0992 	 83.8267
| 14> H 	 -6.15685 	 -9.60971 	 84.1891
| 15> H 	 -5.2609 	 -11.0578 	 84.3572
| 16> C 	 -5.60232 	 -10.157 	 82.3207
| 17> H 	 -6.46776 	 -10.7518 	 82.0873
| 18> H 	 -5.84203 	 -9.16306 	 81.975
| 19> C 	 -4.32364 	 -10.6667 	 81.4383
| 20> H 	 -4.11364 	 -11.7186 	 81.5758
| 21> H 	 -4.59707 	 -10.3938 	 80.3794
| 22> H 	 -3.4015 	 -10.2451 	 81.7721
| 23> S 	 0.801646 	 -8.9136 	 84.5983
| 24> C 	 1.98363 	 -9.41923 	 85.8086
| 25> C 	 1.32408 	 -9.77848 	 86.9387
| 26> C 	 -0.0677283 	 -9.68196 	 86.8695
| 27> C 	 -0.587352 	 -9.26318 	 85.6464
| 28> H 	 2.0395 	 -10.0688 	 87.7036
| 29> C 	 -0.839964 	 -10.0625 	 88.1707
| 30> H 	 -0.0611926 	 -10.4938 	 88.8845
| 31> H 	 -1.43671 	 -10.9496 	 87.9785
| 32> C 	 -1.79333 	 -9.0561 	 88.8453
| 33> H 	 -2.58413 	 -9.54685 	 89.4358
| 34> H 	 -2.31071 	 -8.4594 	 88.03
| 35> C 	 -1.03309 	 -8.1123 	 89.8037
| 36> H 	 -0.0946803 	 -7.81718 	 89.264
| 37> H 	 -0.732733 	 -8.61949 	 90.8026
| 38> H 	 -1.48777 	 -7.17136 	 89.9899
| 39> H 	 -4.75548 	 -7.38553 	 83.7318
| 40> H 	 3.06247 	 -9.25254 	 85.633
| 41> *
| 42>
| 43>                          ****END OF INPUT****

CARTESIAN COORDINATES (ANGSTROEM)
---------------------------------
  S     -2.505340   -7.290300   84.830000
  C     -3.952610   -7.878260   84.144500
  C     -4.116520   -9.252210   84.331600
  C     -2.964150   -9.864520   84.929200
  C     -1.946390   -8.953570   85.145300
  H     -2.859740  -10.948800   85.138400
  C     -5.298650  -10.099200   83.826700
  H     -6.156850   -9.609710   84.189100
  H     -5.260900  -11.057800   84.357200
  C     -5.602320  -10.157000   82.320700
  H     -6.467760  -10.751800   82.087300
  H     -5.842030   -9.163060   81.975000
  C     -4.323640  -10.666700   81.438300
  H     -4.113640  -11.718600   81.575800
  H     -4.597070  -10.393800   80.379400
  H     -3.401500  -10.245100   81.772100
  S      0.801646   -8.913600   84.598300
  C      1.983630   -9.419230   85.808600
  C      1.324080   -9.778480   86.938700
  C     -0.067728   -9.681960   86.869500
  C     -0.587352   -9.263180   85.646400
  H      2.039500  -10.068800   87.703600
  C     -0.839964  -10.062500   88.170700
  H     -0.061193  -10.493800   88.884500
  H     -1.436710  -10.949600   87.978500
  C     -1.793330   -9.056100   88.845300
  H     -2.584130   -9.546850   89.435800
  H     -2.310710   -8.459400   88.030000
  C     -1.033090   -8.112300   89.803700
  H     -0.094680   -7.817180   89.264000
  H     -0.732733   -8.619490   90.802600
  H     -1.487770   -7.171360   89.989900
  H     -4.755480   -7.385530   83.731800
  H      3.062470   -9.252540   85.633000

 Total Charge           Charge          ....    0
 Multiplicity           Mult            ....    1
 Number of Electrons    NEL             ....  134
 Basis Dimension        Dim             ....  322

ORBITAL ENERGIES
----------------

  NO   OCC          E(Eh)            E(eV)
   0   2.0000     -88.973132     -2421.0820
   1   2.0000     -88.960241     -2420.7312
   2   2.0000     -10.335729      -281.2495
   3   2.0000     -10.332488      -281.1613
   4   2.0000     -10.319029      -280.7951
   5   2.0000     -10.309096      -280.5248
   6   2.0000     -10.308259      -280.5020
   7   2.0000     -10.302574      -280.3473
   8   2.0000     -10.300727      -280.2970
   9   2.0000     -10.295337      -280.1504
  10   2.0000     -10.292762      -280.0803
  11   2.0000     -10.290432      -280.0169
  12   2.0000     -10.290406      -280.0162
  13   2.0000     -10.289624      -279.9949
  14   2.0000     -10.278168      -279.6832
  15   2.0000     -10.278032      -279.6795
  16   2.0000      -8.087499      -220.0720
  17   2.0000      -8.074841      -219.7276
  18   2.0000      -6.046000      -164.5200
  19   2.0000      -6.042049      -164.4125
  20   2.0000      -6.038279      -164.3099
  21   2.0000      -6.033338      -164.1755
  22   2.0000      -6.029195      -164.0628
  23   2.0000      -6.025767      -163.9695
  24   2.0000      -1.005121       -27.3507
  25   2.0000      -0.986916       -26.8553
  26   2.0000      -0.904135       -24.6028
  27   2.0000      -0.897136       -24.4123
  28   2.0000      -0.869241       -23.6533
  29   2.0000      -0.846018       -23.0213
  30   2.0000      -0.840564       -22.8729
  31   2.0000      -0.814822       -22.1724
  32   2.0000      -0.780269       -21.2322
  33   2.0000      -0.769481       -20.9386
  34   2.0000      -0.710991       -19.3470
  35   2.0000      -0.706119       -19.2145
  36   2.0000      -0.684439       -18.6245
  37   2.0000      -0.657066       -17.8797
  38   2.0000      -0.640521       -17.4295
  39   2.0000      -0.615721       -16.7546
  40   2.0000      -0.588597       -16.0165
  41   2.0000      -0.572801       -15.5867
  42   2.0000      -0.548283       -14.9195
  43   2.0000      -0.545427       -14.8418
  44   2.0000      -0.541546       -14.7362
  45   2.0000      -0.538706       -14.6589
  46   2.0000      -0.513846       -13.9825
  47   2.0000      -0.511058       -13.9066
  48   2.0000      -0.504290       -13.7224
  49   2.0000      -0.488871       -13.3029
  50   2.0000      -0.481595       -13.1049
  51   2.0000      -0.477970       -13.0062
  52   2.0000      -0.469850       -12.7853
  53   2.0000      -0.467748       -12.7281
  54   2.0000      -0.456302       -12.4166
  55   2.0000      -0.446855       -12.1595
  56   2.0000      -0.443945       -12.0804
  57   2.0000      -0.433229       -11.7888
  58   2.0000      -0.426241       -11.5986
  59   2.0000      -0.422239       -11.4897
  60   2.0000      -0.414531       -11.2800
  61   2.0000      -0.411659       -11.2018
  62   2.0000      -0.406010       -11.0481
  63   2.0000      -0.344355        -9.3704
  64   2.0000      -0.331760        -9.0276
  65   2.0000      -0.327463        -8.9107
  66   2.0000      -0.302055        -8.2193
  67   0.0000       0.030120         0.8196
  68   0.0000       0.058130         1.5818
  69   0.0000       0.110379         3.0036
  70   0.0000       0.125398         3.4123
  71   0.0000       0.134801         3.6681

MULLIKEN ATOMIC CHARGES
-----------------------
   0 S :    0.142330
   1 C :   -0.063492
   2 C :   -0.138717
   3 C :    0.037871
   4 C :   -0.175943
   5 H :    0.032741
   6 C :    0.095147
   7 H :    0.013162
   8 H :    0.024015
   9 C :   -0.058926
  10 H :    0.033128
  11 H :    0.019256
  12 C :   -0.076091
  13 H :    0.028225
  14 H :    0.047921
  15 H :    0.039171
  16 S :    0.082118
  17 C :   -0.123093
  18 C :   -0.046232
  19 C :    0.013312
  20 C :   -0.172822
  21 H :    0.026695
  22 C :    0.042895
  23 H :    0.024584
  24 H :    0.026508
  25 C :   -0.065869
  26 H :    0.032198
  27 H :    0.048070
  28 C :   -0.076120
  29 H :    0.029551
  30 H :    0.044604
  31 H :    0.027457
  32 H :    0.009322
  33 H :    0.077025
Sum of atomic charges:    0.0000000

LOEWDIN ATOMIC CHARGES
----------------------
   0 S :    0.422978
   1 C :   -0.199991
   2 C :   -0.061928
   3 C :   -0.056479
   4 C :   -0.192833
   5 H :    0.041110
   6 C :   -0.034639
   7 H :    0.027422
   8 H :    0.030638
   9 C :   -0.029502
  10 H :    0.024251
  11 H :    0.019194
  12 C :   -0.069653
  13 H :    0.021493
  14 H :    0.032383
  15 H :    0.022249
  16 S :    0.387880
  17 C :   -0.177180
  18 C :   -0.086128
  19 C :   -0.056837
  20 C :   -0.197346
  21 H :    0.039232
  22 C :   -0.036972
  23 H :    0.034529
  24 H :    0.030354
  25 C :   -0.047161
  26 H :    0.025074
  27 H :    0.033390
  28 C :   -0.076644
  29 H :    0.028448
  30 H :    0.032823
  31 H :    0.017507
  32 H :    0.014128
  33 H :    0.038212

  Mayer bond orders larger than 0.100000
B(  0-S ,  1-C ) :   1.1459 B(  0-S ,  4-C ) :   1.1469 B(  1-C ,  2-C ) :   1.6066
B(  1-C , 32-H ) :   0.9722 B(  2-C ,  3-C ) :   1.2446 B(  2-C ,  6-C ) :   1.0194
B(  3-C ,  4-C ) :   1.5817 B(  3-C ,  5-H ) :   0.9884 B(  4-C , 20-C ) :   1.0291
B(  6-C ,  7-H ) :   0.9268 B(  6-C ,  8-H ) :   0.9466 B(  6-C ,  9-C ) :   1.0762
B(  9-C , 10-H ) :   0.9573 B(  9-C , 11-H ) :   0.9567 B(  9-C , 12-C ) :   1.0587
B( 12-C , 13-H ) :   0.9790 B( 12-C , 14-H ) :   0.9799 B( 12-C , 15-H ) :   0.9787
B( 16-S , 17-C ) :   1.1669 B( 16-S , 20-C ) :   1.1434 B( 17-C , 18-C ) :   1.5995
B( 17-C , 20-C ) :   0.1055 B( 17-C , 33-H ) :   0.9627 B( 18-C , 19-C ) :   1.2414
B( 18-C , 21-H ) :   0.9946 B( 19-C , 20-C ) :   1.5808 B( 19-C , 22-C ) :   1.0201
B( 22-C , 23-H ) :   0.9439 B( 22-C , 24-H ) :   0.9347 B( 22-C , 25-C ) :   1.0544
B( 25-C , 26-H ) :   0.9573 B( 25-C , 27-H ) :   0.9557 B( 25-C , 28-C ) :   1.0697
B( 28-C , 29-H ) :   0.9779 B( 28-C , 30-H ) :   0.9745 B( 28-C , 31-H ) :   0.9756

Dispersion correction           -0.014804185
FINAL SINGLE POINT ENERGY     -1339.863325261610

DIPOLE MOMENT
-------------
                                X             Y             Z
Electronic contribution:     13.35210       8.72728      -5.64693
Nuclear contribution   :    -13.65867      -9.02409       5.86679
                        -----------------------------------------
Total Dipole Moment    :     -0.30657      -0.29681       0.21986
                        -----------------------------------------
Magnitude (a.u.)       :      0.48003
Magnitude (Debye)      :      1.22013

Rotational constants in cm-1:     0.020735     0.008127     0.007013
Rotational constants in MHz :   621.612310   243.644451   210.254077

                             ****ORCA TERMINATED NORMALLY****
TOTAL RUN TIME: 0 days 0 hours 0 minutes 34 seconds 180 msec
