                         Program Version 4.2.1 -  RELEASE  -
|  1> ! wB97X-D3 SP def2-SVP
|  2> %pal
|  3> nprocs 16
|  4> end
|  5>
|  6> * xyz 0 1
|  7> S 	 -11.9423 	 -1.33048 	 80.703
|  8> C 	 -11.7616 	 -0.870635 	 82.3846
|  9> C 	 -12.9208 	 -0.309354 	 82.9054
| 10> C 	 -13.9826 	 -0.797805 	 82.1198
| 11> C 	 -13.6276 	 -1.47091 	 80.9247
| 12> H 	 -15.0022 	 -0.439128 	 82.2589
| 13> C 	 -13.1365 	 0.544744 	 84.1442
| 14> H 	 -12.6864 	 0.0439349 	 84.9559
| 15> H 	 -14.1954 	 0.500002 	 84.3552
| 16> C 	 -12.4157 	 1.92135 	 83.9995
| 17> H 	 -11.3829 	 1.71362 	 83.7923
| 18> H 	 -12.8138 	 2.45998 	 83.1011
| 19> C 	 -12.6021 	 2.84022 	 85.2005
| 20> H 	 -12.0016 	 2.53647 	 86.0232
| 21> H 	 -12.4462 	 3.89061 	 84.8438
| 22> H 	 -13.6345 	 2.58162 	 85.543
| 23> S 	 -14.4247 	 -0.858401 	 78.4885
| 24> C 	 -15.6959 	 -1.72909 	 77.6689
| 25> C 	 -16.1002 	 -2.74765 	 78.5502
| 26> C 	 -15.4702 	 -2.81676 	 79.8042
| 27> C 	 -14.4749 	 -1.88809 	 79.9104
| 28> H 	 -16.8604 	 -3.45282 	 78.1685
| 29> C 	 -16.1305 	 -3.48682 	 81.0025
| 30> H 	 -15.532 	 -3.54328 	 81.9141
| 31> H 	 -16.0656 	 -4.53899 	 80.7191
| 32> C 	 -17.5723 	 -3.04171 	 81.3738
| 33> H 	 -17.9791 	 -3.76965 	 82.1431
| 34> H 	 -18.2137 	 -3.10217 	 80.4979
| 35> C 	 -17.7168 	 -1.6227 	 81.907
| 36> H 	 -18.7746 	 -1.49508 	 82.098
| 37> H 	 -17.5481 	 -0.778607 	 81.1783
| 38> H 	 -17.1086 	 -1.41483 	 82.7719
| 39> H 	 -10.817 	 -0.574686 	 82.8676
| 40> H 	 -15.8536 	 -1.5921 	 76.6215
| 41> *
| 42>
| 43>                          ****END OF INPUT****

CARTESIAN COORDINATES (ANGSTROEM)
---------------------------------
  S    -11.942300   -1.330480   80.703000
  C    -11.761600   -0.870635   82.384600
  C    -12.920800   -0.309354   82.905400
  C    -13.982600   -0.797805   82.119800
  C    -13.627600   -1.470910   80.924700
  H    -15.002200   -0.439128   82.258900
  C    -13.136500    0.544744   84.144200
  H    -12.686400    0.043935   84.955900
  H    -14.195400    0.500002   84.355200
  C    -12.415700    1.921350   83.999500
  H    -11.382900    1.713620   83.792300
  H    -12.813800    2.459980   83.101100
  C    -12.602100    2.840220   85.200500
  H    -12.001600    2.536470   86.023200
  H    -12.446200    3.890610   84.843800
  H    -13.634500    2.581620   85.543000
  S    -14.424700   -0.858401   78.488500
  C    -15.695900   -1.729090   77.668900
  C    -16.100200   -2.747650   78.550200
  C    -15.470200   -2.816760   79.804200
  C    -14.474900   -1.888090   79.910400
  H    -16.860400   -3.452820   78.168500
  C    -16.130500   -3.486820   81.002500
  H    -15.532000   -3.543280   81.914100
  H    -16.065600   -4.538990   80.719100
  C    -17.572300   -3.041710   81.373800
  H    -17.979100   -3.769650   82.143100
  H    -18.213700   -3.102170   80.497900
  C    -17.716800   -1.622700   81.907000
  H    -18.774600   -1.495080   82.098000
  H    -17.548100   -0.778607   81.178300
  H    -17.108600   -1.414830   82.771900
  H    -10.817000   -0.574686   82.867600
  H    -15.853600   -1.592100   76.621500

 Total Charge           Charge          ....    0
 Multiplicity           Mult            ....    1
 Number of Electrons    NEL             ....  134
 Basis Dimension        Dim             ....  322

ORBITAL ENERGIES
----------------

  NO   OCC          E(Eh)            E(eV)
   0   2.0000     -88.969075     -2420.9716
   1   2.0000     -88.958332     -2420.6793
   2   2.0000     -10.320066      -280.8233
   3   2.0000     -10.317613      -280.7565
   4   2.0000     -10.316745      -280.7329
   5   2.0000     -10.311944      -280.6023
   6   2.0000     -10.299334      -280.2591
   7   2.0000     -10.297859      -280.2190
   8   2.0000     -10.295970      -280.1676
   9   2.0000     -10.294019      -280.1145
  10   2.0000     -10.293321      -280.0955
  11   2.0000     -10.290991      -280.0321
  12   2.0000     -10.290842      -280.0281
  13   2.0000     -10.290068      -280.0070
  14   2.0000     -10.283337      -279.8238
  15   2.0000     -10.277408      -279.6625
  16   2.0000      -8.084284      -219.9845
  17   2.0000      -8.073575      -219.6932
  18   2.0000      -6.042612      -164.4278
  19   2.0000      -6.039034      -164.3305
  20   2.0000      -6.034876      -164.2173
  21   2.0000      -6.032046      -164.1403
  22   2.0000      -6.027834      -164.0257
  23   2.0000      -6.024507      -163.9352
  24   2.0000      -1.015141       -27.6234
  25   2.0000      -0.986599       -26.8467
  26   2.0000      -0.916837       -24.9484
  27   2.0000      -0.903820       -24.5942
  28   2.0000      -0.875382       -23.8203
  29   2.0000      -0.852909       -23.2088
  30   2.0000      -0.847357       -23.0578
  31   2.0000      -0.805689       -21.9239
  32   2.0000      -0.785567       -21.3764
  33   2.0000      -0.776472       -21.1289
  34   2.0000      -0.708699       -19.2847
  35   2.0000      -0.701689       -19.0939
  36   2.0000      -0.695148       -18.9159
  37   2.0000      -0.660161       -17.9639
  38   2.0000      -0.635709       -17.2985
  39   2.0000      -0.618865       -16.8402
  40   2.0000      -0.599955       -16.3256
  41   2.0000      -0.569775       -15.5044
  42   2.0000      -0.557594       -15.1729
  43   2.0000      -0.547647       -14.9022
  44   2.0000      -0.541810       -14.7434
  45   2.0000      -0.535441       -14.5701
  46   2.0000      -0.522889       -14.2285
  47   2.0000      -0.517874       -14.0921
  48   2.0000      -0.504925       -13.7397
  49   2.0000      -0.499488       -13.5918
  50   2.0000      -0.492066       -13.3898
  51   2.0000      -0.475454       -12.9378
  52   2.0000      -0.470794       -12.8109
  53   2.0000      -0.464518       -12.6402
  54   2.0000      -0.452789       -12.3210
  55   2.0000      -0.447106       -12.1664
  56   2.0000      -0.438869       -11.9422
  57   2.0000      -0.436657       -11.8820
  58   2.0000      -0.428636       -11.6638
  59   2.0000      -0.428319       -11.6551
  60   2.0000      -0.422851       -11.5063
  61   2.0000      -0.419456       -11.4140
  62   2.0000      -0.407891       -11.0993
  63   2.0000      -0.335363        -9.1257
  64   2.0000      -0.330616        -8.9965
  65   2.0000      -0.325111        -8.8467
  66   2.0000      -0.291047        -7.9198
  67   0.0000       0.026514         0.7215
  68   0.0000       0.056056         1.5253
  69   0.0000       0.104911         2.8548
  70   0.0000       0.117076         3.1858
  71   0.0000       0.131650         3.5824

MULLIKEN ATOMIC CHARGES
-----------------------
   0 S :    0.134702
   1 C :   -0.112525
   2 C :   -0.123342
   3 C :    0.029063
   4 C :   -0.152379
   5 H :    0.004825
   6 C :    0.104131
   7 H :    0.020008
   8 H :    0.017398
   9 C :   -0.114614
  10 H :    0.025503
  11 H :    0.040440
  12 C :   -0.021636
  13 H :    0.026507
  14 H :    0.058093
  15 H :    0.027954
  16 S :    0.084576
  17 C :   -0.098794
  18 C :   -0.074437
  19 C :    0.011589
  20 C :   -0.177696
  21 H :    0.030831
  22 C :    0.057042
  23 H :    0.024960
  24 H :    0.019903
  25 C :   -0.066932
  26 H :    0.042893
  27 H :    0.026040
  28 C :   -0.059375
  29 H :    0.028190
  30 H :    0.045298
  31 H :    0.033446
  32 H :    0.045544
  33 H :    0.062795
Sum of atomic charges:    0.0000000

LOEWDIN ATOMIC CHARGES
----------------------
   0 S :    0.440460
   1 C :   -0.205848
   2 C :   -0.056675
   3 C :   -0.060953
   4 C :   -0.221245
   5 H :    0.026801
   6 C :   -0.026818
   7 H :    0.028761
   8 H :    0.028658
   9 C :   -0.038823
  10 H :    0.018148
  11 H :    0.029912
  12 C :   -0.067436
  13 H :    0.019397
  14 H :    0.037969
  15 H :    0.031284
  16 S :    0.400021
  17 C :   -0.190900
  18 C :   -0.070704
  19 C :   -0.067535
  20 C :   -0.192738
  21 H :    0.033044
  22 C :   -0.037178
  23 H :    0.031118
  24 H :    0.033239
  25 C :   -0.038223
  26 H :    0.034795
  27 H :    0.022433
  28 C :   -0.071940
  29 H :    0.028255
  30 H :    0.033328
  31 H :    0.018051
  32 H :    0.024695
  33 H :    0.026649

  Mayer bond orders larger than 0.100000
B(  0-S ,  1-C ) :   1.1606 B(  0-S ,  4-C ) :   1.1664 B(  1-C ,  2-C ) :   1.5666
B(  1-C ,  4-C ) :   0.1137 B(  1-C , 32-H ) :   0.9607 B(  2-C ,  3-C ) :   1.3060
B(  2-C ,  6-C ) :   1.0211 B(  3-C ,  4-C ) :   1.5067 B(  3-C ,  5-H ) :   0.9812
B(  4-C , 20-C ) :   1.0686 B(  6-C ,  7-H ) :   0.9331 B(  6-C ,  8-H ) :   0.9393
B(  6-C ,  9-C ) :   1.0464 B(  9-C , 10-H ) :   0.9573 B(  9-C , 11-H ) :   0.9619
B(  9-C , 12-C ) :   1.0754 B( 12-C , 13-H ) :   0.9734 B( 12-C , 14-H ) :   0.9755
B( 12-C , 15-H ) :   0.9730 B( 16-S , 17-C ) :   1.1512 B( 16-S , 20-C ) :   1.1596
B( 17-C , 18-C ) :   1.5784 B( 17-C , 20-C ) :   0.1145 B( 17-C , 33-H ) :   0.9759
B( 18-C , 19-C ) :   1.2404 B( 18-C , 21-H ) :   0.9831 B( 19-C , 20-C ) :   1.5863
B( 19-C , 22-C ) :   1.0477 B( 22-C , 23-H ) :   0.9399 B( 22-C , 24-H ) :   0.9229
B( 22-C , 25-C ) :   1.0699 B( 25-C , 26-H ) :   0.9523 B( 25-C , 27-H ) :   0.9525
B( 25-C , 28-C ) :   1.0823 B( 28-C , 29-H ) :   0.9671 B( 28-C , 30-H ) :   0.9714
B( 28-C , 31-H ) :   0.9703

Dispersion correction           -0.014870187
FINAL SINGLE POINT ENERGY     -1339.848453632359

DIPOLE MOMENT
-------------
                                X             Y             Z
Electronic contribution:     11.78846      -7.50133     -21.80795
Nuclear contribution   :    -12.14880       7.71792      22.26275
                        -----------------------------------------
Total Dipole Moment    :     -0.36034       0.21659       0.45481
                        -----------------------------------------
Magnitude (a.u.)       :      0.61936
Magnitude (Debye)      :      1.57429

Rotational constants in cm-1:     0.020922     0.008240     0.006909
Rotational constants in MHz :   627.235483   247.034340   207.119995

                             ****ORCA TERMINATED NORMALLY****
TOTAL RUN TIME: 0 days 0 hours 0 minutes 34 seconds 542 msec
