                         Program Version 4.2.1 -  RELEASE  -
|  1> ! wB97X-D3 SP def2-SVP
|  2> %pal
|  3> nprocs 16
|  4> end
|  5>
|  6> * xyz 0 1
|  7> S 	 -38.9846 	 33.4858 	 79.9377
|  8> C 	 -37.4227 	 33.1821 	 79.2916
|  9> C 	 -36.718 	 32.4265 	 80.131
| 10> C 	 -37.2887 	 32.3219 	 81.4617
| 11> C 	 -38.4584 	 33.0574 	 81.571
| 12> H 	 -36.7783 	 31.7957 	 82.2957
| 13> C 	 -35.3743 	 31.7821 	 79.6622
| 14> H 	 -35.289 	 32.0023 	 78.5783
| 15> H 	 -35.4263 	 30.679 	 79.7303
| 16> C 	 -34.1457 	 32.3488 	 80.3564
| 17> H 	 -34.0928 	 33.4088 	 80.2978
| 18> H 	 -34.0762 	 32.0822 	 81.4082
| 19> C 	 -32.9227 	 31.6552 	 79.7269
| 20> H 	 -31.9438 	 31.8069 	 80.1953
| 21> H 	 -33.1152 	 30.5341 	 79.8766
| 22> H 	 -32.9025 	 31.8629 	 78.6496
| 23> S 	 -40.955 	 32.4531 	 82.617
| 24> C 	 -41.1401 	 32.4693 	 84.3376
| 25> C 	 -40.0345 	 32.8041 	 85.0049
| 26> C 	 -38.9465 	 33.0917 	 84.0905
| 27> C 	 -39.3211 	 32.9772 	 82.7461
| 28> H 	 -40.2075 	 32.8949 	 86.0977
| 29> C 	 -37.6684 	 33.525 	 84.6573
| 30> H 	 -36.947 	 32.6961 	 84.4582
| 31> H 	 -37.8251 	 33.6144 	 85.7073
| 32> C 	 -37.125 	 34.9383 	 84.2735
| 33> H 	 -38.0354 	 35.544 	 84.4038
| 34> H 	 -36.8633 	 34.8911 	 83.2184
| 35> C 	 -35.9474 	 35.6081 	 85.1214
| 36> H 	 -36.0086 	 36.714 	 85.077
| 37> H 	 -35.0094 	 35.3111 	 84.829
| 38> H 	 -36.069 	 35.2389 	 86.1851
| 39> H 	 -37.2435 	 33.3727 	 78.2979
| 40> H 	 -42.1087 	 32.2519 	 84.7886
| 41> *
| 42>
| 43>                          ****END OF INPUT****

CARTESIAN COORDINATES (ANGSTROEM)
---------------------------------
  S    -38.984600   33.485800   79.937700
  C    -37.422700   33.182100   79.291600
  C    -36.718000   32.426500   80.131000
  C    -37.288700   32.321900   81.461700
  C    -38.458400   33.057400   81.571000
  H    -36.778300   31.795700   82.295700
  C    -35.374300   31.782100   79.662200
  H    -35.289000   32.002300   78.578300
  H    -35.426300   30.679000   79.730300
  C    -34.145700   32.348800   80.356400
  H    -34.092800   33.408800   80.297800
  H    -34.076200   32.082200   81.408200
  C    -32.922700   31.655200   79.726900
  H    -31.943800   31.806900   80.195300
  H    -33.115200   30.534100   79.876600
  H    -32.902500   31.862900   78.649600
  S    -40.955000   32.453100   82.617000
  C    -41.140100   32.469300   84.337600
  C    -40.034500   32.804100   85.004900
  C    -38.946500   33.091700   84.090500
  C    -39.321100   32.977200   82.746100
  H    -40.207500   32.894900   86.097700
  C    -37.668400   33.525000   84.657300
  H    -36.947000   32.696100   84.458200
  H    -37.825100   33.614400   85.707300
  C    -37.125000   34.938300   84.273500
  H    -38.035400   35.544000   84.403800
  H    -36.863300   34.891100   83.218400
  C    -35.947400   35.608100   85.121400
  H    -36.008600   36.714000   85.077000
  H    -35.009400   35.311100   84.829000
  H    -36.069000   35.238900   86.185100
  H    -37.243500   33.372700   78.297900
  H    -42.108700   32.251900   84.788600

 Total Charge           Charge          ....    0
 Multiplicity           Mult            ....    1
 Number of Electrons    NEL             ....  134
 Basis Dimension        Dim             ....  322

ORBITAL ENERGIES
----------------

  NO   OCC          E(Eh)            E(eV)
   0   2.0000     -88.962640     -2420.7965
   1   2.0000     -88.961603     -2420.7683
   2   2.0000     -10.333170      -281.1799
   3   2.0000     -10.325004      -280.9576
   4   2.0000     -10.309175      -280.5269
   5   2.0000     -10.303441      -280.3709
   6   2.0000     -10.302211      -280.3374
   7   2.0000     -10.301016      -280.3049
   8   2.0000     -10.299323      -280.2588
   9   2.0000     -10.299107      -280.2529
  10   2.0000     -10.292130      -280.0631
  11   2.0000     -10.286489      -279.9096
  12   2.0000     -10.285749      -279.8895
  13   2.0000     -10.284891      -279.8661
  14   2.0000     -10.284308      -279.8503
  15   2.0000     -10.281814      -279.7824
  16   2.0000      -8.078616      -219.8303
  17   2.0000      -8.077196      -219.7917
  18   2.0000      -6.037088      -164.2775
  19   2.0000      -6.035822      -164.2431
  20   2.0000      -6.032988      -164.1660
  21   2.0000      -6.031818      -164.1341
  22   2.0000      -6.029318      -164.0661
  23   2.0000      -6.027557      -164.0182
  24   2.0000      -1.012727       -27.5577
  25   2.0000      -0.992392       -27.0043
  26   2.0000      -0.912685       -24.8354
  27   2.0000      -0.904929       -24.6244
  28   2.0000      -0.878144       -23.8955
  29   2.0000      -0.846938       -23.0464
  30   2.0000      -0.842156       -22.9162
  31   2.0000      -0.820994       -22.3404
  32   2.0000      -0.778767       -21.1913
  33   2.0000      -0.766994       -20.8710
  34   2.0000      -0.713781       -19.4230
  35   2.0000      -0.699592       -19.0369
  36   2.0000      -0.688361       -18.7313
  37   2.0000      -0.662598       -18.0302
  38   2.0000      -0.643342       -17.5062
  39   2.0000      -0.620231       -16.8774
  40   2.0000      -0.588528       -16.0147
  41   2.0000      -0.574751       -15.6398
  42   2.0000      -0.569151       -15.4874
  43   2.0000      -0.561837       -15.2884
  44   2.0000      -0.526259       -14.3202
  45   2.0000      -0.521307       -14.1855
  46   2.0000      -0.512967       -13.9585
  47   2.0000      -0.510915       -13.9027
  48   2.0000      -0.505547       -13.7566
  49   2.0000      -0.500784       -13.6270
  50   2.0000      -0.492222       -13.3941
  51   2.0000      -0.486134       -13.2284
  52   2.0000      -0.472537       -12.8584
  53   2.0000      -0.464322       -12.6349
  54   2.0000      -0.461069       -12.5463
  55   2.0000      -0.445315       -12.1176
  56   2.0000      -0.441680       -12.0187
  57   2.0000      -0.437412       -11.9026
  58   2.0000      -0.432374       -11.7655
  59   2.0000      -0.425108       -11.5678
  60   2.0000      -0.420452       -11.4411
  61   2.0000      -0.414725       -11.2852
  62   2.0000      -0.408147       -11.1062
  63   2.0000      -0.359716        -9.7884
  64   2.0000      -0.330760        -9.0005
  65   2.0000      -0.324581        -8.8323
  66   2.0000      -0.291097        -7.9212
  67   0.0000       0.027989         0.7616
  68   0.0000       0.077392         2.1059
  69   0.0000       0.107345         2.9210
  70   0.0000       0.128954         3.5090
  71   0.0000       0.133952         3.6450

MULLIKEN ATOMIC CHARGES
-----------------------
   0 S :    0.086246
   1 C :   -0.083427
   2 C :   -0.073266
   3 C :    0.018094
   4 C :   -0.137849
   5 H :    0.030979
   6 C :    0.029038
   7 H :    0.017596
   8 H :    0.040515
   9 C :   -0.042852
  10 H :    0.029343
  11 H :    0.026993
  12 C :   -0.077899
  13 H :    0.040284
  14 H :    0.029311
  15 H :    0.034444
  16 S :    0.104840
  17 C :   -0.108106
  18 C :   -0.031788
  19 C :   -0.087749
  20 C :   -0.112650
  21 H :    0.037678
  22 C :    0.080611
  23 H :    0.035051
  24 H :    0.001326
  25 C :   -0.101176
  26 H :    0.034909
  27 H :    0.043966
  28 C :   -0.033188
  29 H :    0.048616
  30 H :    0.017962
  31 H :    0.028558
  32 H :    0.019249
  33 H :    0.054339
Sum of atomic charges:   -0.0000000

LOEWDIN ATOMIC CHARGES
----------------------
   0 S :    0.396949
   1 C :   -0.184170
   2 C :   -0.064966
   3 C :   -0.057202
   4 C :   -0.184063
   5 H :    0.037358
   6 C :   -0.027868
   7 H :    0.030496
   8 H :    0.033570
   9 C :   -0.040905
  10 H :    0.020267
  11 H :    0.023355
  12 C :   -0.070927
  13 H :    0.023974
  14 H :    0.031304
  15 H :    0.022455
  16 S :    0.416464
  17 C :   -0.187554
  18 C :   -0.080213
  19 C :   -0.059329
  20 C :   -0.206244
  21 H :    0.046400
  22 C :   -0.041026
  23 H :    0.031312
  24 H :    0.024266
  25 C :   -0.038427
  26 H :    0.027883
  27 H :    0.022143
  28 C :   -0.060978
  29 H :    0.034222
  30 H :    0.010004
  31 H :    0.030127
  32 H :    0.012570
  33 H :    0.028753

  Mayer bond orders larger than 0.100000
B(  0-S ,  1-C ) :   1.1273 B(  0-S ,  4-C ) :   1.1447 B(  1-C ,  2-C ) :   1.6349
B(  1-C , 32-H ) :   0.9819 B(  2-C ,  3-C ) :   1.2311 B(  2-C ,  6-C ) :   1.0105
B(  3-C ,  4-C ) :   1.5539 B(  3-C ,  5-H ) :   0.9889 B(  4-C , 20-C ) :   1.0634
B(  6-C ,  7-H ) :   0.9476 B(  6-C ,  8-H ) :   0.9413 B(  6-C ,  9-C ) :   1.0605
B(  9-C , 10-H ) :   0.9574 B(  9-C , 11-H ) :   0.9543 B(  9-C , 12-C ) :   1.0734
B( 12-C , 13-H ) :   0.9747 B( 12-C , 14-H ) :   0.9736 B( 12-C , 15-H ) :   0.9768
B( 16-S , 17-C ) :   1.1550 B( 16-S , 20-C ) :   1.1392 B( 17-C , 18-C ) :   1.6520
B( 17-C , 33-H ) :   0.9608 B( 18-C , 19-C ) :   1.2156 B( 18-C , 21-H ) :   0.9852
B( 19-C , 20-C ) :   1.5900 B( 19-C , 22-C ) :   1.0679 B( 22-C , 23-H ) :   0.9145
B( 22-C , 24-H ) :   0.9261 B( 22-C , 25-C ) :   1.0583 B( 25-C , 26-H ) :   0.9600
B( 25-C , 27-H ) :   0.9568 B( 25-C , 28-C ) :   1.0703 B( 28-C , 29-H ) :   0.9782
B( 28-C , 30-H ) :   0.9784 B( 28-C , 31-H ) :   0.9754

Dispersion correction           -0.013968466
FINAL SINGLE POINT ENERGY     -1339.864376137338

DIPOLE MOMENT
-------------
                                X             Y             Z
Electronic contribution:    -30.06249      -2.50238      -6.37195
Nuclear contribution   :     30.59037       2.33295       6.62428
                        -----------------------------------------
Total Dipole Moment    :      0.52788      -0.16943       0.25232
                        -----------------------------------------
Magnitude (a.u.)       :      0.60913
Magnitude (Debye)      :      1.54827

Rotational constants in cm-1:     0.017618     0.008828     0.006711
Rotational constants in MHz :   528.187524   264.645073   201.177903

                             ****ORCA TERMINATED NORMALLY****
TOTAL RUN TIME: 0 days 0 hours 0 minutes 30 seconds 866 msec
