                         Program Version 4.2.1 -  RELEASE  -
|  1> ! wB97X-D3 SP def2-SVP
|  2> %pal
|  3> nprocs 16
|  4> end
|  5>
|  6> * xyz 0 1
|  7> S 	 -56.923 	 53.9021 	 137.557
|  8> C 	 -55.3318 	 54.2376 	 137.128
|  9> C 	 -54.907 	 53.4119 	 136.072
| 10> C 	 -55.7599 	 52.3485 	 135.836
| 11> C 	 -56.9586 	 52.4038 	 136.567
| 12> H 	 -55.6862 	 51.4788 	 135.165
| 13> C 	 -53.4951 	 53.5577 	 135.366
| 14> H 	 -53.6353 	 54.0127 	 134.424
| 15> H 	 -52.9464 	 52.6155 	 135.277
| 16> C 	 -52.4634 	 54.4462 	 136.129
| 17> H 	 -52.7649 	 55.5161 	 136.167
| 18> H 	 -52.3126 	 54.1523 	 137.183
| 19> C 	 -51.1432 	 54.4479 	 135.293
| 20> H 	 -51.1858 	 54.3026 	 134.205
| 21> H 	 -50.6739 	 55.3416 	 135.613
| 22> H 	 -50.5429 	 53.619 	 135.662
| 23> S 	 -58.4137 	 50.642 	 135.009
| 24> C 	 -59.787 	 49.7926 	 135.658
| 25> C 	 -59.9804 	 50.2096 	 136.963
| 26> C 	 -59.0207 	 51.1055 	 137.503
| 27> C 	 -58.0341 	 51.486 	 136.544
| 28> H 	 -60.8932 	 49.9517 	 137.478
| 29> C 	 -59.165 	 51.6746 	 138.894
| 30> H 	 -60.2494 	 51.8683 	 138.926
| 31> H 	 -58.7706 	 52.762 	 139.003
| 32> C 	 -58.7407 	 50.7951 	 140.105
| 33> H 	 -57.6531 	 50.6105 	 140.081
| 34> H 	 -59.3454 	 49.915 	 140.07
| 35> C 	 -59.1619 	 51.5032 	 141.437
| 36> H 	 -58.4971 	 51.5291 	 142.245
| 37> H 	 -60.0823 	 51.0002 	 141.739
| 38> H 	 -59.2947 	 52.5482 	 141.431
| 39> H 	 -54.7877 	 55.0034 	 137.543
| 40> H 	 -60.5068 	 49.1583 	 135.079
| 41> *
| 42>
| 43>                          ****END OF INPUT****

CARTESIAN COORDINATES (ANGSTROEM)
---------------------------------
  S    -56.923000   53.902100  137.557000
  C    -55.331800   54.237600  137.128000
  C    -54.907000   53.411900  136.072000
  C    -55.759900   52.348500  135.836000
  C    -56.958600   52.403800  136.567000
  H    -55.686200   51.478800  135.165000
  C    -53.495100   53.557700  135.366000
  H    -53.635300   54.012700  134.424000
  H    -52.946400   52.615500  135.277000
  C    -52.463400   54.446200  136.129000
  H    -52.764900   55.516100  136.167000
  H    -52.312600   54.152300  137.183000
  C    -51.143200   54.447900  135.293000
  H    -51.185800   54.302600  134.205000
  H    -50.673900   55.341600  135.613000
  H    -50.542900   53.619000  135.662000
  S    -58.413700   50.642000  135.009000
  C    -59.787000   49.792600  135.658000
  C    -59.980400   50.209600  136.963000
  C    -59.020700   51.105500  137.503000
  C    -58.034100   51.486000  136.544000
  H    -60.893200   49.951700  137.478000
  C    -59.165000   51.674600  138.894000
  H    -60.249400   51.868300  138.926000
  H    -58.770600   52.762000  139.003000
  C    -58.740700   50.795100  140.105000
  H    -57.653100   50.610500  140.081000
  H    -59.345400   49.915000  140.070000
  C    -59.161900   51.503200  141.437000
  H    -58.497100   51.529100  142.245000
  H    -60.082300   51.000200  141.739000
  H    -59.294700   52.548200  141.431000
  H    -54.787700   55.003400  137.543000
  H    -60.506800   49.158300  135.079000

 Total Charge           Charge          ....    0
 Multiplicity           Mult            ....    1
 Number of Electrons    NEL             ....  134
 Basis Dimension        Dim             ....  322

ORBITAL ENERGIES
----------------

  NO   OCC          E(Eh)            E(eV)
   0   2.0000     -88.967610     -2420.9318
   1   2.0000     -88.965764     -2420.8815
   2   2.0000     -10.331586      -281.1368
   3   2.0000     -10.329368      -281.0764
   4   2.0000     -10.322798      -280.8976
   5   2.0000     -10.306855      -280.4638
   6   2.0000     -10.306433      -280.4523
   7   2.0000     -10.302471      -280.3445
   8   2.0000     -10.297106      -280.1985
   9   2.0000     -10.293716      -280.1062
  10   2.0000     -10.293526      -280.1011
  11   2.0000     -10.293236      -280.0932
  12   2.0000     -10.291972      -280.0588
  13   2.0000     -10.289575      -279.9936
  14   2.0000     -10.276760      -279.6449
  15   2.0000     -10.268167      -279.4110
  16   2.0000      -8.082250      -219.9292
  17   2.0000      -8.079798      -219.8625
  18   2.0000      -6.040573      -164.3724
  19   2.0000      -6.038379      -164.3127
  20   2.0000      -6.036688      -164.2666
  21   2.0000      -6.034259      -164.2005
  22   2.0000      -6.033303      -164.1745
  23   2.0000      -6.030666      -164.1028
  24   2.0000      -1.005499       -27.3610
  25   2.0000      -0.983269       -26.7561
  26   2.0000      -0.904030       -24.5999
  27   2.0000      -0.902576       -24.5604
  28   2.0000      -0.874712       -23.8021
  29   2.0000      -0.854135       -23.2422
  30   2.0000      -0.846584       -23.0367
  31   2.0000      -0.808305       -21.9951
  32   2.0000      -0.780639       -21.2423
  33   2.0000      -0.766458       -20.8564
  34   2.0000      -0.714057       -19.4305
  35   2.0000      -0.700672       -19.0663
  36   2.0000      -0.692476       -18.8432
  37   2.0000      -0.667451       -18.1623
  38   2.0000      -0.638319       -17.3696
  39   2.0000      -0.610245       -16.6056
  40   2.0000      -0.591789       -16.1034
  41   2.0000      -0.570682       -15.5291
  42   2.0000      -0.567552       -15.4439
  43   2.0000      -0.566800       -15.4234
  44   2.0000      -0.523924       -14.2567
  45   2.0000      -0.520418       -14.1613
  46   2.0000      -0.514286       -13.9944
  47   2.0000      -0.510700       -13.8969
  48   2.0000      -0.508838       -13.8462
  49   2.0000      -0.499493       -13.5919
  50   2.0000      -0.494023       -13.4431
  51   2.0000      -0.482825       -13.1383
  52   2.0000      -0.472931       -12.8691
  53   2.0000      -0.471039       -12.8176
  54   2.0000      -0.456563       -12.4237
  55   2.0000      -0.449466       -12.2306
  56   2.0000      -0.439543       -11.9606
  57   2.0000      -0.434118       -11.8130
  58   2.0000      -0.426545       -11.6069
  59   2.0000      -0.422257       -11.4902
  60   2.0000      -0.419263       -11.4087
  61   2.0000      -0.413003       -11.2384
  62   2.0000      -0.404115       -10.9965
  63   2.0000      -0.356873        -9.7110
  64   2.0000      -0.334161        -9.0930
  65   2.0000      -0.329858        -8.9759
  66   2.0000      -0.276100        -7.5131
  67   0.0000       0.013929         0.3790
  68   0.0000       0.082022         2.2319
  69   0.0000       0.105580         2.8730
  70   0.0000       0.127044         3.4570
  71   0.0000       0.130390         3.5481

MULLIKEN ATOMIC CHARGES
-----------------------
   0 S :    0.115172
   1 C :   -0.090805
   2 C :   -0.053997
   3 C :   -0.012319
   4 C :   -0.141084
   5 H :    0.024304
   6 C :    0.079129
   7 H :    0.033391
   8 H :    0.037475
   9 C :   -0.158515
  10 H :    0.033404
  11 H :    0.043600
  12 C :   -0.034724
  13 H :    0.044362
  14 H :    0.026920
  15 H :    0.029326
  16 S :    0.088275
  17 C :   -0.102965
  18 C :   -0.040028
  19 C :   -0.009856
  20 C :   -0.144388
  21 H :    0.016114
  22 C :   -0.040208
  23 H :    0.027258
  24 H :    0.047496
  25 C :   -0.023773
  26 H :    0.050328
  27 H :    0.026817
  28 C :   -0.030995
  29 H :    0.013262
  30 H :    0.032459
  31 H :    0.012415
  32 H :    0.020983
  33 H :    0.081166
Sum of atomic charges:   -0.0000000

LOEWDIN ATOMIC CHARGES
----------------------
   0 S :    0.435277
   1 C :   -0.205480
   2 C :   -0.064110
   3 C :   -0.066682
   4 C :   -0.185001
   5 H :    0.033933
   6 C :   -0.022260
   7 H :    0.027129
   8 H :    0.031863
   9 C :   -0.046156
  10 H :    0.019398
  11 H :    0.025545
  12 C :   -0.064938
  13 H :    0.029750
  14 H :    0.022732
  15 H :    0.025826
  16 S :    0.398196
  17 C :   -0.198357
  18 C :   -0.075472
  19 C :   -0.059616
  20 C :   -0.185277
  21 H :    0.028855
  22 C :   -0.050307
  23 H :    0.033178
  24 H :    0.026688
  25 C :   -0.027128
  26 H :    0.031043
  27 H :    0.022669
  28 C :   -0.068470
  29 H :    0.020761
  30 H :    0.029520
  31 H :    0.020553
  32 H :    0.010841
  33 H :    0.045498

  Mayer bond orders larger than 0.100000
B(  0-S ,  1-C ) :   1.1720 B(  0-S ,  4-C ) :   1.1393 B(  1-C ,  2-C ) :   1.5473
B(  1-C ,  4-C ) :   0.1082 B(  1-C , 32-H ) :   0.9751 B(  2-C ,  3-C ) :   1.3006
B(  2-C ,  6-C ) :   0.9958 B(  3-C ,  4-C ) :   1.5118 B(  3-C ,  5-H ) :   0.9906
B(  4-C , 20-C ) :   1.1503 B(  6-C ,  7-H ) :   0.9341 B(  6-C ,  8-H ) :   0.9594
B(  6-C ,  9-C ) :   1.0768 B(  9-C , 10-H ) :   0.9586 B(  9-C , 11-H ) :   0.9580
B(  9-C , 12-C ) :   1.0636 B( 12-C , 13-H ) :   0.9768 B( 12-C , 14-H ) :   0.9765
B( 12-C , 15-H ) :   0.9756 B( 16-S , 17-C ) :   1.1575 B( 16-S , 20-C ) :   1.1319
B( 17-C , 18-C ) :   1.5789 B( 17-C , 20-C ) :   0.1019 B( 17-C , 33-H ) :   0.9619
B( 18-C , 19-C ) :   1.2820 B( 18-C , 21-H ) :   0.9846 B( 19-C , 20-C ) :   1.5121
B( 19-C , 22-C ) :   1.0252 B( 22-C , 23-H ) :   0.9371 B( 22-C , 24-H ) :   0.9366
B( 22-C , 25-C ) :   1.0573 B( 25-C , 26-H ) :   0.9610 B( 25-C , 27-H ) :   0.9638
B( 25-C , 28-C ) :   1.0581 B( 28-C , 29-H ) :   0.9743 B( 28-C , 30-H ) :   0.9829
B( 28-C , 31-H ) :   0.9738

Dispersion correction           -0.013230520
FINAL SINGLE POINT ENERGY     -1339.854901838445

DIPOLE MOMENT
-------------
                                X             Y             Z
Electronic contribution:    -13.62725      -4.16773     -11.54220
Nuclear contribution   :     13.72501       4.22045      11.75250
                        -----------------------------------------
Total Dipole Moment    :      0.09776       0.05272       0.21030
                        -----------------------------------------
Magnitude (a.u.)       :      0.23783
Magnitude (Debye)      :      0.60452

Rotational constants in cm-1:     0.021125     0.007168     0.005713
Rotational constants in MHz :   633.299527   214.904149   171.264665

                             ****ORCA TERMINATED NORMALLY****
TOTAL RUN TIME: 0 days 0 hours 0 minutes 32 seconds 258 msec
