                         Program Version 4.2.1 -  RELEASE  -
|  1> ! wB97X-D3 SP def2-SVP
|  2> %pal
|  3> nprocs 16
|  4> end
|  5>
|  6> * xyz 0 1
|  7> S 	 3.6045 	 -5.19925 	 80.1104
|  8> C 	 3.72349 	 -5.95764 	 81.6754
|  9> C 	 2.57885 	 -5.62506 	 82.4372
| 10> C 	 1.66044 	 -4.73562 	 81.7476
| 11> C 	 2.0543 	 -4.45893 	 80.3913
| 12> H 	 0.740633 	 -4.34874 	 82.203
| 13> C 	 2.22919 	 -6.15251 	 83.7501
| 14> H 	 2.76438 	 -7.07077 	 83.7614
| 15> H 	 1.22761 	 -6.48686 	 83.5837
| 16> C 	 2.61189 	 -5.36971 	 85.0429
| 17> H 	 2.18818 	 -5.95534 	 85.8203
| 18> H 	 3.7075 	 -5.28037 	 85.086
| 19> C 	 2.01752 	 -3.9382 	 85.0857
| 20> H 	 2.30626 	 -3.38671 	 84.1952
| 21> H 	 0.917816 	 -3.90335 	 84.967
| 22> H 	 2.22954 	 -3.36077 	 85.9457
| 23> S 	 2.42126 	 -2.0619 	 79.1156
| 24> C 	 0.992965 	 -1.23194 	 78.514
| 25> C 	 -0.176829 	 -1.98932 	 78.6666
| 26> C 	 0.100601 	 -3.30494 	 79.1674
| 27> C 	 1.44005 	 -3.47584 	 79.4888
| 28> H 	 -1.18093 	 -1.54016 	 78.5416
| 29> C 	 -0.987473 	 -4.21037 	 79.527
| 30> H 	 -1.80909 	 -3.55222 	 79.7954
| 31> H 	 -0.724373 	 -4.74303 	 80.3594
| 32> C 	 -1.41619 	 -5.10874 	 78.3283
| 33> H 	 -1.50583 	 -4.48197 	 77.4289
| 34> H 	 -2.38888 	 -5.53833 	 78.5528
| 35> C 	 -0.462436 	 -6.28384 	 78.1314
| 36> H 	 -0.221758 	 -6.57804 	 79.1527
| 37> H 	 0.431773 	 -6.05874 	 77.5875
| 38> H 	 -0.975001 	 -7.18492 	 77.6857
| 39> H 	 4.51785 	 -6.6181 	 81.9732
| 40> H 	 1.04433 	 -0.192117 	 78.2304
| 41> *
| 42>
| 43>                          ****END OF INPUT****

CARTESIAN COORDINATES (ANGSTROEM)
---------------------------------
  S      3.604500   -5.199250   80.110400
  C      3.723490   -5.957640   81.675400
  C      2.578850   -5.625060   82.437200
  C      1.660440   -4.735620   81.747600
  C      2.054300   -4.458930   80.391300
  H      0.740633   -4.348740   82.203000
  C      2.229190   -6.152510   83.750100
  H      2.764380   -7.070770   83.761400
  H      1.227610   -6.486860   83.583700
  C      2.611890   -5.369710   85.042900
  H      2.188180   -5.955340   85.820300
  H      3.707500   -5.280370   85.086000
  C      2.017520   -3.938200   85.085700
  H      2.306260   -3.386710   84.195200
  H      0.917816   -3.903350   84.967000
  H      2.229540   -3.360770   85.945700
  S      2.421260   -2.061900   79.115600
  C      0.992965   -1.231940   78.514000
  C     -0.176829   -1.989320   78.666600
  C      0.100601   -3.304940   79.167400
  C      1.440050   -3.475840   79.488800
  H     -1.180930   -1.540160   78.541600
  C     -0.987473   -4.210370   79.527000
  H     -1.809090   -3.552220   79.795400
  H     -0.724373   -4.743030   80.359400
  C     -1.416190   -5.108740   78.328300
  H     -1.505830   -4.481970   77.428900
  H     -2.388880   -5.538330   78.552800
  C     -0.462436   -6.283840   78.131400
  H     -0.221758   -6.578040   79.152700
  H      0.431773   -6.058740   77.587500
  H     -0.975001   -7.184920   77.685700
  H      4.517850   -6.618100   81.973200
  H      1.044330   -0.192117   78.230400

 Total Charge           Charge          ....    0
 Multiplicity           Mult            ....    1
 Number of Electrons    NEL             ....  134
 Basis Dimension        Dim             ....  322

ORBITAL ENERGIES
----------------

  NO   OCC          E(Eh)            E(eV)
   0   2.0000     -88.967227     -2420.9213
   1   2.0000     -88.966370     -2420.8980
   2   2.0000     -10.335417      -281.2410
   3   2.0000     -10.326537      -280.9994
   4   2.0000     -10.320939      -280.8470
   5   2.0000     -10.316295      -280.7206
   6   2.0000     -10.301516      -280.3185
   7   2.0000     -10.300649      -280.2949
   8   2.0000     -10.300373      -280.2874
   9   2.0000     -10.300310      -280.2857
  10   2.0000     -10.292559      -280.0748
  11   2.0000     -10.284513      -279.8558
  12   2.0000     -10.281695      -279.7791
  13   2.0000     -10.279604      -279.7222
  14   2.0000     -10.273553      -279.5576
  15   2.0000     -10.271200      -279.4936
  16   2.0000      -8.081769      -219.9161
  17   2.0000      -8.080932      -219.8933
  18   2.0000      -6.040236      -164.3632
  19   2.0000      -6.039442      -164.3416
  20   2.0000      -6.036025      -164.2486
  21   2.0000      -6.035492      -164.2341
  22   2.0000      -6.032876      -164.1629
  23   2.0000      -6.031665      -164.1300
  24   2.0000      -1.002707       -27.2850
  25   2.0000      -0.980181       -26.6721
  26   2.0000      -0.915138       -24.9022
  27   2.0000      -0.912879       -24.8407
  28   2.0000      -0.864078       -23.5128
  29   2.0000      -0.850402       -23.1406
  30   2.0000      -0.844359       -22.9762
  31   2.0000      -0.809901       -22.0385
  32   2.0000      -0.783756       -21.3271
  33   2.0000      -0.770871       -20.9765
  34   2.0000      -0.710799       -19.3418
  35   2.0000      -0.700664       -19.0660
  36   2.0000      -0.694667       -18.9028
  37   2.0000      -0.662567       -18.0294
  38   2.0000      -0.638221       -17.3669
  39   2.0000      -0.614553       -16.7228
  40   2.0000      -0.598435       -16.2842
  41   2.0000      -0.572539       -15.5796
  42   2.0000      -0.551594       -15.0096
  43   2.0000      -0.549933       -14.9644
  44   2.0000      -0.542211       -14.7543
  45   2.0000      -0.538803       -14.6616
  46   2.0000      -0.518837       -14.1183
  47   2.0000      -0.514412       -13.9979
  48   2.0000      -0.501798       -13.6546
  49   2.0000      -0.494394       -13.4531
  50   2.0000      -0.486947       -13.2505
  51   2.0000      -0.479764       -13.0550
  52   2.0000      -0.472037       -12.8448
  53   2.0000      -0.463354       -12.6085
  54   2.0000      -0.456811       -12.4305
  55   2.0000      -0.447182       -12.1684
  56   2.0000      -0.441384       -12.0107
  57   2.0000      -0.435065       -11.8387
  58   2.0000      -0.431357       -11.7378
  59   2.0000      -0.428232       -11.6528
  60   2.0000      -0.422491       -11.4966
  61   2.0000      -0.417555       -11.3622
  62   2.0000      -0.413685       -11.2569
  63   2.0000      -0.342554        -9.3214
  64   2.0000      -0.329312        -8.9610
  65   2.0000      -0.324270        -8.8238
  66   2.0000      -0.290192        -7.8965
  67   0.0000       0.029954         0.8151
  68   0.0000       0.061860         1.6833
  69   0.0000       0.105492         2.8706
  70   0.0000       0.113930         3.1002
  71   0.0000       0.130420         3.5489

MULLIKEN ATOMIC CHARGES
-----------------------
   0 S :    0.110262
   1 C :   -0.112556
   2 C :   -0.140854
   3 C :    0.026517
   4 C :   -0.175273
   5 H :    0.027707
   6 C :    0.067840
   7 H :    0.001454
   8 H :    0.023879
   9 C :   -0.004265
  10 H :    0.031454
  11 H :    0.038686
  12 C :   -0.070416
  13 H :    0.037278
  14 H :    0.018820
  15 H :    0.033209
  16 S :    0.109988
  17 C :   -0.102417
  18 C :   -0.039519
  19 C :   -0.068893
  20 C :   -0.124578
  21 H :    0.037604
  22 C :    0.110387
  23 H :    0.015614
  24 H :   -0.013611
  25 C :   -0.058413
  26 H :    0.029919
  27 H :    0.024305
  28 C :   -0.046951
  29 H :    0.021141
  30 H :    0.043906
  31 H :    0.038118
  32 H :    0.049572
  33 H :    0.060089
Sum of atomic charges:    0.0000000

LOEWDIN ATOMIC CHARGES
----------------------
   0 S :    0.420677
   1 C :   -0.208572
   2 C :   -0.063170
   3 C :   -0.068532
   4 C :   -0.204807
   5 H :    0.030803
   6 C :   -0.041636
   7 H :    0.029547
   8 H :    0.032838
   9 C :   -0.021274
  10 H :    0.022619
  11 H :    0.031113
  12 C :   -0.072558
  13 H :    0.027259
  14 H :    0.024317
  15 H :    0.020272
  16 S :    0.403224
  17 C :   -0.179181
  18 C :   -0.071194
  19 C :   -0.051370
  20 C :   -0.203753
  21 H :    0.038784
  22 C :   -0.024483
  23 H :    0.033274
  24 H :    0.012912
  25 C :   -0.031825
  26 H :    0.023795
  27 H :    0.022123
  28 C :   -0.066004
  29 H :    0.025085
  30 H :    0.023378
  31 H :    0.032013
  32 H :    0.028322
  33 H :    0.026002

  Mayer bond orders larger than 0.100000
B(  0-S ,  1-C ) :   1.1473 B(  0-S ,  4-C ) :   1.1802 B(  1-C ,  2-C ) :   1.5603
B(  1-C ,  4-C ) :   0.1053 B(  1-C , 32-H ) :   0.9727 B(  2-C ,  3-C ) :   1.2777
B(  2-C ,  6-C ) :   1.0192 B(  3-C ,  4-C ) :   1.5097 B(  3-C ,  5-H ) :   0.9808
B(  4-C , 20-C ) :   1.0274 B(  6-C ,  7-H ) :   0.9293 B(  6-C ,  8-H ) :   0.9387
B(  6-C ,  9-C ) :   1.0625 B(  9-C , 10-H ) :   0.9552 B(  9-C , 11-H ) :   0.9543
B(  9-C , 12-C ) :   1.0809 B( 12-C , 13-H ) :   0.9709 B( 12-C , 14-H ) :   0.9733
B( 12-C , 15-H ) :   0.9760 B( 16-S , 17-C ) :   1.1639 B( 16-S , 20-C ) :   1.1356
B( 17-C , 18-C ) :   1.6019 B( 17-C , 33-H ) :   0.9685 B( 18-C , 19-C ) :   1.2438
B( 18-C , 21-H ) :   0.9827 B( 19-C , 20-C ) :   1.5917 B( 19-C , 22-C ) :   1.0493
B( 22-C , 23-H ) :   0.9261 B( 22-C , 24-H ) :   0.9292 B( 22-C , 25-C ) :   1.0748
B( 25-C , 26-H ) :   0.9576 B( 25-C , 27-H ) :   0.9547 B( 25-C , 28-C ) :   1.0695
B( 28-C , 29-H ) :   0.9743 B( 28-C , 30-H ) :   0.9766 B( 28-C , 31-H ) :   0.9757

Dispersion correction           -0.015222540
FINAL SINGLE POINT ENERGY     -1339.872437211739

DIPOLE MOMENT
-------------
                                X             Y             Z
Electronic contribution:     14.29989       9.27933     -13.16794
Nuclear contribution   :    -14.81765      -9.32740      13.68868
                        -----------------------------------------
Total Dipole Moment    :     -0.51776      -0.04807       0.52074
                        -----------------------------------------
Magnitude (a.u.)       :      0.73590
Magnitude (Debye)      :      1.87052

Rotational constants in cm-1:     0.018708     0.008714     0.008118
Rotational constants in MHz :   560.849810   261.241737   243.369345

                             ****ORCA TERMINATED NORMALLY****
TOTAL RUN TIME: 0 days 0 hours 0 minutes 35 seconds 850 msec
