                         Program Version 4.2.1 -  RELEASE  -
|  1> ! wB97X-D3 SP def2-SVP
|  2> %pal
|  3> nprocs 16
|  4> end
|  5>
|  6> * xyz 0 1
|  7> S 	 42.1532 	 16.3384 	 85.956
|  8> C 	 42.6881 	 15.8935 	 84.3467
|  9> C 	 42.1871 	 14.6399 	 83.9989
| 10> C 	 41.4033 	 14.104 	 85.0145
| 11> C 	 41.3983 	 14.7722 	 86.2068
| 12> H 	 40.9134 	 13.1615 	 84.8821
| 13> C 	 42.3546 	 13.9594 	 82.6662
| 14> H 	 42.3282 	 14.7963 	 81.9632
| 15> H 	 41.5731 	 13.3387 	 82.4326
| 16> C 	 43.6271 	 13.3337 	 82.4118
| 17> H 	 44.4387 	 14.0873 	 82.4644
| 18> H 	 43.8408 	 12.5744 	 83.1603
| 19> C 	 43.5338 	 12.6666 	 81.0762
| 20> H 	 42.6795 	 11.902 	 81.1176
| 21> H 	 43.3922 	 13.424 	 80.3335
| 22> H 	 44.4465 	 12.1339 	 80.7123
| 23> S 	 40.0804 	 15.9742 	 88.251
| 24> C 	 39.5089 	 14.971 	 89.5873
| 25> C 	 39.5729 	 13.6231 	 89.2993
| 26> C 	 40.2507 	 13.39 	 88.1269
| 27> C 	 40.6302 	 14.5535 	 87.4399
| 28> H 	 38.9115 	 12.9151 	 89.7504
| 29> C 	 40.4734 	 11.9453 	 87.6607
| 30> H 	 41.1204 	 11.3177 	 88.2587
| 31> H 	 41.0499 	 12.018 	 86.7013
| 32> C 	 39.195 	 11.2558 	 87.3415
| 33> H 	 38.7703 	 11.8989 	 86.5916
| 34> H 	 38.3814 	 11.2358 	 88.1069
| 35> C 	 39.3387 	 9.90519 	 86.7033
| 36> H 	 38.3698 	 9.51336 	 86.5032
| 37> H 	 39.9465 	 9.27246 	 87.3781
| 38> H 	 39.8912 	 10.0851 	 85.8004
| 39> H 	 43.2947 	 16.502 	 83.6859
| 40> H 	 38.8115 	 15.305 	 90.2908
| 41> *
| 42>
| 43>                          ****END OF INPUT****

CARTESIAN COORDINATES (ANGSTROEM)
---------------------------------
  S     42.153200   16.338400   85.956000
  C     42.688100   15.893500   84.346700
  C     42.187100   14.639900   83.998900
  C     41.403300   14.104000   85.014500
  C     41.398300   14.772200   86.206800
  H     40.913400   13.161500   84.882100
  C     42.354600   13.959400   82.666200
  H     42.328200   14.796300   81.963200
  H     41.573100   13.338700   82.432600
  C     43.627100   13.333700   82.411800
  H     44.438700   14.087300   82.464400
  H     43.840800   12.574400   83.160300
  C     43.533800   12.666600   81.076200
  H     42.679500   11.902000   81.117600
  H     43.392200   13.424000   80.333500
  H     44.446500   12.133900   80.712300
  S     40.080400   15.974200   88.251000
  C     39.508900   14.971000   89.587300
  C     39.572900   13.623100   89.299300
  C     40.250700   13.390000   88.126900
  C     40.630200   14.553500   87.439900
  H     38.911500   12.915100   89.750400
  C     40.473400   11.945300   87.660700
  H     41.120400   11.317700   88.258700
  H     41.049900   12.018000   86.701300
  C     39.195000   11.255800   87.341500
  H     38.770300   11.898900   86.591600
  H     38.381400   11.235800   88.106900
  C     39.338700    9.905190   86.703300
  H     38.369800    9.513360   86.503200
  H     39.946500    9.272460   87.378100
  H     39.891200   10.085100   85.800400
  H     43.294700   16.502000   83.685900
  H     38.811500   15.305000   90.290800

 Total Charge           Charge          ....    0
 Multiplicity           Mult            ....    1
 Number of Electrons    NEL             ....  134
 Basis Dimension        Dim             ....  322

ORBITAL ENERGIES
----------------

  NO   OCC          E(Eh)            E(eV)
   0   2.0000     -88.970828     -2421.0193
   1   2.0000     -88.967621     -2420.9320
   2   2.0000     -10.330911      -281.1184
   3   2.0000     -10.330653      -281.1114
   4   2.0000     -10.315830      -280.7080
   5   2.0000     -10.312115      -280.6069
   6   2.0000     -10.299784      -280.2714
   7   2.0000     -10.296716      -280.1879
   8   2.0000     -10.291030      -280.0332
   9   2.0000     -10.287816      -279.9457
  10   2.0000     -10.287775      -279.9446
  11   2.0000     -10.283685      -279.8333
  12   2.0000     -10.280338      -279.7422
  13   2.0000     -10.280011      -279.7333
  14   2.0000     -10.279301      -279.7140
  15   2.0000     -10.275475      -279.6099
  16   2.0000      -8.085624      -220.0210
  17   2.0000      -8.082074      -219.9244
  18   2.0000      -6.044065      -164.4674
  19   2.0000      -6.040614      -164.3735
  20   2.0000      -6.040206      -164.3624
  21   2.0000      -6.036589      -164.2639
  22   2.0000      -6.036362      -164.2577
  23   2.0000      -6.032848      -164.1621
  24   2.0000      -1.013562       -27.5804
  25   2.0000      -0.990841       -26.9622
  26   2.0000      -0.935118       -25.4459
  27   2.0000      -0.921043       -25.0628
  28   2.0000      -0.876212       -23.8429
  29   2.0000      -0.857357       -23.3299
  30   2.0000      -0.850721       -23.1493
  31   2.0000      -0.817801       -22.2535
  32   2.0000      -0.784457       -21.3462
  33   2.0000      -0.772433       -21.0190
  34   2.0000      -0.705529       -19.1984
  35   2.0000      -0.701509       -19.0890
  36   2.0000      -0.695758       -18.9325
  37   2.0000      -0.666813       -18.1449
  38   2.0000      -0.643816       -17.5191
  39   2.0000      -0.629476       -17.1289
  40   2.0000      -0.605077       -16.4650
  41   2.0000      -0.590652       -16.0725
  42   2.0000      -0.572789       -15.5864
  43   2.0000      -0.567204       -15.4344
  44   2.0000      -0.537012       -14.6128
  45   2.0000      -0.529587       -14.4108
  46   2.0000      -0.521867       -14.2007
  47   2.0000      -0.510089       -13.8802
  48   2.0000      -0.505006       -13.7419
  49   2.0000      -0.500064       -13.6074
  50   2.0000      -0.496614       -13.5136
  51   2.0000      -0.480964       -13.0877
  52   2.0000      -0.472486       -12.8570
  53   2.0000      -0.471535       -12.8311
  54   2.0000      -0.460532       -12.5317
  55   2.0000      -0.454370       -12.3640
  56   2.0000      -0.447336       -12.1726
  57   2.0000      -0.439647       -11.9634
  58   2.0000      -0.436447       -11.8763
  59   2.0000      -0.427112       -11.6223
  60   2.0000      -0.420219       -11.4347
  61   2.0000      -0.417044       -11.3483
  62   2.0000      -0.407767       -11.0959
  63   2.0000      -0.356599        -9.7036
  64   2.0000      -0.339194        -9.2299
  65   2.0000      -0.332493        -9.0476
  66   2.0000      -0.283060        -7.7025
  67   0.0000       0.018459         0.5023
  68   0.0000       0.074180         2.0185
  69   0.0000       0.090153         2.4532
  70   0.0000       0.124014         3.3746
  71   0.0000       0.130763         3.5582

MULLIKEN ATOMIC CHARGES
-----------------------
   0 S :    0.093177
   1 C :   -0.117708
   2 C :   -0.076837
   3 C :    0.017700
   4 C :   -0.108390
   5 H :   -0.004147
   6 C :    0.094309
   7 H :    0.013602
   8 H :   -0.009595
   9 C :   -0.046952
  10 H :    0.026063
  11 H :    0.021498
  12 C :   -0.055246
  13 H :    0.039950
  14 H :    0.019771
  15 H :    0.037844
  16 S :    0.105005
  17 C :   -0.063272
  18 C :   -0.037729
  19 C :   -0.045153
  20 C :   -0.131868
  21 H :    0.025852
  22 C :    0.081024
  23 H :    0.025789
  24 H :    0.003416
  25 C :   -0.123203
  26 H :    0.015313
  27 H :    0.029202
  28 C :    0.007059
  29 H :    0.033346
  30 H :    0.030008
  31 H :    0.016873
  32 H :    0.043228
  33 H :    0.040070
Sum of atomic charges:    0.0000000

LOEWDIN ATOMIC CHARGES
----------------------
   0 S :    0.402140
   1 C :   -0.195757
   2 C :   -0.058234
   3 C :   -0.069336
   4 C :   -0.184030
   5 H :    0.023986
   6 C :   -0.027266
   7 H :    0.035170
   8 H :    0.016616
   9 C :   -0.043428
  10 H :    0.026061
  11 H :    0.021641
  12 C :   -0.065446
  13 H :    0.033598
  14 H :    0.019662
  15 H :    0.028463
  16 S :    0.417021
  17 C :   -0.174033
  18 C :   -0.061452
  19 C :   -0.059118
  20 C :   -0.198092
  21 H :    0.033344
  22 C :   -0.030894
  23 H :    0.024424
  24 H :    0.031062
  25 C :   -0.052442
  26 H :    0.022268
  27 H :    0.021387
  28 C :   -0.053081
  29 H :    0.024955
  30 H :    0.026328
  31 H :    0.021455
  32 H :    0.027221
  33 H :    0.015809

  Mayer bond orders larger than 0.100000
B(  0-S ,  1-C ) :   1.1449 B(  0-S ,  4-C ) :   1.1518 B(  1-C ,  2-C ) :   1.5767
B(  1-C ,  4-C ) :   0.1055 B(  1-C , 32-H ) :   0.9691 B(  2-C ,  3-C ) :   1.2987
B(  2-C ,  6-C ) :   1.0068 B(  3-C ,  4-C ) :   1.5343 B(  3-C ,  5-H ) :   0.9883
B(  4-C , 20-C ) :   1.0466 B(  6-C ,  7-H ) :   0.9285 B(  6-C ,  8-H ) :   0.9440
B(  6-C ,  9-C ) :   1.0767 B(  9-C , 10-H ) :   0.9481 B(  9-C , 11-H ) :   0.9486
B(  9-C , 12-C ) :   1.0858 B( 12-C , 13-H ) :   0.9707 B( 12-C , 14-H ) :   0.9713
B( 12-C , 15-H ) :   0.9719 B( 16-S , 17-C ) :   1.1552 B( 16-S , 20-C ) :   1.1577
B( 17-C , 18-C ) :   1.5962 B( 17-C , 20-C ) :   0.1059 B( 17-C , 33-H ) :   0.9651
B( 18-C , 19-C ) :   1.2938 B( 18-C , 21-H ) :   0.9818 B( 19-C , 20-C ) :   1.5676
B( 19-C , 22-C ) :   1.0323 B( 22-C , 23-H ) :   0.9365 B( 22-C , 24-H ) :   0.9301
B( 22-C , 25-C ) :   1.0553 B( 25-C , 26-H ) :   0.9472 B( 25-C , 27-H ) :   0.9541
B( 25-C , 28-C ) :   1.0950 B( 28-C , 29-H ) :   0.9710 B( 28-C , 30-H ) :   0.9728
B( 28-C , 31-H ) :   0.9722

Dispersion correction           -0.013469512
FINAL SINGLE POINT ENERGY     -1339.860804826448

DIPOLE MOMENT
-------------
                                X             Y             Z
Electronic contribution:     -1.61275      26.32299      18.19340
Nuclear contribution   :      1.36535     -26.85957     -18.65959
                        -----------------------------------------
Total Dipole Moment    :     -0.24741      -0.53658      -0.46618
                        -----------------------------------------
Magnitude (a.u.)       :      0.75263
Magnitude (Debye)      :      1.91303

Rotational constants in cm-1:     0.017959     0.008845     0.006098
Rotational constants in MHz :   538.403956   265.161010   182.802917

                             ****ORCA TERMINATED NORMALLY****
TOTAL RUN TIME: 0 days 0 hours 0 minutes 29 seconds 914 msec
