                         Program Version 4.2.1 -  RELEASE  -
|  1> ! wB97X-D3 SP def2-SVP
|  2> %pal
|  3> nprocs 16
|  4> end
|  5>
|  6> * xyz 0 1
|  7> S 	 6.34045 	 78.5693 	 46.0948
|  8> C 	 6.88779 	 77.1445 	 45.1666
|  9> C 	 7.1581 	 76.0477 	 45.9679
| 10> C 	 6.73337 	 76.3369 	 47.2819
| 11> C 	 6.24339 	 77.5852 	 47.5588
| 12> H 	 6.68186 	 75.6033 	 48.0866
| 13> C 	 7.9047 	 74.8155 	 45.5665
| 14> H 	 8.54524 	 74.6002 	 46.3424
| 15> H 	 8.54616 	 75.1292 	 44.7066
| 16> C 	 7.14184 	 73.5529 	 45.2865
| 17> H 	 6.49115 	 73.3194 	 46.1396
| 18> H 	 6.51406 	 73.8693 	 44.4746
| 19> C 	 7.99943 	 72.2461 	 45.0466
| 20> H 	 7.42079 	 71.3021 	 44.9727
| 21> H 	 8.61846 	 72.3752 	 44.183
| 22> H 	 8.7921 	 72.199 	 45.8859
| 23> S 	 6.72579 	 79.0454 	 49.8389
| 24> C 	 5.46135 	 79.2288 	 51.0196
| 25> C 	 4.26692 	 78.79 	 50.5244
| 26> C 	 4.35684 	 78.1414 	 49.2598
| 27> C 	 5.67251 	 78.0774 	 48.7951
| 28> H 	 3.46533 	 78.8755 	 51.1392
| 29> C 	 3.17651 	 77.4415 	 48.7183
| 30> H 	 3.4391 	 76.9724 	 47.7432
| 31> H 	 2.33326 	 78.0624 	 48.5166
| 32> C 	 2.63863 	 76.2361 	 49.5248
| 33> H 	 1.88504 	 75.8456 	 48.8758
| 34> H 	 2.18974 	 76.4286 	 50.4562
| 35> C 	 3.65954 	 75.0909 	 49.641
| 36> H 	 4.38227 	 74.9811 	 48.8477
| 37> H 	 3.19711 	 74.1228 	 49.7431
| 38> H 	 4.30655 	 75.2456 	 50.5202
| 39> H 	 6.96461 	 77.109 	 44.1038
| 40> H 	 5.67817 	 79.7691 	 51.955
| 41> *
| 42>
| 43>                          ****END OF INPUT****

CARTESIAN COORDINATES (ANGSTROEM)
---------------------------------
  S      6.340450   78.569300   46.094800
  C      6.887790   77.144500   45.166600
  C      7.158100   76.047700   45.967900
  C      6.733370   76.336900   47.281900
  C      6.243390   77.585200   47.558800
  H      6.681860   75.603300   48.086600
  C      7.904700   74.815500   45.566500
  H      8.545240   74.600200   46.342400
  H      8.546160   75.129200   44.706600
  C      7.141840   73.552900   45.286500
  H      6.491150   73.319400   46.139600
  H      6.514060   73.869300   44.474600
  C      7.999430   72.246100   45.046600
  H      7.420790   71.302100   44.972700
  H      8.618460   72.375200   44.183000
  H      8.792100   72.199000   45.885900
  S      6.725790   79.045400   49.838900
  C      5.461350   79.228800   51.019600
  C      4.266920   78.790000   50.524400
  C      4.356840   78.141400   49.259800
  C      5.672510   78.077400   48.795100
  H      3.465330   78.875500   51.139200
  C      3.176510   77.441500   48.718300
  H      3.439100   76.972400   47.743200
  H      2.333260   78.062400   48.516600
  C      2.638630   76.236100   49.524800
  H      1.885040   75.845600   48.875800
  H      2.189740   76.428600   50.456200
  C      3.659540   75.090900   49.641000
  H      4.382270   74.981100   48.847700
  H      3.197110   74.122800   49.743100
  H      4.306550   75.245600   50.520200
  H      6.964610   77.109000   44.103800
  H      5.678170   79.769100   51.955000

 Total Charge           Charge          ....    0
 Multiplicity           Mult            ....    1
 Number of Electrons    NEL             ....  134
 Basis Dimension        Dim             ....  322

ORBITAL ENERGIES
----------------

  NO   OCC          E(Eh)            E(eV)
   0   2.0000     -88.965080     -2420.8629
   1   2.0000     -88.959704     -2420.7166
   2   2.0000     -10.326227      -280.9909
   3   2.0000     -10.325808      -280.9795
   4   2.0000     -10.317603      -280.7563
   5   2.0000     -10.316480      -280.7257
   6   2.0000     -10.303240      -280.3654
   7   2.0000     -10.300013      -280.2776
   8   2.0000     -10.291989      -280.0592
   9   2.0000     -10.291495      -280.0458
  10   2.0000     -10.288306      -279.9590
  11   2.0000     -10.287677      -279.9419
  12   2.0000     -10.286999      -279.9235
  13   2.0000     -10.284137      -279.8456
  14   2.0000     -10.280821      -279.7554
  15   2.0000     -10.270627      -279.4780
  16   2.0000      -8.079048      -219.8421
  17   2.0000      -8.074910      -219.7295
  18   2.0000      -6.037625      -164.2921
  19   2.0000      -6.033723      -164.1860
  20   2.0000      -6.033301      -164.1745
  21   2.0000      -6.029714      -164.0769
  22   2.0000      -6.029323      -164.0662
  23   2.0000      -6.025794      -163.9702
  24   2.0000      -1.004932       -27.3456
  25   2.0000      -0.984269       -26.7833
  26   2.0000      -0.916644       -24.9431
  27   2.0000      -0.910956       -24.7884
  28   2.0000      -0.869856       -23.6700
  29   2.0000      -0.847789       -23.0695
  30   2.0000      -0.844356       -22.9761
  31   2.0000      -0.815370       -22.1873
  32   2.0000      -0.785834       -21.3836
  33   2.0000      -0.774774       -21.0827
  34   2.0000      -0.711891       -19.3716
  35   2.0000      -0.704326       -19.1657
  36   2.0000      -0.695688       -18.9306
  37   2.0000      -0.661077       -17.9888
  38   2.0000      -0.643397       -17.5077
  39   2.0000      -0.621066       -16.9001
  40   2.0000      -0.602977       -16.4078
  41   2.0000      -0.578130       -15.7317
  42   2.0000      -0.564222       -15.3533
  43   2.0000      -0.551859       -15.0168
  44   2.0000      -0.542849       -14.7717
  45   2.0000      -0.527490       -14.3537
  46   2.0000      -0.520281       -14.1576
  47   2.0000      -0.505842       -13.7646
  48   2.0000      -0.502540       -13.6748
  49   2.0000      -0.499978       -13.6051
  50   2.0000      -0.492827       -13.4105
  51   2.0000      -0.478404       -13.0180
  52   2.0000      -0.470020       -12.7899
  53   2.0000      -0.463502       -12.6125
  54   2.0000      -0.457616       -12.4524
  55   2.0000      -0.447315       -12.1721
  56   2.0000      -0.438699       -11.9376
  57   2.0000      -0.436145       -11.8681
  58   2.0000      -0.432977       -11.7819
  59   2.0000      -0.427781       -11.6405
  60   2.0000      -0.423252       -11.5173
  61   2.0000      -0.418682       -11.3929
  62   2.0000      -0.413655       -11.2561
  63   2.0000      -0.334654        -9.1064
  64   2.0000      -0.328484        -8.9385
  65   2.0000      -0.320243        -8.7143
  66   2.0000      -0.310298        -8.4436
  67   0.0000       0.043596         1.1863
  68   0.0000       0.049824         1.3558
  69   0.0000       0.110125         2.9966
  70   0.0000       0.117331         3.1927
  71   0.0000       0.129415         3.5216

MULLIKEN ATOMIC CHARGES
-----------------------
   0 S :    0.115833
   1 C :   -0.126816
   2 C :   -0.075353
   3 C :    0.041710
   4 C :   -0.172844
   5 H :    0.010376
   6 C :    0.092426
   7 H :   -0.000491
   8 H :    0.028143
   9 C :   -0.067743
  10 H :    0.029239
  11 H :    0.022342
  12 C :   -0.059438
  13 H :    0.057844
  14 H :    0.025664
  15 H :    0.034527
  16 S :    0.096945
  17 C :   -0.104341
  18 C :    0.005745
  19 C :    0.034014
  20 C :   -0.200775
  21 H :   -0.021754
  22 C :    0.055520
  23 H :    0.029252
  24 H :    0.026831
  25 C :   -0.045527
  26 H :    0.021687
  27 H :    0.022937
  28 C :   -0.054675
  29 H :    0.010650
  30 H :    0.028112
  31 H :    0.032649
  32 H :    0.036864
  33 H :    0.070447
Sum of atomic charges:   -0.0000000

LOEWDIN ATOMIC CHARGES
----------------------
   0 S :    0.384773
   1 C :   -0.172525
   2 C :   -0.064668
   3 C :   -0.055818
   4 C :   -0.200468
   5 H :    0.029318
   6 C :   -0.029405
   7 H :    0.020025
   8 H :    0.037036
   9 C :   -0.041514
  10 H :    0.025213
  11 H :    0.020439
  12 C :   -0.069420
  13 H :    0.033760
  14 H :    0.019228
  15 H :    0.034055
  16 S :    0.397620
  17 C :   -0.177107
  18 C :   -0.062582
  19 C :   -0.046689
  20 C :   -0.199776
  21 H :    0.014735
  22 C :   -0.031431
  23 H :    0.037089
  24 H :    0.030022
  25 C :   -0.029106
  26 H :    0.024903
  27 H :    0.015063
  28 C :   -0.068744
  29 H :    0.019159
  30 H :    0.023817
  31 H :    0.028060
  32 H :    0.020919
  33 H :    0.034019

  Mayer bond orders larger than 0.100000
B(  0-S ,  1-C ) :   1.1451 B(  0-S ,  4-C ) :   1.1228 B(  1-C ,  2-C ) :   1.6103
B(  1-C , 32-H ) :   0.9681 B(  2-C ,  3-C ) :   1.2359 B(  2-C ,  6-C ) :   1.0211
B(  3-C ,  4-C ) :   1.6228 B(  3-C ,  5-H ) :   0.9831 B(  4-C , 20-C ) :   1.0308
B(  6-C ,  7-H ) :   0.9274 B(  6-C ,  8-H ) :   0.9388 B(  6-C ,  9-C ) :   1.0617
B(  9-C , 10-H ) :   0.9571 B(  9-C , 11-H ) :   0.9560 B(  9-C , 12-C ) :   1.0664
B( 12-C , 13-H ) :   0.9764 B( 12-C , 14-H ) :   0.9765 B( 12-C , 15-H ) :   0.9730
B( 16-S , 17-C ) :   1.1632 B( 16-S , 20-C ) :   1.1471 B( 17-C , 18-C ) :   1.6010
B( 17-C , 33-H ) :   0.9659 B( 18-C , 19-C ) :   1.2115 B( 18-C , 21-H ) :   1.0142
B( 19-C , 20-C ) :   1.5811 B( 19-C , 22-C ) :   1.0731 B( 22-C , 23-H ) :   0.9315
B( 22-C , 24-H ) :   0.9278 B( 22-C , 25-C ) :   1.0806 B( 25-C , 26-H ) :   0.9563
B( 25-C , 27-H ) :   0.9574 B( 25-C , 28-C ) :   1.0690 B( 28-C , 29-H ) :   0.9743
B( 28-C , 30-H ) :   0.9747 B( 28-C , 31-H ) :   0.9746

Dispersion correction           -0.014852434
FINAL SINGLE POINT ENERGY     -1339.870431023176

DIPOLE MOMENT
-------------
                                X             Y             Z
Electronic contribution:      5.69398      27.76498       4.12532
Nuclear contribution   :     -5.97643     -28.30703      -4.08342
                        -----------------------------------------
Total Dipole Moment    :     -0.28245      -0.54206       0.04190
                        -----------------------------------------
Magnitude (a.u.)       :      0.61266
Magnitude (Debye)      :      1.55727

Rotational constants in cm-1:     0.019761     0.008167     0.006837
Rotational constants in MHz :   592.405426   244.825747   204.954744

                             ****ORCA TERMINATED NORMALLY****
TOTAL RUN TIME: 0 days 0 hours 0 minutes 34 seconds 204 msec
