                         Program Version 4.2.1 -  RELEASE  -
|  1> ! wB97X-D3 SP def2-SVP
|  2> %pal
|  3> nprocs 16
|  4> end
|  5>
|  6> * xyz 0 1
|  7> S 	 -103.267 	 46.1112 	 124.352
|  8> C 	 -104.943 	 46.2933 	 124.588
|  9> C 	 -105.58 	 47.0367 	 123.652
| 10> C 	 -104.7 	 47.4038 	 122.591
| 11> C 	 -103.431 	 46.8327 	 122.821
| 12> H 	 -104.905 	 48.0997 	 121.739
| 13> C 	 -107.039 	 47.523 	 123.595
| 14> H 	 -107.149 	 48.0741 	 122.678
| 15> H 	 -107.277 	 48.2291 	 124.415
| 16> C 	 -108.088 	 46.4503 	 123.542
| 17> H 	 -107.85 	 45.726 	 122.825
| 18> H 	 -108.091 	 45.8466 	 124.41
| 19> C 	 -109.455 	 46.9979 	 123.38
| 20> H 	 -109.922 	 47.5606 	 124.213
| 21> H 	 -109.519 	 47.6961 	 122.564
| 22> H 	 -110.122 	 46.1523 	 123.158
| 23> S 	 -101.969 	 48.4808 	 121.279
| 24> C 	 -100.778 	 47.7904 	 120.133
| 25> C 	 -100.629 	 46.4404 	 120.378
| 26> C 	 -101.514 	 45.9433 	 121.378
| 27> C 	 -102.332 	 46.9128 	 121.924
| 28> H 	 -99.8148 	 45.8308 	 120.126
| 29> C 	 -101.609 	 44.4554 	 121.77
| 30> H 	 -101.976 	 44.379 	 122.792
| 31> H 	 -100.525 	 43.976 	 121.924
| 32> C 	 -102.373 	 43.5521 	 120.782
| 33> H 	 -102.624 	 42.595 	 121.256
| 34> H 	 -101.779 	 43.2925 	 119.93
| 35> C 	 -103.789 	 44.1138 	 120.526
| 36> H 	 -104.331 	 44.2083 	 121.431
| 37> H 	 -104.412 	 43.4473 	 119.801
| 38> H 	 -103.788 	 45.0818 	 120.035
| 39> H 	 -105.41 	 46.0802 	 125.519
| 40> H 	 -100.071 	 48.3734 	 119.524
| 41> *
| 42>
| 43>                          ****END OF INPUT****

CARTESIAN COORDINATES (ANGSTROEM)
---------------------------------
  S    -103.267000   46.111200  124.352000
  C    -104.943000   46.293300  124.588000
  C    -105.580000   47.036700  123.652000
  C    -104.700000   47.403800  122.591000
  C    -103.431000   46.832700  122.821000
  H    -104.905000   48.099700  121.739000
  C    -107.039000   47.523000  123.595000
  H    -107.149000   48.074100  122.678000
  H    -107.277000   48.229100  124.415000
  C    -108.088000   46.450300  123.542000
  H    -107.850000   45.726000  122.825000
  H    -108.091000   45.846600  124.410000
  C    -109.455000   46.997900  123.380000
  H    -109.922000   47.560600  124.213000
  H    -109.519000   47.696100  122.564000
  H    -110.122000   46.152300  123.158000
  S    -101.969000   48.480800  121.279000
  C    -100.778000   47.790400  120.133000
  C    -100.629000   46.440400  120.378000
  C    -101.514000   45.943300  121.378000
  C    -102.332000   46.912800  121.924000
  H    -99.814800   45.830800  120.126000
  C    -101.609000   44.455400  121.770000
  H    -101.976000   44.379000  122.792000
  H    -100.525000   43.976000  121.924000
  C    -102.373000   43.552100  120.782000
  H    -102.624000   42.595000  121.256000
  H    -101.779000   43.292500  119.930000
  C    -103.789000   44.113800  120.526000
  H    -104.331000   44.208300  121.431000
  H    -104.412000   43.447300  119.801000
  H    -103.788000   45.081800  120.035000
  H    -105.410000   46.080200  125.519000
  H    -100.071000   48.373400  119.524000

 Total Charge           Charge          ....    0
 Multiplicity           Mult            ....    1
 Number of Electrons    NEL             ....  134
 Basis Dimension        Dim             ....  322

ORBITAL ENERGIES
----------------

  NO   OCC          E(Eh)            E(eV)
   0   2.0000     -88.972467     -2421.0639
   1   2.0000     -88.965197     -2420.8661
   2   2.0000     -10.323833      -280.9258
   3   2.0000     -10.322270      -280.8832
   4   2.0000     -10.319981      -280.8210
   5   2.0000     -10.304535      -280.4007
   6   2.0000     -10.298706      -280.2420
   7   2.0000     -10.298444      -280.2349
   8   2.0000     -10.298361      -280.2326
   9   2.0000     -10.298178      -280.2277
  10   2.0000     -10.290787      -280.0266
  11   2.0000     -10.290308      -280.0135
  12   2.0000     -10.282870      -279.8111
  13   2.0000     -10.275557      -279.6121
  14   2.0000     -10.272369      -279.5254
  15   2.0000     -10.271860      -279.5115
  16   2.0000      -8.088502      -220.0993
  17   2.0000      -8.079475      -219.8537
  18   2.0000      -6.046714      -164.5395
  19   2.0000      -6.042989      -164.4381
  20   2.0000      -6.039329      -164.3385
  21   2.0000      -6.038074      -164.3043
  22   2.0000      -6.034024      -164.1942
  23   2.0000      -6.030197      -164.0900
  24   2.0000      -1.017272       -27.6814
  25   2.0000      -0.987191       -26.8628
  26   2.0000      -0.921663       -25.0797
  27   2.0000      -0.899845       -24.4860
  28   2.0000      -0.876840       -23.8600
  29   2.0000      -0.860066       -23.4036
  30   2.0000      -0.839162       -22.8347
  31   2.0000      -0.809412       -22.0252
  32   2.0000      -0.783114       -21.3096
  33   2.0000      -0.767474       -20.8840
  34   2.0000      -0.710567       -19.3355
  35   2.0000      -0.702915       -19.1273
  36   2.0000      -0.692257       -18.8373
  37   2.0000      -0.667099       -18.1527
  38   2.0000      -0.643944       -17.5226
  39   2.0000      -0.615182       -16.7400
  40   2.0000      -0.591463       -16.0945
  41   2.0000      -0.573080       -15.5943
  42   2.0000      -0.561786       -15.2870
  43   2.0000      -0.548444       -14.9239
  44   2.0000      -0.537930       -14.6378
  45   2.0000      -0.525820       -14.3083
  46   2.0000      -0.517906       -14.0929
  47   2.0000      -0.511708       -13.9243
  48   2.0000      -0.502156       -13.6643
  49   2.0000      -0.499411       -13.5897
  50   2.0000      -0.490244       -13.3402
  51   2.0000      -0.477056       -12.9814
  52   2.0000      -0.471387       -12.8271
  53   2.0000      -0.464295       -12.6341
  54   2.0000      -0.462951       -12.5975
  55   2.0000      -0.452340       -12.3088
  56   2.0000      -0.443279       -12.0622
  57   2.0000      -0.438214       -11.9244
  58   2.0000      -0.428154       -11.6507
  59   2.0000      -0.425614       -11.5815
  60   2.0000      -0.414743       -11.2857
  61   2.0000      -0.414395       -11.2763
  62   2.0000      -0.407381       -11.0854
  63   2.0000      -0.346363        -9.4250
  64   2.0000      -0.336531        -9.1575
  65   2.0000      -0.330999        -9.0070
  66   2.0000      -0.290058        -7.8929
  67   0.0000       0.028652         0.7797
  68   0.0000       0.071605         1.9485
  69   0.0000       0.102707         2.7948
  70   0.0000       0.117883         3.2078
  71   0.0000       0.126723         3.4483

MULLIKEN ATOMIC CHARGES
-----------------------
   0 S :    0.150460
   1 C :   -0.120496
   2 C :   -0.068607
   3 C :   -0.009966
   4 C :   -0.175903
   5 H :    0.042044
   6 C :    0.081274
   7 H :    0.005154
   8 H :    0.037165
   9 C :   -0.027856
  10 H :    0.012538
  11 H :    0.008027
  12 C :   -0.048995
  13 H :    0.033291
  14 H :    0.015500
  15 H :    0.033778
  16 S :    0.101491
  17 C :   -0.099277
  18 C :    0.007191
  19 C :   -0.057454
  20 C :   -0.147919
  21 H :    0.005441
  22 C :    0.013954
  23 H :    0.014880
  24 H :    0.037265
  25 C :   -0.025892
  26 H :    0.027197
  27 H :    0.027878
  28 C :   -0.082198
  29 H :    0.033721
  30 H :    0.036094
  31 H :    0.042640
  32 H :    0.028533
  33 H :    0.069047
Sum of atomic charges:   -0.0000000

LOEWDIN ATOMIC CHARGES
----------------------
   0 S :    0.469123
   1 C :   -0.214023
   2 C :   -0.060731
   3 C :   -0.065881
   4 C :   -0.212327
   5 H :    0.039520
   6 C :   -0.024796
   7 H :    0.025507
   8 H :    0.034560
   9 C :   -0.042164
  10 H :    0.021684
  11 H :    0.019242
  12 C :   -0.064942
  13 H :    0.028399
  14 H :    0.018721
  15 H :    0.031577
  16 S :    0.402087
  17 C :   -0.177986
  18 C :   -0.061911
  19 C :   -0.065189
  20 C :   -0.203569
  21 H :    0.025539
  22 C :   -0.043872
  23 H :    0.012652
  24 H :    0.039786
  25 C :   -0.040405
  26 H :    0.029406
  27 H :    0.019189
  28 C :   -0.068346
  29 H :    0.020545
  30 H :    0.032134
  31 H :    0.022201
  32 H :    0.019555
  33 H :    0.034714

  Mayer bond orders larger than 0.100000
B(  0-S ,  1-C ) :   1.1475 B(  0-S ,  4-C ) :   1.1939 B(  1-C ,  2-C ) :   1.6149
B(  1-C , 32-H ) :   0.9670 B(  2-C ,  3-C ) :   1.2670 B(  2-C ,  6-C ) :   1.0110
B(  3-C ,  4-C ) :   1.5290 B(  3-C ,  5-H ) :   0.9836 B(  4-C , 20-C ) :   1.0392
B(  6-C ,  7-H ) :   0.9401 B(  6-C ,  8-H ) :   0.9360 B(  6-C ,  9-C ) :   1.0774
B(  9-C , 10-H ) :   0.9479 B(  9-C , 11-H ) :   0.9440 B(  9-C , 12-C ) :   1.0957
B( 12-C , 13-H ) :   0.9725 B( 12-C , 14-H ) :   0.9722 B( 12-C , 15-H ) :   0.9706
B( 16-S , 17-C ) :   1.1374 B( 16-S , 20-C ) :   1.1461 B( 17-C , 18-C ) :   1.6017
B( 17-C , 33-H ) :   0.9648 B( 18-C , 19-C ) :   1.2603 B( 18-C , 21-H ) :   0.9850
B( 19-C , 20-C ) :   1.5836 B( 19-C , 22-C ) :   1.0402 B( 22-C , 23-H ) :   0.9319
B( 22-C , 24-H ) :   0.9372 B( 22-C , 25-C ) :   1.0694 B( 25-C , 26-H ) :   0.9538
B( 25-C , 27-H ) :   0.9601 B( 25-C , 28-C ) :   1.0667 B( 28-C , 29-H ) :   0.9743
B( 28-C , 30-H ) :   0.9750 B( 28-C , 31-H ) :   0.9746

Dispersion correction           -0.015349303
FINAL SINGLE POINT ENERGY     -1339.873043765603

DIPOLE MOMENT
-------------
                                X             Y             Z
Electronic contribution:     20.87274      11.44067       4.05701
Nuclear contribution   :    -21.11529     -11.60039      -3.99455
                        -----------------------------------------
Total Dipole Moment    :     -0.24255      -0.15973       0.06246
                        -----------------------------------------
Magnitude (a.u.)       :      0.29706
Magnitude (Debye)      :      0.75506

Rotational constants in cm-1:     0.022091     0.008068     0.007413
Rotational constants in MHz :   662.278347   241.883141   222.237209

                             ****ORCA TERMINATED NORMALLY****
TOTAL RUN TIME: 0 days 0 hours 0 minutes 34 seconds 807 msec
