                         Program Version 4.2.1 -  RELEASE  -
|  1> ! wB97X-D3 SP def2-SVP
|  2> %pal
|  3> nprocs 16
|  4> end
|  5>
|  6> * xyz 0 1
|  7> S 	 -32.0918 	 76.1017 	 149.296
|  8> C 	 -30.8152 	 76.1253 	 150.55
|  9> C 	 -30.6237 	 74.8643 	 151.046
| 10> C 	 -31.4541 	 73.8466 	 150.466
| 11> C 	 -32.2288 	 74.3015 	 149.436
| 12> H 	 -31.4379 	 72.7582 	 150.633
| 13> C 	 -29.6934 	 74.4582 	 152.156
| 14> H 	 -30.2677 	 73.7675 	 152.811
| 15> H 	 -29.468 	 75.3373 	 152.72
| 16> C 	 -28.3787 	 73.8499 	 151.674
| 17> H 	 -28.6879 	 73.0324 	 150.974
| 18> H 	 -27.7765 	 74.606 	 151.144
| 19> C 	 -27.4629 	 73.46 	 152.852
| 20> H 	 -27.0391 	 74.2129 	 153.471
| 21> H 	 -28.0164 	 72.8363 	 153.571
| 22> H 	 -26.7143 	 72.7968 	 152.573
| 23> S 	 -33.2984 	 74.3156 	 146.982
| 24> C 	 -34.4087 	 73.049 	 146.447
| 25> C 	 -34.5001 	 72.09 	 147.427
| 26> C 	 -33.7323 	 72.333 	 148.599
| 27> C 	 -33.0053 	 73.5185 	 148.463
| 28> H 	 -35.2017 	 71.3464 	 147.36
| 29> C 	 -33.7897 	 71.4638 	 149.839
| 30> H 	 -32.7539 	 71.3186 	 150.177
| 31> H 	 -34.3642 	 70.5582 	 149.584
| 32> C 	 -34.4883 	 72.1241 	 151.041
| 33> H 	 -35.3933 	 72.5819 	 150.74
| 34> H 	 -33.8112 	 73.0045 	 151.46
| 35> C 	 -34.7673 	 71.1539 	 152.246
| 36> H 	 -35.2221 	 71.7117 	 153.058
| 37> H 	 -33.865 	 70.8982 	 152.73
| 38> H 	 -35.4956 	 70.2976 	 152.122
| 39> H 	 -30.4623 	 77.0327 	 150.968
| 40> H 	 -35.0158 	 73.0685 	 145.499
| 41> *
| 42>
| 43>                          ****END OF INPUT****

CARTESIAN COORDINATES (ANGSTROEM)
---------------------------------
  S    -32.091800   76.101700  149.296000
  C    -30.815200   76.125300  150.550000
  C    -30.623700   74.864300  151.046000
  C    -31.454100   73.846600  150.466000
  C    -32.228800   74.301500  149.436000
  H    -31.437900   72.758200  150.633000
  C    -29.693400   74.458200  152.156000
  H    -30.267700   73.767500  152.811000
  H    -29.468000   75.337300  152.720000
  C    -28.378700   73.849900  151.674000
  H    -28.687900   73.032400  150.974000
  H    -27.776500   74.606000  151.144000
  C    -27.462900   73.460000  152.852000
  H    -27.039100   74.212900  153.471000
  H    -28.016400   72.836300  153.571000
  H    -26.714300   72.796800  152.573000
  S    -33.298400   74.315600  146.982000
  C    -34.408700   73.049000  146.447000
  C    -34.500100   72.090000  147.427000
  C    -33.732300   72.333000  148.599000
  C    -33.005300   73.518500  148.463000
  H    -35.201700   71.346400  147.360000
  C    -33.789700   71.463800  149.839000
  H    -32.753900   71.318600  150.177000
  H    -34.364200   70.558200  149.584000
  C    -34.488300   72.124100  151.041000
  H    -35.393300   72.581900  150.740000
  H    -33.811200   73.004500  151.460000
  C    -34.767300   71.153900  152.246000
  H    -35.222100   71.711700  153.058000
  H    -33.865000   70.898200  152.730000
  H    -35.495600   70.297600  152.122000
  H    -30.462300   77.032700  150.968000
  H    -35.015800   73.068500  145.499000

 Total Charge           Charge          ....    0
 Multiplicity           Mult            ....    1
 Number of Electrons    NEL             ....  134
 Basis Dimension        Dim             ....  322

ORBITAL ENERGIES
----------------

  NO   OCC          E(Eh)            E(eV)
   0   2.0000     -88.967353     -2420.9247
   1   2.0000     -88.964361     -2420.8433
   2   2.0000     -10.336052      -281.2583
   3   2.0000     -10.326670      -281.0030
   4   2.0000     -10.321863      -280.8722
   5   2.0000     -10.314694      -280.6771
   6   2.0000     -10.303936      -280.3844
   7   2.0000     -10.301962      -280.3307
   8   2.0000     -10.298230      -280.2291
   9   2.0000     -10.295268      -280.1485
  10   2.0000     -10.293045      -280.0880
  11   2.0000     -10.292481      -280.0727
  12   2.0000     -10.289380      -279.9883
  13   2.0000     -10.288818      -279.9730
  14   2.0000     -10.280013      -279.7334
  15   2.0000     -10.271971      -279.5145
  16   2.0000      -8.082531      -219.9368
  17   2.0000      -8.077738      -219.8064
  18   2.0000      -6.041010      -164.3842
  19   2.0000      -6.036868      -164.2715
  20   2.0000      -6.036519      -164.2620
  21   2.0000      -6.033383      -164.1767
  22   2.0000      -6.032517      -164.1531
  23   2.0000      -6.028210      -164.0359
  24   2.0000      -1.009016       -27.4567
  25   2.0000      -0.982003       -26.7217
  26   2.0000      -0.912156       -24.8210
  27   2.0000      -0.907075       -24.6828
  28   2.0000      -0.872112       -23.7314
  29   2.0000      -0.850700       -23.1487
  30   2.0000      -0.843959       -22.9653
  31   2.0000      -0.819603       -22.3025
  32   2.0000      -0.783009       -21.3068
  33   2.0000      -0.773359       -21.0442
  34   2.0000      -0.707512       -19.2524
  35   2.0000      -0.702508       -19.1162
  36   2.0000      -0.689393       -18.7593
  37   2.0000      -0.671687       -18.2775
  38   2.0000      -0.642565       -17.4851
  39   2.0000      -0.623266       -16.9599
  40   2.0000      -0.595143       -16.1947
  41   2.0000      -0.571817       -15.5599
  42   2.0000      -0.565521       -15.3886
  43   2.0000      -0.556255       -15.1365
  44   2.0000      -0.524289       -14.2666
  45   2.0000      -0.522509       -14.2182
  46   2.0000      -0.518769       -14.1164
  47   2.0000      -0.513349       -13.9689
  48   2.0000      -0.510758       -13.8984
  49   2.0000      -0.498534       -13.5658
  50   2.0000      -0.494546       -13.4573
  51   2.0000      -0.483766       -13.1639
  52   2.0000      -0.476673       -12.9709
  53   2.0000      -0.467995       -12.7348
  54   2.0000      -0.457583       -12.4515
  55   2.0000      -0.447303       -12.1717
  56   2.0000      -0.443639       -12.0720
  57   2.0000      -0.433138       -11.7863
  58   2.0000      -0.428822       -11.6688
  59   2.0000      -0.424363       -11.5475
  60   2.0000      -0.423377       -11.5207
  61   2.0000      -0.419488       -11.4149
  62   2.0000      -0.410422       -11.1681
  63   2.0000      -0.360227        -9.8023
  64   2.0000      -0.335063        -9.1175
  65   2.0000      -0.328098        -8.9280
  66   2.0000      -0.285301        -7.7634
  67   0.0000       0.019284         0.5247
  68   0.0000       0.077760         2.1160
  69   0.0000       0.099884         2.7180
  70   0.0000       0.118386         3.2215
  71   0.0000       0.138245         3.7618

MULLIKEN ATOMIC CHARGES
-----------------------
   0 S :    0.077562
   1 C :   -0.105549
   2 C :   -0.072064
   3 C :   -0.015723
   4 C :   -0.105110
   5 H :    0.018177
   6 C :    0.059591
   7 H :    0.031924
   8 H :    0.004928
   9 C :   -0.077030
  10 H :    0.038199
  11 H :    0.036316
  12 C :   -0.004977
  13 H :    0.029805
  14 H :    0.005970
  15 H :    0.018519
  16 S :    0.102992
  17 C :   -0.116213
  18 C :    0.007858
  19 C :   -0.052287
  20 C :   -0.133076
  21 H :   -0.018579
  22 C :    0.083876
  23 H :    0.031379
  24 H :    0.024993
  25 C :   -0.116553
  26 H :    0.023428
  27 H :    0.056788
  28 C :   -0.035918
  29 H :    0.021079
  30 H :    0.015660
  31 H :    0.045451
  32 H :    0.038625
  33 H :    0.079959
Sum of atomic charges:   -0.0000000

LOEWDIN ATOMIC CHARGES
----------------------
   0 S :    0.350897
   1 C :   -0.177917
   2 C :   -0.058002
   3 C :   -0.077373
   4 C :   -0.158046
   5 H :    0.034235
   6 C :   -0.033495
   7 H :    0.032853
   8 H :    0.022555
   9 C :   -0.037329
  10 H :    0.030089
  11 H :    0.029653
  12 C :   -0.064893
  13 H :    0.024038
  14 H :    0.023985
  15 H :    0.019674
  16 S :    0.423983
  17 C :   -0.191686
  18 C :   -0.061416
  19 C :   -0.058594
  20 C :   -0.205704
  21 H :    0.016120
  22 C :   -0.032181
  23 H :    0.030813
  24 H :    0.034558
  25 C :   -0.042655
  26 H :    0.015252
  27 H :    0.040587
  28 C :   -0.075929
  29 H :    0.028611
  30 H :    0.017946
  31 H :    0.031867
  32 H :    0.022870
  33 H :    0.044634

  Mayer bond orders larger than 0.100000
B(  0-S ,  1-C ) :   1.0977 B(  0-S ,  4-C ) :   1.1261 B(  1-C ,  2-C ) :   1.6491
B(  1-C , 32-H ) :   0.9740 B(  2-C ,  3-C ) :   1.2051 B(  2-C ,  6-C ) :   1.0275
B(  3-C ,  4-C ) :   1.6066 B(  3-C ,  5-H ) :   0.9814 B(  4-C , 20-C ) :   1.0657
B(  6-C ,  7-H ) :   0.9414 B(  6-C ,  8-H ) :   0.9352 B(  6-C ,  9-C ) :   1.0679
B(  9-C , 10-H ) :   0.9575 B(  9-C , 11-H ) :   0.9540 B(  9-C , 12-C ) :   1.0759
B( 12-C , 13-H ) :   0.9751 B( 12-C , 14-H ) :   0.9699 B( 12-C , 15-H ) :   0.9720
B( 16-S , 17-C ) :   1.1492 B( 16-S , 20-C ) :   1.1590 B( 17-C , 18-C ) :   1.5867
B( 17-C , 33-H ) :   0.9627 B( 18-C , 19-C ) :   1.2801 B( 18-C , 21-H ) :   0.9991
B( 19-C , 20-C ) :   1.5413 B( 19-C , 22-C ) :   1.0480 B( 22-C , 23-H ) :   0.9286
B( 22-C , 24-H ) :   0.9310 B( 22-C , 25-C ) :   1.0629 B( 25-C , 26-H ) :   0.9583
B( 25-C , 27-H ) :   0.9460 B( 25-C , 28-C ) :   1.0816 B( 28-C , 29-H ) :   0.9699
B( 28-C , 30-H ) :   0.9719 B( 28-C , 31-H ) :   0.9746

Dispersion correction           -0.014161951
FINAL SINGLE POINT ENERGY     -1339.871233426675

DIPOLE MOMENT
-------------
                                X             Y             Z
Electronic contribution:     -8.51345      15.44435     -24.59592
Nuclear contribution   :      8.48240     -15.85625      25.11440
                        -----------------------------------------
Total Dipole Moment    :     -0.03105      -0.41190       0.51848
                        -----------------------------------------
Magnitude (a.u.)       :      0.66291
Magnitude (Debye)      :      1.68497

Rotational constants in cm-1:     0.017704     0.008808     0.006793
Rotational constants in MHz :   530.763699   264.062389   203.637135

                             ****ORCA TERMINATED NORMALLY****
TOTAL RUN TIME: 0 days 0 hours 0 minutes 32 seconds 769 msec
