                         Program Version 4.2.1 -  RELEASE  -
|  1> ! wB97X-D3 SP def2-SVP
|  2> %pal
|  3> nprocs 16
|  4> end
|  5>
|  6> * xyz 0 1
|  7> S 	 6.13396 	 20.7328 	 40.8351
|  8> C 	 6.30819 	 22.3026 	 40.0712
|  9> C 	 7.56916 	 22.8713 	 40.3057
| 10> C 	 8.49044 	 22.0389 	 40.9798
| 11> C 	 7.8655 	 20.791 	 41.2444
| 12> H 	 9.47943 	 22.0527 	 41.3177
| 13> C 	 8.08469 	 24.2515 	 39.8517
| 14> H 	 7.73208 	 24.107 	 38.7524
| 15> H 	 9.20495 	 24.2319 	 39.7477
| 16> C 	 7.49157 	 25.4283 	 40.5222
| 17> H 	 6.49667 	 25.2706 	 40.8012
| 18> H 	 7.97446 	 25.5818 	 41.5342
| 19> C 	 7.69464 	 26.6979 	 39.7036
| 20> H 	 7.51302 	 27.6626 	 40.1824
| 21> H 	 8.73945 	 26.6622 	 39.2874
| 22> H 	 7.06427 	 26.8833 	 38.8505
| 23> S 	 8.12606 	 18.9094 	 43.2488
| 24> C 	 9.36766 	 17.6891 	 43.1739
| 25> C 	 10.1598 	 17.8499 	 42.0293
| 26> C 	 9.68381 	 18.9016 	 41.1445
| 27> C 	 8.57968 	 19.5954 	 41.7106
| 28> H 	 11.0599 	 17.2482 	 41.8941
| 29> C 	 10.4851 	 19.3043 	 39.9316
| 30> H 	 11.2882 	 18.6216 	 39.7985
| 31> H 	 10.8067 	 20.2573 	 40.2426
| 32> C 	 9.74655 	 19.5869 	 38.6442
| 33> H 	 8.81052 	 20.074 	 38.9152
| 34> H 	 9.41026 	 18.6253 	 38.2205
| 35> C 	 10.4886 	 20.3934 	 37.5536
| 36> H 	 10.0392 	 20.572 	 36.5971
| 37> H 	 11.4272 	 20.0541 	 37.3384
| 38> H 	 10.8393 	 21.4562 	 37.8985
| 39> H 	 5.50858 	 22.7793 	 39.5976
| 40> H 	 9.80027 	 17.0631 	 43.9778
| 41> *
| 42>
| 43>                          ****END OF INPUT****

CARTESIAN COORDINATES (ANGSTROEM)
---------------------------------
  S      6.133960   20.732800   40.835100
  C      6.308190   22.302600   40.071200
  C      7.569160   22.871300   40.305700
  C      8.490440   22.038900   40.979800
  C      7.865500   20.791000   41.244400
  H      9.479430   22.052700   41.317700
  C      8.084690   24.251500   39.851700
  H      7.732080   24.107000   38.752400
  H      9.204950   24.231900   39.747700
  C      7.491570   25.428300   40.522200
  H      6.496670   25.270600   40.801200
  H      7.974460   25.581800   41.534200
  C      7.694640   26.697900   39.703600
  H      7.513020   27.662600   40.182400
  H      8.739450   26.662200   39.287400
  H      7.064270   26.883300   38.850500
  S      8.126060   18.909400   43.248800
  C      9.367660   17.689100   43.173900
  C     10.159800   17.849900   42.029300
  C      9.683810   18.901600   41.144500
  C      8.579680   19.595400   41.710600
  H     11.059900   17.248200   41.894100
  C     10.485100   19.304300   39.931600
  H     11.288200   18.621600   39.798500
  H     10.806700   20.257300   40.242600
  C      9.746550   19.586900   38.644200
  H      8.810520   20.074000   38.915200
  H      9.410260   18.625300   38.220500
  C     10.488600   20.393400   37.553600
  H     10.039200   20.572000   36.597100
  H     11.427200   20.054100   37.338400
  H     10.839300   21.456200   37.898500
  H      5.508580   22.779300   39.597600
  H      9.800270   17.063100   43.977800

 Total Charge           Charge          ....    0
 Multiplicity           Mult            ....    1
 Number of Electrons    NEL             ....  134
 Basis Dimension        Dim             ....  322

ORBITAL ENERGIES
----------------

  NO   OCC          E(Eh)            E(eV)
   0   2.0000     -88.972419     -2421.0626
   1   2.0000     -88.967702     -2420.9343
   2   2.0000     -10.333498      -281.1888
   3   2.0000     -10.327246      -281.0187
   4   2.0000     -10.318979      -280.7937
   5   2.0000     -10.314765      -280.6790
   6   2.0000     -10.309391      -280.5328
   7   2.0000     -10.308505      -280.5087
   8   2.0000     -10.300611      -280.2939
   9   2.0000     -10.297567      -280.2110
  10   2.0000     -10.295366      -280.1511
  11   2.0000     -10.286244      -279.9029
  12   2.0000     -10.284210      -279.8476
  13   2.0000     -10.283142      -279.8185
  14   2.0000     -10.279323      -279.7146
  15   2.0000     -10.276288      -279.6320
  16   2.0000      -8.086258      -220.0383
  17   2.0000      -8.082231      -219.9287
  18   2.0000      -6.044596      -164.4818
  19   2.0000      -6.040987      -164.3836
  20   2.0000      -6.040783      -164.3781
  21   2.0000      -6.037163      -164.2796
  22   2.0000      -6.036562      -164.2632
  23   2.0000      -6.033181      -164.1712
  24   2.0000      -1.001383       -27.2490
  25   2.0000      -0.979365       -26.6499
  26   2.0000      -0.914685       -24.8898
  27   2.0000      -0.911255       -24.7965
  28   2.0000      -0.865126       -23.5413
  29   2.0000      -0.855297       -23.2738
  30   2.0000      -0.846847       -23.0439
  31   2.0000      -0.811601       -22.0848
  32   2.0000      -0.783339       -21.3157
  33   2.0000      -0.769522       -20.9398
  34   2.0000      -0.712156       -19.3788
  35   2.0000      -0.708927       -19.2909
  36   2.0000      -0.689371       -18.7587
  37   2.0000      -0.661671       -18.0050
  38   2.0000      -0.651030       -17.7154
  39   2.0000      -0.610794       -16.6205
  40   2.0000      -0.588630       -16.0174
  41   2.0000      -0.576147       -15.6778
  42   2.0000      -0.568834       -15.4788
  43   2.0000      -0.547139       -14.8884
  44   2.0000      -0.526659       -14.3311
  45   2.0000      -0.519790       -14.1442
  46   2.0000      -0.517822       -14.0907
  47   2.0000      -0.516322       -14.0498
  48   2.0000      -0.508799       -13.8451
  49   2.0000      -0.496649       -13.5145
  50   2.0000      -0.491079       -13.3629
  51   2.0000      -0.484017       -13.1708
  52   2.0000      -0.478046       -13.0083
  53   2.0000      -0.463358       -12.6086
  54   2.0000      -0.458941       -12.4884
  55   2.0000      -0.447915       -12.1884
  56   2.0000      -0.444422       -12.0933
  57   2.0000      -0.439064       -11.9475
  58   2.0000      -0.435654       -11.8547
  59   2.0000      -0.422342       -11.4925
  60   2.0000      -0.417499       -11.3607
  61   2.0000      -0.410360       -11.1665
  62   2.0000      -0.402108       -10.9419
  63   2.0000      -0.340363        -9.2617
  64   2.0000      -0.334225        -9.0947
  65   2.0000      -0.325303        -8.8519
  66   2.0000      -0.290277        -7.8988
  67   0.0000       0.027924         0.7598
  68   0.0000       0.054727         1.4892
  69   0.0000       0.109059         2.9677
  70   0.0000       0.114120         3.1054
  71   0.0000       0.135025         3.6742

MULLIKEN ATOMIC CHARGES
-----------------------
   0 S :    0.129040
   1 C :   -0.105902
   2 C :   -0.058659
   3 C :    0.051807
   4 C :   -0.194691
   5 H :    0.002165
   6 C :   -0.007386
   7 H :    0.046178
   8 H :    0.038704
   9 C :    0.006340
  10 H :    0.012869
  11 H :    0.034682
  12 C :   -0.063412
  13 H :    0.027638
  14 H :    0.033522
  15 H :    0.023248
  16 S :    0.118788
  17 C :   -0.094625
  18 C :   -0.072850
  19 C :   -0.042957
  20 C :   -0.188873
  21 H :    0.027462
  22 C :    0.142348
  23 H :    0.010400
  24 H :    0.006024
  25 C :   -0.069845
  26 H :    0.045590
  27 H :    0.025029
  28 C :   -0.025644
  29 H :    0.034678
  30 H :   -0.002097
  31 H :    0.012921
  32 H :    0.026149
  33 H :    0.071357
Sum of atomic charges:   -0.0000000

LOEWDIN ATOMIC CHARGES
----------------------
   0 S :    0.404264
   1 C :   -0.196578
   2 C :   -0.054867
   3 C :   -0.053732
   4 C :   -0.185521
   5 H :    0.028873
   6 C :   -0.042571
   7 H :    0.045397
   8 H :    0.034238
   9 C :   -0.044547
  10 H :    0.017875
  11 H :    0.036530
  12 C :   -0.073750
  13 H :    0.026099
  14 H :    0.031475
  15 H :    0.022050
  16 S :    0.419106
  17 C :   -0.206553
  18 C :   -0.074195
  19 C :   -0.046308
  20 C :   -0.218912
  21 H :    0.032475
  22 C :   -0.024720
  23 H :    0.024964
  24 H :    0.028352
  25 C :   -0.038848
  26 H :    0.028786
  27 H :    0.025490
  28 C :   -0.068078
  29 H :    0.027003
  30 H :    0.009181
  31 H :    0.030893
  32 H :    0.014807
  33 H :    0.041323

  Mayer bond orders larger than 0.100000
B(  0-S ,  1-C ) :   1.1376 B(  0-S ,  4-C ) :   1.1648 B(  1-C ,  2-C ) :   1.5938
B(  1-C ,  4-C ) :   0.1102 B(  1-C , 32-H ) :   0.9787 B(  2-C ,  3-C ) :   1.2211
B(  2-C ,  6-C ) :   0.9912 B(  3-C ,  4-C ) :   1.5533 B(  3-C ,  5-H ) :   1.0088
B(  4-C , 20-C ) :   1.0253 B(  6-C ,  7-H ) :   0.9481 B(  6-C ,  8-H ) :   0.9432
B(  6-C ,  9-C ) :   1.0618 B(  9-C , 10-H ) :   0.9568 B(  9-C , 11-H ) :   0.9443
B(  9-C , 12-C ) :   1.0703 B( 12-C , 13-H ) :   0.9735 B( 12-C , 14-H ) :   0.9737
B( 12-C , 15-H ) :   0.9757 B( 16-S , 17-C ) :   1.1590 B( 16-S , 20-C ) :   1.1561
B( 17-C , 18-C ) :   1.6083 B( 17-C , 20-C ) :   0.1009 B( 17-C , 33-H ) :   0.9578
B( 18-C , 19-C ) :   1.2566 B( 18-C , 21-H ) :   0.9824 B( 19-C , 20-C ) :   1.5565
B( 19-C , 22-C ) :   1.0394 B( 22-C , 23-H ) :   0.9302 B( 22-C , 24-H ) :   0.9247
B( 22-C , 25-C ) :   1.0585 B( 25-C , 26-H ) :   0.9575 B( 25-C , 27-H ) :   0.9506
B( 25-C , 28-C ) :   1.0764 B( 28-C , 29-H ) :   0.9768 B( 28-C , 30-H ) :   0.9717
B( 28-C , 31-H ) :   0.9685

Dispersion correction           -0.014928929
FINAL SINGLE POINT ENERGY     -1339.842827784477

DIPOLE MOMENT
-------------
                                X             Y             Z
Electronic contribution:    -11.91977     -20.23380      18.57231
Nuclear contribution   :     12.42243      20.61600     -18.85217
                        -----------------------------------------
Total Dipole Moment    :      0.50267       0.38220      -0.27986
                        -----------------------------------------
Magnitude (a.u.)       :      0.69070
Magnitude (Debye)      :      1.75562

Rotational constants in cm-1:     0.020005     0.008240     0.006835
Rotational constants in MHz :   599.731847   247.015823   204.916612

                             ****ORCA TERMINATED NORMALLY****
TOTAL RUN TIME: 0 days 0 hours 0 minutes 35 seconds 216 msec
