                         Program Version 4.2.1 -  RELEASE  -
|  1> ! wB97X-D3 SP def2-SVP
|  2> %pal
|  3> nprocs 16
|  4> end
|  5>
|  6> * xyz 0 1
|  7> S 	 -19.5016 	 -0.283691 	 78.3179
|  8> C 	 -18.3517 	 -1.32243 	 77.6075
|  9> C 	 -18.7155 	 -1.71934 	 76.3486
| 10> C 	 -20.0449 	 -1.31205 	 76.0187
| 11> C 	 -20.6582 	 -0.612184 	 77.0599
| 12> H 	 -20.5012 	 -1.35524 	 75.0565
| 13> C 	 -17.8777 	 -2.52171 	 75.4514
| 14> H 	 -16.8885 	 -2.49915 	 75.7685
| 15> H 	 -17.7996 	 -1.98569 	 74.5075
| 16> C 	 -18.3343 	 -3.986 	 75.1932
| 17> H 	 -19.2349 	 -3.989 	 74.6587
| 18> H 	 -17.5137 	 -4.42042 	 74.5613
| 19> C 	 -18.6386 	 -4.876 	 76.4095
| 20> H 	 -18.1351 	 -4.38817 	 77.2228
| 21> H 	 -19.6825 	 -4.86423 	 76.758
| 22> H 	 -18.2498 	 -5.88019 	 76.2535
| 23> S 	 -21.9899 	 1.67303 	 77.7676
| 24> C 	 -23.682 	 1.85905 	 77.3347
| 25> C 	 -24.2238 	 0.686787 	 76.8617
| 26> C 	 -23.2327 	 -0.32887 	 76.7222
| 27> C 	 -21.973 	 0.0768266 	 77.0614
| 28> H 	 -25.2585 	 0.73049 	 76.6254
| 29> C 	 -23.5737 	 -1.80617 	 76.4922
| 30> H 	 -22.8871 	 -2.17142 	 75.8411
| 31> H 	 -24.541 	 -1.72655 	 75.9821
| 32> C 	 -23.6753 	 -2.65764 	 77.7001
| 33> H 	 -24.3302 	 -2.19814 	 78.4284
| 34> H 	 -22.6819 	 -2.78111 	 78.0765
| 35> C 	 -24.0949 	 -4.15949 	 77.4145
| 36> H 	 -24.206 	 -4.79724 	 78.3519
| 37> H 	 -23.3788 	 -4.67396 	 76.7413
| 38> H 	 -25.0072 	 -4.19216 	 76.7709
| 39> H 	 -17.4872 	 -1.68533 	 78.1592
| 40> H 	 -24.2569 	 2.75205 	 77.5207
| 41> *
| 42>
| 43>                          ****END OF INPUT****

CARTESIAN COORDINATES (ANGSTROEM)
---------------------------------
  S    -19.501600   -0.283691   78.317900
  C    -18.351700   -1.322430   77.607500
  C    -18.715500   -1.719340   76.348600
  C    -20.044900   -1.312050   76.018700
  C    -20.658200   -0.612184   77.059900
  H    -20.501200   -1.355240   75.056500
  C    -17.877700   -2.521710   75.451400
  H    -16.888500   -2.499150   75.768500
  H    -17.799600   -1.985690   74.507500
  C    -18.334300   -3.986000   75.193200
  H    -19.234900   -3.989000   74.658700
  H    -17.513700   -4.420420   74.561300
  C    -18.638600   -4.876000   76.409500
  H    -18.135100   -4.388170   77.222800
  H    -19.682500   -4.864230   76.758000
  H    -18.249800   -5.880190   76.253500
  S    -21.989900    1.673030   77.767600
  C    -23.682000    1.859050   77.334700
  C    -24.223800    0.686787   76.861700
  C    -23.232700   -0.328870   76.722200
  C    -21.973000    0.076827   77.061400
  H    -25.258500    0.730490   76.625400
  C    -23.573700   -1.806170   76.492200
  H    -22.887100   -2.171420   75.841100
  H    -24.541000   -1.726550   75.982100
  C    -23.675300   -2.657640   77.700100
  H    -24.330200   -2.198140   78.428400
  H    -22.681900   -2.781110   78.076500
  C    -24.094900   -4.159490   77.414500
  H    -24.206000   -4.797240   78.351900
  H    -23.378800   -4.673960   76.741300
  H    -25.007200   -4.192160   76.770900
  H    -17.487200   -1.685330   78.159200
  H    -24.256900    2.752050   77.520700

 Total Charge           Charge          ....    0
 Multiplicity           Mult            ....    1
 Number of Electrons    NEL             ....  134
 Basis Dimension        Dim             ....  322

ORBITAL ENERGIES
----------------

  NO   OCC          E(Eh)            E(eV)
   0   2.0000     -88.966170     -2420.8926
   1   2.0000     -88.963959     -2420.8324
   2   2.0000     -10.333962      -281.2014
   3   2.0000     -10.325772      -280.9786
   4   2.0000     -10.316107      -280.7155
   5   2.0000     -10.309694      -280.5410
   6   2.0000     -10.300674      -280.2956
   7   2.0000     -10.296976      -280.1950
   8   2.0000     -10.294411      -280.1252
   9   2.0000     -10.292793      -280.0811
  10   2.0000     -10.287724      -279.9432
  11   2.0000     -10.285370      -279.8791
  12   2.0000     -10.283240      -279.8212
  13   2.0000     -10.280327      -279.7419
  14   2.0000     -10.279341      -279.7151
  15   2.0000     -10.274063      -279.5715
  16   2.0000      -8.082102      -219.9252
  17   2.0000      -8.079070      -219.8427
  18   2.0000      -6.040538      -164.3714
  19   2.0000      -6.037528      -164.2895
  20   2.0000      -6.036464      -164.2605
  21   2.0000      -6.033664      -164.1843
  22   2.0000      -6.032853      -164.1623
  23   2.0000      -6.029713      -164.0768
  24   2.0000      -1.012888       -27.5621
  25   2.0000      -0.990833       -26.9619
  26   2.0000      -0.915438       -24.9103
  27   2.0000      -0.911008       -24.7898
  28   2.0000      -0.869768       -23.6676
  29   2.0000      -0.851993       -23.1839
  30   2.0000      -0.844039       -22.9675
  31   2.0000      -0.819477       -22.2991
  32   2.0000      -0.784923       -21.3588
  33   2.0000      -0.772810       -21.0292
  34   2.0000      -0.709888       -19.3170
  35   2.0000      -0.698215       -18.9994
  36   2.0000      -0.692052       -18.8317
  37   2.0000      -0.665694       -18.1144
  38   2.0000      -0.644631       -17.5413
  39   2.0000      -0.627105       -17.0644
  40   2.0000      -0.595296       -16.1988
  41   2.0000      -0.573560       -15.6074
  42   2.0000      -0.567240       -15.4354
  43   2.0000      -0.550040       -14.9673
  44   2.0000      -0.546214       -14.8632
  45   2.0000      -0.524534       -14.2733
  46   2.0000      -0.518371       -14.1056
  47   2.0000      -0.512962       -13.9584
  48   2.0000      -0.507418       -13.8075
  49   2.0000      -0.499731       -13.5984
  50   2.0000      -0.488243       -13.2858
  51   2.0000      -0.482259       -13.1229
  52   2.0000      -0.466554       -12.6956
  53   2.0000      -0.463145       -12.6028
  54   2.0000      -0.461352       -12.5540
  55   2.0000      -0.454565       -12.3693
  56   2.0000      -0.447593       -12.1796
  57   2.0000      -0.440969       -11.9994
  58   2.0000      -0.435324       -11.8458
  59   2.0000      -0.425614       -11.5815
  60   2.0000      -0.422763       -11.5040
  61   2.0000      -0.410448       -11.1689
  62   2.0000      -0.404762       -11.0141
  63   2.0000      -0.356150        -9.6913
  64   2.0000      -0.334456        -9.1010
  65   2.0000      -0.328294        -8.9333
  66   2.0000      -0.288034        -7.8378
  67   0.0000       0.027265         0.7419
  68   0.0000       0.069688         1.8963
  69   0.0000       0.103248         2.8095
  70   0.0000       0.119205         3.2437
  71   0.0000       0.125547         3.4163

MULLIKEN ATOMIC CHARGES
-----------------------
   0 S :    0.107321
   1 C :   -0.122335
   2 C :   -0.102584
   3 C :    0.024840
   4 C :   -0.137420
   5 H :    0.015656
   6 C :    0.110592
   7 H :   -0.007683
   8 H :    0.026612
   9 C :   -0.085979
  10 H :    0.019181
  11 H :    0.039538
  12 C :   -0.033663
  13 H :    0.006998
  14 H :    0.039433
  15 H :    0.043529
  16 S :    0.091718
  17 C :   -0.093484
  18 C :   -0.029439
  19 C :   -0.068692
  20 C :   -0.137356
  21 H :    0.011513
  22 C :    0.131981
  23 H :   -0.019182
  24 H :    0.008550
  25 C :   -0.024725
  26 H :    0.030463
  27 H :    0.029946
  28 C :   -0.094311
  29 H :    0.056890
  30 H :    0.027876
  31 H :    0.026737
  32 H :    0.054508
  33 H :    0.052971
Sum of atomic charges:    0.0000000

LOEWDIN ATOMIC CHARGES
----------------------
   0 S :    0.422997
   1 C :   -0.211771
   2 C :   -0.065822
   3 C :   -0.062673
   4 C :   -0.187700
   5 H :    0.029347
   6 C :   -0.033408
   7 H :    0.019663
   8 H :    0.038886
   9 C :   -0.037013
  10 H :    0.014151
  11 H :    0.031531
  12 C :   -0.068385
  13 H :    0.020542
  14 H :    0.031059
  15 H :    0.029905
  16 S :    0.395686
  17 C :   -0.175570
  18 C :   -0.068829
  19 C :   -0.060370
  20 C :   -0.192846
  21 H :    0.030995
  22 C :   -0.022094
  23 H :    0.012711
  24 H :    0.028077
  25 C :   -0.032813
  26 H :    0.024737
  27 H :    0.025721
  28 C :   -0.077413
  29 H :    0.036035
  30 H :    0.024280
  31 H :    0.022992
  32 H :    0.030080
  33 H :    0.027313

  Mayer bond orders larger than 0.100000
B(  0-S ,  1-C ) :   1.1442 B(  0-S ,  4-C ) :   1.1657 B(  1-C ,  2-C ) :   1.5929
B(  1-C , 32-H ) :   0.9660 B(  2-C ,  3-C ) :   1.2381 B(  2-C ,  6-C ) :   1.0505
B(  3-C ,  4-C ) :   1.5572 B(  3-C ,  5-H ) :   0.9983 B(  4-C , 20-C ) :   1.0324
B(  6-C ,  7-H ) :   0.9293 B(  6-C ,  8-H ) :   0.9267 B(  6-C ,  9-C ) :   1.0741
B(  9-C , 10-H ) :   0.9591 B(  9-C , 11-H ) :   0.9600 B(  9-C , 12-C ) :   1.0661
B( 12-C , 13-H ) :   0.9781 B( 12-C , 14-H ) :   0.9728 B( 12-C , 15-H ) :   0.9749
B( 16-S , 17-C ) :   1.1494 B( 16-S , 20-C ) :   1.1347 B( 17-C , 18-C ) :   1.6263
B( 17-C , 33-H ) :   0.9676 B( 18-C , 19-C ) :   1.2172 B( 18-C , 21-H ) :   1.0007
B( 19-C , 20-C ) :   1.6177 B( 19-C , 22-C ) :   1.0434 B( 22-C , 23-H ) :   0.9154
B( 22-C , 24-H ) :   0.9264 B( 22-C , 25-C ) :   1.0851 B( 25-C , 26-H ) :   0.9556
B( 25-C , 27-H ) :   0.9499 B( 25-C , 28-C ) :   1.0713 B( 28-C , 29-H ) :   0.9756
B( 28-C , 30-H ) :   0.9744 B( 28-C , 31-H ) :   0.9759

Dispersion correction           -0.014787781
FINAL SINGLE POINT ENERGY     -1339.871649591738

DIPOLE MOMENT
-------------
                                X             Y             Z
Electronic contribution:      2.08333      27.98960       8.34250
Nuclear contribution   :     -2.14379     -28.35800      -8.64956
                        -----------------------------------------
Total Dipole Moment    :     -0.06046      -0.36839      -0.30706
                        -----------------------------------------
Magnitude (a.u.)       :      0.48338
Magnitude (Debye)      :      1.22865

Rotational constants in cm-1:     0.018465     0.009751     0.007211
Rotational constants in MHz :   553.552110   292.332320   216.169428

                             ****ORCA TERMINATED NORMALLY****
TOTAL RUN TIME: 0 days 0 hours 0 minutes 35 seconds 817 msec
