                         Program Version 4.2.1 -  RELEASE  -
|  1> ! wB97X-D3 SP def2-SVP
|  2> %pal
|  3> nprocs 16
|  4> end
|  5>
|  6> * xyz 0 1
|  7> S 	 8.59115 	 -9.77138 	 64.2703
|  8> C 	 7.19968 	 -10.3131 	 63.2553
|  9> C 	 7.61302 	 -11.3346 	 62.3465
| 10> C 	 9.04009 	 -11.4836 	 62.3526
| 11> C 	 9.69898 	 -10.5895 	 63.1411
| 12> H 	 9.65463 	 -12.1971 	 61.8638
| 13> C 	 6.64024 	 -12.023 	 61.3996
| 14> H 	 5.82256 	 -12.4756 	 61.8631
| 15> H 	 7.06048 	 -12.9273 	 61.0179
| 16> C 	 6.14428 	 -11.1256 	 60.2652
| 17> H 	 5.36483 	 -11.5558 	 59.6749
| 18> H 	 5.85539 	 -10.1364 	 60.6326
| 19> C 	 7.18898 	 -10.8262 	 59.2444
| 20> H 	 7.87214 	 -11.6834 	 59.0995
| 21> H 	 6.80181 	 -10.5155 	 58.2515
| 22> H 	 7.91103 	 -9.9767 	 59.5588
| 23> S 	 11.9986 	 -9.29112 	 62.609
| 24> C 	 13.6146 	 -9.81998 	 63.3654
| 25> C 	 13.4203 	 -11.0594 	 64.0453
| 26> C 	 12.0185 	 -11.5075 	 63.9569
| 27> C 	 11.1372 	 -10.5721 	 63.4506
| 28> H 	 14.2985 	 -11.592 	 64.4012
| 29> C 	 11.6161 	 -12.8137 	 64.5779
| 30> H 	 10.5613 	 -12.7223 	 64.8926
| 31> H 	 11.9426 	 -12.9148 	 65.6149
| 32> C 	 12.0187 	 -14.1862 	 63.8103
| 33> H 	 11.7285 	 -15.0051 	 64.5255
| 34> H 	 13.0874 	 -14.0787 	 63.6759
| 35> C 	 11.2737 	 -14.3371 	 62.461
| 36> H 	 11.3006 	 -13.5422 	 61.7377
| 37> H 	 10.1808 	 -14.5085 	 62.6622
| 38> H 	 11.5004 	 -15.3054 	 61.9526
| 39> H 	 6.18516 	 -9.89413 	 63.3004
| 40> H 	 14.5103 	 -9.36014 	 63.0588
| 41> *
| 42>
| 43>                          ****END OF INPUT****

CARTESIAN COORDINATES (ANGSTROEM)
---------------------------------
  S      8.591150   -9.771380   64.270300
  C      7.199680  -10.313100   63.255300
  C      7.613020  -11.334600   62.346500
  C      9.040090  -11.483600   62.352600
  C      9.698980  -10.589500   63.141100
  H      9.654630  -12.197100   61.863800
  C      6.640240  -12.023000   61.399600
  H      5.822560  -12.475600   61.863100
  H      7.060480  -12.927300   61.017900
  C      6.144280  -11.125600   60.265200
  H      5.364830  -11.555800   59.674900
  H      5.855390  -10.136400   60.632600
  C      7.188980  -10.826200   59.244400
  H      7.872140  -11.683400   59.099500
  H      6.801810  -10.515500   58.251500
  H      7.911030   -9.976700   59.558800
  S     11.998600   -9.291120   62.609000
  C     13.614600   -9.819980   63.365400
  C     13.420300  -11.059400   64.045300
  C     12.018500  -11.507500   63.956900
  C     11.137200  -10.572100   63.450600
  H     14.298500  -11.592000   64.401200
  C     11.616100  -12.813700   64.577900
  H     10.561300  -12.722300   64.892600
  H     11.942600  -12.914800   65.614900
  C     12.018700  -14.186200   63.810300
  H     11.728500  -15.005100   64.525500
  H     13.087400  -14.078700   63.675900
  C     11.273700  -14.337100   62.461000
  H     11.300600  -13.542200   61.737700
  H     10.180800  -14.508500   62.662200
  H     11.500400  -15.305400   61.952600
  H      6.185160   -9.894130   63.300400
  H     14.510300   -9.360140   63.058800

 Total Charge           Charge          ....    0
 Multiplicity           Mult            ....    1
 Number of Electrons    NEL             ....  134
 Basis Dimension        Dim             ....  322

ORBITAL ENERGIES
----------------

  NO   OCC          E(Eh)            E(eV)
   0   2.0000     -88.966936     -2420.9134
   1   2.0000     -88.961075     -2420.7539
   2   2.0000     -10.329710      -281.0857
   3   2.0000     -10.328572      -281.0547
   4   2.0000     -10.328333      -281.0482
   5   2.0000     -10.325275      -280.9650
   6   2.0000     -10.311536      -280.5911
   7   2.0000     -10.311181      -280.5815
   8   2.0000     -10.308954      -280.5209
   9   2.0000     -10.303947      -280.3846
  10   2.0000     -10.295170      -280.1458
  11   2.0000     -10.292073      -280.0615
  12   2.0000     -10.287614      -279.9402
  13   2.0000     -10.285997      -279.8962
  14   2.0000     -10.281934      -279.7856
  15   2.0000     -10.277757      -279.6720
  16   2.0000      -8.080231      -219.8743
  17   2.0000      -8.074464      -219.7173
  18   2.0000      -6.038876      -164.3262
  19   2.0000      -6.035112      -164.2238
  20   2.0000      -6.033160      -164.1706
  21   2.0000      -6.030756      -164.1052
  22   2.0000      -6.029197      -164.0628
  23   2.0000      -6.025042      -163.9497
  24   2.0000      -0.996804       -27.1244
  25   2.0000      -0.969561       -26.3831
  26   2.0000      -0.915299       -24.9066
  27   2.0000      -0.894966       -24.3533
  28   2.0000      -0.863445       -23.4955
  29   2.0000      -0.844785       -22.9878
  30   2.0000      -0.841008       -22.8850
  31   2.0000      -0.815901       -22.2018
  32   2.0000      -0.781102       -21.2549
  33   2.0000      -0.768619       -20.9152
  34   2.0000      -0.705677       -19.2025
  35   2.0000      -0.698351       -19.0031
  36   2.0000      -0.691411       -18.8143
  37   2.0000      -0.663337       -18.0503
  38   2.0000      -0.647227       -17.6119
  39   2.0000      -0.614101       -16.7105
  40   2.0000      -0.596208       -16.2236
  41   2.0000      -0.576921       -15.6988
  42   2.0000      -0.552779       -15.0419
  43   2.0000      -0.546698       -14.8764
  44   2.0000      -0.543746       -14.7961
  45   2.0000      -0.531359       -14.4590
  46   2.0000      -0.518068       -14.0973
  47   2.0000      -0.513676       -13.9778
  48   2.0000      -0.497930       -13.5494
  49   2.0000      -0.495992       -13.4966
  50   2.0000      -0.491656       -13.3786
  51   2.0000      -0.472509       -12.8576
  52   2.0000      -0.462426       -12.5832
  53   2.0000      -0.459580       -12.5058
  54   2.0000      -0.454483       -12.3671
  55   2.0000      -0.445047       -12.1103
  56   2.0000      -0.436879       -11.8881
  57   2.0000      -0.432044       -11.7565
  58   2.0000      -0.426378       -11.6023
  59   2.0000      -0.421709       -11.4753
  60   2.0000      -0.415829       -11.3153
  61   2.0000      -0.414535       -11.2801
  62   2.0000      -0.413167       -11.2428
  63   2.0000      -0.335251        -9.1226
  64   2.0000      -0.329030        -8.9534
  65   2.0000      -0.317035        -8.6269
  66   2.0000      -0.308632        -8.3983
  67   0.0000       0.029168         0.7937
  68   0.0000       0.047192         1.2842
  69   0.0000       0.097671         2.6578
  70   0.0000       0.100434         2.7330
  71   0.0000       0.119443         3.2502

MULLIKEN ATOMIC CHARGES
-----------------------
   0 S :    0.103341
   1 C :   -0.129915
   2 C :   -0.086074
   3 C :    0.087676
   4 C :   -0.157338
   5 H :   -0.035145
   6 C :    0.119794
   7 H :    0.009948
   8 H :    0.001757
   9 C :   -0.037290
  10 H :    0.025012
  11 H :    0.029620
  12 C :   -0.109974
  13 H :    0.022123
  14 H :    0.037995
  15 H :    0.046006
  16 S :    0.073617
  17 C :   -0.090677
  18 C :   -0.019070
  19 C :   -0.016089
  20 C :   -0.159145
  21 H :    0.037502
  22 C :   -0.000522
  23 H :    0.022091
  24 H :    0.024436
  25 C :   -0.050070
  26 H :    0.050575
  27 H :    0.037228
  28 C :   -0.083981
  29 H :    0.059706
  30 H :    0.030666
  31 H :    0.036432
  32 H :    0.065069
  33 H :    0.054698
Sum of atomic charges:   -0.0000000

LOEWDIN ATOMIC CHARGES
----------------------
   0 S :    0.376062
   1 C :   -0.177916
   2 C :   -0.052657
   3 C :   -0.049150
   4 C :   -0.191144
   5 H :    0.025923
   6 C :   -0.029417
   7 H :    0.025881
   8 H :    0.027441
   9 C :   -0.040467
  10 H :    0.023630
  11 H :    0.027363
  12 C :   -0.077402
  13 H :    0.019964
  14 H :    0.026294
  15 H :    0.033212
  16 S :    0.360938
  17 C :   -0.142946
  18 C :   -0.061167
  19 C :   -0.058077
  20 C :   -0.199154
  21 H :    0.035607
  22 C :   -0.051335
  23 H :    0.032769
  24 H :    0.032017
  25 C :   -0.028334
  26 H :    0.036640
  27 H :    0.021979
  28 C :   -0.078243
  29 H :    0.020175
  30 H :    0.030455
  31 H :    0.031061
  32 H :    0.032151
  33 H :    0.017846

  Mayer bond orders larger than 0.100000
B(  0-S ,  1-C ) :   1.1400 B(  0-S ,  4-C ) :   1.1337 B(  1-C ,  2-C ) :   1.5947
B(  1-C ,  4-C ) :   0.1078 B(  1-C , 32-H ) :   0.9682 B(  2-C ,  3-C ) :   1.2150
B(  2-C ,  6-C ) :   1.0237 B(  3-C ,  4-C ) :   1.6109 B(  3-C ,  5-H ) :   1.0034
B(  4-C , 20-C ) :   0.9869 B(  6-C ,  7-H ) :   0.9325 B(  6-C ,  8-H ) :   0.9356
B(  6-C ,  9-C ) :   1.0781 B(  9-C , 10-H ) :   0.9548 B(  9-C , 11-H ) :   0.9576
B(  9-C , 12-C ) :   1.0703 B( 12-C , 13-H ) :   0.9747 B( 12-C , 14-H ) :   0.9762
B( 12-C , 15-H ) :   0.9738 B( 16-S , 17-C ) :   1.1346 B( 16-S , 20-C ) :   1.1313
B( 17-C , 18-C ) :   1.6204 B( 17-C , 33-H ) :   0.9753 B( 18-C , 19-C ) :   1.1951
B( 18-C , 21-H ) :   0.9866 B( 19-C , 20-C ) :   1.6305 B( 19-C , 22-C ) :   1.0513
B( 22-C , 23-H ) :   0.9375 B( 22-C , 24-H ) :   0.9413 B( 22-C , 25-C ) :   1.0441
B( 25-C , 26-H ) :   0.9558 B( 25-C , 27-H ) :   0.9614 B( 25-C , 28-C ) :   1.0722
B( 28-C , 29-H ) :   0.9687 B( 28-C , 30-H ) :   0.9712 B( 28-C , 31-H ) :   0.9683

Dispersion correction           -0.015755759
FINAL SINGLE POINT ENERGY     -1339.841513787235

DIPOLE MOMENT
-------------
                                X             Y             Z
Electronic contribution:      7.40177      18.69634      12.36328
Nuclear contribution   :     -7.45553     -19.45331     -12.54156
                        -----------------------------------------
Total Dipole Moment    :     -0.05376      -0.75697      -0.17828
                        -----------------------------------------
Magnitude (a.u.)       :      0.77954
Magnitude (Debye)      :      1.98142

Rotational constants in cm-1:     0.019186     0.008831     0.007795
Rotational constants in MHz :   575.195419   264.753028   233.678106

                             ****ORCA TERMINATED NORMALLY****
TOTAL RUN TIME: 0 days 0 hours 0 minutes 38 seconds 201 msec
