                         Program Version 4.2.1 -  RELEASE  -
|  1> ! wB97X-D3 SP def2-SVP
|  2> %pal
|  3> nprocs 16
|  4> end
|  5>
|  6> * xyz 0 1
|  7> S 	 3.20617 	 -14.1491 	 57.729
|  8> C 	 2.99421 	 -12.9592 	 59.0584
|  9> C 	 2.35141 	 -13.5348 	 60.1714
| 10> C 	 1.94638 	 -14.8674 	 59.8243
| 11> C 	 2.21912 	 -15.2942 	 58.5627
| 12> H 	 1.537 	 -15.553 	 60.5476
| 13> C 	 2.02309 	 -12.8681 	 61.474
| 14> H 	 0.979511 	 -12.5144 	 61.4408
| 15> H 	 2.74674 	 -12.0899 	 61.4501
| 16> C 	 2.21859 	 -13.7398 	 62.7015
| 17> H 	 1.91556 	 -13.0396 	 63.5148
| 18> H 	 1.53582 	 -14.6702 	 62.7787
| 19> C 	 3.66031 	 -14.2568 	 62.8452
| 20> H 	 4.37784 	 -13.5797 	 62.4654
| 21> H 	 3.90967 	 -14.3773 	 63.9092
| 22> H 	 3.71331 	 -15.1926 	 62.276
| 23> S 	 0.926721 	 -16.3937 	 56.4419
| 24> C 	 0.877049 	 -18.0768 	 56.3094
| 25> C 	 1.2795 	 -18.7166 	 57.4536
| 26> C 	 1.78663 	 -17.8058 	 58.4386
| 27> C 	 1.7296 	 -16.4897 	 57.9781
| 28> H 	 1.3396 	 -19.7958 	 57.5105
| 29> C 	 2.30464 	 -18.2952 	 59.7555
| 30> H 	 2.42357 	 -17.4599 	 60.4038
| 31> H 	 3.3292 	 -18.6479 	 59.6548
| 32> C 	 1.53017 	 -19.2414 	 60.4991
| 33> H 	 1.55403 	 -20.2201 	 59.9804
| 34> H 	 0.414218 	 -18.9996 	 60.6557
| 35> C 	 2.18225 	 -19.3689 	 61.9164
| 36> H 	 2.34345 	 -18.4141 	 62.4309
| 37> H 	 3.13585 	 -19.9608 	 61.8531
| 38> H 	 1.54025 	 -19.8846 	 62.5743
| 39> H 	 3.3988 	 -11.97 	 58.9846
| 40> H 	 0.603904 	 -18.4997 	 55.356
| 41> *
| 42>
| 43>                          ****END OF INPUT****

CARTESIAN COORDINATES (ANGSTROEM)
---------------------------------
  S      3.206170  -14.149100   57.729000
  C      2.994210  -12.959200   59.058400
  C      2.351410  -13.534800   60.171400
  C      1.946380  -14.867400   59.824300
  C      2.219120  -15.294200   58.562700
  H      1.537000  -15.553000   60.547600
  C      2.023090  -12.868100   61.474000
  H      0.979511  -12.514400   61.440800
  H      2.746740  -12.089900   61.450100
  C      2.218590  -13.739800   62.701500
  H      1.915560  -13.039600   63.514800
  H      1.535820  -14.670200   62.778700
  C      3.660310  -14.256800   62.845200
  H      4.377840  -13.579700   62.465400
  H      3.909670  -14.377300   63.909200
  H      3.713310  -15.192600   62.276000
  S      0.926721  -16.393700   56.441900
  C      0.877049  -18.076800   56.309400
  C      1.279500  -18.716600   57.453600
  C      1.786630  -17.805800   58.438600
  C      1.729600  -16.489700   57.978100
  H      1.339600  -19.795800   57.510500
  C      2.304640  -18.295200   59.755500
  H      2.423570  -17.459900   60.403800
  H      3.329200  -18.647900   59.654800
  C      1.530170  -19.241400   60.499100
  H      1.554030  -20.220100   59.980400
  H      0.414218  -18.999600   60.655700
  C      2.182250  -19.368900   61.916400
  H      2.343450  -18.414100   62.430900
  H      3.135850  -19.960800   61.853100
  H      1.540250  -19.884600   62.574300
  H      3.398800  -11.970000   58.984600
  H      0.603904  -18.499700   55.356000

 Total Charge           Charge          ....    0
 Multiplicity           Mult            ....    1
 Number of Electrons    NEL             ....  134
 Basis Dimension        Dim             ....  322

ORBITAL ENERGIES
----------------

  NO   OCC          E(Eh)            E(eV)
   0   2.0000     -88.963903     -2420.8309
   1   2.0000     -88.961635     -2420.7691
   2   2.0000     -10.319313      -280.8028
   3   2.0000     -10.318493      -280.7805
   4   2.0000     -10.316402      -280.7236
   5   2.0000     -10.309851      -280.5453
   6   2.0000     -10.301621      -280.3214
   7   2.0000     -10.300188      -280.2824
   8   2.0000     -10.297059      -280.1972
   9   2.0000     -10.291932      -280.0577
  10   2.0000     -10.291411      -280.0435
  11   2.0000     -10.290703      -280.0243
  12   2.0000     -10.285516      -279.8831
  13   2.0000     -10.281606      -279.7767
  14   2.0000     -10.279519      -279.7199
  15   2.0000     -10.276295      -279.6322
  16   2.0000      -8.078418      -219.8249
  17   2.0000      -8.078197      -219.8189
  18   2.0000      -6.036979      -164.2746
  19   2.0000      -6.036454      -164.2603
  20   2.0000      -6.032988      -164.1659
  21   2.0000      -6.032454      -164.1514
  22   2.0000      -6.029110      -164.0604
  23   2.0000      -6.029101      -164.0602
  24   2.0000      -1.011961       -27.5369
  25   2.0000      -0.984584       -26.7919
  26   2.0000      -0.926923       -25.2229
  27   2.0000      -0.918838       -25.0029
  28   2.0000      -0.870550       -23.6889
  29   2.0000      -0.852809       -23.2061
  30   2.0000      -0.841098       -22.8874
  31   2.0000      -0.812606       -22.1121
  32   2.0000      -0.787655       -21.4332
  33   2.0000      -0.775133       -21.0924
  34   2.0000      -0.709600       -19.3092
  35   2.0000      -0.700242       -19.0545
  36   2.0000      -0.692546       -18.8451
  37   2.0000      -0.655088       -17.8258
  38   2.0000      -0.636715       -17.3259
  39   2.0000      -0.626645       -17.0519
  40   2.0000      -0.609586       -16.5877
  41   2.0000      -0.575139       -15.6503
  42   2.0000      -0.564181       -15.3521
  43   2.0000      -0.559489       -15.2245
  44   2.0000      -0.537454       -14.6249
  45   2.0000      -0.527797       -14.3621
  46   2.0000      -0.525412       -14.2972
  47   2.0000      -0.516851       -14.0642
  48   2.0000      -0.503520       -13.7015
  49   2.0000      -0.495624       -13.4866
  50   2.0000      -0.489962       -13.3325
  51   2.0000      -0.481458       -13.1011
  52   2.0000      -0.469477       -12.7751
  53   2.0000      -0.463137       -12.6026
  54   2.0000      -0.459901       -12.5146
  55   2.0000      -0.452878       -12.3234
  56   2.0000      -0.446323       -12.1451
  57   2.0000      -0.439386       -11.9563
  58   2.0000      -0.433563       -11.7979
  59   2.0000      -0.430931       -11.7262
  60   2.0000      -0.419836       -11.4243
  61   2.0000      -0.413404       -11.2493
  62   2.0000      -0.411037       -11.1849
  63   2.0000      -0.342276        -9.3138
  64   2.0000      -0.331688        -9.0257
  65   2.0000      -0.325883        -8.8677
  66   2.0000      -0.288456        -7.8493
  67   0.0000       0.030143         0.8202
  68   0.0000       0.077772         2.1163
  69   0.0000       0.107128         2.9151
  70   0.0000       0.117266         3.1910
  71   0.0000       0.122806         3.3417

MULLIKEN ATOMIC CHARGES
-----------------------
   0 S :    0.112298
   1 C :   -0.148391
   2 C :   -0.104072
   3 C :    0.026492
   4 C :   -0.152470
   5 H :   -0.000362
   6 C :    0.120109
   7 H :    0.056099
   8 H :    0.012718
   9 C :   -0.145252
  10 H :    0.039357
  11 H :    0.048590
  12 C :   -0.031176
  13 H :    0.021875
  14 H :    0.039094
  15 H :    0.043208
  16 S :    0.122194
  17 C :   -0.097482
  18 C :   -0.027192
  19 C :   -0.018150
  20 C :   -0.169131
  21 H :    0.017564
  22 C :    0.131493
  23 H :   -0.028244
  24 H :    0.029128
  25 C :   -0.120535
  26 H :    0.033482
  27 H :    0.046423
  28 C :   -0.047532
  29 H :    0.032568
  30 H :    0.041314
  31 H :    0.018470
  32 H :    0.041741
  33 H :    0.055771
Sum of atomic charges:   -0.0000000

LOEWDIN ATOMIC CHARGES
----------------------
   0 S :    0.395097
   1 C :   -0.185846
   2 C :   -0.059453
   3 C :   -0.064705
   4 C :   -0.203799
   5 H :    0.022441
   6 C :   -0.030590
   7 H :    0.042056
   8 H :    0.028164
   9 C :   -0.050814
  10 H :    0.028783
  11 H :    0.030913
  12 C :   -0.063647
  13 H :    0.018857
  14 H :    0.030741
  15 H :    0.030060
  16 S :    0.438044
  17 C :   -0.198221
  18 C :   -0.073187
  19 C :   -0.046861
  20 C :   -0.208223
  21 H :    0.030439
  22 C :   -0.042773
  23 H :    0.021179
  24 H :    0.038900
  25 C :   -0.044430
  26 H :    0.024314
  27 H :    0.033922
  28 C :   -0.062398
  29 H :    0.025488
  30 H :    0.032532
  31 H :    0.017512
  32 H :    0.020201
  33 H :    0.025303

  Mayer bond orders larger than 0.100000
B(  0-S ,  1-C ) :   1.1328 B(  0-S ,  4-C ) :   1.1439 B(  1-C ,  2-C ) :   1.5938
B(  1-C , 32-H ) :   0.9722 B(  2-C ,  3-C ) :   1.2406 B(  2-C ,  6-C ) :   1.0058
B(  3-C ,  4-C ) :   1.5809 B(  3-C ,  5-H ) :   0.9871 B(  4-C , 20-C ) :   1.0617
B(  6-C ,  7-H ) :   0.9329 B(  6-C ,  8-H ) :   0.9344 B(  6-C ,  9-C ) :   1.0850
B(  9-C , 10-H ) :   0.9570 B(  9-C , 11-H ) :   0.9521 B(  9-C , 12-C ) :   1.0649
B( 12-C , 13-H ) :   0.9778 B( 12-C , 14-H ) :   0.9749 B( 12-C , 15-H ) :   0.9717
B( 16-S , 17-C ) :   1.1798 B( 16-S , 20-C ) :   1.1530 B( 17-C , 18-C ) :   1.5762
B( 17-C , 33-H ) :   0.9702 B( 18-C , 19-C ) :   1.2502 B( 18-C , 21-H ) :   0.9958
B( 19-C , 20-C ) :   1.5786 B( 19-C , 22-C ) :   1.0360 B( 22-C , 23-H ) :   0.9266
B( 22-C , 24-H ) :   0.9093 B( 22-C , 25-C ) :   1.0785 B( 25-C , 26-H ) :   0.9424
B( 25-C , 27-H ) :   0.9558 B( 25-C , 28-C ) :   1.0827 B( 28-C , 29-H ) :   0.9747
B( 28-C , 30-H ) :   0.9728 B( 28-C , 31-H ) :   0.9735

Dispersion correction           -0.014731637
FINAL SINGLE POINT ENERGY     -1339.874592276358

DIPOLE MOMENT
-------------
                                X             Y             Z
Electronic contribution:     -2.96376       7.73823     -30.00077
Nuclear contribution   :      2.99616      -7.93837      30.64130
                        -----------------------------------------
Total Dipole Moment    :      0.03240      -0.20014       0.64052
                        -----------------------------------------
Magnitude (a.u.)       :      0.67184
Magnitude (Debye)      :      1.70769

Rotational constants in cm-1:     0.016554     0.010686     0.007029
Rotational constants in MHz :   496.270817   320.346648   210.737368

                             ****ORCA TERMINATED NORMALLY****
TOTAL RUN TIME: 0 days 0 hours 0 minutes 32 seconds 106 msec
