                         Program Version 4.2.1 -  RELEASE  -
|  1> ! wB97X-D3 SP def2-SVP
|  2> %pal
|  3> nprocs 16
|  4> end
|  5>
|  6> * xyz 0 1
|  7> S 	 -46.8288 	 55.646 	 98.3102
|  8> C 	 -47.7062 	 54.9737 	 99.7108
|  9> C 	 -46.9467 	 54.1474 	 100.505
| 10> C 	 -45.6405 	 54.0227 	 99.889
| 11> C 	 -45.3525 	 54.8388 	 98.7689
| 12> H 	 -44.8749 	 53.4651 	 100.266
| 13> C 	 -47.2937 	 53.5418 	 101.763
| 14> H 	 -46.9332 	 52.5501 	 101.705
| 15> H 	 -48.3539 	 53.4072 	 101.891
| 16> C 	 -46.5677 	 54.2176 	 102.895
| 17> H 	 -45.4879 	 54.1789 	 102.808
| 18> H 	 -46.8742 	 55.2574 	 102.907
| 19> C 	 -46.9162 	 53.552 	 104.212
| 20> H 	 -48.05 	 53.5546 	 104.535
| 21> H 	 -46.6886 	 52.5262 	 104.339
| 22> H 	 -46.5597 	 54.1247 	 105.124
| 23> S 	 -44.2542 	 54.5848 	 96.2667
| 24> C 	 -42.4868 	 54.5394 	 96.1458
| 25> C 	 -41.8338 	 54.6783 	 97.3535
| 26> C 	 -42.778 	 54.8322 	 98.4006
| 27> C 	 -44.1061 	 54.85 	 98.0065
| 28> H 	 -40.764 	 54.7196 	 97.2722
| 29> C 	 -42.3033 	 55.1823 	 99.7476
| 30> H 	 -41.285 	 54.8291 	 99.7774
| 31> H 	 -42.8898 	 54.7077 	 100.573
| 32> C 	 -42.1455 	 56.6813 	 100.025
| 33> H 	 -41.6262 	 57.1617 	 99.2038
| 34> H 	 -41.4578 	 56.9919 	 100.814
| 35> C 	 -43.5465 	 57.3706 	 100.094
| 36> H 	 -43.5107 	 58.3813 	 100.419
| 37> H 	 -44.1141 	 56.8266 	 100.798
| 38> H 	 -44.0364 	 57.4896 	 99.0921
| 39> H 	 -48.7356 	 55.1457 	 99.9677
| 40> H 	 -41.9246 	 54.2748 	 95.2586
| 41> *
| 42>
| 43>                          ****END OF INPUT****

CARTESIAN COORDINATES (ANGSTROEM)
---------------------------------
  S    -46.828800   55.646000   98.310200
  C    -47.706200   54.973700   99.710800
  C    -46.946700   54.147400  100.505000
  C    -45.640500   54.022700   99.889000
  C    -45.352500   54.838800   98.768900
  H    -44.874900   53.465100  100.266000
  C    -47.293700   53.541800  101.763000
  H    -46.933200   52.550100  101.705000
  H    -48.353900   53.407200  101.891000
  C    -46.567700   54.217600  102.895000
  H    -45.487900   54.178900  102.808000
  H    -46.874200   55.257400  102.907000
  C    -46.916200   53.552000  104.212000
  H    -48.050000   53.554600  104.535000
  H    -46.688600   52.526200  104.339000
  H    -46.559700   54.124700  105.124000
  S    -44.254200   54.584800   96.266700
  C    -42.486800   54.539400   96.145800
  C    -41.833800   54.678300   97.353500
  C    -42.778000   54.832200   98.400600
  C    -44.106100   54.850000   98.006500
  H    -40.764000   54.719600   97.272200
  C    -42.303300   55.182300   99.747600
  H    -41.285000   54.829100   99.777400
  H    -42.889800   54.707700  100.573000
  C    -42.145500   56.681300  100.025000
  H    -41.626200   57.161700   99.203800
  H    -41.457800   56.991900  100.814000
  C    -43.546500   57.370600  100.094000
  H    -43.510700   58.381300  100.419000
  H    -44.114100   56.826600  100.798000
  H    -44.036400   57.489600   99.092100
  H    -48.735600   55.145700   99.967700
  H    -41.924600   54.274800   95.258600

 Total Charge           Charge          ....    0
 Multiplicity           Mult            ....    1
 Number of Electrons    NEL             ....  134
 Basis Dimension        Dim             ....  322

ORBITAL ENERGIES
----------------

  NO   OCC          E(Eh)            E(eV)
   0   2.0000     -88.967276     -2420.9227
   1   2.0000     -88.967003     -2420.9152
   2   2.0000     -10.332425      -281.1596
   3   2.0000     -10.329278      -281.0739
   4   2.0000     -10.318302      -280.7753
   5   2.0000     -10.312185      -280.6088
   6   2.0000     -10.302804      -280.3535
   7   2.0000     -10.297568      -280.2111
   8   2.0000     -10.294640      -280.1314
   9   2.0000     -10.289524      -279.9922
  10   2.0000     -10.287779      -279.9447
  11   2.0000     -10.287433      -279.9353
  12   2.0000     -10.286842      -279.9192
  13   2.0000     -10.284093      -279.8444
  14   2.0000     -10.282308      -279.7958
  15   2.0000     -10.264577      -279.3133
  16   2.0000      -8.081505      -219.9089
  17   2.0000      -8.080883      -219.8920
  18   2.0000      -6.040011      -164.3571
  19   2.0000      -6.039601      -164.3459
  20   2.0000      -6.036151      -164.2520
  21   2.0000      -6.035452      -164.2330
  22   2.0000      -6.032226      -164.1452
  23   2.0000      -6.031538      -164.1265
  24   2.0000      -1.004472       -27.3331
  25   2.0000      -0.982951       -26.7475
  26   2.0000      -0.927821       -25.2473
  27   2.0000      -0.909225       -24.7413
  28   2.0000      -0.871913       -23.7260
  29   2.0000      -0.847077       -23.0501
  30   2.0000      -0.844772       -22.9874
  31   2.0000      -0.812695       -22.1146
  32   2.0000      -0.784449       -21.3459
  33   2.0000      -0.772942       -21.0328
  34   2.0000      -0.713439       -19.4137
  35   2.0000      -0.705358       -19.1938
  36   2.0000      -0.694124       -18.8881
  37   2.0000      -0.664915       -18.0933
  38   2.0000      -0.642135       -17.4734
  39   2.0000      -0.623705       -16.9719
  40   2.0000      -0.593785       -16.1577
  41   2.0000      -0.580656       -15.8005
  42   2.0000      -0.568160       -15.4604
  43   2.0000      -0.551601       -15.0098
  44   2.0000      -0.538852       -14.6629
  45   2.0000      -0.532017       -14.4769
  46   2.0000      -0.518086       -14.0978
  47   2.0000      -0.511973       -13.9315
  48   2.0000      -0.501178       -13.6377
  49   2.0000      -0.498008       -13.5515
  50   2.0000      -0.497183       -13.5290
  51   2.0000      -0.472942       -12.8694
  52   2.0000      -0.469542       -12.7769
  53   2.0000      -0.458605       -12.4793
  54   2.0000      -0.455452       -12.3935
  55   2.0000      -0.451434       -12.2841
  56   2.0000      -0.446332       -12.1453
  57   2.0000      -0.434864       -11.8332
  58   2.0000      -0.428850       -11.6696
  59   2.0000      -0.427373       -11.6294
  60   2.0000      -0.418780       -11.3956
  61   2.0000      -0.414316       -11.2741
  62   2.0000      -0.410402       -11.1676
  63   2.0000      -0.348373        -9.4797
  64   2.0000      -0.332900        -9.0587
  65   2.0000      -0.326802        -8.8927
  66   2.0000      -0.287405        -7.8207
  67   0.0000       0.026560         0.7227
  68   0.0000       0.071926         1.9572
  69   0.0000       0.105299         2.8653
  70   0.0000       0.116138         3.1603
  71   0.0000       0.130789         3.5589

MULLIKEN ATOMIC CHARGES
-----------------------
   0 S :    0.104116
   1 C :   -0.113136
   2 C :   -0.089330
   3 C :    0.049181
   4 C :   -0.145240
   5 H :   -0.034739
   6 C :    0.120843
   7 H :    0.009897
   8 H :    0.016240
   9 C :   -0.042745
  10 H :    0.037829
  11 H :    0.032347
  12 C :   -0.087217
  13 H :    0.025858
  14 H :    0.027768
  15 H :    0.038797
  16 S :    0.104286
  17 C :   -0.096080
  18 C :   -0.037897
  19 C :   -0.034163
  20 C :   -0.133554
  21 H :    0.021591
  22 C :    0.074656
  23 H :    0.009606
  24 H :    0.031274
  25 C :   -0.063927
  26 H :    0.007980
  27 H :    0.028830
  28 C :   -0.033839
  29 H :    0.015365
  30 H :    0.022192
  31 H :    0.047637
  32 H :    0.032358
  33 H :    0.053219
Sum of atomic charges:   -0.0000000

LOEWDIN ATOMIC CHARGES
----------------------
   0 S :    0.391232
   1 C :   -0.187782
   2 C :   -0.056284
   3 C :   -0.050840
   4 C :   -0.193330
   5 H :    0.006370
   6 C :   -0.032007
   7 H :    0.031836
   8 H :    0.032148
   9 C :   -0.031415
  10 H :    0.028946
  11 H :    0.029141
  12 C :   -0.081355
  13 H :    0.032164
  14 H :    0.016689
  15 H :    0.032217
  16 S :    0.392720
  17 C :   -0.171757
  18 C :   -0.067504
  19 C :   -0.056556
  20 C :   -0.190668
  21 H :    0.036787
  22 C :   -0.034803
  23 H :    0.029854
  24 H :    0.030873
  25 C :   -0.040327
  26 H :    0.021292
  27 H :    0.025039
  28 C :   -0.063801
  29 H :    0.018778
  30 H :    0.016115
  31 H :    0.033789
  32 H :    0.024380
  33 H :    0.028057

  Mayer bond orders larger than 0.100000
B(  0-S ,  1-C ) :   1.1211 B(  0-S ,  4-C ) :   1.1386 B(  1-C ,  2-C ) :   1.6268
B(  1-C , 32-H ) :   0.9647 B(  2-C ,  3-C ) :   1.2221 B(  2-C ,  6-C ) :   1.0479
B(  3-C ,  4-C ) :   1.5725 B(  3-C ,  5-H ) :   0.9998 B(  4-C , 20-C ) :   1.0516
B(  6-C ,  7-H ) :   0.9154 B(  6-C ,  8-H ) :   0.9349 B(  6-C ,  9-C ) :   1.0612
B(  9-C , 10-H ) :   0.9516 B(  9-C , 11-H ) :   0.9525 B(  9-C , 12-C ) :   1.0818
B( 12-C , 13-H ) :   0.9715 B( 12-C , 14-H ) :   0.9751 B( 12-C , 15-H ) :   0.9726
B( 16-S , 17-C ) :   1.1528 B( 16-S , 20-C ) :   1.1256 B( 17-C , 18-C ) :   1.6380
B( 17-C , 33-H ) :   0.9614 B( 18-C , 19-C ) :   1.2154 B( 18-C , 21-H ) :   0.9956
B( 19-C , 20-C ) :   1.6020 B( 19-C , 22-C ) :   1.0649 B( 22-C , 23-H ) :   0.9177
B( 22-C , 24-H ) :   0.9347 B( 22-C , 25-C ) :   1.0744 B( 25-C , 26-H ) :   0.9471
B( 25-C , 27-H ) :   0.9589 B( 25-C , 28-C ) :   1.0758 B( 28-C , 29-H ) :   0.9708
B( 28-C , 30-H ) :   0.9778 B( 28-C , 31-H ) :   0.9701

Dispersion correction           -0.015689698
FINAL SINGLE POINT ENERGY     -1339.861418627845

DIPOLE MOMENT
-------------
                                X             Y             Z
Electronic contribution:     -3.54746      -1.39339     -27.83797
Nuclear contribution   :      3.90966       1.21711      28.42650
                        -----------------------------------------
Total Dipole Moment    :      0.36220      -0.17629       0.58852
                        -----------------------------------------
Magnitude (a.u.)       :      0.71318
Magnitude (Debye)      :      1.81276

Rotational constants in cm-1:     0.021092     0.008881     0.007405
Rotational constants in MHz :   632.324812   266.234185   221.986373

                             ****ORCA TERMINATED NORMALLY****
TOTAL RUN TIME: 0 days 0 hours 0 minutes 32 seconds 264 msec
