                         Program Version 4.2.1 -  RELEASE  -
|  1> ! wB97X-D3 SP def2-SVP
|  2> %pal
|  3> nprocs 16
|  4> end
|  5>
|  6> * xyz 0 1
|  7> S 	 -10.4347 	 64.8754 	 52.3935
|  8> C 	 -10.395 	 63.2727 	 51.7446
|  9> C 	 -9.34329 	 62.4664 	 52.162
| 10> C 	 -8.52721 	 63.2843 	 52.9719
| 11> C 	 -8.81495 	 64.6274 	 52.8533
| 12> H 	 -7.66833 	 63.0007 	 53.5387
| 13> C 	 -9.21926 	 60.9935 	 51.9521
| 14> H 	 -10.2039 	 60.7809 	 51.5391
| 15> H 	 -9.16472 	 60.5612 	 52.9413
| 16> C 	 -8.1201 	 60.4558 	 50.9534
| 17> H 	 -8.41925 	 59.38 	 50.7726
| 18> H 	 -8.12716 	 61.0553 	 50.0609
| 19> C 	 -6.71534 	 60.5127 	 51.4121
| 20> H 	 -6.4099 	 59.8735 	 52.2877
| 21> H 	 -6.0856 	 60.2005 	 50.5977
| 22> H 	 -6.29504 	 61.5258 	 51.5917
| 23> S 	 -8.94484 	 67.1838 	 54.0082
| 24> C 	 -7.398 	 68.0288 	 54.1623
| 25> C 	 -6.3462 	 67.2996 	 53.6445
| 26> C 	 -6.71022 	 65.9717 	 53.2124
| 27> C 	 -8.09088 	 65.7151 	 53.4051
| 28> H 	 -5.34932 	 67.7873 	 53.5451
| 29> C 	 -5.67297 	 65.1872 	 52.456
| 30> H 	 -5.0948 	 65.8861 	 51.8465
| 31> H 	 -6.30292 	 64.5977 	 51.7472
| 32> C 	 -4.82506 	 64.221 	 53.2369
| 33> H 	 -5.52373 	 63.5084 	 53.7175
| 34> H 	 -4.29149 	 64.7563 	 53.9885
| 35> C 	 -3.79074 	 63.4978 	 52.2924
| 36> H 	 -3.32085 	 62.6497 	 52.8769
| 37> H 	 -3.12561 	 64.3534 	 51.97
| 38> H 	 -4.31827 	 63.0787 	 51.467
| 39> H 	 -11.2429 	 62.8751 	 51.25
| 40> H 	 -7.30741 	 68.9928 	 54.5423
| 41> *
| 42>
| 43>                          ****END OF INPUT****

CARTESIAN COORDINATES (ANGSTROEM)
---------------------------------
  S    -10.434700   64.875400   52.393500
  C    -10.395000   63.272700   51.744600
  C     -9.343290   62.466400   52.162000
  C     -8.527210   63.284300   52.971900
  C     -8.814950   64.627400   52.853300
  H     -7.668330   63.000700   53.538700
  C     -9.219260   60.993500   51.952100
  H    -10.203900   60.780900   51.539100
  H     -9.164720   60.561200   52.941300
  C     -8.120100   60.455800   50.953400
  H     -8.419250   59.380000   50.772600
  H     -8.127160   61.055300   50.060900
  C     -6.715340   60.512700   51.412100
  H     -6.409900   59.873500   52.287700
  H     -6.085600   60.200500   50.597700
  H     -6.295040   61.525800   51.591700
  S     -8.944840   67.183800   54.008200
  C     -7.398000   68.028800   54.162300
  C     -6.346200   67.299600   53.644500
  C     -6.710220   65.971700   53.212400
  C     -8.090880   65.715100   53.405100
  H     -5.349320   67.787300   53.545100
  C     -5.672970   65.187200   52.456000
  H     -5.094800   65.886100   51.846500
  H     -6.302920   64.597700   51.747200
  C     -4.825060   64.221000   53.236900
  H     -5.523730   63.508400   53.717500
  H     -4.291490   64.756300   53.988500
  C     -3.790740   63.497800   52.292400
  H     -3.320850   62.649700   52.876900
  H     -3.125610   64.353400   51.970000
  H     -4.318270   63.078700   51.467000
  H    -11.242900   62.875100   51.250000
  H     -7.307410   68.992800   54.542300

 Total Charge           Charge          ....    0
 Multiplicity           Mult            ....    1
 Number of Electrons    NEL             ....  134
 Basis Dimension        Dim             ....  322

ORBITAL ENERGIES
----------------

  NO   OCC          E(Eh)            E(eV)
   0   2.0000     -88.966723     -2420.9076
   1   2.0000     -88.964710     -2420.8528
   2   2.0000     -10.328338      -281.0484
   3   2.0000     -10.318419      -280.7785
   4   2.0000     -10.315483      -280.6986
   5   2.0000     -10.305787      -280.4347
   6   2.0000     -10.304994      -280.4131
   7   2.0000     -10.298179      -280.2277
   8   2.0000     -10.296543      -280.1832
   9   2.0000     -10.294546      -280.1288
  10   2.0000     -10.294057      -280.1155
  11   2.0000     -10.289959      -280.0040
  12   2.0000     -10.288475      -279.9636
  13   2.0000     -10.287688      -279.9422
  14   2.0000     -10.286149      -279.9004
  15   2.0000     -10.280529      -279.7474
  16   2.0000      -8.081234      -219.9015
  17   2.0000      -8.080430      -219.8797
  18   2.0000      -6.039419      -164.3410
  19   2.0000      -6.039110      -164.3325
  20   2.0000      -6.036061      -164.2496
  21   2.0000      -6.035300      -164.2289
  22   2.0000      -6.031655      -164.1297
  23   2.0000      -6.030879      -164.1085
  24   2.0000      -1.014925       -27.6175
  25   2.0000      -0.979730       -26.6598
  26   2.0000      -0.915925       -24.9236
  27   2.0000      -0.911046       -24.7908
  28   2.0000      -0.874050       -23.7841
  29   2.0000      -0.856597       -23.3092
  30   2.0000      -0.845070       -22.9955
  31   2.0000      -0.816696       -22.2234
  32   2.0000      -0.785064       -21.3627
  33   2.0000      -0.768584       -20.9142
  34   2.0000      -0.707404       -19.2494
  35   2.0000      -0.701647       -19.0928
  36   2.0000      -0.693498       -18.8710
  37   2.0000      -0.661388       -17.9973
  38   2.0000      -0.640886       -17.4394
  39   2.0000      -0.617978       -16.8160
  40   2.0000      -0.593843       -16.1593
  41   2.0000      -0.576529       -15.6882
  42   2.0000      -0.572255       -15.5719
  43   2.0000      -0.543964       -14.8020
  44   2.0000      -0.540110       -14.6971
  45   2.0000      -0.525843       -14.3089
  46   2.0000      -0.521989       -14.2040
  47   2.0000      -0.513113       -13.9625
  48   2.0000      -0.505376       -13.7520
  49   2.0000      -0.494868       -13.4661
  50   2.0000      -0.490455       -13.3460
  51   2.0000      -0.483526       -13.1574
  52   2.0000      -0.471180       -12.8215
  53   2.0000      -0.465814       -12.6755
  54   2.0000      -0.456338       -12.4176
  55   2.0000      -0.454772       -12.3750
  56   2.0000      -0.441446       -12.0124
  57   2.0000      -0.437734       -11.9113
  58   2.0000      -0.433312       -11.7910
  59   2.0000      -0.430357       -11.7106
  60   2.0000      -0.420936       -11.4543
  61   2.0000      -0.420367       -11.4388
  62   2.0000      -0.413399       -11.2492
  63   2.0000      -0.352010        -9.5787
  64   2.0000      -0.333364        -9.0713
  65   2.0000      -0.327879        -8.9220
  66   2.0000      -0.276573        -7.5259
  67   0.0000       0.018013         0.4902
  68   0.0000       0.069863         1.9011
  69   0.0000       0.095826         2.6076
  70   0.0000       0.115101         3.1320
  71   0.0000       0.127330         3.4648

MULLIKEN ATOMIC CHARGES
-----------------------
   0 S :    0.109734
   1 C :   -0.099977
   2 C :   -0.097072
   3 C :    0.005433
   4 C :   -0.139328
   5 H :   -0.003750
   6 C :    0.090622
   7 H :    0.009025
   8 H :    0.036339
   9 C :   -0.041294
  10 H :    0.045571
  11 H :    0.030550
  12 C :   -0.071068
  13 H :    0.036821
  14 H :    0.026185
  15 H :    0.025499
  16 S :    0.079733
  17 C :   -0.070461
  18 C :   -0.037568
  19 C :   -0.052782
  20 C :   -0.121939
  21 H :    0.035256
  22 C :    0.031997
  23 H :    0.022862
  24 H :    0.028131
  25 C :   -0.057422
  26 H :    0.023901
  27 H :    0.020518
  28 C :   -0.052597
  29 H :    0.053430
  30 H :    0.046142
  31 H :    0.028183
  32 H :    0.023656
  33 H :    0.035669
Sum of atomic charges:    0.0000000

LOEWDIN ATOMIC CHARGES
----------------------
   0 S :    0.426970
   1 C :   -0.195581
   2 C :   -0.062039
   3 C :   -0.058729
   4 C :   -0.201326
   5 H :    0.022126
   6 C :   -0.030570
   7 H :    0.031976
   8 H :    0.035043
   9 C :   -0.036440
  10 H :    0.035598
  11 H :    0.028923
  12 C :   -0.079323
  13 H :    0.028358
  14 H :    0.027184
  15 H :    0.025631
  16 S :    0.363384
  17 C :   -0.166243
  18 C :   -0.072838
  19 C :   -0.050414
  20 C :   -0.184655
  21 H :    0.038927
  22 C :   -0.038054
  23 H :    0.028818
  24 H :    0.033046
  25 C :   -0.037359
  26 H :    0.020517
  27 H :    0.017375
  28 C :   -0.064776
  29 H :    0.035804
  30 H :    0.035216
  31 H :    0.015513
  32 H :    0.011534
  33 H :    0.016402

  Mayer bond orders larger than 0.100000
B(  0-S ,  1-C ) :   1.1518 B(  0-S ,  4-C ) :   1.1484 B(  1-C ,  2-C ) :   1.6010
B(  1-C , 32-H ) :   0.9655 B(  2-C ,  3-C ) :   1.2312 B(  2-C ,  6-C ) :   1.0191
B(  3-C ,  4-C ) :   1.5344 B(  3-C ,  5-H ) :   1.0056 B(  4-C , 20-C ) :   1.1179
B(  6-C ,  7-H ) :   0.9297 B(  6-C ,  8-H ) :   0.9397 B(  6-C ,  9-C ) :   1.0606
B(  9-C , 10-H ) :   0.9532 B(  9-C , 11-H ) :   0.9506 B(  9-C , 12-C ) :   1.0953
B( 12-C , 13-H ) :   0.9705 B( 12-C , 14-H ) :   0.9668 B( 12-C , 15-H ) :   0.9669
B( 16-S , 17-C ) :   1.1346 B( 16-S , 20-C ) :   1.1078 B( 17-C , 18-C ) :   1.6319
B( 17-C , 33-H ) :   0.9746 B( 18-C , 19-C ) :   1.2314 B( 18-C , 21-H ) :   0.9826
B( 19-C , 20-C ) :   1.5783 B( 19-C , 22-C ) :   1.0403 B( 22-C , 23-H ) :   0.9403
B( 22-C , 24-H ) :   0.9202 B( 22-C , 25-C ) :   1.0692 B( 25-C , 26-H ) :   0.9474
B( 25-C , 27-H ) :   0.9547 B( 25-C , 28-C ) :   1.0705 B( 28-C , 29-H ) :   0.9751
B( 28-C , 30-H ) :   0.9735 B( 28-C , 31-H ) :   0.9746

Dispersion correction           -0.015317936
FINAL SINGLE POINT ENERGY     -1339.860483762123

DIPOLE MOMENT
-------------
                                X             Y             Z
Electronic contribution:    -22.81541      23.01206       8.14985
Nuclear contribution   :     23.30956     -23.40352      -8.34620
                        -----------------------------------------
Total Dipole Moment    :      0.49415      -0.39146      -0.19635
                        -----------------------------------------
Magnitude (a.u.)       :      0.66029
Magnitude (Debye)      :      1.67831

Rotational constants in cm-1:     0.017184     0.010922     0.006913
Rotational constants in MHz :   515.159423   327.432428   207.260768

                             ****ORCA TERMINATED NORMALLY****
TOTAL RUN TIME: 0 days 0 hours 0 minutes 35 seconds 854 msec
