                         Program Version 4.2.1 -  RELEASE  -
|  1> ! wB97X-D3 SP def2-SVP
|  2> %pal
|  3> nprocs 16
|  4> end
|  5>
|  6> * xyz 0 1
|  7> S 	 39.7139 	 16.3854 	 51.0578
|  8> C 	 39.4506 	 17.2904 	 52.5649
|  9> C 	 40.0996 	 16.6563 	 53.5771
| 10> C 	 40.923 	 15.6118 	 53.1817
| 11> C 	 40.8017 	 15.2633 	 51.8296
| 12> H 	 41.5186 	 14.9865 	 53.8098
| 13> C 	 39.9875 	 17.0654 	 55.0156
| 14> H 	 39.4975 	 18.0246 	 55.1787
| 15> H 	 41.0054 	 17.1924 	 55.3852
| 16> C 	 39.3883 	 16.0144 	 55.9652
| 17> H 	 38.3253 	 15.9212 	 55.7525
| 18> H 	 39.8035 	 14.9982 	 55.7959
| 19> C 	 39.6481 	 16.2358 	 57.4885
| 20> H 	 40.562 	 16.6934 	 57.6677
| 21> H 	 38.8566 	 16.7575 	 58.011
| 22> H 	 39.8084 	 15.2549 	 57.9045
| 23> S 	 40.4382 	 12.5253 	 51.433
| 24> C 	 41.6645 	 11.6564 	 50.5804
| 25> C 	 42.7181 	 12.433 	 50.1806
| 26> C 	 42.4884 	 13.8456 	 50.4818
| 27> C 	 41.3315 	 14.0627 	 51.2238
| 28> H 	 43.5369 	 12.0055 	 49.7482
| 29> C 	 43.4446 	 14.9606 	 50.1265
| 30> H 	 43.9777 	 15.1109 	 51.0528
| 31> H 	 43.0013 	 15.9915 	 49.9849
| 32> C 	 44.4991 	 14.6484 	 48.9402
| 33> H 	 44.8888 	 13.5853 	 49.0414
| 34> H 	 45.3801 	 15.3447 	 49.0404
| 35> C 	 43.8379 	 14.9085 	 47.5558
| 36> H 	 43.4591 	 15.9888 	 47.4894
| 37> H 	 42.9738 	 14.2726 	 47.3305
| 38> H 	 44.5506 	 14.8007 	 46.7486
| 39> H 	 38.6326 	 18.0231 	 52.7258
| 40> H 	 41.6741 	 10.5886 	 50.4673
| 41> *
| 42>
| 43>                          ****END OF INPUT****

CARTESIAN COORDINATES (ANGSTROEM)
---------------------------------
  S     39.713900   16.385400   51.057800
  C     39.450600   17.290400   52.564900
  C     40.099600   16.656300   53.577100
  C     40.923000   15.611800   53.181700
  C     40.801700   15.263300   51.829600
  H     41.518600   14.986500   53.809800
  C     39.987500   17.065400   55.015600
  H     39.497500   18.024600   55.178700
  H     41.005400   17.192400   55.385200
  C     39.388300   16.014400   55.965200
  H     38.325300   15.921200   55.752500
  H     39.803500   14.998200   55.795900
  C     39.648100   16.235800   57.488500
  H     40.562000   16.693400   57.667700
  H     38.856600   16.757500   58.011000
  H     39.808400   15.254900   57.904500
  S     40.438200   12.525300   51.433000
  C     41.664500   11.656400   50.580400
  C     42.718100   12.433000   50.180600
  C     42.488400   13.845600   50.481800
  C     41.331500   14.062700   51.223800
  H     43.536900   12.005500   49.748200
  C     43.444600   14.960600   50.126500
  H     43.977700   15.110900   51.052800
  H     43.001300   15.991500   49.984900
  C     44.499100   14.648400   48.940200
  H     44.888800   13.585300   49.041400
  H     45.380100   15.344700   49.040400
  C     43.837900   14.908500   47.555800
  H     43.459100   15.988800   47.489400
  H     42.973800   14.272600   47.330500
  H     44.550600   14.800700   46.748600
  H     38.632600   18.023100   52.725800
  H     41.674100   10.588600   50.467300

 Total Charge           Charge          ....    0
 Multiplicity           Mult            ....    1
 Number of Electrons    NEL             ....  134
 Basis Dimension        Dim             ....  322

ORBITAL ENERGIES
----------------

  NO   OCC          E(Eh)            E(eV)
   0   2.0000     -88.964695     -2420.8524
   1   2.0000     -88.963553     -2420.8213
   2   2.0000     -10.328410      -281.0503
   3   2.0000     -10.324001      -280.9303
   4   2.0000     -10.315867      -280.7090
   5   2.0000     -10.314403      -280.6692
   6   2.0000     -10.310176      -280.5542
   7   2.0000     -10.304253      -280.3930
   8   2.0000     -10.296903      -280.1930
   9   2.0000     -10.294506      -280.1278
  10   2.0000     -10.290150      -280.0092
  11   2.0000     -10.289560      -279.9932
  12   2.0000     -10.289125      -279.9813
  13   2.0000     -10.287232      -279.9298
  14   2.0000     -10.282288      -279.7953
  15   2.0000     -10.271654      -279.5059
  16   2.0000      -8.078984      -219.8403
  17   2.0000      -8.078191      -219.8188
  18   2.0000      -6.037478      -164.2881
  19   2.0000      -6.036722      -164.2676
  20   2.0000      -6.033401      -164.1772
  21   2.0000      -6.032732      -164.1590
  22   2.0000      -6.029926      -164.0826
  23   2.0000      -6.028911      -164.0550
  24   2.0000      -1.004902       -27.3448
  25   2.0000      -0.983611       -26.7654
  26   2.0000      -0.910098       -24.7650
  27   2.0000      -0.896216       -24.3873
  28   2.0000      -0.871056       -23.7026
  29   2.0000      -0.847615       -23.0648
  30   2.0000      -0.842201       -22.9175
  31   2.0000      -0.815941       -22.2029
  32   2.0000      -0.784046       -21.3350
  33   2.0000      -0.769038       -20.9266
  34   2.0000      -0.708695       -19.2846
  35   2.0000      -0.697941       -18.9919
  36   2.0000      -0.694583       -18.9006
  37   2.0000      -0.655814       -17.8456
  38   2.0000      -0.640448       -17.4275
  39   2.0000      -0.621001       -16.8983
  40   2.0000      -0.598747       -16.2927
  41   2.0000      -0.572446       -15.5770
  42   2.0000      -0.560788       -15.2598
  43   2.0000      -0.543805       -14.7977
  44   2.0000      -0.532843       -14.4994
  45   2.0000      -0.522354       -14.2140
  46   2.0000      -0.516702       -14.0602
  47   2.0000      -0.508955       -13.8494
  48   2.0000      -0.505248       -13.7485
  49   2.0000      -0.498448       -13.5635
  50   2.0000      -0.490659       -13.3515
  51   2.0000      -0.476411       -12.9638
  52   2.0000      -0.470271       -12.7967
  53   2.0000      -0.465027       -12.6540
  54   2.0000      -0.463644       -12.6164
  55   2.0000      -0.445926       -12.1343
  56   2.0000      -0.445456       -12.1215
  57   2.0000      -0.435072       -11.8389
  58   2.0000      -0.432397       -11.7661
  59   2.0000      -0.421895       -11.4803
  60   2.0000      -0.419991       -11.4285
  61   2.0000      -0.415586       -11.3087
  62   2.0000      -0.414670       -11.2838
  63   2.0000      -0.333639        -9.0788
  64   2.0000      -0.326813        -8.8930
  65   2.0000      -0.319569        -8.6959
  66   2.0000      -0.311294        -8.4707
  67   0.0000       0.042369         1.1529
  68   0.0000       0.051049         1.3891
  69   0.0000       0.119849         3.2613
  70   0.0000       0.125567         3.4169
  71   0.0000       0.129626         3.5273

MULLIKEN ATOMIC CHARGES
-----------------------
   0 S :    0.109180
   1 C :   -0.139011
   2 C :   -0.055244
   3 C :    0.045099
   4 C :   -0.182863
   5 H :    0.002650
   6 C :    0.089804
   7 H :    0.019547
   8 H :    0.018039
   9 C :   -0.120541
  10 H :    0.029397
  11 H :    0.030251
  12 C :   -0.009113
  13 H :    0.006964
  14 H :    0.041655
  15 H :    0.023211
  16 S :    0.114201
  17 C :   -0.073995
  18 C :   -0.010343
  19 C :   -0.002121
  20 C :   -0.182732
  21 H :   -0.019103
  22 C :    0.036756
  23 H :    0.034698
  24 H :    0.043758
  25 C :   -0.104372
  26 H :    0.044960
  27 H :    0.043224
  28 C :   -0.065151
  29 H :    0.038242
  30 H :    0.043829
  31 H :    0.033812
  32 H :    0.064095
  33 H :    0.051214
Sum of atomic charges:   -0.0000000

LOEWDIN ATOMIC CHARGES
----------------------
   0 S :    0.402143
   1 C :   -0.196539
   2 C :   -0.069651
   3 C :   -0.053909
   4 C :   -0.200173
   5 H :    0.027689
   6 C :   -0.031330
   7 H :    0.028384
   8 H :    0.030402
   9 C :   -0.041593
  10 H :    0.022697
  11 H :    0.025926
  12 C :   -0.059833
  13 H :    0.014754
  14 H :    0.025869
  15 H :    0.029044
  16 S :    0.397671
  17 C :   -0.176997
  18 C :   -0.067937
  19 C :   -0.038589
  20 C :   -0.204482
  21 H :    0.014332
  22 C :   -0.041722
  23 H :    0.035783
  24 H :    0.039564
  25 C :   -0.044165
  26 H :    0.027561
  27 H :    0.031097
  28 C :   -0.074405
  29 H :    0.033693
  30 H :    0.026791
  31 H :    0.021497
  32 H :    0.038733
  33 H :    0.027697

  Mayer bond orders larger than 0.100000
B(  0-S ,  1-C ) :   1.1324 B(  0-S ,  4-C ) :   1.1619 B(  1-C ,  2-C ) :   1.6057
B(  1-C ,  4-C ) :   0.1019 B(  1-C , 32-H ) :   0.9617 B(  2-C ,  3-C ) :   1.2507
B(  2-C ,  6-C ) :   1.0336 B(  3-C ,  4-C ) :   1.5577 B(  3-C ,  5-H ) :   0.9984
B(  4-C , 20-C ) :   1.0449 B(  6-C ,  7-H ) :   0.9446 B(  6-C ,  8-H ) :   0.9327
B(  6-C ,  9-C ) :   1.0569 B(  9-C , 10-H ) :   0.9566 B(  9-C , 11-H ) :   0.9658
B(  9-C , 12-C ) :   1.0688 B( 12-C , 13-H ) :   0.9723 B( 12-C , 14-H ) :   0.9786
B( 12-C , 15-H ) :   0.9782 B( 16-S , 17-C ) :   1.1635 B( 16-S , 20-C ) :   1.1170
B( 17-C , 18-C ) :   1.6338 B( 17-C , 33-H ) :   0.9617 B( 18-C , 19-C ) :   1.2050
B( 18-C , 21-H ) :   1.0043 B( 19-C , 20-C ) :   1.6232 B( 19-C , 22-C ) :   1.0340
B( 22-C , 23-H ) :   0.9265 B( 22-C , 24-H ) :   0.9374 B( 22-C , 25-C ) :   1.0616
B( 25-C , 26-H ) :   0.9541 B( 25-C , 27-H ) :   0.9572 B( 25-C , 28-C ) :   1.0682
B( 28-C , 29-H ) :   0.9733 B( 28-C , 30-H ) :   0.9782 B( 28-C , 31-H ) :   0.9764

Dispersion correction           -0.013926485
FINAL SINGLE POINT ENERGY     -1339.877719704362

DIPOLE MOMENT
-------------
                                X             Y             Z
Electronic contribution:    -10.27584      -6.70756      -8.58969
Nuclear contribution   :     10.67276       6.67430       8.93111
                        -----------------------------------------
Total Dipole Moment    :      0.39692      -0.03327       0.34141
                        -----------------------------------------
Magnitude (a.u.)       :      0.52461
Magnitude (Debye)      :      1.33344

Rotational constants in cm-1:     0.022199     0.007111     0.006372
Rotational constants in MHz :   665.494477   213.172335   191.041020

                             ****ORCA TERMINATED NORMALLY****
TOTAL RUN TIME: 0 days 0 hours 0 minutes 33 seconds 291 msec
