                         Program Version 4.2.1 -  RELEASE  -
|  1> ! wB97X-D3 SP def2-SVP
|  2> %pal
|  3> nprocs 16
|  4> end
|  5>
|  6> * xyz 0 1
|  7> S 	 -73.8173 	 44.4237 	 126.002
|  8> C 	 -74.1238 	 42.6936 	 125.985
|  9> C 	 -72.9556 	 41.9722 	 125.859
| 10> C 	 -71.8385 	 42.8283 	 125.656
| 11> C 	 -72.0814 	 44.2042 	 125.709
| 12> H 	 -70.8635 	 42.4876 	 125.477
| 13> C 	 -72.8664 	 40.4627 	 125.932
| 14> H 	 -73.7377 	 40.0789 	 126.457
| 15> H 	 -71.8971 	 40.3603 	 126.54
| 16> C 	 -72.782 	 39.6612 	 124.611
| 17> H 	 -71.7977 	 39.8479 	 124.138
| 18> H 	 -72.7497 	 38.6347 	 124.909
| 19> C 	 -73.8291 	 39.8618 	 123.555
| 20> H 	 -73.7676 	 40.8958 	 123.101
| 21> H 	 -73.5459 	 39.2329 	 122.723
| 22> H 	 -74.8518 	 39.5233 	 123.953
| 23> S 	 -71.5113 	 46.2751 	 124.052
| 24> C 	 -70.094 	 47.2752 	 124.315
| 25> C 	 -69.3594 	 46.7463 	 125.35
| 26> C 	 -69.9095 	 45.5672 	 125.954
| 27> C 	 -71.1136 	 45.2711 	 125.37
| 28> H 	 -68.4435 	 47.1798 	 125.568
| 29> C 	 -69.4053 	 44.8924 	 127.164
| 30> H 	 -68.3121 	 44.7472 	 127.207
| 31> H 	 -69.8743 	 43.8904 	 127.198
| 32> C 	 -69.8084 	 45.6464 	 128.476
| 33> H 	 -69.2559 	 46.5914 	 128.479
| 34> H 	 -69.4379 	 45.043 	 129.332
| 35> C 	 -71.3516 	 45.8255 	 128.727
| 36> H 	 -71.8647 	 44.9431 	 128.813
| 37> H 	 -71.8505 	 46.4946 	 127.971
| 38> H 	 -71.5116 	 46.2772 	 129.7
| 39> H 	 -75.0444 	 42.2539 	 126.342
| 40> H 	 -69.7734 	 48.0931 	 123.678
| 41> *
| 42>
| 43>                          ****END OF INPUT****

CARTESIAN COORDINATES (ANGSTROEM)
---------------------------------
  S    -73.817300   44.423700  126.002000
  C    -74.123800   42.693600  125.985000
  C    -72.955600   41.972200  125.859000
  C    -71.838500   42.828300  125.656000
  C    -72.081400   44.204200  125.709000
  H    -70.863500   42.487600  125.477000
  C    -72.866400   40.462700  125.932000
  H    -73.737700   40.078900  126.457000
  H    -71.897100   40.360300  126.540000
  C    -72.782000   39.661200  124.611000
  H    -71.797700   39.847900  124.138000
  H    -72.749700   38.634700  124.909000
  C    -73.829100   39.861800  123.555000
  H    -73.767600   40.895800  123.101000
  H    -73.545900   39.232900  122.723000
  H    -74.851800   39.523300  123.953000
  S    -71.511300   46.275100  124.052000
  C    -70.094000   47.275200  124.315000
  C    -69.359400   46.746300  125.350000
  C    -69.909500   45.567200  125.954000
  C    -71.113600   45.271100  125.370000
  H    -68.443500   47.179800  125.568000
  C    -69.405300   44.892400  127.164000
  H    -68.312100   44.747200  127.207000
  H    -69.874300   43.890400  127.198000
  C    -69.808400   45.646400  128.476000
  H    -69.255900   46.591400  128.479000
  H    -69.437900   45.043000  129.332000
  C    -71.351600   45.825500  128.727000
  H    -71.864700   44.943100  128.813000
  H    -71.850500   46.494600  127.971000
  H    -71.511600   46.277200  129.700000
  H    -75.044400   42.253900  126.342000
  H    -69.773400   48.093100  123.678000

 Total Charge           Charge          ....    0
 Multiplicity           Mult            ....    1
 Number of Electrons    NEL             ....  134
 Basis Dimension        Dim             ....  322

ORBITAL ENERGIES
----------------

  NO   OCC          E(Eh)            E(eV)
   0   2.0000     -88.966613     -2420.9046
   1   2.0000     -88.964103     -2420.8363
   2   2.0000     -10.333631      -281.1924
   3   2.0000     -10.322777      -280.8970
   4   2.0000     -10.315994      -280.7125
   5   2.0000     -10.313018      -280.6315
   6   2.0000     -10.299278      -280.2576
   7   2.0000     -10.299159      -280.2544
   8   2.0000     -10.298119      -280.2261
   9   2.0000     -10.290861      -280.0286
  10   2.0000     -10.290488      -280.0184
  11   2.0000     -10.289784      -279.9993
  12   2.0000     -10.288716      -279.9702
  13   2.0000     -10.285277      -279.8766
  14   2.0000     -10.284323      -279.8507
  15   2.0000     -10.268233      -279.4128
  16   2.0000      -8.080488      -219.8813
  17   2.0000      -8.079661      -219.8587
  18   2.0000      -6.039092      -164.3321
  19   2.0000      -6.038075      -164.3044
  20   2.0000      -6.035001      -164.2207
  21   2.0000      -6.034018      -164.1940
  22   2.0000      -6.031303      -164.1201
  23   2.0000      -6.030492      -164.0980
  24   2.0000      -1.009334       -27.4654
  25   2.0000      -0.984704       -26.7952
  26   2.0000      -0.910102       -24.7651
  27   2.0000      -0.904629       -24.6162
  28   2.0000      -0.869513       -23.6607
  29   2.0000      -0.848445       -23.0874
  30   2.0000      -0.842356       -22.9217
  31   2.0000      -0.815826       -22.1998
  32   2.0000      -0.783294       -21.3145
  33   2.0000      -0.773529       -21.0488
  34   2.0000      -0.704934       -19.1822
  35   2.0000      -0.695107       -18.9148
  36   2.0000      -0.691147       -18.8071
  37   2.0000      -0.662283       -18.0216
  38   2.0000      -0.639679       -17.4065
  39   2.0000      -0.621511       -16.9122
  40   2.0000      -0.595196       -16.1961
  41   2.0000      -0.567467       -15.4416
  42   2.0000      -0.550611       -14.9829
  43   2.0000      -0.547226       -14.8908
  44   2.0000      -0.545959       -14.8563
  45   2.0000      -0.537745       -14.6328
  46   2.0000      -0.516303       -14.0493
  47   2.0000      -0.507787       -13.8176
  48   2.0000      -0.500996       -13.6328
  49   2.0000      -0.494064       -13.4442
  50   2.0000      -0.488110       -13.2821
  51   2.0000      -0.479658       -13.0522
  52   2.0000      -0.468473       -12.7478
  53   2.0000      -0.467439       -12.7196
  54   2.0000      -0.464661       -12.6441
  55   2.0000      -0.440871       -11.9967
  56   2.0000      -0.438257       -11.9256
  57   2.0000      -0.433612       -11.7992
  58   2.0000      -0.430611       -11.7175
  59   2.0000      -0.423380       -11.5208
  60   2.0000      -0.419315       -11.4102
  61   2.0000      -0.416962       -11.3461
  62   2.0000      -0.412080       -11.2133
  63   2.0000      -0.346313        -9.4236
  64   2.0000      -0.330007        -8.9799
  65   2.0000      -0.327714        -8.9176
  66   2.0000      -0.295691        -8.0462
  67   0.0000       0.034397         0.9360
  68   0.0000       0.067978         1.8498
  69   0.0000       0.111290         3.0283
  70   0.0000       0.119643         3.2556
  71   0.0000       0.136075         3.7028

MULLIKEN ATOMIC CHARGES
-----------------------
   0 S :    0.106379
   1 C :   -0.124346
   2 C :   -0.088224
   3 C :    0.059259
   4 C :   -0.168902
   5 H :   -0.008965
   6 C :    0.049939
   7 H :    0.018792
   8 H :    0.045082
   9 C :   -0.067720
  10 H :    0.020997
  11 H :    0.025447
  12 C :   -0.060677
  13 H :    0.056155
  14 H :    0.031459
  15 H :    0.040826
  16 S :    0.117990
  17 C :   -0.097803
  18 C :   -0.011726
  19 C :   -0.018660
  20 C :   -0.171825
  21 H :   -0.011589
  22 C :    0.070856
  23 H :    0.030839
  24 H :    0.016616
  25 C :   -0.091158
  26 H :    0.030244
  27 H :    0.032525
  28 C :   -0.032924
  29 H :    0.017740
  30 H :    0.049667
  31 H :    0.023524
  32 H :    0.050073
  33 H :    0.060111
Sum of atomic charges:    0.0000000

LOEWDIN ATOMIC CHARGES
----------------------
   0 S :    0.395879
   1 C :   -0.195476
   2 C :   -0.069556
   3 C :   -0.057532
   4 C :   -0.186622
   5 H :    0.019129
   6 C :   -0.034136
   7 H :    0.027272
   8 H :    0.044957
   9 C :   -0.047397
  10 H :    0.024060
  11 H :    0.021974
  12 C :   -0.072893
  13 H :    0.037632
  14 H :    0.027364
  15 H :    0.031551
  16 S :    0.425502
  17 C :   -0.185948
  18 C :   -0.059253
  19 C :   -0.061342
  20 C :   -0.209700
  21 H :    0.018391
  22 C :   -0.039226
  23 H :    0.033550
  24 H :    0.031982
  25 C :   -0.033196
  26 H :    0.021136
  27 H :    0.026122
  28 C :   -0.064850
  29 H :    0.012052
  30 H :    0.031608
  31 H :    0.027008
  32 H :    0.027499
  33 H :    0.032460

  Mayer bond orders larger than 0.100000
B(  0-S ,  1-C ) :   1.1424 B(  0-S ,  4-C ) :   1.1486 B(  1-C ,  2-C ) :   1.5964
B(  1-C , 32-H ) :   0.9629 B(  2-C ,  3-C ) :   1.2560 B(  2-C ,  6-C ) :   1.0169
B(  3-C ,  4-C ) :   1.5658 B(  3-C ,  5-H ) :   0.9941 B(  4-C , 20-C ) :   1.0098
B(  6-C ,  7-H ) :   0.9403 B(  6-C ,  8-H ) :   0.9404 B(  6-C ,  9-C ) :   1.0706
B(  9-C , 10-H ) :   0.9522 B(  9-C , 11-H ) :   0.9538 B(  9-C , 12-C ) :   1.0908
B( 12-C , 13-H ) :   0.9683 B( 12-C , 14-H ) :   0.9685 B( 12-C , 15-H ) :   0.9724
B( 16-S , 17-C ) :   1.1439 B( 16-S , 20-C ) :   1.1685 B( 17-C , 18-C ) :   1.6112
B( 17-C , 33-H ) :   0.9702 B( 18-C , 19-C ) :   1.2254 B( 18-C , 21-H ) :   1.0007
B( 19-C , 20-C ) :   1.5876 B( 19-C , 22-C ) :   1.0717 B( 22-C , 23-H ) :   0.9299
B( 22-C , 24-H ) :   0.9189 B( 22-C , 25-C ) :   1.0709 B( 25-C , 26-H ) :   0.9590
B( 25-C , 27-H ) :   0.9569 B( 25-C , 28-C ) :   1.0765 B( 28-C , 29-H ) :   0.9728
B( 28-C , 30-H ) :   0.9741 B( 28-C , 31-H ) :   0.9715

Dispersion correction           -0.015649877
FINAL SINGLE POINT ENERGY     -1339.888495358516

DIPOLE MOMENT
-------------
                                X             Y             Z
Electronic contribution:     -3.72489      16.35700      -8.26016
Nuclear contribution   :      4.12851     -16.82351       8.44975
                        -----------------------------------------
Total Dipole Moment    :      0.40362      -0.46651       0.18959
                        -----------------------------------------
Magnitude (a.u.)       :      0.64535
Magnitude (Debye)      :      1.64036

Rotational constants in cm-1:     0.021957     0.008303     0.007596
Rotational constants in MHz :   658.266630   248.916372   227.721750

                             ****ORCA TERMINATED NORMALLY****
TOTAL RUN TIME: 0 days 0 hours 0 minutes 35 seconds 520 msec
