                         Program Version 4.2.1 -  RELEASE  -
|  1> ! wB97X-D3 SP def2-SVP
|  2> %pal
|  3> nprocs 16
|  4> end
|  5>
|  6> * xyz 0 1
|  7> S 	 59.302 	 -6.57572 	 87.7736
|  8> C 	 59.0751 	 -6.43322 	 89.5684
|  9> C 	 60.051 	 -5.59561 	 90.1575
| 10> C 	 60.9894 	 -5.18943 	 89.1231
| 11> C 	 60.6857 	 -5.49509 	 87.7776
| 12> H 	 61.7765 	 -4.51529 	 89.3132
| 13> C 	 60.3186 	 -5.42675 	 91.679
| 14> H 	 61.123 	 -4.75833 	 91.7016
| 15> H 	 60.4398 	 -6.44042 	 92.089
| 16> C 	 59.2285 	 -4.6913 	 92.4966
| 17> H 	 59.6331 	 -4.22512 	 93.3575
| 18> H 	 59.0202 	 -3.84749 	 91.8834
| 19> C 	 58.0114 	 -5.56247 	 92.915
| 20> H 	 58.1213 	 -6.30291 	 93.717
| 21> H 	 57.2475 	 -4.89408 	 93.251
| 22> H 	 57.5961 	 -5.9068 	 91.9947
| 23> S 	 62.0918 	 -6.55601 	 85.6835
| 24> C 	 62.6084 	 -5.44308 	 84.4378
| 25> C 	 62.5325 	 -4.15926 	 84.8051
| 26> C 	 61.9324 	 -3.93575 	 86.0838
| 27> C 	 61.4303 	 -5.16126 	 86.5747
| 28> H 	 63.0171 	 -3.37665 	 84.208
| 29> C 	 61.7549 	 -2.55664 	 86.6708
| 30> H 	 62.2266 	 -2.63905 	 87.6508
| 31> H 	 60.7199 	 -2.31685 	 86.8897
| 32> C 	 62.4268 	 -1.40531 	 85.927
| 33> H 	 61.7842 	 -1.11761 	 85.0632
| 34> H 	 63.3809 	 -1.76831 	 85.599
| 35> C 	 62.7265 	 -0.153254 	 86.8087
| 36> H 	 61.9 	 0.0548148 	 87.4598
| 37> H 	 63.0642 	 0.780816 	 86.2934
| 38> H 	 63.5353 	 -0.387123 	 87.423
| 39> H 	 58.31 	 -6.96161 	 90.1478
| 40> H 	 63.0291 	 -5.72828 	 83.4761
| 41> *
| 42>
| 43>                          ****END OF INPUT****

CARTESIAN COORDINATES (ANGSTROEM)
---------------------------------
  S     59.302000   -6.575720   87.773600
  C     59.075100   -6.433220   89.568400
  C     60.051000   -5.595610   90.157500
  C     60.989400   -5.189430   89.123100
  C     60.685700   -5.495090   87.777600
  H     61.776500   -4.515290   89.313200
  C     60.318600   -5.426750   91.679000
  H     61.123000   -4.758330   91.701600
  H     60.439800   -6.440420   92.089000
  C     59.228500   -4.691300   92.496600
  H     59.633100   -4.225120   93.357500
  H     59.020200   -3.847490   91.883400
  C     58.011400   -5.562470   92.915000
  H     58.121300   -6.302910   93.717000
  H     57.247500   -4.894080   93.251000
  H     57.596100   -5.906800   91.994700
  S     62.091800   -6.556010   85.683500
  C     62.608400   -5.443080   84.437800
  C     62.532500   -4.159260   84.805100
  C     61.932400   -3.935750   86.083800
  C     61.430300   -5.161260   86.574700
  H     63.017100   -3.376650   84.208000
  C     61.754900   -2.556640   86.670800
  H     62.226600   -2.639050   87.650800
  H     60.719900   -2.316850   86.889700
  C     62.426800   -1.405310   85.927000
  H     61.784200   -1.117610   85.063200
  H     63.380900   -1.768310   85.599000
  C     62.726500   -0.153254   86.808700
  H     61.900000    0.054815   87.459800
  H     63.064200    0.780816   86.293400
  H     63.535300   -0.387123   87.423000
  H     58.310000   -6.961610   90.147800
  H     63.029100   -5.728280   83.476100

 Total Charge           Charge          ....    0
 Multiplicity           Mult            ....    1
 Number of Electrons    NEL             ....  134
 Basis Dimension        Dim             ....  322

ORBITAL ENERGIES
----------------

  NO   OCC          E(Eh)            E(eV)
   0   2.0000     -88.966634     -2420.9052
   1   2.0000     -88.965179     -2420.8656
   2   2.0000     -10.331356      -281.1305
   3   2.0000     -10.329496      -281.0799
   4   2.0000     -10.322390      -280.8865
   5   2.0000     -10.311799      -280.5983
   6   2.0000     -10.309028      -280.5229
   7   2.0000     -10.308640      -280.5124
   8   2.0000     -10.294963      -280.1402
   9   2.0000     -10.294368      -280.1240
  10   2.0000     -10.293419      -280.0982
  11   2.0000     -10.291819      -280.0546
  12   2.0000     -10.288792      -279.9723
  13   2.0000     -10.283092      -279.8171
  14   2.0000     -10.278592      -279.6947
  15   2.0000     -10.277940      -279.6770
  16   2.0000      -8.079961      -219.8669
  17   2.0000      -8.079666      -219.8589
  18   2.0000      -6.038570      -164.3179
  19   2.0000      -6.038212      -164.3081
  20   2.0000      -6.034531      -164.2079
  21   2.0000      -6.034443      -164.2055
  22   2.0000      -6.030820      -164.1070
  23   2.0000      -6.030157      -164.0889
  24   2.0000      -1.000609       -27.2279
  25   2.0000      -0.973856       -26.5000
  26   2.0000      -0.913157       -24.8483
  27   2.0000      -0.909693       -24.7540
  28   2.0000      -0.865959       -23.5639
  29   2.0000      -0.850487       -23.1429
  30   2.0000      -0.840738       -22.8777
  31   2.0000      -0.809242       -22.0206
  32   2.0000      -0.789253       -21.4767
  33   2.0000      -0.776802       -21.1379
  34   2.0000      -0.711423       -19.3588
  35   2.0000      -0.704103       -19.1596
  36   2.0000      -0.698607       -19.0101
  37   2.0000      -0.647242       -17.6123
  38   2.0000      -0.635670       -17.2975
  39   2.0000      -0.614792       -16.7293
  40   2.0000      -0.601448       -16.3662
  41   2.0000      -0.573934       -15.6175
  42   2.0000      -0.569412       -15.4945
  43   2.0000      -0.555654       -15.1201
  44   2.0000      -0.541978       -14.7480
  45   2.0000      -0.524148       -14.2628
  46   2.0000      -0.513467       -13.9721
  47   2.0000      -0.509337       -13.8598
  48   2.0000      -0.504097       -13.7172
  49   2.0000      -0.496144       -13.5008
  50   2.0000      -0.489872       -13.3301
  51   2.0000      -0.476591       -12.9687
  52   2.0000      -0.471528       -12.8309
  53   2.0000      -0.464696       -12.6450
  54   2.0000      -0.463500       -12.6125
  55   2.0000      -0.455428       -12.3928
  56   2.0000      -0.445475       -12.1220
  57   2.0000      -0.439728       -11.9656
  58   2.0000      -0.432997       -11.7825
  59   2.0000      -0.428800       -11.6682
  60   2.0000      -0.424921       -11.5627
  61   2.0000      -0.419867       -11.4252
  62   2.0000      -0.404882       -11.0174
  63   2.0000      -0.339304        -9.2329
  64   2.0000      -0.331034        -9.0079
  65   2.0000      -0.326627        -8.8880
  66   2.0000      -0.290929        -7.9166
  67   0.0000       0.023357         0.6356
  68   0.0000       0.063912         1.7391
  69   0.0000       0.106156         2.8887
  70   0.0000       0.115850         3.1524
  71   0.0000       0.126791         3.4502

MULLIKEN ATOMIC CHARGES
-----------------------
   0 S :    0.107011
   1 C :   -0.145038
   2 C :   -0.106222
   3 C :    0.044661
   4 C :   -0.172797
   5 H :   -0.007763
   6 C :    0.087939
   7 H :    0.007189
   8 H :    0.052908
   9 C :   -0.059629
  10 H :    0.017266
  11 H :    0.016221
  12 C :   -0.028917
  13 H :    0.049705
  14 H :    0.020985
  15 H :    0.011936
  16 S :    0.109546
  17 C :   -0.063301
  18 C :   -0.058288
  19 C :   -0.031170
  20 C :   -0.171930
  21 H :    0.026891
  22 C :    0.082767
  23 H :    0.020974
  24 H :    0.044560
  25 C :   -0.102002
  26 H :    0.046229
  27 H :    0.029796
  28 C :   -0.028523
  29 H :    0.028111
  30 H :    0.042941
  31 H :    0.014547
  32 H :    0.064637
  33 H :    0.048757
Sum of atomic charges:    0.0000000

LOEWDIN ATOMIC CHARGES
----------------------
   0 S :    0.386378
   1 C :   -0.186682
   2 C :   -0.061815
   3 C :   -0.060909
   4 C :   -0.203560
   5 H :    0.016515
   6 C :   -0.019559
   7 H :    0.024445
   8 H :    0.038085
   9 C :   -0.035046
  10 H :    0.017823
  11 H :    0.023571
  12 C :   -0.066294
  13 H :    0.031214
  14 H :    0.027429
  15 H :    0.020407
  16 S :    0.393837
  17 C :   -0.180870
  18 C :   -0.080948
  19 C :   -0.043415
  20 C :   -0.192541
  21 H :    0.036384
  22 C :   -0.034117
  23 H :    0.033595
  24 H :    0.036754
  25 C :   -0.039153
  26 H :    0.029069
  27 H :    0.019706
  28 C :   -0.061868
  29 H :    0.021938
  30 H :    0.034712
  31 H :    0.016798
  32 H :    0.027775
  33 H :    0.030343

  Mayer bond orders larger than 0.100000
B(  0-S ,  1-C ) :   1.1432 B(  0-S ,  4-C ) :   1.1435 B(  1-C ,  2-C ) :   1.5836
B(  1-C ,  4-C ) :   0.1022 B(  1-C , 32-H ) :   0.9613 B(  2-C ,  3-C ) :   1.2657
B(  2-C ,  6-C ) :   1.0163 B(  3-C ,  4-C ) :   1.5639 B(  3-C ,  5-H ) :   0.9874
B(  4-C , 20-C ) :   1.0597 B(  6-C ,  7-H ) :   0.9321 B(  6-C ,  8-H ) :   0.9487
B(  6-C ,  9-C ) :   1.0716 B(  9-C , 10-H ) :   0.9580 B(  9-C , 11-H ) :   0.9541
B(  9-C , 12-C ) :   1.0766 B( 12-C , 13-H ) :   0.9755 B( 12-C , 14-H ) :   0.9667
B( 12-C , 15-H ) :   0.9732 B( 16-S , 17-C ) :   1.1345 B( 16-S , 20-C ) :   1.1441
B( 17-C , 18-C ) :   1.6423 B( 17-C , 33-H ) :   0.9577 B( 18-C , 19-C ) :   1.2393
B( 18-C , 21-H ) :   0.9778 B( 19-C , 20-C ) :   1.5935 B( 19-C , 22-C ) :   1.0277
B( 22-C , 23-H ) :   0.9236 B( 22-C , 24-H ) :   0.9231 B( 22-C , 25-C ) :   1.0870
B( 25-C , 26-H ) :   0.9515 B( 25-C , 27-H ) :   0.9527 B( 25-C , 28-C ) :   1.0779
B( 28-C , 29-H ) :   0.9765 B( 28-C , 30-H ) :   0.9744 B( 28-C , 31-H ) :   0.9739

Dispersion correction           -0.013357925
FINAL SINGLE POINT ENERGY     -1339.855847184368

DIPOLE MOMENT
-------------
                                X             Y             Z
Electronic contribution:      0.55877     -21.41612     -17.92100
Nuclear contribution   :     -0.29822      22.06809      18.35910
                        -----------------------------------------
Total Dipole Moment    :      0.26054       0.65197       0.43810
                        -----------------------------------------
Magnitude (a.u.)       :      0.82757
Magnitude (Debye)      :      2.10353

Rotational constants in cm-1:     0.018706     0.007609     0.005751
Rotational constants in MHz :   560.804885   228.121477   172.406710

                             ****ORCA TERMINATED NORMALLY****
TOTAL RUN TIME: 0 days 0 hours 0 minutes 28 seconds 908 msec
