                         Program Version 4.2.1 -  RELEASE  -
|  1> ! wB97X-D3 SP def2-SVP
|  2> %pal
|  3> nprocs 16
|  4> end
|  5>
|  6> * xyz 0 1
|  7> S 	 38.692 	 9.79231 	 80.2573
|  8> C 	 39.0793 	 8.17017 	 79.833
|  9> C 	 40.2878 	 8.03249 	 79.2712
| 10> C 	 41.0497 	 9.24188 	 79.468
| 11> C 	 40.3337 	 10.2848 	 79.9042
| 12> H 	 42.1142 	 9.42313 	 79.2218
| 13> C 	 40.9183 	 6.78522 	 78.5939
| 14> H 	 40.137 	 6.11242 	 78.5561
| 15> H 	 41.6321 	 6.44229 	 79.3513
| 16> C 	 41.7194 	 6.82699 	 77.2993
| 17> H 	 41.8068 	 5.75309 	 76.9963
| 18> H 	 41.1909 	 7.36772 	 76.5081
| 19> C 	 43.1579 	 7.46936 	 77.4556
| 20> H 	 42.946 	 8.50162 	 77.3525
| 21> H 	 43.7744 	 7.30647 	 78.3704
| 22> H 	 43.7762 	 7.24863 	 76.6094
| 23> S 	 40.0889 	 12.9481 	 79.1648
| 24> C 	 40.7959 	 14.1061 	 80.2433
| 25> C 	 41.5172 	 13.5546 	 81.296
| 26> C 	 41.4279 	 12.164 	 81.3442
| 27> C 	 40.6697 	 11.6658 	 80.2641
| 28> H 	 41.8009 	 14.1602 	 82.2007
| 29> C 	 42.0977 	 11.2784 	 82.3131
| 30> H 	 42.0134 	 10.1849 	 82.0239
| 31> H 	 41.4651 	 11.1477 	 83.2215
| 32> C 	 43.4705 	 11.7832 	 82.8084
| 33> H 	 43.774 	 11.1406 	 83.6737
| 34> H 	 43.4989 	 12.7951 	 83.1595
| 35> C 	 44.5773 	 11.8972 	 81.7264
| 36> H 	 45.4337 	 12.5102 	 82.0923
| 37> H 	 44.1472 	 12.3998 	 80.8013
| 38> H 	 45.0747 	 10.9447 	 81.4416
| 39> H 	 38.2898 	 7.38236 	 79.8364
| 40> H 	 40.4816 	 15.1174 	 80.4165
| 41> *
| 42>
| 43>                          ****END OF INPUT****

CARTESIAN COORDINATES (ANGSTROEM)
---------------------------------
  S     38.692000    9.792310   80.257300
  C     39.079300    8.170170   79.833000
  C     40.287800    8.032490   79.271200
  C     41.049700    9.241880   79.468000
  C     40.333700   10.284800   79.904200
  H     42.114200    9.423130   79.221800
  C     40.918300    6.785220   78.593900
  H     40.137000    6.112420   78.556100
  H     41.632100    6.442290   79.351300
  C     41.719400    6.826990   77.299300
  H     41.806800    5.753090   76.996300
  H     41.190900    7.367720   76.508100
  C     43.157900    7.469360   77.455600
  H     42.946000    8.501620   77.352500
  H     43.774400    7.306470   78.370400
  H     43.776200    7.248630   76.609400
  S     40.088900   12.948100   79.164800
  C     40.795900   14.106100   80.243300
  C     41.517200   13.554600   81.296000
  C     41.427900   12.164000   81.344200
  C     40.669700   11.665800   80.264100
  H     41.800900   14.160200   82.200700
  C     42.097700   11.278400   82.313100
  H     42.013400   10.184900   82.023900
  H     41.465100   11.147700   83.221500
  C     43.470500   11.783200   82.808400
  H     43.774000   11.140600   83.673700
  H     43.498900   12.795100   83.159500
  C     44.577300   11.897200   81.726400
  H     45.433700   12.510200   82.092300
  H     44.147200   12.399800   80.801300
  H     45.074700   10.944700   81.441600
  H     38.289800    7.382360   79.836400
  H     40.481600   15.117400   80.416500

 Total Charge           Charge          ....    0
 Multiplicity           Mult            ....    1
 Number of Electrons    NEL             ....  134
 Basis Dimension        Dim             ....  322

ORBITAL ENERGIES
----------------

  NO   OCC          E(Eh)            E(eV)
   0   2.0000     -88.970294     -2421.0048
   1   2.0000     -88.957385     -2420.6535
   2   2.0000     -10.325748      -280.9779
   3   2.0000     -10.320273      -280.8289
   4   2.0000     -10.313461      -280.6436
   5   2.0000     -10.310271      -280.5567
   6   2.0000     -10.300890      -280.3015
   7   2.0000     -10.299288      -280.2579
   8   2.0000     -10.297915      -280.2205
   9   2.0000     -10.294656      -280.1318
  10   2.0000     -10.293885      -280.1108
  11   2.0000     -10.291208      -280.0380
  12   2.0000     -10.290960      -280.0313
  13   2.0000     -10.289666      -279.9960
  14   2.0000     -10.282204      -279.7930
  15   2.0000     -10.279768      -279.7267
  16   2.0000      -8.084413      -219.9881
  17   2.0000      -8.073457      -219.6899
  18   2.0000      -6.042864      -164.4347
  19   2.0000      -6.039048      -164.3308
  20   2.0000      -6.035246      -164.2274
  21   2.0000      -6.031961      -164.1380
  22   2.0000      -6.027892      -164.0273
  23   2.0000      -6.024021      -163.9220
  24   2.0000      -1.009930       -27.4816
  25   2.0000      -0.987231       -26.8639
  26   2.0000      -0.909095       -24.7377
  27   2.0000      -0.907723       -24.7004
  28   2.0000      -0.869032       -23.6476
  29   2.0000      -0.848131       -23.0788
  30   2.0000      -0.842618       -22.9288
  31   2.0000      -0.816855       -22.2278
  32   2.0000      -0.789149       -21.4738
  33   2.0000      -0.771720       -20.9996
  34   2.0000      -0.707096       -19.2411
  35   2.0000      -0.696011       -18.9394
  36   2.0000      -0.692854       -18.8535
  37   2.0000      -0.649842       -17.6831
  38   2.0000      -0.644928       -17.5494
  39   2.0000      -0.616641       -16.7797
  40   2.0000      -0.599965       -16.3259
  41   2.0000      -0.571081       -15.5399
  42   2.0000      -0.548361       -14.9217
  43   2.0000      -0.544571       -14.8185
  44   2.0000      -0.536224       -14.5914
  45   2.0000      -0.529871       -14.4185
  46   2.0000      -0.521336       -14.1863
  47   2.0000      -0.507866       -13.8197
  48   2.0000      -0.500368       -13.6157
  49   2.0000      -0.495026       -13.4703
  50   2.0000      -0.487102       -13.2547
  51   2.0000      -0.479548       -13.0492
  52   2.0000      -0.467216       -12.7136
  53   2.0000      -0.463360       -12.6087
  54   2.0000      -0.460608       -12.5338
  55   2.0000      -0.448337       -12.1999
  56   2.0000      -0.439568       -11.9613
  57   2.0000      -0.437255       -11.8983
  58   2.0000      -0.432493       -11.7687
  59   2.0000      -0.429307       -11.6820
  60   2.0000      -0.421061       -11.4576
  61   2.0000      -0.413047       -11.2396
  62   2.0000      -0.412152       -11.2152
  63   2.0000      -0.337312        -9.1787
  64   2.0000      -0.331930        -9.0323
  65   2.0000      -0.324727        -8.8363
  66   2.0000      -0.300348        -8.1729
  67   0.0000       0.037727         1.0266
  68   0.0000       0.063642         1.7318
  69   0.0000       0.116025         3.1572
  70   0.0000       0.120345         3.2748
  71   0.0000       0.126188         3.4338

MULLIKEN ATOMIC CHARGES
-----------------------
   0 S :    0.103643
   1 C :   -0.151129
   2 C :   -0.088082
   3 C :    0.019871
   4 C :   -0.177723
   5 H :    0.021644
   6 C :    0.116303
   7 H :   -0.005930
   8 H :    0.034057
   9 C :   -0.079718
  10 H :    0.042162
  11 H :    0.040280
  12 C :   -0.065289
  13 H :    0.030739
  14 H :    0.046160
  15 H :    0.029180
  16 S :    0.126952
  17 C :   -0.067449
  18 C :   -0.092125
  19 C :    0.005193
  20 C :   -0.200131
  21 H :    0.047014
  22 C :    0.062636
  23 H :    0.038370
  24 H :    0.035564
  25 C :   -0.071019
  26 H :    0.035729
  27 H :    0.025891
  28 C :   -0.097118
  29 H :    0.034940
  30 H :    0.058332
  31 H :    0.031492
  32 H :    0.055330
  33 H :    0.054231
Sum of atomic charges:   -0.0000000

LOEWDIN ATOMIC CHARGES
----------------------
   0 S :    0.403473
   1 C :   -0.205089
   2 C :   -0.066720
   3 C :   -0.066377
   4 C :   -0.199800
   5 H :    0.038737
   6 C :   -0.026793
   7 H :    0.016943
   8 H :    0.038455
   9 C :   -0.033712
  10 H :    0.032137
  11 H :    0.027874
  12 C :   -0.072399
  13 H :    0.021311
  14 H :    0.030466
  15 H :    0.025243
  16 S :    0.408172
  17 C :   -0.194017
  18 C :   -0.081679
  19 C :   -0.054538
  20 C :   -0.198429
  21 H :    0.042473
  22 C :   -0.047982
  23 H :    0.043841
  24 H :    0.042472
  25 C :   -0.043917
  26 H :    0.030864
  27 H :    0.022671
  28 C :   -0.079456
  29 H :    0.027305
  30 H :    0.035566
  31 H :    0.021570
  32 H :    0.032351
  33 H :    0.028982

  Mayer bond orders larger than 0.100000
B(  0-S ,  1-C ) :   1.1384 B(  0-S ,  4-C ) :   1.1389 B(  1-C ,  2-C ) :   1.6709
B(  1-C , 32-H ) :   0.9550 B(  2-C ,  3-C ) :   1.1757 B(  2-C ,  6-C ) :   1.0070
B(  3-C ,  4-C ) :   1.6619 B(  3-C ,  5-H ) :   0.9887 B(  4-C , 20-C ) :   0.9889
B(  6-C ,  7-H ) :   0.9347 B(  6-C ,  8-H ) :   0.9353 B(  6-C ,  9-C ) :   1.0705
B(  9-C , 10-H ) :   0.9560 B(  9-C , 11-H ) :   0.9597 B(  9-C , 12-C ) :   1.0606
B( 12-C , 13-H ) :   0.9736 B( 12-C , 14-H ) :   0.9788 B( 12-C , 15-H ) :   0.9702
B( 16-S , 17-C ) :   1.1626 B( 16-S , 20-C ) :   1.1486 B( 17-C , 18-C ) :   1.6127
B( 17-C , 20-C ) :   0.1085 B( 17-C , 33-H ) :   0.9547 B( 18-C , 19-C ) :   1.2715
B( 18-C , 21-H ) :   0.9652 B( 19-C , 20-C ) :   1.5711 B( 19-C , 22-C ) :   1.0537
B( 22-C , 23-H ) :   0.9290 B( 22-C , 24-H ) :   0.9150 B( 22-C , 25-C ) :   1.0674
B( 25-C , 26-H ) :   0.9540 B( 25-C , 27-H ) :   0.9546 B( 25-C , 28-C ) :   1.0647
B( 28-C , 29-H ) :   0.9778 B( 28-C , 30-H ) :   0.9709 B( 28-C , 31-H ) :   0.9768

Dispersion correction           -0.014702866
FINAL SINGLE POINT ENERGY     -1339.859304498593

DIPOLE MOMENT
-------------
                                X             Y             Z
Electronic contribution:    -23.01510      11.80065      -1.20978
Nuclear contribution   :     23.36757     -12.15082       1.38797
                        -----------------------------------------
Total Dipole Moment    :      0.35247      -0.35018       0.17819
                        -----------------------------------------
Magnitude (a.u.)       :      0.52783
Magnitude (Debye)      :      1.34165

Rotational constants in cm-1:     0.017861     0.008975     0.007460
Rotational constants in MHz :   535.452061   269.063334   223.642386

                             ****ORCA TERMINATED NORMALLY****
TOTAL RUN TIME: 0 days 0 hours 0 minutes 30 seconds 726 msec
