                         Program Version 4.2.1 -  RELEASE  -
|  1> ! wB97X-D3 SP def2-SVP
|  2> %pal
|  3> nprocs 16
|  4> end
|  5>
|  6> * xyz 0 1
|  7> S 	 45.5688 	 8.15622 	 80.8864
|  8> C 	 45.1291 	 7.66638 	 82.4697
|  9> C 	 45.2186 	 8.72084 	 83.393
| 10> C 	 45.59 	 9.86678 	 82.7107
| 11> C 	 45.6675 	 9.81393 	 81.3102
| 12> H 	 45.847 	 10.7309 	 83.1741
| 13> C 	 44.955 	 8.70121 	 84.8226
| 14> H 	 44.1014 	 8.03336 	 84.8655
| 15> H 	 44.5562 	 9.63274 	 85.1789
| 16> C 	 46.0899 	 8.32417 	 85.7636
| 17> H 	 46.942 	 9.0319 	 85.4029
| 18> H 	 45.7715 	 8.48328 	 86.8171
| 19> C 	 46.7014 	 6.95817 	 85.546
| 20> H 	 47.1603 	 6.62442 	 84.5709
| 21> H 	 47.4058 	 6.71552 	 86.2881
| 22> H 	 45.9605 	 6.30644 	 85.811
| 23> S 	 46.7991 	 10.4974 	 78.9875
| 24> C 	 46.6599 	 12.1137 	 78.4412
| 25> C 	 46.2325 	 13.0121 	 79.3759
| 26> C 	 45.788 	 12.3396 	 80.5792
| 27> C 	 45.9707 	 10.9245 	 80.414
| 28> H 	 46.2253 	 14.0621 	 79.1635
| 29> C 	 45.1365 	 13.131 	 81.6584
| 30> H 	 44.4147 	 12.4962 	 82.0965
| 31> H 	 44.5119 	 13.8657 	 81.178
| 32> C 	 46.0793 	 13.7768 	 82.6593
| 33> H 	 46.6795 	 13.1338 	 83.2874
| 34> H 	 45.3969 	 14.3263 	 83.3675
| 35> C 	 47.1072 	 14.783 	 82.0281
| 36> H 	 47.7878 	 15.3747 	 82.7104
| 37> H 	 46.5519 	 15.4961 	 81.4693
| 38> H 	 47.655 	 14.3003 	 81.2274
| 39> H 	 44.7987 	 6.66216 	 82.8472
| 40> H 	 46.983 	 12.469 	 77.4986
| 41> *
| 42>
| 43>                          ****END OF INPUT****

CARTESIAN COORDINATES (ANGSTROEM)
---------------------------------
  S     45.568800    8.156220   80.886400
  C     45.129100    7.666380   82.469700
  C     45.218600    8.720840   83.393000
  C     45.590000    9.866780   82.710700
  C     45.667500    9.813930   81.310200
  H     45.847000   10.730900   83.174100
  C     44.955000    8.701210   84.822600
  H     44.101400    8.033360   84.865500
  H     44.556200    9.632740   85.178900
  C     46.089900    8.324170   85.763600
  H     46.942000    9.031900   85.402900
  H     45.771500    8.483280   86.817100
  C     46.701400    6.958170   85.546000
  H     47.160300    6.624420   84.570900
  H     47.405800    6.715520   86.288100
  H     45.960500    6.306440   85.811000
  S     46.799100   10.497400   78.987500
  C     46.659900   12.113700   78.441200
  C     46.232500   13.012100   79.375900
  C     45.788000   12.339600   80.579200
  C     45.970700   10.924500   80.414000
  H     46.225300   14.062100   79.163500
  C     45.136500   13.131000   81.658400
  H     44.414700   12.496200   82.096500
  H     44.511900   13.865700   81.178000
  C     46.079300   13.776800   82.659300
  H     46.679500   13.133800   83.287400
  H     45.396900   14.326300   83.367500
  C     47.107200   14.783000   82.028100
  H     47.787800   15.374700   82.710400
  H     46.551900   15.496100   81.469300
  H     47.655000   14.300300   81.227400
  H     44.798700    6.662160   82.847200
  H     46.983000   12.469000   77.498600

 Total Charge           Charge          ....    0
 Multiplicity           Mult            ....    1
 Number of Electrons    NEL             ....  134
 Basis Dimension        Dim             ....  322

ORBITAL ENERGIES
----------------

  NO   OCC          E(Eh)            E(eV)
   0   2.0000     -88.969913     -2420.9944
   1   2.0000     -88.968388     -2420.9529
   2   2.0000     -10.329171      -281.0710
   3   2.0000     -10.324506      -280.9441
   4   2.0000     -10.314665      -280.6763
   5   2.0000     -10.307001      -280.4678
   6   2.0000     -10.305944      -280.4390
   7   2.0000     -10.296874      -280.1922
   8   2.0000     -10.293784      -280.1081
   9   2.0000     -10.291344      -280.0417
  10   2.0000     -10.290734      -280.0251
  11   2.0000     -10.288042      -279.9519
  12   2.0000     -10.284094      -279.8444
  13   2.0000     -10.278705      -279.6978
  14   2.0000     -10.276783      -279.6455
  15   2.0000     -10.266570      -279.3676
  16   2.0000      -8.085195      -220.0093
  17   2.0000      -8.084713      -219.9962
  18   2.0000      -6.043615      -164.4551
  19   2.0000      -6.043044      -164.4396
  20   2.0000      -6.039523      -164.3438
  21   2.0000      -6.039173      -164.3343
  22   2.0000      -6.036134      -164.2516
  23   2.0000      -6.035419      -164.2321
  24   2.0000      -1.015059       -27.6212
  25   2.0000      -0.992790       -27.0152
  26   2.0000      -0.921915       -25.0866
  27   2.0000      -0.914955       -24.8972
  28   2.0000      -0.870947       -23.6997
  29   2.0000      -0.855338       -23.2749
  30   2.0000      -0.847515       -23.0620
  31   2.0000      -0.815096       -22.1799
  32   2.0000      -0.792261       -21.5585
  33   2.0000      -0.777176       -21.1480
  34   2.0000      -0.712729       -19.3943
  35   2.0000      -0.701361       -19.0850
  36   2.0000      -0.691077       -18.8052
  37   2.0000      -0.665423       -18.1071
  38   2.0000      -0.635181       -17.2842
  39   2.0000      -0.625880       -17.0311
  40   2.0000      -0.599247       -16.3064
  41   2.0000      -0.578236       -15.7346
  42   2.0000      -0.555414       -15.1136
  43   2.0000      -0.550964       -14.9925
  44   2.0000      -0.544534       -14.8175
  45   2.0000      -0.541071       -14.7233
  46   2.0000      -0.524061       -14.2604
  47   2.0000      -0.506670       -13.7872
  48   2.0000      -0.504370       -13.7246
  49   2.0000      -0.498098       -13.5539
  50   2.0000      -0.486451       -13.2370
  51   2.0000      -0.483200       -13.1485
  52   2.0000      -0.475028       -12.9262
  53   2.0000      -0.467591       -12.7238
  54   2.0000      -0.456858       -12.4317
  55   2.0000      -0.455651       -12.3989
  56   2.0000      -0.453262       -12.3339
  57   2.0000      -0.444316       -12.0905
  58   2.0000      -0.433530       -11.7970
  59   2.0000      -0.426104       -11.5949
  60   2.0000      -0.418313       -11.3829
  61   2.0000      -0.416334       -11.3290
  62   2.0000      -0.402270       -10.9463
  63   2.0000      -0.356336        -9.6964
  64   2.0000      -0.334183        -9.0936
  65   2.0000      -0.329210        -8.9583
  66   2.0000      -0.276339        -7.5196
  67   0.0000       0.021311         0.5799
  68   0.0000       0.085620         2.3298
  69   0.0000       0.101859         2.7717
  70   0.0000       0.118916         3.2359
  71   0.0000       0.134899         3.6708

MULLIKEN ATOMIC CHARGES
-----------------------
   0 S :    0.127126
   1 C :   -0.127600
   2 C :   -0.094444
   3 C :    0.034628
   4 C :   -0.121892
   5 H :   -0.061386
   6 C :    0.093158
   7 H :    0.013614
   8 H :    0.013895
   9 C :   -0.087545
  10 H :    0.037060
  11 H :    0.047112
  12 C :   -0.017993
  13 H :    0.056570
  14 H :    0.013914
  15 H :   -0.008404
  16 S :    0.121187
  17 C :   -0.058469
  18 C :   -0.044796
  19 C :   -0.069264
  20 C :   -0.138127
  21 H :    0.013884
  22 C :    0.095106
  23 H :    0.014809
  24 H :    0.022043
  25 C :   -0.063368
  26 H :    0.039814
  27 H :    0.033744
  28 C :   -0.067482
  29 H :    0.052043
  30 H :    0.004427
  31 H :    0.040406
  32 H :    0.056593
  33 H :    0.029638
Sum of atomic charges:   -0.0000000

LOEWDIN ATOMIC CHARGES
----------------------
   0 S :    0.441031
   1 C :   -0.219591
   2 C :   -0.066823
   3 C :   -0.057036
   4 C :   -0.212563
   5 H :    0.007251
   6 C :   -0.038346
   7 H :    0.029908
   8 H :    0.030564
   9 C :   -0.038199
  10 H :    0.034905
  11 H :    0.033016
  12 C :   -0.074109
  13 H :    0.038186
  14 H :    0.023581
  15 H :    0.010657
  16 S :    0.438595
  17 C :   -0.192725
  18 C :   -0.066561
  19 C :   -0.051715
  20 C :   -0.205419
  21 H :    0.030034
  22 C :   -0.034047
  23 H :    0.029267
  24 H :    0.034350
  25 C :   -0.033921
  26 H :    0.020423
  27 H :    0.029264
  28 C :   -0.072366
  29 H :    0.035570
  30 H :    0.014163
  31 H :    0.025486
  32 H :    0.038868
  33 H :    0.018302

  Mayer bond orders larger than 0.100000
B(  0-S ,  1-C ) :   1.1683 B(  0-S ,  4-C ) :   1.1690 B(  1-C ,  2-C ) :   1.5349
B(  1-C ,  4-C ) :   0.1065 B(  1-C , 32-H ) :   0.9572 B(  2-C ,  3-C ) :   1.3238
B(  2-C ,  6-C ) :   1.0252 B(  3-C ,  4-C ) :   1.4854 B(  3-C ,  5-H ) :   1.0109
B(  4-C , 20-C ) :   1.0828 B(  6-C ,  7-H ) :   0.9299 B(  6-C ,  8-H ) :   0.9344
B(  6-C ,  9-C ) :   1.0697 B(  9-C , 10-H ) :   0.9530 B(  9-C , 11-H ) :   0.9535
B(  9-C , 12-C ) :   1.0822 B( 12-C , 13-H ) :   0.9704 B( 12-C , 14-H ) :   0.9645
B( 12-C , 15-H ) :   0.9660 B( 16-S , 17-C ) :   1.1515 B( 16-S , 20-C ) :   1.1628
B( 17-C , 18-C ) :   1.6231 B( 17-C , 33-H ) :   0.9676 B( 18-C , 19-C ) :   1.2357
B( 18-C , 21-H ) :   0.9916 B( 19-C , 20-C ) :   1.5535 B( 19-C , 22-C ) :   1.0397
B( 22-C , 23-H ) :   0.9240 B( 22-C , 24-H ) :   0.9331 B( 22-C , 25-C ) :   1.0686
B( 25-C , 26-H ) :   0.9578 B( 25-C , 27-H ) :   0.9556 B( 25-C , 28-C ) :   1.0662
B( 28-C , 29-H ) :   0.9747 B( 28-C , 30-H ) :   0.9723 B( 28-C , 31-H ) :   0.9702

Dispersion correction           -0.014746828
FINAL SINGLE POINT ENERGY     -1339.850933162669

DIPOLE MOMENT
-------------
                                X             Y             Z
Electronic contribution:     -1.28257      -9.85270     -24.17706
Nuclear contribution   :      1.20055      10.20699      24.68847
                        -----------------------------------------
Total Dipole Moment    :     -0.08202       0.35429       0.51141
                        -----------------------------------------
Magnitude (a.u.)       :      0.62752
Magnitude (Debye)      :      1.59504

Rotational constants in cm-1:     0.020456     0.008753     0.006618
Rotational constants in MHz :   613.254111   262.401580   198.402407

                             ****ORCA TERMINATED NORMALLY****
TOTAL RUN TIME: 0 days 0 hours 0 minutes 31 seconds 100 msec
