                         Program Version 4.2.1 -  RELEASE  -
|  1> ! wB97X-D3 SP def2-SVP
|  2> %pal
|  3> nprocs 16
|  4> end
|  5>
|  6> * xyz 0 1
|  7> S 	 -30.2459 	 31.4884 	 40.7364
|  8> C 	 -28.7887 	 32.202 	 40.1768
|  9> C 	 -27.7862 	 32.2332 	 41.1331
| 10> C 	 -28.3097 	 31.8942 	 42.3983
| 11> C 	 -29.6467 	 31.4284 	 42.3322
| 12> H 	 -27.7863 	 31.7872 	 43.3427
| 13> C 	 -26.3334 	 32.6278 	 40.8941
| 14> H 	 -26.1291 	 33.36 	 41.6909
| 15> H 	 -26.3228 	 33.2321 	 39.9693
| 16> C 	 -25.3653 	 31.4476 	 40.5853
| 17> H 	 -25.8345 	 31.1226 	 39.6233
| 18> H 	 -24.3231 	 31.8381 	 40.3853
| 19> C 	 -25.4492 	 30.3041 	 41.6702
| 20> H 	 -24.7571 	 29.5394 	 41.346
| 21> H 	 -25.1855 	 30.5617 	 42.7077
| 22> H 	 -26.4207 	 29.8527 	 41.7097
| 23> S 	 -31.064 	 29.218 	 43.1376
| 24> C 	 -31.877 	 29.3442 	 44.6649
| 25> C 	 -31.3574 	 30.3285 	 45.5056
| 26> C 	 -30.3518 	 31.1219 	 44.8026
| 27> C 	 -30.3989 	 30.8588 	 43.4447
| 28> H 	 -31.6488 	 30.2625 	 46.5278
| 29> C 	 -29.804 	 32.3924 	 45.3621
| 30> H 	 -30.6685 	 32.9951 	 45.5913
| 31> H 	 -29.1869 	 33.0306 	 44.6292
| 32> C 	 -29.0733 	 32.2394 	 46.6835
| 33> H 	 -29.5383 	 31.4993 	 47.2943
| 34> H 	 -29.1735 	 33.1314 	 47.2708
| 35> C 	 -27.5837 	 31.7303 	 46.5449
| 36> H 	 -26.9525 	 32.4334 	 46.1169
| 37> H 	 -27.5218 	 30.7462 	 46.1344
| 38> H 	 -27.2559 	 31.6676 	 47.62
| 39> H 	 -28.6809 	 32.4578 	 39.1539
| 40> H 	 -32.6918 	 28.6984 	 44.952
| 41> *
| 42>
| 43>                          ****END OF INPUT****

CARTESIAN COORDINATES (ANGSTROEM)
---------------------------------
  S    -30.245900   31.488400   40.736400
  C    -28.788700   32.202000   40.176800
  C    -27.786200   32.233200   41.133100
  C    -28.309700   31.894200   42.398300
  C    -29.646700   31.428400   42.332200
  H    -27.786300   31.787200   43.342700
  C    -26.333400   32.627800   40.894100
  H    -26.129100   33.360000   41.690900
  H    -26.322800   33.232100   39.969300
  C    -25.365300   31.447600   40.585300
  H    -25.834500   31.122600   39.623300
  H    -24.323100   31.838100   40.385300
  C    -25.449200   30.304100   41.670200
  H    -24.757100   29.539400   41.346000
  H    -25.185500   30.561700   42.707700
  H    -26.420700   29.852700   41.709700
  S    -31.064000   29.218000   43.137600
  C    -31.877000   29.344200   44.664900
  C    -31.357400   30.328500   45.505600
  C    -30.351800   31.121900   44.802600
  C    -30.398900   30.858800   43.444700
  H    -31.648800   30.262500   46.527800
  C    -29.804000   32.392400   45.362100
  H    -30.668500   32.995100   45.591300
  H    -29.186900   33.030600   44.629200
  C    -29.073300   32.239400   46.683500
  H    -29.538300   31.499300   47.294300
  H    -29.173500   33.131400   47.270800
  C    -27.583700   31.730300   46.544900
  H    -26.952500   32.433400   46.116900
  H    -27.521800   30.746200   46.134400
  H    -27.255900   31.667600   47.620000
  H    -28.680900   32.457800   39.153900
  H    -32.691800   28.698400   44.952000

 Total Charge           Charge          ....    0
 Multiplicity           Mult            ....    1
 Number of Electrons    NEL             ....  134
 Basis Dimension        Dim             ....  322

ORBITAL ENERGIES
----------------

  NO   OCC          E(Eh)            E(eV)
   0   2.0000     -88.968840     -2420.9652
   1   2.0000     -88.960731     -2420.7445
   2   2.0000     -10.325190      -280.9627
   3   2.0000     -10.324540      -280.9450
   4   2.0000     -10.314724      -280.6779
   5   2.0000     -10.308401      -280.5059
   6   2.0000     -10.305706      -280.4325
   7   2.0000     -10.301977      -280.3310
   8   2.0000     -10.300311      -280.2857
   9   2.0000     -10.296183      -280.1734
  10   2.0000     -10.294041      -280.1151
  11   2.0000     -10.292357      -280.0693
  12   2.0000     -10.289616      -279.9947
  13   2.0000     -10.283052      -279.8161
  14   2.0000     -10.276850      -279.6473
  15   2.0000     -10.275528      -279.6113
  16   2.0000      -8.084704      -219.9960
  17   2.0000      -8.075610      -219.7485
  18   2.0000      -6.042897      -164.4356
  19   2.0000      -6.039004      -164.3296
  20   2.0000      -6.035788      -164.2422
  21   2.0000      -6.034056      -164.1950
  22   2.0000      -6.030594      -164.1008
  23   2.0000      -6.025941      -163.9742
  24   2.0000      -1.009428       -27.4679
  25   2.0000      -0.983967       -26.7751
  26   2.0000      -0.909850       -24.7583
  27   2.0000      -0.906638       -24.6709
  28   2.0000      -0.864509       -23.5245
  29   2.0000      -0.849604       -23.1189
  30   2.0000      -0.842602       -22.9284
  31   2.0000      -0.809438       -22.0259
  32   2.0000      -0.785818       -21.3832
  33   2.0000      -0.774365       -21.0715
  34   2.0000      -0.707061       -19.2401
  35   2.0000      -0.700701       -19.0670
  36   2.0000      -0.691833       -18.8257
  37   2.0000      -0.656533       -17.8652
  38   2.0000      -0.641453       -17.4548
  39   2.0000      -0.612707       -16.6726
  40   2.0000      -0.596376       -16.2282
  41   2.0000      -0.568622       -15.4730
  42   2.0000      -0.554067       -15.0769
  43   2.0000      -0.549842       -14.9620
  44   2.0000      -0.537246       -14.6192
  45   2.0000      -0.531221       -14.4553
  46   2.0000      -0.518128       -14.0990
  47   2.0000      -0.511117       -13.9082
  48   2.0000      -0.496595       -13.5130
  49   2.0000      -0.493019       -13.4157
  50   2.0000      -0.490714       -13.3530
  51   2.0000      -0.478228       -13.0132
  52   2.0000      -0.468636       -12.7522
  53   2.0000      -0.467684       -12.7263
  54   2.0000      -0.461688       -12.5632
  55   2.0000      -0.452255       -12.3065
  56   2.0000      -0.446333       -12.1453
  57   2.0000      -0.434415       -11.8210
  58   2.0000      -0.428879       -11.6704
  59   2.0000      -0.424431       -11.5493
  60   2.0000      -0.421971       -11.4824
  61   2.0000      -0.418454       -11.3867
  62   2.0000      -0.412456       -11.2235
  63   2.0000      -0.343490        -9.3468
  64   2.0000      -0.333815        -9.0836
  65   2.0000      -0.324470        -8.8293
  66   2.0000      -0.283568        -7.7163
  67   0.0000       0.022812         0.6207
  68   0.0000       0.072070         1.9611
  69   0.0000       0.093773         2.5517
  70   0.0000       0.122860         3.3432
  71   0.0000       0.127897         3.4802

MULLIKEN ATOMIC CHARGES
-----------------------
   0 S :    0.137518
   1 C :   -0.114308
   2 C :   -0.103867
   3 C :    0.019287
   4 C :   -0.182204
   5 H :    0.012136
   6 C :    0.056766
   7 H :    0.035748
   8 H :    0.016741
   9 C :   -0.075160
  10 H :    0.033817
  11 H :    0.051731
  12 C :   -0.056159
  13 H :    0.031761
  14 H :    0.036374
  15 H :    0.048923
  16 S :    0.084047
  17 C :   -0.083137
  18 C :   -0.031981
  19 C :   -0.008281
  20 C :   -0.129857
  21 H :    0.019023
  22 C :    0.016331
  23 H :    0.034691
  24 H :    0.044458
  25 C :   -0.071726
  26 H :    0.012573
  27 H :    0.020555
  28 C :   -0.041822
  29 H :    0.024526
  30 H :    0.044424
  31 H :    0.031185
  32 H :    0.033185
  33 H :    0.052700
Sum of atomic charges:   -0.0000000

LOEWDIN ATOMIC CHARGES
----------------------
   0 S :    0.450760
   1 C :   -0.205875
   2 C :   -0.064068
   3 C :   -0.062978
   4 C :   -0.219079
   5 H :    0.030244
   6 C :   -0.039877
   7 H :    0.029461
   8 H :    0.030280
   9 C :   -0.036690
  10 H :    0.032040
  11 H :    0.031960
  12 C :   -0.070383
  13 H :    0.025979
  14 H :    0.026140
  15 H :    0.027503
  16 S :    0.373274
  17 C :   -0.178557
  18 C :   -0.067828
  19 C :   -0.055990
  20 C :   -0.175122
  21 H :    0.029244
  22 C :   -0.042190
  23 H :    0.035227
  24 H :    0.039032
  25 C :   -0.036176
  26 H :    0.018948
  27 H :    0.021982
  28 C :   -0.059771
  29 H :    0.011446
  30 H :    0.024763
  31 H :    0.034347
  32 H :    0.017575
  33 H :    0.024378

  Mayer bond orders larger than 0.100000
B(  0-S ,  1-C ) :   1.1643 B(  0-S ,  4-C ) :   1.1868 B(  1-C ,  2-C ) :   1.5687
B(  1-C ,  4-C ) :   0.1012 B(  1-C , 32-H ) :   0.9721 B(  2-C ,  3-C ) :   1.2858
B(  2-C ,  6-C ) :   1.0088 B(  3-C ,  4-C ) :   1.5149 B(  3-C ,  5-H ) :   0.9881
B(  4-C , 20-C ) :   1.0574 B(  6-C ,  7-H ) :   0.9460 B(  6-C ,  8-H ) :   0.9455
B(  6-C ,  9-C ) :   1.0445 B(  9-C , 10-H ) :   0.9544 B(  9-C , 11-H ) :   0.9603
B(  9-C , 12-C ) :   1.0738 B( 12-C , 13-H ) :   0.9747 B( 12-C , 14-H ) :   0.9781
B( 12-C , 15-H ) :   0.9691 B( 16-S , 17-C ) :   1.1389 B( 16-S , 20-C ) :   1.1223
B( 17-C , 18-C ) :   1.6608 B( 17-C , 33-H ) :   0.9671 B( 18-C , 19-C ) :   1.1592
B( 18-C , 21-H ) :   0.9920 B( 19-C , 20-C ) :   1.6112 B( 19-C , 22-C ) :   1.0556
B( 22-C , 23-H ) :   0.9332 B( 22-C , 24-H ) :   0.9472 B( 22-C , 25-C ) :   1.0660
B( 25-C , 26-H ) :   0.9576 B( 25-C , 27-H ) :   0.9555 B( 25-C , 28-C ) :   1.0763
B( 28-C , 29-H ) :   0.9765 B( 28-C , 30-H ) :   0.9748 B( 28-C , 31-H ) :   0.9737

Dispersion correction           -0.015155535
FINAL SINGLE POINT ENERGY     -1339.860113983480

DIPOLE MOMENT
-------------
                                X             Y             Z
Electronic contribution:    -22.79083      -6.57280     -11.43740
Nuclear contribution   :     23.18129       6.75054      11.75556
                        -----------------------------------------
Total Dipole Moment    :      0.39046       0.17774       0.31816
                        -----------------------------------------
Magnitude (a.u.)       :      0.53412
Magnitude (Debye)      :      1.35761

Rotational constants in cm-1:     0.017776     0.009920     0.007638
Rotational constants in MHz :   532.916493   297.404254   228.971148

                             ****ORCA TERMINATED NORMALLY****
TOTAL RUN TIME: 0 days 0 hours 0 minutes 35 seconds 645 msec
