                         Program Version 4.2.1 -  RELEASE  -
|  1> ! wB97X-D3 SP def2-SVP
|  2> %pal
|  3> nprocs 16
|  4> end
|  5>
|  6> * xyz 0 1
|  7> S 	 1.11975 	 -13.899 	 80.1194
|  8> C 	 1.08079 	 -14.7508 	 81.6705
|  9> C 	 1.84413 	 -14.1563 	 82.609
| 10> C 	 2.24407 	 -12.8396 	 82.1419
| 11> C 	 2.05567 	 -12.5761 	 80.775
| 12> H 	 2.68987 	 -12.0418 	 82.7266
| 13> C 	 2.05407 	 -14.6085 	 84.061
| 14> H 	 3.12015 	 -14.6926 	 84.1417
| 15> H 	 1.66646 	 -15.5904 	 84.3126
| 16> C 	 1.59312 	 -13.7247 	 85.2129
| 17> H 	 2.13469 	 -12.813 	 85.0228
| 18> H 	 0.493981 	 -13.5837 	 85.1949
| 19> C 	 1.92018 	 -14.2753 	 86.6275
| 20> H 	 1.55734 	 -13.5024 	 87.3334
| 21> H 	 1.4113 	 -15.2287 	 86.7745
| 22> H 	 3.03897 	 -14.4186 	 86.8197
| 23> S 	 1.07287 	 -10.7099 	 79.0561
| 24> C 	 2.10025 	 -9.39933 	 78.4852
| 25> C 	 3.35883 	 -9.48747 	 79.0699
| 26> C 	 3.52737 	 -10.6356 	 79.8376
| 27> C 	 2.37632 	 -11.3864 	 80.0035
| 28> H 	 4.12998 	 -8.72531 	 78.7716
| 29> C 	 4.87386 	 -10.9749 	 80.4412
| 30> H 	 4.85831 	 -11.2914 	 81.4612
| 31> H 	 5.36992 	 -10.0411 	 80.614
| 32> C 	 5.84071 	 -11.979 	 79.6824
| 33> H 	 5.74859 	 -11.6792 	 78.658
| 34> H 	 5.63746 	 -13.0268 	 79.6954
| 35> C 	 7.28451 	 -11.7706 	 80.1104
| 36> H 	 7.39628 	 -12.2026 	 81.0861
| 37> H 	 7.47629 	 -10.7484 	 80.3654
| 38> H 	 8.07404 	 -12.2017 	 79.4786
| 39> H 	 0.685293 	 -15.7232 	 81.8059
| 40> H 	 1.75192 	 -8.64568 	 77.8625
| 41> *
| 42>
| 43>                          ****END OF INPUT****

CARTESIAN COORDINATES (ANGSTROEM)
---------------------------------
  S      1.119750  -13.899000   80.119400
  C      1.080790  -14.750800   81.670500
  C      1.844130  -14.156300   82.609000
  C      2.244070  -12.839600   82.141900
  C      2.055670  -12.576100   80.775000
  H      2.689870  -12.041800   82.726600
  C      2.054070  -14.608500   84.061000
  H      3.120150  -14.692600   84.141700
  H      1.666460  -15.590400   84.312600
  C      1.593120  -13.724700   85.212900
  H      2.134690  -12.813000   85.022800
  H      0.493981  -13.583700   85.194900
  C      1.920180  -14.275300   86.627500
  H      1.557340  -13.502400   87.333400
  H      1.411300  -15.228700   86.774500
  H      3.038970  -14.418600   86.819700
  S      1.072870  -10.709900   79.056100
  C      2.100250   -9.399330   78.485200
  C      3.358830   -9.487470   79.069900
  C      3.527370  -10.635600   79.837600
  C      2.376320  -11.386400   80.003500
  H      4.129980   -8.725310   78.771600
  C      4.873860  -10.974900   80.441200
  H      4.858310  -11.291400   81.461200
  H      5.369920  -10.041100   80.614000
  C      5.840710  -11.979000   79.682400
  H      5.748590  -11.679200   78.658000
  H      5.637460  -13.026800   79.695400
  C      7.284510  -11.770600   80.110400
  H      7.396280  -12.202600   81.086100
  H      7.476290  -10.748400   80.365400
  H      8.074040  -12.201700   79.478600
  H      0.685293  -15.723200   81.805900
  H      1.751920   -8.645680   77.862500

 Total Charge           Charge          ....    0
 Multiplicity           Mult            ....    1
 Number of Electrons    NEL             ....  134
 Basis Dimension        Dim             ....  322

ORBITAL ENERGIES
----------------

  NO   OCC          E(Eh)            E(eV)
   0   2.0000     -88.966705     -2420.9071
   1   2.0000     -88.963555     -2420.8214
   2   2.0000     -10.331973      -281.1473
   3   2.0000     -10.328118      -281.0424
   4   2.0000     -10.316908      -280.7374
   5   2.0000     -10.310749      -280.5697
   6   2.0000     -10.304250      -280.3929
   7   2.0000     -10.303331      -280.3679
   8   2.0000     -10.298478      -280.2358
   9   2.0000     -10.297280      -280.2032
  10   2.0000     -10.291425      -280.0439
  11   2.0000     -10.290178      -280.0100
  12   2.0000     -10.288897      -279.9751
  13   2.0000     -10.288483      -279.9639
  14   2.0000     -10.281198      -279.7656
  15   2.0000     -10.271109      -279.4911
  16   2.0000      -8.081458      -219.9077
  17   2.0000      -8.078165      -219.8180
  18   2.0000      -6.039817      -164.3518
  19   2.0000      -6.036782      -164.2692
  20   2.0000      -6.035843      -164.2436
  21   2.0000      -6.032693      -164.1579
  22   2.0000      -6.032477      -164.1520
  23   2.0000      -6.028791      -164.0517
  24   2.0000      -1.008132       -27.4327
  25   2.0000      -0.985193       -26.8085
  26   2.0000      -0.912776       -24.8379
  27   2.0000      -0.905256       -24.6333
  28   2.0000      -0.873562       -23.7708
  29   2.0000      -0.855290       -23.2736
  30   2.0000      -0.841048       -22.8861
  31   2.0000      -0.813677       -22.1413
  32   2.0000      -0.782948       -21.3051
  33   2.0000      -0.774994       -21.0887
  34   2.0000      -0.711664       -19.3653
  35   2.0000      -0.702703       -19.1215
  36   2.0000      -0.693193       -18.8627
  37   2.0000      -0.665937       -18.1211
  38   2.0000      -0.643635       -17.5142
  39   2.0000      -0.619296       -16.8519
  40   2.0000      -0.602781       -16.4025
  41   2.0000      -0.571749       -15.5581
  42   2.0000      -0.567630       -15.4460
  43   2.0000      -0.556749       -15.1499
  44   2.0000      -0.526943       -14.3389
  45   2.0000      -0.522914       -14.2292
  46   2.0000      -0.521523       -14.1914
  47   2.0000      -0.508857       -13.8467
  48   2.0000      -0.504832       -13.7372
  49   2.0000      -0.503703       -13.7065
  50   2.0000      -0.495307       -13.4780
  51   2.0000      -0.479391       -13.0449
  52   2.0000      -0.470809       -12.8114
  53   2.0000      -0.461657       -12.5623
  54   2.0000      -0.457680       -12.4541
  55   2.0000      -0.449274       -12.2254
  56   2.0000      -0.447515       -12.1775
  57   2.0000      -0.441491       -12.0136
  58   2.0000      -0.432810       -11.7774
  59   2.0000      -0.422339       -11.4924
  60   2.0000      -0.420018       -11.4293
  61   2.0000      -0.415257       -11.2997
  62   2.0000      -0.409161       -11.1338
  63   2.0000      -0.349339        -9.5060
  64   2.0000      -0.336096        -9.1456
  65   2.0000      -0.328087        -8.9277
  66   2.0000      -0.292852        -7.9689
  67   0.0000       0.025688         0.6990
  68   0.0000       0.073319         1.9951
  69   0.0000       0.111349         3.0300
  70   0.0000       0.118673         3.2293
  71   0.0000       0.140997         3.8367

MULLIKEN ATOMIC CHARGES
-----------------------
   0 S :    0.098539
   1 C :   -0.109402
   2 C :   -0.043808
   3 C :    0.005806
   4 C :   -0.145907
   5 H :    0.016035
   6 C :    0.070814
   7 H :    0.022810
   8 H :    0.006144
   9 C :   -0.086841
  10 H :    0.026142
  11 H :    0.043217
  12 C :   -0.082474
  13 H :    0.049432
  14 H :    0.039768
  15 H :    0.042046
  16 S :    0.106941
  17 C :   -0.077604
  18 C :   -0.054169
  19 C :   -0.014102
  20 C :   -0.152713
  21 H :    0.043362
  22 C :    0.065491
  23 H :    0.004964
  24 H :    0.000603
  25 C :   -0.022503
  26 H :    0.016697
  27 H :    0.036554
  28 C :   -0.046784
  29 H :    0.011704
  30 H :    0.010586
  31 H :    0.046247
  32 H :    0.035680
  33 H :    0.036726
Sum of atomic charges:    0.0000000

LOEWDIN ATOMIC CHARGES
----------------------
   0 S :    0.390659
   1 C :   -0.179083
   2 C :   -0.060952
   3 C :   -0.062369
   4 C :   -0.195732
   5 H :    0.026326
   6 C :   -0.032747
   7 H :    0.030435
   8 H :    0.023790
   9 C :   -0.040682
  10 H :    0.019232
  11 H :    0.029665
  12 C :   -0.069707
  13 H :    0.033573
  14 H :    0.024083
  15 H :    0.031014
  16 S :    0.412476
  17 C :   -0.168325
  18 C :   -0.074718
  19 C :   -0.061437
  20 C :   -0.197511
  21 H :    0.044530
  22 C :   -0.029213
  23 H :    0.023726
  24 H :    0.027518
  25 C :   -0.029590
  26 H :    0.019029
  27 H :    0.024575
  28 C :   -0.068224
  29 H :    0.021893
  30 H :    0.019165
  31 H :    0.030802
  32 H :    0.022525
  33 H :    0.015277

  Mayer bond orders larger than 0.100000
B(  0-S ,  1-C ) :   1.1252 B(  0-S ,  4-C ) :   1.1391 B(  1-C ,  2-C ) :   1.6502
B(  1-C , 32-H ) :   0.9665 B(  2-C ,  3-C ) :   1.1988 B(  2-C ,  6-C ) :   1.0214
B(  3-C ,  4-C ) :   1.6053 B(  3-C ,  5-H ) :   0.9856 B(  4-C , 20-C ) :   1.0502
B(  6-C ,  7-H ) :   0.9303 B(  6-C ,  8-H ) :   0.9476 B(  6-C ,  9-C ) :   1.0673
B(  9-C , 10-H ) :   0.9510 B(  9-C , 11-H ) :   0.9565 B(  9-C , 12-C ) :   1.0837
B( 12-C , 13-H ) :   0.9741 B( 12-C , 14-H ) :   0.9748 B( 12-C , 15-H ) :   0.9747
B( 16-S , 17-C ) :   1.1677 B( 16-S , 20-C ) :   1.1524 B( 17-C , 18-C ) :   1.5761
B( 17-C , 20-C ) :   0.1109 B( 17-C , 33-H ) :   0.9785 B( 18-C , 19-C ) :   1.2724
B( 18-C , 21-H ) :   0.9821 B( 19-C , 20-C ) :   1.5690 B( 19-C , 22-C ) :   1.0494
B( 22-C , 23-H ) :   0.9299 B( 22-C , 24-H ) :   0.9324 B( 22-C , 25-C ) :   1.0428
B( 25-C , 26-H ) :   0.9581 B( 25-C , 27-H ) :   0.9601 B( 25-C , 28-C ) :   1.0787
B( 28-C , 29-H ) :   0.9726 B( 28-C , 30-H ) :   0.9734 B( 28-C , 31-H ) :   0.9736

Dispersion correction           -0.013304589
FINAL SINGLE POINT ENERGY     -1339.872948812424

DIPOLE MOMENT
-------------
                                X             Y             Z
Electronic contribution:    -19.27477       3.93800     -21.24178
Nuclear contribution   :     19.71461      -3.82656      21.73571
                        -----------------------------------------
Total Dipole Moment    :      0.43984       0.11144       0.49392
                        -----------------------------------------
Magnitude (a.u.)       :      0.67070
Magnitude (Debye)      :      1.70478

Rotational constants in cm-1:     0.016968     0.008005     0.006510
Rotational constants in MHz :   508.699648   239.985558   195.161311

                             ****ORCA TERMINATED NORMALLY****
TOTAL RUN TIME: 0 days 0 hours 0 minutes 33 seconds 589 msec
