                         Program Version 4.2.1 -  RELEASE  -
|  1> ! wB97X-D3 SP def2-SVP
|  2> %pal
|  3> nprocs 16
|  4> end
|  5>
|  6> * xyz 0 1
|  7> S 	 -93.1664 	 52.5044 	 128.827
|  8> C 	 -91.6253 	 52.0109 	 128.143
|  9> C 	 -91.4977 	 52.1495 	 126.818
| 10> C 	 -92.771 	 52.5117 	 126.289
| 11> C 	 -93.7377 	 52.6781 	 127.251
| 12> H 	 -93.0309 	 52.6071 	 125.262
| 13> C 	 -90.3707 	 51.7927 	 125.907
| 14> H 	 -89.5495 	 51.4254 	 126.536
| 15> H 	 -90.0727 	 52.7731 	 125.481
| 16> C 	 -90.6568 	 50.708 	 124.872
| 17> H 	 -91.1405 	 51.1579 	 124.035
| 18> H 	 -89.7157 	 50.4284 	 124.392
| 19> C 	 -91.495 	 49.4903 	 125.384
| 20> H 	 -91.7594 	 48.884 	 124.534
| 21> H 	 -91.0289 	 48.9186 	 126.132
| 22> H 	 -92.3728 	 49.7853 	 125.928
| 23> S 	 -96.0527 	 54.0966 	 127.932
| 24> C 	 -97.41 	 54.0289 	 126.971
| 25> C 	 -97.2154 	 53.1813 	 125.874
| 26> C 	 -95.9992 	 52.4858 	 125.95
| 27> C 	 -95.1668 	 52.9319 	 126.979
| 28> H 	 -97.9959 	 52.9803 	 125.085
| 29> C 	 -95.6014 	 51.4697 	 124.904
| 30> H 	 -96.423 	 50.7074 	 124.871
| 31> H 	 -94.7274 	 50.9641 	 125.191
| 32> C 	 -95.3741 	 52.0968 	 123.509
| 33> H 	 -94.8874 	 53.0296 	 123.68
| 34> H 	 -96.3713 	 52.493 	 123.115
| 35> C 	 -94.8389 	 51.1816 	 122.436
| 36> H 	 -94.501 	 51.8009 	 121.547
| 37> H 	 -95.6501 	 50.4766 	 122.102
| 38> H 	 -93.8659 	 50.7003 	 122.83
| 39> H 	 -90.7955 	 51.7 	 128.81
| 40> H 	 -98.2218 	 54.6851 	 126.996
| 41> *
| 42>
| 43>                          ****END OF INPUT****

CARTESIAN COORDINATES (ANGSTROEM)
---------------------------------
  S    -93.166400   52.504400  128.827000
  C    -91.625300   52.010900  128.143000
  C    -91.497700   52.149500  126.818000
  C    -92.771000   52.511700  126.289000
  C    -93.737700   52.678100  127.251000
  H    -93.030900   52.607100  125.262000
  C    -90.370700   51.792700  125.907000
  H    -89.549500   51.425400  126.536000
  H    -90.072700   52.773100  125.481000
  C    -90.656800   50.708000  124.872000
  H    -91.140500   51.157900  124.035000
  H    -89.715700   50.428400  124.392000
  C    -91.495000   49.490300  125.384000
  H    -91.759400   48.884000  124.534000
  H    -91.028900   48.918600  126.132000
  H    -92.372800   49.785300  125.928000
  S    -96.052700   54.096600  127.932000
  C    -97.410000   54.028900  126.971000
  C    -97.215400   53.181300  125.874000
  C    -95.999200   52.485800  125.950000
  C    -95.166800   52.931900  126.979000
  H    -97.995900   52.980300  125.085000
  C    -95.601400   51.469700  124.904000
  H    -96.423000   50.707400  124.871000
  H    -94.727400   50.964100  125.191000
  C    -95.374100   52.096800  123.509000
  H    -94.887400   53.029600  123.680000
  H    -96.371300   52.493000  123.115000
  C    -94.838900   51.181600  122.436000
  H    -94.501000   51.800900  121.547000
  H    -95.650100   50.476600  122.102000
  H    -93.865900   50.700300  122.830000
  H    -90.795500   51.700000  128.810000
  H    -98.221800   54.685100  126.996000

 Total Charge           Charge          ....    0
 Multiplicity           Mult            ....    1
 Number of Electrons    NEL             ....  134
 Basis Dimension        Dim             ....  322

ORBITAL ENERGIES
----------------

  NO   OCC          E(Eh)            E(eV)
   0   2.0000     -88.965845     -2420.8837
   1   2.0000     -88.965803     -2420.8826
   2   2.0000     -10.324167      -280.9349
   3   2.0000     -10.323906      -280.9278
   4   2.0000     -10.310113      -280.5524
   5   2.0000     -10.309091      -280.5246
   6   2.0000     -10.297878      -280.2195
   7   2.0000     -10.295364      -280.1511
   8   2.0000     -10.295248      -280.1479
   9   2.0000     -10.294725      -280.1337
  10   2.0000     -10.293810      -280.1088
  11   2.0000     -10.289696      -279.9969
  12   2.0000     -10.287732      -279.9434
  13   2.0000     -10.287438      -279.9354
  14   2.0000     -10.285987      -279.8959
  15   2.0000     -10.273254      -279.5495
  16   2.0000      -8.082151      -219.9265
  17   2.0000      -8.082084      -219.9247
  18   2.0000      -6.040415      -164.3681
  19   2.0000      -6.040378      -164.3670
  20   2.0000      -6.036672      -164.2662
  21   2.0000      -6.036236      -164.2543
  22   2.0000      -6.033317      -164.1749
  23   2.0000      -6.032668      -164.1572
  24   2.0000      -1.017125       -27.6774
  25   2.0000      -0.996429       -27.1142
  26   2.0000      -0.917920       -24.9779
  27   2.0000      -0.911984       -24.8163
  28   2.0000      -0.868118       -23.6227
  29   2.0000      -0.855778       -23.2869
  30   2.0000      -0.845766       -23.0145
  31   2.0000      -0.812277       -22.1032
  32   2.0000      -0.790338       -21.5062
  33   2.0000      -0.775831       -21.1114
  34   2.0000      -0.714605       -19.4454
  35   2.0000      -0.696465       -18.9518
  36   2.0000      -0.695755       -18.9325
  37   2.0000      -0.659689       -17.9511
  38   2.0000      -0.637755       -17.3542
  39   2.0000      -0.625154       -17.0113
  40   2.0000      -0.599989       -16.3265
  41   2.0000      -0.563237       -15.3265
  42   2.0000      -0.561928       -15.2909
  43   2.0000      -0.560984       -15.2651
  44   2.0000      -0.541157       -14.7256
  45   2.0000      -0.522680       -14.2229
  46   2.0000      -0.517599       -14.0846
  47   2.0000      -0.509450       -13.8628
  48   2.0000      -0.506491       -13.7823
  49   2.0000      -0.497275       -13.5315
  50   2.0000      -0.490950       -13.3594
  51   2.0000      -0.488483       -13.2923
  52   2.0000      -0.472740       -12.8639
  53   2.0000      -0.467500       -12.7213
  54   2.0000      -0.457756       -12.4562
  55   2.0000      -0.456505       -12.4221
  56   2.0000      -0.448163       -12.1951
  57   2.0000      -0.444083       -12.0841
  58   2.0000      -0.433141       -11.7864
  59   2.0000      -0.430021       -11.7015
  60   2.0000      -0.421116       -11.4591
  61   2.0000      -0.413750       -11.2587
  62   2.0000      -0.408907       -11.1269
  63   2.0000      -0.351827        -9.5737
  64   2.0000      -0.334252        -9.0955
  65   2.0000      -0.331795        -9.0286
  66   2.0000      -0.287720        -7.8293
  67   0.0000       0.034387         0.9357
  68   0.0000       0.079227         2.1559
  69   0.0000       0.109626         2.9831
  70   0.0000       0.117836         3.2065
  71   0.0000       0.127567         3.4713

MULLIKEN ATOMIC CHARGES
-----------------------
   0 S :    0.119520
   1 C :   -0.157034
   2 C :   -0.069624
   3 C :   -0.005756
   4 C :   -0.119512
   5 H :   -0.018091
   6 C :    0.087983
   7 H :    0.016609
   8 H :    0.046543
   9 C :   -0.068708
  10 H :    0.013000
  11 H :    0.027833
  12 C :   -0.021373
  13 H :    0.038301
  14 H :    0.016853
  15 H :    0.044410
  16 S :    0.119644
  17 C :   -0.055305
  18 C :   -0.081844
  19 C :   -0.064478
  20 C :   -0.140659
  21 H :    0.039623
  22 C :    0.099699
  23 H :    0.030574
  24 H :   -0.003715
  25 C :   -0.111081
  26 H :    0.028183
  27 H :    0.021091
  28 C :   -0.062924
  29 H :    0.045955
  30 H :    0.055496
  31 H :    0.042497
  32 H :    0.046506
  33 H :    0.039783
Sum of atomic charges:   -0.0000000

LOEWDIN ATOMIC CHARGES
----------------------
   0 S :    0.420955
   1 C :   -0.195605
   2 C :   -0.067762
   3 C :   -0.061941
   4 C :   -0.204676
   5 H :    0.023168
   6 C :   -0.031116
   7 H :    0.029541
   8 H :    0.041988
   9 C :   -0.038691
  10 H :    0.016780
  11 H :    0.028505
  12 C :   -0.058521
  13 H :    0.027979
  14 H :    0.020575
  15 H :    0.028007
  16 S :    0.446601
  17 C :   -0.207282
  18 C :   -0.079416
  19 C :   -0.060341
  20 C :   -0.206378
  21 H :    0.039915
  22 C :   -0.028657
  23 H :    0.034756
  24 H :    0.016415
  25 C :   -0.053814
  26 H :    0.017388
  27 H :    0.027061
  28 C :   -0.076573
  29 H :    0.035368
  30 H :    0.035925
  31 H :    0.031058
  32 H :    0.028203
  33 H :    0.020587

  Mayer bond orders larger than 0.100000
B(  0-S ,  1-C ) :   1.1252 B(  0-S ,  4-C ) :   1.1636 B(  1-C ,  2-C ) :   1.6520
B(  1-C , 32-H ) :   0.9561 B(  2-C ,  3-C ) :   1.1970 B(  2-C ,  6-C ) :   1.0242
B(  3-C ,  4-C ) :   1.5854 B(  3-C ,  5-H ) :   1.0095 B(  4-C , 20-C ) :   1.0126
B(  6-C ,  7-H ) :   0.9388 B(  6-C ,  8-H ) :   0.9314 B(  6-C ,  9-C ) :   1.0706
B(  9-C , 10-H ) :   0.9495 B(  9-C , 11-H ) :   0.9536 B(  9-C , 12-C ) :   1.0722
B( 12-C , 13-H ) :   0.9746 B( 12-C , 14-H ) :   0.9731 B( 12-C , 15-H ) :   0.9651
B( 16-S , 17-C ) :   1.1998 B( 16-S , 20-C ) :   1.1580 B( 17-C , 18-C ) :   1.5475
B( 17-C , 20-C ) :   0.1037 B( 17-C , 33-H ) :   0.9726 B( 18-C , 19-C ) :   1.2969
B( 18-C , 21-H ) :   0.9819 B( 19-C , 20-C ) :   1.5567 B( 19-C , 22-C ) :   1.0579
B( 22-C , 23-H ) :   0.9256 B( 22-C , 24-H ) :   0.9311 B( 22-C , 25-C ) :   1.0527
B( 25-C , 26-H ) :   0.9552 B( 25-C , 27-H ) :   0.9448 B( 25-C , 28-C ) :   1.0823
B( 28-C , 29-H ) :   0.9710 B( 28-C , 30-H ) :   0.9710 B( 28-C , 31-H ) :   0.9710

Dispersion correction           -0.016175878
FINAL SINGLE POINT ENERGY     -1339.881582304265

DIPOLE MOMENT
-------------
                                X             Y             Z
Electronic contribution:     -9.28433      15.18247      26.21903
Nuclear contribution   :      9.46268     -15.38296     -26.89234
                        -----------------------------------------
Total Dipole Moment    :      0.17835      -0.20049      -0.67331
                        -----------------------------------------
Magnitude (a.u.)       :      0.72481
Magnitude (Debye)      :      1.84233

Rotational constants in cm-1:     0.017439     0.011379     0.007374
Rotational constants in MHz :   522.820705   341.145392   221.076160

                             ****ORCA TERMINATED NORMALLY****
TOTAL RUN TIME: 0 days 0 hours 0 minutes 36 seconds 861 msec
