                         Program Version 4.2.1 -  RELEASE  -
|  1> ! wB97X-D3 SP def2-SVP
|  2> %pal
|  3> nprocs 16
|  4> end
|  5>
|  6> * xyz 0 1
|  7> S 	 -35.7598 	 24.4256 	 78.7837
|  8> C 	 -37.3419 	 25.1127 	 78.435
|  9> C 	 -37.9357 	 24.4025 	 77.4091
| 10> C 	 -37.2239 	 23.1998 	 77.0719
| 11> C 	 -36.0495 	 22.9976 	 77.7792
| 12> H 	 -37.4137 	 22.4351 	 76.3289
| 13> C 	 -39.1555 	 24.9147 	 76.6597
| 14> H 	 -39.127 	 24.1693 	 75.8435
| 15> H 	 -38.9814 	 25.9663 	 76.2071
| 16> C 	 -40.4913 	 24.8747 	 77.5007
| 17> H 	 -41.3028 	 24.6419 	 76.8314
| 18> H 	 -40.3928 	 24.0635 	 78.2391
| 19> C 	 -40.8469 	 26.1339 	 78.1905
| 20> H 	 -40.0689 	 26.3788 	 78.9087
| 21> H 	 -40.9258 	 27.0073 	 77.5237
| 22> H 	 -41.7144 	 26.0224 	 78.7865
| 23> S 	 -33.5962 	 22.5205 	 76.9054
| 24> C 	 -33.0127 	 20.9495 	 76.6548
| 25> C 	 -33.9786 	 20.0012 	 76.7285
| 26> C 	 -35.1769 	 20.5539 	 77.2902
| 27> C 	 -35.1014 	 21.9228 	 77.5465
| 28> H 	 -33.6248 	 18.9444 	 76.4558
| 29> C 	 -36.3423 	 19.6675 	 77.6839
| 30> H 	 -36.0002 	 18.6601 	 77.3758
| 31> H 	 -37.2805 	 19.9789 	 77.1598
| 32> C 	 -36.5809 	 19.3556 	 79.1578
| 33> H 	 -36.437 	 20.2857 	 79.7027
| 34> H 	 -35.746 	 18.6025 	 79.2993
| 35> C 	 -38.0048 	 18.6957 	 79.3998
| 36> H 	 -38.0353 	 18.0012 	 80.2011
| 37> H 	 -38.254 	 18.1242 	 78.5104
| 38> H 	 -38.7819 	 19.4721 	 79.5695
| 39> H 	 -37.6565 	 26.0974 	 78.7211
| 40> H 	 -32.0503 	 20.6027 	 76.394
| 41> *
| 42>
| 43>                          ****END OF INPUT****

CARTESIAN COORDINATES (ANGSTROEM)
---------------------------------
  S    -35.759800   24.425600   78.783700
  C    -37.341900   25.112700   78.435000
  C    -37.935700   24.402500   77.409100
  C    -37.223900   23.199800   77.071900
  C    -36.049500   22.997600   77.779200
  H    -37.413700   22.435100   76.328900
  C    -39.155500   24.914700   76.659700
  H    -39.127000   24.169300   75.843500
  H    -38.981400   25.966300   76.207100
  C    -40.491300   24.874700   77.500700
  H    -41.302800   24.641900   76.831400
  H    -40.392800   24.063500   78.239100
  C    -40.846900   26.133900   78.190500
  H    -40.068900   26.378800   78.908700
  H    -40.925800   27.007300   77.523700
  H    -41.714400   26.022400   78.786500
  S    -33.596200   22.520500   76.905400
  C    -33.012700   20.949500   76.654800
  C    -33.978600   20.001200   76.728500
  C    -35.176900   20.553900   77.290200
  C    -35.101400   21.922800   77.546500
  H    -33.624800   18.944400   76.455800
  C    -36.342300   19.667500   77.683900
  H    -36.000200   18.660100   77.375800
  H    -37.280500   19.978900   77.159800
  C    -36.580900   19.355600   79.157800
  H    -36.437000   20.285700   79.702700
  H    -35.746000   18.602500   79.299300
  C    -38.004800   18.695700   79.399800
  H    -38.035300   18.001200   80.201100
  H    -38.254000   18.124200   78.510400
  H    -38.781900   19.472100   79.569500
  H    -37.656500   26.097400   78.721100
  H    -32.050300   20.602700   76.394000

 Total Charge           Charge          ....    0
 Multiplicity           Mult            ....    1
 Number of Electrons    NEL             ....  134
 Basis Dimension        Dim             ....  322

ORBITAL ENERGIES
----------------

  NO   OCC          E(Eh)            E(eV)
   0   2.0000     -88.966050     -2420.8893
   1   2.0000     -88.963566     -2420.8217
   2   2.0000     -10.332473      -281.1609
   3   2.0000     -10.326519      -280.9989
   4   2.0000     -10.314260      -280.6653
   5   2.0000     -10.308857      -280.5183
   6   2.0000     -10.307215      -280.4736
   7   2.0000     -10.303693      -280.3777
   8   2.0000     -10.301780      -280.3257
   9   2.0000     -10.297647      -280.2132
  10   2.0000     -10.296600      -280.1847
  11   2.0000     -10.290171      -280.0098
  12   2.0000     -10.289586      -279.9939
  13   2.0000     -10.286376      -279.9065
  14   2.0000     -10.280202      -279.7385
  15   2.0000     -10.274128      -279.5732
  16   2.0000      -8.080202      -219.8735
  17   2.0000      -8.079759      -219.8614
  18   2.0000      -6.038798      -164.3241
  19   2.0000      -6.038151      -164.3064
  20   2.0000      -6.034733      -164.2134
  21   2.0000      -6.034039      -164.1945
  22   2.0000      -6.030946      -164.1104
  23   2.0000      -6.030541      -164.0994
  24   2.0000      -1.013416       -27.5765
  25   2.0000      -0.987259       -26.8647
  26   2.0000      -0.911223       -24.7956
  27   2.0000      -0.907637       -24.6980
  28   2.0000      -0.876738       -23.8573
  29   2.0000      -0.851238       -23.1634
  30   2.0000      -0.845877       -23.0175
  31   2.0000      -0.818118       -22.2621
  32   2.0000      -0.780170       -21.2295
  33   2.0000      -0.772493       -21.0206
  34   2.0000      -0.711235       -19.3537
  35   2.0000      -0.698645       -19.0111
  36   2.0000      -0.686457       -18.6794
  37   2.0000      -0.660561       -17.9748
  38   2.0000      -0.643096       -17.4995
  39   2.0000      -0.614843       -16.7307
  40   2.0000      -0.589121       -16.0308
  41   2.0000      -0.575523       -15.6608
  42   2.0000      -0.568792       -15.4776
  43   2.0000      -0.549251       -14.9459
  44   2.0000      -0.537155       -14.6167
  45   2.0000      -0.521575       -14.1928
  46   2.0000      -0.516245       -14.0478
  47   2.0000      -0.511176       -13.9098
  48   2.0000      -0.505084       -13.7440
  49   2.0000      -0.503381       -13.6977
  50   2.0000      -0.492066       -13.3898
  51   2.0000      -0.483553       -13.1582
  52   2.0000      -0.478607       -13.0235
  53   2.0000      -0.463043       -12.6000
  54   2.0000      -0.461699       -12.5635
  55   2.0000      -0.444106       -12.0847
  56   2.0000      -0.443245       -12.0613
  57   2.0000      -0.433981       -11.8092
  58   2.0000      -0.431454       -11.7405
  59   2.0000      -0.426824       -11.6145
  60   2.0000      -0.418737       -11.3944
  61   2.0000      -0.407700       -11.0941
  62   2.0000      -0.406198       -11.0532
  63   2.0000      -0.348220        -9.4755
  64   2.0000      -0.330260        -8.9868
  65   2.0000      -0.327944        -8.9238
  66   2.0000      -0.296661        -8.0726
  67   0.0000       0.024743         0.6733
  68   0.0000       0.067537         1.8378
  69   0.0000       0.107958         2.9377
  70   0.0000       0.120565         3.2807
  71   0.0000       0.135609         3.6901

MULLIKEN ATOMIC CHARGES
-----------------------
   0 S :    0.102629
   1 C :   -0.098691
   2 C :   -0.110980
   3 C :    0.035582
   4 C :   -0.166710
   5 H :    0.016436
   6 C :    0.021972
   7 H :    0.024266
   8 H :    0.055508
   9 C :   -0.050753
  10 H :    0.028589
  11 H :    0.036360
  12 C :   -0.028720
  13 H :    0.011471
  14 H :    0.032492
  15 H :    0.028938
  16 S :    0.111920
  17 C :   -0.051323
  18 C :   -0.079520
  19 C :   -0.063619
  20 C :   -0.124021
  21 H :    0.049280
  22 C :    0.023712
  23 H :    0.012773
  24 H :    0.038973
  25 C :   -0.073749
  26 H :    0.043287
  27 H :    0.033100
  28 C :   -0.042702
  29 H :    0.029490
  30 H :    0.025304
  31 H :    0.047740
  32 H :    0.051719
  33 H :    0.029245
Sum of atomic charges:   -0.0000000

LOEWDIN ATOMIC CHARGES
----------------------
   0 S :    0.393978
   1 C :   -0.191490
   2 C :   -0.067849
   3 C :   -0.064472
   4 C :   -0.198795
   5 H :    0.032852
   6 C :   -0.037340
   7 H :    0.032445
   8 H :    0.041056
   9 C :   -0.038951
  10 H :    0.022446
  11 H :    0.029693
  12 C :   -0.063953
  13 H :    0.021154
  14 H :    0.026438
  15 H :    0.024627
  16 S :    0.435803
  17 C :   -0.193841
  18 C :   -0.086708
  19 C :   -0.057327
  20 C :   -0.201921
  21 H :    0.050055
  22 C :   -0.045139
  23 H :    0.030233
  24 H :    0.027692
  25 C :   -0.037178
  26 H :    0.021866
  27 H :    0.030713
  28 C :   -0.062600
  29 H :    0.020705
  30 H :    0.023936
  31 H :    0.033345
  32 H :    0.025266
  33 H :    0.023261

  Mayer bond orders larger than 0.100000
B(  0-S ,  1-C ) :   1.1356 B(  0-S ,  4-C ) :   1.1472 B(  1-C ,  2-C ) :   1.6005
B(  1-C , 32-H ) :   0.9675 B(  2-C ,  3-C ) :   1.2415 B(  2-C ,  6-C ) :   1.0132
B(  3-C ,  4-C ) :   1.5766 B(  3-C ,  5-H ) :   0.9899 B(  4-C , 20-C ) :   1.0354
B(  6-C ,  7-H ) :   0.9432 B(  6-C ,  8-H ) :   0.9461 B(  6-C ,  9-C ) :   1.0420
B(  9-C , 10-H ) :   0.9566 B(  9-C , 11-H ) :   0.9576 B(  9-C , 12-C ) :   1.0923
B( 12-C , 13-H ) :   0.9699 B( 12-C , 14-H ) :   0.9727 B( 12-C , 15-H ) :   0.9670
B( 16-S , 17-C ) :   1.1720 B( 16-S , 20-C ) :   1.1450 B( 17-C , 18-C ) :   1.6333
B( 17-C , 33-H ) :   0.9633 B( 18-C , 19-C ) :   1.2426 B( 18-C , 21-H ) :   0.9789
B( 19-C , 20-C ) :   1.5841 B( 19-C , 22-C ) :   1.0458 B( 22-C , 23-H ) :   0.9439
B( 22-C , 24-H ) :   0.9357 B( 22-C , 25-C ) :   1.0411 B( 25-C , 26-H ) :   0.9663
B( 25-C , 27-H ) :   0.9657 B( 25-C , 28-C ) :   1.0646 B( 28-C , 29-H ) :   0.9774
B( 28-C , 30-H ) :   0.9753 B( 28-C , 31-H ) :   0.9768

Dispersion correction           -0.013837317
FINAL SINGLE POINT ENERGY     -1339.852437314566

DIPOLE MOMENT
-------------
                                X             Y             Z
Electronic contribution:     25.81913       7.00368      -2.92185
Nuclear contribution   :    -26.23984      -7.28670       2.61507
                        -----------------------------------------
Total Dipole Moment    :     -0.42070      -0.28302      -0.30678
                        -----------------------------------------
Magnitude (a.u.)       :      0.59262
Magnitude (Debye)      :      1.50633

Rotational constants in cm-1:     0.019106     0.008222     0.006487
Rotational constants in MHz :   572.769315   246.492829   194.481421

                             ****ORCA TERMINATED NORMALLY****
TOTAL RUN TIME: 0 days 0 hours 0 minutes 29 seconds 581 msec
