                         Program Version 4.2.1 -  RELEASE  -
|  1> ! wB97X-D3 SP def2-SVP
|  2> %pal
|  3> nprocs 16
|  4> end
|  5>
|  6> * xyz 0 1
|  7> S 	 -40.9205 	 27.7571 	 83.675
|  8> C 	 -41.3027 	 28.6172 	 82.2295
|  9> C 	 -41.038 	 27.9368 	 81.0878
| 10> C 	 -40.3487 	 26.7305 	 81.4607
| 11> C 	 -40.2084 	 26.4616 	 82.7973
| 12> H 	 -39.989 	 26.0978 	 80.7559
| 13> C 	 -41.1014 	 28.5123 	 79.6887
| 14> H 	 -40.1799 	 28.2728 	 79.0496
| 15> H 	 -41.0896 	 29.6068 	 79.6674
| 16> C 	 -42.3022 	 27.9807 	 78.7425
| 17> H 	 -42.1616 	 28.4308 	 77.7279
| 18> H 	 -42.0569 	 26.9397 	 78.5919
| 19> C 	 -43.6562 	 28.2696 	 79.3191
| 20> H 	 -43.8682 	 27.729 	 80.2014
| 21> H 	 -43.7298 	 29.3154 	 79.598
| 22> H 	 -44.4885 	 28.0758 	 78.6458
| 23> S 	 -40.4803 	 24.2308 	 84.1901
| 24> C 	 -39.0502 	 23.1982 	 84.5087
| 25> C 	 -37.8984 	 23.7935 	 83.9851
| 26> C 	 -38.1574 	 25.0466 	 83.3713
| 27> C 	 -39.5345 	 25.4298 	 83.4711
| 28> H 	 -36.8968 	 23.3684 	 84.1022
| 29> C 	 -37.0357 	 25.856 	 82.6972
| 30> H 	 -37.5447 	 26.3471 	 81.8673
| 31> H 	 -36.4008 	 25.0705 	 82.2424
| 32> C 	 -36.2635 	 27.0048 	 83.5821
| 33> H 	 -36.9778 	 27.7561 	 83.9655
| 34> H 	 -35.494 	 27.4804 	 82.907
| 35> C 	 -35.4132 	 26.3466 	 84.6923
| 36> H 	 -35.9143 	 25.6946 	 85.3276
| 37> H 	 -34.9425 	 27.0023 	 85.3895
| 38> H 	 -34.638 	 25.7032 	 84.2913
| 39> H 	 -41.7582 	 29.5889 	 82.237
| 40> H 	 -39.0264 	 22.2634 	 85.0028
| 41> *
| 42>
| 43>                          ****END OF INPUT****

CARTESIAN COORDINATES (ANGSTROEM)
---------------------------------
  S    -40.920500   27.757100   83.675000
  C    -41.302700   28.617200   82.229500
  C    -41.038000   27.936800   81.087800
  C    -40.348700   26.730500   81.460700
  C    -40.208400   26.461600   82.797300
  H    -39.989000   26.097800   80.755900
  C    -41.101400   28.512300   79.688700
  H    -40.179900   28.272800   79.049600
  H    -41.089600   29.606800   79.667400
  C    -42.302200   27.980700   78.742500
  H    -42.161600   28.430800   77.727900
  H    -42.056900   26.939700   78.591900
  C    -43.656200   28.269600   79.319100
  H    -43.868200   27.729000   80.201400
  H    -43.729800   29.315400   79.598000
  H    -44.488500   28.075800   78.645800
  S    -40.480300   24.230800   84.190100
  C    -39.050200   23.198200   84.508700
  C    -37.898400   23.793500   83.985100
  C    -38.157400   25.046600   83.371300
  C    -39.534500   25.429800   83.471100
  H    -36.896800   23.368400   84.102200
  C    -37.035700   25.856000   82.697200
  H    -37.544700   26.347100   81.867300
  H    -36.400800   25.070500   82.242400
  C    -36.263500   27.004800   83.582100
  H    -36.977800   27.756100   83.965500
  H    -35.494000   27.480400   82.907000
  C    -35.413200   26.346600   84.692300
  H    -35.914300   25.694600   85.327600
  H    -34.942500   27.002300   85.389500
  H    -34.638000   25.703200   84.291300
  H    -41.758200   29.588900   82.237000
  H    -39.026400   22.263400   85.002800

 Total Charge           Charge          ....    0
 Multiplicity           Mult            ....    1
 Number of Electrons    NEL             ....  134
 Basis Dimension        Dim             ....  322

ORBITAL ENERGIES
----------------

  NO   OCC          E(Eh)            E(eV)
   0   2.0000     -88.969897     -2420.9940
   1   2.0000     -88.962496     -2420.7926
   2   2.0000     -10.320477      -280.8345
   3   2.0000     -10.320017      -280.8219
   4   2.0000     -10.319240      -280.8008
   5   2.0000     -10.309219      -280.5281
   6   2.0000     -10.305163      -280.4177
   7   2.0000     -10.303627      -280.3759
   8   2.0000     -10.301539      -280.3191
   9   2.0000     -10.299607      -280.2665
  10   2.0000     -10.297970      -280.2220
  11   2.0000     -10.296645      -280.1860
  12   2.0000     -10.291347      -280.0418
  13   2.0000     -10.286010      -279.8966
  14   2.0000     -10.269757      -279.4543
  15   2.0000     -10.266206      -279.3577
  16   2.0000      -8.084733      -219.9968
  17   2.0000      -8.078677      -219.8320
  18   2.0000      -6.043166      -164.4429
  19   2.0000      -6.039035      -164.3305
  20   2.0000      -6.037040      -164.2762
  21   2.0000      -6.035748      -164.2411
  22   2.0000      -6.032927      -164.1643
  23   2.0000      -6.029557      -164.0726
  24   2.0000      -1.015358       -27.6293
  25   2.0000      -0.986268       -26.8377
  26   2.0000      -0.906851       -24.6767
  27   2.0000      -0.892504       -24.2863
  28   2.0000      -0.875621       -23.8269
  29   2.0000      -0.849157       -23.1067
  30   2.0000      -0.847195       -23.0533
  31   2.0000      -0.815322       -22.1860
  32   2.0000      -0.783992       -21.3335
  33   2.0000      -0.768926       -20.9235
  34   2.0000      -0.714945       -19.4546
  35   2.0000      -0.699048       -19.0221
  36   2.0000      -0.692656       -18.8481
  37   2.0000      -0.663548       -18.0560
  38   2.0000      -0.648187       -17.6381
  39   2.0000      -0.625315       -17.0157
  40   2.0000      -0.583646       -15.8818
  41   2.0000      -0.568972       -15.4825
  42   2.0000      -0.548615       -14.9286
  43   2.0000      -0.547080       -14.8868
  44   2.0000      -0.541261       -14.7284
  45   2.0000      -0.532034       -14.4774
  46   2.0000      -0.521439       -14.1891
  47   2.0000      -0.507247       -13.8029
  48   2.0000      -0.505983       -13.7685
  49   2.0000      -0.495632       -13.4868
  50   2.0000      -0.488997       -13.3063
  51   2.0000      -0.475367       -12.9354
  52   2.0000      -0.475041       -12.9265
  53   2.0000      -0.465654       -12.6711
  54   2.0000      -0.461906       -12.5691
  55   2.0000      -0.443940       -12.0802
  56   2.0000      -0.441796       -12.0219
  57   2.0000      -0.433428       -11.7942
  58   2.0000      -0.429686       -11.6924
  59   2.0000      -0.427148       -11.6233
  60   2.0000      -0.422182       -11.4882
  61   2.0000      -0.420102       -11.4316
  62   2.0000      -0.415402       -11.3037
  63   2.0000      -0.344620        -9.3776
  64   2.0000      -0.329934        -8.9780
  65   2.0000      -0.325194        -8.8490
  66   2.0000      -0.297796        -8.1034
  67   0.0000       0.037934         1.0322
  68   0.0000       0.060589         1.6487
  69   0.0000       0.110755         3.0138
  70   0.0000       0.120716         3.2848
  71   0.0000       0.125326         3.4103

MULLIKEN ATOMIC CHARGES
-----------------------
   0 S :    0.116238
   1 C :   -0.124501
   2 C :   -0.026789
   3 C :    0.077925
   4 C :   -0.174083
   5 H :   -0.039133
   6 C :   -0.024873
   7 H :    0.040327
   8 H :    0.030902
   9 C :   -0.077900
  10 H :    0.034036
  11 H :    0.027038
  12 C :   -0.017747
  13 H :    0.031465
  14 H :    0.017603
  15 H :    0.032559
  16 S :    0.129784
  17 C :   -0.090231
  18 C :   -0.036634
  19 C :   -0.054373
  20 C :   -0.152041
  21 H :    0.027359
  22 C :    0.054882
  23 H :    0.023051
  24 H :    0.030242
  25 C :   -0.055468
  26 H :    0.051943
  27 H :    0.045485
  28 C :   -0.029917
  29 H :    0.009387
  30 H :    0.023995
  31 H :    0.015209
  32 H :    0.039581
  33 H :    0.044679
Sum of atomic charges:   -0.0000000

LOEWDIN ATOMIC CHARGES
----------------------
   0 S :    0.426029
   1 C :   -0.188547
   2 C :   -0.071844
   3 C :   -0.041158
   4 C :   -0.215302
   5 H :    0.009900
   6 C :   -0.035847
   7 H :    0.039458
   8 H :    0.027132
   9 C :   -0.039629
  10 H :    0.027701
  11 H :    0.019226
  12 C :   -0.067574
  13 H :    0.023281
  14 H :    0.024798
  15 H :    0.027903
  16 S :    0.437775
  17 C :   -0.177129
  18 C :   -0.069197
  19 C :   -0.055065
  20 C :   -0.236057
  21 H :    0.035209
  22 C :   -0.035108
  23 H :    0.029203
  24 H :    0.033128
  25 C :   -0.028129
  26 H :    0.031010
  27 H :    0.032783
  28 C :   -0.071205
  29 H :    0.014162
  30 H :    0.023411
  31 H :    0.024160
  32 H :    0.023222
  33 H :    0.022298

  Mayer bond orders larger than 0.100000
B(  0-S ,  1-C ) :   1.1637 B(  0-S ,  4-C ) :   1.1410 B(  1-C ,  2-C ) :   1.6064
B(  1-C , 32-H ) :   0.9651 B(  2-C ,  3-C ) :   1.2369 B(  2-C ,  6-C ) :   1.0159
B(  3-C ,  4-C ) :   1.5920 B(  3-C ,  5-H ) :   1.0161 B(  4-C , 20-C ) :   1.0138
B(  6-C ,  7-H ) :   0.9513 B(  6-C ,  8-H ) :   0.9546 B(  6-C ,  9-C ) :   1.0563
B(  9-C , 10-H ) :   0.9570 B(  9-C , 11-H ) :   0.9606 B(  9-C , 12-C ) :   1.0767
B( 12-C , 13-H ) :   0.9716 B( 12-C , 14-H ) :   0.9730 B( 12-C , 15-H ) :   0.9727
B( 16-S , 17-C ) :   1.1605 B( 16-S , 20-C ) :   1.1843 B( 17-C , 18-C ) :   1.5703
B( 17-C , 20-C ) :   0.1151 B( 17-C , 33-H ) :   0.9744 B( 18-C , 19-C ) :   1.2902
B( 18-C , 21-H ) :   0.9832 B( 19-C , 20-C ) :   1.5328 B( 19-C , 22-C ) :   1.0303
B( 22-C , 23-H ) :   0.9306 B( 22-C , 24-H ) :   0.9431 B( 22-C , 25-C ) :   1.0507
B( 25-C , 26-H ) :   0.9599 B( 25-C , 27-H ) :   0.9588 B( 25-C , 28-C ) :   1.0644
B( 28-C , 29-H ) :   0.9752 B( 28-C , 30-H ) :   0.9730 B( 28-C , 31-H ) :   0.9749

Dispersion correction           -0.014695865
FINAL SINGLE POINT ENERGY     -1339.868278736649

DIPOLE MOMENT
-------------
                                X             Y             Z
Electronic contribution:     -8.48727      -8.73986      14.78546
Nuclear contribution   :      8.83794       8.80104     -15.22803
                        -----------------------------------------
Total Dipole Moment    :      0.35067       0.06118      -0.44257
                        -----------------------------------------
Magnitude (a.u.)       :      0.56797
Magnitude (Debye)      :      1.44365

Rotational constants in cm-1:     0.022057     0.007695     0.006808
Rotational constants in MHz :   661.260853   230.676669   204.112364

                             ****ORCA TERMINATED NORMALLY****
TOTAL RUN TIME: 0 days 0 hours 0 minutes 29 seconds 926 msec
