                         Program Version 4.2.1 -  RELEASE  -
|  1> ! wB97X-D3 SP def2-SVP
|  2> %pal
|  3> nprocs 16
|  4> end
|  5>
|  6> * xyz 0 1
|  7> S 	 -55.461 	 44.0183 	 114.709
|  8> C 	 -55.7437 	 44.3271 	 113.006
|  9> C 	 -55.4552 	 43.2595 	 112.22
| 10> C 	 -55.0794 	 42.0955 	 113.079
| 11> C 	 -55.1362 	 42.3161 	 114.448
| 12> H 	 -54.7384 	 41.1128 	 112.737
| 13> C 	 -55.4929 	 43.0971 	 110.726
| 14> H 	 -55.9471 	 42.1279 	 110.491
| 15> H 	 -54.4888 	 42.9544 	 110.31
| 16> C 	 -56.1144 	 44.2677 	 109.943
| 17> H 	 -57.17 	 44.3765 	 110.242
| 18> H 	 -55.576 	 45.2229 	 110.085
| 19> C 	 -55.9526 	 44.1269 	 108.451
| 20> H 	 -54.9022 	 43.9368 	 108.016
| 21> H 	 -56.5294 	 43.3491 	 107.989
| 22> H 	 -56.3871 	 45.0736 	 107.951
| 23> S 	 -53.9029 	 42.118 	 116.925
| 24> C 	 -53.978 	 40.5899 	 117.844
| 25> C 	 -54.6232 	 39.6516 	 117.112
| 26> C 	 -55.0762 	 40.1093 	 115.814
| 27> C 	 -54.811 	 41.4547 	 115.556
| 28> H 	 -54.6839 	 38.6222 	 117.559
| 29> C 	 -55.8381 	 39.1543 	 114.904
| 30> H 	 -55.3066 	 38.2304 	 114.83
| 31> H 	 -55.6895 	 39.5521 	 113.897
| 32> C 	 -57.3304 	 38.9753 	 115.2
| 33> H 	 -57.1699 	 38.8936 	 116.325
| 34> H 	 -57.8801 	 38.0736 	 114.844
| 35> C 	 -58.1427 	 40.2217 	 114.945
| 36> H 	 -59.2029 	 40.0575 	 115.34
| 37> H 	 -58.1582 	 40.4733 	 113.909
| 38> H 	 -57.7205 	 41.1241 	 115.379
| 39> H 	 -56.0564 	 45.2399 	 112.648
| 40> H 	 -53.6649 	 40.5318 	 118.891
| 41> *
| 42>
| 43>                          ****END OF INPUT****

CARTESIAN COORDINATES (ANGSTROEM)
---------------------------------
  S    -55.461000   44.018300  114.709000
  C    -55.743700   44.327100  113.006000
  C    -55.455200   43.259500  112.220000
  C    -55.079400   42.095500  113.079000
  C    -55.136200   42.316100  114.448000
  H    -54.738400   41.112800  112.737000
  C    -55.492900   43.097100  110.726000
  H    -55.947100   42.127900  110.491000
  H    -54.488800   42.954400  110.310000
  C    -56.114400   44.267700  109.943000
  H    -57.170000   44.376500  110.242000
  H    -55.576000   45.222900  110.085000
  C    -55.952600   44.126900  108.451000
  H    -54.902200   43.936800  108.016000
  H    -56.529400   43.349100  107.989000
  H    -56.387100   45.073600  107.951000
  S    -53.902900   42.118000  116.925000
  C    -53.978000   40.589900  117.844000
  C    -54.623200   39.651600  117.112000
  C    -55.076200   40.109300  115.814000
  C    -54.811000   41.454700  115.556000
  H    -54.683900   38.622200  117.559000
  C    -55.838100   39.154300  114.904000
  H    -55.306600   38.230400  114.830000
  H    -55.689500   39.552100  113.897000
  C    -57.330400   38.975300  115.200000
  H    -57.169900   38.893600  116.325000
  H    -57.880100   38.073600  114.844000
  C    -58.142700   40.221700  114.945000
  H    -59.202900   40.057500  115.340000
  H    -58.158200   40.473300  113.909000
  H    -57.720500   41.124100  115.379000
  H    -56.056400   45.239900  112.648000
  H    -53.664900   40.531800  118.891000

 Total Charge           Charge          ....    0
 Multiplicity           Mult            ....    1
 Number of Electrons    NEL             ....  134
 Basis Dimension        Dim             ....  322

ORBITAL ENERGIES
----------------

  NO   OCC          E(Eh)            E(eV)
   0   2.0000     -88.963582     -2420.8221
   1   2.0000     -88.963427     -2420.8179
   2   2.0000     -10.334579      -281.2182
   3   2.0000     -10.333996      -281.2023
   4   2.0000     -10.321747      -280.8690
   5   2.0000     -10.311180      -280.5815
   6   2.0000     -10.309403      -280.5331
   7   2.0000     -10.308547      -280.5098
   8   2.0000     -10.301958      -280.3305
   9   2.0000     -10.300550      -280.2922
  10   2.0000     -10.298273      -280.2303
  11   2.0000     -10.294789      -280.1354
  12   2.0000     -10.289953      -280.0039
  13   2.0000     -10.288702      -279.9698
  14   2.0000     -10.287577      -279.9392
  15   2.0000     -10.269960      -279.4598
  16   2.0000      -8.078390      -219.8242
  17   2.0000      -8.077806      -219.8083
  18   2.0000      -6.037133      -164.2787
  19   2.0000      -6.036494      -164.2614
  20   2.0000      -6.032929      -164.1643
  21   2.0000      -6.032369      -164.1491
  22   2.0000      -6.028801      -164.0520
  23   2.0000      -6.028395      -164.0410
  24   2.0000      -1.005836       -27.3702
  25   2.0000      -0.982215       -26.7274
  26   2.0000      -0.916928       -24.9509
  27   2.0000      -0.908376       -24.7182
  28   2.0000      -0.876762       -23.8579
  29   2.0000      -0.848468       -23.0880
  30   2.0000      -0.840429       -22.8692
  31   2.0000      -0.818195       -22.2642
  32   2.0000      -0.781855       -21.2753
  33   2.0000      -0.774412       -21.0728
  34   2.0000      -0.713845       -19.4247
  35   2.0000      -0.700300       -19.0561
  36   2.0000      -0.690241       -18.7824
  37   2.0000      -0.660277       -17.9670
  38   2.0000      -0.644223       -17.5302
  39   2.0000      -0.612873       -16.6771
  40   2.0000      -0.595932       -16.2161
  41   2.0000      -0.574694       -15.6382
  42   2.0000      -0.570682       -15.5290
  43   2.0000      -0.557600       -15.1731
  44   2.0000      -0.537880       -14.6365
  45   2.0000      -0.526458       -14.3257
  46   2.0000      -0.516060       -14.0427
  47   2.0000      -0.515400       -14.0247
  48   2.0000      -0.505974       -13.7682
  49   2.0000      -0.503320       -13.6960
  50   2.0000      -0.486453       -13.2371
  51   2.0000      -0.482266       -13.1231
  52   2.0000      -0.472782       -12.8650
  53   2.0000      -0.463665       -12.6170
  54   2.0000      -0.454097       -12.3566
  55   2.0000      -0.453523       -12.3410
  56   2.0000      -0.440865       -11.9965
  57   2.0000      -0.430998       -11.7280
  58   2.0000      -0.429184       -11.6787
  59   2.0000      -0.423746       -11.5307
  60   2.0000      -0.420054       -11.4302
  61   2.0000      -0.413251       -11.2451
  62   2.0000      -0.397228       -10.8091
  63   2.0000      -0.360986        -9.8229
  64   2.0000      -0.331846        -9.0300
  65   2.0000      -0.324415        -8.8278
  66   2.0000      -0.293895        -7.9973
  67   0.0000       0.023088         0.6283
  68   0.0000       0.077151         2.0994
  69   0.0000       0.105774         2.8783
  70   0.0000       0.117590         3.1998
  71   0.0000       0.131569         3.5802

MULLIKEN ATOMIC CHARGES
-----------------------
   0 S :    0.094326
   1 C :   -0.093848
   2 C :   -0.058269
   3 C :    0.004620
   4 C :   -0.146235
   5 H :    0.026048
   6 C :    0.067435
   7 H :    0.030209
   8 H :    0.032113
   9 C :   -0.085885
  10 H :    0.044628
  11 H :    0.043483
  12 C :   -0.094093
  13 H :    0.046421
  14 H :    0.021942
  15 H :    0.042326
  16 S :    0.079915
  17 C :   -0.104804
  18 C :   -0.035646
  19 C :   -0.093622
  20 C :   -0.116463
  21 H :    0.045781
  22 C :    0.110513
  23 H :    0.020162
  24 H :   -0.015520
  25 C :   -0.076561
  26 H :    0.026323
  27 H :    0.045122
  28 C :   -0.050003
  29 H :    0.044231
  30 H :    0.020202
  31 H :    0.037605
  32 H :    0.015115
  33 H :    0.072427
Sum of atomic charges:   -0.0000000

LOEWDIN ATOMIC CHARGES
----------------------
   0 S :    0.392884
   1 C :   -0.177941
   2 C :   -0.056200
   3 C :   -0.060543
   4 C :   -0.190894
   5 H :    0.028575
   6 C :   -0.037037
   7 H :    0.035029
   8 H :    0.037094
   9 C :   -0.048887
  10 H :    0.030296
  11 H :    0.032657
  12 C :   -0.079339
  13 H :    0.034385
  14 H :    0.015361
  15 H :    0.036316
  16 S :    0.374040
  17 C :   -0.172457
  18 C :   -0.078976
  19 C :   -0.057615
  20 C :   -0.187586
  21 H :    0.044970
  22 C :   -0.035161
  23 H :    0.029187
  24 H :    0.019737
  25 C :   -0.049594
  26 H :    0.031091
  27 H :    0.030095
  28 C :   -0.069015
  29 H :    0.034901
  30 H :    0.018485
  31 H :    0.027528
  32 H :    0.011936
  33 H :    0.036676

  Mayer bond orders larger than 0.100000
B(  0-S ,  1-C ) :   1.1137 B(  0-S ,  4-C ) :   1.1228 B(  1-C ,  2-C ) :   1.6619
B(  1-C , 32-H ) :   0.9743 B(  2-C ,  3-C ) :   1.1882 B(  2-C ,  6-C ) :   1.0200
B(  3-C ,  4-C ) :   1.6140 B(  3-C ,  5-H ) :   0.9821 B(  4-C , 20-C ) :   1.0718
B(  6-C ,  7-H ) :   0.9380 B(  6-C ,  8-H ) :   0.9303 B(  6-C ,  9-C ) :   1.0766
B(  9-C , 10-H ) :   0.9519 B(  9-C , 11-H ) :   0.9515 B(  9-C , 12-C ) :   1.0828
B( 12-C , 13-H ) :   0.9722 B( 12-C , 14-H ) :   0.9736 B( 12-C , 15-H ) :   0.9731
B( 16-S , 17-C ) :   1.1323 B( 16-S , 20-C ) :   1.1266 B( 17-C , 18-C ) :   1.6393
B( 17-C , 33-H ) :   0.9652 B( 18-C , 19-C ) :   1.2165 B( 18-C , 21-H ) :   0.9797
B( 19-C , 20-C ) :   1.6023 B( 19-C , 22-C ) :   1.0458 B( 22-C , 23-H ) :   0.9288
B( 22-C , 24-H ) :   0.9268 B( 22-C , 25-C ) :   1.0457 B( 25-C , 26-H ) :   0.9557
B( 25-C , 27-H ) :   0.9583 B( 25-C , 28-C ) :   1.0810 B( 28-C , 29-H ) :   0.9715
B( 28-C , 30-H ) :   0.9735 B( 28-C , 31-H ) :   0.9707

Dispersion correction           -0.014614370
FINAL SINGLE POINT ENERGY     -1339.875758447813

DIPOLE MOMENT
-------------
                                X             Y             Z
Electronic contribution:     12.71200       6.87526      23.07888
Nuclear contribution   :    -12.82239      -7.28510     -23.60707
                        -----------------------------------------
Total Dipole Moment    :     -0.11039      -0.40984      -0.52818
                        -----------------------------------------
Magnitude (a.u.)       :      0.67760
Magnitude (Debye)      :      1.72231

Rotational constants in cm-1:     0.023461     0.007551     0.006382
Rotational constants in MHz :   703.351350   226.387193   191.323336

                             ****ORCA TERMINATED NORMALLY****
TOTAL RUN TIME: 0 days 0 hours 0 minutes 30 seconds 142 msec
