                         Program Version 4.2.1 -  RELEASE  -
|  1> ! wB97X-D3 SP def2-SVP
|  2> %pal
|  3> nprocs 16
|  4> end
|  5>
|  6> * xyz 0 1
|  7> S 	 42.4298 	 14.9583 	 72.5836
|  8> C 	 40.8248 	 14.4992 	 73.1295
|  9> C 	 40.0152 	 15.5565 	 73.0293
| 10> C 	 40.7074 	 16.7789 	 72.7846
| 11> C 	 42.071 	 16.6572 	 72.7378
| 12> H 	 40.2306 	 17.7293 	 72.6256
| 13> C 	 38.5015 	 15.5447 	 73.364
| 14> H 	 37.8924 	 15.7479 	 72.4549
| 15> H 	 38.2078 	 16.4375 	 73.9094
| 16> C 	 37.9439 	 14.3337 	 74.147
| 17> H 	 38.1552 	 13.3787 	 73.6187
| 18> H 	 38.5096 	 14.3266 	 75.077
| 19> C 	 36.5261 	 14.4976 	 74.4698
| 20> H 	 36.2548 	 13.702 	 75.1893
| 21> H 	 36.3042 	 15.4252 	 74.9136
| 22> H 	 35.7922 	 14.3738 	 73.6821
| 23> S 	 43.8223 	 17.3557 	 70.8251
| 24> C 	 45.0328 	 18.575 	 71.2057
| 25> C 	 44.853 	 19.2188 	 72.4068
| 26> C 	 43.7023 	 18.7012 	 73.1041
| 27> C 	 43.0578 	 17.6619 	 72.3773
| 28> H 	 45.5185 	 19.9833 	 72.7239
| 29> C 	 43.3763 	 19.3181 	 74.4646
| 30> H 	 42.3298 	 19.7614 	 74.3254
| 31> H 	 44.0234 	 20.1989 	 74.5531
| 32> C 	 43.4341 	 18.4282 	 75.7104
| 33> H 	 44.3246 	 17.7592 	 75.6678
| 34> H 	 42.4931 	 17.8569 	 75.6811
| 35> C 	 43.5155 	 19.3478 	 77.0523
| 36> H 	 42.4758 	 19.7426 	 77.1713
| 37> H 	 44.2518 	 20.0714 	 76.829
| 38> H 	 43.7142 	 18.8986 	 77.9828
| 39> H 	 40.5595 	 13.4271 	 73.312
| 40> H 	 45.7046 	 18.9693 	 70.5062
| 41> *
| 42>
| 43>                          ****END OF INPUT****

CARTESIAN COORDINATES (ANGSTROEM)
---------------------------------
  S     42.429800   14.958300   72.583600
  C     40.824800   14.499200   73.129500
  C     40.015200   15.556500   73.029300
  C     40.707400   16.778900   72.784600
  C     42.071000   16.657200   72.737800
  H     40.230600   17.729300   72.625600
  C     38.501500   15.544700   73.364000
  H     37.892400   15.747900   72.454900
  H     38.207800   16.437500   73.909400
  C     37.943900   14.333700   74.147000
  H     38.155200   13.378700   73.618700
  H     38.509600   14.326600   75.077000
  C     36.526100   14.497600   74.469800
  H     36.254800   13.702000   75.189300
  H     36.304200   15.425200   74.913600
  H     35.792200   14.373800   73.682100
  S     43.822300   17.355700   70.825100
  C     45.032800   18.575000   71.205700
  C     44.853000   19.218800   72.406800
  C     43.702300   18.701200   73.104100
  C     43.057800   17.661900   72.377300
  H     45.518500   19.983300   72.723900
  C     43.376300   19.318100   74.464600
  H     42.329800   19.761400   74.325400
  H     44.023400   20.198900   74.553100
  C     43.434100   18.428200   75.710400
  H     44.324600   17.759200   75.667800
  H     42.493100   17.856900   75.681100
  C     43.515500   19.347800   77.052300
  H     42.475800   19.742600   77.171300
  H     44.251800   20.071400   76.829000
  H     43.714200   18.898600   77.982800
  H     40.559500   13.427100   73.312000
  H     45.704600   18.969300   70.506200

 Total Charge           Charge          ....    0
 Multiplicity           Mult            ....    1
 Number of Electrons    NEL             ....  134
 Basis Dimension        Dim             ....  322

ORBITAL ENERGIES
----------------

  NO   OCC          E(Eh)            E(eV)
   0   2.0000     -88.967730     -2420.9350
   1   2.0000     -88.957235     -2420.6494
   2   2.0000     -10.328675      -281.0575
   3   2.0000     -10.325839      -280.9804
   4   2.0000     -10.312633      -280.6210
   5   2.0000     -10.311929      -280.6019
   6   2.0000     -10.310190      -280.5545
   7   2.0000     -10.298136      -280.2265
   8   2.0000     -10.297277      -280.2032
   9   2.0000     -10.293842      -280.1097
  10   2.0000     -10.292799      -280.0813
  11   2.0000     -10.292348      -280.0690
  12   2.0000     -10.290045      -280.0064
  13   2.0000     -10.287122      -279.9268
  14   2.0000     -10.278606      -279.6951
  15   2.0000     -10.272698      -279.5343
  16   2.0000      -8.082175      -219.9272
  17   2.0000      -8.072674      -219.6686
  18   2.0000      -6.040656      -164.3746
  19   2.0000      -6.036764      -164.2687
  20   2.0000      -6.032933      -164.1645
  21   2.0000      -6.031262      -164.1190
  22   2.0000      -6.027287      -164.0108
  23   2.0000      -6.023057      -163.8957
  24   2.0000      -1.009026       -27.4570
  25   2.0000      -0.983040       -26.7499
  26   2.0000      -0.915309       -24.9068
  27   2.0000      -0.900065       -24.4920
  28   2.0000      -0.875349       -23.8195
  29   2.0000      -0.845860       -23.0170
  30   2.0000      -0.844021       -22.9670
  31   2.0000      -0.814779       -22.1713
  32   2.0000      -0.781071       -21.2540
  33   2.0000      -0.769345       -20.9350
  34   2.0000      -0.712407       -19.3856
  35   2.0000      -0.703462       -19.1422
  36   2.0000      -0.685298       -18.6479
  37   2.0000      -0.663928       -18.0664
  38   2.0000      -0.641049       -17.4438
  39   2.0000      -0.614031       -16.7086
  40   2.0000      -0.589191       -16.0327
  41   2.0000      -0.574454       -15.6317
  42   2.0000      -0.567421       -15.4403
  43   2.0000      -0.561720       -15.2852
  44   2.0000      -0.525156       -14.2902
  45   2.0000      -0.522417       -14.2157
  46   2.0000      -0.515789       -14.0353
  47   2.0000      -0.512440       -13.9442
  48   2.0000      -0.504148       -13.7186
  49   2.0000      -0.499818       -13.6007
  50   2.0000      -0.486241       -13.2313
  51   2.0000      -0.483206       -13.1487
  52   2.0000      -0.478148       -13.0111
  53   2.0000      -0.463430       -12.6106
  54   2.0000      -0.456301       -12.4166
  55   2.0000      -0.452526       -12.3139
  56   2.0000      -0.448138       -12.1945
  57   2.0000      -0.438015       -11.9190
  58   2.0000      -0.427488       -11.6326
  59   2.0000      -0.421209       -11.4617
  60   2.0000      -0.416039       -11.3210
  61   2.0000      -0.414508       -11.2793
  62   2.0000      -0.409512       -11.1434
  63   2.0000      -0.343033        -9.3344
  64   2.0000      -0.333677        -9.0798
  65   2.0000      -0.322037        -8.7631
  66   2.0000      -0.295220        -8.0333
  67   0.0000       0.034876         0.9490
  68   0.0000       0.056820         1.5461
  69   0.0000       0.108872         2.9625
  70   0.0000       0.124301         3.3824
  71   0.0000       0.133292         3.6271

MULLIKEN ATOMIC CHARGES
-----------------------
   0 S :    0.089318
   1 C :   -0.163290
   2 C :   -0.021122
   3 C :    0.024945
   4 C :   -0.124460
   5 H :    0.007914
   6 C :    0.027000
   7 H :    0.028971
   8 H :    0.012209
   9 C :   -0.077381
  10 H :    0.037315
  11 H :    0.033410
  12 C :   -0.017154
  13 H :    0.029322
  14 H :    0.014686
  15 H :    0.025874
  16 S :    0.109527
  17 C :   -0.066787
  18 C :   -0.031988
  19 C :   -0.036991
  20 C :   -0.179105
  21 H :    0.014518
  22 C :    0.042250
  23 H :    0.044389
  24 H :    0.008572
  25 C :   -0.089924
  26 H :    0.047789
  27 H :    0.050317
  28 C :   -0.040308
  29 H :    0.035231
  30 H :    0.027717
  31 H :    0.030303
  32 H :    0.069411
  33 H :    0.037521
Sum of atomic charges:    0.0000000

LOEWDIN ATOMIC CHARGES
----------------------
   0 S :    0.391223
   1 C :   -0.195162
   2 C :   -0.069745
   3 C :   -0.060577
   4 C :   -0.196886
   5 H :    0.028985
   6 C :   -0.036771
   7 H :    0.033260
   8 H :    0.025965
   9 C :   -0.045485
  10 H :    0.026295
  11 H :    0.028524
  12 C :   -0.062317
  13 H :    0.033239
  14 H :    0.018596
  15 H :    0.024378
  16 S :    0.406223
  17 C :   -0.172971
  18 C :   -0.065509
  19 C :   -0.047505
  20 C :   -0.202106
  21 H :    0.029602
  22 C :   -0.040038
  23 H :    0.041395
  24 H :    0.024124
  25 C :   -0.038065
  26 H :    0.027791
  27 H :    0.029014
  28 C :   -0.059896
  29 H :    0.032077
  30 H :    0.017727
  31 H :    0.018398
  32 H :    0.039397
  33 H :    0.016818

  Mayer bond orders larger than 0.100000
B(  0-S ,  1-C ) :   1.1198 B(  0-S ,  4-C ) :   1.1432 B(  1-C ,  2-C ) :   1.6389
B(  1-C , 32-H ) :   0.9623 B(  2-C ,  3-C ) :   1.2294 B(  2-C ,  6-C ) :   1.0002
B(  3-C ,  4-C ) :   1.5849 B(  3-C ,  5-H ) :   1.0025 B(  4-C , 20-C ) :   1.0356
B(  6-C ,  7-H ) :   0.9317 B(  6-C ,  8-H ) :   0.9493 B(  6-C ,  9-C ) :   1.0754
B(  9-C , 10-H ) :   0.9459 B(  9-C , 11-H ) :   0.9510 B(  9-C , 12-C ) :   1.1034
B( 12-C , 13-H ) :   0.9677 B( 12-C , 14-H ) :   0.9696 B( 12-C , 15-H ) :   0.9712
B( 16-S , 17-C ) :   1.1491 B( 16-S , 20-C ) :   1.1490 B( 17-C , 18-C ) :   1.6273
B( 17-C , 33-H ) :   0.9657 B( 18-C , 19-C ) :   1.2466 B( 18-C , 21-H ) :   0.9909
B( 19-C , 20-C ) :   1.5891 B( 19-C , 22-C ) :   1.0308 B( 22-C , 23-H ) :   0.9331
B( 22-C , 24-H ) :   0.9392 B( 22-C , 25-C ) :   1.0432 B( 25-C , 26-H ) :   0.9649
B( 25-C , 27-H ) :   0.9583 B( 25-C , 28-C ) :   1.0590 B( 28-C , 29-H ) :   0.9789
B( 28-C , 30-H ) :   0.9807 B( 28-C , 31-H ) :   0.9805

Dispersion correction           -0.013371389
FINAL SINGLE POINT ENERGY     -1339.861337265445

DIPOLE MOMENT
-------------
                                X             Y             Z
Electronic contribution:     17.69321      -4.00204     -21.70773
Nuclear contribution   :    -18.09769       4.33616      22.03975
                        -----------------------------------------
Total Dipole Moment    :     -0.40448       0.33413       0.33202
                        -----------------------------------------
Magnitude (a.u.)       :      0.62087
Magnitude (Debye)      :      1.57813

Rotational constants in cm-1:     0.019156     0.007734     0.006102
Rotational constants in MHz :   574.267793   231.848322   182.938141

                             ****ORCA TERMINATED NORMALLY****
TOTAL RUN TIME: 0 days 0 hours 0 minutes 28 seconds 813 msec
