                         Program Version 4.2.1 -  RELEASE  -
|  1> ! wB97X-D3 SP def2-SVP
|  2> %pal
|  3> nprocs 16
|  4> end
|  5>
|  6> * xyz 0 1
|  7> S 	 -17.2648 	 31.5716 	 40.9186
|  8> C 	 -17.3421 	 32.9345 	 41.9954
|  9> C 	 -17.444 	 34.1257 	 41.283
| 10> C 	 -17.5447 	 33.9772 	 39.8778
| 11> C 	 -17.5272 	 32.629 	 39.5199
| 12> H 	 -17.614 	 34.6574 	 39.1059
| 13> C 	 -17.6504 	 35.4421 	 41.9271
| 14> H 	 -18.6579 	 35.5622 	 41.8023
| 15> H 	 -17.1968 	 36.1817 	 41.2206
| 16> C 	 -17.1866 	 35.7741 	 43.3549
| 17> H 	 -17.4291 	 36.8484 	 43.472
| 18> H 	 -17.6877 	 35.2623 	 44.1295
| 19> C 	 -15.7541 	 35.5119 	 43.5255
| 20> H 	 -15.3666 	 35.6182 	 44.5364
| 21> H 	 -15.5001 	 34.5421 	 43.1774
| 22> H 	 -15.1561 	 36.0576 	 42.8547
| 23> S 	 -19.2968 	 32.8132 	 37.3784
| 24> C 	 -19.1595 	 31.6307 	 36.0866
| 25> C 	 -18.0261 	 30.9076 	 36.1839
| 26> C 	 -17.2422 	 31.131 	 37.3911
| 27> C 	 -17.89 	 32.1026 	 38.1999
| 28> H 	 -17.7724 	 30.1743 	 35.4116
| 29> C 	 -15.8694 	 30.3889 	 37.6032
| 30> H 	 -15.9272 	 29.4236 	 37.0093
| 31> H 	 -15.764 	 30.1627 	 38.6795
| 32> C 	 -14.7305 	 31.1948 	 37.0552
| 33> H 	 -14.9081 	 32.2581 	 37.3411
| 34> H 	 -14.6259 	 31.0836 	 36.0241
| 35> C 	 -13.3145 	 30.7618 	 37.5297
| 36> H 	 -13.2839 	 29.6854 	 37.1812
| 37> H 	 -13.2092 	 30.8541 	 38.6268
| 38> H 	 -12.424 	 31.1937 	 37.0322
| 39> H 	 -17.277 	 32.944 	 43.0565
| 40> H 	 -19.9085 	 31.3809 	 35.3772
| 41> *
| 42>
| 43>                          ****END OF INPUT****

CARTESIAN COORDINATES (ANGSTROEM)
---------------------------------
  S    -17.264800   31.571600   40.918600
  C    -17.342100   32.934500   41.995400
  C    -17.444000   34.125700   41.283000
  C    -17.544700   33.977200   39.877800
  C    -17.527200   32.629000   39.519900
  H    -17.614000   34.657400   39.105900
  C    -17.650400   35.442100   41.927100
  H    -18.657900   35.562200   41.802300
  H    -17.196800   36.181700   41.220600
  C    -17.186600   35.774100   43.354900
  H    -17.429100   36.848400   43.472000
  H    -17.687700   35.262300   44.129500
  C    -15.754100   35.511900   43.525500
  H    -15.366600   35.618200   44.536400
  H    -15.500100   34.542100   43.177400
  H    -15.156100   36.057600   42.854700
  S    -19.296800   32.813200   37.378400
  C    -19.159500   31.630700   36.086600
  C    -18.026100   30.907600   36.183900
  C    -17.242200   31.131000   37.391100
  C    -17.890000   32.102600   38.199900
  H    -17.772400   30.174300   35.411600
  C    -15.869400   30.388900   37.603200
  H    -15.927200   29.423600   37.009300
  H    -15.764000   30.162700   38.679500
  C    -14.730500   31.194800   37.055200
  H    -14.908100   32.258100   37.341100
  H    -14.625900   31.083600   36.024100
  C    -13.314500   30.761800   37.529700
  H    -13.283900   29.685400   37.181200
  H    -13.209200   30.854100   38.626800
  H    -12.424000   31.193700   37.032200
  H    -17.277000   32.944000   43.056500
  H    -19.908500   31.380900   35.377200

 Total Charge           Charge          ....    0
 Multiplicity           Mult            ....    1
 Number of Electrons    NEL             ....  134
 Basis Dimension        Dim             ....  322

ORBITAL ENERGIES
----------------

  NO   OCC          E(Eh)            E(eV)
   0   2.0000     -88.968387     -2420.9529
   1   2.0000     -88.967970     -2420.9415
   2   2.0000     -10.333982      -281.2019
   3   2.0000     -10.331904      -281.1454
   4   2.0000     -10.312954      -280.6297
   5   2.0000     -10.312572      -280.6193
   6   2.0000     -10.308403      -280.5059
   7   2.0000     -10.302700      -280.3507
   8   2.0000     -10.298723      -280.2425
   9   2.0000     -10.293975      -280.1133
  10   2.0000     -10.289421      -279.9894
  11   2.0000     -10.283643      -279.8321
  12   2.0000     -10.283603      -279.8311
  13   2.0000     -10.283026      -279.8154
  14   2.0000     -10.280894      -279.7573
  15   2.0000     -10.261940      -279.2416
  16   2.0000      -8.082418      -219.9338
  17   2.0000      -8.082094      -219.9250
  18   2.0000      -6.041017      -164.3844
  19   2.0000      -6.040768      -164.3777
  20   2.0000      -6.037018      -164.2756
  21   2.0000      -6.036749      -164.2683
  22   2.0000      -6.033153      -164.1704
  23   2.0000      -6.032651      -164.1568
  24   2.0000      -1.002690       -27.2846
  25   2.0000      -0.981690       -26.7131
  26   2.0000      -0.921070       -25.0636
  27   2.0000      -0.908160       -24.7123
  28   2.0000      -0.869898       -23.6711
  29   2.0000      -0.859912       -23.3994
  30   2.0000      -0.842735       -22.9320
  31   2.0000      -0.814926       -22.1753
  32   2.0000      -0.785005       -21.3611
  33   2.0000      -0.770266       -20.9600
  34   2.0000      -0.712143       -19.3784
  35   2.0000      -0.704578       -19.1725
  36   2.0000      -0.687319       -18.7029
  37   2.0000      -0.660322       -17.9683
  38   2.0000      -0.643654       -17.5147
  39   2.0000      -0.605195       -16.4682
  40   2.0000      -0.592867       -16.1327
  41   2.0000      -0.578621       -15.7451
  42   2.0000      -0.573028       -15.5929
  43   2.0000      -0.567964       -15.4551
  44   2.0000      -0.537955       -14.6385
  45   2.0000      -0.519184       -14.1277
  46   2.0000      -0.517445       -14.0804
  47   2.0000      -0.514600       -14.0030
  48   2.0000      -0.510058       -13.8794
  49   2.0000      -0.496236       -13.5033
  50   2.0000      -0.487731       -13.2718
  51   2.0000      -0.483584       -13.1590
  52   2.0000      -0.475732       -12.9453
  53   2.0000      -0.469067       -12.7640
  54   2.0000      -0.453669       -12.3450
  55   2.0000      -0.451902       -12.2969
  56   2.0000      -0.445321       -12.1178
  57   2.0000      -0.438394       -11.9293
  58   2.0000      -0.430235       -11.7073
  59   2.0000      -0.425560       -11.5801
  60   2.0000      -0.420444       -11.4409
  61   2.0000      -0.412008       -11.2113
  62   2.0000      -0.407555       -11.0901
  63   2.0000      -0.349497        -9.5103
  64   2.0000      -0.333051        -9.0628
  65   2.0000      -0.329130        -8.9561
  66   2.0000      -0.285952        -7.7812
  67   0.0000       0.026274         0.7149
  68   0.0000       0.066042         1.7971
  69   0.0000       0.102691         2.7944
  70   0.0000       0.116976         3.1831
  71   0.0000       0.132080         3.5941

MULLIKEN ATOMIC CHARGES
-----------------------
   0 S :    0.113301
   1 C :   -0.103772
   2 C :   -0.093989
   3 C :    0.026200
   4 C :   -0.135107
   5 H :   -0.015176
   6 C :    0.052306
   7 H :    0.024589
   8 H :    0.027257
   9 C :   -0.027401
  10 H :    0.031557
  11 H :    0.017207
  12 C :   -0.004935
  13 H :    0.033365
  14 H :    0.004449
  15 H :    0.001341
  16 S :    0.106907
  17 C :   -0.076424
  18 C :   -0.032685
  19 C :   -0.055191
  20 C :   -0.170524
  21 H :    0.022942
  22 C :    0.070189
  23 H :    0.031690
  24 H :    0.031502
  25 C :   -0.056828
  26 H :    0.044627
  27 H :    0.018615
  28 C :   -0.085980
  29 H :    0.025354
  30 H :    0.046512
  31 H :    0.043957
  32 H :    0.035906
  33 H :    0.048241
Sum of atomic charges:    0.0000000

LOEWDIN ATOMIC CHARGES
----------------------
   0 S :    0.405787
   1 C :   -0.209460
   2 C :   -0.056372
   3 C :   -0.059984
   4 C :   -0.177864
   5 H :    0.018897
   6 C :   -0.031522
   7 H :    0.027096
   8 H :    0.037819
   9 C :   -0.037529
  10 H :    0.033337
  11 H :    0.017470
  12 C :   -0.063758
  13 H :    0.026869
  14 H :    0.020792
  15 H :    0.019636
  16 S :    0.392806
  17 C :   -0.180898
  18 C :   -0.071157
  19 C :   -0.050401
  20 C :   -0.192193
  21 H :    0.033155
  22 C :   -0.029266
  23 H :    0.036430
  24 H :    0.027575
  25 C :   -0.044121
  26 H :    0.029261
  27 H :    0.017706
  28 C :   -0.073159
  29 H :    0.028134
  30 H :    0.025391
  31 H :    0.029016
  32 H :    0.022783
  33 H :    0.027725

  Mayer bond orders larger than 0.100000
B(  0-S ,  1-C ) :   1.1218 B(  0-S ,  4-C ) :   1.1563 B(  1-C ,  2-C ) :   1.6073
B(  1-C , 32-H ) :   0.9667 B(  2-C ,  3-C ) :   1.2266 B(  2-C ,  6-C ) :   1.0079
B(  3-C ,  4-C ) :   1.5527 B(  3-C ,  5-H ) :   1.0141 B(  4-C , 20-C ) :   1.0630
B(  6-C ,  7-H ) :   0.9312 B(  6-C ,  8-H ) :   0.9361 B(  6-C ,  9-C ) :   1.0833
B(  9-C , 10-H ) :   0.9483 B(  9-C , 11-H ) :   0.9481 B(  9-C , 12-C ) :   1.0899
B( 12-C , 13-H ) :   0.9725 B( 12-C , 14-H ) :   0.9647 B( 12-C , 15-H ) :   0.9642
B( 16-S , 17-C ) :   1.1279 B( 16-S , 20-C ) :   1.1328 B( 17-C , 18-C ) :   1.6528
B( 17-C , 33-H ) :   0.9670 B( 18-C , 19-C ) :   1.2285 B( 18-C , 21-H ) :   0.9805
B( 19-C , 20-C ) :   1.5811 B( 19-C , 22-C ) :   1.0359 B( 22-C , 23-H ) :   0.9317
B( 22-C , 24-H ) :   0.9370 B( 22-C , 25-C ) :   1.0639 B( 25-C , 26-H ) :   0.9594
B( 25-C , 27-H ) :   0.9551 B( 25-C , 28-C ) :   1.0730 B( 28-C , 29-H ) :   0.9722
B( 28-C , 30-H ) :   0.9786 B( 28-C , 31-H ) :   0.9763

Dispersion correction           -0.014146069
FINAL SINGLE POINT ENERGY     -1339.861737873646

DIPOLE MOMENT
-------------
                                X             Y             Z
Electronic contribution:    -18.54111      -6.12289      -7.21734
Nuclear contribution   :     18.70957       6.24694       7.10453
                        -----------------------------------------
Total Dipole Moment    :      0.16845       0.12405      -0.11282
                        -----------------------------------------
Magnitude (a.u.)       :      0.23768
Magnitude (Debye)      :      0.60413

Rotational constants in cm-1:     0.020177     0.008002     0.006492
Rotational constants in MHz :   604.901364   239.892348   194.618960

                             ****ORCA TERMINATED NORMALLY****
TOTAL RUN TIME: 0 days 0 hours 0 minutes 34 seconds 296 msec
