                         Program Version 4.2.1 -  RELEASE  -
|  1> ! wB97X-D3 SP def2-SVP
|  2> %pal
|  3> nprocs 16
|  4> end
|  5>
|  6> * xyz 0 1
|  7> S 	 -69.1457 	 39.4573 	 139.032
|  8> C 	 -67.4046 	 39.8525 	 139.246
|  9> C 	 -66.5476 	 38.7759 	 139.032
| 10> C 	 -67.3134 	 37.5162 	 138.946
| 11> C 	 -68.6862 	 37.7257 	 138.913
| 12> H 	 -66.8613 	 36.5542 	 138.845
| 13> C 	 -65.0359 	 38.781 	 139.083
| 14> H 	 -64.7523 	 39.4574 	 138.344
| 15> H 	 -64.5704 	 37.8306 	 138.694
| 16> C 	 -64.5368 	 39.2692 	 140.423
| 17> H 	 -63.467 	 39.24 	 140.417
| 18> H 	 -64.7975 	 40.3325 	 140.539
| 19> C 	 -65.0533 	 38.5419 	 141.664
| 20> H 	 -65.0954 	 37.4753 	 141.54
| 21> H 	 -64.2725 	 38.66 	 142.456
| 22> H 	 -65.9556 	 38.8247 	 142.064
| 23> S 	 -71.2655 	 37.1449 	 139.761
| 24> C 	 -72.0808 	 35.7338 	 139.225
| 25> C 	 -71.2956 	 34.967 	 138.382
| 26> C 	 -70.0546 	 35.5417 	 138.181
| 27> C 	 -69.8223 	 36.7541 	 138.815
| 28> H 	 -71.5798 	 34.0424 	 137.887
| 29> C 	 -69.1135 	 34.9683 	 137.073
| 30> H 	 -68.4137 	 35.7853 	 136.628
| 31> H 	 -69.6639 	 34.6264 	 136.203
| 32> C 	 -68.2485 	 33.8554 	 137.516
| 33> H 	 -67.8688 	 34.1352 	 138.548
| 34> H 	 -67.3908 	 33.7143 	 136.817
| 35> C 	 -68.9762 	 32.5066 	 137.531
| 36> H 	 -69.6622 	 32.3564 	 138.364
| 37> H 	 -68.1895 	 31.7528 	 137.765
| 38> H 	 -69.4742 	 32.3207 	 136.589
| 39> H 	 -66.9982 	 40.8344 	 139.528
| 40> H 	 -73.1252 	 35.6275 	 139.612
| 41> *
| 42>
| 43>                          ****END OF INPUT****

CARTESIAN COORDINATES (ANGSTROEM)
---------------------------------
  S    -69.145700   39.457300  139.032000
  C    -67.404600   39.852500  139.246000
  C    -66.547600   38.775900  139.032000
  C    -67.313400   37.516200  138.946000
  C    -68.686200   37.725700  138.913000
  H    -66.861300   36.554200  138.845000
  C    -65.035900   38.781000  139.083000
  H    -64.752300   39.457400  138.344000
  H    -64.570400   37.830600  138.694000
  C    -64.536800   39.269200  140.423000
  H    -63.467000   39.240000  140.417000
  H    -64.797500   40.332500  140.539000
  C    -65.053300   38.541900  141.664000
  H    -65.095400   37.475300  141.540000
  H    -64.272500   38.660000  142.456000
  H    -65.955600   38.824700  142.064000
  S    -71.265500   37.144900  139.761000
  C    -72.080800   35.733800  139.225000
  C    -71.295600   34.967000  138.382000
  C    -70.054600   35.541700  138.181000
  C    -69.822300   36.754100  138.815000
  H    -71.579800   34.042400  137.887000
  C    -69.113500   34.968300  137.073000
  H    -68.413700   35.785300  136.628000
  H    -69.663900   34.626400  136.203000
  C    -68.248500   33.855400  137.516000
  H    -67.868800   34.135200  138.548000
  H    -67.390800   33.714300  136.817000
  C    -68.976200   32.506600  137.531000
  H    -69.662200   32.356400  138.364000
  H    -68.189500   31.752800  137.765000
  H    -69.474200   32.320700  136.589000
  H    -66.998200   40.834400  139.528000
  H    -73.125200   35.627500  139.612000

 Total Charge           Charge          ....    0
 Multiplicity           Mult            ....    1
 Number of Electrons    NEL             ....  134
 Basis Dimension        Dim             ....  322

ORBITAL ENERGIES
----------------

  NO   OCC          E(Eh)            E(eV)
   0   2.0000     -88.968693     -2420.9612
   1   2.0000     -88.964380     -2420.8439
   2   2.0000     -10.339015      -281.3389
   3   2.0000     -10.330138      -281.0974
   4   2.0000     -10.322076      -280.8780
   5   2.0000     -10.318595      -280.7833
   6   2.0000     -10.306526      -280.4548
   7   2.0000     -10.301660      -280.3224
   8   2.0000     -10.298700      -280.2419
   9   2.0000     -10.293962      -280.1129
  10   2.0000     -10.292227      -280.0657
  11   2.0000     -10.291171      -280.0370
  12   2.0000     -10.287771      -279.9445
  13   2.0000     -10.286458      -279.9087
  14   2.0000     -10.278194      -279.6839
  15   2.0000     -10.268362      -279.4163
  16   2.0000      -8.081798      -219.9169
  17   2.0000      -8.079754      -219.8613
  18   2.0000      -6.040564      -164.3721
  19   2.0000      -6.038087      -164.3047
  20   2.0000      -6.036777      -164.2691
  21   2.0000      -6.033983      -164.1930
  22   2.0000      -6.032131      -164.1426
  23   2.0000      -6.030844      -164.1076
  24   2.0000      -1.005189       -27.3526
  25   2.0000      -0.976697       -26.5773
  26   2.0000      -0.915945       -24.9241
  27   2.0000      -0.912916       -24.8417
  28   2.0000      -0.861669       -23.4472
  29   2.0000      -0.850887       -23.1538
  30   2.0000      -0.840750       -22.8780
  31   2.0000      -0.812409       -22.1068
  32   2.0000      -0.786699       -21.4072
  33   2.0000      -0.775055       -21.0903
  34   2.0000      -0.707057       -19.2400
  35   2.0000      -0.696662       -18.9571
  36   2.0000      -0.681508       -18.5448
  37   2.0000      -0.666805       -18.1447
  38   2.0000      -0.632622       -17.2145
  39   2.0000      -0.614904       -16.7324
  40   2.0000      -0.603499       -16.4220
  41   2.0000      -0.575252       -15.6534
  42   2.0000      -0.553950       -15.0737
  43   2.0000      -0.551752       -15.0139
  44   2.0000      -0.543713       -14.7952
  45   2.0000      -0.539961       -14.6931
  46   2.0000      -0.512875       -13.9560
  47   2.0000      -0.508538       -13.8380
  48   2.0000      -0.496967       -13.5232
  49   2.0000      -0.495043       -13.4708
  50   2.0000      -0.491362       -13.3706
  51   2.0000      -0.482287       -13.1237
  52   2.0000      -0.470058       -12.7909
  53   2.0000      -0.464083       -12.6283
  54   2.0000      -0.459489       -12.5033
  55   2.0000      -0.450426       -12.2567
  56   2.0000      -0.438722       -11.9382
  57   2.0000      -0.434624       -11.8267
  58   2.0000      -0.433603       -11.7989
  59   2.0000      -0.422350       -11.4927
  60   2.0000      -0.418920       -11.3994
  61   2.0000      -0.412082       -11.2133
  62   2.0000      -0.409121       -11.1328
  63   2.0000      -0.348417        -9.4809
  64   2.0000      -0.337141        -9.1741
  65   2.0000      -0.329717        -8.9721
  66   2.0000      -0.287511        -7.8236
  67   0.0000       0.023207         0.6315
  68   0.0000       0.072881         1.9832
  69   0.0000       0.093546         2.5455
  70   0.0000       0.125190         3.4066
  71   0.0000       0.130997         3.5646

MULLIKEN ATOMIC CHARGES
-----------------------
   0 S :    0.096190
   1 C :   -0.130551
   2 C :   -0.118227
   3 C :    0.027745
   4 C :   -0.104587
   5 H :    0.001700
   6 C :    0.106542
   7 H :    0.016282
   8 H :    0.028995
   9 C :   -0.077517
  10 H :    0.022969
  11 H :    0.027194
  12 C :   -0.016111
  13 H :    0.016884
  14 H :    0.027180
  15 H :    0.026072
  16 S :    0.094873
  17 C :   -0.113991
  18 C :   -0.007409
  19 C :   -0.027380
  20 C :   -0.150670
  21 H :    0.020886
  22 C :    0.010654
  23 H :    0.044578
  24 H :    0.019125
  25 C :   -0.089347
  26 H :    0.038994
  27 H :    0.036110
  28 C :   -0.059316
  29 H :    0.034885
  30 H :    0.034660
  31 H :    0.031019
  32 H :    0.050345
  33 H :    0.081225
Sum of atomic charges:   -0.0000000

LOEWDIN ATOMIC CHARGES
----------------------
   0 S :    0.364676
   1 C :   -0.191849
   2 C :   -0.049451
   3 C :   -0.061000
   4 C :   -0.166382
   5 H :    0.026314
   6 C :   -0.035386
   7 H :    0.028063
   8 H :    0.036207
   9 C :   -0.037479
  10 H :    0.021724
  11 H :    0.026555
  12 C :   -0.060147
  13 H :    0.022722
  14 H :    0.033515
  15 H :    0.015108
  16 S :    0.415501
  17 C :   -0.193339
  18 C :   -0.075816
  19 C :   -0.059837
  20 C :   -0.196310
  21 H :    0.035457
  22 C :   -0.038462
  23 H :    0.040217
  24 H :    0.023579
  25 C :   -0.051893
  26 H :    0.028380
  27 H :    0.027647
  28 C :   -0.070990
  29 H :    0.023216
  30 H :    0.032083
  31 H :    0.021541
  32 H :    0.028811
  33 H :    0.037028

  Mayer bond orders larger than 0.100000
B(  0-S ,  1-C ) :   1.1083 B(  0-S ,  4-C ) :   1.1281 B(  1-C ,  2-C ) :   1.6577
B(  1-C , 32-H ) :   0.9628 B(  2-C ,  3-C ) :   1.1908 B(  2-C ,  6-C ) :   1.0163
B(  3-C ,  4-C ) :   1.6109 B(  3-C ,  5-H ) :   0.9951 B(  4-C , 20-C ) :   1.0226
B(  6-C ,  7-H ) :   0.9237 B(  6-C ,  8-H ) :   0.9424 B(  6-C ,  9-C ) :   1.0898
B(  9-C , 10-H ) :   0.9569 B(  9-C , 11-H ) :   0.9516 B(  9-C , 12-C ) :   1.0730
B( 12-C , 13-H ) :   0.9760 B( 12-C , 14-H ) :   0.9737 B( 12-C , 15-H ) :   0.9754
B( 16-S , 17-C ) :   1.1946 B( 16-S , 20-C ) :   1.1492 B( 17-C , 18-C ) :   1.5208
B( 17-C , 20-C ) :   0.1087 B( 17-C , 33-H ) :   0.9647 B( 18-C , 19-C ) :   1.3036
B( 18-C , 21-H ) :   0.9916 B( 19-C , 20-C ) :   1.5810 B( 19-C , 22-C ) :   1.0157
B( 22-C , 23-H ) :   0.9435 B( 22-C , 24-H ) :   0.9481 B( 22-C , 25-C ) :   1.0723
B( 25-C , 26-H ) :   0.9462 B( 25-C , 27-H ) :   0.9559 B( 25-C , 28-C ) :   1.0859
B( 28-C , 29-H ) :   0.9712 B( 28-C , 30-H ) :   0.9718 B( 28-C , 31-H ) :   0.9734

Dispersion correction           -0.014635515
FINAL SINGLE POINT ENERGY     -1339.872798864292

DIPOLE MOMENT
-------------
                                X             Y             Z
Electronic contribution:    -21.21929      13.55640       1.01535
Nuclear contribution   :     21.70788     -13.90973      -1.15107
                        -----------------------------------------
Total Dipole Moment    :      0.48859      -0.35333      -0.13572
                        -----------------------------------------
Magnitude (a.u.)       :      0.61805
Magnitude (Debye)      :      1.57097

Rotational constants in cm-1:     0.019876     0.008465     0.006665
Rotational constants in MHz :   595.860159   253.771545   199.820576

                             ****ORCA TERMINATED NORMALLY****
TOTAL RUN TIME: 0 days 0 hours 0 minutes 35 seconds 752 msec
