                         Program Version 4.2.1 -  RELEASE  -
|  1> ! wB97X-D3 SP def2-SVP
|  2> %pal
|  3> nprocs 16
|  4> end
|  5>
|  6> * xyz 0 1
|  7> S 	 61.9413 	 -2.84797 	 87.3938
|  8> C 	 61.3022 	 -2.50096 	 88.9361
|  9> C 	 62.177 	 -1.84291 	 89.819
| 10> C 	 63.3855 	 -1.62305 	 89.142
| 11> C 	 63.3694 	 -1.97469 	 87.7932
| 12> H 	 64.2605 	 -1.20633 	 89.523
| 13> C 	 61.9638 	 -1.64228 	 91.2849
| 14> H 	 61.2933 	 -0.802764 	 91.439
| 15> H 	 62.8496 	 -1.4341 	 91.8792
| 16> C 	 61.5456 	 -3.07229 	 91.8254
| 17> H 	 61.3861 	 -2.87836 	 92.936
| 18> H 	 60.5758 	 -3.32566 	 91.4313
| 19> C 	 62.5487 	 -4.17474 	 91.5424
| 20> H 	 63.5714 	 -3.8457 	 91.6968
| 21> H 	 62.3383 	 -5.16264 	 92.0284
| 22> H 	 62.4652 	 -4.38671 	 90.4743
| 23> S 	 65.1322 	 -3.54739 	 86.422
| 24> C 	 66.5493 	 -2.8569 	 85.6786
| 25> C 	 66.5788 	 -1.55818 	 85.9777
| 26> C 	 65.4429 	 -0.951895 	 86.5356
| 27> C 	 64.508 	 -1.92775 	 86.8864
| 28> H 	 67.4696 	 -0.971487 	 85.9001
| 29> C 	 65.291 	 0.476837 	 86.8663
| 30> H 	 65.6558 	 0.55114 	 87.9777
| 31> H 	 64.2683 	 0.703168 	 86.6438
| 32> C 	 66.1632 	 1.56858 	 86.1334
| 33> H 	 65.7526 	 1.52427 	 85.0913
| 34> H 	 67.189 	 1.11189 	 86.2372
| 35> C 	 65.867 	 3.01365 	 86.5364
| 36> H 	 64.954 	 3.21044 	 85.9764
| 37> H 	 66.5733 	 3.70738 	 86.1444
| 38> H 	 65.7433 	 3.08703 	 87.6168
| 39> H 	 60.349 	 -2.79287 	 89.1974
| 40> H 	 67.4168 	 -3.43232 	 85.4208
| 41> *
| 42>
| 43>                          ****END OF INPUT****

CARTESIAN COORDINATES (ANGSTROEM)
---------------------------------
  S     61.941300   -2.847970   87.393800
  C     61.302200   -2.500960   88.936100
  C     62.177000   -1.842910   89.819000
  C     63.385500   -1.623050   89.142000
  C     63.369400   -1.974690   87.793200
  H     64.260500   -1.206330   89.523000
  C     61.963800   -1.642280   91.284900
  H     61.293300   -0.802764   91.439000
  H     62.849600   -1.434100   91.879200
  C     61.545600   -3.072290   91.825400
  H     61.386100   -2.878360   92.936000
  H     60.575800   -3.325660   91.431300
  C     62.548700   -4.174740   91.542400
  H     63.571400   -3.845700   91.696800
  H     62.338300   -5.162640   92.028400
  H     62.465200   -4.386710   90.474300
  S     65.132200   -3.547390   86.422000
  C     66.549300   -2.856900   85.678600
  C     66.578800   -1.558180   85.977700
  C     65.442900   -0.951895   86.535600
  C     64.508000   -1.927750   86.886400
  H     67.469600   -0.971487   85.900100
  C     65.291000    0.476837   86.866300
  H     65.655800    0.551140   87.977700
  H     64.268300    0.703168   86.643800
  C     66.163200    1.568580   86.133400
  H     65.752600    1.524270   85.091300
  H     67.189000    1.111890   86.237200
  C     65.867000    3.013650   86.536400
  H     64.954000    3.210440   85.976400
  H     66.573300    3.707380   86.144400
  H     65.743300    3.087030   87.616800
  H     60.349000   -2.792870   89.197400
  H     67.416800   -3.432320   85.420800

 Total Charge           Charge          ....    0
 Multiplicity           Mult            ....    1
 Number of Electrons    NEL             ....  134
 Basis Dimension        Dim             ....  322

ORBITAL ENERGIES
----------------

  NO   OCC          E(Eh)            E(eV)
   0   2.0000     -88.969912     -2420.9944
   1   2.0000     -88.957292     -2420.6510
   2   2.0000     -10.325803      -280.9794
   3   2.0000     -10.322812      -280.8980
   4   2.0000     -10.308337      -280.5041
   5   2.0000     -10.305333      -280.4224
   6   2.0000     -10.298816      -280.2450
   7   2.0000     -10.298646      -280.2404
   8   2.0000     -10.296398      -280.1792
   9   2.0000     -10.295490      -280.1545
  10   2.0000     -10.295195      -280.1465
  11   2.0000     -10.291568      -280.0478
  12   2.0000     -10.286463      -279.9089
  13   2.0000     -10.282553      -279.8025
  14   2.0000     -10.281008      -279.7604
  15   2.0000     -10.276583      -279.6400
  16   2.0000      -8.085565      -220.0194
  17   2.0000      -8.072002      -219.6503
  18   2.0000      -6.043729      -164.4582
  19   2.0000      -6.039886      -164.3537
  20   2.0000      -6.036721      -164.2675
  21   2.0000      -6.030504      -164.0984
  22   2.0000      -6.026599      -163.9921
  23   2.0000      -6.022654      -163.8848
  24   2.0000      -1.011378       -27.5210
  25   2.0000      -0.989433       -26.9238
  26   2.0000      -0.915691       -24.9172
  27   2.0000      -0.909460       -24.7477
  28   2.0000      -0.868130       -23.6230
  29   2.0000      -0.855235       -23.2721
  30   2.0000      -0.850259       -23.1367
  31   2.0000      -0.811564       -22.0838
  32   2.0000      -0.784854       -21.3570
  33   2.0000      -0.773327       -21.0433
  34   2.0000      -0.704934       -19.1822
  35   2.0000      -0.699225       -19.0269
  36   2.0000      -0.694095       -18.8873
  37   2.0000      -0.655508       -17.8373
  38   2.0000      -0.646031       -17.5794
  39   2.0000      -0.612798       -16.6751
  40   2.0000      -0.597871       -16.2689
  41   2.0000      -0.580343       -15.7919
  42   2.0000      -0.577972       -15.7274
  43   2.0000      -0.557101       -15.1595
  44   2.0000      -0.537057       -14.6141
  45   2.0000      -0.529268       -14.4021
  46   2.0000      -0.518233       -14.1018
  47   2.0000      -0.511654       -13.9228
  48   2.0000      -0.503878       -13.7112
  49   2.0000      -0.493935       -13.4407
  50   2.0000      -0.483910       -13.1679
  51   2.0000      -0.479463       -13.0468
  52   2.0000      -0.474646       -12.9158
  53   2.0000      -0.471368       -12.8266
  54   2.0000      -0.461270       -12.5518
  55   2.0000      -0.461020       -12.5450
  56   2.0000      -0.448412       -12.2019
  57   2.0000      -0.445716       -12.1286
  58   2.0000      -0.423341       -11.5197
  59   2.0000      -0.422479       -11.4962
  60   2.0000      -0.419088       -11.4040
  61   2.0000      -0.405482       -11.0337
  62   2.0000      -0.400944       -10.9102
  63   2.0000      -0.343931        -9.3588
  64   2.0000      -0.330927        -9.0050
  65   2.0000      -0.324387        -8.8270
  66   2.0000      -0.288458        -7.8493
  67   0.0000       0.030196         0.8217
  68   0.0000       0.063651         1.7320
  69   0.0000       0.112547         3.0626
  70   0.0000       0.123581         3.3628
  71   0.0000       0.132218         3.5978

MULLIKEN ATOMIC CHARGES
-----------------------
   0 S :    0.142427
   1 C :   -0.104609
   2 C :   -0.080302
   3 C :    0.051831
   4 C :   -0.184253
   5 H :   -0.019305
   6 C :    0.084133
   7 H :    0.045160
   8 H :    0.025364
   9 C :   -0.123956
  10 H :    0.033940
  11 H :    0.025288
  12 C :   -0.026671
  13 H :    0.027272
  14 H :    0.048192
  15 H :    0.036238
  16 S :    0.073259
  17 C :   -0.055669
  18 C :   -0.047722
  19 C :   -0.029651
  20 C :   -0.148199
  21 H :    0.003727
  22 C :    0.018473
  23 H :    0.055046
  24 H :    0.037240
  25 C :   -0.143280
  26 H :    0.037317
  27 H :    0.042853
  28 C :    0.005236
  29 H :    0.029403
  30 H :    0.036213
  31 H :    0.035788
  32 H :    0.012822
  33 H :    0.056397
Sum of atomic charges:   -0.0000000

LOEWDIN ATOMIC CHARGES
----------------------
   0 S :    0.451604
   1 C :   -0.199189
   2 C :   -0.059796
   3 C :   -0.047812
   4 C :   -0.217373
   5 H :    0.019395
   6 C :   -0.029218
   7 H :    0.035494
   8 H :    0.030056
   9 C :   -0.038081
  10 H :    0.023910
  11 H :    0.014912
  12 C :   -0.069547
  13 H :    0.023842
  14 H :    0.035372
  15 H :    0.029190
  16 S :    0.380297
  17 C :   -0.185979
  18 C :   -0.074176
  19 C :   -0.065351
  20 C :   -0.179972
  21 H :    0.024324
  22 C :   -0.039917
  23 H :    0.044461
  24 H :    0.031577
  25 C :   -0.051090
  26 H :    0.029565
  27 H :    0.021969
  28 C :   -0.058466
  29 H :    0.032372
  30 H :    0.026967
  31 H :    0.025056
  32 H :    0.004709
  33 H :    0.030894

  Mayer bond orders larger than 0.100000
B(  0-S ,  1-C ) :   1.1790 B(  0-S ,  4-C ) :   1.1741 B(  1-C ,  2-C ) :   1.5398
B(  1-C ,  4-C ) :   0.1051 B(  1-C , 32-H ) :   0.9775 B(  2-C ,  3-C ) :   1.2856
B(  2-C ,  6-C ) :   1.0196 B(  3-C ,  4-C ) :   1.5296 B(  3-C ,  5-H ) :   1.0062
B(  4-C , 20-C ) :   1.0290 B(  6-C ,  7-H ) :   0.9349 B(  6-C ,  8-H ) :   0.9519
B(  6-C ,  9-C ) :   1.0563 B(  9-C , 10-H ) :   0.9612 B(  9-C , 11-H ) :   0.9588
B(  9-C , 12-C ) :   1.0656 B( 12-C , 13-H ) :   0.9754 B( 12-C , 14-H ) :   0.9720
B( 12-C , 15-H ) :   0.9656 B( 16-S , 17-C ) :   1.1362 B( 16-S , 20-C ) :   1.1500
B( 17-C , 18-C ) :   1.6202 B( 17-C , 33-H ) :   0.9633 B( 18-C , 19-C ) :   1.2573
B( 18-C , 21-H ) :   0.9812 B( 19-C , 20-C ) :   1.5922 B( 19-C , 22-C ) :   1.0433
B( 22-C , 23-H ) :   0.9181 B( 22-C , 24-H ) :   0.9396 B( 22-C , 25-C ) :   1.0674
B( 25-C , 26-H ) :   0.9664 B( 25-C , 27-H ) :   0.9506 B( 25-C , 28-C ) :   1.0676
B( 28-C , 29-H ) :   0.9753 B( 28-C , 30-H ) :   0.9718 B( 28-C , 31-H ) :   0.9753

Dispersion correction           -0.014346749
FINAL SINGLE POINT ENERGY     -1339.849104395187

DIPOLE MOMENT
-------------
                                X             Y             Z
Electronic contribution:     -3.07811     -14.69006     -13.73522
Nuclear contribution   :      3.30241      15.12890      14.23207
                        -----------------------------------------
Total Dipole Moment    :      0.22430       0.43885       0.49685
                        -----------------------------------------
Magnitude (a.u.)       :      0.69983
Magnitude (Debye)      :      1.77883

Rotational constants in cm-1:     0.019876     0.008140     0.006703
Rotational constants in MHz :   595.866509   244.043721   200.941397

                             ****ORCA TERMINATED NORMALLY****
TOTAL RUN TIME: 0 days 0 hours 0 minutes 30 seconds 335 msec
