                         Program Version 4.2.1 -  RELEASE  -
|  1> ! wB97X-D3 SP def2-SVP
|  2> %pal
|  3> nprocs 16
|  4> end
|  5>
|  6> * xyz 0 1
|  7> S 	 -79.9698 	 34.9706 	 133.842
|  8> C 	 -78.4527 	 35.0539 	 134.825
|  9> C 	 -78.4332 	 36.2927 	 135.411
| 10> C 	 -79.6381 	 37.0456 	 135.187
| 11> C 	 -80.6329 	 36.4633 	 134.448
| 12> H 	 -79.8448 	 37.9508 	 135.635
| 13> C 	 -77.3115 	 36.8201 	 136.305
| 14> H 	 -77.7057 	 37.8963 	 136.582
| 15> H 	 -76.3655 	 36.869 	 135.763
| 16> C 	 -77.0524 	 36.0644 	 137.609
| 17> H 	 -76.8585 	 34.9662 	 137.36
| 18> H 	 -76.1642 	 36.3461 	 138.138
| 19> C 	 -78.1782 	 36.1661 	 138.643
| 20> H 	 -78.2488 	 37.2236 	 139.023
| 21> H 	 -79.221 	 35.906 	 138.256
| 22> H 	 -77.9964 	 35.403 	 139.461
| 23> S 	 -83.4058 	 35.7682 	 134.389
| 24> C 	 -84.5003 	 37.1393 	 134.323
| 25> C 	 -83.8987 	 38.3403 	 134.198
| 26> C 	 -82.4822 	 38.225 	 134.152
| 27> C 	 -82.0362 	 36.9189 	 134.299
| 28> H 	 -84.545 	 39.149 	 133.979
| 29> C 	 -81.6327 	 39.4545 	 133.913
| 30> H 	 -80.6756 	 39.0924 	 133.727
| 31> H 	 -81.6134 	 40.0382 	 134.84
| 32> C 	 -82.0884 	 40.3339 	 132.74
| 33> H 	 -83.1571 	 40.5225 	 132.875
| 34> H 	 -81.9185 	 39.697 	 131.878
| 35> C 	 -81.1076 	 41.5501 	 132.545
| 36> H 	 -80.1499 	 41.2331 	 132.814
| 37> H 	 -81.2886 	 42.457 	 133.179
| 38> H 	 -81.1943 	 41.8482 	 131.498
| 39> H 	 -77.5194 	 34.3771 	 134.767
| 40> H 	 -85.4968 	 37.117 	 134.005
| 41> *
| 42>
| 43>                          ****END OF INPUT****

CARTESIAN COORDINATES (ANGSTROEM)
---------------------------------
  S    -79.969800   34.970600  133.842000
  C    -78.452700   35.053900  134.825000
  C    -78.433200   36.292700  135.411000
  C    -79.638100   37.045600  135.187000
  C    -80.632900   36.463300  134.448000
  H    -79.844800   37.950800  135.635000
  C    -77.311500   36.820100  136.305000
  H    -77.705700   37.896300  136.582000
  H    -76.365500   36.869000  135.763000
  C    -77.052400   36.064400  137.609000
  H    -76.858500   34.966200  137.360000
  H    -76.164200   36.346100  138.138000
  C    -78.178200   36.166100  138.643000
  H    -78.248800   37.223600  139.023000
  H    -79.221000   35.906000  138.256000
  H    -77.996400   35.403000  139.461000
  S    -83.405800   35.768200  134.389000
  C    -84.500300   37.139300  134.323000
  C    -83.898700   38.340300  134.198000
  C    -82.482200   38.225000  134.152000
  C    -82.036200   36.918900  134.299000
  H    -84.545000   39.149000  133.979000
  C    -81.632700   39.454500  133.913000
  H    -80.675600   39.092400  133.727000
  H    -81.613400   40.038200  134.840000
  C    -82.088400   40.333900  132.740000
  H    -83.157100   40.522500  132.875000
  H    -81.918500   39.697000  131.878000
  C    -81.107600   41.550100  132.545000
  H    -80.149900   41.233100  132.814000
  H    -81.288600   42.457000  133.179000
  H    -81.194300   41.848200  131.498000
  H    -77.519400   34.377100  134.767000
  H    -85.496800   37.117000  134.005000

 Total Charge           Charge          ....    0
 Multiplicity           Mult            ....    1
 Number of Electrons    NEL             ....  134
 Basis Dimension        Dim             ....  322

ORBITAL ENERGIES
----------------

  NO   OCC          E(Eh)            E(eV)
   0   2.0000     -88.969543     -2420.9843
   1   2.0000     -88.963836     -2420.8291
   2   2.0000     -10.335721      -281.2493
   3   2.0000     -10.333638      -281.1926
   4   2.0000     -10.325518      -280.9716
   5   2.0000     -10.310347      -280.5588
   6   2.0000     -10.304678      -280.4046
   7   2.0000     -10.303683      -280.3775
   8   2.0000     -10.303471      -280.3717
   9   2.0000     -10.291214      -280.0382
  10   2.0000     -10.290280      -280.0128
  11   2.0000     -10.288750      -279.9711
  12   2.0000     -10.288230      -279.9570
  13   2.0000     -10.287138      -279.9273
  14   2.0000     -10.284781      -279.8631
  15   2.0000     -10.281935      -279.7857
  16   2.0000      -8.083447      -219.9618
  17   2.0000      -8.077856      -219.8096
  18   2.0000      -6.042123      -164.4145
  19   2.0000      -6.038226      -164.3085
  20   2.0000      -6.036610      -164.2645
  21   2.0000      -6.033922      -164.1914
  22   2.0000      -6.032346      -164.1485
  23   2.0000      -6.028464      -164.0429
  24   2.0000      -1.005628       -27.3645
  25   2.0000      -0.985302       -26.8114
  26   2.0000      -0.911629       -24.8067
  27   2.0000      -0.909540       -24.7498
  28   2.0000      -0.870401       -23.6848
  29   2.0000      -0.850815       -23.1519
  30   2.0000      -0.839660       -22.8483
  31   2.0000      -0.819820       -22.3084
  32   2.0000      -0.781762       -21.2728
  33   2.0000      -0.771663       -20.9980
  34   2.0000      -0.708250       -19.2725
  35   2.0000      -0.704611       -19.1734
  36   2.0000      -0.694288       -18.8925
  37   2.0000      -0.656915       -17.8756
  38   2.0000      -0.634743       -17.2722
  39   2.0000      -0.619021       -16.8444
  40   2.0000      -0.596913       -16.2428
  41   2.0000      -0.572939       -15.5905
  42   2.0000      -0.568909       -15.4808
  43   2.0000      -0.550708       -14.9855
  44   2.0000      -0.543294       -14.7838
  45   2.0000      -0.529149       -14.3989
  46   2.0000      -0.517499       -14.0819
  47   2.0000      -0.508944       -13.8491
  48   2.0000      -0.507011       -13.7965
  49   2.0000      -0.501259       -13.6399
  50   2.0000      -0.482708       -13.1352
  51   2.0000      -0.477261       -12.9869
  52   2.0000      -0.469818       -12.7844
  53   2.0000      -0.462419       -12.5831
  54   2.0000      -0.461184       -12.5495
  55   2.0000      -0.451379       -12.2827
  56   2.0000      -0.436304       -11.8724
  57   2.0000      -0.432687       -11.7740
  58   2.0000      -0.431335       -11.7372
  59   2.0000      -0.427312       -11.6278
  60   2.0000      -0.425309       -11.5732
  61   2.0000      -0.420313       -11.4373
  62   2.0000      -0.402310       -10.9474
  63   2.0000      -0.355302        -9.6683
  64   2.0000      -0.335117        -9.1190
  65   2.0000      -0.328883        -8.9494
  66   2.0000      -0.294519        -8.0143
  67   0.0000       0.020876         0.5681
  68   0.0000       0.075690         2.0596
  69   0.0000       0.102290         2.7834
  70   0.0000       0.120703         3.2845
  71   0.0000       0.134926         3.6715

MULLIKEN ATOMIC CHARGES
-----------------------
   0 S :    0.084076
   1 C :   -0.154889
   2 C :   -0.078218
   3 C :    0.043198
   4 C :   -0.141679
   5 H :   -0.024429
   6 C :    0.035270
   7 H :    0.033979
   8 H :    0.044223
   9 C :   -0.063016
  10 H :    0.027938
  11 H :    0.028209
  12 C :   -0.109615
  13 H :    0.040541
  14 H :    0.052089
  15 H :    0.046169
  16 S :    0.110329
  17 C :   -0.059257
  18 C :   -0.042513
  19 C :   -0.056771
  20 C :   -0.132377
  21 H :    0.012516
  22 C :    0.086822
  23 H :    0.003984
  24 H :    0.038294
  25 C :   -0.096667
  26 H :    0.037332
  27 H :    0.034659
  28 C :   -0.024426
  29 H :    0.017031
  30 H :    0.037678
  31 H :    0.041896
  32 H :    0.087350
  33 H :    0.040273
Sum of atomic charges:   -0.0000000

LOEWDIN ATOMIC CHARGES
----------------------
   0 S :    0.379961
   1 C :   -0.194099
   2 C :   -0.069601
   3 C :   -0.064093
   4 C :   -0.187776
   5 H :    0.014167
   6 C :   -0.036207
   7 H :    0.038544
   8 H :    0.033491
   9 C :   -0.050027
  10 H :    0.027175
  11 H :    0.022731
  12 C :   -0.080224
  13 H :    0.027566
  14 H :    0.032119
  15 H :    0.033389
  16 S :    0.386706
  17 C :   -0.171236
  18 C :   -0.066467
  19 C :   -0.048017
  20 C :   -0.185131
  21 H :    0.029091
  22 C :   -0.031188
  23 H :    0.016806
  24 H :    0.031781
  25 C :   -0.033781
  26 H :    0.021152
  27 H :    0.028923
  28 C :   -0.058865
  29 H :    0.017164
  30 H :    0.030120
  31 H :    0.029783
  32 H :    0.053917
  33 H :    0.022125

  Mayer bond orders larger than 0.100000
B(  0-S ,  1-C ) :   1.1178 B(  0-S ,  4-C ) :   1.1430 B(  1-C ,  2-C ) :   1.6161
B(  1-C , 32-H ) :   0.9569 B(  2-C ,  3-C ) :   1.2457 B(  2-C ,  6-C ) :   1.0073
B(  3-C ,  4-C ) :   1.5716 B(  3-C ,  5-H ) :   0.9996 B(  4-C , 20-C ) :   1.0466
B(  6-C ,  7-H ) :   0.9474 B(  6-C ,  8-H ) :   0.9380 B(  6-C ,  9-C ) :   1.0735
B(  9-C , 10-H ) :   0.9517 B(  9-C , 11-H ) :   0.9549 B(  9-C , 12-C ) :   1.0707
B( 12-C , 13-H ) :   0.9729 B( 12-C , 14-H ) :   0.9770 B( 12-C , 15-H ) :   0.9730
B( 16-S , 17-C ) :   1.1402 B( 16-S , 20-C ) :   1.1152 B( 17-C , 18-C ) :   1.6702
B( 17-C , 33-H ) :   0.9564 B( 18-C , 19-C ) :   1.2113 B( 18-C , 21-H ) :   0.9896
B( 19-C , 20-C ) :   1.6172 B( 19-C , 22-C ) :   1.0402 B( 22-C , 23-H ) :   0.9228
B( 22-C , 24-H ) :   0.9298 B( 22-C , 25-C ) :   1.0667 B( 25-C , 26-H ) :   0.9587
B( 25-C , 27-H ) :   0.9577 B( 25-C , 28-C ) :   1.0699 B( 28-C , 29-H ) :   0.9730
B( 28-C , 30-H ) :   0.9765 B( 28-C , 31-H ) :   0.9789

Dispersion correction           -0.013831368
FINAL SINGLE POINT ENERGY     -1339.860103334832

DIPOLE MOMENT
-------------
                                X             Y             Z
Electronic contribution:    -13.13816     -19.34922      -8.22329
Nuclear contribution   :     13.41216      19.99990       8.28460
                        -----------------------------------------
Total Dipole Moment    :      0.27400       0.65068       0.06131
                        -----------------------------------------
Magnitude (a.u.)       :      0.70868
Magnitude (Debye)      :      1.80131

Rotational constants in cm-1:     0.017526     0.008231     0.006776
Rotational constants in MHz :   525.416151   246.746751   203.129896

                             ****ORCA TERMINATED NORMALLY****
TOTAL RUN TIME: 0 days 0 hours 0 minutes 34 seconds 461 msec
