                         Program Version 4.2.1 -  RELEASE  -
|  1> ! wB97X-D3 SP def2-SVP
|  2> %pal
|  3> nprocs 16
|  4> end
|  5>
|  6> * xyz 0 1
|  7> S 	 4.43458 	 -27.8561 	 77.1167
|  8> C 	 3.28099 	 -28.9341 	 77.8915
|  9> C 	 3.83044 	 -29.4865 	 79.0463
| 10> C 	 5.31265 	 -29.2514 	 79.1191
| 11> C 	 5.7836 	 -28.4008 	 78.1151
| 12> H 	 5.96902 	 -29.7227 	 79.8359
| 13> C 	 3.08616 	 -30.4844 	 79.9127
| 14> H 	 3.66906 	 -31.4136 	 79.8447
| 15> H 	 2.18752 	 -30.6964 	 79.3591
| 16> C 	 2.74712 	 -29.8783 	 81.3039
| 17> H 	 2.12637 	 -30.5568 	 82.0285
| 18> H 	 3.64122 	 -29.6434 	 81.8318
| 19> C 	 1.99453 	 -28.6339 	 81.2312
| 20> H 	 1.8362 	 -28.1732 	 82.2089
| 21> H 	 2.50027 	 -27.7769 	 80.6539
| 22> H 	 1.0067 	 -28.8741 	 80.9275
| 23> S 	 7.15955 	 -26.0261 	 78.2441
| 24> C 	 8.92524 	 -26.0913 	 78.1548
| 25> C 	 9.35809 	 -27.3757 	 78.0154
| 26> C 	 8.35035 	 -28.3094 	 77.8186
| 27> C 	 7.08465 	 -27.8047 	 78.0444
| 28> H 	 10.4529 	 -27.4932 	 77.9902
| 29> C 	 8.72312 	 -29.8077 	 77.645
| 30> H 	 9.57157 	 -29.8061 	 76.8887
| 31> H 	 7.82441 	 -30.2642 	 77.3376
| 32> C 	 9.17075 	 -30.4301 	 78.9653
| 33> H 	 8.33539 	 -30.3488 	 79.6611
| 34> H 	 10.0447 	 -29.9347 	 79.3679
| 35> C 	 9.48511 	 -31.9496 	 78.8371
| 36> H 	 8.79269 	 -32.3975 	 78.1501
| 37> H 	 9.43464 	 -32.3898 	 79.8433
| 38> H 	 10.6001 	 -32.1142 	 78.55
| 39> H 	 2.26592 	 -29.0986 	 77.4131
| 40> H 	 9.49108 	 -25.1977 	 78.4073
| 41> *
| 42>
| 43>                          ****END OF INPUT****

CARTESIAN COORDINATES (ANGSTROEM)
---------------------------------
  S      4.434580  -27.856100   77.116700
  C      3.280990  -28.934100   77.891500
  C      3.830440  -29.486500   79.046300
  C      5.312650  -29.251400   79.119100
  C      5.783600  -28.400800   78.115100
  H      5.969020  -29.722700   79.835900
  C      3.086160  -30.484400   79.912700
  H      3.669060  -31.413600   79.844700
  H      2.187520  -30.696400   79.359100
  C      2.747120  -29.878300   81.303900
  H      2.126370  -30.556800   82.028500
  H      3.641220  -29.643400   81.831800
  C      1.994530  -28.633900   81.231200
  H      1.836200  -28.173200   82.208900
  H      2.500270  -27.776900   80.653900
  H      1.006700  -28.874100   80.927500
  S      7.159550  -26.026100   78.244100
  C      8.925240  -26.091300   78.154800
  C      9.358090  -27.375700   78.015400
  C      8.350350  -28.309400   77.818600
  C      7.084650  -27.804700   78.044400
  H     10.452900  -27.493200   77.990200
  C      8.723120  -29.807700   77.645000
  H      9.571570  -29.806100   76.888700
  H      7.824410  -30.264200   77.337600
  C      9.170750  -30.430100   78.965300
  H      8.335390  -30.348800   79.661100
  H     10.044700  -29.934700   79.367900
  C      9.485110  -31.949600   78.837100
  H      8.792690  -32.397500   78.150100
  H      9.434640  -32.389800   79.843300
  H     10.600100  -32.114200   78.550000
  H      2.265920  -29.098600   77.413100
  H      9.491080  -25.197700   78.407300

 Total Charge           Charge          ....    0
 Multiplicity           Mult            ....    1
 Number of Electrons    NEL             ....  134
 Basis Dimension        Dim             ....  322

ORBITAL ENERGIES
----------------

  NO   OCC          E(Eh)            E(eV)
   0   2.0000     -88.963038     -2420.8073
   1   2.0000     -88.960934     -2420.7501
   2   2.0000     -10.332566      -281.1634
   3   2.0000     -10.326854      -281.0080
   4   2.0000     -10.324527      -280.9447
   5   2.0000     -10.316307      -280.7210
   6   2.0000     -10.311037      -280.5776
   7   2.0000     -10.305403      -280.4243
   8   2.0000     -10.300603      -280.2936
   9   2.0000     -10.295365      -280.1511
  10   2.0000     -10.294277      -280.1215
  11   2.0000     -10.290699      -280.0241
  12   2.0000     -10.289559      -279.9931
  13   2.0000     -10.286847      -279.9193
  14   2.0000     -10.285349      -279.8786
  15   2.0000     -10.270794      -279.4825
  16   2.0000      -8.077730      -219.8062
  17   2.0000      -8.075296      -219.7400
  18   2.0000      -6.036404      -164.2589
  19   2.0000      -6.033781      -164.1875
  20   2.0000      -6.032148      -164.1431
  21   2.0000      -6.029964      -164.0837
  22   2.0000      -6.028397      -164.0410
  23   2.0000      -6.025993      -163.9756
  24   2.0000      -1.003490       -27.3064
  25   2.0000      -0.979281       -26.6476
  26   2.0000      -0.917035       -24.9538
  27   2.0000      -0.907448       -24.6929
  28   2.0000      -0.872906       -23.7530
  29   2.0000      -0.848137       -23.0790
  30   2.0000      -0.844044       -22.9676
  31   2.0000      -0.813702       -22.1419
  32   2.0000      -0.780060       -21.2265
  33   2.0000      -0.768923       -20.9235
  34   2.0000      -0.706111       -19.2143
  35   2.0000      -0.693074       -18.8595
  36   2.0000      -0.688161       -18.7258
  37   2.0000      -0.659951       -17.9582
  38   2.0000      -0.641315       -17.4511
  39   2.0000      -0.617091       -16.7919
  40   2.0000      -0.596217       -16.2239
  41   2.0000      -0.568963       -15.4823
  42   2.0000      -0.564391       -15.3579
  43   2.0000      -0.557802       -15.1786
  44   2.0000      -0.545624       -14.8472
  45   2.0000      -0.531517       -14.4633
  46   2.0000      -0.515397       -14.0247
  47   2.0000      -0.512783       -13.9535
  48   2.0000      -0.504197       -13.7199
  49   2.0000      -0.497019       -13.5246
  50   2.0000      -0.484167       -13.1749
  51   2.0000      -0.477454       -12.9922
  52   2.0000      -0.469228       -12.7683
  53   2.0000      -0.465247       -12.6600
  54   2.0000      -0.453622       -12.3437
  55   2.0000      -0.446548       -12.1512
  56   2.0000      -0.441257       -12.0072
  57   2.0000      -0.437880       -11.9153
  58   2.0000      -0.431903       -11.7527
  59   2.0000      -0.423143       -11.5143
  60   2.0000      -0.418588       -11.3903
  61   2.0000      -0.410709       -11.1760
  62   2.0000      -0.407537       -11.0896
  63   2.0000      -0.345102        -9.3907
  64   2.0000      -0.332499        -9.0478
  65   2.0000      -0.324728        -8.8363
  66   2.0000      -0.295734        -8.0473
  67   0.0000       0.033993         0.9250
  68   0.0000       0.056276         1.5314
  69   0.0000       0.110863         3.0167
  70   0.0000       0.115679         3.1478
  71   0.0000       0.131118         3.5679

MULLIKEN ATOMIC CHARGES
-----------------------
   0 S :    0.099932
   1 C :   -0.145125
   2 C :   -0.133498
   3 C :    0.040285
   4 C :   -0.153879
   5 H :    0.017364
   6 C :    0.094617
   7 H :    0.041931
   8 H :    0.008299
   9 C :   -0.071536
  10 H :    0.041934
  11 H :    0.021282
  12 C :   -0.064127
  13 H :    0.024223
  14 H :    0.061285
  15 H :    0.015201
  16 S :    0.087228
  17 C :   -0.104739
  18 C :   -0.042106
  19 C :   -0.022591
  20 C :   -0.167014
  21 H :    0.029352
  22 C :    0.086606
  23 H :    0.040413
  24 H :    0.017001
  25 C :   -0.083152
  26 H :    0.023279
  27 H :    0.027639
  28 C :   -0.056170
  29 H :    0.036055
  30 H :    0.036685
  31 H :    0.042334
  32 H :    0.086698
  33 H :    0.064296
Sum of atomic charges:   -0.0000000

LOEWDIN ATOMIC CHARGES
----------------------
   0 S :    0.389436
   1 C :   -0.199433
   2 C :   -0.061230
   3 C :   -0.055262
   4 C :   -0.196446
   5 H :    0.027566
   6 C :   -0.031189
   7 H :    0.036080
   8 H :    0.026312
   9 C :   -0.048434
  10 H :    0.036028
  11 H :    0.018064
  12 C :   -0.073082
  13 H :    0.027127
  14 H :    0.038332
  15 H :    0.017224
  16 S :    0.374943
  17 C :   -0.172231
  18 C :   -0.078532
  19 C :   -0.056922
  20 C :   -0.186981
  21 H :    0.038258
  22 C :   -0.021670
  23 H :    0.038331
  24 H :    0.022185
  25 C :   -0.039339
  26 H :    0.021018
  27 H :    0.021883
  28 C :   -0.069263
  29 H :    0.021261
  30 H :    0.027600
  31 H :    0.034214
  32 H :    0.044705
  33 H :    0.029447

  Mayer bond orders larger than 0.100000
B(  0-S ,  1-C ) :   1.1329 B(  0-S ,  4-C ) :   1.1374 B(  1-C ,  2-C ) :   1.6182
B(  1-C , 32-H ) :   0.9592 B(  2-C ,  3-C ) :   1.2027 B(  2-C ,  6-C ) :   1.0197
B(  3-C ,  4-C ) :   1.5866 B(  3-C ,  5-H ) :   0.9905 B(  4-C , 20-C ) :   1.0519
B(  6-C ,  7-H ) :   0.9490 B(  6-C ,  8-H ) :   0.9458 B(  6-C ,  9-C ) :   1.0401
B(  9-C , 10-H ) :   0.9564 B(  9-C , 11-H ) :   0.9590 B(  9-C , 12-C ) :   1.0958
B( 12-C , 13-H ) :   0.9670 B( 12-C , 14-H ) :   0.9631 B( 12-C , 15-H ) :   0.9735
B( 16-S , 17-C ) :   1.1467 B( 16-S , 20-C ) :   1.1316 B( 17-C , 18-C ) :   1.6273
B( 17-C , 20-C ) :   0.1070 B( 17-C , 33-H ) :   0.9656 B( 18-C , 19-C ) :   1.2179
B( 18-C , 21-H ) :   0.9864 B( 19-C , 20-C ) :   1.6123 B( 19-C , 22-C ) :   1.0464
B( 22-C , 23-H ) :   0.9361 B( 22-C , 24-H ) :   0.9232 B( 22-C , 25-C ) :   1.0806
B( 25-C , 26-H ) :   0.9536 B( 25-C , 27-H ) :   0.9550 B( 25-C , 28-C ) :   1.0786
B( 28-C , 29-H ) :   0.9750 B( 28-C , 30-H ) :   0.9759 B( 28-C , 31-H ) :   0.9761

Dispersion correction           -0.014368531
FINAL SINGLE POINT ENERGY     -1339.866709895645

DIPOLE MOMENT
-------------
                                X             Y             Z
Electronic contribution:      0.26206      19.90714     -14.10049
Nuclear contribution   :     -0.11950     -20.41569      14.52039
                        -----------------------------------------
Total Dipole Moment    :      0.14256      -0.50855       0.41990
                        -----------------------------------------
Magnitude (a.u.)       :      0.67473
Magnitude (Debye)      :      1.71503

Rotational constants in cm-1:     0.017866     0.008767     0.006956
Rotational constants in MHz :   535.597137   262.819856   208.541664

                             ****ORCA TERMINATED NORMALLY****
TOTAL RUN TIME: 0 days 0 hours 0 minutes 34 seconds 651 msec
