                         Program Version 4.2.1 -  RELEASE  -
|  1> ! wB97X-D3 SP def2-SVP
|  2> %pal
|  3> nprocs 16
|  4> end
|  5>
|  6> * xyz 0 1
|  7> S 	 -5.65602 	 -10.564 	 84.4125
|  8> C 	 -5.84907 	 -9.92849 	 82.8757
|  9> C 	 -6.62561 	 -8.80327 	 82.8993
| 10> C 	 -7.28442 	 -8.57042 	 84.1419
| 11> C 	 -6.98273 	 -9.6135 	 85.0053
| 12> H 	 -7.94314 	 -7.8192 	 84.5356
| 13> C 	 -6.97711 	 -7.96645 	 81.7411
| 14> H 	 -6.1838 	 -7.9649 	 80.9207
| 15> H 	 -7.02561 	 -6.89852 	 82.1521
| 16> C 	 -8.3225 	 -8.40657 	 81.1449
| 17> H 	 -8.31592 	 -9.52924 	 81.0975
| 18> H 	 -9.08943 	 -8.25115 	 81.9263
| 19> C 	 -8.61873 	 -7.78981 	 79.7155
| 20> H 	 -8.08642 	 -8.38998 	 78.974
| 21> H 	 -9.70762 	 -7.84624 	 79.548
| 22> H 	 -8.20818 	 -6.75679 	 79.5135
| 23> S 	 -6.72083 	 -10.2685 	 87.6239
| 24> C 	 -8.17505 	 -10.7932 	 88.4461
| 25> C 	 -9.34774 	 -10.8334 	 87.6963
| 26> C 	 -9.02612 	 -10.2457 	 86.4306
| 27> C 	 -7.69777 	 -9.89973 	 86.2435
| 28> H 	 -10.3555 	 -11.057 	 88.1414
| 29> C 	 -10.1476 	 -10.089 	 85.3964
| 30> H 	 -10.7294 	 -11.0272 	 85.5077
| 31> H 	 -9.64051 	 -10.1715 	 84.4328
| 32> C 	 -11.035 	 -8.92115 	 85.6802
| 33> H 	 -10.6343 	 -8.01758 	 86.2627
| 34> H 	 -11.9605 	 -9.32199 	 86.1255
| 35> C 	 -11.3222 	 -8.20602 	 84.3283
| 36> H 	 -10.4573 	 -7.69202 	 83.824
| 37> H 	 -12.0428 	 -7.4308 	 84.4456
| 38> H 	 -11.7658 	 -8.92789 	 83.5788
| 39> H 	 -5.35174 	 -10.1895 	 81.9858
| 40> H 	 -8.15186 	 -11.1465 	 89.4653
| 41> *
| 42>
| 43>                          ****END OF INPUT****

CARTESIAN COORDINATES (ANGSTROEM)
---------------------------------
  S     -5.656020  -10.564000   84.412500
  C     -5.849070   -9.928490   82.875700
  C     -6.625610   -8.803270   82.899300
  C     -7.284420   -8.570420   84.141900
  C     -6.982730   -9.613500   85.005300
  H     -7.943140   -7.819200   84.535600
  C     -6.977110   -7.966450   81.741100
  H     -6.183800   -7.964900   80.920700
  H     -7.025610   -6.898520   82.152100
  C     -8.322500   -8.406570   81.144900
  H     -8.315920   -9.529240   81.097500
  H     -9.089430   -8.251150   81.926300
  C     -8.618730   -7.789810   79.715500
  H     -8.086420   -8.389980   78.974000
  H     -9.707620   -7.846240   79.548000
  H     -8.208180   -6.756790   79.513500
  S     -6.720830  -10.268500   87.623900
  C     -8.175050  -10.793200   88.446100
  C     -9.347740  -10.833400   87.696300
  C     -9.026120  -10.245700   86.430600
  C     -7.697770   -9.899730   86.243500
  H    -10.355500  -11.057000   88.141400
  C    -10.147600  -10.089000   85.396400
  H    -10.729400  -11.027200   85.507700
  H     -9.640510  -10.171500   84.432800
  C    -11.035000   -8.921150   85.680200
  H    -10.634300   -8.017580   86.262700
  H    -11.960500   -9.321990   86.125500
  C    -11.322200   -8.206020   84.328300
  H    -10.457300   -7.692020   83.824000
  H    -12.042800   -7.430800   84.445600
  H    -11.765800   -8.927890   83.578800
  H     -5.351740  -10.189500   81.985800
  H     -8.151860  -11.146500   89.465300

 Total Charge           Charge          ....    0
 Multiplicity           Mult            ....    1
 Number of Electrons    NEL             ....  134
 Basis Dimension        Dim             ....  322

ORBITAL ENERGIES
----------------

  NO   OCC          E(Eh)            E(eV)
   0   2.0000     -88.966724     -2420.9076
   1   2.0000     -88.963688     -2420.8250
   2   2.0000     -10.322754      -280.8964
   3   2.0000     -10.319113      -280.7973
   4   2.0000     -10.318577      -280.7827
   5   2.0000     -10.302115      -280.3348
   6   2.0000     -10.300073      -280.2792
   7   2.0000     -10.299857      -280.2733
   8   2.0000     -10.295214      -280.1470
   9   2.0000     -10.294725      -280.1337
  10   2.0000     -10.293222      -280.0928
  11   2.0000     -10.292474      -280.0724
  12   2.0000     -10.289373      -279.9881
  13   2.0000     -10.288144      -279.9546
  14   2.0000     -10.288060      -279.9524
  15   2.0000     -10.283142      -279.8185
  16   2.0000      -8.082007      -219.9226
  17   2.0000      -8.080136      -219.8717
  18   2.0000      -6.040384      -164.3672
  19   2.0000      -6.038509      -164.3162
  20   2.0000      -6.036595      -164.2641
  21   2.0000      -6.034568      -164.2089
  22   2.0000      -6.032741      -164.1592
  23   2.0000      -6.030769      -164.1056
  24   2.0000      -1.014679       -27.6108
  25   2.0000      -0.990538       -26.9539
  26   2.0000      -0.912669       -24.8350
  27   2.0000      -0.908657       -24.7258
  28   2.0000      -0.869983       -23.6735
  29   2.0000      -0.851937       -23.1824
  30   2.0000      -0.844536       -22.9810
  31   2.0000      -0.813119       -22.1261
  32   2.0000      -0.777312       -21.1517
  33   2.0000      -0.766253       -20.8508
  34   2.0000      -0.703387       -19.1401
  35   2.0000      -0.695998       -18.9391
  36   2.0000      -0.691157       -18.8073
  37   2.0000      -0.663289       -18.0490
  38   2.0000      -0.646819       -17.6008
  39   2.0000      -0.614438       -16.7197
  40   2.0000      -0.591315       -16.0905
  41   2.0000      -0.569393       -15.4940
  42   2.0000      -0.561917       -15.2905
  43   2.0000      -0.548152       -14.9160
  44   2.0000      -0.529790       -14.4163
  45   2.0000      -0.524640       -14.2762
  46   2.0000      -0.519382       -14.1331
  47   2.0000      -0.506583       -13.7848
  48   2.0000      -0.505711       -13.7611
  49   2.0000      -0.496574       -13.5125
  50   2.0000      -0.486925       -13.2499
  51   2.0000      -0.479119       -13.0375
  52   2.0000      -0.475670       -12.9436
  53   2.0000      -0.466223       -12.6866
  54   2.0000      -0.463926       -12.6241
  55   2.0000      -0.449380       -12.2283
  56   2.0000      -0.444240       -12.0884
  57   2.0000      -0.439829       -11.9684
  58   2.0000      -0.431319       -11.7368
  59   2.0000      -0.424141       -11.5415
  60   2.0000      -0.420641       -11.4462
  61   2.0000      -0.406953       -11.0738
  62   2.0000      -0.400542       -10.8993
  63   2.0000      -0.345060        -9.3896
  64   2.0000      -0.333810        -9.0834
  65   2.0000      -0.326356        -8.8806
  66   2.0000      -0.286388        -7.7930
  67   0.0000       0.034536         0.9398
  68   0.0000       0.065867         1.7923
  69   0.0000       0.105551         2.8722
  70   0.0000       0.119602         3.2545
  71   0.0000       0.132381         3.6023

MULLIKEN ATOMIC CHARGES
-----------------------
   0 S :    0.135273
   1 C :   -0.078953
   2 C :   -0.081226
   3 C :    0.013386
   4 C :   -0.153286
   5 H :    0.011231
   6 C :    0.018362
   7 H :    0.026476
   8 H :    0.041456
   9 C :   -0.089536
  10 H :    0.034187
  11 H :    0.019701
  12 C :   -0.050940
  13 H :    0.034119
  14 H :    0.046224
  15 H :    0.043368
  16 S :    0.105242
  17 C :   -0.091738
  18 C :   -0.037922
  19 C :   -0.083376
  20 C :   -0.165441
  21 H :    0.049982
  22 C :    0.072014
  23 H :    0.027878
  24 H :    0.042390
  25 C :   -0.058481
  26 H :    0.059152
  27 H :    0.039050
  28 C :   -0.102314
  29 H :    0.048626
  30 H :    0.020287
  31 H :    0.035024
  32 H :    0.019937
  33 H :    0.049850
Sum of atomic charges:   -0.0000000

LOEWDIN ATOMIC CHARGES
----------------------
   0 S :    0.435365
   1 C :   -0.218813
   2 C :   -0.068362
   3 C :   -0.062678
   4 C :   -0.193935
   5 H :    0.033026
   6 C :   -0.044735
   7 H :    0.028355
   8 H :    0.038702
   9 C :   -0.046898
  10 H :    0.029338
  11 H :    0.020751
  12 C :   -0.072975
  13 H :    0.026096
  14 H :    0.030751
  15 H :    0.031791
  16 S :    0.409215
  17 C :   -0.171002
  18 C :   -0.078223
  19 C :   -0.046692
  20 C :   -0.220150
  21 H :    0.047301
  22 C :   -0.035968
  23 H :    0.036557
  24 H :    0.031207
  25 C :   -0.046714
  26 H :    0.039201
  27 H :    0.030005
  28 C :   -0.072182
  29 H :    0.026556
  30 H :    0.015532
  31 H :    0.026349
  32 H :    0.022036
  33 H :    0.021197

  Mayer bond orders larger than 0.100000
B(  0-S ,  1-C ) :   1.1394 B(  0-S ,  4-C ) :   1.1627 B(  1-C ,  2-C ) :   1.6100
B(  1-C , 32-H ) :   0.9726 B(  2-C ,  3-C ) :   1.1974 B(  2-C ,  6-C ) :   1.0466
B(  3-C ,  4-C ) :   1.5596 B(  3-C ,  5-H ) :   1.0096 B(  4-C , 20-C ) :   1.0378
B(  6-C ,  7-H ) :   0.9443 B(  6-C ,  8-H ) :   0.9328 B(  6-C ,  9-C ) :   1.0519
B(  9-C , 10-H ) :   0.9556 B(  9-C , 11-H ) :   0.9548 B(  9-C , 12-C ) :   1.0558
B( 12-C , 13-H ) :   0.9763 B( 12-C , 14-H ) :   0.9765 B( 12-C , 15-H ) :   0.9776
B( 16-S , 17-C ) :   1.1722 B( 16-S , 20-C ) :   1.1181 B( 17-C , 18-C ) :   1.6164
B( 17-C , 33-H ) :   0.9634 B( 18-C , 19-C ) :   1.2368 B( 18-C , 21-H ) :   0.9806
B( 19-C , 20-C ) :   1.6193 B( 19-C , 22-C ) :   1.0370 B( 22-C , 23-H ) :   0.9327
B( 22-C , 24-H ) :   0.9445 B( 22-C , 25-C ) :   1.0279 B( 25-C , 26-H ) :   0.9645
B( 25-C , 27-H ) :   0.9507 B( 25-C , 28-C ) :   1.0781 B( 28-C , 29-H ) :   0.9715
B( 28-C , 30-H ) :   0.9709 B( 28-C , 31-H ) :   0.9744

Dispersion correction           -0.015614876
FINAL SINGLE POINT ENERGY     -1339.856332006728

DIPOLE MOMENT
-------------
                                X             Y             Z
Electronic contribution:     21.77412     -12.44890      21.55679
Nuclear contribution   :    -22.38775      12.56798     -21.77474
                        -----------------------------------------
Total Dipole Moment    :     -0.61363       0.11907      -0.21795
                        -----------------------------------------
Magnitude (a.u.)       :      0.66198
Magnitude (Debye)      :      1.68263

Rotational constants in cm-1:     0.019294     0.009967     0.006964
Rotational constants in MHz :   578.413522   298.813386   208.778103

                             ****ORCA TERMINATED NORMALLY****
TOTAL RUN TIME: 0 days 0 hours 0 minutes 36 seconds 428 msec
