                         Program Version 4.2.1 -  RELEASE  -
|  1> ! wB97X-D3 SP def2-SVP
|  2> %pal
|  3> nprocs 16
|  4> end
|  5>
|  6> * xyz 0 1
|  7> S 	 43.5265 	 19.0204 	 45.9721
|  8> C 	 42.8875 	 18.9851 	 44.3405
|  9> C 	 43.9321 	 19.1526 	 43.4579
| 10> C 	 45.2422 	 19.21 	 44.0709
| 11> C 	 45.1319 	 19.2883 	 45.4521
| 12> H 	 46.2049 	 19.13 	 43.6207
| 13> C 	 43.8004 	 19.2365 	 41.947
| 14> H 	 43.1387 	 18.459 	 41.5755
| 15> H 	 44.8458 	 18.9959 	 41.597
| 16> C 	 43.2489 	 20.571 	 41.2715
| 17> H 	 43.9012 	 21.402 	 41.608
| 18> H 	 43.3769 	 20.3989 	 40.1973
| 19> C 	 41.8192 	 20.8988 	 41.6834
| 20> H 	 41.7666 	 21.052 	 42.693
| 21> H 	 41.443 	 21.8035 	 41.1783
| 22> H 	 41.034 	 20.1901 	 41.5171
| 23> S 	 45.8939 	 18.8657 	 47.9999
| 24> C 	 47.4323 	 19.4568 	 48.5804
| 25> C 	 48.1136 	 20.1225 	 47.5675
| 26> C 	 47.4527 	 20.1806 	 46.3116
| 27> C 	 46.1623 	 19.5581 	 46.3977
| 28> H 	 49.1277 	 20.528 	 47.7636
| 29> C 	 48.164 	 20.9237 	 45.2414
| 30> H 	 48.4892 	 21.8587 	 45.5927
| 31> H 	 47.3826 	 21.2114 	 44.5105
| 32> C 	 49.3209 	 20.2047 	 44.5855
| 33> H 	 50.0847 	 19.8578 	 45.4405
| 34> H 	 49.9087 	 20.9143 	 43.9402
| 35> C 	 48.9318 	 18.8854 	 43.9355
| 36> H 	 48.467 	 18.1158 	 44.6096
| 37> H 	 49.8884 	 18.4466 	 43.4531
| 38> H 	 48.2604 	 18.9786 	 43.0404
| 39> H 	 41.8588 	 18.9283 	 44.0164
| 40> H 	 47.7791 	 19.354 	 49.5516
| 41> *
| 42>
| 43>                          ****END OF INPUT****

CARTESIAN COORDINATES (ANGSTROEM)
---------------------------------
  S     43.526500   19.020400   45.972100
  C     42.887500   18.985100   44.340500
  C     43.932100   19.152600   43.457900
  C     45.242200   19.210000   44.070900
  C     45.131900   19.288300   45.452100
  H     46.204900   19.130000   43.620700
  C     43.800400   19.236500   41.947000
  H     43.138700   18.459000   41.575500
  H     44.845800   18.995900   41.597000
  C     43.248900   20.571000   41.271500
  H     43.901200   21.402000   41.608000
  H     43.376900   20.398900   40.197300
  C     41.819200   20.898800   41.683400
  H     41.766600   21.052000   42.693000
  H     41.443000   21.803500   41.178300
  H     41.034000   20.190100   41.517100
  S     45.893900   18.865700   47.999900
  C     47.432300   19.456800   48.580400
  C     48.113600   20.122500   47.567500
  C     47.452700   20.180600   46.311600
  C     46.162300   19.558100   46.397700
  H     49.127700   20.528000   47.763600
  C     48.164000   20.923700   45.241400
  H     48.489200   21.858700   45.592700
  H     47.382600   21.211400   44.510500
  C     49.320900   20.204700   44.585500
  H     50.084700   19.857800   45.440500
  H     49.908700   20.914300   43.940200
  C     48.931800   18.885400   43.935500
  H     48.467000   18.115800   44.609600
  H     49.888400   18.446600   43.453100
  H     48.260400   18.978600   43.040400
  H     41.858800   18.928300   44.016400
  H     47.779100   19.354000   49.551600

 Total Charge           Charge          ....    0
 Multiplicity           Mult            ....    1
 Number of Electrons    NEL             ....  134
 Basis Dimension        Dim             ....  322

ORBITAL ENERGIES
----------------

  NO   OCC          E(Eh)            E(eV)
   0   2.0000     -88.967934     -2420.9406
   1   2.0000     -88.965156     -2420.8650
   2   2.0000     -10.333806      -281.1971
   3   2.0000     -10.325797      -280.9792
   4   2.0000     -10.315196      -280.6908
   5   2.0000     -10.311873      -280.6003
   6   2.0000     -10.308190      -280.5001
   7   2.0000     -10.304892      -280.4104
   8   2.0000     -10.300979      -280.3039
   9   2.0000     -10.295722      -280.1608
  10   2.0000     -10.294408      -280.1251
  11   2.0000     -10.293996      -280.1139
  12   2.0000     -10.292751      -280.0800
  13   2.0000     -10.291029      -280.0331
  14   2.0000     -10.288949      -279.9765
  15   2.0000     -10.269711      -279.4531
  16   2.0000      -8.082487      -219.9357
  17   2.0000      -8.080616      -219.8848
  18   2.0000      -6.041018      -164.3845
  19   2.0000      -6.039209      -164.3352
  20   2.0000      -6.036948      -164.2737
  21   2.0000      -6.035014      -164.2211
  22   2.0000      -6.033324      -164.1751
  23   2.0000      -6.031248      -164.1186
  24   2.0000      -1.011124       -27.5141
  25   2.0000      -0.983279       -26.7564
  26   2.0000      -0.917902       -24.9774
  27   2.0000      -0.905825       -24.6487
  28   2.0000      -0.871258       -23.7081
  29   2.0000      -0.851751       -23.1773
  30   2.0000      -0.845345       -23.0030
  31   2.0000      -0.812468       -22.1084
  32   2.0000      -0.784052       -21.3351
  33   2.0000      -0.777607       -21.1598
  34   2.0000      -0.712062       -19.3762
  35   2.0000      -0.702255       -19.1093
  36   2.0000      -0.692480       -18.8433
  37   2.0000      -0.660390       -17.9701
  38   2.0000      -0.639543       -17.4029
  39   2.0000      -0.617845       -16.8124
  40   2.0000      -0.600256       -16.3338
  41   2.0000      -0.567380       -15.4392
  42   2.0000      -0.558587       -15.1999
  43   2.0000      -0.543898       -14.8002
  44   2.0000      -0.539982       -14.6937
  45   2.0000      -0.533761       -14.5244
  46   2.0000      -0.520847       -14.1730
  47   2.0000      -0.516572       -14.0567
  48   2.0000      -0.509531       -13.8650
  49   2.0000      -0.498208       -13.5569
  50   2.0000      -0.491417       -13.3721
  51   2.0000      -0.487186       -13.2570
  52   2.0000      -0.468917       -12.7599
  53   2.0000      -0.463831       -12.6215
  54   2.0000      -0.458676       -12.4812
  55   2.0000      -0.452932       -12.3249
  56   2.0000      -0.450541       -12.2598
  57   2.0000      -0.434103       -11.8126
  58   2.0000      -0.431569       -11.7436
  59   2.0000      -0.425973       -11.5913
  60   2.0000      -0.422075       -11.4852
  61   2.0000      -0.410090       -11.1591
  62   2.0000      -0.405724       -11.0403
  63   2.0000      -0.357951        -9.7403
  64   2.0000      -0.334719        -9.1082
  65   2.0000      -0.326009        -8.8711
  66   2.0000      -0.280585        -7.6351
  67   0.0000       0.016128         0.4389
  68   0.0000       0.082973         2.2578
  69   0.0000       0.097964         2.6657
  70   0.0000       0.115876         3.1531
  71   0.0000       0.135200         3.6790

MULLIKEN ATOMIC CHARGES
-----------------------
   0 S :    0.099556
   1 C :   -0.100826
   2 C :   -0.098737
   3 C :    0.026050
   4 C :   -0.106847
   5 H :   -0.035615
   6 C :    0.022107
   7 H :    0.028178
   8 H :    0.027696
   9 C :   -0.049538
  10 H :    0.036824
  11 H :    0.040277
  12 C :   -0.033155
  13 H :    0.015365
  14 H :    0.033995
  15 H :    0.014832
  16 S :    0.093508
  17 C :   -0.055944
  18 C :   -0.056292
  19 C :   -0.055104
  20 C :   -0.133988
  21 H :    0.031284
  22 C :    0.102487
  23 H :    0.015655
  24 H :    0.021715
  25 C :   -0.103682
  26 H :    0.041136
  27 H :    0.047260
  28 C :   -0.111310
  29 H :    0.070906
  30 H :    0.043978
  31 H :    0.049688
  32 H :    0.045914
  33 H :    0.032629
Sum of atomic charges:   -0.0000000

LOEWDIN ATOMIC CHARGES
----------------------
   0 S :    0.416273
   1 C :   -0.203946
   2 C :   -0.061899
   3 C :   -0.069917
   4 C :   -0.200328
   5 H :    0.023298
   6 C :   -0.037672
   7 H :    0.027052
   8 H :    0.033533
   9 C :   -0.031807
  10 H :    0.029132
  11 H :    0.026213
  12 C :   -0.067167
  13 H :    0.013865
  14 H :    0.033008
  15 H :    0.020298
  16 S :    0.402770
  17 C :   -0.176371
  18 C :   -0.069267
  19 C :   -0.055170
  20 C :   -0.188346
  21 H :    0.036203
  22 C :   -0.038999
  23 H :    0.027430
  24 H :    0.033843
  25 C :   -0.048801
  26 H :    0.035438
  27 H :    0.031878
  28 C :   -0.084988
  29 H :    0.037774
  30 H :    0.037744
  31 H :    0.022023
  32 H :    0.030944
  33 H :    0.015955

  Mayer bond orders larger than 0.100000
B(  0-S ,  1-C ) :   1.1139 B(  0-S ,  4-C ) :   1.1601 B(  1-C ,  2-C ) :   1.6176
B(  1-C , 32-H ) :   0.9708 B(  2-C ,  3-C ) :   1.2298 B(  2-C ,  6-C ) :   1.0228
B(  3-C ,  4-C ) :   1.5532 B(  3-C ,  5-H ) :   0.9931 B(  4-C , 20-C ) :   1.0909
B(  6-C ,  7-H ) :   0.9439 B(  6-C ,  8-H ) :   0.9448 B(  6-C ,  9-C ) :   1.0598
B(  9-C , 10-H ) :   0.9552 B(  9-C , 11-H ) :   0.9584 B(  9-C , 12-C ) :   1.0762
B( 12-C , 13-H ) :   0.9701 B( 12-C , 14-H ) :   0.9699 B( 12-C , 15-H ) :   0.9749
B( 16-S , 17-C ) :   1.1507 B( 16-S , 20-C ) :   1.1470 B( 17-C , 18-C ) :   1.5911
B( 17-C , 20-C ) :   0.1068 B( 17-C , 33-H ) :   0.9786 B( 18-C , 19-C ) :   1.2609
B( 18-C , 21-H ) :   0.9805 B( 19-C , 20-C ) :   1.5311 B( 19-C , 22-C ) :   1.0442
B( 22-C , 23-H ) :   0.9288 B( 22-C , 24-H ) :   0.9275 B( 22-C , 25-C ) :   1.0709
B( 25-C , 26-H ) :   0.9520 B( 25-C , 27-H ) :   0.9539 B( 25-C , 28-C ) :   1.0728
B( 28-C , 29-H ) :   0.9675 B( 28-C , 30-H ) :   0.9666 B( 28-C , 31-H ) :   0.9585

Dispersion correction           -0.015059919
FINAL SINGLE POINT ENERGY     -1339.873639602270

DIPOLE MOMENT
-------------
                                X             Y             Z
Electronic contribution:     -6.21674      -6.71888      25.03294
Nuclear contribution   :      6.63053       6.97392     -25.48288
                        -----------------------------------------
Total Dipole Moment    :      0.41379       0.25505      -0.44993
                        -----------------------------------------
Magnitude (a.u.)       :      0.66236
Magnitude (Debye)      :      1.68357

Rotational constants in cm-1:     0.020919     0.008874     0.006763
Rotational constants in MHz :   627.133080   266.024544   202.763948

                             ****ORCA TERMINATED NORMALLY****
TOTAL RUN TIME: 0 days 0 hours 0 minutes 35 seconds 785 msec
