                         Program Version 4.2.1 -  RELEASE  -
|  1> ! wB97X-D3 SP def2-SVP
|  2> %pal
|  3> nprocs 16
|  4> end
|  5>
|  6> * xyz 0 1
|  7> S 	 -15.6498 	 45.3358 	 30.5908
|  8> C 	 -13.8694 	 45.4704 	 30.8023
|  9> C 	 -13.5213 	 44.8705 	 31.9476
| 10> C 	 -14.6581 	 44.4323 	 32.6993
| 11> C 	 -15.8931 	 44.4798 	 32.1127
| 12> H 	 -14.5396 	 43.8865 	 33.6284
| 13> C 	 -12.0906 	 44.7377 	 32.3604
| 14> H 	 -11.557 	 44.1788 	 31.6109
| 15> H 	 -12.1258 	 44.0339 	 33.2263
| 16> C 	 -11.412 	 46.0633 	 32.708
| 17> H 	 -11.9714 	 46.5351 	 33.5417
| 18> H 	 -10.4042 	 45.8059 	 33.016
| 19> C 	 -11.1202 	 47.0501 	 31.5811
| 20> H 	 -10.3043 	 46.5163 	 30.9251
| 21> H 	 -11.947 	 47.3744 	 30.966
| 22> H 	 -10.6898 	 47.9759 	 32.0147
| 23> S 	 -17.5326 	 43.6658 	 34.0813
| 24> C 	 -18.5479 	 42.3622 	 33.8327
| 25> C 	 -18.6816 	 42.058 	 32.4912
| 26> C 	 -17.8662 	 42.8332 	 31.6399
| 27> C 	 -17.0907 	 43.7364 	 32.4011
| 28> H 	 -19.3738 	 41.2647 	 32.2533
| 29> C 	 -17.7335 	 42.4236 	 30.2318
| 30> H 	 -17.2138 	 43.1852 	 29.6426
| 31> H 	 -18.7128 	 42.5089 	 29.7876
| 32> C 	 -17.2093 	 40.9672 	 29.933
| 33> H 	 -17.9247 	 40.2026 	 30.3412
| 34> H 	 -16.2237 	 40.8316 	 30.4672
| 35> C 	 -16.8924 	 40.723 	 28.4377
| 36> H 	 -16.3227 	 41.4404 	 27.9193
| 37> H 	 -17.8493 	 40.62 	 27.9149
| 38> H 	 -16.3922 	 39.7483 	 28.4278
| 39> H 	 -13.122 	 45.6636 	 30.0893
| 40> H 	 -19.2435 	 41.9286 	 34.5487
| 41> *
| 42>
| 43>                          ****END OF INPUT****

CARTESIAN COORDINATES (ANGSTROEM)
---------------------------------
  S    -15.649800   45.335800   30.590800
  C    -13.869400   45.470400   30.802300
  C    -13.521300   44.870500   31.947600
  C    -14.658100   44.432300   32.699300
  C    -15.893100   44.479800   32.112700
  H    -14.539600   43.886500   33.628400
  C    -12.090600   44.737700   32.360400
  H    -11.557000   44.178800   31.610900
  H    -12.125800   44.033900   33.226300
  C    -11.412000   46.063300   32.708000
  H    -11.971400   46.535100   33.541700
  H    -10.404200   45.805900   33.016000
  C    -11.120200   47.050100   31.581100
  H    -10.304300   46.516300   30.925100
  H    -11.947000   47.374400   30.966000
  H    -10.689800   47.975900   32.014700
  S    -17.532600   43.665800   34.081300
  C    -18.547900   42.362200   33.832700
  C    -18.681600   42.058000   32.491200
  C    -17.866200   42.833200   31.639900
  C    -17.090700   43.736400   32.401100
  H    -19.373800   41.264700   32.253300
  C    -17.733500   42.423600   30.231800
  H    -17.213800   43.185200   29.642600
  H    -18.712800   42.508900   29.787600
  C    -17.209300   40.967200   29.933000
  H    -17.924700   40.202600   30.341200
  H    -16.223700   40.831600   30.467200
  C    -16.892400   40.723000   28.437700
  H    -16.322700   41.440400   27.919300
  H    -17.849300   40.620000   27.914900
  H    -16.392200   39.748300   28.427800
  H    -13.122000   45.663600   30.089300
  H    -19.243500   41.928600   34.548700

 Total Charge           Charge          ....    0
 Multiplicity           Mult            ....    1
 Number of Electrons    NEL             ....  134
 Basis Dimension        Dim             ....  322

ORBITAL ENERGIES
----------------

  NO   OCC          E(Eh)            E(eV)
   0   2.0000     -88.968118     -2420.9456
   1   2.0000     -88.959876     -2420.7213
   2   2.0000     -10.330405      -281.1046
   3   2.0000     -10.329537      -281.0810
   4   2.0000     -10.311069      -280.5784
   5   2.0000     -10.305145      -280.4172
   6   2.0000     -10.305077      -280.4154
   7   2.0000     -10.296866      -280.1920
   8   2.0000     -10.292131      -280.0631
   9   2.0000     -10.291948      -280.0581
  10   2.0000     -10.289696      -279.9969
  11   2.0000     -10.289280      -279.9855
  12   2.0000     -10.288985      -279.9775
  13   2.0000     -10.287919      -279.9485
  14   2.0000     -10.286379      -279.9066
  15   2.0000     -10.275837      -279.6198
  16   2.0000      -8.084271      -219.9842
  17   2.0000      -8.073608      -219.6940
  18   2.0000      -6.042486      -164.4244
  19   2.0000      -6.038484      -164.3155
  20   2.0000      -6.035346      -164.2301
  21   2.0000      -6.032374      -164.1493
  22   2.0000      -6.028193      -164.0355
  23   2.0000      -6.024177      -163.9262
  24   2.0000      -1.014227       -27.5985
  25   2.0000      -0.989207       -26.9177
  26   2.0000      -0.916313       -24.9341
  27   2.0000      -0.908062       -24.7096
  28   2.0000      -0.872772       -23.7493
  29   2.0000      -0.855975       -23.2923
  30   2.0000      -0.840819       -22.8799
  31   2.0000      -0.814246       -22.1567
  32   2.0000      -0.786496       -21.4016
  33   2.0000      -0.776829       -21.1386
  34   2.0000      -0.711767       -19.3682
  35   2.0000      -0.697595       -18.9825
  36   2.0000      -0.691676       -18.8215
  37   2.0000      -0.663062       -18.0428
  38   2.0000      -0.632421       -17.2090
  39   2.0000      -0.621123       -16.9016
  40   2.0000      -0.599713       -16.3190
  41   2.0000      -0.579284       -15.7631
  42   2.0000      -0.557115       -15.1599
  43   2.0000      -0.549297       -14.9471
  44   2.0000      -0.541343       -14.7307
  45   2.0000      -0.529334       -14.4039
  46   2.0000      -0.519149       -14.1268
  47   2.0000      -0.516115       -14.0442
  48   2.0000      -0.513655       -13.9773
  49   2.0000      -0.493130       -13.4187
  50   2.0000      -0.485554       -13.2126
  51   2.0000      -0.482901       -13.1404
  52   2.0000      -0.472291       -12.8517
  53   2.0000      -0.468515       -12.7489
  54   2.0000      -0.460593       -12.5334
  55   2.0000      -0.442640       -12.0448
  56   2.0000      -0.438608       -11.9351
  57   2.0000      -0.437167       -11.8959
  58   2.0000      -0.433267       -11.7898
  59   2.0000      -0.425138       -11.5686
  60   2.0000      -0.423294       -11.5184
  61   2.0000      -0.413718       -11.2578
  62   2.0000      -0.402333       -10.9480
  63   2.0000      -0.353725        -9.6253
  64   2.0000      -0.332520        -9.0483
  65   2.0000      -0.326262        -8.8780
  66   2.0000      -0.288748        -7.8572
  67   0.0000       0.023711         0.6452
  68   0.0000       0.081505         2.2179
  69   0.0000       0.115108         3.1322
  70   0.0000       0.118272         3.2183
  71   0.0000       0.136666         3.7189

MULLIKEN ATOMIC CHARGES
-----------------------
   0 S :    0.077049
   1 C :   -0.091075
   2 C :   -0.132519
   3 C :    0.029027
   4 C :   -0.115378
   5 H :    0.000946
   6 C :    0.070427
   7 H :    0.024907
   8 H :    0.021227
   9 C :   -0.045751
  10 H :    0.039549
  11 H :    0.027229
  12 C :   -0.096243
  13 H :    0.037670
  14 H :    0.043007
  15 H :    0.044832
  16 S :    0.130114
  17 C :   -0.088812
  18 C :   -0.072644
  19 C :    0.005060
  20 C :   -0.164481
  21 H :    0.016661
  22 C :    0.081021
  23 H :    0.006875
  24 H :    0.017717
  25 C :   -0.115211
  26 H :    0.041116
  27 H :    0.044350
  28 C :   -0.030402
  29 H :    0.034534
  30 H :    0.026898
  31 H :    0.037449
  32 H :    0.035949
  33 H :    0.058901
Sum of atomic charges:   -0.0000000

LOEWDIN ATOMIC CHARGES
----------------------
   0 S :    0.378964
   1 C :   -0.178219
   2 C :   -0.068081
   3 C :   -0.073013
   4 C :   -0.186275
   5 H :    0.022670
   6 C :   -0.033790
   7 H :    0.028826
   8 H :    0.035589
   9 C :   -0.039710
  10 H :    0.029340
  11 H :    0.026459
  12 C :   -0.074008
  13 H :    0.034310
  14 H :    0.018052
  15 H :    0.033064
  16 S :    0.457326
  17 C :   -0.213615
  18 C :   -0.072359
  19 C :   -0.050595
  20 C :   -0.203360
  21 H :    0.030415
  22 C :   -0.045266
  23 H :    0.020302
  24 H :    0.033043
  25 C :   -0.037803
  26 H :    0.027876
  27 H :    0.029665
  28 C :   -0.061969
  29 H :    0.019986
  30 H :    0.025006
  31 H :    0.031488
  32 H :    0.022462
  33 H :    0.033221

  Mayer bond orders larger than 0.100000
B(  0-S ,  1-C ) :   1.1096 B(  0-S ,  4-C ) :   1.1269 B(  1-C ,  2-C ) :   1.6578
B(  1-C , 32-H ) :   0.9562 B(  2-C ,  3-C ) :   1.2529 B(  2-C ,  6-C ) :   1.0165
B(  3-C ,  4-C ) :   1.5856 B(  3-C ,  5-H ) :   0.9818 B(  4-C , 20-C ) :   1.0476
B(  6-C ,  7-H ) :   0.9353 B(  6-C ,  8-H ) :   0.9357 B(  6-C ,  9-C ) :   1.0761
B(  9-C , 10-H ) :   0.9534 B(  9-C , 11-H ) :   0.9534 B(  9-C , 12-C ) :   1.0771
B( 12-C , 13-H ) :   0.9757 B( 12-C , 14-H ) :   0.9682 B( 12-C , 15-H ) :   0.9704
B( 16-S , 17-C ) :   1.1843 B( 16-S , 20-C ) :   1.1659 B( 17-C , 18-C ) :   1.5849
B( 17-C , 33-H ) :   0.9621 B( 18-C , 19-C ) :   1.2641 B( 18-C , 21-H ) :   0.9945
B( 19-C , 20-C ) :   1.5199 B( 19-C , 22-C ) :   1.0738 B( 22-C , 23-H ) :   0.9252
B( 22-C , 24-H ) :   0.9131 B( 22-C , 25-C ) :   1.0483 B( 25-C , 26-H ) :   0.9514
B( 25-C , 27-H ) :   0.9622 B( 25-C , 28-C ) :   1.0798 B( 28-C , 29-H ) :   0.9775
B( 28-C , 30-H ) :   0.9753 B( 28-C , 31-H ) :   0.9745

Dispersion correction           -0.014036220
FINAL SINGLE POINT ENERGY     -1339.869822652824

DIPOLE MOMENT
-------------
                                X             Y             Z
Electronic contribution:    -15.52283       5.78304      11.17370
Nuclear contribution   :     15.81877      -6.34989     -11.22343
                        -----------------------------------------
Total Dipole Moment    :      0.29594      -0.56685      -0.04973
                        -----------------------------------------
Magnitude (a.u.)       :      0.64138
Magnitude (Debye)      :      1.63027

Rotational constants in cm-1:     0.020773     0.007923     0.006466
Rotational constants in MHz :   622.751411   237.532619   193.836273

                             ****ORCA TERMINATED NORMALLY****
TOTAL RUN TIME: 0 days 0 hours 0 minutes 33 seconds 476 msec
