                         Program Version 4.2.1 -  RELEASE  -
|  1> ! wB97X-D3 SP def2-SVP
|  2> %pal
|  3> nprocs 16
|  4> end
|  5>
|  6> * xyz 0 1
|  7> S 	 -30.3876 	 53.8804 	 110.645
|  8> C 	 -28.9136 	 54.208 	 109.782
|  9> C 	 -29.133 	 55.2763 	 108.879
| 10> C 	 -30.506 	 55.6441 	 108.763
| 11> C 	 -31.322 	 54.8557 	 109.546
| 12> H 	 -30.923 	 56.3958 	 108.089
| 13> C 	 -28.0939 	 56.1129 	 108.179
| 14> H 	 -28.4534 	 56.619 	 107.246
| 15> H 	 -27.3651 	 55.428 	 107.867
| 16> C 	 -27.3515 	 57.0734 	 109.077
| 17> H 	 -27.9316 	 57.9179 	 109.438
| 18> H 	 -27.115 	 56.5936 	 110.011
| 19> C 	 -26.112 	 57.6327 	 108.332
| 20> H 	 -25.4074 	 56.8859 	 108.082
| 21> H 	 -26.3868 	 58.1417 	 107.418
| 22> H 	 -25.566 	 58.3466 	 108.917
| 23> S 	 -33.5838 	 55.8807 	 110.8
| 24> C 	 -35.1866 	 55.155 	 110.502
| 25> C 	 -35.0736 	 54.2089 	 109.51
| 26> C 	 -33.7261 	 54.0109 	 109.052
| 27> C 	 -32.7862 	 54.8841 	 109.596
| 28> H 	 -35.9047 	 53.602 	 109.256
| 29> C 	 -33.3944 	 52.968 	 108.038
| 30> H 	 -34.2911 	 52.4537 	 107.712
| 31> H 	 -32.7578 	 52.3067 	 108.531
| 32> C 	 -32.6888 	 53.5034 	 106.818
| 33> H 	 -32.6221 	 52.7131 	 106.06
| 34> H 	 -31.6151 	 53.877 	 106.95
| 35> C 	 -33.4425 	 54.6493 	 106.144
| 36> H 	 -33.7827 	 55.4788 	 106.765
| 37> H 	 -34.3469 	 54.451 	 105.564
| 38> H 	 -32.7102 	 55.0955 	 105.389
| 39> H 	 -27.971 	 53.9306 	 110.31
| 40> H 	 -36.0971 	 55.2448 	 111.057
| 41> *
| 42>
| 43>                          ****END OF INPUT****

CARTESIAN COORDINATES (ANGSTROEM)
---------------------------------
  S    -30.387600   53.880400  110.645000
  C    -28.913600   54.208000  109.782000
  C    -29.133000   55.276300  108.879000
  C    -30.506000   55.644100  108.763000
  C    -31.322000   54.855700  109.546000
  H    -30.923000   56.395800  108.089000
  C    -28.093900   56.112900  108.179000
  H    -28.453400   56.619000  107.246000
  H    -27.365100   55.428000  107.867000
  C    -27.351500   57.073400  109.077000
  H    -27.931600   57.917900  109.438000
  H    -27.115000   56.593600  110.011000
  C    -26.112000   57.632700  108.332000
  H    -25.407400   56.885900  108.082000
  H    -26.386800   58.141700  107.418000
  H    -25.566000   58.346600  108.917000
  S    -33.583800   55.880700  110.800000
  C    -35.186600   55.155000  110.502000
  C    -35.073600   54.208900  109.510000
  C    -33.726100   54.010900  109.052000
  C    -32.786200   54.884100  109.596000
  H    -35.904700   53.602000  109.256000
  C    -33.394400   52.968000  108.038000
  H    -34.291100   52.453700  107.712000
  H    -32.757800   52.306700  108.531000
  C    -32.688800   53.503400  106.818000
  H    -32.622100   52.713100  106.060000
  H    -31.615100   53.877000  106.950000
  C    -33.442500   54.649300  106.144000
  H    -33.782700   55.478800  106.765000
  H    -34.346900   54.451000  105.564000
  H    -32.710200   55.095500  105.389000
  H    -27.971000   53.930600  110.310000
  H    -36.097100   55.244800  111.057000

 Total Charge           Charge          ....    0
 Multiplicity           Mult            ....    1
 Number of Electrons    NEL             ....  134
 Basis Dimension        Dim             ....  322

ORBITAL ENERGIES
----------------

  NO   OCC          E(Eh)            E(eV)
   0   2.0000     -88.967790     -2420.9366
   1   2.0000     -88.964007     -2420.8337
   2   2.0000     -10.329902      -281.0909
   3   2.0000     -10.323489      -280.9164
   4   2.0000     -10.320935      -280.8469
   5   2.0000     -10.318530      -280.7815
   6   2.0000     -10.307114      -280.4708
   7   2.0000     -10.300500      -280.2909
   8   2.0000     -10.295354      -280.1508
   9   2.0000     -10.290370      -280.0152
  10   2.0000     -10.287818      -279.9458
  11   2.0000     -10.284443      -279.8539
  12   2.0000     -10.283682      -279.8332
  13   2.0000     -10.278606      -279.6951
  14   2.0000     -10.272937      -279.5408
  15   2.0000     -10.272132      -279.5189
  16   2.0000      -8.082744      -219.9426
  17   2.0000      -8.077930      -219.8117
  18   2.0000      -6.041081      -164.3862
  19   2.0000      -6.037225      -164.2812
  20   2.0000      -6.036598      -164.2642
  21   2.0000      -6.033654      -164.1841
  22   2.0000      -6.032387      -164.1496
  23   2.0000      -6.028726      -164.0500
  24   2.0000      -1.006324       -27.3835
  25   2.0000      -0.982946       -26.7473
  26   2.0000      -0.916145       -24.9296
  27   2.0000      -0.910051       -24.7638
  28   2.0000      -0.868640       -23.6369
  29   2.0000      -0.851706       -23.1761
  30   2.0000      -0.838919       -22.8281
  31   2.0000      -0.816981       -22.2312
  32   2.0000      -0.781934       -21.2775
  33   2.0000      -0.769830       -20.9481
  34   2.0000      -0.709375       -19.3031
  35   2.0000      -0.704641       -19.1742
  36   2.0000      -0.682916       -18.5831
  37   2.0000      -0.662735       -18.0339
  38   2.0000      -0.648073       -17.6350
  39   2.0000      -0.620802       -16.8929
  40   2.0000      -0.586367       -15.9559
  41   2.0000      -0.574483       -15.6325
  42   2.0000      -0.560173       -15.2431
  43   2.0000      -0.557240       -15.1633
  44   2.0000      -0.543496       -14.7893
  45   2.0000      -0.521701       -14.1962
  46   2.0000      -0.516922       -14.0662
  47   2.0000      -0.511153       -13.9092
  48   2.0000      -0.506747       -13.7893
  49   2.0000      -0.498684       -13.5699
  50   2.0000      -0.481819       -13.1110
  51   2.0000      -0.480384       -13.0719
  52   2.0000      -0.473115       -12.8741
  53   2.0000      -0.465651       -12.6710
  54   2.0000      -0.460878       -12.5411
  55   2.0000      -0.447171       -12.1681
  56   2.0000      -0.445132       -12.1127
  57   2.0000      -0.429564       -11.6890
  58   2.0000      -0.425646       -11.5824
  59   2.0000      -0.425465       -11.5775
  60   2.0000      -0.422891       -11.5074
  61   2.0000      -0.416487       -11.3332
  62   2.0000      -0.405604       -11.0370
  63   2.0000      -0.334808        -9.1106
  64   2.0000      -0.332688        -9.0529
  65   2.0000      -0.314110        -8.5474
  66   2.0000      -0.311874        -8.4865
  67   0.0000       0.038151         1.0382
  68   0.0000       0.045008         1.2247
  69   0.0000       0.112652         3.0654
  70   0.0000       0.124742         3.3944
  71   0.0000       0.127382         3.4662

MULLIKEN ATOMIC CHARGES
-----------------------
   0 S :    0.125129
   1 C :   -0.135713
   2 C :   -0.106250
   3 C :    0.044991
   4 C :   -0.177596
   5 H :    0.024967
   6 C :    0.081328
   7 H :    0.030461
   8 H :    0.006393
   9 C :   -0.054602
  10 H :    0.022079
  11 H :    0.014877
  12 C :   -0.027332
  13 H :    0.019994
  14 H :    0.026390
  15 H :    0.025017
  16 S :    0.100338
  17 C :   -0.082685
  18 C :   -0.023292
  19 C :   -0.088471
  20 C :   -0.160492
  21 H :    0.008221
  22 C :    0.181894
  23 H :    0.009832
  24 H :    0.017816
  25 C :   -0.097404
  26 H :    0.027890
  27 H :    0.056691
  28 C :   -0.093817
  29 H :    0.040618
  30 H :    0.024973
  31 H :    0.029491
  32 H :    0.075497
  33 H :    0.052770
Sum of atomic charges:   -0.0000000

LOEWDIN ATOMIC CHARGES
----------------------
   0 S :    0.425628
   1 C :   -0.217175
   2 C :   -0.057687
   3 C :   -0.057370
   4 C :   -0.199394
   5 H :    0.038174
   6 C :   -0.034463
   7 H :    0.034715
   8 H :    0.025714
   9 C :   -0.035524
  10 H :    0.023366
  11 H :    0.020697
  12 C :   -0.059025
  13 H :    0.018285
  14 H :    0.025131
  15 H :    0.023874
  16 S :    0.393921
  17 C :   -0.171914
  18 C :   -0.071696
  19 C :   -0.046128
  20 C :   -0.213178
  21 H :    0.026458
  22 C :   -0.028306
  23 H :    0.030655
  24 H :    0.028335
  25 C :   -0.046543
  26 H :    0.026264
  27 H :    0.036735
  28 C :   -0.081218
  29 H :    0.022926
  30 H :    0.020654
  31 H :    0.031448
  32 H :    0.035441
  33 H :    0.031202

  Mayer bond orders larger than 0.100000
B(  0-S ,  1-C ) :   1.1527 B(  0-S ,  4-C ) :   1.1774 B(  1-C ,  2-C ) :   1.5649
B(  1-C ,  4-C ) :   0.1063 B(  1-C , 32-H ) :   0.9628 B(  2-C ,  3-C ) :   1.2675
B(  2-C ,  6-C ) :   1.0292 B(  3-C ,  4-C ) :   1.5489 B(  3-C ,  5-H ) :   0.9954
B(  4-C , 20-C ) :   1.0187 B(  6-C ,  7-H ) :   0.9442 B(  6-C ,  8-H ) :   0.9298
B(  6-C ,  9-C ) :   1.0634 B(  9-C , 10-H ) :   0.9526 B(  9-C , 11-H ) :   0.9543
B(  9-C , 12-C ) :   1.0783 B( 12-C , 13-H ) :   0.9767 B( 12-C , 14-H ) :   0.9743
B( 12-C , 15-H ) :   0.9736 B( 16-S , 17-C ) :   1.1565 B( 16-S , 20-C ) :   1.1339
B( 17-C , 18-C ) :   1.6083 B( 17-C , 33-H ) :   0.9666 B( 18-C , 19-C ) :   1.2541
B( 18-C , 21-H ) :   0.9914 B( 19-C , 20-C ) :   1.5842 B( 19-C , 22-C ) :   1.0486
B( 22-C , 23-H ) :   0.9303 B( 22-C , 24-H ) :   0.9088 B( 22-C , 25-C ) :   1.0842
B( 25-C , 26-H ) :   0.9523 B( 25-C , 27-H ) :   0.9505 B( 25-C , 28-C ) :   1.0669
B( 28-C , 29-H ) :   0.9721 B( 28-C , 30-H ) :   0.9761 B( 28-C , 31-H ) :   0.9759

Dispersion correction           -0.015465026
FINAL SINGLE POINT ENERGY     -1339.874527977000

DIPOLE MOMENT
-------------
                                X             Y             Z
Electronic contribution:    -13.02122      -5.17735      19.30790
Nuclear contribution   :     13.19366       5.14563     -19.56104
                        -----------------------------------------
Total Dipole Moment    :      0.17244      -0.03172      -0.25315
                        -----------------------------------------
Magnitude (a.u.)       :      0.30794
Magnitude (Debye)      :      0.78271

Rotational constants in cm-1:     0.023052     0.007828     0.007099
Rotational constants in MHz :   691.067298   234.691112   212.823923

                             ****ORCA TERMINATED NORMALLY****
TOTAL RUN TIME: 0 days 0 hours 0 minutes 29 seconds 276 msec
