                         Program Version 4.2.1 -  RELEASE  -
|  1> ! wB97X-D3 SP def2-SVP
|  2> %pal
|  3> nprocs 16
|  4> end
|  5>
|  6> * xyz 0 1
|  7> S 	 52.6961 	 21.6525 	 92.9258
|  8> C 	 50.9677 	 21.3446 	 92.9289
|  9> C 	 50.6219 	 20.3973 	 91.9405
| 10> C 	 51.7625 	 19.9421 	 91.1805
| 11> C 	 52.9795 	 20.4207 	 91.7042
| 12> H 	 51.7852 	 19.1529 	 90.4871
| 13> C 	 49.2591 	 19.8546 	 91.764
| 14> H 	 48.9573 	 19.9265 	 90.6928
| 15> H 	 48.683 	 20.4908 	 92.4618
| 16> C 	 49.1325 	 18.3556 	 92.0954
| 17> H 	 48.1395 	 17.9265 	 91.9102
| 18> H 	 49.7782 	 17.8478 	 91.2834
| 19> C 	 49.6551 	 17.8878 	 93.4957
| 20> H 	 49.2198 	 18.4327 	 94.3928
| 21> H 	 49.3268 	 16.9044 	 93.5956
| 22> H 	 50.7601 	 17.8099 	 93.378
| 23> S 	 55.3067 	 21.3496 	 90.6878
| 24> C 	 56.4122 	 20.2028 	 89.9966
| 25> C 	 56.1296 	 18.9388 	 90.4804
| 26> C 	 54.8724 	 18.8283 	 91.1485
| 27> C 	 54.2966 	 20.0254 	 91.247
| 28> H 	 56.757 	 18.0451 	 90.2433
| 29> C 	 54.3569 	 17.5155 	 91.693
| 30> H 	 54.9175 	 16.7142 	 91.1755
| 31> H 	 53.3122 	 17.4529 	 91.5259
| 32> C 	 54.6622 	 17.5414 	 93.1878
| 33> H 	 54.3194 	 16.5336 	 93.5092
| 34> H 	 54.0517 	 18.1621 	 93.7899
| 35> C 	 56.1222 	 17.8173 	 93.6257
| 36> H 	 56.7855 	 17.1948 	 92.9639
| 37> H 	 56.2082 	 17.4105 	 94.6541
| 38> H 	 56.4241 	 18.873 	 93.586
| 39> H 	 50.1532 	 21.7148 	 93.5745
| 40> H 	 57.3355 	 20.4658 	 89.4827
| 41> *
| 42>
| 43>                          ****END OF INPUT****

CARTESIAN COORDINATES (ANGSTROEM)
---------------------------------
  S     52.696100   21.652500   92.925800
  C     50.967700   21.344600   92.928900
  C     50.621900   20.397300   91.940500
  C     51.762500   19.942100   91.180500
  C     52.979500   20.420700   91.704200
  H     51.785200   19.152900   90.487100
  C     49.259100   19.854600   91.764000
  H     48.957300   19.926500   90.692800
  H     48.683000   20.490800   92.461800
  C     49.132500   18.355600   92.095400
  H     48.139500   17.926500   91.910200
  H     49.778200   17.847800   91.283400
  C     49.655100   17.887800   93.495700
  H     49.219800   18.432700   94.392800
  H     49.326800   16.904400   93.595600
  H     50.760100   17.809900   93.378000
  S     55.306700   21.349600   90.687800
  C     56.412200   20.202800   89.996600
  C     56.129600   18.938800   90.480400
  C     54.872400   18.828300   91.148500
  C     54.296600   20.025400   91.247000
  H     56.757000   18.045100   90.243300
  C     54.356900   17.515500   91.693000
  H     54.917500   16.714200   91.175500
  H     53.312200   17.452900   91.525900
  C     54.662200   17.541400   93.187800
  H     54.319400   16.533600   93.509200
  H     54.051700   18.162100   93.789900
  C     56.122200   17.817300   93.625700
  H     56.785500   17.194800   92.963900
  H     56.208200   17.410500   94.654100
  H     56.424100   18.873000   93.586000
  H     50.153200   21.714800   93.574500
  H     57.335500   20.465800   89.482700

 Total Charge           Charge          ....    0
 Multiplicity           Mult            ....    1
 Number of Electrons    NEL             ....  134
 Basis Dimension        Dim             ....  322

ORBITAL ENERGIES
----------------

  NO   OCC          E(Eh)            E(eV)
   0   2.0000     -88.970330     -2421.0058
   1   2.0000     -88.962218     -2420.7850
   2   2.0000     -10.331188      -281.1259
   3   2.0000     -10.317761      -280.7606
   4   2.0000     -10.317673      -280.7582
   5   2.0000     -10.316785      -280.7340
   6   2.0000     -10.300548      -280.2922
   7   2.0000     -10.296865      -280.1919
   8   2.0000     -10.296274      -280.1759
   9   2.0000     -10.295862      -280.1647
  10   2.0000     -10.294270      -280.1213
  11   2.0000     -10.293588      -280.1028
  12   2.0000     -10.292638      -280.0769
  13   2.0000     -10.283437      -279.8266
  14   2.0000     -10.282824      -279.8099
  15   2.0000     -10.281062      -279.7619
  16   2.0000      -8.084260      -219.9839
  17   2.0000      -8.077601      -219.8027
  18   2.0000      -6.042851      -164.4343
  19   2.0000      -6.038843      -164.3253
  20   2.0000      -6.036094      -164.2505
  21   2.0000      -6.035023      -164.2213
  22   2.0000      -6.032190      -164.1442
  23   2.0000      -6.028157      -164.0345
  24   2.0000      -1.010550       -27.4985
  25   2.0000      -0.982416       -26.7329
  26   2.0000      -0.914585       -24.8871
  27   2.0000      -0.911261       -24.7967
  28   2.0000      -0.866141       -23.5689
  29   2.0000      -0.847884       -23.0721
  30   2.0000      -0.841286       -22.8926
  31   2.0000      -0.812256       -22.1026
  32   2.0000      -0.787010       -21.4156
  33   2.0000      -0.774121       -21.0649
  34   2.0000      -0.709855       -19.3161
  35   2.0000      -0.694311       -18.8932
  36   2.0000      -0.687422       -18.7057
  37   2.0000      -0.665381       -18.1059
  38   2.0000      -0.634583       -17.2679
  39   2.0000      -0.614621       -16.7247
  40   2.0000      -0.593660       -16.1543
  41   2.0000      -0.561534       -15.2801
  42   2.0000      -0.561006       -15.2657
  43   2.0000      -0.547674       -14.9030
  44   2.0000      -0.546103       -14.8602
  45   2.0000      -0.542152       -14.7527
  46   2.0000      -0.517071       -14.0702
  47   2.0000      -0.511194       -13.9103
  48   2.0000      -0.505317       -13.7504
  49   2.0000      -0.490015       -13.3340
  50   2.0000      -0.487873       -13.2757
  51   2.0000      -0.483079       -13.1453
  52   2.0000      -0.468795       -12.7566
  53   2.0000      -0.463917       -12.6238
  54   2.0000      -0.460547       -12.5321
  55   2.0000      -0.446471       -12.1491
  56   2.0000      -0.442894       -12.0518
  57   2.0000      -0.437585       -11.9073
  58   2.0000      -0.434216       -11.8156
  59   2.0000      -0.426403       -11.6030
  60   2.0000      -0.421165       -11.4605
  61   2.0000      -0.412022       -11.2117
  62   2.0000      -0.406716       -11.0673
  63   2.0000      -0.343211        -9.3392
  64   2.0000      -0.330593        -8.9959
  65   2.0000      -0.327774        -8.9192
  66   2.0000      -0.291738        -7.9386
  67   0.0000       0.034134         0.9288
  68   0.0000       0.062117         1.6903
  69   0.0000       0.107735         2.9316
  70   0.0000       0.114896         3.1265
  71   0.0000       0.123069         3.3489

MULLIKEN ATOMIC CHARGES
-----------------------
   0 S :    0.119337
   1 C :   -0.113873
   2 C :   -0.130393
   3 C :    0.063175
   4 C :   -0.168488
   5 H :   -0.002516
   6 C :    0.100344
   7 H :    0.044669
   8 H :    0.013542
   9 C :   -0.141510
  10 H :    0.035608
  11 H :    0.026248
  12 C :   -0.034425
  13 H :    0.049878
  14 H :    0.014208
  15 H :    0.049936
  16 S :    0.104308
  17 C :   -0.086038
  18 C :   -0.061214
  19 C :   -0.069271
  20 C :   -0.177833
  21 H :    0.029654
  22 C :    0.163944
  23 H :    0.023323
  24 H :    0.008551
  25 C :   -0.092001
  26 H :    0.019094
  27 H :    0.031862
  28 C :   -0.063071
  29 H :    0.024210
  30 H :    0.042589
  31 H :    0.061684
  32 H :    0.053548
  33 H :    0.060919
Sum of atomic charges:   -0.0000000

LOEWDIN ATOMIC CHARGES
----------------------
   0 S :    0.402508
   1 C :   -0.214619
   2 C :   -0.060884
   3 C :   -0.058529
   4 C :   -0.185686
   5 H :    0.019622
   6 C :   -0.038228
   7 H :    0.041153
   8 H :    0.028188
   9 C :   -0.047735
  10 H :    0.021722
  11 H :    0.027445
  12 C :   -0.071528
  13 H :    0.035231
  14 H :    0.016693
  15 H :    0.034415
  16 S :    0.400559
  17 C :   -0.186738
  18 C :   -0.075284
  19 C :   -0.057598
  20 C :   -0.199062
  21 H :    0.034201
  22 C :   -0.018806
  23 H :    0.033384
  24 H :    0.026157
  25 C :   -0.039870
  26 H :    0.023520
  27 H :    0.020304
  28 C :   -0.067018
  29 H :    0.024239
  30 H :    0.033005
  31 H :    0.031201
  32 H :    0.036360
  33 H :    0.031677

  Mayer bond orders larger than 0.100000
B(  0-S ,  1-C ) :   1.1229 B(  0-S ,  4-C ) :   1.1519 B(  1-C ,  2-C ) :   1.6143
B(  1-C , 32-H ) :   0.9562 B(  2-C ,  3-C ) :   1.2220 B(  2-C ,  6-C ) :   1.0380
B(  3-C ,  4-C ) :   1.5732 B(  3-C ,  5-H ) :   0.9948 B(  4-C , 20-C ) :   1.0256
B(  6-C ,  7-H ) :   0.9358 B(  6-C ,  8-H ) :   0.9364 B(  6-C ,  9-C ) :   1.0604
B(  9-C , 10-H ) :   0.9627 B(  9-C , 11-H ) :   0.9538 B(  9-C , 12-C ) :   1.0692
B( 12-C , 13-H ) :   0.9752 B( 12-C , 14-H ) :   0.9710 B( 12-C , 15-H ) :   0.9718
B( 16-S , 17-C ) :   1.1491 B( 16-S , 20-C ) :   1.1283 B( 17-C , 18-C ) :   1.6209
B( 17-C , 33-H ) :   0.9680 B( 18-C , 19-C ) :   1.2193 B( 18-C , 21-H ) :   0.9767
B( 19-C , 20-C ) :   1.6469 B( 19-C , 22-C ) :   1.0424 B( 22-C , 23-H ) :   0.9268
B( 22-C , 24-H ) :   0.9194 B( 22-C , 25-C ) :   1.0806 B( 25-C , 26-H ) :   0.9564
B( 25-C , 27-H ) :   0.9554 B( 25-C , 28-C ) :   1.0696 B( 28-C , 29-H ) :   0.9757
B( 28-C , 30-H ) :   0.9717 B( 28-C , 31-H ) :   0.9717

Dispersion correction           -0.016291547
FINAL SINGLE POINT ENERGY     -1339.871384736793

DIPOLE MOMENT
-------------
                                X             Y             Z
Electronic contribution:      9.72408      22.16877      -7.87405
Nuclear contribution   :     -9.91968     -22.92615       7.90178
                        -----------------------------------------
Total Dipole Moment    :     -0.19560      -0.75737       0.02773
                        -----------------------------------------
Magnitude (a.u.)       :      0.78272
Magnitude (Debye)      :      1.98950

Rotational constants in cm-1:     0.020738     0.009660     0.007980
Rotational constants in MHz :   621.721992   289.605858   239.223208

                             ****ORCA TERMINATED NORMALLY****
TOTAL RUN TIME: 0 days 0 hours 0 minutes 32 seconds 767 msec
