                         Program Version 4.2.1 -  RELEASE  -
|  1> ! wB97X-D3 SP def2-SVP
|  2> %pal
|  3> nprocs 16
|  4> end
|  5>
|  6> * xyz 0 1
|  7> S 	 -94.7212 	 58.0579 	 122.783
|  8> C 	 -95.1353 	 57.0837 	 121.454
|  9> C 	 -95.7655 	 55.8741 	 121.785
| 10> C 	 -95.6349 	 55.7195 	 123.206
| 11> C 	 -95.0518 	 56.7857 	 123.888
| 12> H 	 -95.9472 	 54.8493 	 123.791
| 13> C 	 -96.1674 	 54.7311 	 120.823
| 14> H 	 -95.2984 	 53.9747 	 120.82
| 15> H 	 -96.3114 	 55.2031 	 119.878
| 16> C 	 -97.4771 	 54.0308 	 120.976
| 17> H 	 -97.6999 	 53.5834 	 121.978
| 18> H 	 -98.2314 	 54.8333 	 120.811
| 19> C 	 -97.4957 	 52.9104 	 119.919
| 20> H 	 -97.551 	 53.1555 	 118.844
| 21> H 	 -96.6546 	 52.2303 	 120.138
| 22> H 	 -98.4324 	 52.3692 	 120.028
| 23> S 	 -94.8015 	 58.5605 	 126.026
| 24> C 	 -94.0997 	 58.0105 	 127.54
| 25> C 	 -93.9972 	 56.6471 	 127.591
| 26> C 	 -94.4794 	 56.0322 	 126.38
| 27> C 	 -94.8243 	 56.9105 	 125.37
| 28> H 	 -93.4876 	 56.2254 	 128.427
| 29> C 	 -94.1062 	 54.6054 	 126.128
| 30> H 	 -93.3287 	 54.2936 	 126.807
| 31> H 	 -93.5714 	 54.4989 	 125.172
| 32> C 	 -95.3233 	 53.5401 	 126.241
| 33> H 	 -95.9183 	 53.5677 	 125.299
| 34> H 	 -95.9216 	 53.8295 	 127.104
| 35> C 	 -94.7872 	 52.075 	 126.389
| 36> H 	 -94.1059 	 51.8611 	 125.547
| 37> H 	 -95.5854 	 51.3487 	 126.497
| 38> H 	 -94.2233 	 52.0517 	 127.275
| 39> H 	 -95.1669 	 57.4317 	 120.411
| 40> H 	 -93.771 	 58.7659 	 128.173
| 41> *
| 42>
| 43>                          ****END OF INPUT****

CARTESIAN COORDINATES (ANGSTROEM)
---------------------------------
  S    -94.721200   58.057900  122.783000
  C    -95.135300   57.083700  121.454000
  C    -95.765500   55.874100  121.785000
  C    -95.634900   55.719500  123.206000
  C    -95.051800   56.785700  123.888000
  H    -95.947200   54.849300  123.791000
  C    -96.167400   54.731100  120.823000
  H    -95.298400   53.974700  120.820000
  H    -96.311400   55.203100  119.878000
  C    -97.477100   54.030800  120.976000
  H    -97.699900   53.583400  121.978000
  H    -98.231400   54.833300  120.811000
  C    -97.495700   52.910400  119.919000
  H    -97.551000   53.155500  118.844000
  H    -96.654600   52.230300  120.138000
  H    -98.432400   52.369200  120.028000
  S    -94.801500   58.560500  126.026000
  C    -94.099700   58.010500  127.540000
  C    -93.997200   56.647100  127.591000
  C    -94.479400   56.032200  126.380000
  C    -94.824300   56.910500  125.370000
  H    -93.487600   56.225400  128.427000
  C    -94.106200   54.605400  126.128000
  H    -93.328700   54.293600  126.807000
  H    -93.571400   54.498900  125.172000
  C    -95.323300   53.540100  126.241000
  H    -95.918300   53.567700  125.299000
  H    -95.921600   53.829500  127.104000
  C    -94.787200   52.075000  126.389000
  H    -94.105900   51.861100  125.547000
  H    -95.585400   51.348700  126.497000
  H    -94.223300   52.051700  127.275000
  H    -95.166900   57.431700  120.411000
  H    -93.771000   58.765900  128.173000

 Total Charge           Charge          ....    0
 Multiplicity           Mult            ....    1
 Number of Electrons    NEL             ....  134
 Basis Dimension        Dim             ....  322

ORBITAL ENERGIES
----------------

  NO   OCC          E(Eh)            E(eV)
   0   2.0000     -88.970730     -2421.0166
   1   2.0000     -88.959276     -2420.7050
   2   2.0000     -10.333621      -281.1921
   3   2.0000     -10.331429      -281.1325
   4   2.0000     -10.314588      -280.6742
   5   2.0000     -10.313506      -280.6448
   6   2.0000     -10.304796      -280.4078
   7   2.0000     -10.303100      -280.3616
   8   2.0000     -10.298493      -280.2362
   9   2.0000     -10.295799      -280.1629
  10   2.0000     -10.294621      -280.1309
  11   2.0000     -10.294171      -280.1186
  12   2.0000     -10.293989      -280.1137
  13   2.0000     -10.290643      -280.0226
  14   2.0000     -10.284028      -279.8426
  15   2.0000     -10.277360      -279.6612
  16   2.0000      -8.086531      -220.0457
  17   2.0000      -8.074302      -219.7129
  18   2.0000      -6.044942      -164.4912
  19   2.0000      -6.040882      -164.3807
  20   2.0000      -6.037329      -164.2841
  21   2.0000      -6.032823      -164.1615
  22   2.0000      -6.028783      -164.0515
  23   2.0000      -6.025041      -163.9497
  24   2.0000      -1.008895       -27.4534
  25   2.0000      -0.986581       -26.8462
  26   2.0000      -0.918673       -24.9984
  27   2.0000      -0.898108       -24.4388
  28   2.0000      -0.868006       -23.6196
  29   2.0000      -0.852181       -23.1890
  30   2.0000      -0.846271       -23.0282
  31   2.0000      -0.814648       -22.1677
  32   2.0000      -0.780584       -21.2408
  33   2.0000      -0.769761       -20.9463
  34   2.0000      -0.703802       -19.1514
  35   2.0000      -0.698211       -18.9993
  36   2.0000      -0.688606       -18.7379
  37   2.0000      -0.667549       -18.1649
  38   2.0000      -0.639386       -17.3986
  39   2.0000      -0.621786       -16.9197
  40   2.0000      -0.598438       -16.2843
  41   2.0000      -0.579259       -15.7624
  42   2.0000      -0.569617       -15.5001
  43   2.0000      -0.557856       -15.1800
  44   2.0000      -0.527112       -14.3435
  45   2.0000      -0.524583       -14.2746
  46   2.0000      -0.515030       -14.0147
  47   2.0000      -0.505000       -13.7417
  48   2.0000      -0.504552       -13.7296
  49   2.0000      -0.499220       -13.5845
  50   2.0000      -0.492594       -13.4042
  51   2.0000      -0.473040       -12.8721
  52   2.0000      -0.471490       -12.8299
  53   2.0000      -0.468637       -12.7522
  54   2.0000      -0.458949       -12.4886
  55   2.0000      -0.450220       -12.2511
  56   2.0000      -0.439077       -11.9479
  57   2.0000      -0.435754       -11.8575
  58   2.0000      -0.432953       -11.7813
  59   2.0000      -0.425228       -11.5710
  60   2.0000      -0.422969       -11.5096
  61   2.0000      -0.420877       -11.4526
  62   2.0000      -0.411504       -11.1976
  63   2.0000      -0.356306        -9.6956
  64   2.0000      -0.333152        -9.0655
  65   2.0000      -0.328304        -8.9336
  66   2.0000      -0.286981        -7.8092
  67   0.0000       0.024418         0.6645
  68   0.0000       0.077660         2.1132
  69   0.0000       0.108880         2.9628
  70   0.0000       0.116790         3.1780
  71   0.0000       0.128891         3.5073

MULLIKEN ATOMIC CHARGES
-----------------------
   0 S :    0.134333
   1 C :   -0.122722
   2 C :   -0.066706
   3 C :    0.018219
   4 C :   -0.118316
   5 H :   -0.023061
   6 C :    0.033162
   7 H :    0.057635
   8 H :    0.012131
   9 C :   -0.093940
  10 H :    0.040833
  11 H :    0.036138
  12 C :   -0.057516
  13 H :    0.039858
  14 H :    0.038468
  15 H :    0.027807
  16 S :    0.061683
  17 C :   -0.082193
  18 C :   -0.010431
  19 C :   -0.014895
  20 C :   -0.114521
  21 H :    0.021192
  22 C :   -0.004938
  23 H :    0.008978
  24 H :    0.036926
  25 C :   -0.101757
  26 H :    0.050403
  27 H :    0.039797
  28 C :   -0.034935
  29 H :    0.036303
  30 H :    0.039288
  31 H :    0.017505
  32 H :    0.053811
  33 H :    0.041463
Sum of atomic charges:    0.0000000

LOEWDIN ATOMIC CHARGES
----------------------
   0 S :    0.446919
   1 C :   -0.215236
   2 C :   -0.067780
   3 C :   -0.064019
   4 C :   -0.208832
   5 H :    0.025998
   6 C :   -0.036120
   7 H :    0.041202
   8 H :    0.028381
   9 C :   -0.045940
  10 H :    0.025970
  11 H :    0.030213
  12 C :   -0.069348
  13 H :    0.029215
  14 H :    0.029406
  15 H :    0.026145
  16 S :    0.372611
  17 C :   -0.161534
  18 C :   -0.063604
  19 C :   -0.067864
  20 C :   -0.172261
  21 H :    0.032935
  22 C :   -0.035843
  23 H :    0.024244
  24 H :    0.033113
  25 C :   -0.034604
  26 H :    0.020681
  27 H :    0.023514
  28 C :   -0.063122
  29 H :    0.028879
  30 H :    0.026044
  31 H :    0.015754
  32 H :    0.031132
  33 H :    0.013750

  Mayer bond orders larger than 0.100000
B(  0-S ,  1-C ) :   1.1734 B(  0-S ,  4-C ) :   1.1574 B(  1-C ,  2-C ) :   1.5796
B(  1-C , 32-H ) :   0.9587 B(  2-C ,  3-C ) :   1.2617 B(  2-C ,  6-C ) :   1.0192
B(  3-C ,  4-C ) :   1.5538 B(  3-C ,  5-H ) :   0.9928 B(  4-C , 20-C ) :   1.0420
B(  6-C ,  7-H ) :   0.9467 B(  6-C ,  8-H ) :   0.9411 B(  6-C ,  9-C ) :   1.0560
B(  9-C , 10-H ) :   0.9556 B(  9-C , 11-H ) :   0.9541 B(  9-C , 12-C ) :   1.0784
B( 12-C , 13-H ) :   0.9748 B( 12-C , 14-H ) :   0.9731 B( 12-C , 15-H ) :   0.9721
B( 16-S , 17-C ) :   1.1496 B( 16-S , 20-C ) :   1.1269 B( 17-C , 18-C ) :   1.6134
B( 17-C , 33-H ) :   0.9797 B( 18-C , 19-C ) :   1.2097 B( 18-C , 21-H ) :   1.0015
B( 19-C , 20-C ) :   1.6149 B( 19-C , 22-C ) :   1.0500 B( 22-C , 23-H ) :   0.9506
B( 22-C , 24-H ) :   0.9401 B( 22-C , 25-C ) :   1.0335 B( 25-C , 26-H ) :   0.9518
B( 25-C , 27-H ) :   0.9600 B( 25-C , 28-C ) :   1.0769 B( 28-C , 29-H ) :   0.9755
B( 28-C , 30-H ) :   0.9753 B( 28-C , 31-H ) :   0.9773

Dispersion correction           -0.013601573
FINAL SINGLE POINT ENERGY     -1339.869614403281

DIPOLE MOMENT
-------------
                                X             Y             Z
Electronic contribution:      7.33922      31.68674       7.36721
Nuclear contribution   :     -7.28937     -32.31544      -7.48281
                        -----------------------------------------
Total Dipole Moment    :      0.04986      -0.62871      -0.11560
                        -----------------------------------------
Magnitude (a.u.)       :      0.64119
Magnitude (Debye)      :      1.62977

Rotational constants in cm-1:     0.017303     0.008903     0.006157
Rotational constants in MHz :   518.717435   266.897420   184.585865

                             ****ORCA TERMINATED NORMALLY****
TOTAL RUN TIME: 0 days 0 hours 0 minutes 33 seconds 576 msec
