                         Program Version 4.2.1 -  RELEASE  -
|  1> ! wB97X-D3 SP def2-SVP
|  2> %pal
|  3> nprocs 16
|  4> end
|  5>
|  6> * xyz 0 1
|  7> S 	 39.9113 	 26.7444 	 49.5468
|  8> C 	 39.8473 	 27.7387 	 51.0185
|  9> C 	 40.015 	 29.0971 	 50.6428
| 10> C 	 40.076 	 29.2602 	 49.2664
| 11> C 	 39.7638 	 28.1224 	 48.5432
| 12> H 	 40.218 	 30.1638 	 48.701
| 13> C 	 40.1358 	 30.1803 	 51.6633
| 14> H 	 39.2928 	 30.2489 	 52.3877
| 15> H 	 40.0233 	 31.0918 	 51.0453
| 16> C 	 41.491 	 30.2696 	 52.3036
| 17> H 	 42.2655 	 30.0961 	 51.6355
| 18> H 	 41.769 	 31.372 	 52.4638
| 19> C 	 41.7243 	 29.5199 	 53.6207
| 20> H 	 41.105 	 29.8877 	 54.4494
| 21> H 	 41.4575 	 28.4535 	 53.5486
| 22> H 	 42.7611 	 29.6971 	 53.9571
| 23> S 	 39.6447 	 26.5858 	 46.1612
| 24> C 	 39.21 	 27.3494 	 44.6623
| 25> C 	 38.7278 	 28.6082 	 44.8969
| 26> C 	 38.6494 	 28.9818 	 46.2842
| 27> C 	 39.3456 	 28.0926 	 47.1346
| 28> H 	 38.1919 	 29.1687 	 44.0647
| 29> C 	 37.9146 	 30.262 	 46.7379
| 30> H 	 37.5759 	 30.8594 	 45.8497
| 31> H 	 38.6333 	 30.9479 	 47.2289
| 32> C 	 36.7139 	 30.0058 	 47.5415
| 33> H 	 36.2493 	 30.9672 	 47.7905
| 34> H 	 36.9584 	 29.4426 	 48.515
| 35> C 	 35.5867 	 29.0365 	 47.0273
| 36> H 	 34.7688 	 28.938 	 47.8066
| 37> H 	 36.0074 	 28.115 	 46.7608
| 38> H 	 35.2221 	 29.5433 	 46.1018
| 39> H 	 39.9042 	 27.4685 	 52.0154
| 40> H 	 39.0783 	 26.8798 	 43.6988
| 41> *
| 42>
| 43>                          ****END OF INPUT****

CARTESIAN COORDINATES (ANGSTROEM)
---------------------------------
  S     39.911300   26.744400   49.546800
  C     39.847300   27.738700   51.018500
  C     40.015000   29.097100   50.642800
  C     40.076000   29.260200   49.266400
  C     39.763800   28.122400   48.543200
  H     40.218000   30.163800   48.701000
  C     40.135800   30.180300   51.663300
  H     39.292800   30.248900   52.387700
  H     40.023300   31.091800   51.045300
  C     41.491000   30.269600   52.303600
  H     42.265500   30.096100   51.635500
  H     41.769000   31.372000   52.463800
  C     41.724300   29.519900   53.620700
  H     41.105000   29.887700   54.449400
  H     41.457500   28.453500   53.548600
  H     42.761100   29.697100   53.957100
  S     39.644700   26.585800   46.161200
  C     39.210000   27.349400   44.662300
  C     38.727800   28.608200   44.896900
  C     38.649400   28.981800   46.284200
  C     39.345600   28.092600   47.134600
  H     38.191900   29.168700   44.064700
  C     37.914600   30.262000   46.737900
  H     37.575900   30.859400   45.849700
  H     38.633300   30.947900   47.228900
  C     36.713900   30.005800   47.541500
  H     36.249300   30.967200   47.790500
  H     36.958400   29.442600   48.515000
  C     35.586700   29.036500   47.027300
  H     34.768800   28.938000   47.806600
  H     36.007400   28.115000   46.760800
  H     35.222100   29.543300   46.101800
  H     39.904200   27.468500   52.015400
  H     39.078300   26.879800   43.698800

 Total Charge           Charge          ....    0
 Multiplicity           Mult            ....    1
 Number of Electrons    NEL             ....  134
 Basis Dimension        Dim             ....  322

ORBITAL ENERGIES
----------------

  NO   OCC          E(Eh)            E(eV)
   0   2.0000     -88.969923     -2420.9947
   1   2.0000     -88.965312     -2420.8692
   2   2.0000     -10.340410      -281.3769
   3   2.0000     -10.332163      -281.1525
   4   2.0000     -10.319598      -280.8105
   5   2.0000     -10.313348      -280.6405
   6   2.0000     -10.313340      -280.6402
   7   2.0000     -10.301470      -280.3172
   8   2.0000     -10.299559      -280.2653
   9   2.0000     -10.298464      -280.2355
  10   2.0000     -10.294181      -280.1189
  11   2.0000     -10.291494      -280.0458
  12   2.0000     -10.285535      -279.8836
  13   2.0000     -10.285377      -279.8793
  14   2.0000     -10.283359      -279.8244
  15   2.0000     -10.278322      -279.6874
  16   2.0000      -8.084622      -219.9937
  17   2.0000      -8.079415      -219.8521
  18   2.0000      -6.043113      -164.4415
  19   2.0000      -6.039209      -164.3352
  20   2.0000      -6.038064      -164.3041
  21   2.0000      -6.035326      -164.2296
  22   2.0000      -6.034063      -164.1952
  23   2.0000      -6.030022      -164.0852
  24   2.0000      -1.008611       -27.4457
  25   2.0000      -0.984683       -26.7946
  26   2.0000      -0.918224       -24.9861
  27   2.0000      -0.910144       -24.7663
  28   2.0000      -0.866835       -23.5878
  29   2.0000      -0.852867       -23.2077
  30   2.0000      -0.838952       -22.8290
  31   2.0000      -0.814803       -22.1719
  32   2.0000      -0.787022       -21.4160
  33   2.0000      -0.779233       -21.2040
  34   2.0000      -0.712273       -19.3819
  35   2.0000      -0.703886       -19.1537
  36   2.0000      -0.679647       -18.4941
  37   2.0000      -0.657364       -17.8878
  38   2.0000      -0.643323       -17.5057
  39   2.0000      -0.621496       -16.9118
  40   2.0000      -0.591380       -16.0923
  41   2.0000      -0.573554       -15.6072
  42   2.0000      -0.553794       -15.0695
  43   2.0000      -0.551847       -15.0165
  44   2.0000      -0.548954       -14.9378
  45   2.0000      -0.529248       -14.4016
  46   2.0000      -0.522663       -14.2224
  47   2.0000      -0.514233       -13.9930
  48   2.0000      -0.506226       -13.7751
  49   2.0000      -0.498716       -13.5708
  50   2.0000      -0.488327       -13.2881
  51   2.0000      -0.481433       -13.1005
  52   2.0000      -0.478434       -13.0189
  53   2.0000      -0.465869       -12.6769
  54   2.0000      -0.458715       -12.4823
  55   2.0000      -0.454439       -12.3659
  56   2.0000      -0.448250       -12.1975
  57   2.0000      -0.441795       -12.0218
  58   2.0000      -0.434821       -11.8321
  59   2.0000      -0.428847       -11.6695
  60   2.0000      -0.411649       -11.2015
  61   2.0000      -0.397641       -10.8204
  62   2.0000      -0.389647       -10.6028
  63   2.0000      -0.353744        -9.6259
  64   2.0000      -0.336290        -9.1509
  65   2.0000      -0.329127        -8.9560
  66   2.0000      -0.281958        -7.6725
  67   0.0000       0.009835         0.2676
  68   0.0000       0.073207         1.9921
  69   0.0000       0.093337         2.5398
  70   0.0000       0.117545         3.1986
  71   0.0000       0.132025         3.5926

MULLIKEN ATOMIC CHARGES
-----------------------
   0 S :    0.116774
   1 C :   -0.070998
   2 C :   -0.108676
   3 C :    0.019083
   4 C :   -0.123511
   5 H :    0.003651
   6 C :    0.068200
   7 H :    0.045491
   8 H :    0.014586
   9 C :   -0.053034
  10 H :    0.007888
  11 H :    0.021059
  12 C :   -0.047848
  13 H :    0.027009
  14 H :    0.029391
  15 H :    0.040523
  16 S :    0.080219
  17 C :   -0.071837
  18 C :   -0.057018
  19 C :   -0.081997
  20 C :   -0.136108
  21 H :    0.044324
  22 C :    0.081531
  23 H :    0.018303
  24 H :    0.039973
  25 C :   -0.122432
  26 H :    0.030937
  27 H :    0.045873
  28 C :   -0.052710
  29 H :    0.053194
  30 H :    0.039745
  31 H :    0.020856
  32 H :    0.014895
  33 H :    0.062664
Sum of atomic charges:   -0.0000000

LOEWDIN ATOMIC CHARGES
----------------------
   0 S :    0.417278
   1 C :   -0.182946
   2 C :   -0.057588
   3 C :   -0.066275
   4 C :   -0.200634
   5 H :    0.029205
   6 C :   -0.038143
   7 H :    0.038811
   8 H :    0.036187
   9 C :   -0.046785
  10 H :    0.017713
  11 H :    0.032377
  12 C :   -0.067968
  13 H :    0.024140
  14 H :    0.022325
  15 H :    0.032347
  16 S :    0.375672
  17 C :   -0.184994
  18 C :   -0.087354
  19 C :   -0.054663
  20 C :   -0.172328
  21 H :    0.042646
  22 C :   -0.039130
  23 H :    0.033154
  24 H :    0.034622
  25 C :   -0.053975
  26 H :    0.023496
  27 H :    0.032202
  28 C :   -0.060606
  29 H :    0.036775
  30 H :    0.016658
  31 H :    0.021253
  32 H :    0.011233
  33 H :    0.035296

  Mayer bond orders larger than 0.100000
B(  0-S ,  1-C ) :   1.1361 B(  0-S ,  4-C ) :   1.1689 B(  1-C ,  2-C ) :   1.5508
B(  1-C ,  4-C ) :   0.1137 B(  1-C , 32-H ) :   0.9824 B(  2-C ,  3-C ) :   1.2900
B(  2-C ,  6-C ) :   1.0283 B(  3-C ,  4-C ) :   1.5121 B(  3-C ,  5-H ) :   0.9987
B(  4-C , 20-C ) :   1.0847 B(  6-C ,  7-H ) :   0.9460 B(  6-C ,  8-H ) :   0.9307
B(  6-C ,  9-C ) :   1.0676 B(  9-C , 10-H ) :   0.9491 B(  9-C , 11-H ) :   0.9503
B(  9-C , 12-C ) :   1.0814 B( 12-C , 13-H ) :   0.9748 B( 12-C , 14-H ) :   0.9731
B( 12-C , 15-H ) :   0.9714 B( 16-S , 17-C ) :   1.1548 B( 16-S , 20-C ) :   1.1138
B( 17-C , 18-C ) :   1.6153 B( 17-C , 20-C ) :   0.1019 B( 17-C , 33-H ) :   0.9647
B( 18-C , 19-C ) :   1.2629 B( 18-C , 21-H ) :   0.9713 B( 19-C , 20-C ) :   1.5628
B( 19-C , 22-C ) :   1.0240 B( 22-C , 23-H ) :   0.9313 B( 22-C , 24-H ) :   0.9358
B( 22-C , 25-C ) :   1.0795 B( 25-C , 26-H ) :   0.9558 B( 25-C , 27-H ) :   0.9547
B( 25-C , 28-C ) :   1.0657 B( 28-C , 29-H ) :   0.9753 B( 28-C , 30-H ) :   0.9752
B( 28-C , 31-H ) :   0.9759

Dispersion correction           -0.015027198
FINAL SINGLE POINT ENERGY     -1339.850780268781

DIPOLE MOMENT
-------------
                                X             Y             Z
Electronic contribution:      6.24534     -18.94595     -13.88926
Nuclear contribution   :     -6.43263      19.64514      14.00414
                        -----------------------------------------
Total Dipole Moment    :     -0.18729       0.69919       0.11488
                        -----------------------------------------
Magnitude (a.u.)       :      0.73290
Magnitude (Debye)      :      1.86289

Rotational constants in cm-1:     0.023455     0.007904     0.006754
Rotational constants in MHz :   703.153149   236.970704   202.472594

                             ****ORCA TERMINATED NORMALLY****
TOTAL RUN TIME: 0 days 0 hours 0 minutes 35 seconds 476 msec
