                         Program Version 4.2.1 -  RELEASE  -
|  1> ! wB97X-D3 SP def2-SVP
|  2> %pal
|  3> nprocs 16
|  4> end
|  5>
|  6> * xyz 0 1
|  7> S 	 -34.2984 	 54.6367 	 103.925
|  8> C 	 -35.2178 	 53.5022 	 103.011
|  9> C 	 -35.992 	 54.0592 	 102.061
| 10> C 	 -35.9626 	 55.5004 	 102.107
| 11> C 	 -35.0895 	 55.9402 	 103.088
| 12> H 	 -36.6588 	 56.1692 	 101.611
| 13> C 	 -36.8028 	 53.3057 	 101.055
| 14> H 	 -36.2043 	 52.4103 	 100.891
| 15> H 	 -36.8216 	 53.9463 	 100.11
| 16> C 	 -38.3168 	 52.9333 	 101.368
| 17> H 	 -38.3916 	 52.3079 	 102.263
| 18> H 	 -38.9712 	 53.8489 	 101.504
| 19> C 	 -38.9264 	 52.1294 	 100.193
| 20> H 	 -38.3509 	 51.2408 	 99.9658
| 21> H 	 -39.9996 	 51.8195 	 100.482
| 22> H 	 -38.895 	 52.7391 	 99.2899
| 23> S 	 -32.9474 	 57.6703 	 102.994
| 24> C 	 -33.1979 	 59.4082 	 103.047
| 25> C 	 -34.4857 	 59.6271 	 103.264
| 26> C 	 -35.3133 	 58.5148 	 103.536
| 27> C 	 -34.6325 	 57.3222 	 103.147
| 28> H 	 -34.8181 	 60.623 	 103.241
| 29> C 	 -36.7745 	 58.6368 	 103.861
| 30> H 	 -36.7116 	 58.8717 	 104.827
| 31> H 	 -37.2461 	 57.6965 	 103.886
| 32> C 	 -37.587 	 59.7331 	 103.138
| 33> H 	 -37.5683 	 59.5308 	 102.018
| 34> H 	 -37.1875 	 60.6563 	 103.442
| 35> C 	 -39.0797 	 59.7087 	 103.543
| 36> H 	 -39.5403 	 58.7564 	 103.452
| 37> H 	 -39.6512 	 60.2948 	 102.895
| 38> H 	 -39.3125 	 60.0771 	 104.504
| 39> H 	 -35.2354 	 52.4165 	 103.059
| 40> H 	 -32.608 	 60.2247 	 102.693
| 41> *
| 42>
| 43>                          ****END OF INPUT****

CARTESIAN COORDINATES (ANGSTROEM)
---------------------------------
  S    -34.298400   54.636700  103.925000
  C    -35.217800   53.502200  103.011000
  C    -35.992000   54.059200  102.061000
  C    -35.962600   55.500400  102.107000
  C    -35.089500   55.940200  103.088000
  H    -36.658800   56.169200  101.611000
  C    -36.802800   53.305700  101.055000
  H    -36.204300   52.410300  100.891000
  H    -36.821600   53.946300  100.110000
  C    -38.316800   52.933300  101.368000
  H    -38.391600   52.307900  102.263000
  H    -38.971200   53.848900  101.504000
  C    -38.926400   52.129400  100.193000
  H    -38.350900   51.240800   99.965800
  H    -39.999600   51.819500  100.482000
  H    -38.895000   52.739100   99.289900
  S    -32.947400   57.670300  102.994000
  C    -33.197900   59.408200  103.047000
  C    -34.485700   59.627100  103.264000
  C    -35.313300   58.514800  103.536000
  C    -34.632500   57.322200  103.147000
  H    -34.818100   60.623000  103.241000
  C    -36.774500   58.636800  103.861000
  H    -36.711600   58.871700  104.827000
  H    -37.246100   57.696500  103.886000
  C    -37.587000   59.733100  103.138000
  H    -37.568300   59.530800  102.018000
  H    -37.187500   60.656300  103.442000
  C    -39.079700   59.708700  103.543000
  H    -39.540300   58.756400  103.452000
  H    -39.651200   60.294800  102.895000
  H    -39.312500   60.077100  104.504000
  H    -35.235400   52.416500  103.059000
  H    -32.608000   60.224700  102.693000

 Total Charge           Charge          ....    0
 Multiplicity           Mult            ....    1
 Number of Electrons    NEL             ....  134
 Basis Dimension        Dim             ....  322

ORBITAL ENERGIES
----------------

  NO   OCC          E(Eh)            E(eV)
   0   2.0000     -88.969881     -2420.9935
   1   2.0000     -88.959758     -2420.7181
   2   2.0000     -10.327097      -281.0146
   3   2.0000     -10.324945      -280.9560
   4   2.0000     -10.307535      -280.4823
   5   2.0000     -10.303987      -280.3857
   6   2.0000     -10.299858      -280.2734
   7   2.0000     -10.298632      -280.2400
   8   2.0000     -10.298455      -280.2352
   9   2.0000     -10.294257      -280.1210
  10   2.0000     -10.294017      -280.1144
  11   2.0000     -10.292279      -280.0671
  12   2.0000     -10.286098      -279.8989
  13   2.0000     -10.278155      -279.6828
  14   2.0000     -10.273967      -279.5688
  15   2.0000     -10.267740      -279.3994
  16   2.0000      -8.085096      -220.0066
  17   2.0000      -8.074791      -219.7262
  18   2.0000      -6.043696      -164.4573
  19   2.0000      -6.039561      -164.3448
  20   2.0000      -6.035710      -164.2400
  21   2.0000      -6.033396      -164.1771
  22   2.0000      -6.029223      -164.0635
  23   2.0000      -6.025437      -163.9605
  24   2.0000      -1.011197       -27.5161
  25   2.0000      -0.989988       -26.9389
  26   2.0000      -0.912397       -24.8276
  27   2.0000      -0.907059       -24.6823
  28   2.0000      -0.873452       -23.7678
  29   2.0000      -0.853409       -23.2225
  30   2.0000      -0.848816       -23.0975
  31   2.0000      -0.821504       -22.3543
  32   2.0000      -0.782439       -21.2913
  33   2.0000      -0.770243       -20.9594
  34   2.0000      -0.713518       -19.4158
  35   2.0000      -0.705966       -19.2103
  36   2.0000      -0.697390       -18.9769
  37   2.0000      -0.653022       -17.7696
  38   2.0000      -0.636217       -17.3123
  39   2.0000      -0.618372       -16.8268
  40   2.0000      -0.595663       -16.2088
  41   2.0000      -0.575653       -15.6643
  42   2.0000      -0.573808       -15.6141
  43   2.0000      -0.558604       -15.2004
  44   2.0000      -0.529244       -14.4015
  45   2.0000      -0.522917       -14.2293
  46   2.0000      -0.518346       -14.1049
  47   2.0000      -0.507139       -13.8000
  48   2.0000      -0.504544       -13.7293
  49   2.0000      -0.497015       -13.5245
  50   2.0000      -0.494391       -13.4531
  51   2.0000      -0.484128       -13.1738
  52   2.0000      -0.474718       -12.9177
  53   2.0000      -0.466216       -12.6864
  54   2.0000      -0.458847       -12.4859
  55   2.0000      -0.449654       -12.2357
  56   2.0000      -0.445129       -12.1126
  57   2.0000      -0.436653       -11.8819
  58   2.0000      -0.432513       -11.7693
  59   2.0000      -0.429806       -11.6956
  60   2.0000      -0.426554       -11.6071
  61   2.0000      -0.424622       -11.5545
  62   2.0000      -0.412948       -11.2369
  63   2.0000      -0.347678        -9.4608
  64   2.0000      -0.329665        -8.9706
  65   2.0000      -0.325518        -8.8578
  66   2.0000      -0.291189        -7.9237
  67   0.0000       0.037972         1.0333
  68   0.0000       0.066462         1.8085
  69   0.0000       0.112635         3.0650
  70   0.0000       0.126954         3.4546
  71   0.0000       0.130936         3.5630

MULLIKEN ATOMIC CHARGES
-----------------------
   0 S :    0.131399
   1 C :   -0.102757
   2 C :   -0.082275
   3 C :    0.028636
   4 C :   -0.156526
   5 H :    0.022720
   6 C :    0.021694
   7 H :    0.024570
   8 H :    0.037326
   9 C :   -0.073403
  10 H :    0.032423
  11 H :    0.041109
  12 C :   -0.066574
  13 H :    0.028725
  14 H :    0.051504
  15 H :    0.030906
  16 S :    0.096375
  17 C :   -0.059184
  18 C :   -0.043917
  19 C :   -0.051093
  20 C :   -0.163612
  21 H :   -0.005876
  22 C :    0.154081
  23 H :   -0.008481
  24 H :   -0.001083
  25 C :   -0.083435
  26 H :    0.047021
  27 H :    0.027391
  28 C :    0.000289
  29 H :    0.014121
  30 H :    0.010071
  31 H :    0.017776
  32 H :    0.033939
  33 H :    0.046140
Sum of atomic charges:   -0.0000000

LOEWDIN ATOMIC CHARGES
----------------------
   0 S :    0.422851
   1 C :   -0.206908
   2 C :   -0.071687
   3 C :   -0.051784
   4 C :   -0.200731
   5 H :    0.033662
   6 C :   -0.038239
   7 H :    0.030578
   8 H :    0.039332
   9 C :   -0.041606
  10 H :    0.022021
  11 H :    0.029974
  12 C :   -0.071006
  13 H :    0.020641
  14 H :    0.036968
  15 H :    0.022523
  16 S :    0.404439
  17 C :   -0.189663
  18 C :   -0.069927
  19 C :   -0.052903
  20 C :   -0.201009
  21 H :    0.021377
  22 C :   -0.027289
  23 H :    0.021147
  24 H :    0.024218
  25 C :   -0.026498
  26 H :    0.034163
  27 H :    0.017412
  28 C :   -0.057701
  29 H :    0.021402
  30 H :    0.020058
  31 H :    0.019693
  32 H :    0.030801
  33 H :    0.033689

  Mayer bond orders larger than 0.100000
B(  0-S ,  1-C ) :   1.1203 B(  0-S ,  4-C ) :   1.1549 B(  1-C ,  2-C ) :   1.6570
B(  1-C , 32-H ) :   0.9579 B(  2-C ,  3-C ) :   1.2299 B(  2-C ,  6-C ) :   1.0247
B(  3-C ,  4-C ) :   1.5758 B(  3-C ,  5-H ) :   0.9927 B(  4-C , 20-C ) :   1.0357
B(  6-C ,  7-H ) :   0.9392 B(  6-C ,  8-H ) :   0.9417 B(  6-C ,  9-C ) :   1.0551
B(  9-C , 10-H ) :   0.9577 B(  9-C , 11-H ) :   0.9572 B(  9-C , 12-C ) :   1.0744
B( 12-C , 13-H ) :   0.9759 B( 12-C , 14-H ) :   0.9736 B( 12-C , 15-H ) :   0.9756
B( 16-S , 17-C ) :   1.1275 B( 16-S , 20-C ) :   1.1566 B( 17-C , 18-C ) :   1.6535
B( 17-C , 33-H ) :   0.9600 B( 18-C , 19-C ) :   1.2360 B( 18-C , 21-H ) :   0.9900
B( 19-C , 20-C ) :   1.5555 B( 19-C , 22-C ) :   1.0449 B( 22-C , 23-H ) :   0.8981
B( 22-C , 24-H ) :   0.9303 B( 22-C , 25-C ) :   1.0711 B( 25-C , 26-H ) :   0.9626
B( 25-C , 27-H ) :   0.9452 B( 25-C , 28-C ) :   1.0925 B( 28-C , 29-H ) :   0.9728
B( 28-C , 30-H ) :   0.9706 B( 28-C , 31-H ) :   0.9737

Dispersion correction           -0.013372930
FINAL SINGLE POINT ENERGY     -1339.853439911830

DIPOLE MOMENT
-------------
                                X             Y             Z
Electronic contribution:     29.67491       0.97790       9.31523
Nuclear contribution   :    -30.43484      -0.87250      -9.57140
                        -----------------------------------------
Total Dipole Moment    :     -0.75993       0.10540      -0.25618
                        -----------------------------------------
Magnitude (a.u.)       :      0.80885
Magnitude (Debye)      :      2.05592

Rotational constants in cm-1:     0.016912     0.008289     0.006096
Rotational constants in MHz :   507.014921   248.486341   182.764177

                             ****ORCA TERMINATED NORMALLY****
TOTAL RUN TIME: 0 days 0 hours 0 minutes 29 seconds 561 msec
