                         Program Version 4.2.1 -  RELEASE  -
|  1> ! wB97X-D3 SP def2-SVP
|  2> %pal
|  3> nprocs 16
|  4> end
|  5>
|  6> * xyz 0 1
|  7> S 	 -112.582 	 49.4175 	 127.441
|  8> C 	 -113.204 	 50.732 	 128.451
|  9> C 	 -113.534 	 50.2805 	 129.745
| 10> C 	 -113.24 	 48.921 	 129.919
| 11> C 	 -112.858 	 48.2193 	 128.754
| 12> H 	 -113.214 	 48.292 	 130.869
| 13> C 	 -113.954 	 51.1213 	 130.891
| 14> H 	 -114.796 	 50.5739 	 131.374
| 15> H 	 -114.484 	 52.0579 	 130.578
| 16> C 	 -112.849 	 51.3656 	 131.903
| 17> H 	 -112.511 	 50.4228 	 132.23
| 18> H 	 -112.007 	 51.9097 	 131.53
| 19> C 	 -113.351 	 52.1122 	 133.184
| 20> H 	 -114.275 	 51.505 	 133.568
| 21> H 	 -112.531 	 52.296 	 133.93
| 22> H 	 -113.724 	 53.1198 	 133.061
| 23> S 	 -110.751 	 46.5669 	 128.006
| 24> C 	 -110.982 	 44.778 	 128.175
| 25> C 	 -112.287 	 44.4832 	 128.704
| 26> C 	 -113.017 	 45.6384 	 129.006
| 27> C 	 -112.389 	 46.8258 	 128.696
| 28> H 	 -112.605 	 43.4776 	 128.81
| 29> C 	 -114.374 	 45.4975 	 129.684
| 30> H 	 -114.851 	 44.8255 	 129.022
| 31> H 	 -114.941 	 46.523 	 129.565
| 32> C 	 -114.374 	 44.932 	 131.102
| 33> H 	 -113.783 	 45.6454 	 131.762
| 34> H 	 -113.977 	 43.8961 	 131.176
| 35> C 	 -115.829 	 44.9994 	 131.673
| 36> H 	 -116.459 	 44.5417 	 130.91
| 37> H 	 -116.073 	 46.0435 	 131.903
| 38> H 	 -115.866 	 44.5459 	 132.629
| 39> H 	 -113.218 	 51.7487 	 128.11
| 40> H 	 -110.28 	 43.9008 	 128.011
| 41> *
| 42>
| 43>                          ****END OF INPUT****

CARTESIAN COORDINATES (ANGSTROEM)
---------------------------------
  S    -112.582000   49.417500  127.441000
  C    -113.204000   50.732000  128.451000
  C    -113.534000   50.280500  129.745000
  C    -113.240000   48.921000  129.919000
  C    -112.858000   48.219300  128.754000
  H    -113.214000   48.292000  130.869000
  C    -113.954000   51.121300  130.891000
  H    -114.796000   50.573900  131.374000
  H    -114.484000   52.057900  130.578000
  C    -112.849000   51.365600  131.903000
  H    -112.511000   50.422800  132.230000
  H    -112.007000   51.909700  131.530000
  C    -113.351000   52.112200  133.184000
  H    -114.275000   51.505000  133.568000
  H    -112.531000   52.296000  133.930000
  H    -113.724000   53.119800  133.061000
  S    -110.751000   46.566900  128.006000
  C    -110.982000   44.778000  128.175000
  C    -112.287000   44.483200  128.704000
  C    -113.017000   45.638400  129.006000
  C    -112.389000   46.825800  128.696000
  H    -112.605000   43.477600  128.810000
  C    -114.374000   45.497500  129.684000
  H    -114.851000   44.825500  129.022000
  H    -114.941000   46.523000  129.565000
  C    -114.374000   44.932000  131.102000
  H    -113.783000   45.645400  131.762000
  H    -113.977000   43.896100  131.176000
  C    -115.829000   44.999400  131.673000
  H    -116.459000   44.541700  130.910000
  H    -116.073000   46.043500  131.903000
  H    -115.866000   44.545900  132.629000
  H    -113.218000   51.748700  128.110000
  H    -110.280000   43.900800  128.011000

 Total Charge           Charge          ....    0
 Multiplicity           Mult            ....    1
 Number of Electrons    NEL             ....  134
 Basis Dimension        Dim             ....  322

ORBITAL ENERGIES
----------------

  NO   OCC          E(Eh)            E(eV)
   0   2.0000     -88.971488     -2421.0373
   1   2.0000     -88.969480     -2420.9826
   2   2.0000     -10.335889      -281.2538
   3   2.0000     -10.332433      -281.1598
   4   2.0000     -10.330452      -281.1059
   5   2.0000     -10.319668      -280.8124
   6   2.0000     -10.303545      -280.3737
   7   2.0000     -10.301263      -280.3116
   8   2.0000     -10.301136      -280.3082
   9   2.0000     -10.297102      -280.1984
  10   2.0000     -10.295959      -280.1673
  11   2.0000     -10.295715      -280.1606
  12   2.0000     -10.294893      -280.1383
  13   2.0000     -10.290105      -280.0080
  14   2.0000     -10.284969      -279.8682
  15   2.0000     -10.278077      -279.6807
  16   2.0000      -8.084040      -219.9779
  17   2.0000      -8.082794      -219.9440
  18   2.0000      -6.042750      -164.4316
  19   2.0000      -6.041351      -164.3935
  20   2.0000      -6.038883      -164.3264
  21   2.0000      -6.037461      -164.2877
  22   2.0000      -6.034663      -164.2115
  23   2.0000      -6.033625      -164.1833
  24   2.0000      -0.996913       -27.1274
  25   2.0000      -0.975899       -26.5556
  26   2.0000      -0.913688       -24.8627
  27   2.0000      -0.905871       -24.6500
  28   2.0000      -0.862537       -23.4708
  29   2.0000      -0.850926       -23.1549
  30   2.0000      -0.845235       -23.0000
  31   2.0000      -0.807620       -21.9764
  32   2.0000      -0.777702       -21.1624
  33   2.0000      -0.766578       -20.8596
  34   2.0000      -0.706401       -19.2222
  35   2.0000      -0.700331       -19.0570
  36   2.0000      -0.690798       -18.7976
  37   2.0000      -0.664340       -18.0776
  38   2.0000      -0.642286       -17.4775
  39   2.0000      -0.615550       -16.7500
  40   2.0000      -0.585461       -15.9312
  41   2.0000      -0.570656       -15.5284
  42   2.0000      -0.568494       -15.4695
  43   2.0000      -0.556139       -15.1333
  44   2.0000      -0.528407       -14.3787
  45   2.0000      -0.526301       -14.3214
  46   2.0000      -0.514669       -14.0049
  47   2.0000      -0.510904       -13.9024
  48   2.0000      -0.503003       -13.6874
  49   2.0000      -0.495010       -13.4699
  50   2.0000      -0.491775       -13.3819
  51   2.0000      -0.473211       -12.8767
  52   2.0000      -0.463426       -12.6105
  53   2.0000      -0.462211       -12.5774
  54   2.0000      -0.452419       -12.3110
  55   2.0000      -0.447043       -12.1647
  56   2.0000      -0.442377       -12.0377
  57   2.0000      -0.438498       -11.9321
  58   2.0000      -0.434794       -11.8313
  59   2.0000      -0.429400       -11.6846
  60   2.0000      -0.425276       -11.5723
  61   2.0000      -0.413755       -11.2588
  62   2.0000      -0.410850       -11.1798
  63   2.0000      -0.343126        -9.3369
  64   2.0000      -0.334322        -9.0974
  65   2.0000      -0.330125        -8.9832
  66   2.0000      -0.286856        -7.8058
  67   0.0000       0.022120         0.6019
  68   0.0000       0.058862         1.6017
  69   0.0000       0.101255         2.7553
  70   0.0000       0.118899         3.2354
  71   0.0000       0.122879         3.3437

MULLIKEN ATOMIC CHARGES
-----------------------
   0 S :    0.101319
   1 C :   -0.120406
   2 C :   -0.046430
   3 C :   -0.017807
   4 C :   -0.158006
   5 H :    0.047705
   6 C :    0.038449
   7 H :    0.026558
   8 H :    0.024957
   9 C :   -0.019875
  10 H :    0.017757
  11 H :    0.028613
  12 C :   -0.094941
  13 H :    0.038261
  14 H :    0.046512
  15 H :    0.027822
  16 S :    0.106970
  17 C :   -0.121341
  18 C :   -0.042236
  19 C :   -0.005155
  20 C :   -0.167397
  21 H :    0.010584
  22 C :    0.031247
  23 H :    0.016531
  24 H :    0.050875
  25 C :   -0.102077
  26 H :    0.035973
  27 H :    0.043585
  28 C :   -0.024643
  29 H :    0.037695
  30 H :    0.031218
  31 H :    0.026901
  32 H :    0.048682
  33 H :    0.082101
Sum of atomic charges:    0.0000000

LOEWDIN ATOMIC CHARGES
----------------------
   0 S :    0.383725
   1 C :   -0.184840
   2 C :   -0.068445
   3 C :   -0.067489
   4 C :   -0.185928
   5 H :    0.044322
   6 C :   -0.038961
   7 H :    0.034813
   8 H :    0.032717
   9 C :   -0.030942
  10 H :    0.019814
  11 H :    0.023862
  12 C :   -0.077730
  13 H :    0.033847
  14 H :    0.032345
  15 H :    0.018528
  16 S :    0.373398
  17 C :   -0.183020
  18 C :   -0.065395
  19 C :   -0.058402
  20 C :   -0.188536
  21 H :    0.026201
  22 C :   -0.039645
  23 H :    0.023909
  24 H :    0.044305
  25 C :   -0.042414
  26 H :    0.027534
  27 H :    0.026938
  28 C :   -0.059885
  29 H :    0.025810
  30 H :    0.027334
  31 H :    0.020152
  32 H :    0.025539
  33 H :    0.046541

  Mayer bond orders larger than 0.100000
B(  0-S ,  1-C ) :   1.1466 B(  0-S ,  4-C ) :   1.1433 B(  1-C ,  2-C ) :   1.5692
B(  1-C ,  4-C ) :   0.1073 B(  1-C , 32-H ) :   0.9737 B(  2-C ,  3-C ) :   1.2593
B(  2-C ,  6-C ) :   1.0369 B(  3-C ,  4-C ) :   1.5540 B(  3-C ,  5-H ) :   0.9757
B(  4-C , 20-C ) :   1.0540 B(  6-C ,  7-H ) :   0.9333 B(  6-C ,  8-H ) :   0.9411
B(  6-C ,  9-C ) :   1.0636 B(  9-C , 10-H ) :   0.9524 B(  9-C , 11-H ) :   0.9553
B(  9-C , 12-C ) :   1.0749 B( 12-C , 13-H ) :   0.9735 B( 12-C , 14-H ) :   0.9746
B( 12-C , 15-H ) :   0.9769 B( 16-S , 17-C ) :   1.1459 B( 16-S , 20-C ) :   1.1158
B( 17-C , 18-C ) :   1.6015 B( 17-C , 20-C ) :   0.1071 B( 17-C , 33-H ) :   0.9571
B( 18-C , 19-C ) :   1.2495 B( 18-C , 21-H ) :   0.9921 B( 19-C , 20-C ) :   1.6066
B( 19-C , 22-C ) :   1.0301 B( 22-C , 23-H ) :   0.9224 B( 22-C , 24-H ) :   0.9372
B( 22-C , 25-C ) :   1.0654 B( 25-C , 26-H ) :   0.9566 B( 25-C , 27-H ) :   0.9521
B( 25-C , 28-C ) :   1.0785 B( 28-C , 29-H ) :   0.9753 B( 28-C , 30-H ) :   0.9767
B( 28-C , 31-H ) :   0.9739

Dispersion correction           -0.013801885
FINAL SINGLE POINT ENERGY     -1339.861493872938

DIPOLE MOMENT
-------------
                                X             Y             Z
Electronic contribution:     15.70906      -2.98317     -26.00133
Nuclear contribution   :    -15.97378       2.87776      26.60416
                        -----------------------------------------
Total Dipole Moment    :     -0.26471      -0.10541       0.60283
                        -----------------------------------------
Magnitude (a.u.)       :      0.66678
Magnitude (Debye)      :      1.69481

Rotational constants in cm-1:     0.016171     0.008789     0.006543
Rotational constants in MHz :   484.793612   263.494083   196.158691

                             ****ORCA TERMINATED NORMALLY****
TOTAL RUN TIME: 0 days 0 hours 0 minutes 31 seconds 86 msec
