                         Program Version 4.2.1 -  RELEASE  -
|  1> ! wB97X-D3 SP def2-SVP
|  2> %pal
|  3> nprocs 16
|  4> end
|  5>
|  6> * xyz 0 1
|  7> S 	 42.8478 	 20.13 	 47.5757
|  8> C 	 41.5388 	 18.9538 	 47.4919
|  9> C 	 40.3719 	 19.4216 	 46.8791
| 10> C 	 40.5744 	 20.751 	 46.3707
| 11> C 	 41.8323 	 21.3245 	 46.7995
| 12> H 	 39.9307 	 21.3807 	 45.9244
| 13> C 	 39.0555 	 18.6836 	 46.78
| 14> H 	 39.2022 	 17.7008 	 47.2406
| 15> H 	 38.9447 	 18.4245 	 45.7647
| 16> C 	 37.7433 	 19.1862 	 47.4404
| 17> H 	 37.3016 	 20.0302 	 46.9244
| 18> H 	 37.0515 	 18.3693 	 47.2788
| 19> C 	 37.97 	 19.3217 	 48.984
| 20> H 	 38.1446 	 18.3231 	 49.3976
| 21> H 	 38.8119 	 20.0227 	 49.2339
| 22> H 	 37.0023 	 19.7445 	 49.4446
| 23> S 	 44.0687 	 22.8916 	 46.5594
| 24> C 	 44.0012 	 24.6224 	 46.1905
| 25> C 	 42.6684 	 24.9585 	 46.1109
| 26> C 	 41.7441 	 23.9432 	 46.5222
| 27> C 	 42.3259 	 22.6798 	 46.672
| 28> H 	 42.4237 	 26.0319 	 45.879
| 29> C 	 40.2969 	 24.328 	 46.6861
| 30> H 	 39.5866 	 23.5414 	 46.3911
| 31> H 	 40.1734 	 25.1737 	 45.9586
| 32> C 	 39.875 	 24.7653 	 48.0594
| 33> H 	 40.5889 	 25.5557 	 48.2677
| 34> H 	 39.998 	 23.9399 	 48.7741
| 35> C 	 38.3818 	 25.1947 	 47.9536
| 36> H 	 38.114 	 25.9399 	 47.178
| 37> H 	 38.0053 	 25.473 	 48.9034
| 38> H 	 37.847 	 24.2694 	 47.7233
| 39> H 	 41.536 	 17.9731 	 48.0335
| 40> H 	 44.8591 	 25.1784 	 45.8871
| 41> *
| 42>
| 43>                          ****END OF INPUT****

CARTESIAN COORDINATES (ANGSTROEM)
---------------------------------
  S     42.847800   20.130000   47.575700
  C     41.538800   18.953800   47.491900
  C     40.371900   19.421600   46.879100
  C     40.574400   20.751000   46.370700
  C     41.832300   21.324500   46.799500
  H     39.930700   21.380700   45.924400
  C     39.055500   18.683600   46.780000
  H     39.202200   17.700800   47.240600
  H     38.944700   18.424500   45.764700
  C     37.743300   19.186200   47.440400
  H     37.301600   20.030200   46.924400
  H     37.051500   18.369300   47.278800
  C     37.970000   19.321700   48.984000
  H     38.144600   18.323100   49.397600
  H     38.811900   20.022700   49.233900
  H     37.002300   19.744500   49.444600
  S     44.068700   22.891600   46.559400
  C     44.001200   24.622400   46.190500
  C     42.668400   24.958500   46.110900
  C     41.744100   23.943200   46.522200
  C     42.325900   22.679800   46.672000
  H     42.423700   26.031900   45.879000
  C     40.296900   24.328000   46.686100
  H     39.586600   23.541400   46.391100
  H     40.173400   25.173700   45.958600
  C     39.875000   24.765300   48.059400
  H     40.588900   25.555700   48.267700
  H     39.998000   23.939900   48.774100
  C     38.381800   25.194700   47.953600
  H     38.114000   25.939900   47.178000
  H     38.005300   25.473000   48.903400
  H     37.847000   24.269400   47.723300
  H     41.536000   17.973100   48.033500
  H     44.859100   25.178400   45.887100

 Total Charge           Charge          ....    0
 Multiplicity           Mult            ....    1
 Number of Electrons    NEL             ....  134
 Basis Dimension        Dim             ....  322

ORBITAL ENERGIES
----------------

  NO   OCC          E(Eh)            E(eV)
   0   2.0000     -88.971677     -2421.0424
   1   2.0000     -88.961356     -2420.7616
   2   2.0000     -10.338171      -281.3159
   3   2.0000     -10.332488      -281.1613
   4   2.0000     -10.320423      -280.8330
   5   2.0000     -10.319113      -280.7973
   6   2.0000     -10.307571      -280.4833
   7   2.0000     -10.305318      -280.4219
   8   2.0000     -10.300476      -280.2902
   9   2.0000     -10.295337      -280.1504
  10   2.0000     -10.293644      -280.1043
  11   2.0000     -10.291237      -280.0388
  12   2.0000     -10.290987      -280.0320
  13   2.0000     -10.290171      -280.0098
  14   2.0000     -10.285595      -279.8853
  15   2.0000     -10.279944      -279.7315
  16   2.0000      -8.085892      -220.0283
  17   2.0000      -8.076110      -219.7621
  18   2.0000      -6.044404      -164.4766
  19   2.0000      -6.040461      -164.3693
  20   2.0000      -6.036704      -164.2671
  21   2.0000      -6.034733      -164.2134
  22   2.0000      -6.030524      -164.0989
  23   2.0000      -6.026826      -163.9983
  24   2.0000      -1.004528       -27.3346
  25   2.0000      -0.979709       -26.6592
  26   2.0000      -0.915443       -24.9105
  27   2.0000      -0.910931       -24.7877
  28   2.0000      -0.869220       -23.6527
  29   2.0000      -0.850978       -23.1563
  30   2.0000      -0.842277       -22.9195
  31   2.0000      -0.811708       -22.0877
  32   2.0000      -0.779997       -21.2248
  33   2.0000      -0.771530       -20.9944
  34   2.0000      -0.713287       -19.4095
  35   2.0000      -0.699769       -19.0417
  36   2.0000      -0.692888       -18.8545
  37   2.0000      -0.664919       -18.0934
  38   2.0000      -0.640128       -17.4188
  39   2.0000      -0.620956       -16.8971
  40   2.0000      -0.600271       -16.3342
  41   2.0000      -0.567838       -15.4517
  42   2.0000      -0.563467       -15.3327
  43   2.0000      -0.554990       -15.1020
  44   2.0000      -0.541461       -14.7339
  45   2.0000      -0.523716       -14.2510
  46   2.0000      -0.517928       -14.0935
  47   2.0000      -0.512537       -13.9468
  48   2.0000      -0.503903       -13.7119
  49   2.0000      -0.492669       -13.4062
  50   2.0000      -0.489602       -13.3227
  51   2.0000      -0.481497       -13.1022
  52   2.0000      -0.468075       -12.7370
  53   2.0000      -0.462577       -12.5874
  54   2.0000      -0.460282       -12.5249
  55   2.0000      -0.448207       -12.1963
  56   2.0000      -0.443230       -12.0609
  57   2.0000      -0.439853       -11.9690
  58   2.0000      -0.431998       -11.7553
  59   2.0000      -0.429562       -11.6890
  60   2.0000      -0.425266       -11.5721
  61   2.0000      -0.421916       -11.4809
  62   2.0000      -0.404527       -11.0077
  63   2.0000      -0.357736        -9.7345
  64   2.0000      -0.335431        -9.1276
  65   2.0000      -0.326502        -8.8846
  66   2.0000      -0.280005        -7.6193
  67   0.0000       0.013667         0.3719
  68   0.0000       0.078766         2.1433
  69   0.0000       0.094489         2.5712
  70   0.0000       0.113357         3.0846
  71   0.0000       0.124218         3.3802

MULLIKEN ATOMIC CHARGES
-----------------------
   0 S :    0.115994
   1 C :   -0.122176
   2 C :   -0.104464
   3 C :    0.088987
   4 C :   -0.158277
   5 H :   -0.047405
   6 C :    0.070579
   7 H :    0.000435
   8 H :    0.028635
   9 C :   -0.047026
  10 H :    0.031917
  11 H :    0.029497
  12 C :   -0.098774
  13 H :    0.036492
  14 H :    0.063902
  15 H :    0.046952
  16 S :    0.064127
  17 C :   -0.082567
  18 C :   -0.051497
  19 C :   -0.049795
  20 C :   -0.095044
  21 H :    0.041815
  22 C :   -0.003181
  23 H :    0.009670
  24 H :    0.026612
  25 C :   -0.043190
  26 H :    0.022234
  27 H :    0.040405
  28 C :   -0.026497
  29 H :    0.040384
  30 H :    0.025355
  31 H :    0.021996
  32 H :    0.062637
  33 H :    0.061266
Sum of atomic charges:    0.0000000

LOEWDIN ATOMIC CHARGES
----------------------
   0 S :    0.408507
   1 C :   -0.207798
   2 C :   -0.058271
   3 C :   -0.045517
   4 C :   -0.184193
   5 H :    0.004998
   6 C :   -0.035730
   7 H :    0.030085
   8 H :    0.028790
   9 C :   -0.036723
  10 H :    0.019187
  11 H :    0.027907
  12 C :   -0.071716
  13 H :    0.025307
  14 H :    0.033833
  15 H :    0.033742
  16 S :    0.383472
  17 C :   -0.173731
  18 C :   -0.077761
  19 C :   -0.065524
  20 C :   -0.192094
  21 H :    0.040009
  22 C :   -0.039187
  23 H :    0.021621
  24 H :    0.033623
  25 C :   -0.034109
  26 H :    0.021216
  27 H :    0.030366
  28 C :   -0.061939
  29 H :    0.030022
  30 H :    0.019315
  31 H :    0.026833
  32 H :    0.036336
  33 H :    0.029124

  Mayer bond orders larger than 0.100000
B(  0-S ,  1-C ) :   1.1345 B(  0-S ,  4-C ) :   1.1619 B(  1-C ,  2-C ) :   1.6149
B(  1-C ,  4-C ) :   0.1022 B(  1-C , 32-H ) :   0.9535 B(  2-C ,  3-C ) :   1.2339
B(  2-C ,  6-C ) :   1.0275 B(  3-C ,  4-C ) :   1.5344 B(  3-C ,  5-H ) :   1.0078
B(  4-C , 20-C ) :   1.0884 B(  6-C ,  7-H ) :   0.9343 B(  6-C ,  8-H ) :   0.9312
B(  6-C ,  9-C ) :   1.0682 B(  9-C , 10-H ) :   0.9598 B(  9-C , 11-H ) :   0.9538
B(  9-C , 12-C ) :   1.0608 B( 12-C , 13-H ) :   0.9752 B( 12-C , 14-H ) :   0.9775
B( 12-C , 15-H ) :   0.9757 B( 16-S , 17-C ) :   1.1470 B( 16-S , 20-C ) :   1.1298
B( 17-C , 18-C ) :   1.6011 B( 17-C , 20-C ) :   0.1015 B( 17-C , 33-H ) :   0.9732
B( 18-C , 19-C ) :   1.2560 B( 18-C , 21-H ) :   0.9765 B( 19-C , 20-C ) :   1.5675
B( 19-C , 22-C ) :   1.0349 B( 22-C , 23-H ) :   0.9396 B( 22-C , 24-H ) :   0.9372
B( 22-C , 25-C ) :   1.0658 B( 25-C , 26-H ) :   0.9529 B( 25-C , 27-H ) :   0.9528
B( 25-C , 28-C ) :   1.0724 B( 28-C , 29-H ) :   0.9758 B( 28-C , 30-H ) :   0.9736
B( 28-C , 31-H ) :   0.9712

Dispersion correction           -0.014082087
FINAL SINGLE POINT ENERGY     -1339.867476820402

DIPOLE MOMENT
-------------
                                X             Y             Z
Electronic contribution:     30.24918      -2.81231      -6.09742
Nuclear contribution   :    -30.98715       2.96124       6.08774
                        -----------------------------------------
Total Dipole Moment    :     -0.73797       0.14893      -0.00968
                        -----------------------------------------
Magnitude (a.u.)       :      0.75291
Magnitude (Debye)      :      1.91375

Rotational constants in cm-1:     0.017269     0.009794     0.006742
Rotational constants in MHz :   517.709567   293.602986   202.117772

                             ****ORCA TERMINATED NORMALLY****
TOTAL RUN TIME: 0 days 0 hours 0 minutes 35 seconds 411 msec
