                         Program Version 4.2.1 -  RELEASE  -
|  1> ! wB97X-D3 SP def2-SVP
|  2> %pal
|  3> nprocs 16
|  4> end
|  5>
|  6> * xyz 0 1
|  7> S 	 6.23383 	 -21.1305 	 83.858
|  8> C 	 5.20279 	 -21.9637 	 85.039
|  9> C 	 5.00149 	 -21.2271 	 86.1863
| 10> C 	 5.68387 	 -19.9494 	 86.1327
| 11> C 	 6.39895 	 -19.7677 	 84.9631
| 12> H 	 5.81628 	 -19.2705 	 86.9551
| 13> C 	 4.15208 	 -21.6278 	 87.3301
| 14> H 	 4.75602 	 -21.2899 	 88.239
| 15> H 	 4.19577 	 -22.7179 	 87.3382
| 16> C 	 2.73034 	 -21.0736 	 87.389
| 17> H 	 2.17301 	 -21.1616 	 88.401
| 18> H 	 2.75266 	 -20.0555 	 87.0487
| 19> C 	 1.80394 	 -21.8631 	 86.4938
| 20> H 	 2.23924 	 -22.0848 	 85.5435
| 21> H 	 1.65111 	 -22.9092 	 86.9576
| 22> H 	 0.813885 	 -21.4956 	 86.4966
| 23> S 	 8.78752 	 -18.529 	 84.0497
| 24> C 	 8.76623 	 -16.8493 	 83.6064
| 25> C 	 7.55803 	 -16.3462 	 84.078
| 26> C 	 6.5824 	 -17.2543 	 84.6159
| 27> C 	 7.07606 	 -18.5653 	 84.5801
| 28> H 	 7.41341 	 -15.3011 	 83.9686
| 29> C 	 5.19794 	 -16.7933 	 84.9732
| 30> H 	 4.72133 	 -17.4816 	 85.698
| 31> H 	 4.72034 	 -16.9942 	 84.0449
| 32> C 	 5.08994 	 -15.3331 	 85.2876
| 33> H 	 5.20269 	 -14.7632 	 84.3338
| 34> H 	 5.77769 	 -14.9903 	 86.0513
| 35> C 	 3.73008 	 -14.93 	 85.855
| 36> H 	 3.61144 	 -15.2687 	 86.8485
| 37> H 	 2.84015 	 -15.2086 	 85.3097
| 38> H 	 3.60675 	 -13.8939 	 85.8412
| 39> H 	 4.92819 	 -23.0156 	 84.8918
| 40> H 	 9.53097 	 -16.2838 	 83.1124
| 41> *
| 42>
| 43>                          ****END OF INPUT****

CARTESIAN COORDINATES (ANGSTROEM)
---------------------------------
  S      6.233830  -21.130500   83.858000
  C      5.202790  -21.963700   85.039000
  C      5.001490  -21.227100   86.186300
  C      5.683870  -19.949400   86.132700
  C      6.398950  -19.767700   84.963100
  H      5.816280  -19.270500   86.955100
  C      4.152080  -21.627800   87.330100
  H      4.756020  -21.289900   88.239000
  H      4.195770  -22.717900   87.338200
  C      2.730340  -21.073600   87.389000
  H      2.173010  -21.161600   88.401000
  H      2.752660  -20.055500   87.048700
  C      1.803940  -21.863100   86.493800
  H      2.239240  -22.084800   85.543500
  H      1.651110  -22.909200   86.957600
  H      0.813885  -21.495600   86.496600
  S      8.787520  -18.529000   84.049700
  C      8.766230  -16.849300   83.606400
  C      7.558030  -16.346200   84.078000
  C      6.582400  -17.254300   84.615900
  C      7.076060  -18.565300   84.580100
  H      7.413410  -15.301100   83.968600
  C      5.197940  -16.793300   84.973200
  H      4.721330  -17.481600   85.698000
  H      4.720340  -16.994200   84.044900
  C      5.089940  -15.333100   85.287600
  H      5.202690  -14.763200   84.333800
  H      5.777690  -14.990300   86.051300
  C      3.730080  -14.930000   85.855000
  H      3.611440  -15.268700   86.848500
  H      2.840150  -15.208600   85.309700
  H      3.606750  -13.893900   85.841200
  H      4.928190  -23.015600   84.891800
  H      9.530970  -16.283800   83.112400

 Total Charge           Charge          ....    0
 Multiplicity           Mult            ....    1
 Number of Electrons    NEL             ....  134
 Basis Dimension        Dim             ....  322

ORBITAL ENERGIES
----------------

  NO   OCC          E(Eh)            E(eV)
   0   2.0000     -88.966103     -2420.8907
   1   2.0000     -88.961874     -2420.7757
   2   2.0000     -10.329151      -281.0705
   3   2.0000     -10.325136      -280.9612
   4   2.0000     -10.318135      -280.7707
   5   2.0000     -10.317974      -280.7663
   6   2.0000     -10.305211      -280.4191
   7   2.0000     -10.303455      -280.3713
   8   2.0000     -10.295881      -280.1652
   9   2.0000     -10.295627      -280.1583
  10   2.0000     -10.292421      -280.0710
  11   2.0000     -10.289602      -279.9943
  12   2.0000     -10.288901      -279.9752
  13   2.0000     -10.288431      -279.9624
  14   2.0000     -10.274166      -279.5743
  15   2.0000     -10.268077      -279.4086
  16   2.0000      -8.080441      -219.8800
  17   2.0000      -8.076080      -219.7613
  18   2.0000      -6.038950      -164.3282
  19   2.0000      -6.035058      -164.2223
  20   2.0000      -6.034683      -164.2121
  21   2.0000      -6.031167      -164.1164
  22   2.0000      -6.030576      -164.1003
  23   2.0000      -6.026853      -163.9990
  24   2.0000      -1.002737       -27.2859
  25   2.0000      -0.980434       -26.6790
  26   2.0000      -0.918295       -24.9881
  27   2.0000      -0.917059       -24.9544
  28   2.0000      -0.872314       -23.7369
  29   2.0000      -0.854279       -23.2461
  30   2.0000      -0.845880       -23.0176
  31   2.0000      -0.812161       -22.1000
  32   2.0000      -0.785971       -21.3873
  33   2.0000      -0.773770       -21.0553
  34   2.0000      -0.711613       -19.3640
  35   2.0000      -0.705534       -19.1985
  36   2.0000      -0.693969       -18.8839
  37   2.0000      -0.650439       -17.6993
  38   2.0000      -0.641293       -17.4505
  39   2.0000      -0.619741       -16.8640
  40   2.0000      -0.597769       -16.2661
  41   2.0000      -0.579918       -15.7804
  42   2.0000      -0.570379       -15.5208
  43   2.0000      -0.557069       -15.1586
  44   2.0000      -0.539811       -14.6890
  45   2.0000      -0.535368       -14.5681
  46   2.0000      -0.521981       -14.2038
  47   2.0000      -0.511001       -13.9050
  48   2.0000      -0.507685       -13.8148
  49   2.0000      -0.498353       -13.5609
  50   2.0000      -0.488795       -13.3008
  51   2.0000      -0.477843       -13.0028
  52   2.0000      -0.476322       -12.9614
  53   2.0000      -0.468200       -12.7404
  54   2.0000      -0.452287       -12.3074
  55   2.0000      -0.449625       -12.2349
  56   2.0000      -0.445482       -12.1222
  57   2.0000      -0.436416       -11.8755
  58   2.0000      -0.432519       -11.7694
  59   2.0000      -0.427086       -11.6216
  60   2.0000      -0.425698       -11.5838
  61   2.0000      -0.412273       -11.2185
  62   2.0000      -0.407559       -11.0902
  63   2.0000      -0.341632        -9.2963
  64   2.0000      -0.331169        -9.0116
  65   2.0000      -0.324425        -8.8280
  66   2.0000      -0.293330        -7.9819
  67   0.0000       0.023667         0.6440
  68   0.0000       0.072466         1.9719
  69   0.0000       0.113954         3.1008
  70   0.0000       0.117267         3.1910
  71   0.0000       0.123069         3.3489

MULLIKEN ATOMIC CHARGES
-----------------------
   0 S :    0.109882
   1 C :   -0.134685
   2 C :   -0.099543
   3 C :    0.024839
   4 C :   -0.163851
   5 H :    0.022102
   6 C :    0.048925
   7 H :    0.038114
   8 H :    0.018346
   9 C :   -0.043511
  10 H :    0.046665
  11 H :    0.027886
  12 C :   -0.055262
  13 H :    0.028104
  14 H :    0.018120
  15 H :    0.029510
  16 S :    0.100407
  17 C :   -0.079054
  18 C :   -0.055374
  19 C :   -0.036141
  20 C :   -0.167685
  21 H :    0.004610
  22 C :    0.124589
  23 H :    0.022129
  24 H :    0.033646
  25 C :   -0.114351
  26 H :    0.042976
  27 H :    0.040463
  28 C :    0.004333
  29 H :    0.021117
  30 H :    0.015222
  31 H :    0.010753
  32 H :    0.058707
  33 H :    0.058012
Sum of atomic charges:   -0.0000000

LOEWDIN ATOMIC CHARGES
----------------------
   0 S :    0.391162
   1 C :   -0.191898
   2 C :   -0.064274
   3 C :   -0.057975
   4 C :   -0.186327
   5 H :    0.031964
   6 C :   -0.038532
   7 H :    0.040932
   8 H :    0.029161
   9 C :   -0.042868
  10 H :    0.038730
  11 H :    0.020804
  12 C :   -0.065711
  13 H :    0.017584
  14 H :    0.028910
  15 H :    0.019798
  16 S :    0.391246
  17 C :   -0.185258
  18 C :   -0.076852
  19 C :   -0.044850
  20 C :   -0.203113
  21 H :    0.020354
  22 C :   -0.034459
  23 H :    0.032200
  24 H :    0.042004
  25 C :   -0.040162
  26 H :    0.032150
  27 H :    0.028279
  28 C :   -0.059375
  29 H :    0.019347
  30 H :    0.023716
  31 H :    0.019976
  32 H :    0.030436
  33 H :    0.032902

  Mayer bond orders larger than 0.100000
B(  0-S ,  1-C ) :   1.1245 B(  0-S ,  4-C ) :   1.1446 B(  1-C ,  2-C ) :   1.6281
B(  1-C , 32-H ) :   0.9627 B(  2-C ,  3-C ) :   1.2136 B(  2-C ,  6-C ) :   1.0336
B(  3-C ,  4-C ) :   1.5908 B(  3-C ,  5-H ) :   0.9902 B(  4-C , 20-C ) :   1.0693
B(  6-C ,  7-H ) :   0.9340 B(  6-C ,  8-H ) :   0.9402 B(  6-C ,  9-C ) :   1.0532
B(  9-C , 10-H ) :   0.9564 B(  9-C , 11-H ) :   0.9541 B(  9-C , 12-C ) :   1.0819
B( 12-C , 13-H ) :   0.9752 B( 12-C , 14-H ) :   0.9722 B( 12-C , 15-H ) :   0.9723
B( 16-S , 17-C ) :   1.1550 B( 16-S , 20-C ) :   1.1353 B( 17-C , 18-C ) :   1.5825
B( 17-C , 20-C ) :   0.1043 B( 17-C , 33-H ) :   0.9720 B( 18-C , 19-C ) :   1.2568
B( 18-C , 21-H ) :   0.9893 B( 19-C , 20-C ) :   1.5574 B( 19-C , 22-C ) :   1.0293
B( 22-C , 23-H ) :   0.9333 B( 22-C , 24-H ) :   0.9062 B( 22-C , 25-C ) :   1.0839
B( 25-C , 26-H ) :   0.9365 B( 25-C , 27-H ) :   0.9623 B( 25-C , 28-C ) :   1.0949
B( 28-C , 29-H ) :   0.9731 B( 28-C , 30-H ) :   0.9686 B( 28-C , 31-H ) :   0.9695

Dispersion correction           -0.014005355
FINAL SINGLE POINT ENERGY     -1339.871823168344

DIPOLE MOMENT
-------------
                                X             Y             Z
Electronic contribution:     25.95101      -8.03440     -13.83178
Nuclear contribution   :    -26.51183       8.44259      14.16438
                        -----------------------------------------
Total Dipole Moment    :     -0.56082       0.40819       0.33260
                        -----------------------------------------
Magnitude (a.u.)       :      0.76926
Magnitude (Debye)      :      1.95531

Rotational constants in cm-1:     0.017331     0.009169     0.006440
Rotational constants in MHz :   519.557549   274.878120   193.063469

                             ****ORCA TERMINATED NORMALLY****
TOTAL RUN TIME: 0 days 0 hours 0 minutes 34 seconds 198 msec
