                         Program Version 4.2.1 -  RELEASE  -
|  1> ! wB97X-D3 SP def2-SVP
|  2> %pal
|  3> nprocs 16
|  4> end
|  5>
|  6> * xyz 0 1
|  7> S 	 -62.3732 	 52.5679 	 125.53
|  8> C 	 -63.8815 	 51.7666 	 125.848
|  9> C 	 -63.7467 	 50.799 	 126.779
| 10> C 	 -62.403 	 50.7104 	 127.29
| 11> C 	 -61.6193 	 51.725 	 126.798
| 12> H 	 -62.0451 	 50.0507 	 128.014
| 13> C 	 -64.7594 	 49.8203 	 127.214
| 14> H 	 -65.6708 	 50.3257 	 126.88
| 15> H 	 -64.8391 	 49.7662 	 128.365
| 16> C 	 -64.6178 	 48.4294 	 126.577
| 17> H 	 -64.3805 	 48.4821 	 125.507
| 18> H 	 -63.7423 	 48.0442 	 126.985
| 19> C 	 -65.8274 	 47.4842 	 126.705
| 20> H 	 -66.7731 	 47.9183 	 126.291
| 21> H 	 -65.55 	 46.4381 	 126.405
| 22> H 	 -66.1013 	 47.3805 	 127.746
| 23> S 	 -59.2884 	 52.0189 	 125.513
| 24> C 	 -57.7356 	 52.2009 	 126.24
| 25> C 	 -57.8416 	 51.7458 	 127.514
| 26> C 	 -59.241 	 51.5693 	 127.959
| 27> C 	 -60.1669 	 51.8023 	 126.952
| 28> H 	 -57.0141 	 51.5769 	 128.235
| 29> C 	 -59.6896 	 51.0715 	 129.314
| 30> H 	 -58.8779 	 50.8186 	 130.074
| 31> H 	 -60.4187 	 50.2609 	 129.147
| 32> C 	 -60.4406 	 52.0961 	 130.153
| 33> H 	 -60.7492 	 51.6571 	 131.116
| 34> H 	 -61.3557 	 52.4608 	 129.666
| 35> C 	 -59.6114 	 53.3391 	 130.564
| 36> H 	 -59.2711 	 53.8967 	 129.728
| 37> H 	 -58.7862 	 53.1069 	 131.129
| 38> H 	 -60.1493 	 54.0212 	 131.181
| 39> H 	 -64.7917 	 51.8426 	 125.285
| 40> H 	 -56.7785 	 52.2975 	 125.726
| 41> *
| 42>
| 43>                          ****END OF INPUT****

CARTESIAN COORDINATES (ANGSTROEM)
---------------------------------
  S    -62.373200   52.567900  125.530000
  C    -63.881500   51.766600  125.848000
  C    -63.746700   50.799000  126.779000
  C    -62.403000   50.710400  127.290000
  C    -61.619300   51.725000  126.798000
  H    -62.045100   50.050700  128.014000
  C    -64.759400   49.820300  127.214000
  H    -65.670800   50.325700  126.880000
  H    -64.839100   49.766200  128.365000
  C    -64.617800   48.429400  126.577000
  H    -64.380500   48.482100  125.507000
  H    -63.742300   48.044200  126.985000
  C    -65.827400   47.484200  126.705000
  H    -66.773100   47.918300  126.291000
  H    -65.550000   46.438100  126.405000
  H    -66.101300   47.380500  127.746000
  S    -59.288400   52.018900  125.513000
  C    -57.735600   52.200900  126.240000
  C    -57.841600   51.745800  127.514000
  C    -59.241000   51.569300  127.959000
  C    -60.166900   51.802300  126.952000
  H    -57.014100   51.576900  128.235000
  C    -59.689600   51.071500  129.314000
  H    -58.877900   50.818600  130.074000
  H    -60.418700   50.260900  129.147000
  C    -60.440600   52.096100  130.153000
  H    -60.749200   51.657100  131.116000
  H    -61.355700   52.460800  129.666000
  C    -59.611400   53.339100  130.564000
  H    -59.271100   53.896700  129.728000
  H    -58.786200   53.106900  131.129000
  H    -60.149300   54.021200  131.181000
  H    -64.791700   51.842600  125.285000
  H    -56.778500   52.297500  125.726000

 Total Charge           Charge          ....    0
 Multiplicity           Mult            ....    1
 Number of Electrons    NEL             ....  134
 Basis Dimension        Dim             ....  322

ORBITAL ENERGIES
----------------

  NO   OCC          E(Eh)            E(eV)
   0   2.0000     -88.969650     -2420.9873
   1   2.0000     -88.958915     -2420.6952
   2   2.0000     -10.328633      -281.0564
   3   2.0000     -10.323863      -280.9266
   4   2.0000     -10.314166      -280.6627
   5   2.0000     -10.310413      -280.5606
   6   2.0000     -10.303987      -280.3857
   7   2.0000     -10.299398      -280.2609
   8   2.0000     -10.297009      -280.1959
   9   2.0000     -10.296720      -280.1880
  10   2.0000     -10.296493      -280.1818
  11   2.0000     -10.290259      -280.0122
  12   2.0000     -10.286618      -279.9131
  13   2.0000     -10.285352      -279.8787
  14   2.0000     -10.282221      -279.7935
  15   2.0000     -10.258081      -279.1366
  16   2.0000      -8.085479      -220.0171
  17   2.0000      -8.075398      -219.7427
  18   2.0000      -6.043983      -164.4651
  19   2.0000      -6.039845      -164.3525
  20   2.0000      -6.036122      -164.2512
  21   2.0000      -6.034002      -164.1935
  22   2.0000      -6.029576      -164.0731
  23   2.0000      -6.025977      -163.9752
  24   2.0000      -1.021701       -27.8019
  25   2.0000      -0.995389       -27.0859
  26   2.0000      -0.918681       -24.9986
  27   2.0000      -0.909155       -24.7394
  28   2.0000      -0.876300       -23.8453
  29   2.0000      -0.854761       -23.2592
  30   2.0000      -0.839265       -22.8376
  31   2.0000      -0.823376       -22.4052
  32   2.0000      -0.782834       -21.3020
  33   2.0000      -0.776775       -21.1371
  34   2.0000      -0.714091       -19.4314
  35   2.0000      -0.703420       -19.1410
  36   2.0000      -0.686406       -18.6781
  37   2.0000      -0.666051       -18.1242
  38   2.0000      -0.644765       -17.5449
  39   2.0000      -0.624070       -16.9818
  40   2.0000      -0.592302       -16.1173
  41   2.0000      -0.573438       -15.6040
  42   2.0000      -0.561545       -15.2804
  43   2.0000      -0.555543       -15.1171
  44   2.0000      -0.545061       -14.8319
  45   2.0000      -0.529551       -14.4098
  46   2.0000      -0.519947       -14.1485
  47   2.0000      -0.512048       -13.9335
  48   2.0000      -0.508449       -13.8356
  49   2.0000      -0.504071       -13.7165
  50   2.0000      -0.489422       -13.3179
  51   2.0000      -0.479107       -13.0372
  52   2.0000      -0.476747       -12.9729
  53   2.0000      -0.470093       -12.7919
  54   2.0000      -0.459346       -12.4994
  55   2.0000      -0.456506       -12.4222
  56   2.0000      -0.439016       -11.9462
  57   2.0000      -0.438428       -11.9302
  58   2.0000      -0.430190       -11.7061
  59   2.0000      -0.425895       -11.5892
  60   2.0000      -0.417544       -11.3619
  61   2.0000      -0.415637       -11.3101
  62   2.0000      -0.406146       -11.0518
  63   2.0000      -0.358848        -9.7647
  64   2.0000      -0.332627        -9.0512
  65   2.0000      -0.321663        -8.7529
  66   2.0000      -0.294748        -8.0205
  67   0.0000       0.026047         0.7088
  68   0.0000       0.082050         2.2327
  69   0.0000       0.104239         2.8365
  70   0.0000       0.118245         3.2176
  71   0.0000       0.133849         3.6422

MULLIKEN ATOMIC CHARGES
-----------------------
   0 S :    0.120525
   1 C :   -0.100563
   2 C :   -0.091974
   3 C :    0.028150
   4 C :   -0.095808
   5 H :   -0.015027
   6 C :    0.044268
   7 H :    0.005080
   8 H :    0.047773
   9 C :   -0.043202
  10 H :    0.031516
  11 H :    0.006606
  12 C :   -0.045514
  13 H :    0.041012
  14 H :    0.048769
  15 H :    0.014112
  16 S :    0.085186
  17 C :   -0.079780
  18 C :   -0.032024
  19 C :   -0.074890
  20 C :   -0.136999
  21 H :    0.030421
  22 C :    0.040399
  23 H :    0.031752
  24 H :    0.038377
  25 C :   -0.098806
  26 H :    0.024704
  27 H :    0.036873
  28 C :   -0.009546
  29 H :    0.028091
  30 H :   -0.002934
  31 H :    0.018701
  32 H :    0.036083
  33 H :    0.068669
Sum of atomic charges:    0.0000000

LOEWDIN ATOMIC CHARGES
----------------------
   0 S :    0.437632
   1 C :   -0.199160
   2 C :   -0.062551
   3 C :   -0.050910
   4 C :   -0.204388
   5 H :    0.018042
   6 C :   -0.038526
   7 H :    0.025832
   8 H :    0.040651
   9 C :   -0.038513
  10 H :    0.029027
  11 H :    0.014847
  12 C :   -0.071687
  13 H :    0.032141
  14 H :    0.036174
  15 H :    0.019926
  16 S :    0.428073
  17 C :   -0.201966
  18 C :   -0.072343
  19 C :   -0.069846
  20 C :   -0.205101
  21 H :    0.035249
  22 C :   -0.041643
  23 H :    0.039986
  24 H :    0.030986
  25 C :   -0.040483
  26 H :    0.023186
  27 H :    0.021232
  28 C :   -0.058452
  29 H :    0.022117
  30 H :    0.009588
  31 H :    0.024170
  32 H :    0.028412
  33 H :    0.038298

  Mayer bond orders larger than 0.100000
B(  0-S ,  1-C ) :   1.1255 B(  0-S ,  4-C ) :   1.1687 B(  1-C ,  2-C ) :   1.6344
B(  1-C , 32-H ) :   0.9622 B(  2-C ,  3-C ) :   1.2309 B(  2-C ,  6-C ) :   1.0370
B(  3-C ,  4-C ) :   1.5450 B(  3-C ,  5-H ) :   1.0015 B(  4-C , 20-C ) :   1.0329
B(  6-C ,  7-H ) :   0.9340 B(  6-C ,  8-H ) :   0.9357 B(  6-C ,  9-C ) :   1.0490
B(  9-C , 10-H ) :   0.9553 B(  9-C , 11-H ) :   0.9514 B(  9-C , 12-C ) :   1.0852
B( 12-C , 13-H ) :   0.9741 B( 12-C , 14-H ) :   0.9725 B( 12-C , 15-H ) :   0.9714
B( 16-S , 17-C ) :   1.1491 B( 16-S , 20-C ) :   1.1636 B( 17-C , 18-C ) :   1.5890
B( 17-C , 33-H ) :   0.9688 B( 18-C , 19-C ) :   1.2602 B( 18-C , 21-H ) :   0.9837
B( 19-C , 20-C ) :   1.5776 B( 19-C , 22-C ) :   1.0479 B( 22-C , 23-H ) :   0.9379
B( 22-C , 24-H ) :   0.9375 B( 22-C , 25-C ) :   1.0728 B( 25-C , 26-H ) :   0.9577
B( 25-C , 27-H ) :   0.9545 B( 25-C , 28-C ) :   1.0770 B( 28-C , 29-H ) :   0.9743
B( 28-C , 30-H ) :   0.9717 B( 28-C , 31-H ) :   0.9723

Dispersion correction           -0.014435617
FINAL SINGLE POINT ENERGY     -1339.862543395543

DIPOLE MOMENT
-------------
                                X             Y             Z
Electronic contribution:     11.25873      12.24166     -18.39726
Nuclear contribution   :    -11.41358     -12.76349      18.77113
                        -----------------------------------------
Total Dipole Moment    :     -0.15485      -0.52183       0.37387
                        -----------------------------------------
Magnitude (a.u.)       :      0.66035
Magnitude (Debye)      :      1.67847

Rotational constants in cm-1:     0.020609     0.008156     0.007024
Rotational constants in MHz :   617.838208   244.524546   210.573878

                             ****ORCA TERMINATED NORMALLY****
TOTAL RUN TIME: 0 days 0 hours 0 minutes 34 seconds 128 msec
