                         Program Version 4.2.1 -  RELEASE  -
|  1> ! wB97X-D3 SP def2-SVP
|  2> %pal
|  3> nprocs 16
|  4> end
|  5>
|  6> * xyz 0 1
|  7> S 	 -90.3853 	 41.5761 	 113.144
|  8> C 	 -88.7915 	 42.0643 	 113.936
|  9> C 	 -88.9985 	 42.991 	 114.941
| 10> C 	 -90.4118 	 43.2757 	 115.146
| 11> C 	 -91.2409 	 42.5141 	 114.324
| 12> H 	 -90.7897 	 43.9196 	 115.942
| 13> C 	 -87.9819 	 43.7038 	 115.816
| 14> H 	 -88.3719 	 44.662 	 116.181
| 15> H 	 -87.2981 	 44.175 	 115.159
| 16> C 	 -87.3158 	 42.9135 	 116.952
| 17> H 	 -86.7321 	 42.1319 	 116.498
| 18> H 	 -86.7266 	 43.6777 	 117.381
| 19> C 	 -88.3033 	 42.3061 	 117.947
| 20> H 	 -89.0482 	 41.6943 	 117.462
| 21> H 	 -87.8466 	 41.7058 	 118.764
| 22> H 	 -88.8366 	 43.173 	 118.379
| 23> S 	 -92.8763 	 43.6103 	 112.264
| 24> C 	 -94.5791 	 43.5086 	 112.442
| 25> C 	 -94.9076 	 43.1597 	 113.714
| 26> C 	 -93.78 	 42.7722 	 114.507
| 27> C 	 -92.5585 	 42.8141 	 113.842
| 28> H 	 -95.9269 	 43.2595 	 113.969
| 29> C 	 -94.0282 	 42.3486 	 115.911
| 30> H 	 -93.1256 	 41.7934 	 116.229
| 31> H 	 -94.9625 	 41.7431 	 115.842
| 32> C 	 -94.2786 	 43.4485 	 116.97
| 33> H 	 -94.4926 	 42.9535 	 117.897
| 34> H 	 -95.1055 	 43.993 	 116.516
| 35> C 	 -93.2156 	 44.5028 	 117.337
| 36> H 	 -92.9372 	 45.0405 	 116.431
| 37> H 	 -92.3409 	 43.9227 	 117.6
| 38> H 	 -93.6319 	 45.1715 	 118.133
| 39> H 	 -87.893 	 41.578 	 113.624
| 40> H 	 -95.3031 	 43.7733 	 111.661
| 41> *
| 42>
| 43>                          ****END OF INPUT****

CARTESIAN COORDINATES (ANGSTROEM)
---------------------------------
  S    -90.385300   41.576100  113.144000
  C    -88.791500   42.064300  113.936000
  C    -88.998500   42.991000  114.941000
  C    -90.411800   43.275700  115.146000
  C    -91.240900   42.514100  114.324000
  H    -90.789700   43.919600  115.942000
  C    -87.981900   43.703800  115.816000
  H    -88.371900   44.662000  116.181000
  H    -87.298100   44.175000  115.159000
  C    -87.315800   42.913500  116.952000
  H    -86.732100   42.131900  116.498000
  H    -86.726600   43.677700  117.381000
  C    -88.303300   42.306100  117.947000
  H    -89.048200   41.694300  117.462000
  H    -87.846600   41.705800  118.764000
  H    -88.836600   43.173000  118.379000
  S    -92.876300   43.610300  112.264000
  C    -94.579100   43.508600  112.442000
  C    -94.907600   43.159700  113.714000
  C    -93.780000   42.772200  114.507000
  C    -92.558500   42.814100  113.842000
  H    -95.926900   43.259500  113.969000
  C    -94.028200   42.348600  115.911000
  H    -93.125600   41.793400  116.229000
  H    -94.962500   41.743100  115.842000
  C    -94.278600   43.448500  116.970000
  H    -94.492600   42.953500  117.897000
  H    -95.105500   43.993000  116.516000
  C    -93.215600   44.502800  117.337000
  H    -92.937200   45.040500  116.431000
  H    -92.340900   43.922700  117.600000
  H    -93.631900   45.171500  118.133000
  H    -87.893000   41.578000  113.624000
  H    -95.303100   43.773300  111.661000

 Total Charge           Charge          ....    0
 Multiplicity           Mult            ....    1
 Number of Electrons    NEL             ....  134
 Basis Dimension        Dim             ....  322

ORBITAL ENERGIES
----------------

  NO   OCC          E(Eh)            E(eV)
   0   2.0000     -88.964882     -2420.8575
   1   2.0000     -88.959341     -2420.7067
   2   2.0000     -10.328027      -281.0399
   3   2.0000     -10.324204      -280.9359
   4   2.0000     -10.323444      -280.9152
   5   2.0000     -10.312381      -280.6142
   6   2.0000     -10.309581      -280.5380
   7   2.0000     -10.302895      -280.3560
   8   2.0000     -10.296558      -280.1836
   9   2.0000     -10.291304      -280.0406
  10   2.0000     -10.289320      -279.9866
  11   2.0000     -10.285649      -279.8867
  12   2.0000     -10.283711      -279.8340
  13   2.0000     -10.282729      -279.8073
  14   2.0000     -10.280962      -279.7592
  15   2.0000     -10.280004      -279.7331
  16   2.0000      -8.078986      -219.8404
  17   2.0000      -8.074190      -219.7099
  18   2.0000      -6.037533      -164.2896
  19   2.0000      -6.033560      -164.1815
  20   2.0000      -6.032764      -164.1598
  21   2.0000      -6.029708      -164.0767
  22   2.0000      -6.028760      -164.0509
  23   2.0000      -6.024757      -163.9420
  24   2.0000      -1.004967       -27.3466
  25   2.0000      -0.978928       -26.6380
  26   2.0000      -0.917209       -24.9585
  27   2.0000      -0.907900       -24.7052
  28   2.0000      -0.871270       -23.7085
  29   2.0000      -0.848946       -23.1010
  30   2.0000      -0.840371       -22.8677
  31   2.0000      -0.813093       -22.1254
  32   2.0000      -0.788918       -21.4676
  33   2.0000      -0.774368       -21.0716
  34   2.0000      -0.708338       -19.2749
  35   2.0000      -0.705760       -19.2047
  36   2.0000      -0.687728       -18.7140
  37   2.0000      -0.653581       -17.7849
  38   2.0000      -0.644024       -17.5248
  39   2.0000      -0.616008       -16.7624
  40   2.0000      -0.593657       -16.1542
  41   2.0000      -0.580700       -15.8017
  42   2.0000      -0.557680       -15.1753
  43   2.0000      -0.553246       -15.0546
  44   2.0000      -0.548636       -14.9292
  45   2.0000      -0.538971       -14.6662
  46   2.0000      -0.521764       -14.1979
  47   2.0000      -0.513036       -13.9604
  48   2.0000      -0.502837       -13.6829
  49   2.0000      -0.496358       -13.5066
  50   2.0000      -0.492777       -13.4091
  51   2.0000      -0.476562       -12.9679
  52   2.0000      -0.467225       -12.7138
  53   2.0000      -0.462736       -12.5917
  54   2.0000      -0.459092       -12.4925
  55   2.0000      -0.446798       -12.1580
  56   2.0000      -0.442532       -12.0419
  57   2.0000      -0.437722       -11.9110
  58   2.0000      -0.434353       -11.8193
  59   2.0000      -0.422419       -11.4946
  60   2.0000      -0.416432       -11.3317
  61   2.0000      -0.412272       -11.2185
  62   2.0000      -0.403906       -10.9908
  63   2.0000      -0.339839        -9.2475
  64   2.0000      -0.334191        -9.0938
  65   2.0000      -0.319838        -8.7032
  66   2.0000      -0.297510        -8.0957
  67   0.0000       0.025024         0.6809
  68   0.0000       0.062350         1.6966
  69   0.0000       0.098946         2.6924
  70   0.0000       0.115267         3.1366
  71   0.0000       0.123823         3.3694

MULLIKEN ATOMIC CHARGES
-----------------------
   0 S :    0.085315
   1 C :   -0.128295
   2 C :   -0.080334
   3 C :    0.045327
   4 C :   -0.158290
   5 H :    0.003278
   6 C :    0.045885
   7 H :    0.009906
   8 H :    0.017754
   9 C :   -0.011037
  10 H :    0.028027
  11 H :    0.025312
  12 C :   -0.069882
  13 H :    0.043810
  14 H :    0.047268
  15 H :    0.023816
  16 S :    0.106641
  17 C :   -0.101612
  18 C :   -0.026798
  19 C :   -0.040237
  20 C :   -0.140303
  21 H :    0.003035
  22 C :    0.053062
  23 H :    0.025774
  24 H :    0.038285
  25 C :   -0.080163
  26 H :    0.032586
  27 H :    0.018824
  28 C :   -0.065293
  29 H :    0.045501
  30 H :    0.033354
  31 H :    0.057039
  32 H :    0.046615
  33 H :    0.065830
Sum of atomic charges:   -0.0000000

LOEWDIN ATOMIC CHARGES
----------------------
   0 S :    0.388617
   1 C :   -0.157954
   2 C :   -0.058130
   3 C :   -0.048273
   4 C :   -0.199889
   5 H :    0.031832
   6 C :   -0.037822
   7 H :    0.031109
   8 H :    0.030277
   9 C :   -0.028453
  10 H :    0.020954
  11 H :    0.022684
  12 C :   -0.067806
  13 H :    0.025155
  14 H :    0.031524
  15 H :    0.026066
  16 S :    0.394214
  17 C :   -0.190168
  18 C :   -0.079643
  19 C :   -0.061279
  20 C :   -0.205857
  21 H :    0.025117
  22 C :   -0.036277
  23 H :    0.028527
  24 H :    0.040792
  25 C :   -0.038681
  26 H :    0.022490
  27 H :    0.019744
  28 C :   -0.068099
  29 H :    0.024169
  30 H :    0.018986
  31 H :    0.038510
  32 H :    0.021157
  33 H :    0.036407

  Mayer bond orders larger than 0.100000
B(  0-S ,  1-C ) :   1.1267 B(  0-S ,  4-C ) :   1.1504 B(  1-C ,  2-C ) :   1.6141
B(  1-C , 32-H ) :   0.9799 B(  2-C ,  3-C ) :   1.2307 B(  2-C ,  6-C ) :   1.0086
B(  3-C ,  4-C ) :   1.5656 B(  3-C ,  5-H ) :   0.9852 B(  4-C , 20-C ) :   1.0297
B(  6-C ,  7-H ) :   0.9382 B(  6-C ,  8-H ) :   0.9328 B(  6-C ,  9-C ) :   1.0676
B(  9-C , 10-H ) :   0.9580 B(  9-C , 11-H ) :   0.9548 B(  9-C , 12-C ) :   1.0752
B( 12-C , 13-H ) :   0.9744 B( 12-C , 14-H ) :   0.9748 B( 12-C , 15-H ) :   0.9747
B( 16-S , 17-C ) :   1.1633 B( 16-S , 20-C ) :   1.1109 B( 17-C , 18-C ) :   1.6134
B( 17-C , 33-H ) :   0.9623 B( 18-C , 19-C ) :   1.2202 B( 18-C , 21-H ) :   1.0017
B( 19-C , 20-C ) :   1.5961 B( 19-C , 22-C ) :   1.0592 B( 22-C , 23-H ) :   0.9274
B( 22-C , 24-H ) :   0.9337 B( 22-C , 25-C ) :   1.0729 B( 25-C , 26-H ) :   0.9576
B( 25-C , 27-H ) :   0.9553 B( 25-C , 28-C ) :   1.0790 B( 28-C , 29-H ) :   0.9713
B( 28-C , 30-H ) :   0.9674 B( 28-C , 31-H ) :   0.9674

Dispersion correction           -0.015386943
FINAL SINGLE POINT ENERGY     -1339.859671753381

DIPOLE MOMENT
-------------
                                X             Y             Z
Electronic contribution:     -4.87327      -5.01337     -27.02622
Nuclear contribution   :      4.98129       5.31768      27.57298
                        -----------------------------------------
Total Dipole Moment    :      0.10802       0.30431       0.54676
                        -----------------------------------------
Magnitude (a.u.)       :      0.63499
Magnitude (Debye)      :      1.61401

Rotational constants in cm-1:     0.019890     0.009526     0.007161
Rotational constants in MHz :   596.295332   285.596472   214.676188

                             ****ORCA TERMINATED NORMALLY****
TOTAL RUN TIME: 0 days 0 hours 0 minutes 35 seconds 687 msec
