                         Program Version 4.2.1 -  RELEASE  -
|  1> ! wB97X-D3 SP def2-SVP
|  2> %pal
|  3> nprocs 16
|  4> end
|  5>
|  6> * xyz 0 1
|  7> S 	 11.2298 	 21.6657 	 52.1723
|  8> C 	 12.1077 	 21.5243 	 53.6137
|  9> C 	 13.2429 	 22.389 	 53.5784
| 10> C 	 13.1463 	 23.3353 	 52.5353
| 11> C 	 12.0665 	 23.1468 	 51.6586
| 12> H 	 13.9062 	 24.0114 	 52.2456
| 13> C 	 14.3561 	 22.4683 	 54.6052
| 14> H 	 15.2893 	 22.6192 	 54.0414
| 15> H 	 14.4927 	 21.5661 	 55.1629
| 16> C 	 14.0838 	 23.6255 	 55.6182
| 17> H 	 13.6359 	 24.4897 	 55.1453
| 18> H 	 13.3709 	 23.3445 	 56.3594
| 19> C 	 15.2785 	 24.2026 	 56.3464
| 20> H 	 14.949 	 25.1089 	 56.8602
| 21> H 	 15.6393 	 23.4362 	 57.0777
| 22> H 	 16.0568 	 24.3052 	 55.5904
| 23> S 	 12.3849 	 23.6311 	 48.9619
| 24> C 	 11.7098 	 25.091 	 48.2542
| 25> C 	 10.8575 	 25.6644 	 49.2026
| 26> C 	 10.8017 	 25.0699 	 50.4749
| 27> C 	 11.6307 	 23.9497 	 50.5252
| 28> H 	 10.1171 	 26.4432 	 49.0329
| 29> C 	 9.8901 	 25.5587 	 51.5355
| 30> H 	 9.66922 	 26.652 	 51.1993
| 31> H 	 10.2934 	 25.5958 	 52.5916
| 32> C 	 8.55113 	 24.7448 	 51.643
| 33> H 	 8.6749 	 23.9409 	 52.3481
| 34> H 	 8.35103 	 24.2949 	 50.715
| 35> C 	 7.27854 	 25.5683 	 52.0342
| 36> H 	 7.52746 	 26.0998 	 52.9774
| 37> H 	 6.36419 	 25.0707 	 52.2076
| 38> H 	 7.07614 	 26.2482 	 51.2963
| 39> H 	 11.9075 	 20.8556 	 54.3713
| 40> H 	 11.5588 	 25.2783 	 47.2058
| 41> *
| 42>
| 43>                          ****END OF INPUT****

CARTESIAN COORDINATES (ANGSTROEM)
---------------------------------
  S     11.229800   21.665700   52.172300
  C     12.107700   21.524300   53.613700
  C     13.242900   22.389000   53.578400
  C     13.146300   23.335300   52.535300
  C     12.066500   23.146800   51.658600
  H     13.906200   24.011400   52.245600
  C     14.356100   22.468300   54.605200
  H     15.289300   22.619200   54.041400
  H     14.492700   21.566100   55.162900
  C     14.083800   23.625500   55.618200
  H     13.635900   24.489700   55.145300
  H     13.370900   23.344500   56.359400
  C     15.278500   24.202600   56.346400
  H     14.949000   25.108900   56.860200
  H     15.639300   23.436200   57.077700
  H     16.056800   24.305200   55.590400
  S     12.384900   23.631100   48.961900
  C     11.709800   25.091000   48.254200
  C     10.857500   25.664400   49.202600
  C     10.801700   25.069900   50.474900
  C     11.630700   23.949700   50.525200
  H     10.117100   26.443200   49.032900
  C      9.890100   25.558700   51.535500
  H      9.669220   26.652000   51.199300
  H     10.293400   25.595800   52.591600
  C      8.551130   24.744800   51.643000
  H      8.674900   23.940900   52.348100
  H      8.351030   24.294900   50.715000
  C      7.278540   25.568300   52.034200
  H      7.527460   26.099800   52.977400
  H      6.364190   25.070700   52.207600
  H      7.076140   26.248200   51.296300
  H     11.907500   20.855600   54.371300
  H     11.558800   25.278300   47.205800

 Total Charge           Charge          ....    0
 Multiplicity           Mult            ....    1
 Number of Electrons    NEL             ....  134
 Basis Dimension        Dim             ....  322

ORBITAL ENERGIES
----------------

  NO   OCC          E(Eh)            E(eV)
   0   2.0000     -88.967341     -2420.9244
   1   2.0000     -88.966517     -2420.9020
   2   2.0000     -10.329947      -281.0922
   3   2.0000     -10.328034      -281.0401
   4   2.0000     -10.320621      -280.8384
   5   2.0000     -10.311334      -280.5857
   6   2.0000     -10.303414      -280.3701
   7   2.0000     -10.302988      -280.3586
   8   2.0000     -10.301242      -280.3110
   9   2.0000     -10.294402      -280.1249
  10   2.0000     -10.294219      -280.1200
  11   2.0000     -10.292847      -280.0826
  12   2.0000     -10.280970      -279.7594
  13   2.0000     -10.278498      -279.6922
  14   2.0000     -10.278380      -279.6889
  15   2.0000     -10.269578      -279.4494
  16   2.0000      -8.081562      -219.9105
  17   2.0000      -8.081441      -219.9072
  18   2.0000      -6.040120      -164.3600
  19   2.0000      -6.039727      -164.3493
  20   2.0000      -6.035957      -164.2467
  21   2.0000      -6.035751      -164.2411
  22   2.0000      -6.032589      -164.1551
  23   2.0000      -6.032474      -164.1520
  24   2.0000      -1.005145       -27.3514
  25   2.0000      -0.985478       -26.8162
  26   2.0000      -0.910085       -24.7647
  27   2.0000      -0.904380       -24.6094
  28   2.0000      -0.868743       -23.6397
  29   2.0000      -0.852832       -23.2067
  30   2.0000      -0.851886       -23.1810
  31   2.0000      -0.812760       -22.1163
  32   2.0000      -0.781158       -21.2564
  33   2.0000      -0.768004       -20.8984
  34   2.0000      -0.709302       -19.3011
  35   2.0000      -0.695086       -18.9142
  36   2.0000      -0.694644       -18.9022
  37   2.0000      -0.666450       -18.1350
  38   2.0000      -0.650455       -17.6998
  39   2.0000      -0.619305       -16.8522
  40   2.0000      -0.599628       -16.3167
  41   2.0000      -0.565566       -15.3898
  42   2.0000      -0.561029       -15.2664
  43   2.0000      -0.555897       -15.1267
  44   2.0000      -0.533676       -14.5221
  45   2.0000      -0.525516       -14.3000
  46   2.0000      -0.519124       -14.1261
  47   2.0000      -0.512674       -13.9506
  48   2.0000      -0.508556       -13.8385
  49   2.0000      -0.501148       -13.6369
  50   2.0000      -0.490310       -13.3420
  51   2.0000      -0.480418       -13.0728
  52   2.0000      -0.472081       -12.8460
  53   2.0000      -0.463836       -12.6216
  54   2.0000      -0.457802       -12.4574
  55   2.0000      -0.449589       -12.2339
  56   2.0000      -0.441532       -12.0147
  57   2.0000      -0.437467       -11.9041
  58   2.0000      -0.432247       -11.7620
  59   2.0000      -0.422328       -11.4921
  60   2.0000      -0.418816       -11.3966
  61   2.0000      -0.416931       -11.3453
  62   2.0000      -0.415152       -11.2969
  63   2.0000      -0.336982        -9.1697
  64   2.0000      -0.329648        -8.9702
  65   2.0000      -0.316154        -8.6030
  66   2.0000      -0.306886        -8.3508
  67   0.0000       0.036627         0.9967
  68   0.0000       0.043571         1.1856
  69   0.0000       0.110510         3.0071
  70   0.0000       0.117990         3.2107
  71   0.0000       0.125723         3.4211

MULLIKEN ATOMIC CHARGES
-----------------------
   0 S :    0.124959
   1 C :   -0.088258
   2 C :   -0.111527
   3 C :    0.068014
   4 C :   -0.185318
   5 H :    0.005781
   6 C :    0.088664
   7 H :    0.028846
   8 H :    0.017286
   9 C :   -0.084926
  10 H :    0.023315
  11 H :    0.017164
  12 C :   -0.045055
  13 H :    0.045692
  14 H :    0.029987
  15 H :    0.028214
  16 S :    0.112743
  17 C :   -0.074065
  18 C :   -0.049072
  19 C :   -0.002207
  20 C :   -0.194361
  21 H :    0.015530
  22 C :    0.008156
  23 H :    0.032603
  24 H :    0.055062
  25 C :   -0.036606
  26 H :    0.030615
  27 H :    0.017078
  28 C :   -0.035749
  29 H :    0.028259
  30 H :    0.027285
  31 H :    0.012891
  32 H :    0.021731
  33 H :    0.067268
Sum of atomic charges:    0.0000000

LOEWDIN ATOMIC CHARGES
----------------------
   0 S :    0.430414
   1 C :   -0.203276
   2 C :   -0.061436
   3 C :   -0.050985
   4 C :   -0.201314
   5 H :    0.028216
   6 C :   -0.027745
   7 H :    0.033507
   8 H :    0.025801
   9 C :   -0.043017
  10 H :    0.021579
  11 H :    0.019212
  12 C :   -0.064359
  13 H :    0.030352
  14 H :    0.025236
  15 H :    0.022278
  16 S :    0.410080
  17 C :   -0.192889
  18 C :   -0.068100
  19 C :   -0.058134
  20 C :   -0.201930
  21 H :    0.028776
  22 C :   -0.038128
  23 H :    0.037631
  24 H :    0.042839
  25 C :   -0.029707
  26 H :    0.020769
  27 H :    0.014444
  28 C :   -0.057657
  29 H :    0.028461
  30 H :    0.022438
  31 H :    0.010984
  32 H :    0.012850
  33 H :    0.032810

  Mayer bond orders larger than 0.100000
B(  0-S ,  1-C ) :   1.1882 B(  0-S ,  4-C ) :   1.1598 B(  1-C ,  2-C ) :   1.5296
B(  1-C ,  4-C ) :   0.1156 B(  1-C , 32-H ) :   0.9833 B(  2-C ,  3-C ) :   1.2846
B(  2-C ,  6-C ) :   1.0441 B(  3-C ,  4-C ) :   1.5542 B(  3-C ,  5-H ) :   0.9971
B(  4-C , 20-C ) :   1.0118 B(  6-C ,  7-H ) :   0.9413 B(  6-C ,  8-H ) :   0.9405
B(  6-C ,  9-C ) :   1.0482 B(  9-C , 10-H ) :   0.9652 B(  9-C , 11-H ) :   0.9526
B(  9-C , 12-C ) :   1.0804 B( 12-C , 13-H ) :   0.9735 B( 12-C , 14-H ) :   0.9753
B( 12-C , 15-H ) :   0.9776 B( 16-S , 17-C ) :   1.1592 B( 16-S , 20-C ) :   1.1643
B( 17-C , 18-C ) :   1.5678 B( 17-C , 20-C ) :   0.1128 B( 17-C , 33-H ) :   0.9634
B( 18-C , 19-C ) :   1.3054 B( 18-C , 21-H ) :   0.9699 B( 19-C , 20-C ) :   1.5484
B( 19-C , 22-C ) :   1.0587 B( 22-C , 23-H ) :   0.9386 B( 22-C , 24-H ) :   0.9296
B( 22-C , 25-C ) :   1.0386 B( 25-C , 26-H ) :   0.9540 B( 25-C , 27-H ) :   0.9633
B( 25-C , 28-C ) :   1.0773 B( 28-C , 29-H ) :   0.9769 B( 28-C , 30-H ) :   0.9758
B( 28-C , 31-H ) :   0.9781

Dispersion correction           -0.014189231
FINAL SINGLE POINT ENERGY     -1339.861803320616

DIPOLE MOMENT
-------------
                                X             Y             Z
Electronic contribution:      2.79161     -11.82253     -20.74587
Nuclear contribution   :     -2.93575      12.03613      21.11256
                        -----------------------------------------
Total Dipole Moment    :     -0.14414       0.21359       0.36669
                        -----------------------------------------
Magnitude (a.u.)       :      0.44818
Magnitude (Debye)      :      1.13917

Rotational constants in cm-1:     0.017655     0.007916     0.007001
Rotational constants in MHz :   529.282752   237.301651   209.874464

                             ****ORCA TERMINATED NORMALLY****
TOTAL RUN TIME: 0 days 0 hours 0 minutes 33 seconds 826 msec
