                         Program Version 4.2.1 -  RELEASE  -
|  1> ! wB97X-D3 SP def2-SVP
|  2> %pal
|  3> nprocs 16
|  4> end
|  5>
|  6> * xyz 0 1
|  7> S 	 -32.5519 	 42.5484 	 94.8306
|  8> C 	 -34.2182 	 42.2597 	 95.2728
|  9> C 	 -34.5367 	 42.8065 	 96.5588
| 10> C 	 -33.4269 	 43.5215 	 97.0355
| 11> C 	 -32.3682 	 43.5944 	 96.1932
| 12> H 	 -33.4744 	 43.9985 	 98.039
| 13> C 	 -35.9505 	 42.7294 	 97.213
| 14> H 	 -36.699 	 42.3298 	 96.4859
| 15> H 	 -36.1738 	 43.8164 	 97.482
| 16> C 	 -36.0251 	 42.0789 	 98.6374
| 17> H 	 -35.509 	 41.0893 	 98.7418
| 18> H 	 -35.5023 	 42.8364 	 99.2446
| 19> C 	 -37.5274 	 41.8988 	 99.0737
| 20> H 	 -37.4414 	 41.607 	 100.133
| 21> H 	 -38.1703 	 42.7916 	 98.942
| 22> H 	 -37.9854 	 41.0416 	 98.5689
| 23> S 	 -29.6094 	 43.3023 	 96.1478
| 24> C 	 -28.6112 	 44.6709 	 96.6282
| 25> C 	 -29.3441 	 45.7577 	 97.0623
| 26> C 	 -30.7772 	 45.4972 	 96.9664
| 27> C 	 -31.0646 	 44.2316 	 96.4588
| 28> H 	 -28.829 	 46.6334 	 97.5466
| 29> C 	 -31.7694 	 46.5528 	 97.4794
| 30> H 	 -31.1295 	 47.3015 	 97.798
| 31> H 	 -32.3125 	 46.1358 	 98.3736
| 32> C 	 -32.8319 	 47.1974 	 96.4763
| 33> H 	 -33.3038 	 48.0554 	 96.9338
| 34> H 	 -33.5719 	 46.4729 	 96.3266
| 35> C 	 -32.2271 	 47.6727 	 95.1393
| 36> H 	 -31.853 	 46.8682 	 94.5168
| 37> H 	 -31.3973 	 48.3418 	 95.3397
| 38> H 	 -32.8597 	 48.1982 	 94.547
| 39> H 	 -34.9139 	 41.6574 	 94.7994
| 40> H 	 -27.5757 	 44.6142 	 96.7317
| 41> *
| 42>
| 43>                          ****END OF INPUT****

CARTESIAN COORDINATES (ANGSTROEM)
---------------------------------
  S    -32.551900   42.548400   94.830600
  C    -34.218200   42.259700   95.272800
  C    -34.536700   42.806500   96.558800
  C    -33.426900   43.521500   97.035500
  C    -32.368200   43.594400   96.193200
  H    -33.474400   43.998500   98.039000
  C    -35.950500   42.729400   97.213000
  H    -36.699000   42.329800   96.485900
  H    -36.173800   43.816400   97.482000
  C    -36.025100   42.078900   98.637400
  H    -35.509000   41.089300   98.741800
  H    -35.502300   42.836400   99.244600
  C    -37.527400   41.898800   99.073700
  H    -37.441400   41.607000  100.133000
  H    -38.170300   42.791600   98.942000
  H    -37.985400   41.041600   98.568900
  S    -29.609400   43.302300   96.147800
  C    -28.611200   44.670900   96.628200
  C    -29.344100   45.757700   97.062300
  C    -30.777200   45.497200   96.966400
  C    -31.064600   44.231600   96.458800
  H    -28.829000   46.633400   97.546600
  C    -31.769400   46.552800   97.479400
  H    -31.129500   47.301500   97.798000
  H    -32.312500   46.135800   98.373600
  C    -32.831900   47.197400   96.476300
  H    -33.303800   48.055400   96.933800
  H    -33.571900   46.472900   96.326600
  C    -32.227100   47.672700   95.139300
  H    -31.853000   46.868200   94.516800
  H    -31.397300   48.341800   95.339700
  H    -32.859700   48.198200   94.547000
  H    -34.913900   41.657400   94.799400
  H    -27.575700   44.614200   96.731700

 Total Charge           Charge          ....    0
 Multiplicity           Mult            ....    1
 Number of Electrons    NEL             ....  134
 Basis Dimension        Dim             ....  322

ORBITAL ENERGIES
----------------

  NO   OCC          E(Eh)            E(eV)
   0   2.0000     -88.970652     -2421.0145
   1   2.0000     -88.967202     -2420.9207
   2   2.0000     -10.327524      -281.0262
   3   2.0000     -10.326770      -281.0057
   4   2.0000     -10.313578      -280.6467
   5   2.0000     -10.310953      -280.5753
   6   2.0000     -10.307511      -280.4816
   7   2.0000     -10.306235      -280.4469
   8   2.0000     -10.304894      -280.4104
   9   2.0000     -10.301097      -280.3071
  10   2.0000     -10.299355      -280.2597
  11   2.0000     -10.292224      -280.0657
  12   2.0000     -10.292094      -280.0621
  13   2.0000     -10.287729      -279.9433
  14   2.0000     -10.281104      -279.7631
  15   2.0000     -10.261143      -279.2199
  16   2.0000      -8.085398      -220.0149
  17   2.0000      -8.081639      -219.9126
  18   2.0000      -6.043775      -164.4595
  19   2.0000      -6.040219      -164.3627
  20   2.0000      -6.039989      -164.3564
  21   2.0000      -6.036253      -164.2548
  22   2.0000      -6.036223      -164.2540
  23   2.0000      -6.032300      -164.1472
  24   2.0000      -1.007453       -27.4142
  25   2.0000      -0.981086       -26.6967
  26   2.0000      -0.903357       -24.5816
  27   2.0000      -0.897868       -24.4322
  28   2.0000      -0.864788       -23.5321
  29   2.0000      -0.851296       -23.1649
  30   2.0000      -0.843957       -22.9652
  31   2.0000      -0.812721       -22.1153
  32   2.0000      -0.781577       -21.2678
  33   2.0000      -0.770968       -20.9791
  34   2.0000      -0.712107       -19.3774
  35   2.0000      -0.696010       -18.9394
  36   2.0000      -0.689550       -18.7636
  37   2.0000      -0.660463       -17.9721
  38   2.0000      -0.637762       -17.3544
  39   2.0000      -0.622572       -16.9410
  40   2.0000      -0.580939       -15.8081
  41   2.0000      -0.568742       -15.4763
  42   2.0000      -0.559341       -15.2204
  43   2.0000      -0.553750       -15.0683
  44   2.0000      -0.540548       -14.7091
  45   2.0000      -0.522574       -14.2200
  46   2.0000      -0.507230       -13.8024
  47   2.0000      -0.505587       -13.7577
  48   2.0000      -0.502426       -13.6717
  49   2.0000      -0.497380       -13.5344
  50   2.0000      -0.484259       -13.1774
  51   2.0000      -0.475468       -12.9381
  52   2.0000      -0.469994       -12.7892
  53   2.0000      -0.466106       -12.6834
  54   2.0000      -0.460407       -12.5283
  55   2.0000      -0.454876       -12.3778
  56   2.0000      -0.440226       -11.9792
  57   2.0000      -0.437677       -11.9098
  58   2.0000      -0.435370       -11.8470
  59   2.0000      -0.432172       -11.7600
  60   2.0000      -0.421187       -11.4611
  61   2.0000      -0.417111       -11.3502
  62   2.0000      -0.411929       -11.2092
  63   2.0000      -0.349909        -9.5215
  64   2.0000      -0.333183        -9.0664
  65   2.0000      -0.329287        -8.9603
  66   2.0000      -0.286483        -7.7956
  67   0.0000       0.028992         0.7889
  68   0.0000       0.069490         1.8909
  69   0.0000       0.102767         2.7964
  70   0.0000       0.113661         3.0929
  71   0.0000       0.135789         3.6950

MULLIKEN ATOMIC CHARGES
-----------------------
   0 S :    0.121262
   1 C :   -0.088525
   2 C :   -0.081032
   3 C :    0.004277
   4 C :   -0.130146
   5 H :    0.019413
   6 C :    0.013962
   7 H :    0.036864
   8 H :    0.044807
   9 C :   -0.109251
  10 H :    0.049868
  11 H :    0.035118
  12 C :   -0.063306
  13 H :    0.040789
  14 H :    0.043372
  15 H :    0.040881
  16 S :    0.102651
  17 C :   -0.071398
  18 C :   -0.052941
  19 C :   -0.076588
  20 C :   -0.139476
  21 H :    0.048060
  22 C :    0.075549
  23 H :   -0.009496
  24 H :    0.045212
  25 C :   -0.041223
  26 H :    0.025397
  27 H :    0.023596
  28 C :   -0.015839
  29 H :    0.038255
  30 H :    0.015295
  31 H :    0.006383
  32 H :    0.013021
  33 H :    0.035190
Sum of atomic charges:   -0.0000000

LOEWDIN ATOMIC CHARGES
----------------------
   0 S :    0.422863
   1 C :   -0.194554
   2 C :   -0.058353
   3 C :   -0.072282
   4 C :   -0.199306
   5 H :    0.035850
   6 C :   -0.038045
   7 H :    0.030961
   8 H :    0.040875
   9 C :   -0.043890
  10 H :    0.029567
  11 H :    0.022895
  12 C :   -0.070108
  13 H :    0.030963
  14 H :    0.027990
  15 H :    0.027100
  16 S :    0.395841
  17 C :   -0.174097
  18 C :   -0.075005
  19 C :   -0.057594
  20 C :   -0.196136
  21 H :    0.044480
  22 C :   -0.026213
  23 H :    0.015559
  24 H :    0.036346
  25 C :   -0.026766
  26 H :    0.023980
  27 H :    0.014115
  28 C :   -0.057092
  29 H :    0.029249
  30 H :    0.023910
  31 H :    0.010993
  32 H :    0.009972
  33 H :    0.015932

  Mayer bond orders larger than 0.100000
B(  0-S ,  1-C ) :   1.1483 B(  0-S ,  4-C ) :   1.1582 B(  1-C ,  2-C ) :   1.5809
B(  1-C ,  4-C ) :   0.1035 B(  1-C , 32-H ) :   0.9743 B(  2-C ,  3-C ) :   1.2827
B(  2-C ,  6-C ) :   1.0158 B(  3-C ,  4-C ) :   1.5582 B(  3-C ,  5-H ) :   0.9841
B(  4-C , 20-C ) :   1.0342 B(  6-C ,  7-H ) :   0.9522 B(  6-C ,  8-H ) :   0.9469
B(  6-C ,  9-C ) :   1.0360 B(  9-C , 10-H ) :   0.9604 B(  9-C , 11-H ) :   0.9595
B(  9-C , 12-C ) :   1.0760 B( 12-C , 13-H ) :   0.9750 B( 12-C , 14-H ) :   0.9745
B( 12-C , 15-H ) :   0.9771 B( 16-S , 17-C ) :   1.1452 B( 16-S , 20-C ) :   1.1349
B( 17-C , 18-C ) :   1.6351 B( 17-C , 33-H ) :   0.9707 B( 18-C , 19-C ) :   1.2333
B( 18-C , 21-H ) :   0.9741 B( 19-C , 20-C ) :   1.6132 B( 19-C , 22-C ) :   1.0297
B( 22-C , 23-H ) :   0.9273 B( 22-C , 24-H ) :   0.9402 B( 22-C , 25-C ) :   1.0634
B( 25-C , 26-H ) :   0.9576 B( 25-C , 27-H ) :   0.9569 B( 25-C , 28-C ) :   1.0835
B( 28-C , 29-H ) :   0.9710 B( 28-C , 30-H ) :   0.9761 B( 28-C , 31-H ) :   0.9730

Dispersion correction           -0.014557488
FINAL SINGLE POINT ENERGY     -1339.870144328031

DIPOLE MOMENT
-------------
                                X             Y             Z
Electronic contribution:     21.83573     -11.09993     -11.50124
Nuclear contribution   :    -22.24567      11.34720      12.01550
                        -----------------------------------------
Total Dipole Moment    :     -0.40994       0.24727       0.51426
                        -----------------------------------------
Magnitude (a.u.)       :      0.70261
Magnitude (Debye)      :      1.78588

Rotational constants in cm-1:     0.019792     0.008004     0.006970
Rotational constants in MHz :   593.343078   239.947291   208.942211

                             ****ORCA TERMINATED NORMALLY****
TOTAL RUN TIME: 0 days 0 hours 0 minutes 28 seconds 795 msec
