                         Program Version 4.2.1 -  RELEASE  -
|  1> ! wB97X-D3 SP def2-SVP
|  2> %pal
|  3> nprocs 16
|  4> end
|  5>
|  6> * xyz 0 1
|  7> S 	 -99.2512 	 51.5713 	 122.663
|  8> C 	 -97.8841 	 50.9807 	 123.605
|  9> C 	 -98.3357 	 50.0091 	 124.501
| 10> C 	 -99.7175 	 49.7051 	 124.324
| 11> C 	 -100.388 	 50.4756 	 123.405
| 12> H 	 -100.273 	 48.9208 	 124.789
| 13> C 	 -97.4292 	 49.2014 	 125.442
| 14> H 	 -97.9806 	 48.8291 	 126.34
| 15> H 	 -96.8719 	 49.987 	 125.868
| 16> C 	 -96.5356 	 48.1307 	 124.762
| 17> H 	 -97.2015 	 47.4462 	 124.218
| 18> H 	 -95.9719 	 48.5355 	 123.947
| 19> C 	 -95.7427 	 47.3945 	 125.877
| 20> H 	 -96.3598 	 47.323 	 126.738
| 21> H 	 -95.588 	 46.3812 	 125.521
| 22> H 	 -94.9114 	 47.8878 	 126.145
| 23> S 	 -102.114 	 50.6325 	 121.326
| 24> C 	 -103.816 	 50.8686 	 121.642
| 25> C 	 -104.097 	 50.6401 	 122.949
| 26> C 	 -102.969 	 50.3626 	 123.778
| 27> C 	 -101.778 	 50.5077 	 123.078
| 28> H 	 -105.094 	 50.6848 	 123.374
| 29> C 	 -103.099 	 50.21 	 125.297
| 30> H 	 -102.328 	 49.5635 	 125.706
| 31> H 	 -104.03 	 49.6644 	 125.464
| 32> C 	 -103.219 	 51.5316 	 126.086
| 33> H 	 -103.936 	 52.2436 	 125.667
| 34> H 	 -102.263 	 52.1092 	 126.044
| 35> C 	 -103.469 	 51.2528 	 127.597
| 36> H 	 -103.662 	 52.1307 	 128.244
| 37> H 	 -102.584 	 50.8625 	 128.053
| 38> H 	 -104.299 	 50.5611 	 127.831
| 39> H 	 -96.8212 	 51.2753 	 123.558
| 40> H 	 -104.584 	 51.0409 	 120.851
| 41> *
| 42>
| 43>                          ****END OF INPUT****

CARTESIAN COORDINATES (ANGSTROEM)
---------------------------------
  S    -99.251200   51.571300  122.663000
  C    -97.884100   50.980700  123.605000
  C    -98.335700   50.009100  124.501000
  C    -99.717500   49.705100  124.324000
  C    -100.388000   50.475600  123.405000
  H    -100.273000   48.920800  124.789000
  C    -97.429200   49.201400  125.442000
  H    -97.980600   48.829100  126.340000
  H    -96.871900   49.987000  125.868000
  C    -96.535600   48.130700  124.762000
  H    -97.201500   47.446200  124.218000
  H    -95.971900   48.535500  123.947000
  C    -95.742700   47.394500  125.877000
  H    -96.359800   47.323000  126.738000
  H    -95.588000   46.381200  125.521000
  H    -94.911400   47.887800  126.145000
  S    -102.114000   50.632500  121.326000
  C    -103.816000   50.868600  121.642000
  C    -104.097000   50.640100  122.949000
  C    -102.969000   50.362600  123.778000
  C    -101.778000   50.507700  123.078000
  H    -105.094000   50.684800  123.374000
  C    -103.099000   50.210000  125.297000
  H    -102.328000   49.563500  125.706000
  H    -104.030000   49.664400  125.464000
  C    -103.219000   51.531600  126.086000
  H    -103.936000   52.243600  125.667000
  H    -102.263000   52.109200  126.044000
  C    -103.469000   51.252800  127.597000
  H    -103.662000   52.130700  128.244000
  H    -102.584000   50.862500  128.053000
  H    -104.299000   50.561100  127.831000
  H    -96.821200   51.275300  123.558000
  H    -104.584000   51.040900  120.851000

 Total Charge           Charge          ....    0
 Multiplicity           Mult            ....    1
 Number of Electrons    NEL             ....  134
 Basis Dimension        Dim             ....  322

ORBITAL ENERGIES
----------------

  NO   OCC          E(Eh)            E(eV)
   0   2.0000     -88.966081     -2420.8901
   1   2.0000     -88.962630     -2420.7962
   2   2.0000     -10.328676      -281.0576
   3   2.0000     -10.325606      -280.9740
   4   2.0000     -10.318576      -280.7827
   5   2.0000     -10.317417      -280.7512
   6   2.0000     -10.305812      -280.4354
   7   2.0000     -10.301670      -280.3227
   8   2.0000     -10.296177      -280.1732
   9   2.0000     -10.292414      -280.0708
  10   2.0000     -10.292147      -280.0636
  11   2.0000     -10.290757      -280.0257
  12   2.0000     -10.288300      -279.9589
  13   2.0000     -10.287702      -279.9426
  14   2.0000     -10.279399      -279.7167
  15   2.0000     -10.268695      -279.4254
  16   2.0000      -8.080373      -219.8781
  17   2.0000      -8.077198      -219.7917
  18   2.0000      -6.039017      -164.3300
  19   2.0000      -6.035780      -164.2419
  20   2.0000      -6.034753      -164.2140
  21   2.0000      -6.031811      -164.1339
  22   2.0000      -6.031178      -164.1167
  23   2.0000      -6.027793      -164.0246
  24   2.0000      -1.007343       -27.4112
  25   2.0000      -0.982773       -26.7426
  26   2.0000      -0.909907       -24.7598
  27   2.0000      -0.904604       -24.6155
  28   2.0000      -0.872264       -23.7355
  29   2.0000      -0.850079       -23.1318
  30   2.0000      -0.842946       -22.9377
  31   2.0000      -0.814835       -22.1728
  32   2.0000      -0.781987       -21.2789
  33   2.0000      -0.770759       -20.9734
  34   2.0000      -0.713288       -19.4096
  35   2.0000      -0.707506       -19.2522
  36   2.0000      -0.696376       -18.9494
  37   2.0000      -0.663989       -18.0681
  38   2.0000      -0.640203       -17.4208
  39   2.0000      -0.616820       -16.7845
  40   2.0000      -0.596981       -16.2447
  41   2.0000      -0.570119       -15.5137
  42   2.0000      -0.559995       -15.2382
  43   2.0000      -0.553552       -15.0629
  44   2.0000      -0.529511       -14.4087
  45   2.0000      -0.520896       -14.1743
  46   2.0000      -0.517678       -14.0867
  47   2.0000      -0.509181       -13.8555
  48   2.0000      -0.505384       -13.7522
  49   2.0000      -0.500572       -13.6213
  50   2.0000      -0.496913       -13.5217
  51   2.0000      -0.478060       -13.0087
  52   2.0000      -0.470764       -12.8101
  53   2.0000      -0.463415       -12.6102
  54   2.0000      -0.461239       -12.5510
  55   2.0000      -0.451227       -12.2785
  56   2.0000      -0.447484       -12.1767
  57   2.0000      -0.439213       -11.9516
  58   2.0000      -0.435536       -11.8515
  59   2.0000      -0.425676       -11.5832
  60   2.0000      -0.419347       -11.4110
  61   2.0000      -0.414242       -11.2721
  62   2.0000      -0.411745       -11.2041
  63   2.0000      -0.351927        -9.5764
  64   2.0000      -0.332027        -9.0349
  65   2.0000      -0.328904        -8.9499
  66   2.0000      -0.287845        -7.8327
  67   0.0000       0.022491         0.6120
  68   0.0000       0.076431         2.0798
  69   0.0000       0.106807         2.9064
  70   0.0000       0.119462         3.2507
  71   0.0000       0.139544         3.7972

MULLIKEN ATOMIC CHARGES
-----------------------
   0 S :    0.114620
   1 C :   -0.131698
   2 C :   -0.102823
   3 C :    0.022343
   4 C :   -0.129852
   5 H :    0.000445
   6 C :    0.044115
   7 H :    0.025460
   8 H :    0.012786
   9 C :   -0.059478
  10 H :    0.024816
  11 H :    0.020934
  12 C :    0.031929
  13 H :    0.011997
  14 H :    0.032186
  15 H :    0.014140
  16 S :    0.088139
  17 C :   -0.088197
  18 C :   -0.034294
  19 C :   -0.022177
  20 C :   -0.160249
  21 H :    0.014770
  22 C :    0.065940
  23 H :    0.017484
  24 H :    0.017708
  25 C :   -0.060746
  26 H :    0.031786
  27 H :    0.039383
  28 C :   -0.062459
  29 H :    0.033325
  30 H :    0.023690
  31 H :    0.030904
  32 H :    0.059323
  33 H :    0.073750
Sum of atomic charges:   -0.0000000

LOEWDIN ATOMIC CHARGES
----------------------
   0 S :    0.410144
   1 C :   -0.205396
   2 C :   -0.062121
   3 C :   -0.067506
   4 C :   -0.200685
   5 H :    0.025424
   6 C :   -0.037298
   7 H :    0.032645
   8 H :    0.023366
   9 C :   -0.032307
  10 H :    0.025650
  11 H :    0.020450
  12 C :   -0.044711
  13 H :    0.022276
  14 H :    0.030618
  15 H :    0.009902
  16 S :    0.385513
  17 C :   -0.188227
  18 C :   -0.072878
  19 C :   -0.054234
  20 C :   -0.179162
  21 H :    0.031504
  22 C :   -0.029436
  23 H :    0.027607
  24 H :    0.031083
  25 C :   -0.039058
  26 H :    0.024376
  27 H :    0.032876
  28 C :   -0.074655
  29 H :    0.029940
  30 H :    0.021542
  31 H :    0.024047
  32 H :    0.037922
  33 H :    0.040788

  Mayer bond orders larger than 0.100000
B(  0-S ,  1-C ) :   1.1367 B(  0-S ,  4-C ) :   1.1487 B(  1-C ,  2-C ) :   1.5910
B(  1-C ,  4-C ) :   0.1034 B(  1-C , 32-H ) :   0.9680 B(  2-C ,  3-C ) :   1.2544
B(  2-C ,  6-C ) :   1.0115 B(  3-C ,  4-C ) :   1.5602 B(  3-C ,  5-H ) :   1.0015
B(  4-C , 20-C ) :   1.0666 B(  6-C ,  7-H ) :   0.9458 B(  6-C ,  8-H ) :   0.9351
B(  6-C ,  9-C ) :   1.0556 B(  9-C , 10-H ) :   0.9602 B(  9-C , 11-H ) :   0.9572
B(  9-C , 12-C ) :   1.0654 B( 12-C , 13-H ) :   0.9732 B( 12-C , 14-H ) :   0.9748
B( 12-C , 15-H ) :   0.9783 B( 16-S , 17-C ) :   1.1346 B( 16-S , 20-C ) :   1.1354
B( 17-C , 18-C ) :   1.6179 B( 17-C , 33-H ) :   0.9628 B( 18-C , 19-C ) :   1.2343
B( 18-C , 21-H ) :   0.9884 B( 19-C , 20-C ) :   1.5911 B( 19-C , 22-C ) :   1.0520
B( 22-C , 23-H ) :   0.9386 B( 22-C , 24-H ) :   0.9286 B( 22-C , 25-C ) :   1.0585
B( 25-C , 26-H ) :   0.9599 B( 25-C , 27-H ) :   0.9550 B( 25-C , 28-C ) :   1.0680
B( 28-C , 29-H ) :   0.9745 B( 28-C , 30-H ) :   0.9759 B( 28-C , 31-H ) :   0.9777

Dispersion correction           -0.013622952
FINAL SINGLE POINT ENERGY     -1339.878565008348

DIPOLE MOMENT
-------------
                                X             Y             Z
Electronic contribution:     -5.70830       9.52584     -25.94909
Nuclear contribution   :      5.68316      -9.80105      26.58101
                        -----------------------------------------
Total Dipole Moment    :     -0.02514      -0.27521       0.63191
                        -----------------------------------------
Magnitude (a.u.)       :      0.68970
Magnitude (Debye)      :      1.75308

Rotational constants in cm-1:     0.018230     0.007974     0.006287
Rotational constants in MHz :   546.529562   239.066355   188.488003

                             ****ORCA TERMINATED NORMALLY****
TOTAL RUN TIME: 0 days 0 hours 0 minutes 31 seconds 461 msec
