                         Program Version 4.2.1 -  RELEASE  -
|  1> ! wB97X-D3 SP def2-SVP
|  2> %pal
|  3> nprocs 16
|  4> end
|  5>
|  6> * xyz 0 1
|  7> S 	 49.3925 	 5.79713 	 85.7201
|  8> C 	 48.8462 	 4.89006 	 84.3126
|  9> C 	 47.8706 	 4.00556 	 84.7026
| 10> C 	 47.648 	 4.01389 	 86.0812
| 11> C 	 48.4787 	 4.81477 	 86.8024
| 12> H 	 46.966 	 3.35364 	 86.6881
| 13> C 	 47.0415 	 3.16589 	 83.8393
| 14> H 	 47.0002 	 3.53745 	 82.7944
| 15> H 	 46.055 	 3.12901 	 84.2054
| 16> C 	 47.7916 	 1.80662 	 83.8619
| 17> H 	 47.868 	 1.45272 	 84.8472
| 18> H 	 47.1986 	 1.13688 	 83.329
| 19> C 	 49.2389 	 1.76853 	 83.2773
| 20> H 	 49.3629 	 2.07272 	 82.2143
| 21> H 	 49.9825 	 2.2692 	 83.8879
| 22> H 	 49.57 	 0.729699 	 83.2844
| 23> S 	 47.7251 	 6.8525 	 88.3742
| 24> C 	 47.5875 	 6.65159 	 90.0467
| 25> C 	 48.1107 	 5.42922 	 90.4824
| 26> C 	 48.3902 	 4.51126 	 89.3641
| 27> C 	 48.256 	 5.2029 	 88.1376
| 28> H 	 48.1316 	 5.15017 	 91.4947
| 29> C 	 48.8253 	 3.11812 	 89.5502
| 30> H 	 48.124 	 2.57269 	 88.9171
| 31> H 	 48.6102 	 2.87006 	 90.5976
| 32> C 	 50.3071 	 2.74984 	 89.3928
| 33> H 	 50.5408 	 3.19286 	 88.4271
| 34> H 	 50.4178 	 1.66274 	 89.1768
| 35> C 	 51.3812 	 3.0649 	 90.4333
| 36> H 	 52.3623 	 2.98548 	 89.9114
| 37> H 	 51.5104 	 2.3575 	 91.2305
| 38> H 	 51.1609 	 4.08938 	 90.7356
| 39> H 	 49.1686 	 5.0252 	 83.3474
| 40> H 	 47.2876 	 7.39102 	 90.7144
| 41> *
| 42>
| 43>                          ****END OF INPUT****

CARTESIAN COORDINATES (ANGSTROEM)
---------------------------------
  S     49.392500    5.797130   85.720100
  C     48.846200    4.890060   84.312600
  C     47.870600    4.005560   84.702600
  C     47.648000    4.013890   86.081200
  C     48.478700    4.814770   86.802400
  H     46.966000    3.353640   86.688100
  C     47.041500    3.165890   83.839300
  H     47.000200    3.537450   82.794400
  H     46.055000    3.129010   84.205400
  C     47.791600    1.806620   83.861900
  H     47.868000    1.452720   84.847200
  H     47.198600    1.136880   83.329000
  C     49.238900    1.768530   83.277300
  H     49.362900    2.072720   82.214300
  H     49.982500    2.269200   83.887900
  H     49.570000    0.729699   83.284400
  S     47.725100    6.852500   88.374200
  C     47.587500    6.651590   90.046700
  C     48.110700    5.429220   90.482400
  C     48.390200    4.511260   89.364100
  C     48.256000    5.202900   88.137600
  H     48.131600    5.150170   91.494700
  C     48.825300    3.118120   89.550200
  H     48.124000    2.572690   88.917100
  H     48.610200    2.870060   90.597600
  C     50.307100    2.749840   89.392800
  H     50.540800    3.192860   88.427100
  H     50.417800    1.662740   89.176800
  C     51.381200    3.064900   90.433300
  H     52.362300    2.985480   89.911400
  H     51.510400    2.357500   91.230500
  H     51.160900    4.089380   90.735600
  H     49.168600    5.025200   83.347400
  H     47.287600    7.391020   90.714400

 Total Charge           Charge          ....    0
 Multiplicity           Mult            ....    1
 Number of Electrons    NEL             ....  134
 Basis Dimension        Dim             ....  322

ORBITAL ENERGIES
----------------

  NO   OCC          E(Eh)            E(eV)
   0   2.0000     -88.964798     -2420.8552
   1   2.0000     -88.962433     -2420.7909
   2   2.0000     -10.321054      -280.8502
   3   2.0000     -10.318026      -280.7678
   4   2.0000     -10.308799      -280.5167
   5   2.0000     -10.305512      -280.4272
   6   2.0000     -10.304782      -280.4074
   7   2.0000     -10.292415      -280.0708
   8   2.0000     -10.292354      -280.0692
   9   2.0000     -10.289221      -279.9839
  10   2.0000     -10.289196      -279.9833
  11   2.0000     -10.286632      -279.9135
  12   2.0000     -10.283485      -279.8278
  13   2.0000     -10.281214      -279.7661
  14   2.0000     -10.279381      -279.7162
  15   2.0000     -10.278259      -279.6857
  16   2.0000      -8.080561      -219.8832
  17   2.0000      -8.077578      -219.8021
  18   2.0000      -6.038925      -164.3275
  19   2.0000      -6.036117      -164.2511
  20   2.0000      -6.034838      -164.2163
  21   2.0000      -6.031965      -164.1381
  22   2.0000      -6.031485      -164.1251
  23   2.0000      -6.028342      -164.0395
  24   2.0000      -1.015432       -27.6313
  25   2.0000      -0.987141       -26.8615
  26   2.0000      -0.920743       -25.0547
  27   2.0000      -0.911198       -24.7950
  28   2.0000      -0.871571       -23.7166
  29   2.0000      -0.852300       -23.1923
  30   2.0000      -0.844373       -22.9766
  31   2.0000      -0.813284       -22.1306
  32   2.0000      -0.787920       -21.4404
  33   2.0000      -0.777106       -21.1461
  34   2.0000      -0.713995       -19.4288
  35   2.0000      -0.703717       -19.1491
  36   2.0000      -0.690957       -18.8019
  37   2.0000      -0.665814       -18.1177
  38   2.0000      -0.646362       -17.5884
  39   2.0000      -0.620317       -16.8797
  40   2.0000      -0.590166       -16.0592
  41   2.0000      -0.577371       -15.7111
  42   2.0000      -0.561782       -15.2869
  43   2.0000      -0.548879       -14.9358
  44   2.0000      -0.544638       -14.8203
  45   2.0000      -0.538370       -14.6498
  46   2.0000      -0.521751       -14.1976
  47   2.0000      -0.515219       -14.0198
  48   2.0000      -0.507221       -13.8022
  49   2.0000      -0.494026       -13.4431
  50   2.0000      -0.489458       -13.3188
  51   2.0000      -0.479346       -13.0437
  52   2.0000      -0.471629       -12.8337
  53   2.0000      -0.469066       -12.7639
  54   2.0000      -0.462021       -12.5722
  55   2.0000      -0.456037       -12.4094
  56   2.0000      -0.448784       -12.2120
  57   2.0000      -0.439155       -11.9500
  58   2.0000      -0.432719       -11.7749
  59   2.0000      -0.427302       -11.6275
  60   2.0000      -0.415287       -11.3005
  61   2.0000      -0.407872       -11.0988
  62   2.0000      -0.404142       -10.9973
  63   2.0000      -0.343724        -9.3532
  64   2.0000      -0.328051        -8.9267
  65   2.0000      -0.323849        -8.8124
  66   2.0000      -0.290174        -7.8960
  67   0.0000       0.036316         0.9882
  68   0.0000       0.060555         1.6478
  69   0.0000       0.118338         3.2201
  70   0.0000       0.121651         3.3103
  71   0.0000       0.133049         3.6204

MULLIKEN ATOMIC CHARGES
-----------------------
   0 S :    0.094185
   1 C :   -0.088222
   2 C :   -0.085223
   3 C :   -0.000870
   4 C :   -0.152932
   5 H :    0.029952
   6 C :    0.113987
   7 H :    0.023706
   8 H :    0.019876
   9 C :   -0.035023
  10 H :    0.017519
  11 H :    0.010888
  12 C :   -0.074213
  13 H :    0.033520
  14 H :    0.045517
  15 H :    0.028231
  16 S :    0.133205
  17 C :   -0.068554
  18 C :   -0.018100
  19 C :   -0.080309
  20 C :   -0.172754
  21 H :    0.000321
  22 C :    0.106132
  23 H :    0.027197
  24 H :    0.006531
  25 C :   -0.087816
  26 H :    0.023887
  27 H :    0.023471
  28 C :   -0.027754
  29 H :    0.038115
  30 H :    0.031828
  31 H :    0.038821
  32 H :    0.008241
  33 H :    0.036640
Sum of atomic charges:   -0.0000000

LOEWDIN ATOMIC CHARGES
----------------------
   0 S :    0.408893
   1 C :   -0.180862
   2 C :   -0.061350
   3 C :   -0.066165
   4 C :   -0.213713
   5 H :    0.038327
   6 C :   -0.024052
   7 H :    0.032135
   8 H :    0.027259
   9 C :   -0.022562
  10 H :    0.019511
  11 H :    0.012953
  12 C :   -0.069036
  13 H :    0.025897
  14 H :    0.025284
  15 H :    0.029002
  16 S :    0.439762
  17 C :   -0.198084
  18 C :   -0.065649
  19 C :   -0.053122
  20 C :   -0.206001
  21 H :    0.019663
  22 C :   -0.040427
  23 H :    0.038334
  24 H :    0.030063
  25 C :   -0.047403
  26 H :    0.023487
  27 H :    0.027123
  28 C :   -0.064549
  29 H :    0.037821
  30 H :    0.021460
  31 H :    0.027912
  32 H :    0.010725
  33 H :    0.017364

  Mayer bond orders larger than 0.100000
B(  0-S ,  1-C ) :   1.1315 B(  0-S ,  4-C ) :   1.1508 B(  1-C ,  2-C ) :   1.5799
B(  1-C , 32-H ) :   0.9851 B(  2-C ,  3-C ) :   1.2592 B(  2-C ,  6-C ) :   1.0347
B(  3-C ,  4-C ) :   1.5697 B(  3-C ,  5-H ) :   0.9790 B(  4-C , 20-C ) :   1.0562
B(  6-C ,  7-H ) :   0.9401 B(  6-C ,  8-H ) :   0.9359 B(  6-C ,  9-C ) :   1.0626
B(  9-C , 10-H ) :   0.9554 B(  9-C , 11-H ) :   0.9553 B(  9-C , 12-C ) :   1.0791
B( 12-C , 13-H ) :   0.9762 B( 12-C , 14-H ) :   0.9716 B( 12-C , 15-H ) :   0.9710
B( 16-S , 17-C ) :   1.1751 B( 16-S , 20-C ) :   1.1561 B( 17-C , 18-C ) :   1.5881
B( 17-C , 33-H ) :   0.9740 B( 18-C , 19-C ) :   1.2482 B( 18-C , 21-H ) :   0.9916
B( 19-C , 20-C ) :   1.5648 B( 19-C , 22-C ) :   1.0565 B( 22-C , 23-H ) :   0.9205
B( 22-C , 24-H ) :   0.9238 B( 22-C , 25-C ) :   1.0644 B( 25-C , 26-H ) :   0.9594
B( 25-C , 27-H ) :   0.9513 B( 25-C , 28-C ) :   1.0776 B( 28-C , 29-H ) :   0.9700
B( 28-C , 30-H ) :   0.9747 B( 28-C , 31-H ) :   0.9766

Dispersion correction           -0.014894814
FINAL SINGLE POINT ENERGY     -1339.857944898102

DIPOLE MOMENT
-------------
                                X             Y             Z
Electronic contribution:     -6.52683      23.72608       2.19505
Nuclear contribution   :      6.35860     -24.31750      -2.22108
                        -----------------------------------------
Total Dipole Moment    :     -0.16823      -0.59142      -0.02603
                        -----------------------------------------
Magnitude (a.u.)       :      0.61543
Magnitude (Debye)      :      1.56431

Rotational constants in cm-1:     0.019797     0.009127     0.007386
Rotational constants in MHz :   593.508002   273.612978   221.426616

                             ****ORCA TERMINATED NORMALLY****
TOTAL RUN TIME: 0 days 0 hours 0 minutes 30 seconds 154 msec
