                         Program Version 4.2.1 -  RELEASE  -
|  1> ! wB97X-D3 SP def2-SVP
|  2> %pal
|  3> nprocs 16
|  4> end
|  5>
|  6> * xyz 0 1
|  7> S 	 -36.3356 	 70.8784 	 171.242
|  8> C 	 -34.8571 	 71.9002 	 171.421
|  9> C 	 -35.0486 	 72.8679 	 172.386
| 10> C 	 -36.3286 	 72.783 	 173.007
| 11> C 	 -37.1314 	 71.7864 	 172.486
| 12> H 	 -36.5714 	 73.3068 	 173.92
| 13> C 	 -34.0809 	 73.9421 	 172.693
| 14> H 	 -33.3432 	 74.0096 	 171.851
| 15> H 	 -33.4704 	 73.6247 	 173.514
| 16> C 	 -34.5786 	 75.3351 	 172.879
| 17> H 	 -35.5792 	 75.4466 	 172.367
| 18> H 	 -34.8876 	 75.5615 	 173.848
| 19> C 	 -33.7242 	 76.4544 	 172.368
| 20> H 	 -32.7938 	 76.5 	 172.973
| 21> H 	 -33.2931 	 76.351 	 171.385
| 22> H 	 -34.2746 	 77.3787 	 172.393
| 23> S 	 -39.7592 	 72.4786 	 173.332
| 24> C 	 -40.908 	 71.1484 	 173.605
| 25> C 	 -40.317 	 69.9683 	 173.646
| 26> C 	 -38.9151 	 70.02 	 173.27
| 27> C 	 -38.4473 	 71.296 	 172.907
| 28> H 	 -40.8325 	 69.0642 	 173.829
| 29> C 	 -37.9664 	 68.8442 	 173.296
| 30> H 	 -36.9151 	 69.024 	 173.215
| 31> H 	 -38.174 	 68.2008 	 172.435
| 32> C 	 -38.1063 	 68.0738 	 174.576
| 33> H 	 -37.6987 	 67.1012 	 174.332
| 34> H 	 -39.1053 	 67.8715 	 174.76
| 35> C 	 -37.3561 	 68.754 	 175.788
| 36> H 	 -37.7642 	 69.8339 	 175.957
| 37> H 	 -36.3561 	 68.9227 	 175.521
| 38> H 	 -37.2091 	 68.082 	 176.702
| 39> H 	 -34.0053 	 71.7538 	 170.722
| 40> H 	 -42.0014 	 71.3589 	 173.809
| 41> *
| 42>
| 43>                          ****END OF INPUT****

CARTESIAN COORDINATES (ANGSTROEM)
---------------------------------
  S    -36.335600   70.878400  171.242000
  C    -34.857100   71.900200  171.421000
  C    -35.048600   72.867900  172.386000
  C    -36.328600   72.783000  173.007000
  C    -37.131400   71.786400  172.486000
  H    -36.571400   73.306800  173.920000
  C    -34.080900   73.942100  172.693000
  H    -33.343200   74.009600  171.851000
  H    -33.470400   73.624700  173.514000
  C    -34.578600   75.335100  172.879000
  H    -35.579200   75.446600  172.367000
  H    -34.887600   75.561500  173.848000
  C    -33.724200   76.454400  172.368000
  H    -32.793800   76.500000  172.973000
  H    -33.293100   76.351000  171.385000
  H    -34.274600   77.378700  172.393000
  S    -39.759200   72.478600  173.332000
  C    -40.908000   71.148400  173.605000
  C    -40.317000   69.968300  173.646000
  C    -38.915100   70.020000  173.270000
  C    -38.447300   71.296000  172.907000
  H    -40.832500   69.064200  173.829000
  C    -37.966400   68.844200  173.296000
  H    -36.915100   69.024000  173.215000
  H    -38.174000   68.200800  172.435000
  C    -38.106300   68.073800  174.576000
  H    -37.698700   67.101200  174.332000
  H    -39.105300   67.871500  174.760000
  C    -37.356100   68.754000  175.788000
  H    -37.764200   69.833900  175.957000
  H    -36.356100   68.922700  175.521000
  H    -37.209100   68.082000  176.702000
  H    -34.005300   71.753800  170.722000
  H    -42.001400   71.358900  173.809000

 Total Charge           Charge          ....    0
 Multiplicity           Mult            ....    1
 Number of Electrons    NEL             ....  134
 Basis Dimension        Dim             ....  322

ORBITAL ENERGIES
----------------

  NO   OCC          E(Eh)            E(eV)
   0   2.0000     -88.965901     -2420.8852
   1   2.0000     -88.959425     -2420.7090
   2   2.0000     -10.332769      -281.1689
   3   2.0000     -10.331987      -281.1477
   4   2.0000     -10.322106      -280.8788
   5   2.0000     -10.319601      -280.8106
   6   2.0000     -10.307661      -280.4857
   7   2.0000     -10.301958      -280.3305
   8   2.0000     -10.293845      -280.1098
   9   2.0000     -10.292398      -280.0704
  10   2.0000     -10.288466      -279.9634
  11   2.0000     -10.284837      -279.8647
  12   2.0000     -10.282279      -279.7950
  13   2.0000     -10.279324      -279.7146
  14   2.0000     -10.277319      -279.6601
  15   2.0000     -10.275827      -279.6195
  16   2.0000      -8.079894      -219.8651
  17   2.0000      -8.073247      -219.6842
  18   2.0000      -6.038418      -164.3137
  19   2.0000      -6.034485      -164.2067
  20   2.0000      -6.032026      -164.1398
  21   2.0000      -6.030687      -164.1033
  22   2.0000      -6.028071      -164.0322
  23   2.0000      -6.023583      -163.9100
  24   2.0000      -1.002231       -27.2721
  25   2.0000      -0.980860       -26.6905
  26   2.0000      -0.921735       -25.0817
  27   2.0000      -0.910991       -24.7893
  28   2.0000      -0.873550       -23.7705
  29   2.0000      -0.849187       -23.1076
  30   2.0000      -0.833693       -22.6860
  31   2.0000      -0.817918       -22.2567
  32   2.0000      -0.785257       -21.3679
  33   2.0000      -0.770811       -20.9748
  34   2.0000      -0.714072       -19.4309
  35   2.0000      -0.702818       -19.1246
  36   2.0000      -0.688923       -18.7465
  37   2.0000      -0.658192       -17.9103
  38   2.0000      -0.636662       -17.3244
  39   2.0000      -0.624115       -16.9830
  40   2.0000      -0.608047       -16.5458
  41   2.0000      -0.571675       -15.5561
  42   2.0000      -0.567578       -15.4446
  43   2.0000      -0.553910       -15.0727
  44   2.0000      -0.534671       -14.5491
  45   2.0000      -0.528114       -14.3707
  46   2.0000      -0.520763       -14.1707
  47   2.0000      -0.511929       -13.9303
  48   2.0000      -0.499545       -13.5933
  49   2.0000      -0.493463       -13.4278
  50   2.0000      -0.485056       -13.1990
  51   2.0000      -0.480136       -13.0652
  52   2.0000      -0.472252       -12.8506
  53   2.0000      -0.465979       -12.6799
  54   2.0000      -0.459244       -12.4967
  55   2.0000      -0.447566       -12.1789
  56   2.0000      -0.445701       -12.1282
  57   2.0000      -0.435363       -11.8468
  58   2.0000      -0.431089       -11.7305
  59   2.0000      -0.427578       -11.6350
  60   2.0000      -0.423707       -11.5297
  61   2.0000      -0.404089       -10.9958
  62   2.0000      -0.401852       -10.9350
  63   2.0000      -0.352159        -9.5827
  64   2.0000      -0.331447        -9.0191
  65   2.0000      -0.325928        -8.8689
  66   2.0000      -0.290443        -7.9034
  67   0.0000       0.026663         0.7255
  68   0.0000       0.072488         1.9725
  69   0.0000       0.104878         2.8539
  70   0.0000       0.115792         3.1509
  71   0.0000       0.135580         3.6893

MULLIKEN ATOMIC CHARGES
-----------------------
   0 S :    0.093130
   1 C :   -0.157953
   2 C :   -0.083819
   3 C :    0.031383
   4 C :   -0.151510
   5 H :    0.017600
   6 C :    0.096425
   7 H :    0.014620
   8 H :    0.036054
   9 C :   -0.073618
  10 H :    0.031887
  11 H :    0.010649
  12 C :   -0.044758
  13 H :    0.025313
  14 H :    0.024933
  15 H :    0.036423
  16 S :    0.069583
  17 C :   -0.102428
  18 C :    0.014020
  19 C :   -0.061834
  20 C :   -0.126040
  21 H :    0.011762
  22 C :    0.052350
  23 H :    0.025276
  24 H :    0.033125
  25 C :   -0.037223
  26 H :    0.012947
  27 H :    0.004089
  28 C :   -0.067996
  29 H :    0.058584
  30 H :    0.011579
  31 H :    0.049526
  32 H :    0.064646
  33 H :    0.081275
Sum of atomic charges:   -0.0000000

LOEWDIN ATOMIC CHARGES
----------------------
   0 S :    0.404549
   1 C :   -0.188488
   2 C :   -0.058738
   3 C :   -0.069342
   4 C :   -0.185113
   5 H :    0.032968
   6 C :   -0.036081
   7 H :    0.036487
   8 H :    0.034040
   9 C :   -0.049049
  10 H :    0.032773
  11 H :    0.015952
  12 C :   -0.061864
  13 H :    0.026135
  14 H :    0.021642
  15 H :    0.028660
  16 S :    0.348238
  17 C :   -0.166160
  18 C :   -0.072035
  19 C :   -0.049058
  20 C :   -0.182515
  21 H :    0.029149
  22 C :   -0.039511
  23 H :    0.021050
  24 H :    0.033085
  25 C :   -0.034364
  26 H :    0.023876
  27 H :    0.007357
  28 C :   -0.075623
  29 H :    0.042715
  30 H :    0.014097
  31 H :    0.036569
  32 H :    0.033835
  33 H :    0.044766

  Mayer bond orders larger than 0.100000
B(  0-S ,  1-C ) :   1.1181 B(  0-S ,  4-C ) :   1.1680 B(  1-C ,  2-C ) :   1.6204
B(  1-C , 32-H ) :   0.9661 B(  2-C ,  3-C ) :   1.2373 B(  2-C ,  6-C ) :   1.0349
B(  3-C ,  4-C ) :   1.5727 B(  3-C ,  5-H ) :   0.9902 B(  4-C , 20-C ) :   1.0338
B(  6-C ,  7-H ) :   0.9466 B(  6-C ,  8-H ) :   0.9152 B(  6-C ,  9-C ) :   1.0519
B(  9-C , 10-H ) :   0.9588 B(  9-C , 11-H ) :   0.9400 B(  9-C , 12-C ) :   1.1023
B( 12-C , 13-H ) :   0.9731 B( 12-C , 14-H ) :   0.9718 B( 12-C , 15-H ) :   0.9722
B( 16-S , 17-C ) :   1.1335 B( 16-S , 20-C ) :   1.1009 B( 17-C , 18-C ) :   1.6525
B( 17-C , 33-H ) :   0.9555 B( 18-C , 19-C ) :   1.2004 B( 18-C , 21-H ) :   0.9946
B( 19-C , 20-C ) :   1.6114 B( 19-C , 22-C ) :   1.0411 B( 22-C , 23-H ) :   0.9378
B( 22-C , 24-H ) :   0.9286 B( 22-C , 25-C ) :   1.0811 B( 25-C , 26-H ) :   0.9474
B( 25-C , 27-H ) :   0.9580 B( 25-C , 28-C ) :   1.0603 B( 28-C , 29-H ) :   0.9740
B( 28-C , 30-H ) :   0.9712 B( 28-C , 31-H ) :   0.9754

Dispersion correction           -0.014391126
FINAL SINGLE POINT ENERGY     -1339.863006356075

DIPOLE MOMENT
-------------
                                X             Y             Z
Electronic contribution:    -14.29164      -3.18176      -9.28616
Nuclear contribution   :     14.59070       3.02952       9.53241
                        -----------------------------------------
Total Dipole Moment    :      0.29905      -0.15224       0.24625
                        -----------------------------------------
Magnitude (a.u.)       :      0.41623
Magnitude (Debye)      :      1.05798

Rotational constants in cm-1:     0.021966     0.007673     0.006765
Rotational constants in MHz :   658.512716   230.032971   202.811853

                             ****ORCA TERMINATED NORMALLY****
TOTAL RUN TIME: 0 days 0 hours 0 minutes 34 seconds 311 msec
