                         Program Version 4.2.1 -  RELEASE  -
|  1> ! wB97X-D3 SP def2-SVP
|  2> %pal
|  3> nprocs 16
|  4> end
|  5>
|  6> * xyz 0 1
|  7> S 	 7.17313 	 16.0076 	 85.6467
|  8> C 	 5.58604 	 15.9332 	 85.0026
|  9> C 	 4.78098 	 15.0482 	 85.6372
| 10> C 	 5.50425 	 14.4219 	 86.7181
| 11> C 	 6.78131 	 14.8236 	 86.8886
| 12> H 	 5.19965 	 13.7874 	 87.4826
| 13> C 	 3.33752 	 14.7531 	 85.3367
| 14> H 	 3.39245 	 13.7009 	 85.1242
| 15> H 	 2.93043 	 15.2449 	 84.46
| 16> C 	 2.37125 	 14.7698 	 86.5188
| 17> H 	 2.95749 	 14.3027 	 87.3766
| 18> H 	 2.14222 	 15.8403 	 86.6871
| 19> C 	 1.12244 	 13.8468 	 86.3341
| 20> H 	 0.724145 	 14.0318 	 85.4264
| 21> H 	 1.34034 	 12.7704 	 86.5221
| 22> H 	 0.393357 	 14.2371 	 87.0272
| 23> S 	 8.67256 	 15.5241 	 88.7743
| 24> C 	 9.61022 	 14.3265 	 89.4872
| 25> C 	 9.07182 	 13.0783 	 89.2801
| 26> C 	 8.07699 	 13.0945 	 88.2693
| 27> C 	 7.60938 	 14.3486 	 87.983
| 28> H 	 9.54195 	 12.2684 	 89.7855
| 29> C 	 7.69495 	 11.808 	 87.608
| 30> H 	 6.66772 	 11.7862 	 87.1903
| 31> H 	 7.64545 	 11.0896 	 88.3776
| 32> C 	 8.75461 	 11.2997 	 86.6573
| 33> H 	 9.68281 	 11.383 	 87.188
| 34> H 	 8.86933 	 11.9127 	 85.7585
| 35> C 	 8.41992 	 9.88873 	 86.2862
| 36> H 	 7.32125 	 9.88837 	 86.0873
| 37> H 	 8.59757 	 9.31341 	 87.1522
| 38> H 	 8.93427 	 9.38924 	 85.4575
| 39> H 	 5.26784 	 16.6523 	 84.2543
| 40> H 	 10.5278 	 14.5815 	 90.0244
| 41> *
| 42>
| 43>                          ****END OF INPUT****

CARTESIAN COORDINATES (ANGSTROEM)
---------------------------------
  S      7.173130   16.007600   85.646700
  C      5.586040   15.933200   85.002600
  C      4.780980   15.048200   85.637200
  C      5.504250   14.421900   86.718100
  C      6.781310   14.823600   86.888600
  H      5.199650   13.787400   87.482600
  C      3.337520   14.753100   85.336700
  H      3.392450   13.700900   85.124200
  H      2.930430   15.244900   84.460000
  C      2.371250   14.769800   86.518800
  H      2.957490   14.302700   87.376600
  H      2.142220   15.840300   86.687100
  C      1.122440   13.846800   86.334100
  H      0.724145   14.031800   85.426400
  H      1.340340   12.770400   86.522100
  H      0.393357   14.237100   87.027200
  S      8.672560   15.524100   88.774300
  C      9.610220   14.326500   89.487200
  C      9.071820   13.078300   89.280100
  C      8.076990   13.094500   88.269300
  C      7.609380   14.348600   87.983000
  H      9.541950   12.268400   89.785500
  C      7.694950   11.808000   87.608000
  H      6.667720   11.786200   87.190300
  H      7.645450   11.089600   88.377600
  C      8.754610   11.299700   86.657300
  H      9.682810   11.383000   87.188000
  H      8.869330   11.912700   85.758500
  C      8.419920    9.888730   86.286200
  H      7.321250    9.888370   86.087300
  H      8.597570    9.313410   87.152200
  H      8.934270    9.389240   85.457500
  H      5.267840   16.652300   84.254300
  H     10.527800   14.581500   90.024400

 Total Charge           Charge          ....    0
 Multiplicity           Mult            ....    1
 Number of Electrons    NEL             ....  134
 Basis Dimension        Dim             ....  322

ORBITAL ENERGIES
----------------

  NO   OCC          E(Eh)            E(eV)
   0   2.0000     -88.960258     -2420.7317
   1   2.0000     -88.959579     -2420.7132
   2   2.0000     -10.321378      -280.8590
   3   2.0000     -10.321177      -280.8535
   4   2.0000     -10.315642      -280.7029
   5   2.0000     -10.306286      -280.4483
   6   2.0000     -10.302299      -280.3398
   7   2.0000     -10.298564      -280.2382
   8   2.0000     -10.292161      -280.0639
   9   2.0000     -10.289685      -279.9966
  10   2.0000     -10.285876      -279.8929
  11   2.0000     -10.285594      -279.8852
  12   2.0000     -10.282168      -279.7920
  13   2.0000     -10.277961      -279.6775
  14   2.0000     -10.275193      -279.6022
  15   2.0000     -10.273292      -279.5505
  16   2.0000      -8.076545      -219.7740
  17   2.0000      -8.075069      -219.7338
  18   2.0000      -6.034805      -164.2154
  19   2.0000      -6.033599      -164.1826
  20   2.0000      -6.030785      -164.1060
  21   2.0000      -6.029543      -164.0722
  22   2.0000      -6.027507      -164.0168
  23   2.0000      -6.025673      -163.9669
  24   2.0000      -1.013853       -27.5883
  25   2.0000      -0.992908       -27.0184
  26   2.0000      -0.922946       -25.1146
  27   2.0000      -0.912965       -24.8430
  28   2.0000      -0.876793       -23.8587
  29   2.0000      -0.856665       -23.3110
  30   2.0000      -0.846593       -23.0370
  31   2.0000      -0.817778       -22.2529
  32   2.0000      -0.783728       -21.3263
  33   2.0000      -0.775015       -21.0892
  34   2.0000      -0.706358       -19.2210
  35   2.0000      -0.698279       -19.0011
  36   2.0000      -0.691443       -18.8151
  37   2.0000      -0.664586       -18.0843
  38   2.0000      -0.647648       -17.6234
  39   2.0000      -0.623483       -16.9658
  40   2.0000      -0.605186       -16.4680
  41   2.0000      -0.572618       -15.5817
  42   2.0000      -0.569508       -15.4971
  43   2.0000      -0.564962       -15.3734
  44   2.0000      -0.528868       -14.3912
  45   2.0000      -0.526002       -14.3133
  46   2.0000      -0.519971       -14.1491
  47   2.0000      -0.511857       -13.9283
  48   2.0000      -0.508420       -13.8348
  49   2.0000      -0.505579       -13.7575
  50   2.0000      -0.498074       -13.5533
  51   2.0000      -0.481730       -13.1085
  52   2.0000      -0.469774       -12.7832
  53   2.0000      -0.466800       -12.7023
  54   2.0000      -0.461742       -12.5646
  55   2.0000      -0.449227       -12.2241
  56   2.0000      -0.444157       -12.0861
  57   2.0000      -0.435570       -11.8525
  58   2.0000      -0.429739       -11.6938
  59   2.0000      -0.427906       -11.6439
  60   2.0000      -0.422507       -11.4970
  61   2.0000      -0.415398       -11.3036
  62   2.0000      -0.412611       -11.2277
  63   2.0000      -0.349732        -9.5167
  64   2.0000      -0.330033        -8.9807
  65   2.0000      -0.322357        -8.7718
  66   2.0000      -0.295667        -8.0455
  67   0.0000       0.034015         0.9256
  68   0.0000       0.081263         2.2113
  69   0.0000       0.118743         3.2312
  70   0.0000       0.123085         3.3493
  71   0.0000       0.136162         3.7052

MULLIKEN ATOMIC CHARGES
-----------------------
   0 S :    0.109145
   1 C :   -0.148502
   2 C :   -0.032690
   3 C :    0.003611
   4 C :   -0.117027
   5 H :   -0.008804
   6 C :    0.109219
   7 H :    0.015205
   8 H :    0.017674
   9 C :   -0.144172
  10 H :    0.042024
  11 H :    0.042088
  12 C :   -0.005796
  13 H :    0.006571
  14 H :    0.050221
  15 H :    0.029925
  16 S :    0.097265
  17 C :   -0.107171
  18 C :   -0.015905
  19 C :   -0.051199
  20 C :   -0.172150
  21 H :    0.011235
  22 C :    0.073783
  23 H :    0.020829
  24 H :   -0.000189
  25 C :   -0.051346
  26 H :    0.016695
  27 H :    0.034330
  28 C :   -0.024336
  29 H :    0.027192
  30 H :    0.015137
  31 H :    0.039409
  32 H :    0.048151
  33 H :    0.069577
Sum of atomic charges:    0.0000000

LOEWDIN ATOMIC CHARGES
----------------------
   0 S :    0.400129
   1 C :   -0.204212
   2 C :   -0.061957
   3 C :   -0.060343
   4 C :   -0.189204
   5 H :    0.018755
   6 C :   -0.036755
   7 H :    0.033094
   8 H :    0.026131
   9 C :   -0.041717
  10 H :    0.031655
  11 H :    0.025795
  12 C :   -0.056479
  13 H :    0.007012
  14 H :    0.034323
  15 H :    0.030896
  16 S :    0.420389
  17 C :   -0.192503
  18 C :   -0.078135
  19 C :   -0.045473
  20 C :   -0.199959
  21 H :    0.027505
  22 C :   -0.028575
  23 H :    0.029385
  24 H :    0.024546
  25 C :   -0.035331
  26 H :    0.019845
  27 H :    0.026326
  28 C :   -0.062986
  29 H :    0.029935
  30 H :    0.018154
  31 H :    0.027175
  32 H :    0.028948
  33 H :    0.033630

  Mayer bond orders larger than 0.100000
B(  0-S ,  1-C ) :   1.1346 B(  0-S ,  4-C ) :   1.1195 B(  1-C ,  2-C ) :   1.6355
B(  1-C , 32-H ) :   0.9675 B(  2-C ,  3-C ) :   1.1818 B(  2-C ,  6-C ) :   1.0255
B(  3-C ,  4-C ) :   1.6290 B(  3-C ,  5-H ) :   0.9962 B(  4-C , 20-C ) :   1.0589
B(  6-C ,  7-H ) :   0.9271 B(  6-C ,  8-H ) :   0.9424 B(  6-C ,  9-C ) :   1.0542
B(  9-C , 10-H ) :   0.9571 B(  9-C , 11-H ) :   0.9599 B(  9-C , 12-C ) :   1.0736
B( 12-C , 13-H ) :   0.9759 B( 12-C , 14-H ) :   0.9744 B( 12-C , 15-H ) :   0.9718
B( 16-S , 17-C ) :   1.2027 B( 16-S , 20-C ) :   1.1121 B( 17-C , 18-C ) :   1.5779
B( 17-C , 33-H ) :   0.9644 B( 18-C , 19-C ) :   1.2361 B( 18-C , 21-H ) :   0.9976
B( 19-C , 20-C ) :   1.6093 B( 19-C , 22-C ) :   1.0441 B( 22-C , 23-H ) :   0.9269
B( 22-C , 24-H ) :   0.9269 B( 22-C , 25-C ) :   1.0612 B( 25-C , 26-H ) :   0.9548
B( 25-C , 27-H ) :   0.9515 B( 25-C , 28-C ) :   1.0755 B( 28-C , 29-H ) :   0.9703
B( 28-C , 30-H ) :   0.9737 B( 28-C , 31-H ) :   0.9738

Dispersion correction           -0.013665774
FINAL SINGLE POINT ENERGY     -1339.865622684039

DIPOLE MOMENT
-------------
                                X             Y             Z
Electronic contribution:     17.08385      20.75048       4.95924
Nuclear contribution   :    -17.31268     -21.28333      -4.94492
                        -----------------------------------------
Total Dipole Moment    :     -0.22882      -0.53285       0.01432
                        -----------------------------------------
Magnitude (a.u.)       :      0.58008
Magnitude (Debye)      :      1.47445

Rotational constants in cm-1:     0.017429     0.008335     0.006938
Rotational constants in MHz :   522.513117   249.888977   207.986476

                             ****ORCA TERMINATED NORMALLY****
TOTAL RUN TIME: 0 days 0 hours 0 minutes 34 seconds 984 msec
