                         Program Version 4.2.1 -  RELEASE  -
|  1> ! wB97X-D3 SP def2-SVP
|  2> %pal
|  3> nprocs 16
|  4> end
|  5>
|  6> * xyz 0 1
|  7> S 	 -41.3103 	 51.9198 	 107.334
|  8> C 	 -39.6482 	 52.0492 	 107.608
|  9> C 	 -39.1003 	 50.9603 	 108.295
| 10> C 	 -40.006 	 49.9286 	 108.397
| 11> C 	 -41.2405 	 50.2764 	 107.898
| 12> H 	 -39.845 	 48.9246 	 108.681
| 13> C 	 -37.7152 	 50.8334 	 108.817
| 14> H 	 -37.0457 	 51.289 	 108.108
| 15> H 	 -37.5157 	 49.7428 	 108.691
| 16> C 	 -37.4137 	 51.0822 	 110.322
| 17> H 	 -38.1982 	 50.5462 	 110.829
| 18> H 	 -36.4019 	 50.7355 	 110.589
| 19> C 	 -37.5222 	 52.5208 	 110.669
| 20> H 	 -37.0519 	 53.2207 	 109.969
| 21> H 	 -38.583 	 52.8175 	 110.946
| 22> H 	 -37.0147 	 52.5882 	 111.624
| 23> S 	 -43.8824 	 50.3854 	 108.267
| 24> C 	 -44.8364 	 48.9816 	 108.317
| 25> C 	 -44.1345 	 47.8821 	 107.852
| 26> C 	 -42.7284 	 48.1367 	 107.883
| 27> C 	 -42.4681 	 49.4783 	 108.02
| 28> H 	 -44.6568 	 46.9106 	 107.758
| 29> C 	 -41.6308 	 47.0788 	 107.54
| 30> H 	 -42.0622 	 46.1125 	 107.684
| 31> H 	 -40.8952 	 47.1319 	 108.346
| 32> C 	 -41.2147 	 47.2067 	 106.072
| 33> H 	 -40.7276 	 48.1389 	 106.04
| 34> H 	 -41.9968 	 47.2429 	 105.341
| 35> C 	 -40.138 	 46.2241 	 105.686
| 36> H 	 -40.5362 	 45.209 	 105.841
| 37> H 	 -39.3291 	 46.3838 	 106.351
| 38> H 	 -39.8195 	 46.3882 	 104.598
| 39> H 	 -39.0128 	 52.9091 	 107.451
| 40> H 	 -45.9409 	 48.9594 	 108.33
| 41> *
| 42>
| 43>                          ****END OF INPUT****

CARTESIAN COORDINATES (ANGSTROEM)
---------------------------------
  S    -41.310300   51.919800  107.334000
  C    -39.648200   52.049200  107.608000
  C    -39.100300   50.960300  108.295000
  C    -40.006000   49.928600  108.397000
  C    -41.240500   50.276400  107.898000
  H    -39.845000   48.924600  108.681000
  C    -37.715200   50.833400  108.817000
  H    -37.045700   51.289000  108.108000
  H    -37.515700   49.742800  108.691000
  C    -37.413700   51.082200  110.322000
  H    -38.198200   50.546200  110.829000
  H    -36.401900   50.735500  110.589000
  C    -37.522200   52.520800  110.669000
  H    -37.051900   53.220700  109.969000
  H    -38.583000   52.817500  110.946000
  H    -37.014700   52.588200  111.624000
  S    -43.882400   50.385400  108.267000
  C    -44.836400   48.981600  108.317000
  C    -44.134500   47.882100  107.852000
  C    -42.728400   48.136700  107.883000
  C    -42.468100   49.478300  108.020000
  H    -44.656800   46.910600  107.758000
  C    -41.630800   47.078800  107.540000
  H    -42.062200   46.112500  107.684000
  H    -40.895200   47.131900  108.346000
  C    -41.214700   47.206700  106.072000
  H    -40.727600   48.138900  106.040000
  H    -41.996800   47.242900  105.341000
  C    -40.138000   46.224100  105.686000
  H    -40.536200   45.209000  105.841000
  H    -39.329100   46.383800  106.351000
  H    -39.819500   46.388200  104.598000
  H    -39.012800   52.909100  107.451000
  H    -45.940900   48.959400  108.330000

 Total Charge           Charge          ....    0
 Multiplicity           Mult            ....    1
 Number of Electrons    NEL             ....  134
 Basis Dimension        Dim             ....  322

ORBITAL ENERGIES
----------------

  NO   OCC          E(Eh)            E(eV)
   0   2.0000     -88.972792     -2421.0728
   1   2.0000     -88.963363     -2420.8162
   2   2.0000     -10.325203      -280.9631
   3   2.0000     -10.318312      -280.7755
   4   2.0000     -10.310351      -280.5589
   5   2.0000     -10.306338      -280.4497
   6   2.0000     -10.299822      -280.2724
   7   2.0000     -10.294648      -280.1316
   8   2.0000     -10.293069      -280.0886
   9   2.0000     -10.292851      -280.0827
  10   2.0000     -10.287008      -279.9237
  11   2.0000     -10.286490      -279.9096
  12   2.0000     -10.283536      -279.8293
  13   2.0000     -10.276215      -279.6300
  14   2.0000     -10.274583      -279.5856
  15   2.0000     -10.273698      -279.5615
  16   2.0000      -8.088354      -220.0953
  17   2.0000      -8.080196      -219.8733
  18   2.0000      -6.046604      -164.5364
  19   2.0000      -6.042896      -164.4356
  20   2.0000      -6.039205      -164.3351
  21   2.0000      -6.038514      -164.3163
  22   2.0000      -6.034481      -164.2066
  23   2.0000      -6.030962      -164.1108
  24   2.0000      -1.020504       -27.7693
  25   2.0000      -0.996669       -27.1207
  26   2.0000      -0.916570       -24.9411
  27   2.0000      -0.912637       -24.8341
  28   2.0000      -0.870208       -23.6796
  29   2.0000      -0.864066       -23.5124
  30   2.0000      -0.851218       -23.1628
  31   2.0000      -0.814661       -22.1680
  32   2.0000      -0.781856       -21.2754
  33   2.0000      -0.770737       -20.9728
  34   2.0000      -0.703749       -19.1500
  35   2.0000      -0.696641       -18.9566
  36   2.0000      -0.691357       -18.8128
  37   2.0000      -0.665835       -18.1183
  38   2.0000      -0.638952       -17.3868
  39   2.0000      -0.624209       -16.9856
  40   2.0000      -0.591517       -16.0960
  41   2.0000      -0.571145       -15.5416
  42   2.0000      -0.567766       -15.4497
  43   2.0000      -0.551513       -15.0074
  44   2.0000      -0.541989       -14.7483
  45   2.0000      -0.532668       -14.4946
  46   2.0000      -0.520791       -14.1715
  47   2.0000      -0.510588       -13.8938
  48   2.0000      -0.499590       -13.5945
  49   2.0000      -0.494569       -13.4579
  50   2.0000      -0.492513       -13.4020
  51   2.0000      -0.487430       -13.2636
  52   2.0000      -0.473966       -12.8973
  53   2.0000      -0.466688       -12.6992
  54   2.0000      -0.459267       -12.4973
  55   2.0000      -0.454411       -12.3652
  56   2.0000      -0.445996       -12.1362
  57   2.0000      -0.438743       -11.9388
  58   2.0000      -0.432245       -11.7620
  59   2.0000      -0.421653       -11.4738
  60   2.0000      -0.419658       -11.4195
  61   2.0000      -0.414427       -11.2771
  62   2.0000      -0.410867       -11.1803
  63   2.0000      -0.356585        -9.7032
  64   2.0000      -0.337017        -9.1707
  65   2.0000      -0.328792        -8.9469
  66   2.0000      -0.279816        -7.6142
  67   0.0000       0.030070         0.8182
  68   0.0000       0.072231         1.9655
  69   0.0000       0.111018         3.0210
  70   0.0000       0.117715         3.2032
  71   0.0000       0.139588         3.7984

MULLIKEN ATOMIC CHARGES
-----------------------
   0 S :    0.134646
   1 C :   -0.097120
   2 C :   -0.085842
   3 C :    0.021994
   4 C :   -0.127181
   5 H :   -0.020313
   6 C :    0.037505
   7 H :    0.018977
   8 H :    0.015983
   9 C :   -0.030282
  10 H :    0.025027
  11 H :    0.037417
  12 C :   -0.060881
  13 H :    0.034635
  14 H :    0.045039
  15 H :    0.022412
  16 S :    0.105102
  17 C :   -0.096066
  18 C :   -0.056275
  19 C :   -0.087201
  20 C :   -0.133232
  21 H :    0.034114
  22 C :    0.066568
  23 H :   -0.003914
  24 H :    0.031171
  25 C :   -0.034864
  26 H :    0.017713
  27 H :    0.028549
  28 C :   -0.032835
  29 H :    0.025702
  30 H :    0.017241
  31 H :    0.048823
  32 H :    0.033704
  33 H :    0.063685
Sum of atomic charges:   -0.0000000

LOEWDIN ATOMIC CHARGES
----------------------
   0 S :    0.441026
   1 C :   -0.221256
   2 C :   -0.065786
   3 C :   -0.061717
   4 C :   -0.190555
   5 H :    0.023526
   6 C :   -0.037821
   7 H :    0.024795
   8 H :    0.033446
   9 C :   -0.035543
  10 H :    0.027503
  11 H :    0.028428
  12 C :   -0.074713
  13 H :    0.023426
  14 H :    0.035130
  15 H :    0.025632
  16 S :    0.441693
  17 C :   -0.214559
  18 C :   -0.072732
  19 C :   -0.063070
  20 C :   -0.209909
  21 H :    0.036861
  22 C :   -0.024143
  23 H :    0.020825
  24 H :    0.029020
  25 C :   -0.037435
  26 H :    0.020575
  27 H :    0.024815
  28 C :   -0.061798
  29 H :    0.021112
  30 H :    0.017336
  31 H :    0.036335
  32 H :    0.025714
  33 H :    0.033839

  Mayer bond orders larger than 0.100000
B(  0-S ,  1-C ) :   1.1537 B(  0-S ,  4-C ) :   1.1687 B(  1-C ,  2-C ) :   1.5749
B(  1-C , 32-H ) :   0.9639 B(  2-C ,  3-C ) :   1.2834 B(  2-C ,  6-C ) :   1.0212
B(  3-C ,  4-C ) :   1.5315 B(  3-C ,  5-H ) :   1.0011 B(  4-C , 20-C ) :   1.0477
B(  6-C ,  7-H ) :   0.9408 B(  6-C ,  8-H ) :   0.9374 B(  6-C ,  9-C ) :   1.0698
B(  9-C , 10-H ) :   0.9480 B(  9-C , 11-H ) :   0.9583 B(  9-C , 12-C ) :   1.0881
B( 12-C , 13-H ) :   0.9758 B( 12-C , 14-H ) :   0.9722 B( 12-C , 15-H ) :   0.9712
B( 16-S , 17-C ) :   1.1690 B( 16-S , 20-C ) :   1.1604 B( 17-C , 18-C ) :   1.6065
B( 17-C , 33-H ) :   0.9611 B( 18-C , 19-C ) :   1.2684 B( 18-C , 21-H ) :   0.9784
B( 19-C , 20-C ) :   1.5781 B( 19-C , 22-C ) :   1.0351 B( 22-C , 23-H ) :   0.9247
B( 22-C , 24-H ) :   0.9384 B( 22-C , 25-C ) :   1.0551 B( 25-C , 26-H ) :   0.9519
B( 25-C , 27-H ) :   0.9551 B( 25-C , 28-C ) :   1.0861 B( 28-C , 29-H ) :   0.9758
B( 28-C , 30-H ) :   0.9735 B( 28-C , 31-H ) :   0.9721

Dispersion correction           -0.014647380
FINAL SINGLE POINT ENERGY     -1339.863867477075

DIPOLE MOMENT
-------------
                                X             Y             Z
Electronic contribution:    -21.81794      11.59569      -2.45630
Nuclear contribution   :     22.17711     -11.93008       2.52590
                        -----------------------------------------
Total Dipole Moment    :      0.35917      -0.33439       0.06959
                        -----------------------------------------
Magnitude (a.u.)       :      0.49564
Magnitude (Debye)      :      1.25983

Rotational constants in cm-1:     0.018944     0.009070     0.007195
Rotational constants in MHz :   567.929871   271.906869   215.708486

                             ****ORCA TERMINATED NORMALLY****
TOTAL RUN TIME: 0 days 0 hours 0 minutes 29 seconds 698 msec
