                         Program Version 4.2.1 -  RELEASE  -
|  1> ! wB97X-D3 SP def2-SVP
|  2> %pal
|  3> nprocs 16
|  4> end
|  5>
|  6> * xyz 0 1
|  7> S 	 -69.7039 	 52.6777 	 123.193
|  8> C 	 -70.0331 	 53.8296 	 124.413
|  9> C 	 -70.3604 	 55.0495 	 123.908
| 10> C 	 -70.4235 	 55.0854 	 122.465
| 11> C 	 -70.0876 	 53.8082 	 121.876
| 12> H 	 -70.5781 	 55.8419 	 121.727
| 13> C 	 -70.9293 	 56.1506 	 124.706
| 14> H 	 -70.7041 	 57.0413 	 124.106
| 15> H 	 -70.3495 	 56.2975 	 125.602
| 16> C 	 -72.4184 	 56.0284 	 125.038
| 17> H 	 -72.94 	 55.7876 	 124.063
| 18> H 	 -72.6215 	 55.1256 	 125.689
| 19> C 	 -73.0812 	 57.304 	 125.627
| 20> H 	 -72.6753 	 57.4274 	 126.647
| 21> H 	 -72.7731 	 58.2798 	 125.209
| 22> H 	 -74.2139 	 57.3139 	 125.665
| 23> S 	 -68.5172 	 52.6243 	 120.06
| 24> C 	 -68.844 	 52.8583 	 118.332
| 25> C 	 -70.0874 	 53.4729 	 118.122
| 26> C 	 -70.7249 	 53.8419 	 119.333
| 27> C 	 -69.9337 	 53.5731 	 120.471
| 28> H 	 -70.4338 	 53.5801 	 117.122
| 29> C 	 -71.9954 	 54.6276 	 119.263
| 30> H 	 -72.1178 	 55.0723 	 118.285
| 31> H 	 -71.8799 	 55.5297 	 119.901
| 32> C 	 -73.2652 	 53.8961 	 119.734
| 33> H 	 -73.0481 	 53.5061 	 120.686
| 34> H 	 -73.4263 	 53.0412 	 119.034
| 35> C 	 -74.5707 	 54.6744 	 119.741
| 36> H 	 -74.6813 	 55.4009 	 120.555
| 37> H 	 -75.3838 	 53.9547 	 119.741
| 38> H 	 -74.5868 	 55.413 	 118.858
| 39> H 	 -69.9854 	 53.6628 	 125.454
| 40> H 	 -68.3895 	 52.4942 	 117.412
| 41> *
| 42>
| 43>                          ****END OF INPUT****

CARTESIAN COORDINATES (ANGSTROEM)
---------------------------------
  S    -69.703900   52.677700  123.193000
  C    -70.033100   53.829600  124.413000
  C    -70.360400   55.049500  123.908000
  C    -70.423500   55.085400  122.465000
  C    -70.087600   53.808200  121.876000
  H    -70.578100   55.841900  121.727000
  C    -70.929300   56.150600  124.706000
  H    -70.704100   57.041300  124.106000
  H    -70.349500   56.297500  125.602000
  C    -72.418400   56.028400  125.038000
  H    -72.940000   55.787600  124.063000
  H    -72.621500   55.125600  125.689000
  C    -73.081200   57.304000  125.627000
  H    -72.675300   57.427400  126.647000
  H    -72.773100   58.279800  125.209000
  H    -74.213900   57.313900  125.665000
  S    -68.517200   52.624300  120.060000
  C    -68.844000   52.858300  118.332000
  C    -70.087400   53.472900  118.122000
  C    -70.724900   53.841900  119.333000
  C    -69.933700   53.573100  120.471000
  H    -70.433800   53.580100  117.122000
  C    -71.995400   54.627600  119.263000
  H    -72.117800   55.072300  118.285000
  H    -71.879900   55.529700  119.901000
  C    -73.265200   53.896100  119.734000
  H    -73.048100   53.506100  120.686000
  H    -73.426300   53.041200  119.034000
  C    -74.570700   54.674400  119.741000
  H    -74.681300   55.400900  120.555000
  H    -75.383800   53.954700  119.741000
  H    -74.586800   55.413000  118.858000
  H    -69.985400   53.662800  125.454000
  H    -68.389500   52.494200  117.412000

 Total Charge           Charge          ....    0
 Multiplicity           Mult            ....    1
 Number of Electrons    NEL             ....  134
 Basis Dimension        Dim             ....  322

ORBITAL ENERGIES
----------------

  NO   OCC          E(Eh)            E(eV)
   0   2.0000     -88.971618     -2421.0408
   1   2.0000     -88.969986     -2420.9964
   2   2.0000     -10.335445      -281.2418
   3   2.0000     -10.330934      -281.1190
   4   2.0000     -10.319605      -280.8107
   5   2.0000     -10.308846      -280.5180
   6   2.0000     -10.306646      -280.4581
   7   2.0000     -10.299514      -280.2640
   8   2.0000     -10.298796      -280.2445
   9   2.0000     -10.298281      -280.2305
  10   2.0000     -10.293079      -280.0889
  11   2.0000     -10.290717      -280.0247
  12   2.0000     -10.288126      -279.9541
  13   2.0000     -10.287949      -279.9493
  14   2.0000     -10.283296      -279.8227
  15   2.0000     -10.281489      -279.7735
  16   2.0000      -8.085508      -220.0178
  17   2.0000      -8.084672      -219.9951
  18   2.0000      -6.044152      -164.4697
  19   2.0000      -6.043287      -164.4462
  20   2.0000      -6.040104      -164.3596
  21   2.0000      -6.039000      -164.3295
  22   2.0000      -6.036186      -164.2530
  23   2.0000      -6.035503      -164.2344
  24   2.0000      -1.006041       -27.3758
  25   2.0000      -0.983866       -26.7724
  26   2.0000      -0.913206       -24.8496
  27   2.0000      -0.908232       -24.7142
  28   2.0000      -0.873205       -23.7611
  29   2.0000      -0.853424       -23.2229
  30   2.0000      -0.846433       -23.0326
  31   2.0000      -0.814187       -22.1552
  32   2.0000      -0.780023       -21.2255
  33   2.0000      -0.769939       -20.9511
  34   2.0000      -0.712177       -19.3793
  35   2.0000      -0.701389       -19.0858
  36   2.0000      -0.691959       -18.8292
  37   2.0000      -0.667675       -18.1684
  38   2.0000      -0.646158       -17.5828
  39   2.0000      -0.614824       -16.7302
  40   2.0000      -0.591702       -16.1010
  41   2.0000      -0.570818       -15.5328
  42   2.0000      -0.563134       -15.3237
  43   2.0000      -0.552570       -15.0362
  44   2.0000      -0.529784       -14.4162
  45   2.0000      -0.524214       -14.2646
  46   2.0000      -0.520233       -14.1563
  47   2.0000      -0.510352       -13.8874
  48   2.0000      -0.507885       -13.8203
  49   2.0000      -0.501939       -13.6584
  50   2.0000      -0.494983       -13.4692
  51   2.0000      -0.486847       -13.2478
  52   2.0000      -0.467233       -12.7141
  53   2.0000      -0.462715       -12.5911
  54   2.0000      -0.458104       -12.4656
  55   2.0000      -0.448550       -12.2057
  56   2.0000      -0.441135       -12.0039
  57   2.0000      -0.440140       -11.9768
  58   2.0000      -0.430274       -11.7083
  59   2.0000      -0.428974       -11.6730
  60   2.0000      -0.418991       -11.4013
  61   2.0000      -0.410999       -11.1839
  62   2.0000      -0.409925       -11.1546
  63   2.0000      -0.352215        -9.5843
  64   2.0000      -0.334679        -9.1071
  65   2.0000      -0.329441        -8.9645
  66   2.0000      -0.283896        -7.7252
  67   0.0000       0.019003         0.5171
  68   0.0000       0.067819         1.8454
  69   0.0000       0.105547         2.8721
  70   0.0000       0.116311         3.1650
  71   0.0000       0.130731         3.5574

MULLIKEN ATOMIC CHARGES
-----------------------
   0 S :    0.120880
   1 C :   -0.094975
   2 C :   -0.068748
   3 C :    0.016237
   4 C :   -0.156900
   5 H :    0.010194
   6 C :    0.073812
   7 H :    0.019350
   8 H :    0.014669
   9 C :   -0.077411
  10 H :    0.033114
  11 H :    0.039675
  12 C :   -0.066996
  13 H :    0.024958
  14 H :    0.028325
  15 H :    0.053801
  16 S :    0.116024
  17 C :   -0.079092
  18 C :   -0.058132
  19 C :   -0.000300
  20 C :   -0.170845
  21 H :    0.012600
  22 C :    0.047014
  23 H :    0.010748
  24 H :    0.017216
  25 C :   -0.062746
  26 H :    0.029060
  27 H :    0.029016
  28 C :   -0.047140
  29 H :    0.028807
  30 H :    0.044911
  31 H :    0.026612
  32 H :    0.032726
  33 H :    0.053535
Sum of atomic charges:   -0.0000000

LOEWDIN ATOMIC CHARGES
----------------------
   0 S :    0.413566
   1 C :   -0.199289
   2 C :   -0.067765
   3 C :   -0.056177
   4 C :   -0.194135
   5 H :    0.026953
   6 C :   -0.037498
   7 H :    0.032764
   8 H :    0.025099
   9 C :   -0.044819
  10 H :    0.027900
  11 H :    0.030960
  12 C :   -0.080595
  13 H :    0.025657
  14 H :    0.025875
  15 H :    0.035360
  16 S :    0.409065
  17 C :   -0.189004
  18 C :   -0.064207
  19 C :   -0.053829
  20 C :   -0.196165
  21 H :    0.028512
  22 C :   -0.035673
  23 H :    0.025450
  24 H :    0.029801
  25 C :   -0.038667
  26 H :    0.019846
  27 H :    0.028032
  28 C :   -0.069752
  29 H :    0.022806
  30 H :    0.029174
  31 H :    0.031151
  32 H :    0.024877
  33 H :    0.034727

  Mayer bond orders larger than 0.100000
B(  0-S ,  1-C ) :   1.1404 B(  0-S ,  4-C ) :   1.1457 B(  1-C ,  2-C ) :   1.5985
B(  1-C , 32-H ) :   0.9735 B(  2-C ,  3-C ) :   1.2304 B(  2-C ,  6-C ) :   1.0513
B(  3-C ,  4-C ) :   1.5367 B(  3-C ,  5-H ) :   0.9966 B(  4-C , 20-C ) :   1.1049
B(  6-C ,  7-H ) :   0.9348 B(  6-C ,  8-H ) :   0.9296 B(  6-C ,  9-C ) :   1.0553
B(  9-C , 10-H ) :   0.9570 B(  9-C , 11-H ) :   0.9541 B(  9-C , 12-C ) :   1.0665
B( 12-C , 13-H ) :   0.9728 B( 12-C , 14-H ) :   0.9759 B( 12-C , 15-H ) :   0.9764
B( 16-S , 17-C ) :   1.1462 B( 16-S , 20-C ) :   1.1356 B( 17-C , 18-C ) :   1.6161
B( 17-C , 20-C ) :   0.1066 B( 17-C , 33-H ) :   0.9618 B( 18-C , 19-C ) :   1.2563
B( 18-C , 21-H ) :   0.9913 B( 19-C , 20-C ) :   1.5448 B( 19-C , 22-C ) :   1.0462
B( 22-C , 23-H ) :   0.9308 B( 22-C , 24-H ) :   0.9361 B( 22-C , 25-C ) :   1.0572
B( 25-C , 26-H ) :   0.9558 B( 25-C , 27-H ) :   0.9564 B( 25-C , 28-C ) :   1.0814
B( 28-C , 29-H ) :   0.9728 B( 28-C , 30-H ) :   0.9756 B( 28-C , 31-H ) :   0.9718

Dispersion correction           -0.014068722
FINAL SINGLE POINT ENERGY     -1339.869204722112

DIPOLE MOMENT
-------------
                                X             Y             Z
Electronic contribution:     25.43641     -18.66693      -5.49364
Nuclear contribution   :    -25.86331      19.09195       5.43129
                        -----------------------------------------
Total Dipole Moment    :     -0.42690       0.42502      -0.06236
                        -----------------------------------------
Magnitude (a.u.)       :      0.60562
Magnitude (Debye)      :      1.53936

Rotational constants in cm-1:     0.017924     0.009016     0.006581
Rotational constants in MHz :   537.354754   270.307660   197.280040

                             ****ORCA TERMINATED NORMALLY****
TOTAL RUN TIME: 0 days 0 hours 0 minutes 34 seconds 137 msec
