                         Program Version 4.2.1 -  RELEASE  -
|  1> ! wB97X-D3 SP def2-SVP
|  2> %pal
|  3> nprocs 16
|  4> end
|  5>
|  6> * xyz 0 1
|  7> S 	 -79.6761 	 45.4624 	 141.477
|  8> C 	 -80.4655 	 43.941 	 142.153
|  9> C 	 -80.771 	 42.9802 	 141.145
| 10> C 	 -80.2567 	 43.4766 	 139.893
| 11> C 	 -79.7217 	 44.7662 	 139.871
| 12> H 	 -80.2914 	 43.0181 	 138.882
| 13> C 	 -81.4481 	 41.6565 	 141.409
| 14> H 	 -82.1525 	 41.5464 	 140.62
| 15> H 	 -82.034 	 41.7206 	 142.317
| 16> C 	 -80.4391 	 40.4998 	 141.555
| 17> H 	 -79.9832 	 40.6865 	 142.509
| 18> H 	 -80.917 	 39.4794 	 141.702
| 19> C 	 -79.3159 	 40.2928 	 140.589
| 20> H 	 -78.7063 	 41.1408 	 140.608
| 21> H 	 -78.6275 	 39.5414 	 141.036
| 22> H 	 -79.6361 	 40.1489 	 139.555
| 23> S 	 -79.7963 	 47.1904 	 138.531
| 24> C 	 -78.7212 	 47.483 	 137.101
| 25> C 	 -78.0916 	 46.3285 	 136.726
| 26> C 	 -78.4259 	 45.1841 	 137.593
| 27> C 	 -79.2284 	 45.5538 	 138.701
| 28> H 	 -77.5287 	 46.2878 	 135.79
| 29> C 	 -77.9563 	 43.7353 	 137.313
| 30> H 	 -77.9446 	 43.3467 	 138.346
| 31> H 	 -76.8964 	 43.769 	 136.903
| 32> C 	 -78.8711 	 42.9526 	 136.416
| 33> H 	 -79.8935 	 42.9624 	 136.753
| 34> H 	 -78.528 	 41.8929 	 136.434
| 35> C 	 -78.8592 	 43.3004 	 134.917
| 36> H 	 -79.3347 	 42.5258 	 134.298
| 37> H 	 -77.8971 	 43.4865 	 134.534
| 38> H 	 -79.4803 	 44.1977 	 134.684
| 39> H 	 -80.8282 	 43.9661 	 143.178
| 40> H 	 -78.6279 	 48.4352 	 136.565
| 41> *
| 42>
| 43>                          ****END OF INPUT****

CARTESIAN COORDINATES (ANGSTROEM)
---------------------------------
  S    -79.676100   45.462400  141.477000
  C    -80.465500   43.941000  142.153000
  C    -80.771000   42.980200  141.145000
  C    -80.256700   43.476600  139.893000
  C    -79.721700   44.766200  139.871000
  H    -80.291400   43.018100  138.882000
  C    -81.448100   41.656500  141.409000
  H    -82.152500   41.546400  140.620000
  H    -82.034000   41.720600  142.317000
  C    -80.439100   40.499800  141.555000
  H    -79.983200   40.686500  142.509000
  H    -80.917000   39.479400  141.702000
  C    -79.315900   40.292800  140.589000
  H    -78.706300   41.140800  140.608000
  H    -78.627500   39.541400  141.036000
  H    -79.636100   40.148900  139.555000
  S    -79.796300   47.190400  138.531000
  C    -78.721200   47.483000  137.101000
  C    -78.091600   46.328500  136.726000
  C    -78.425900   45.184100  137.593000
  C    -79.228400   45.553800  138.701000
  H    -77.528700   46.287800  135.790000
  C    -77.956300   43.735300  137.313000
  H    -77.944600   43.346700  138.346000
  H    -76.896400   43.769000  136.903000
  C    -78.871100   42.952600  136.416000
  H    -79.893500   42.962400  136.753000
  H    -78.528000   41.892900  136.434000
  C    -78.859200   43.300400  134.917000
  H    -79.334700   42.525800  134.298000
  H    -77.897100   43.486500  134.534000
  H    -79.480300   44.197700  134.684000
  H    -80.828200   43.966100  143.178000
  H    -78.627900   48.435200  136.565000

 Total Charge           Charge          ....    0
 Multiplicity           Mult            ....    1
 Number of Electrons    NEL             ....  134
 Basis Dimension        Dim             ....  322

ORBITAL ENERGIES
----------------

  NO   OCC          E(Eh)            E(eV)
   0   2.0000     -88.968312     -2420.9508
   1   2.0000     -88.965703     -2420.8799
   2   2.0000     -10.336655      -281.2747
   3   2.0000     -10.333873      -281.1990
   4   2.0000     -10.327015      -281.0124
   5   2.0000     -10.323563      -280.9184
   6   2.0000     -10.316268      -280.7199
   7   2.0000     -10.311208      -280.5822
   8   2.0000     -10.302615      -280.3484
   9   2.0000     -10.300348      -280.2867
  10   2.0000     -10.298449      -280.2350
  11   2.0000     -10.296558      -280.1836
  12   2.0000     -10.289483      -279.9911
  13   2.0000     -10.288081      -279.9529
  14   2.0000     -10.277785      -279.6728
  15   2.0000     -10.272466      -279.5280
  16   2.0000      -8.081654      -219.9130
  17   2.0000      -8.079652      -219.8585
  18   2.0000      -6.040211      -164.3625
  19   2.0000      -6.038330      -164.3113
  20   2.0000      -6.036409      -164.2590
  21   2.0000      -6.034324      -164.2023
  22   2.0000      -6.032375      -164.1493
  23   2.0000      -6.030207      -164.0903
  24   2.0000      -0.996105       -27.1054
  25   2.0000      -0.972356       -26.4592
  26   2.0000      -0.916187       -24.9307
  27   2.0000      -0.908706       -24.7272
  28   2.0000      -0.866485       -23.5783
  29   2.0000      -0.844625       -22.9834
  30   2.0000      -0.841000       -22.8848
  31   2.0000      -0.816629       -22.2216
  32   2.0000      -0.789651       -21.4875
  33   2.0000      -0.772233       -21.0135
  34   2.0000      -0.702948       -19.1282
  35   2.0000      -0.700893       -19.0723
  36   2.0000      -0.687531       -18.7087
  37   2.0000      -0.658525       -17.9194
  38   2.0000      -0.642156       -17.4739
  39   2.0000      -0.610231       -16.6052
  40   2.0000      -0.588096       -16.0029
  41   2.0000      -0.573296       -15.6002
  42   2.0000      -0.557840       -15.1796
  43   2.0000      -0.549753       -14.9596
  44   2.0000      -0.546143       -14.8613
  45   2.0000      -0.542476       -14.7615
  46   2.0000      -0.520501       -14.1636
  47   2.0000      -0.516075       -14.0431
  48   2.0000      -0.497331       -13.5331
  49   2.0000      -0.494118       -13.4456
  50   2.0000      -0.488284       -13.2869
  51   2.0000      -0.478453       -13.0194
  52   2.0000      -0.470606       -12.8058
  53   2.0000      -0.460943       -12.5429
  54   2.0000      -0.456377       -12.4186
  55   2.0000      -0.447720       -12.1831
  56   2.0000      -0.442345       -12.0368
  57   2.0000      -0.439836       -11.9686
  58   2.0000      -0.431858       -11.7515
  59   2.0000      -0.430149       -11.7049
  60   2.0000      -0.425679       -11.5833
  61   2.0000      -0.411288       -11.1917
  62   2.0000      -0.404057       -10.9950
  63   2.0000      -0.347490        -9.4557
  64   2.0000      -0.334642        -9.1061
  65   2.0000      -0.325683        -8.8623
  66   2.0000      -0.292145        -7.9497
  67   0.0000       0.023532         0.6403
  68   0.0000       0.068203         1.8559
  69   0.0000       0.102120         2.7788
  70   0.0000       0.115288         3.1371
  71   0.0000       0.121836         3.3153

MULLIKEN ATOMIC CHARGES
-----------------------
   0 S :    0.097077
   1 C :   -0.139869
   2 C :   -0.106931
   3 C :    0.013295
   4 C :   -0.149527
   5 H :    0.002753
   6 C :    0.137257
   7 H :    0.024029
   8 H :    0.022393
   9 C :   -0.099349
  10 H :    0.013393
  11 H :    0.035395
  12 C :   -0.018916
  13 H :    0.019969
  14 H :    0.036342
  15 H :    0.036341
  16 S :    0.094678
  17 C :   -0.107316
  18 C :   -0.016281
  19 C :   -0.075589
  20 C :   -0.143698
  21 H :    0.029819
  22 C :    0.044600
  23 H :    0.040723
  24 H :    0.038252
  25 C :   -0.069695
  26 H :    0.039860
  27 H :    0.036718
  28 C :   -0.050614
  29 H :    0.034203
  30 H :    0.016036
  31 H :    0.036541
  32 H :    0.060768
  33 H :    0.067345
Sum of atomic charges:   -0.0000000

LOEWDIN ATOMIC CHARGES
----------------------
   0 S :    0.372823
   1 C :   -0.173117
   2 C :   -0.050644
   3 C :   -0.073795
   4 C :   -0.193045
   5 H :    0.033292
   6 C :   -0.024551
   7 H :    0.027173
   8 H :    0.035883
   9 C :   -0.045255
  10 H :    0.023036
  11 H :    0.028963
  12 C :   -0.065844
  13 H :    0.016989
  14 H :    0.038502
  15 H :    0.024284
  16 S :    0.381966
  17 C :   -0.170510
  18 C :   -0.072380
  19 C :   -0.055199
  20 C :   -0.205474
  21 H :    0.036349
  22 C :   -0.038865
  23 H :    0.036630
  24 H :    0.037241
  25 C :   -0.044722
  26 H :    0.021447
  27 H :    0.031176
  28 C :   -0.066648
  29 H :    0.030065
  30 H :    0.014083
  31 H :    0.029141
  32 H :    0.025323
  33 H :    0.035688

  Mayer bond orders larger than 0.100000
B(  0-S ,  1-C ) :   1.1311 B(  0-S ,  4-C ) :   1.1480 B(  1-C ,  2-C ) :   1.5996
B(  1-C ,  4-C ) :   0.1038 B(  1-C , 32-H ) :   0.9660 B(  2-C ,  3-C ) :   1.2187
B(  2-C ,  6-C ) :   1.0207 B(  3-C ,  4-C ) :   1.5921 B(  3-C ,  5-H ) :   0.9829
B(  4-C , 20-C ) :   1.0216 B(  6-C ,  7-H ) :   0.9350 B(  6-C ,  8-H ) :   0.9378
B(  6-C ,  9-C ) :   1.0570 B(  9-C , 10-H ) :   0.9497 B(  9-C , 11-H ) :   0.9569
B(  9-C , 12-C ) :   1.1042 B( 12-C , 13-H ) :   0.9625 B( 12-C , 14-H ) :   0.9643
B( 12-C , 15-H ) :   0.9738 B( 16-S , 17-C ) :   1.1259 B( 16-S , 20-C ) :   1.1412
B( 17-C , 18-C ) :   1.6420 B( 17-C , 33-H ) :   0.9655 B( 18-C , 19-C ) :   1.2179
B( 18-C , 21-H ) :   0.9841 B( 19-C , 20-C ) :   1.6020 B( 19-C , 22-C ) :   1.0302
B( 22-C , 23-H ) :   0.9290 B( 22-C , 24-H ) :   0.9386 B( 22-C , 25-C ) :   1.0798
B( 25-C , 26-H ) :   0.9444 B( 25-C , 27-H ) :   0.9537 B( 25-C , 28-C ) :   1.0812
B( 28-C , 29-H ) :   0.9725 B( 28-C , 30-H ) :   0.9751 B( 28-C , 31-H ) :   0.9729

Dispersion correction           -0.015296585
FINAL SINGLE POINT ENERGY     -1339.873826461904

DIPOLE MOMENT
-------------
                                X             Y             Z
Electronic contribution:     -2.18376      27.21297       9.90411
Nuclear contribution   :      2.15908     -27.81042     -10.22767
                        -----------------------------------------
Total Dipole Moment    :     -0.02468      -0.59745      -0.32356
                        -----------------------------------------
Magnitude (a.u.)       :      0.67989
Magnitude (Debye)      :      1.72814

Rotational constants in cm-1:     0.018447     0.009765     0.006847
Rotational constants in MHz :   553.014806   292.735026   205.276407

                             ****ORCA TERMINATED NORMALLY****
TOTAL RUN TIME: 0 days 0 hours 0 minutes 36 seconds 871 msec
