                         Program Version 4.2.1 -  RELEASE  -
|  1> ! wB97X-D3 SP def2-SVP
|  2> %pal
|  3> nprocs 16
|  4> end
|  5>
|  6> * xyz 0 1
|  7> S 	 -2.86607 	 -7.0135 	 83.9539
|  8> C 	 -2.74247 	 -8.72106 	 83.5323
|  9> C 	 -3.99175 	 -9.34833 	 83.6113
| 10> C 	 -5.07822 	 -8.44496 	 83.9389
| 11> C 	 -4.65601 	 -7.14186 	 84.0893
| 12> H 	 -6.10328 	 -8.70484 	 84.0823
| 13> C 	 -4.20559 	 -10.8737 	 83.5928
| 14> H 	 -5.30759 	 -11.0379 	 83.8628
| 15> H 	 -3.61533 	 -11.2018 	 84.3872
| 16> C 	 -3.77467 	 -11.6129 	 82.3061
| 17> H 	 -4.19606 	 -10.9519 	 81.5107
| 18> H 	 -2.67996 	 -11.5289 	 82.2606
| 19> C 	 -4.22729 	 -13.0511 	 82.2282
| 20> H 	 -5.20044 	 -13.0557 	 82.4811
| 21> H 	 -4.15671 	 -13.4564 	 81.1578
| 22> H 	 -3.70526 	 -13.7501 	 82.8517
| 23> S 	 -6.44989 	 -4.99736 	 83.71
| 24> C 	 -6.78223 	 -3.87548 	 84.9558
| 25> C 	 -6.1861 	 -4.31048 	 86.1206
| 26> C 	 -5.40161 	 -5.52246 	 86.0058
| 27> C 	 -5.40388 	 -6.03585 	 84.6913
| 28> H 	 -6.46245 	 -3.81351 	 87.0181
| 29> C 	 -4.63766 	 -6.10344 	 87.1802
| 30> H 	 -4.48915 	 -5.37622 	 88.0211
| 31> H 	 -3.68573 	 -6.39833 	 86.68
| 32> C 	 -5.20427 	 -7.35733 	 87.7703
| 33> H 	 -5.17887 	 -8.29538 	 87.1011
| 34> H 	 -6.29815 	 -7.23147 	 87.8311
| 35> C 	 -4.58607 	 -7.60998 	 89.1196
| 36> H 	 -3.50761 	 -7.5866 	 89.1046
| 37> H 	 -4.73421 	 -8.60956 	 89.3904
| 38> H 	 -5.00065 	 -6.96229 	 89.9179
| 39> H 	 -1.73403 	 -9.05998 	 83.3161
| 40> H 	 -7.29539 	 -2.89469 	 85.0218
| 41> *
| 42>
| 43>                          ****END OF INPUT****

CARTESIAN COORDINATES (ANGSTROEM)
---------------------------------
  S     -2.866070   -7.013500   83.953900
  C     -2.742470   -8.721060   83.532300
  C     -3.991750   -9.348330   83.611300
  C     -5.078220   -8.444960   83.938900
  C     -4.656010   -7.141860   84.089300
  H     -6.103280   -8.704840   84.082300
  C     -4.205590  -10.873700   83.592800
  H     -5.307590  -11.037900   83.862800
  H     -3.615330  -11.201800   84.387200
  C     -3.774670  -11.612900   82.306100
  H     -4.196060  -10.951900   81.510700
  H     -2.679960  -11.528900   82.260600
  C     -4.227290  -13.051100   82.228200
  H     -5.200440  -13.055700   82.481100
  H     -4.156710  -13.456400   81.157800
  H     -3.705260  -13.750100   82.851700
  S     -6.449890   -4.997360   83.710000
  C     -6.782230   -3.875480   84.955800
  C     -6.186100   -4.310480   86.120600
  C     -5.401610   -5.522460   86.005800
  C     -5.403880   -6.035850   84.691300
  H     -6.462450   -3.813510   87.018100
  C     -4.637660   -6.103440   87.180200
  H     -4.489150   -5.376220   88.021100
  H     -3.685730   -6.398330   86.680000
  C     -5.204270   -7.357330   87.770300
  H     -5.178870   -8.295380   87.101100
  H     -6.298150   -7.231470   87.831100
  C     -4.586070   -7.609980   89.119600
  H     -3.507610   -7.586600   89.104600
  H     -4.734210   -8.609560   89.390400
  H     -5.000650   -6.962290   89.917900
  H     -1.734030   -9.059980   83.316100
  H     -7.295390   -2.894690   85.021800

 Total Charge           Charge          ....    0
 Multiplicity           Mult            ....    1
 Number of Electrons    NEL             ....  134
 Basis Dimension        Dim             ....  322

ORBITAL ENERGIES
----------------

  NO   OCC          E(Eh)            E(eV)
   0   2.0000     -88.967297     -2420.9232
   1   2.0000     -88.963660     -2420.8243
   2   2.0000     -10.334634      -281.2197
   3   2.0000     -10.327563      -281.0273
   4   2.0000     -10.322970      -280.9023
   5   2.0000     -10.315439      -280.6974
   6   2.0000     -10.311140      -280.5804
   7   2.0000     -10.305131      -280.4169
   8   2.0000     -10.301302      -280.3127
   9   2.0000     -10.294451      -280.1263
  10   2.0000     -10.290549      -280.0201
  11   2.0000     -10.289129      -279.9814
  12   2.0000     -10.286683      -279.9149
  13   2.0000     -10.283282      -279.8223
  14   2.0000     -10.275086      -279.5993
  15   2.0000     -10.269688      -279.4524
  16   2.0000      -8.080944      -219.8937
  17   2.0000      -8.078450      -219.8258
  18   2.0000      -6.039451      -164.3418
  19   2.0000      -6.037024      -164.2758
  20   2.0000      -6.035581      -164.2365
  21   2.0000      -6.032675      -164.1574
  22   2.0000      -6.031783      -164.1332
  23   2.0000      -6.029384      -164.0679
  24   2.0000      -1.000626       -27.2284
  25   2.0000      -0.979878       -26.6638
  26   2.0000      -0.912746       -24.8371
  27   2.0000      -0.910262       -24.7695
  28   2.0000      -0.868982       -23.6462
  29   2.0000      -0.851551       -23.1719
  30   2.0000      -0.846535       -23.0354
  31   2.0000      -0.816939       -22.2300
  32   2.0000      -0.781864       -21.2756
  33   2.0000      -0.767442       -20.8831
  34   2.0000      -0.705026       -19.1847
  35   2.0000      -0.701248       -19.0819
  36   2.0000      -0.685540       -18.6545
  37   2.0000      -0.655838       -17.8463
  38   2.0000      -0.649682       -17.6787
  39   2.0000      -0.616780       -16.7834
  40   2.0000      -0.589698       -16.0465
  41   2.0000      -0.573538       -15.6068
  42   2.0000      -0.567213       -15.4346
  43   2.0000      -0.561148       -15.2696
  44   2.0000      -0.523428       -14.2432
  45   2.0000      -0.521142       -14.1810
  46   2.0000      -0.516604       -14.0575
  47   2.0000      -0.513346       -13.9688
  48   2.0000      -0.511451       -13.9173
  49   2.0000      -0.503347       -13.6968
  50   2.0000      -0.491767       -13.3817
  51   2.0000      -0.482839       -13.1387
  52   2.0000      -0.469941       -12.7877
  53   2.0000      -0.464710       -12.6454
  54   2.0000      -0.462019       -12.5722
  55   2.0000      -0.449000       -12.2179
  56   2.0000      -0.441774       -12.0213
  57   2.0000      -0.432764       -11.7761
  58   2.0000      -0.429059       -11.6753
  59   2.0000      -0.422116       -11.4864
  60   2.0000      -0.421072       -11.4579
  61   2.0000      -0.413164       -11.2428
  62   2.0000      -0.402418       -10.9503
  63   2.0000      -0.339492        -9.2380
  64   2.0000      -0.326761        -8.8916
  65   2.0000      -0.321830        -8.7574
  66   2.0000      -0.304793        -8.2938
  67   0.0000       0.036477         0.9926
  68   0.0000       0.052221         1.4210
  69   0.0000       0.103968         2.8291
  70   0.0000       0.125899         3.4259
  71   0.0000       0.132439         3.6038

MULLIKEN ATOMIC CHARGES
-----------------------
   0 S :    0.096716
   1 C :   -0.141104
   2 C :   -0.080439
   3 C :    0.063443
   4 C :   -0.157664
   5 H :    0.014380
   6 C :    0.053019
   7 H :    0.028559
   8 H :    0.026550
   9 C :   -0.100424
  10 H :    0.041531
  11 H :    0.030370
  12 C :    0.004887
  13 H :    0.001243
  14 H :    0.043250
  15 H :    0.028806
  16 S :    0.115039
  17 C :   -0.092363
  18 C :   -0.053172
  19 C :   -0.031775
  20 C :   -0.186071
  21 H :    0.006731
  22 C :    0.079842
  23 H :    0.032387
  24 H :    0.028836
  25 C :   -0.110067
  26 H :    0.039740
  27 H :    0.021421
  28 C :   -0.007717
  29 H :    0.022406
  30 H :    0.007145
  31 H :    0.041723
  32 H :    0.062319
  33 H :    0.070453
Sum of atomic charges:   -0.0000000

LOEWDIN ATOMIC CHARGES
----------------------
   0 S :    0.389720
   1 C :   -0.187841
   2 C :   -0.060866
   3 C :   -0.047209
   4 C :   -0.181116
   5 H :    0.032563
   6 C :   -0.031741
   7 H :    0.033141
   8 H :    0.022614
   9 C :   -0.043385
  10 H :    0.031348
  11 H :    0.022930
  12 C :   -0.058137
  13 H :    0.008514
  14 H :    0.039850
  15 H :    0.024569
  16 S :    0.419947
  17 C :   -0.210283
  18 C :   -0.081273
  19 C :   -0.048894
  20 C :   -0.213190
  21 H :    0.023470
  22 C :   -0.040506
  23 H :    0.036462
  24 H :    0.032010
  25 C :   -0.052635
  26 H :    0.031980
  27 H :    0.021704
  28 C :   -0.064461
  29 H :    0.025422
  30 H :    0.019193
  31 H :    0.030709
  32 H :    0.027283
  33 H :    0.048110

  Mayer bond orders larger than 0.100000
B(  0-S ,  1-C ) :   1.1444 B(  0-S ,  4-C ) :   1.1440 B(  1-C ,  2-C ) :   1.5891
B(  1-C , 32-H ) :   0.9772 B(  2-C ,  3-C ) :   1.2340 B(  2-C ,  6-C ) :   1.0096
B(  3-C ,  4-C ) :   1.5952 B(  3-C ,  5-H ) :   0.9939 B(  4-C , 20-C ) :   1.0167
B(  6-C ,  7-H ) :   0.9468 B(  6-C ,  8-H ) :   0.9379 B(  6-C ,  9-C ) :   1.0548
B(  9-C , 10-H ) :   0.9616 B(  9-C , 11-H ) :   0.9537 B(  9-C , 12-C ) :   1.0854
B( 12-C , 13-H ) :   0.9718 B( 12-C , 14-H ) :   0.9724 B( 12-C , 15-H ) :   0.9726
B( 16-S , 17-C ) :   1.1694 B( 16-S , 20-C ) :   1.1393 B( 17-C , 18-C ) :   1.6028
B( 17-C , 33-H ) :   0.9586 B( 18-C , 19-C ) :   1.2594 B( 18-C , 21-H ) :   0.9913
B( 19-C , 20-C ) :   1.5666 B( 19-C , 22-C ) :   1.0429 B( 22-C , 23-H ) :   0.9450
B( 22-C , 24-H ) :   0.9081 B( 22-C , 25-C ) :   1.0644 B( 25-C , 26-H ) :   0.9487
B( 25-C , 27-H ) :   0.9541 B( 25-C , 28-C ) :   1.0907 B( 28-C , 29-H ) :   0.9688
B( 28-C , 30-H ) :   0.9676 B( 28-C , 31-H ) :   0.9721

Dispersion correction           -0.014304039
FINAL SINGLE POINT ENERGY     -1339.863972381728

DIPOLE MOMENT
-------------
                                X             Y             Z
Electronic contribution:     -1.77026      23.63131     -10.56702
Nuclear contribution   :      1.77379     -24.17106      11.01259
                        -----------------------------------------
Total Dipole Moment    :      0.00353      -0.53975       0.44558
                        -----------------------------------------
Magnitude (a.u.)       :      0.69992
Magnitude (Debye)      :      1.77904

Rotational constants in cm-1:     0.019747     0.007586     0.006485
Rotational constants in MHz :   591.992531   227.411450   194.408219

                             ****ORCA TERMINATED NORMALLY****
TOTAL RUN TIME: 0 days 0 hours 0 minutes 32 seconds 810 msec
