                         Program Version 4.2.1 -  RELEASE  -
|  1> ! wB97X-D3 SP def2-SVP
|  2> %pal
|  3> nprocs 16
|  4> end
|  5>
|  6> * xyz 0 1
|  7> S 	 21.6383 	 1.34394 	 85.1372
|  8> C 	 22.9326 	 1.89461 	 84.1354
|  9> C 	 22.4318 	 2.23292 	 82.8255
| 10> C 	 21.0274 	 2.12416 	 82.752
| 11> C 	 20.437 	 1.67873 	 83.8832
| 12> H 	 20.4378 	 2.32362 	 81.8545
| 13> C 	 23.3367 	 2.83322 	 81.7168
| 14> H 	 24.2037 	 2.29703 	 81.7057
| 15> H 	 23.7628 	 3.80459 	 82.026
| 16> C 	 22.6269 	 2.91014 	 80.3028
| 17> H 	 22.3796 	 1.91474 	 79.9875
| 18> H 	 21.7082 	 3.57259 	 80.3536
| 19> C 	 23.6104 	 3.46437 	 79.15
| 20> H 	 23.8019 	 4.52675 	 79.2432
| 21> H 	 24.5503 	 2.91633 	 79.1404
| 22> H 	 23.1682 	 3.25782 	 78.1828
| 23> S 	 18.6174 	 1.4482 	 85.8378
| 24> C 	 16.9033 	 1.48684 	 85.508
| 25> C 	 16.6259 	 1.63034 	 84.141
| 26> C 	 17.8424 	 1.78431 	 83.3143
| 27> C 	 18.9946 	 1.61673 	 84.1253
| 28> H 	 15.595 	 1.62282 	 83.7804
| 29> C 	 17.7589 	 2.04372 	 81.8291
| 30> H 	 18.4769 	 2.84292 	 81.5541
| 31> H 	 16.7324 	 2.33913 	 81.634
| 32> C 	 17.9575 	 0.832947 	 80.9285
| 33> H 	 17.1953 	 0.134806 	 81.2955
| 34> H 	 18.8321 	 0.284597 	 81.1814
| 35> C 	 17.8812 	 1.06481 	 79.4576
| 36> H 	 17.6872 	 0.0746007 	 78.9567
| 37> H 	 18.8614 	 1.38662 	 79.1216
| 38> H 	 17.1318 	 1.85398 	 79.2072
| 39> H 	 23.9074 	 2.16005 	 84.4395
| 40> H 	 16.0981 	 1.496 	 86.267
| 41> *
| 42>
| 43>                          ****END OF INPUT****

CARTESIAN COORDINATES (ANGSTROEM)
---------------------------------
  S     21.638300    1.343940   85.137200
  C     22.932600    1.894610   84.135400
  C     22.431800    2.232920   82.825500
  C     21.027400    2.124160   82.752000
  C     20.437000    1.678730   83.883200
  H     20.437800    2.323620   81.854500
  C     23.336700    2.833220   81.716800
  H     24.203700    2.297030   81.705700
  H     23.762800    3.804590   82.026000
  C     22.626900    2.910140   80.302800
  H     22.379600    1.914740   79.987500
  H     21.708200    3.572590   80.353600
  C     23.610400    3.464370   79.150000
  H     23.801900    4.526750   79.243200
  H     24.550300    2.916330   79.140400
  H     23.168200    3.257820   78.182800
  S     18.617400    1.448200   85.837800
  C     16.903300    1.486840   85.508000
  C     16.625900    1.630340   84.141000
  C     17.842400    1.784310   83.314300
  C     18.994600    1.616730   84.125300
  H     15.595000    1.622820   83.780400
  C     17.758900    2.043720   81.829100
  H     18.476900    2.842920   81.554100
  H     16.732400    2.339130   81.634000
  C     17.957500    0.832947   80.928500
  H     17.195300    0.134806   81.295500
  H     18.832100    0.284597   81.181400
  C     17.881200    1.064810   79.457600
  H     17.687200    0.074601   78.956700
  H     18.861400    1.386620   79.121600
  H     17.131800    1.853980   79.207200
  H     23.907400    2.160050   84.439500
  H     16.098100    1.496000   86.267000

 Total Charge           Charge          ....    0
 Multiplicity           Mult            ....    1
 Number of Electrons    NEL             ....  134
 Basis Dimension        Dim             ....  322

ORBITAL ENERGIES
----------------

  NO   OCC          E(Eh)            E(eV)
   0   2.0000     -88.969935     -2420.9950
   1   2.0000     -88.967154     -2420.9193
   2   2.0000     -10.333850      -281.1984
   3   2.0000     -10.328811      -281.0612
   4   2.0000     -10.321017      -280.8491
   5   2.0000     -10.313242      -280.6376
   6   2.0000     -10.313191      -280.6362
   7   2.0000     -10.306356      -280.4502
   8   2.0000     -10.302409      -280.3428
   9   2.0000     -10.302116      -280.3348
  10   2.0000     -10.296235      -280.1748
  11   2.0000     -10.292780      -280.0808
  12   2.0000     -10.289333      -279.9870
  13   2.0000     -10.284534      -279.8564
  14   2.0000     -10.283600      -279.8310
  15   2.0000     -10.278410      -279.6897
  16   2.0000      -8.084270      -219.9842
  17   2.0000      -8.081776      -219.9163
  18   2.0000      -6.042896      -164.4356
  19   2.0000      -6.040385      -164.3672
  20   2.0000      -6.038769      -164.3233
  21   2.0000      -6.036340      -164.2572
  22   2.0000      -6.034998      -164.2206
  23   2.0000      -6.032406      -164.1501
  24   2.0000      -1.005413       -27.3587
  25   2.0000      -0.977846       -26.6085
  26   2.0000      -0.917342       -24.9622
  27   2.0000      -0.899643       -24.4805
  28   2.0000      -0.866177       -23.5699
  29   2.0000      -0.855689       -23.2845
  30   2.0000      -0.843528       -22.9536
  31   2.0000      -0.814616       -22.1668
  32   2.0000      -0.782789       -21.3008
  33   2.0000      -0.768678       -20.9168
  34   2.0000      -0.713184       -19.4067
  35   2.0000      -0.699292       -19.0287
  36   2.0000      -0.688169       -18.7260
  37   2.0000      -0.664641       -18.0858
  38   2.0000      -0.637603       -17.3500
  39   2.0000      -0.624678       -16.9984
  40   2.0000      -0.594304       -16.1718
  41   2.0000      -0.571925       -15.5629
  42   2.0000      -0.563957       -15.3461
  43   2.0000      -0.554993       -15.1021
  44   2.0000      -0.527255       -14.3473
  45   2.0000      -0.520612       -14.1666
  46   2.0000      -0.514616       -14.0034
  47   2.0000      -0.506240       -13.7755
  48   2.0000      -0.505024       -13.7424
  49   2.0000      -0.502436       -13.6720
  50   2.0000      -0.493432       -13.4270
  51   2.0000      -0.486836       -13.2475
  52   2.0000      -0.472913       -12.8686
  53   2.0000      -0.466842       -12.7034
  54   2.0000      -0.459237       -12.4965
  55   2.0000      -0.454652       -12.3717
  56   2.0000      -0.444105       -12.0847
  57   2.0000      -0.438684       -11.9372
  58   2.0000      -0.435707       -11.8562
  59   2.0000      -0.431921       -11.7532
  60   2.0000      -0.427183       -11.6242
  61   2.0000      -0.412057       -11.2126
  62   2.0000      -0.409471       -11.1423
  63   2.0000      -0.360901        -9.8206
  64   2.0000      -0.336499        -9.1566
  65   2.0000      -0.325849        -8.8668
  66   2.0000      -0.275417        -7.4945
  67   0.0000       0.016397         0.4462
  68   0.0000       0.081721         2.2237
  69   0.0000       0.093715         2.5501
  70   0.0000       0.115400         3.1402
  71   0.0000       0.123360         3.3568

MULLIKEN ATOMIC CHARGES
-----------------------
   0 S :    0.115641
   1 C :   -0.102371
   2 C :   -0.100029
   3 C :   -0.050121
   4 C :   -0.059115
   5 H :    0.002250
   6 C :    0.105509
   7 H :   -0.003318
   8 H :    0.031811
   9 C :   -0.131870
  10 H :    0.038595
  11 H :    0.057113
  12 C :   -0.042954
  13 H :    0.039853
  14 H :    0.030460
  15 H :    0.031565
  16 S :    0.090895
  17 C :   -0.093496
  18 C :   -0.039235
  19 C :   -0.074834
  20 C :   -0.124044
  21 H :    0.025403
  22 C :    0.052544
  23 H :    0.038582
  24 H :    0.012437
  25 C :   -0.075086
  26 H :    0.015127
  27 H :    0.018999
  28 C :   -0.023814
  29 H :    0.048177
  30 H :    0.024807
  31 H :    0.038136
  32 H :    0.034919
  33 H :    0.067462
Sum of atomic charges:    0.0000000

LOEWDIN ATOMIC CHARGES
----------------------
   0 S :    0.408855
   1 C :   -0.208598
   2 C :   -0.051658
   3 C :   -0.075993
   4 C :   -0.185907
   5 H :    0.032370
   6 C :   -0.030178
   7 H :    0.016705
   8 H :    0.035675
   9 C :   -0.036410
  10 H :    0.021480
  11 H :    0.030717
  12 C :   -0.064185
  13 H :    0.023606
  14 H :    0.024720
  15 H :    0.025160
  16 S :    0.400872
  17 C :   -0.196989
  18 C :   -0.070038
  19 C :   -0.054017
  20 C :   -0.179882
  21 H :    0.033009
  22 C :   -0.034112
  23 H :    0.028393
  24 H :    0.030964
  25 C :   -0.051519
  26 H :    0.024972
  27 H :    0.019247
  28 C :   -0.065347
  29 H :    0.038758
  30 H :    0.023298
  31 H :    0.029294
  32 H :    0.020513
  33 H :    0.036227

  Mayer bond orders larger than 0.100000
B(  0-S ,  1-C ) :   1.1496 B(  0-S ,  4-C ) :   1.1385 B(  1-C ,  2-C ) :   1.5708
B(  1-C ,  4-C ) :   0.1031 B(  1-C , 32-H ) :   0.9761 B(  2-C ,  3-C ) :   1.2912
B(  2-C ,  6-C ) :   1.0070 B(  3-C ,  4-C ) :   1.5583 B(  3-C ,  5-H ) :   0.9832
B(  4-C , 20-C ) :   1.0856 B(  6-C ,  7-H ) :   0.9313 B(  6-C ,  8-H ) :   0.9380
B(  6-C ,  9-C ) :   1.0683 B(  9-C , 10-H ) :   0.9608 B(  9-C , 11-H ) :   0.9502
B(  9-C , 12-C ) :   1.0748 B( 12-C , 13-H ) :   0.9791 B( 12-C , 14-H ) :   0.9763
B( 12-C , 15-H ) :   0.9773 B( 16-S , 17-C ) :   1.1480 B( 16-S , 20-C ) :   1.1356
B( 17-C , 18-C ) :   1.6257 B( 17-C , 33-H ) :   0.9626 B( 18-C , 19-C ) :   1.2332
B( 18-C , 21-H ) :   0.9824 B( 19-C , 20-C ) :   1.5730 B( 19-C , 22-C ) :   1.0550
B( 22-C , 23-H ) :   0.9308 B( 22-C , 24-H ) :   0.9186 B( 22-C , 25-C ) :   1.0690
B( 25-C , 26-H ) :   0.9466 B( 25-C , 27-H ) :   0.9526 B( 25-C , 28-C ) :   1.0830
B( 28-C , 29-H ) :   0.9703 B( 28-C , 30-H ) :   0.9716 B( 28-C , 31-H ) :   0.9721

Dispersion correction           -0.014087989
FINAL SINGLE POINT ENERGY     -1339.872896311287

DIPOLE MOMENT
-------------
                                X             Y             Z
Electronic contribution:     -3.11986      -5.16308      33.43638
Nuclear contribution   :      3.08891       5.40706     -34.11634
                        -----------------------------------------
Total Dipole Moment    :     -0.03095       0.24398      -0.67996
                        -----------------------------------------
Magnitude (a.u.)       :      0.72307
Magnitude (Debye)      :      1.83791

Rotational constants in cm-1:     0.016723     0.009779     0.006453
Rotational constants in MHz :   501.349136   293.168457   193.441411

                             ****ORCA TERMINATED NORMALLY****
TOTAL RUN TIME: 0 days 0 hours 0 minutes 33 seconds 496 msec
