                         Program Version 4.2.1 -  RELEASE  -
|  1> ! wB97X-D3 SP def2-SVP
|  2> %pal
|  3> nprocs 16
|  4> end
|  5>
|  6> * xyz 0 1
|  7> S 	 37.8945 	 26.0505 	 50.05
|  8> C 	 38.7959 	 26.7977 	 51.3803
|  9> C 	 39.4956 	 27.9203 	 50.913
| 10> C 	 39.2413 	 28.1296 	 49.4737
| 11> C 	 38.2924 	 27.3562 	 48.9046
| 12> H 	 39.7146 	 28.9158 	 48.9509
| 13> C 	 40.2754 	 28.9224 	 51.7224
| 14> H 	 40.162 	 28.4947 	 52.6791
| 15> H 	 39.846 	 29.9218 	 51.6461
| 16> C 	 41.7506 	 29.0583 	 51.2342
| 17> H 	 41.9143 	 29.7286 	 50.4227
| 18> H 	 42.3232 	 29.4949 	 51.9706
| 19> C 	 42.4792 	 27.7762 	 50.8684
| 20> H 	 42.1089 	 26.8516 	 51.3547
| 21> H 	 42.6447 	 27.5569 	 49.8209
| 22> H 	 43.498 	 27.9797 	 51.239
| 23> S 	 38.0128 	 25.4022 	 47.0115
| 24> C 	 38.1938 	 25.7682 	 45.3845
| 25> C 	 38.0591 	 27.1398 	 45.1707
| 26> C 	 37.9889 	 27.9111 	 46.3874
| 27> C 	 38.1487 	 27.0607 	 47.4933
| 28> H 	 38.0249 	 27.555 	 44.1313
| 29> C 	 37.7651 	 29.4171 	 46.4057
| 30> H 	 38.2285 	 29.6963 	 45.4958
| 31> H 	 38.4045 	 29.8531 	 47.1889
| 32> C 	 36.3561 	 29.9744 	 46.4836
| 33> H 	 36.4558 	 31.1183 	 46.2955
| 34> H 	 36.1033 	 29.9605 	 47.5577
| 35> C 	 35.3114 	 29.1712 	 45.616
| 36> H 	 34.5546 	 29.8294 	 45.1955
| 37> H 	 34.7902 	 28.3542 	 46.1146
| 38> H 	 35.8312 	 28.6444 	 44.7991
| 39> H 	 38.6788 	 26.4795 	 52.3698
| 40> H 	 38.2405 	 25.0399 	 44.6523
| 41> *
| 42>
| 43>                          ****END OF INPUT****

CARTESIAN COORDINATES (ANGSTROEM)
---------------------------------
  S     37.894500   26.050500   50.050000
  C     38.795900   26.797700   51.380300
  C     39.495600   27.920300   50.913000
  C     39.241300   28.129600   49.473700
  C     38.292400   27.356200   48.904600
  H     39.714600   28.915800   48.950900
  C     40.275400   28.922400   51.722400
  H     40.162000   28.494700   52.679100
  H     39.846000   29.921800   51.646100
  C     41.750600   29.058300   51.234200
  H     41.914300   29.728600   50.422700
  H     42.323200   29.494900   51.970600
  C     42.479200   27.776200   50.868400
  H     42.108900   26.851600   51.354700
  H     42.644700   27.556900   49.820900
  H     43.498000   27.979700   51.239000
  S     38.012800   25.402200   47.011500
  C     38.193800   25.768200   45.384500
  C     38.059100   27.139800   45.170700
  C     37.988900   27.911100   46.387400
  C     38.148700   27.060700   47.493300
  H     38.024900   27.555000   44.131300
  C     37.765100   29.417100   46.405700
  H     38.228500   29.696300   45.495800
  H     38.404500   29.853100   47.188900
  C     36.356100   29.974400   46.483600
  H     36.455800   31.118300   46.295500
  H     36.103300   29.960500   47.557700
  C     35.311400   29.171200   45.616000
  H     34.554600   29.829400   45.195500
  H     34.790200   28.354200   46.114600
  H     35.831200   28.644400   44.799100
  H     38.678800   26.479500   52.369800
  H     38.240500   25.039900   44.652300

 Total Charge           Charge          ....    0
 Multiplicity           Mult            ....    1
 Number of Electrons    NEL             ....  134
 Basis Dimension        Dim             ....  322

ORBITAL ENERGIES
----------------

  NO   OCC          E(Eh)            E(eV)
   0   2.0000     -88.963995     -2420.8334
   1   2.0000     -88.959556     -2420.7126
   2   2.0000     -10.328466      -281.0519
   3   2.0000     -10.324892      -280.9546
   4   2.0000     -10.317975      -280.7664
   5   2.0000     -10.307003      -280.4678
   6   2.0000     -10.306965      -280.4668
   7   2.0000     -10.303455      -280.3713
   8   2.0000     -10.297510      -280.2095
   9   2.0000     -10.296245      -280.1751
  10   2.0000     -10.292753      -280.0800
  11   2.0000     -10.291876      -280.0562
  12   2.0000     -10.288060      -279.9523
  13   2.0000     -10.279511      -279.7197
  14   2.0000     -10.278906      -279.7032
  15   2.0000     -10.272510      -279.5292
  16   2.0000      -8.080438      -219.8799
  17   2.0000      -8.074050      -219.7061
  18   2.0000      -6.038798      -164.3240
  19   2.0000      -6.034731      -164.2134
  20   2.0000      -6.032865      -164.1626
  21   2.0000      -6.031212      -164.1176
  22   2.0000      -6.028679      -164.0487
  23   2.0000      -6.024410      -163.9325
  24   2.0000      -1.011029       -27.5115
  25   2.0000      -0.981959       -26.7205
  26   2.0000      -0.913888       -24.8681
  27   2.0000      -0.908095       -24.7105
  28   2.0000      -0.871022       -23.7017
  29   2.0000      -0.846837       -23.0436
  30   2.0000      -0.837970       -22.8023
  31   2.0000      -0.816686       -22.2232
  32   2.0000      -0.786105       -21.3910
  33   2.0000      -0.774352       -21.0712
  34   2.0000      -0.712440       -19.3865
  35   2.0000      -0.703474       -19.1425
  36   2.0000      -0.693272       -18.8649
  37   2.0000      -0.660705       -17.9787
  38   2.0000      -0.642725       -17.4894
  39   2.0000      -0.622866       -16.9490
  40   2.0000      -0.587729       -15.9929
  41   2.0000      -0.561747       -15.2859
  42   2.0000      -0.557066       -15.1585
  43   2.0000      -0.550160       -14.9706
  44   2.0000      -0.544014       -14.8034
  45   2.0000      -0.542295       -14.7566
  46   2.0000      -0.519620       -14.1396
  47   2.0000      -0.512742       -13.9524
  48   2.0000      -0.509815       -13.8728
  49   2.0000      -0.494575       -13.4581
  50   2.0000      -0.491617       -13.3776
  51   2.0000      -0.479278       -13.0418
  52   2.0000      -0.468985       -12.7617
  53   2.0000      -0.462005       -12.5718
  54   2.0000      -0.458826       -12.4853
  55   2.0000      -0.444622       -12.0988
  56   2.0000      -0.442111       -12.0304
  57   2.0000      -0.437158       -11.8957
  58   2.0000      -0.436076       -11.8662
  59   2.0000      -0.428228       -11.6527
  60   2.0000      -0.418780       -11.3956
  61   2.0000      -0.407213       -11.0808
  62   2.0000      -0.400457       -10.8970
  63   2.0000      -0.360933        -9.8215
  64   2.0000      -0.330446        -8.9919
  65   2.0000      -0.319392        -8.6911
  66   2.0000      -0.285014        -7.7556
  67   0.0000       0.025211         0.6860
  68   0.0000       0.071608         1.9485
  69   0.0000       0.101723         2.7680
  70   0.0000       0.113562         3.0902
  71   0.0000       0.134818         3.6686

MULLIKEN ATOMIC CHARGES
-----------------------
   0 S :    0.048790
   1 C :   -0.097216
   2 C :   -0.134598
   3 C :    0.023875
   4 C :   -0.075280
   5 H :    0.002250
   6 C :    0.136754
   7 H :    0.004764
   8 H :    0.044789
   9 C :   -0.057412
  10 H :    0.018459
  11 H :    0.010020
  12 C :   -0.063259
  13 H :    0.039687
  14 H :    0.034940
  15 H :    0.021427
  16 S :    0.119491
  17 C :   -0.062174
  18 C :   -0.059318
  19 C :   -0.083192
  20 C :   -0.154368
  21 H :    0.037418
  22 C :    0.089416
  23 H :    0.009037
  24 H :    0.018083
  25 C :   -0.081720
  26 H :    0.045881
  27 H :    0.036631
  28 C :   -0.039918
  29 H :    0.038282
  30 H :    0.043055
  31 H :    0.020673
  32 H :    0.035840
  33 H :    0.028893
Sum of atomic charges:    0.0000000

LOEWDIN ATOMIC CHARGES
----------------------
   0 S :    0.363834
   1 C :   -0.177239
   2 C :   -0.054088
   3 C :   -0.051183
   4 C :   -0.176430
   5 H :    0.020590
   6 C :   -0.022918
   7 H :    0.025410
   8 H :    0.037937
   9 C :   -0.040134
  10 H :    0.023642
  11 H :    0.016646
  12 C :   -0.072022
  13 H :    0.029029
  14 H :    0.024438
  15 H :    0.029694
  16 S :    0.445339
  17 C :   -0.201819
  18 C :   -0.078640
  19 C :   -0.061256
  20 C :   -0.200993
  21 H :    0.035660
  22 C :   -0.037033
  23 H :    0.023220
  24 H :    0.032256
  25 C :   -0.045968
  26 H :    0.037149
  27 H :    0.026788
  28 C :   -0.069678
  29 H :    0.027320
  30 H :    0.032830
  31 H :    0.026335
  32 H :    0.017221
  33 H :    0.014064

  Mayer bond orders larger than 0.100000
B(  0-S ,  1-C ) :   1.1280 B(  0-S ,  4-C ) :   1.1076 B(  1-C ,  2-C ) :   1.6189
B(  1-C , 32-H ) :   0.9746 B(  2-C ,  3-C ) :   1.2076 B(  2-C ,  6-C ) :   1.0335
B(  3-C ,  4-C ) :   1.6131 B(  3-C ,  5-H ) :   0.9920 B(  4-C , 20-C ) :   1.0575
B(  6-C ,  7-H ) :   0.9313 B(  6-C ,  8-H ) :   0.9433 B(  6-C ,  9-C ) :   1.0626
B(  9-C , 10-H ) :   0.9491 B(  9-C , 11-H ) :   0.9634 B(  9-C , 12-C ) :   1.0743
B( 12-C , 13-H ) :   0.9760 B( 12-C , 14-H ) :   0.9781 B( 12-C , 15-H ) :   0.9774
B( 16-S , 17-C ) :   1.1818 B( 16-S , 20-C ) :   1.1630 B( 17-C , 18-C ) :   1.5637
B( 17-C , 33-H ) :   0.9818 B( 18-C , 19-C ) :   1.2738 B( 18-C , 21-H ) :   0.9783
B( 19-C , 20-C ) :   1.5525 B( 19-C , 22-C ) :   1.0351 B( 22-C , 23-H ) :   0.9256
B( 22-C , 24-H ) :   0.9321 B( 22-C , 25-C ) :   1.0753 B( 25-C , 26-H ) :   0.9573
B( 25-C , 27-H ) :   0.9589 B( 25-C , 28-C ) :   1.0502 B( 28-C , 29-H ) :   0.9761
B( 28-C , 30-H ) :   0.9716 B( 28-C , 31-H ) :   0.9801

Dispersion correction           -0.014705691
FINAL SINGLE POINT ENERGY     -1339.852679523891

DIPOLE MOMENT
-------------
                                X             Y             Z
Electronic contribution:     -6.94854     -19.00426      -0.16397
Nuclear contribution   :      7.26003      19.59160       0.15575
                        -----------------------------------------
Total Dipole Moment    :      0.31149       0.58734      -0.00823
                        -----------------------------------------
Magnitude (a.u.)       :      0.66488
Magnitude (Debye)      :      1.68999

Rotational constants in cm-1:     0.020705     0.008390     0.007475
Rotational constants in MHz :   620.724417   251.531304   224.102801

                             ****ORCA TERMINATED NORMALLY****
TOTAL RUN TIME: 0 days 0 hours 0 minutes 34 seconds 540 msec
