                         Program Version 4.2.1 -  RELEASE  -
|  1> ! wB97X-D3 SP def2-SVP
|  2> %pal
|  3> nprocs 16
|  4> end
|  5>
|  6> * xyz 0 1
|  7> S 	 22.2682 	 3.0913 	 74.2401
|  8> C 	 22.8375 	 4.55708 	 74.9514
|  9> C 	 22.7949 	 4.46656 	 76.3379
| 10> C 	 22.1231 	 3.29236 	 76.745
| 11> C 	 21.7181 	 2.42936 	 75.753
| 12> H 	 21.9616 	 3.1124 	 77.7918
| 13> C 	 23.4423 	 5.47608 	 77.2858
| 14> H 	 23.7008 	 6.30802 	 76.6513
| 15> H 	 24.3321 	 5.05311 	 77.7158
| 16> C 	 22.5639 	 6.13856 	 78.3735
| 17> H 	 21.794 	 6.74975 	 78.0283
| 18> H 	 22.0638 	 5.40524 	 79.0765
| 19> C 	 23.2475 	 7.20707 	 79.1809
| 20> H 	 24.1421 	 6.84194 	 79.7806
| 21> H 	 23.6325 	 8.08094 	 78.5731
| 22> H 	 22.6277 	 7.57176 	 80.0001
| 23> S 	 21.7671 	 -0.364365 	 75.4835
| 24> C 	 20.4229 	 -1.30923 	 76.1353
| 25> C 	 19.5194 	 -0.475415 	 76.6874
| 26> C 	 19.7427 	 0.937593 	 76.4735
| 27> C 	 20.9918 	 1.17424 	 75.873
| 28> H 	 18.6477 	 -0.822036 	 77.2485
| 29> C 	 18.8382 	 2.0208 	 77.0324
| 30> H 	 19.4248 	 2.79351 	 77.4944
| 31> H 	 18.2033 	 1.61731 	 77.8332
| 32> C 	 17.8725 	 2.59997 	 75.9353
| 33> H 	 17.234 	 1.79529 	 75.4836
| 34> H 	 18.4934 	 2.9987 	 75.1532
| 35> C 	 16.8109 	 3.57744 	 76.3998
| 36> H 	 16.0557 	 3.27608 	 77.1024
| 37> H 	 16.3705 	 3.9289 	 75.5437
| 38> H 	 17.384 	 4.29481 	 76.9506
| 39> H 	 23.119 	 5.3924 	 74.4134
| 40> H 	 20.4312 	 -2.39777 	 76.0265
| 41> *
| 42>
| 43>                          ****END OF INPUT****

CARTESIAN COORDINATES (ANGSTROEM)
---------------------------------
  S     22.268200    3.091300   74.240100
  C     22.837500    4.557080   74.951400
  C     22.794900    4.466560   76.337900
  C     22.123100    3.292360   76.745000
  C     21.718100    2.429360   75.753000
  H     21.961600    3.112400   77.791800
  C     23.442300    5.476080   77.285800
  H     23.700800    6.308020   76.651300
  H     24.332100    5.053110   77.715800
  C     22.563900    6.138560   78.373500
  H     21.794000    6.749750   78.028300
  H     22.063800    5.405240   79.076500
  C     23.247500    7.207070   79.180900
  H     24.142100    6.841940   79.780600
  H     23.632500    8.080940   78.573100
  H     22.627700    7.571760   80.000100
  S     21.767100   -0.364365   75.483500
  C     20.422900   -1.309230   76.135300
  C     19.519400   -0.475415   76.687400
  C     19.742700    0.937593   76.473500
  C     20.991800    1.174240   75.873000
  H     18.647700   -0.822036   77.248500
  C     18.838200    2.020800   77.032400
  H     19.424800    2.793510   77.494400
  H     18.203300    1.617310   77.833200
  C     17.872500    2.599970   75.935300
  H     17.234000    1.795290   75.483600
  H     18.493400    2.998700   75.153200
  C     16.810900    3.577440   76.399800
  H     16.055700    3.276080   77.102400
  H     16.370500    3.928900   75.543700
  H     17.384000    4.294810   76.950600
  H     23.119000    5.392400   74.413400
  H     20.431200   -2.397770   76.026500

 Total Charge           Charge          ....    0
 Multiplicity           Mult            ....    1
 Number of Electrons    NEL             ....  134
 Basis Dimension        Dim             ....  322

ORBITAL ENERGIES
----------------

  NO   OCC          E(Eh)            E(eV)
   0   2.0000     -88.964962     -2420.8597
   1   2.0000     -88.961193     -2420.7571
   2   2.0000     -10.329113      -281.0695
   3   2.0000     -10.328924      -281.0643
   4   2.0000     -10.319414      -280.8055
   5   2.0000     -10.311149      -280.5806
   6   2.0000     -10.305914      -280.4382
   7   2.0000     -10.300912      -280.3021
   8   2.0000     -10.296113      -280.1715
   9   2.0000     -10.294671      -280.1322
  10   2.0000     -10.291294      -280.0404
  11   2.0000     -10.291228      -280.0385
  12   2.0000     -10.288014      -279.9511
  13   2.0000     -10.286041      -279.8974
  14   2.0000     -10.283168      -279.8192
  15   2.0000     -10.263618      -279.2872
  16   2.0000      -8.080363      -219.8779
  17   2.0000      -8.075795      -219.7535
  18   2.0000      -6.038718      -164.3219
  19   2.0000      -6.034645      -164.2110
  20   2.0000      -6.034425      -164.2051
  21   2.0000      -6.031367      -164.1218
  22   2.0000      -6.030269      -164.0920
  23   2.0000      -6.026484      -163.9890
  24   2.0000      -1.007932       -27.4272
  25   2.0000      -0.984856       -26.7993
  26   2.0000      -0.913937       -24.8695
  27   2.0000      -0.904143       -24.6030
  28   2.0000      -0.873904       -23.7801
  29   2.0000      -0.853482       -23.2244
  30   2.0000      -0.848090       -23.0777
  31   2.0000      -0.818885       -22.2830
  32   2.0000      -0.784046       -21.3350
  33   2.0000      -0.771439       -20.9919
  34   2.0000      -0.708223       -19.2717
  35   2.0000      -0.696375       -18.9493
  36   2.0000      -0.691497       -18.8166
  37   2.0000      -0.658695       -17.9240
  38   2.0000      -0.647021       -17.6063
  39   2.0000      -0.625922       -17.0322
  40   2.0000      -0.599354       -16.3093
  41   2.0000      -0.573765       -15.6129
  42   2.0000      -0.565339       -15.3836
  43   2.0000      -0.558092       -15.1864
  44   2.0000      -0.538265       -14.6469
  45   2.0000      -0.530911       -14.4468
  46   2.0000      -0.517382       -14.0787
  47   2.0000      -0.516401       -14.0520
  48   2.0000      -0.508784       -13.8447
  49   2.0000      -0.501084       -13.6352
  50   2.0000      -0.495507       -13.4834
  51   2.0000      -0.486330       -13.2337
  52   2.0000      -0.471515       -12.8306
  53   2.0000      -0.464706       -12.6453
  54   2.0000      -0.457050       -12.4370
  55   2.0000      -0.455166       -12.3857
  56   2.0000      -0.445737       -12.1291
  57   2.0000      -0.430221       -11.7069
  58   2.0000      -0.426480       -11.6051
  59   2.0000      -0.424436       -11.5495
  60   2.0000      -0.419874       -11.4253
  61   2.0000      -0.415086       -11.2951
  62   2.0000      -0.401153       -10.9159
  63   2.0000      -0.343154        -9.3377
  64   2.0000      -0.331633        -9.0242
  65   2.0000      -0.326393        -8.8816
  66   2.0000      -0.298952        -8.1349
  67   0.0000       0.034838         0.9480
  68   0.0000       0.062469         1.6999
  69   0.0000       0.115630         3.1464
  70   0.0000       0.124164         3.3787
  71   0.0000       0.134209         3.6520

MULLIKEN ATOMIC CHARGES
-----------------------
   0 S :    0.117929
   1 C :   -0.100738
   2 C :   -0.099045
   3 C :    0.052408
   4 C :   -0.169145
   5 H :    0.004321
   6 C :    0.106791
   7 H :    0.007287
   8 H :    0.045144
   9 C :   -0.065866
  10 H :    0.019608
  11 H :    0.034285
  12 C :   -0.101700
  13 H :    0.024290
  14 H :    0.043283
  15 H :    0.035805
  16 S :    0.089750
  17 C :   -0.098707
  18 C :   -0.017299
  19 C :   -0.044142
  20 C :   -0.147809
  21 H :    0.023243
  22 C :    0.088199
  23 H :    0.019080
  24 H :    0.013217
  25 C :   -0.116312
  26 H :    0.028786
  27 H :    0.036034
  28 C :    0.019006
  29 H :    0.025176
  30 H :    0.022750
  31 H :    0.010270
  32 H :    0.023102
  33 H :    0.070998
Sum of atomic charges:   -0.0000000

LOEWDIN ATOMIC CHARGES
----------------------
   0 S :    0.425112
   1 C :   -0.187902
   2 C :   -0.065049
   3 C :   -0.058493
   4 C :   -0.204536
   5 H :    0.027214
   6 C :   -0.022696
   7 H :    0.030885
   8 H :    0.034531
   9 C :   -0.048186
  10 H :    0.021497
  11 H :    0.027504
  12 C :   -0.076150
  13 H :    0.022765
  14 H :    0.029638
  15 H :    0.027966
  16 S :    0.385827
  17 C :   -0.176499
  18 C :   -0.073095
  19 C :   -0.048693
  20 C :   -0.198960
  21 H :    0.033457
  22 C :   -0.030567
  23 H :    0.025587
  24 H :    0.028922
  25 C :   -0.035362
  26 H :    0.026817
  27 H :    0.023248
  28 C :   -0.057215
  29 H :    0.023231
  30 H :    0.019065
  31 H :    0.020909
  32 H :    0.013849
  33 H :    0.035380

  Mayer bond orders larger than 0.100000
B(  0-S ,  1-C ) :   1.1661 B(  0-S ,  4-C ) :   1.1578 B(  1-C ,  2-C ) :   1.5706
B(  1-C ,  4-C ) :   0.1047 B(  1-C , 32-H ) :   0.9793 B(  2-C ,  3-C ) :   1.2816
B(  2-C ,  6-C ) :   1.0220 B(  3-C ,  4-C ) :   1.5529 B(  3-C ,  5-H ) :   0.9974
B(  4-C , 20-C ) :   1.0263 B(  6-C ,  7-H ) :   0.9358 B(  6-C ,  8-H ) :   0.9413
B(  6-C ,  9-C ) :   1.0601 B(  9-C , 10-H ) :   0.9553 B(  9-C , 11-H ) :   0.9522
B(  9-C , 12-C ) :   1.0844 B( 12-C , 13-H ) :   0.9717 B( 12-C , 14-H ) :   0.9737
B( 12-C , 15-H ) :   0.9725 B( 16-S , 17-C ) :   1.1422 B( 16-S , 20-C ) :   1.1441
B( 17-C , 18-C ) :   1.6034 B( 17-C , 33-H ) :   0.9707 B( 18-C , 19-C ) :   1.2509
B( 18-C , 21-H ) :   0.9851 B( 19-C , 20-C ) :   1.5845 B( 19-C , 22-C ) :   1.0529
B( 22-C , 23-H ) :   0.9289 B( 22-C , 24-H ) :   0.9356 B( 22-C , 25-C ) :   1.0559
B( 25-C , 26-H ) :   0.9593 B( 25-C , 27-H ) :   0.9592 B( 25-C , 28-C ) :   1.0793
B( 28-C , 29-H ) :   0.9747 B( 28-C , 30-H ) :   0.9714 B( 28-C , 31-H ) :   0.9711

Dispersion correction           -0.013784824
FINAL SINGLE POINT ENERGY     -1339.872905585285

DIPOLE MOMENT
-------------
                                X             Y             Z
Electronic contribution:     10.60019     -22.32490     -16.93279
Nuclear contribution   :    -10.87278      22.74033      17.47750
                        -----------------------------------------
Total Dipole Moment    :     -0.27259       0.41543       0.54472
                        -----------------------------------------
Magnitude (a.u.)       :      0.73730
Magnitude (Debye)      :      1.87406

Rotational constants in cm-1:     0.017137     0.008251     0.006831
Rotational constants in MHz :   513.766820   247.361734   204.800167

                             ****ORCA TERMINATED NORMALLY****
TOTAL RUN TIME: 0 days 0 hours 0 minutes 34 seconds 332 msec
