                         Program Version 4.2.1 -  RELEASE  -
|  1> ! wB97X-D3 SP def2-SVP
|  2> %pal
|  3> nprocs 16
|  4> end
|  5>
|  6> * xyz 0 1
|  7> S 	 -56.1366 	 37.5888 	 92.0681
|  8> C 	 -57.7648 	 36.9525 	 92.4101
|  9> C 	 -58.2289 	 36.1381 	 91.4333
| 10> C 	 -57.22 	 35.8674 	 90.4415
| 11> C 	 -56.069 	 36.6025 	 90.6653
| 12> H 	 -57.3884 	 35.1232 	 89.6034
| 13> C 	 -59.7387 	 35.751 	 91.3196
| 14> H 	 -59.9662 	 35.2812 	 90.4098
| 15> H 	 -60.2608 	 36.7131 	 91.3196
| 16> C 	 -60.3235 	 34.895 	 92.4623
| 17> H 	 -60.0914 	 35.3998 	 93.4182
| 18> H 	 -61.3417 	 34.7247 	 92.1736
| 19> C 	 -59.5874 	 33.5789 	 92.6266
| 20> H 	 -58.8125 	 33.5375 	 93.3268
| 21> H 	 -60.2098 	 32.7578 	 92.8841
| 22> H 	 -59.1147 	 33.1306 	 91.6727
| 23> S 	 -53.2946 	 36.0583 	 90.761
| 24> C 	 -52.4664 	 35.978 	 89.2985
| 25> C 	 -53.2315 	 36.4755 	 88.2342
| 26> C 	 -54.6005 	 36.5717 	 88.5495
| 27> C 	 -54.7718 	 36.478 	 89.9387
| 28> H 	 -52.7356 	 36.7135 	 87.2829
| 29> C 	 -55.5806 	 37.1803 	 87.5396
| 30> H 	 -55.0392 	 37.7553 	 86.8071
| 31> H 	 -56.07 	 37.852 	 88.1631
| 32> C 	 -56.6106 	 36.1893 	 86.9796
| 33> H 	 -56.7877 	 36.6728 	 86.0737
| 34> H 	 -57.5142 	 36.1531 	 87.5344
| 35> C 	 -56.1058 	 34.7534 	 86.814
| 36> H 	 -55.7417 	 34.3466 	 87.6848
| 37> H 	 -55.3756 	 34.747 	 85.9211
| 38> H 	 -56.8878 	 34.0322 	 86.6567
| 39> H 	 -58.5111 	 37.3203 	 93.0987
| 40> H 	 -51.461 	 35.6675 	 89.2633
| 41> *
| 42>
| 43>                          ****END OF INPUT****

CARTESIAN COORDINATES (ANGSTROEM)
---------------------------------
  S    -56.136600   37.588800   92.068100
  C    -57.764800   36.952500   92.410100
  C    -58.228900   36.138100   91.433300
  C    -57.220000   35.867400   90.441500
  C    -56.069000   36.602500   90.665300
  H    -57.388400   35.123200   89.603400
  C    -59.738700   35.751000   91.319600
  H    -59.966200   35.281200   90.409800
  H    -60.260800   36.713100   91.319600
  C    -60.323500   34.895000   92.462300
  H    -60.091400   35.399800   93.418200
  H    -61.341700   34.724700   92.173600
  C    -59.587400   33.578900   92.626600
  H    -58.812500   33.537500   93.326800
  H    -60.209800   32.757800   92.884100
  H    -59.114700   33.130600   91.672700
  S    -53.294600   36.058300   90.761000
  C    -52.466400   35.978000   89.298500
  C    -53.231500   36.475500   88.234200
  C    -54.600500   36.571700   88.549500
  C    -54.771800   36.478000   89.938700
  H    -52.735600   36.713500   87.282900
  C    -55.580600   37.180300   87.539600
  H    -55.039200   37.755300   86.807100
  H    -56.070000   37.852000   88.163100
  C    -56.610600   36.189300   86.979600
  H    -56.787700   36.672800   86.073700
  H    -57.514200   36.153100   87.534400
  C    -56.105800   34.753400   86.814000
  H    -55.741700   34.346600   87.684800
  H    -55.375600   34.747000   85.921100
  H    -56.887800   34.032200   86.656700
  H    -58.511100   37.320300   93.098700
  H    -51.461000   35.667500   89.263300

 Total Charge           Charge          ....    0
 Multiplicity           Mult            ....    1
 Number of Electrons    NEL             ....  134
 Basis Dimension        Dim             ....  322

ORBITAL ENERGIES
----------------

  NO   OCC          E(Eh)            E(eV)
   0   2.0000     -88.969130     -2420.9731
   1   2.0000     -88.967369     -2420.9252
   2   2.0000     -10.329842      -281.0893
   3   2.0000     -10.323215      -280.9090
   4   2.0000     -10.308043      -280.4961
   5   2.0000     -10.307505      -280.4815
   6   2.0000     -10.299155      -280.2543
   7   2.0000     -10.298683      -280.2414
   8   2.0000     -10.297987      -280.2225
   9   2.0000     -10.292584      -280.0755
  10   2.0000     -10.290821      -280.0275
  11   2.0000     -10.289655      -279.9958
  12   2.0000     -10.282359      -279.7972
  13   2.0000     -10.274977      -279.5963
  14   2.0000     -10.272051      -279.5167
  15   2.0000     -10.270536      -279.4755
  16   2.0000      -8.083740      -219.9698
  17   2.0000      -8.083266      -219.9569
  18   2.0000      -6.042297      -164.4193
  19   2.0000      -6.041474      -164.3969
  20   2.0000      -6.038359      -164.3121
  21   2.0000      -6.037599      -164.2914
  22   2.0000      -6.034372      -164.2036
  23   2.0000      -6.034305      -164.2018
  24   2.0000      -1.009093       -27.4588
  25   2.0000      -0.987616       -26.8744
  26   2.0000      -0.913296       -24.8521
  27   2.0000      -0.912450       -24.8290
  28   2.0000      -0.864131       -23.5142
  29   2.0000      -0.852484       -23.1973
  30   2.0000      -0.841636       -22.9021
  31   2.0000      -0.809754       -22.0345
  32   2.0000      -0.790572       -21.5126
  33   2.0000      -0.779409       -21.2088
  34   2.0000      -0.708237       -19.2721
  35   2.0000      -0.702217       -19.1083
  36   2.0000      -0.691269       -18.8104
  37   2.0000      -0.659459       -17.9448
  38   2.0000      -0.628981       -17.1155
  39   2.0000      -0.611407       -16.6372
  40   2.0000      -0.591763       -16.1027
  41   2.0000      -0.580931       -15.8079
  42   2.0000      -0.572512       -15.5789
  43   2.0000      -0.546689       -14.8762
  44   2.0000      -0.543299       -14.7839
  45   2.0000      -0.540444       -14.7062
  46   2.0000      -0.519753       -14.1432
  47   2.0000      -0.504449       -13.7268
  48   2.0000      -0.498321       -13.5600
  49   2.0000      -0.491485       -13.3740
  50   2.0000      -0.486885       -13.2488
  51   2.0000      -0.482221       -13.1219
  52   2.0000      -0.467134       -12.7114
  53   2.0000      -0.466283       -12.6882
  54   2.0000      -0.456973       -12.4349
  55   2.0000      -0.452418       -12.3109
  56   2.0000      -0.447950       -12.1893
  57   2.0000      -0.436878       -11.8880
  58   2.0000      -0.431896       -11.7525
  59   2.0000      -0.426832       -11.6147
  60   2.0000      -0.415040       -11.2938
  61   2.0000      -0.414319       -11.2742
  62   2.0000      -0.412998       -11.2382
  63   2.0000      -0.342433        -9.3181
  64   2.0000      -0.334004        -9.0887
  65   2.0000      -0.330615        -8.9965
  66   2.0000      -0.288596        -7.8531
  67   0.0000       0.035574         0.9680
  68   0.0000       0.066943         1.8216
  69   0.0000       0.102194         2.7808
  70   0.0000       0.124559         3.3894
  71   0.0000       0.134832         3.6690

MULLIKEN ATOMIC CHARGES
-----------------------
   0 S :    0.114989
   1 C :   -0.113625
   2 C :   -0.109914
   3 C :    0.017806
   4 C :   -0.163153
   5 H :    0.030977
   6 C :    0.063768
   7 H :    0.005109
   8 H :    0.039448
   9 C :   -0.039473
  10 H :    0.038206
  11 H :    0.036987
  12 C :   -0.057597
  13 H :    0.026135
  14 H :    0.017394
  15 H :    0.019509
  16 S :    0.140874
  17 C :   -0.100888
  18 C :   -0.039908
  19 C :   -0.079528
  20 C :   -0.155922
  21 H :    0.025861
  22 C :    0.119289
  23 H :    0.021761
  24 H :    0.017076
  25 C :   -0.038451
  26 H :    0.010054
  27 H :    0.016733
  28 C :   -0.026800
  29 H :    0.022731
  30 H :    0.042560
  31 H :    0.016023
  32 H :    0.038765
  33 H :    0.043202
Sum of atomic charges:   -0.0000000

LOEWDIN ATOMIC CHARGES
----------------------
   0 S :    0.407724
   1 C :   -0.198490
   2 C :   -0.059729
   3 C :   -0.074285
   4 C :   -0.197183
   5 H :    0.040950
   6 C :   -0.022189
   7 H :    0.017841
   8 H :    0.034787
   9 C :   -0.036552
  10 H :    0.031858
  11 H :    0.027010
  12 C :   -0.073013
  13 H :    0.019183
  14 H :    0.021608
  15 H :    0.030057
  16 S :    0.447093
  17 C :   -0.204376
  18 C :   -0.073751
  19 C :   -0.051768
  20 C :   -0.218331
  21 H :    0.032598
  22 C :   -0.015828
  23 H :    0.029059
  24 H :    0.028798
  25 C :   -0.033908
  26 H :    0.019761
  27 H :    0.016581
  28 C :   -0.064119
  29 H :    0.013545
  30 H :    0.037238
  31 H :    0.023838
  32 H :    0.025874
  33 H :    0.018118

  Mayer bond orders larger than 0.100000
B(  0-S ,  1-C ) :   1.1099 B(  0-S ,  4-C ) :   1.1622 B(  1-C ,  2-C ) :   1.6697
B(  1-C , 32-H ) :   0.9579 B(  2-C ,  3-C ) :   1.2362 B(  2-C ,  6-C ) :   0.9983
B(  3-C ,  4-C ) :   1.5873 B(  3-C ,  5-H ) :   0.9770 B(  4-C , 20-C ) :   1.0014
B(  6-C ,  7-H ) :   0.9451 B(  6-C ,  8-H ) :   0.9451 B(  6-C ,  9-C ) :   1.0858
B(  9-C , 10-H ) :   0.9573 B(  9-C , 11-H ) :   0.9574 B(  9-C , 12-C ) :   1.0648
B( 12-C , 13-H ) :   0.9767 B( 12-C , 14-H ) :   0.9730 B( 12-C , 15-H ) :   0.9757
B( 16-S , 17-C ) :   1.1956 B( 16-S , 20-C ) :   1.1672 B( 17-C , 18-C ) :   1.5485
B( 17-C , 20-C ) :   0.1079 B( 17-C , 33-H ) :   0.9761 B( 18-C , 19-C ) :   1.2763
B( 18-C , 21-H ) :   0.9888 B( 19-C , 20-C ) :   1.5502 B( 19-C , 22-C ) :   1.0232
B( 22-C , 23-H ) :   0.9522 B( 22-C , 24-H ) :   0.9254 B( 22-C , 25-C ) :   1.0510
B( 25-C , 26-H ) :   0.9526 B( 25-C , 27-H ) :   0.9496 B( 25-C , 28-C ) :   1.1079
B( 28-C , 29-H ) :   0.9578 B( 28-C , 30-H ) :   0.9755 B( 28-C , 31-H ) :   0.9712

Dispersion correction           -0.015453769
FINAL SINGLE POINT ENERGY     -1339.845780919390

DIPOLE MOMENT
-------------
                                X             Y             Z
Electronic contribution:     20.51369      11.80255      10.57944
Nuclear contribution   :    -20.93990     -11.88838     -10.97554
                        -----------------------------------------
Total Dipole Moment    :     -0.42621      -0.08584      -0.39610
                        -----------------------------------------
Magnitude (a.u.)       :      0.58815
Magnitude (Debye)      :      1.49495

Rotational constants in cm-1:     0.020508     0.008823     0.007269
Rotational constants in MHz :   614.815672   264.518551   217.919870

                             ****ORCA TERMINATED NORMALLY****
TOTAL RUN TIME: 0 days 0 hours 0 minutes 31 seconds 800 msec
