                         Program Version 4.2.1 -  RELEASE  -
|  1> ! wB97X-D3 SP def2-SVP
|  2> %pal
|  3> nprocs 16
|  4> end
|  5>
|  6> * xyz 0 1
|  7> S 	 5.94904 	 -11.948 	 55.1024
|  8> C 	 4.22932 	 -11.8804 	 55.4977
|  9> C 	 3.73736 	 -12.9945 	 56.1143
| 10> C 	 4.85238 	 -13.9077 	 56.3079
| 11> C 	 6.09466 	 -13.4925 	 55.8715
| 12> H 	 4.72397 	 -14.883 	 56.7242
| 13> C 	 2.32457 	 -13.1916 	 56.5274
| 14> H 	 1.93114 	 -13.8584 	 55.7891
| 15> H 	 1.88002 	 -12.2488 	 56.4754
| 16> C 	 2.09609 	 -13.8861 	 57.8752
| 17> H 	 1.03319 	 -13.8885 	 58.1001
| 18> H 	 2.36764 	 -14.9584 	 57.726
| 19> C 	 2.8862 	 -13.3176 	 59.0177
| 20> H 	 3.90522 	 -13.2323 	 58.6949
| 21> H 	 2.53942 	 -12.3128 	 59.2875
| 22> H 	 2.85113 	 -13.8012 	 60.0057
| 23> S 	 8.50978 	 -14.0201 	 54.6489
| 24> C 	 9.62722 	 -14.9632 	 55.5014
| 25> C 	 9.30624 	 -15.2446 	 56.8361
| 26> C 	 7.92441 	 -14.802 	 57.0812
| 27> C 	 7.38089 	 -14.1865 	 55.9909
| 28> H 	 10.089 	 -15.7711 	 57.4288
| 29> C 	 7.23413 	 -14.9317 	 58.4316
| 30> H 	 7.57886 	 -15.8499 	 58.8598
| 31> H 	 6.18727 	 -15.0887 	 58.304
| 32> C 	 7.463 	 -13.7365 	 59.3396
| 33> H 	 7.12151 	 -12.8785 	 58.7529
| 34> H 	 8.51488 	 -13.5418 	 59.3124
| 35> C 	 6.82082 	 -13.7806 	 60.7739
| 36> H 	 6.92773 	 -12.8837 	 61.3268
| 37> H 	 7.23736 	 -14.47 	 61.4257
| 38> H 	 5.72732 	 -13.987 	 60.6824
| 39> H 	 3.58819 	 -11.0281 	 55.4247
| 40> H 	 10.6662 	 -15.1252 	 55.1301
| 41> *
| 42>
| 43>                          ****END OF INPUT****

CARTESIAN COORDINATES (ANGSTROEM)
---------------------------------
  S      5.949040  -11.948000   55.102400
  C      4.229320  -11.880400   55.497700
  C      3.737360  -12.994500   56.114300
  C      4.852380  -13.907700   56.307900
  C      6.094660  -13.492500   55.871500
  H      4.723970  -14.883000   56.724200
  C      2.324570  -13.191600   56.527400
  H      1.931140  -13.858400   55.789100
  H      1.880020  -12.248800   56.475400
  C      2.096090  -13.886100   57.875200
  H      1.033190  -13.888500   58.100100
  H      2.367640  -14.958400   57.726000
  C      2.886200  -13.317600   59.017700
  H      3.905220  -13.232300   58.694900
  H      2.539420  -12.312800   59.287500
  H      2.851130  -13.801200   60.005700
  S      8.509780  -14.020100   54.648900
  C      9.627220  -14.963200   55.501400
  C      9.306240  -15.244600   56.836100
  C      7.924410  -14.802000   57.081200
  C      7.380890  -14.186500   55.990900
  H     10.089000  -15.771100   57.428800
  C      7.234130  -14.931700   58.431600
  H      7.578860  -15.849900   58.859800
  H      6.187270  -15.088700   58.304000
  C      7.463000  -13.736500   59.339600
  H      7.121510  -12.878500   58.752900
  H      8.514880  -13.541800   59.312400
  C      6.820820  -13.780600   60.773900
  H      6.927730  -12.883700   61.326800
  H      7.237360  -14.470000   61.425700
  H      5.727320  -13.987000   60.682400
  H      3.588190  -11.028100   55.424700
  H     10.666200  -15.125200   55.130100

 Total Charge           Charge          ....    0
 Multiplicity           Mult            ....    1
 Number of Electrons    NEL             ....  134
 Basis Dimension        Dim             ....  322

ORBITAL ENERGIES
----------------

  NO   OCC          E(Eh)            E(eV)
   0   2.0000     -88.967882     -2420.9391
   1   2.0000     -88.965979     -2420.8874
   2   2.0000     -10.329051      -281.0678
   3   2.0000     -10.325698      -280.9765
   4   2.0000     -10.318107      -280.7700
   5   2.0000     -10.308413      -280.5062
   6   2.0000     -10.308285      -280.5027
   7   2.0000     -10.303927      -280.3841
   8   2.0000     -10.298865      -280.2464
   9   2.0000     -10.290862      -280.0286
  10   2.0000     -10.290271      -280.0125
  11   2.0000     -10.288259      -279.9578
  12   2.0000     -10.283555      -279.8297
  13   2.0000     -10.282126      -279.7909
  14   2.0000     -10.274834      -279.5924
  15   2.0000     -10.273630      -279.5597
  16   2.0000      -8.083695      -219.9685
  17   2.0000      -8.080792      -219.8895
  18   2.0000      -6.042064      -164.4129
  19   2.0000      -6.039412      -164.3408
  20   2.0000      -6.038174      -164.3071
  21   2.0000      -6.035400      -164.2316
  22   2.0000      -6.034428      -164.2051
  23   2.0000      -6.031318      -164.1205
  24   2.0000      -1.009901       -27.4808
  25   2.0000      -0.986544       -26.8452
  26   2.0000      -0.922030       -25.0897
  27   2.0000      -0.909451       -24.7474
  28   2.0000      -0.869649       -23.6643
  29   2.0000      -0.851000       -23.1569
  30   2.0000      -0.840865       -22.8811
  31   2.0000      -0.815826       -22.1998
  32   2.0000      -0.791707       -21.5435
  33   2.0000      -0.780080       -21.2270
  34   2.0000      -0.713309       -19.4101
  35   2.0000      -0.703443       -19.1417
  36   2.0000      -0.691107       -18.8060
  37   2.0000      -0.660200       -17.9650
  38   2.0000      -0.634946       -17.2778
  39   2.0000      -0.626288       -17.0422
  40   2.0000      -0.595641       -16.2082
  41   2.0000      -0.567281       -15.4365
  42   2.0000      -0.564705       -15.3664
  43   2.0000      -0.556256       -15.1365
  44   2.0000      -0.546870       -14.8811
  45   2.0000      -0.518372       -14.1056
  46   2.0000      -0.516400       -14.0520
  47   2.0000      -0.513059       -13.9611
  48   2.0000      -0.501089       -13.6353
  49   2.0000      -0.496707       -13.5161
  50   2.0000      -0.492204       -13.3936
  51   2.0000      -0.483241       -13.1497
  52   2.0000      -0.474139       -12.9020
  53   2.0000      -0.462420       -12.5831
  54   2.0000      -0.459098       -12.4927
  55   2.0000      -0.453644       -12.3443
  56   2.0000      -0.447433       -12.1753
  57   2.0000      -0.442839       -12.0503
  58   2.0000      -0.436224       -11.8703
  59   2.0000      -0.428675       -11.6648
  60   2.0000      -0.424015       -11.5380
  61   2.0000      -0.417292       -11.3551
  62   2.0000      -0.410521       -11.1708
  63   2.0000      -0.353693        -9.6245
  64   2.0000      -0.332826        -9.0566
  65   2.0000      -0.328637        -8.9427
  66   2.0000      -0.289369        -7.8741
  67   0.0000       0.032400         0.8817
  68   0.0000       0.072740         1.9794
  69   0.0000       0.107005         2.9118
  70   0.0000       0.117559         3.1989
  71   0.0000       0.131308         3.5731

MULLIKEN ATOMIC CHARGES
-----------------------
   0 S :    0.106740
   1 C :   -0.113215
   2 C :   -0.144173
   3 C :    0.004163
   4 C :   -0.125089
   5 H :    0.004807
   6 C :    0.163707
   7 H :    0.040646
   8 H :    0.001757
   9 C :   -0.096998
  10 H :    0.032284
  11 H :    0.031750
  12 C :   -0.048855
  13 H :    0.041104
  14 H :    0.018673
  15 H :    0.038309
  16 S :    0.117615
  17 C :   -0.103097
  18 C :   -0.061246
  19 C :   -0.079471
  20 C :   -0.144809
  21 H :    0.042092
  22 C :    0.134288
  23 H :    0.006701
  24 H :   -0.012843
  25 C :   -0.059736
  26 H :    0.026928
  27 H :    0.009600
  28 C :   -0.000458
  29 H :    0.024729
  30 H :    0.014683
  31 H :    0.032362
  32 H :    0.029301
  33 H :    0.067752
Sum of atomic charges:   -0.0000000

LOEWDIN ATOMIC CHARGES
----------------------
   0 S :    0.397503
   1 C :   -0.192532
   2 C :   -0.058694
   3 C :   -0.070216
   4 C :   -0.193096
   5 H :    0.020807
   6 C :   -0.020198
   7 H :    0.041144
   8 H :    0.023129
   9 C :   -0.042376
  10 H :    0.025989
  11 H :    0.026526
  12 C :   -0.072010
  13 H :    0.023568
  14 H :    0.026003
  15 H :    0.028621
  16 S :    0.419028
  17 C :   -0.205624
  18 C :   -0.078322
  19 C :   -0.045206
  20 C :   -0.196465
  21 H :    0.043303
  22 C :   -0.026013
  23 H :    0.024043
  24 H :    0.020075
  25 C :   -0.037360
  26 H :    0.028998
  27 H :    0.019472
  28 C :   -0.059468
  29 H :    0.025317
  30 H :    0.015720
  31 H :    0.031962
  32 H :    0.021965
  33 H :    0.034406

  Mayer bond orders larger than 0.100000
B(  0-S ,  1-C ) :   1.1206 B(  0-S ,  4-C ) :   1.1379 B(  1-C ,  2-C ) :   1.6557
B(  1-C , 32-H ) :   0.9584 B(  2-C ,  3-C ) :   1.2071 B(  2-C ,  6-C ) :   1.0197
B(  3-C ,  4-C ) :   1.6014 B(  3-C ,  5-H ) :   0.9922 B(  4-C , 20-C ) :   1.0433
B(  6-C ,  7-H ) :   0.9240 B(  6-C ,  8-H ) :   0.9299 B(  6-C ,  9-C ) :   1.0785
B(  9-C , 10-H ) :   0.9550 B(  9-C , 11-H ) :   0.9476 B(  9-C , 12-C ) :   1.0829
B( 12-C , 13-H ) :   0.9676 B( 12-C , 14-H ) :   0.9675 B( 12-C , 15-H ) :   0.9729
B( 16-S , 17-C ) :   1.1710 B( 16-S , 20-C ) :   1.1260 B( 17-C , 18-C ) :   1.6329
B( 17-C , 33-H ) :   0.9576 B( 18-C , 19-C ) :   1.2006 B( 18-C , 21-H ) :   0.9876
B( 19-C , 20-C ) :   1.6320 B( 19-C , 22-C ) :   1.0480 B( 22-C , 23-H ) :   0.9229
B( 22-C , 24-H ) :   0.9228 B( 22-C , 25-C ) :   1.0640 B( 25-C , 26-H ) :   0.9522
B( 25-C , 27-H ) :   0.9532 B( 25-C , 28-C ) :   1.0682 B( 28-C , 29-H ) :   0.9731
B( 28-C , 30-H ) :   0.9742 B( 28-C , 31-H ) :   0.9738

Dispersion correction           -0.015883986
FINAL SINGLE POINT ENERGY     -1339.881597738574

DIPOLE MOMENT
-------------
                                X             Y             Z
Electronic contribution:     14.91943       3.72230     -26.54920
Nuclear contribution   :    -15.16495      -3.88793      27.13339
                        -----------------------------------------
Total Dipole Moment    :     -0.24551      -0.16563       0.58418
                        -----------------------------------------
Magnitude (a.u.)       :      0.65496
Magnitude (Debye)      :      1.66479

Rotational constants in cm-1:     0.018201     0.010530     0.007500
Rotational constants in MHz :   545.644911   315.677655   224.829979

                             ****ORCA TERMINATED NORMALLY****
TOTAL RUN TIME: 0 days 0 hours 0 minutes 32 seconds 781 msec
