                         Program Version 4.2.1 -  RELEASE  -
|  1> ! wB97X-D3 SP def2-SVP
|  2> %pal
|  3> nprocs 16
|  4> end
|  5>
|  6> * xyz 0 1
|  7> S 	 -53.109 	 42.4447 	 107.195
|  8> C 	 -51.8505 	 43.5164 	 106.668
|  9> C 	 -52.1539 	 44.0519 	 105.414
| 10> C 	 -53.3397 	 43.4922 	 104.854
| 11> C 	 -54.0819 	 42.7251 	 105.735
| 12> H 	 -53.7207 	 43.715 	 103.845
| 13> C 	 -51.2894 	 45.0655 	 104.713
| 14> H 	 -50.9819 	 44.599 	 103.769
| 15> H 	 -50.4991 	 45.3121 	 105.344
| 16> C 	 -52.021 	 46.4309 	 104.553
| 17> H 	 -52.833 	 46.3665 	 103.797
| 18> H 	 -52.5339 	 46.7191 	 105.492
| 19> C 	 -51.0901 	 47.5557 	 104.224
| 20> H 	 -51.6051 	 48.3805 	 103.605
| 21> H 	 -50.8347 	 47.951 	 105.171
| 22> H 	 -50.2565 	 47.4237 	 103.6
| 23> S 	 -55.8245 	 41.3254 	 104.028
| 24> C 	 -57.4978 	 41.1874 	 104.474
| 25> C 	 -57.7492 	 41.8922 	 105.63
| 26> C 	 -56.5839 	 42.5071 	 106.143
| 27> C 	 -55.4443 	 42.1942 	 105.492
| 28> H 	 -58.753 	 41.9101 	 106.121
| 29> C 	 -56.604 	 43.251 	 107.407
| 30> H 	 -55.5999 	 43.5916 	 107.574
| 31> H 	 -56.8403 	 42.6079 	 108.178
| 32> C 	 -57.6476 	 44.3848 	 107.594
| 33> H 	 -57.5189 	 45.0892 	 108.45
| 34> H 	 -58.6827 	 43.9653 	 107.604
| 35> C 	 -57.7482 	 45.2868 	 106.385
| 36> H 	 -58.262 	 44.7797 	 105.503
| 37> H 	 -56.772 	 45.7161 	 106.144
| 38> H 	 -58.4372 	 46.065 	 106.638
| 39> H 	 -50.88 	 43.7579 	 107.142
| 40> H 	 -58.1735 	 40.5536 	 104.003
| 41> *
| 42>
| 43>                          ****END OF INPUT****

CARTESIAN COORDINATES (ANGSTROEM)
---------------------------------
  S    -53.109000   42.444700  107.195000
  C    -51.850500   43.516400  106.668000
  C    -52.153900   44.051900  105.414000
  C    -53.339700   43.492200  104.854000
  C    -54.081900   42.725100  105.735000
  H    -53.720700   43.715000  103.845000
  C    -51.289400   45.065500  104.713000
  H    -50.981900   44.599000  103.769000
  H    -50.499100   45.312100  105.344000
  C    -52.021000   46.430900  104.553000
  H    -52.833000   46.366500  103.797000
  H    -52.533900   46.719100  105.492000
  C    -51.090100   47.555700  104.224000
  H    -51.605100   48.380500  103.605000
  H    -50.834700   47.951000  105.171000
  H    -50.256500   47.423700  103.600000
  S    -55.824500   41.325400  104.028000
  C    -57.497800   41.187400  104.474000
  C    -57.749200   41.892200  105.630000
  C    -56.583900   42.507100  106.143000
  C    -55.444300   42.194200  105.492000
  H    -58.753000   41.910100  106.121000
  C    -56.604000   43.251000  107.407000
  H    -55.599900   43.591600  107.574000
  H    -56.840300   42.607900  108.178000
  C    -57.647600   44.384800  107.594000
  H    -57.518900   45.089200  108.450000
  H    -58.682700   43.965300  107.604000
  C    -57.748200   45.286800  106.385000
  H    -58.262000   44.779700  105.503000
  H    -56.772000   45.716100  106.144000
  H    -58.437200   46.065000  106.638000
  H    -50.880000   43.757900  107.142000
  H    -58.173500   40.553600  104.003000

 Total Charge           Charge          ....    0
 Multiplicity           Mult            ....    1
 Number of Electrons    NEL             ....  134
 Basis Dimension        Dim             ....  322

ORBITAL ENERGIES
----------------

  NO   OCC          E(Eh)            E(eV)
   0   2.0000     -88.969641     -2420.9870
   1   2.0000     -88.964542     -2420.8483
   2   2.0000     -10.333716      -281.1947
   3   2.0000     -10.322819      -280.8982
   4   2.0000     -10.315874      -280.7092
   5   2.0000     -10.314580      -280.6740
   6   2.0000     -10.298959      -280.2489
   7   2.0000     -10.295556      -280.1563
   8   2.0000     -10.295040      -280.1423
   9   2.0000     -10.292933      -280.0850
  10   2.0000     -10.289525      -279.9922
  11   2.0000     -10.288685      -279.9693
  12   2.0000     -10.286826      -279.9188
  13   2.0000     -10.273823      -279.5649
  14   2.0000     -10.273743      -279.5628
  15   2.0000     -10.269139      -279.4375
  16   2.0000      -8.083343      -219.9589
  17   2.0000      -8.079686      -219.8594
  18   2.0000      -6.041931      -164.4093
  19   2.0000      -6.038195      -164.3076
  20   2.0000      -6.037915      -164.3000
  21   2.0000      -6.034174      -164.1982
  22   2.0000      -6.034139      -164.1973
  23   2.0000      -6.030386      -164.0951
  24   2.0000      -1.010663       -27.5015
  25   2.0000      -0.987649       -26.8753
  26   2.0000      -0.914534       -24.8857
  27   2.0000      -0.911778       -24.8107
  28   2.0000      -0.871201       -23.7066
  29   2.0000      -0.852189       -23.1892
  30   2.0000      -0.849481       -23.1156
  31   2.0000      -0.817489       -22.2450
  32   2.0000      -0.783127       -21.3100
  33   2.0000      -0.772223       -21.0133
  34   2.0000      -0.706817       -19.2335
  35   2.0000      -0.692674       -18.8486
  36   2.0000      -0.691093       -18.8056
  37   2.0000      -0.663106       -18.0440
  38   2.0000      -0.633756       -17.2454
  39   2.0000      -0.618351       -16.8262
  40   2.0000      -0.598584       -16.2883
  41   2.0000      -0.574501       -15.6330
  42   2.0000      -0.566467       -15.4143
  43   2.0000      -0.557907       -15.1814
  44   2.0000      -0.545166       -14.8347
  45   2.0000      -0.530644       -14.4395
  46   2.0000      -0.524808       -14.2808
  47   2.0000      -0.511397       -13.9158
  48   2.0000      -0.508070       -13.8253
  49   2.0000      -0.503068       -13.6892
  50   2.0000      -0.490241       -13.3401
  51   2.0000      -0.479753       -13.0547
  52   2.0000      -0.467983       -12.7345
  53   2.0000      -0.465810       -12.6753
  54   2.0000      -0.459720       -12.5096
  55   2.0000      -0.448840       -12.2135
  56   2.0000      -0.436753       -11.8846
  57   2.0000      -0.432914       -11.7802
  58   2.0000      -0.424693       -11.5565
  59   2.0000      -0.423494       -11.5238
  60   2.0000      -0.418466       -11.3871
  61   2.0000      -0.412169       -11.2157
  62   2.0000      -0.409447       -11.1416
  63   2.0000      -0.347371        -9.4524
  64   2.0000      -0.331911        -9.0318
  65   2.0000      -0.326149        -8.8750
  66   2.0000      -0.295804        -8.0492
  67   0.0000       0.036897         1.0040
  68   0.0000       0.065439         1.7807
  69   0.0000       0.114821         3.1245
  70   0.0000       0.120049         3.2667
  71   0.0000       0.134164         3.6508

MULLIKEN ATOMIC CHARGES
-----------------------
   0 S :    0.116791
   1 C :   -0.121489
   2 C :   -0.143789
   3 C :    0.030845
   4 C :   -0.177392
   5 H :    0.023176
   6 C :    0.133281
   7 H :    0.044602
   8 H :   -0.010125
   9 C :   -0.104766
  10 H :    0.030571
  11 H :    0.036958
  12 C :   -0.041233
  13 H :    0.032538
  14 H :    0.029081
  15 H :    0.022914
  16 S :    0.104266
  17 C :   -0.068591
  18 C :   -0.035975
  19 C :   -0.053415
  20 C :   -0.140323
  21 H :    0.036884
  22 C :    0.153307
  23 H :    0.013113
  24 H :    0.017886
  25 C :   -0.123299
  26 H :    0.044130
  27 H :    0.022736
  28 C :   -0.062039
  29 H :    0.040294
  30 H :    0.034529
  31 H :    0.020199
  32 H :    0.058734
  33 H :    0.035601
Sum of atomic charges:   -0.0000000

LOEWDIN ATOMIC CHARGES
----------------------
   0 S :    0.410956
   1 C :   -0.216484
   2 C :   -0.065585
   3 C :   -0.063502
   4 C :   -0.183523
   5 H :    0.033610
   6 C :   -0.021792
   7 H :    0.037432
   8 H :    0.018965
   9 C :   -0.042391
  10 H :    0.021024
  11 H :    0.031010
  12 C :   -0.070774
  13 H :    0.038291
  14 H :    0.022476
  15 H :    0.017077
  16 S :    0.410940
  17 C :   -0.170880
  18 C :   -0.071632
  19 C :   -0.057649
  20 C :   -0.200947
  21 H :    0.040288
  22 C :   -0.030199
  23 H :    0.020328
  24 H :    0.026998
  25 C :   -0.045337
  26 H :    0.032450
  27 H :    0.023690
  28 C :   -0.072393
  29 H :    0.030718
  30 H :    0.022115
  31 H :    0.018970
  32 H :    0.038550
  33 H :    0.017203

  Mayer bond orders larger than 0.100000
B(  0-S ,  1-C ) :   1.1364 B(  0-S ,  4-C ) :   1.1470 B(  1-C ,  2-C ) :   1.6080
B(  1-C , 32-H ) :   0.9602 B(  2-C ,  3-C ) :   1.2500 B(  2-C ,  6-C ) :   1.0419
B(  3-C ,  4-C ) :   1.5808 B(  3-C ,  5-H ) :   0.9872 B(  4-C , 20-C ) :   0.9999
B(  6-C ,  7-H ) :   0.9323 B(  6-C ,  8-H ) :   0.9346 B(  6-C ,  9-C ) :   1.0530
B(  9-C , 10-H ) :   0.9587 B(  9-C , 11-H ) :   0.9625 B(  9-C , 12-C ) :   1.0783
B( 12-C , 13-H ) :   0.9719 B( 12-C , 14-H ) :   0.9803 B( 12-C , 15-H ) :   0.9756
B( 16-S , 17-C ) :   1.1645 B( 16-S , 20-C ) :   1.1269 B( 17-C , 18-C ) :   1.5968
B( 17-C , 33-H ) :   0.9763 B( 18-C , 19-C ) :   1.2326 B( 18-C , 21-H ) :   0.9857
B( 19-C , 20-C ) :   1.6137 B( 19-C , 22-C ) :   1.0557 B( 22-C , 23-H ) :   0.9190
B( 22-C , 24-H ) :   0.9292 B( 22-C , 25-C ) :   1.0587 B( 25-C , 26-H ) :   0.9614
B( 25-C , 27-H ) :   0.9521 B( 25-C , 28-C ) :   1.0923 B( 28-C , 29-H ) :   0.9655
B( 28-C , 30-H ) :   0.9766 B( 28-C , 31-H ) :   0.9739

Dispersion correction           -0.014574279
FINAL SINGLE POINT ENERGY     -1339.867491522926

DIPOLE MOMENT
-------------
                                X             Y             Z
Electronic contribution:      0.27518     -25.12760      -0.27153
Nuclear contribution   :     -0.35026      25.58590       0.26172
                        -----------------------------------------
Total Dipole Moment    :     -0.07507       0.45830      -0.00981
                        -----------------------------------------
Magnitude (a.u.)       :      0.46451
Magnitude (Debye)      :      1.18069

Rotational constants in cm-1:     0.019049     0.008093     0.007495
Rotational constants in MHz :   571.062223   242.623651   224.682700

                             ****ORCA TERMINATED NORMALLY****
TOTAL RUN TIME: 0 days 0 hours 0 minutes 31 seconds 56 msec
