                         Program Version 4.2.1 -  RELEASE  -
|  1> ! wB97X-D3 SP def2-SVP
|  2> %pal
|  3> nprocs 16
|  4> end
|  5>
|  6> * xyz 0 1
|  7> S 	 -29.3346 	 70.8234 	 110.457
|  8> C 	 -29.8679 	 69.8466 	 109.221
|  9> C 	 -31.0501 	 70.2677 	 108.652
| 10> C 	 -31.6713 	 71.2989 	 109.426
| 11> C 	 -30.812 	 71.7386 	 110.404
| 12> H 	 -32.5959 	 71.7089 	 109.09
| 13> C 	 -31.7918 	 69.6505 	 107.44
| 14> H 	 -30.9854 	 69.1462 	 106.959
| 15> H 	 -32.151 	 70.4238 	 106.796
| 16> C 	 -32.8774 	 68.5595 	 107.744
| 17> H 	 -32.4331 	 67.9178 	 108.479
| 18> H 	 -33.7553 	 68.9571 	 108.396
| 19> C 	 -33.4745 	 67.8006 	 106.487
| 20> H 	 -32.6259 	 67.523 	 105.827
| 21> H 	 -33.9373 	 66.8806 	 106.874
| 22> H 	 -34.2564 	 68.3866 	 105.871
| 23> S 	 -31.0886 	 72.4312 	 113.059
| 24> C 	 -31.3608 	 74.0464 	 113.552
| 25> C 	 -31.5573 	 74.8533 	 112.405
| 26> C 	 -31.2841 	 74.198 	 111.147
| 27> C 	 -30.9472 	 72.8189 	 111.359
| 28> H 	 -31.6653 	 75.8736 	 112.637
| 29> C 	 -31.2729 	 74.9572 	 109.821
| 30> H 	 -31.8497 	 75.8802 	 110.05
| 31> H 	 -31.9884 	 74.5329 	 109.139
| 32> C 	 -29.8547 	 75.1983 	 109.157
| 33> H 	 -29.4014 	 74.1868 	 109.011
| 34> H 	 -29.2181 	 75.6012 	 109.856
| 35> C 	 -29.8317 	 76.1296 	 107.963
| 36> H 	 -28.8823 	 76.1233 	 107.498
| 37> H 	 -30.0132 	 77.1437 	 108.306
| 38> H 	 -30.5696 	 75.6877 	 107.281
| 39> H 	 -29.3049 	 68.9188 	 108.953
| 40> H 	 -31.4578 	 74.2912 	 114.602
| 41> *
| 42>
| 43>                          ****END OF INPUT****

CARTESIAN COORDINATES (ANGSTROEM)
---------------------------------
  S    -29.334600   70.823400  110.457000
  C    -29.867900   69.846600  109.221000
  C    -31.050100   70.267700  108.652000
  C    -31.671300   71.298900  109.426000
  C    -30.812000   71.738600  110.404000
  H    -32.595900   71.708900  109.090000
  C    -31.791800   69.650500  107.440000
  H    -30.985400   69.146200  106.959000
  H    -32.151000   70.423800  106.796000
  C    -32.877400   68.559500  107.744000
  H    -32.433100   67.917800  108.479000
  H    -33.755300   68.957100  108.396000
  C    -33.474500   67.800600  106.487000
  H    -32.625900   67.523000  105.827000
  H    -33.937300   66.880600  106.874000
  H    -34.256400   68.386600  105.871000
  S    -31.088600   72.431200  113.059000
  C    -31.360800   74.046400  113.552000
  C    -31.557300   74.853300  112.405000
  C    -31.284100   74.198000  111.147000
  C    -30.947200   72.818900  111.359000
  H    -31.665300   75.873600  112.637000
  C    -31.272900   74.957200  109.821000
  H    -31.849700   75.880200  110.050000
  H    -31.988400   74.532900  109.139000
  C    -29.854700   75.198300  109.157000
  H    -29.401400   74.186800  109.011000
  H    -29.218100   75.601200  109.856000
  C    -29.831700   76.129600  107.963000
  H    -28.882300   76.123300  107.498000
  H    -30.013200   77.143700  108.306000
  H    -30.569600   75.687700  107.281000
  H    -29.304900   68.918800  108.953000
  H    -31.457800   74.291200  114.602000

 Total Charge           Charge          ....    0
 Multiplicity           Mult            ....    1
 Number of Electrons    NEL             ....  134
 Basis Dimension        Dim             ....  322

ORBITAL ENERGIES
----------------

  NO   OCC          E(Eh)            E(eV)
   0   2.0000     -88.965229     -2420.8669
   1   2.0000     -88.962829     -2420.8016
   2   2.0000     -10.324842      -280.9532
   3   2.0000     -10.324260      -280.9374
   4   2.0000     -10.316849      -280.7357
   5   2.0000     -10.310426      -280.5609
   6   2.0000     -10.310004      -280.5495
   7   2.0000     -10.297944      -280.2213
   8   2.0000     -10.296806      -280.1903
   9   2.0000     -10.294100      -280.1167
  10   2.0000     -10.293597      -280.1030
  11   2.0000     -10.293554      -280.1019
  12   2.0000     -10.291719      -280.0519
  13   2.0000     -10.290831      -280.0278
  14   2.0000     -10.280030      -279.7338
  15   2.0000     -10.273796      -279.5642
  16   2.0000      -8.082080      -219.9246
  17   2.0000      -8.078212      -219.8193
  18   2.0000      -6.040251      -164.3636
  19   2.0000      -6.036473      -164.2608
  20   2.0000      -6.036311      -164.2564
  21   2.0000      -6.033031      -164.1671
  22   2.0000      -6.032350      -164.1486
  23   2.0000      -6.029478      -164.0704
  24   2.0000      -1.012398       -27.5487
  25   2.0000      -0.984535       -26.7906
  26   2.0000      -0.901979       -24.5441
  27   2.0000      -0.901033       -24.5183
  28   2.0000      -0.866863       -23.5885
  29   2.0000      -0.852674       -23.2024
  30   2.0000      -0.848734       -23.0952
  31   2.0000      -0.809774       -22.0351
  32   2.0000      -0.781656       -21.2700
  33   2.0000      -0.766554       -20.8590
  34   2.0000      -0.706004       -19.2113
  35   2.0000      -0.698373       -19.0037
  36   2.0000      -0.689973       -18.7751
  37   2.0000      -0.660535       -17.9741
  38   2.0000      -0.642897       -17.4941
  39   2.0000      -0.624201       -16.9854
  40   2.0000      -0.593315       -16.1449
  41   2.0000      -0.565769       -15.3954
  42   2.0000      -0.557191       -15.1619
  43   2.0000      -0.547024       -14.8853
  44   2.0000      -0.527406       -14.3515
  45   2.0000      -0.523551       -14.2466
  46   2.0000      -0.518300       -14.1037
  47   2.0000      -0.508538       -13.8380
  48   2.0000      -0.503389       -13.6979
  49   2.0000      -0.498516       -13.5653
  50   2.0000      -0.490204       -13.3391
  51   2.0000      -0.480812       -13.0836
  52   2.0000      -0.469204       -12.7677
  53   2.0000      -0.463925       -12.6240
  54   2.0000      -0.457260       -12.4427
  55   2.0000      -0.451087       -12.2747
  56   2.0000      -0.443395       -12.0654
  57   2.0000      -0.438014       -11.9190
  58   2.0000      -0.432049       -11.7566
  59   2.0000      -0.427273       -11.6267
  60   2.0000      -0.420365       -11.4387
  61   2.0000      -0.410006       -11.1568
  62   2.0000      -0.407792       -11.0966
  63   2.0000      -0.342334        -9.3154
  64   2.0000      -0.327177        -8.9029
  65   2.0000      -0.326124        -8.8743
  66   2.0000      -0.295852        -8.0505
  67   0.0000       0.033221         0.9040
  68   0.0000       0.070295         1.9128
  69   0.0000       0.115342         3.1386
  70   0.0000       0.120721         3.2850
  71   0.0000       0.136750         3.7211

MULLIKEN ATOMIC CHARGES
-----------------------
   0 S :    0.136613
   1 C :   -0.138917
   2 C :   -0.145086
   3 C :    0.076701
   4 C :   -0.178709
   5 H :    0.003278
   6 C :    0.101422
   7 H :    0.007743
   8 H :    0.025708
   9 C :   -0.094953
  10 H :    0.021627
  11 H :    0.033396
  12 C :   -0.078438
  13 H :    0.038588
  14 H :    0.045677
  15 H :    0.056502
  16 S :    0.116997
  17 C :   -0.115564
  18 C :   -0.032112
  19 C :   -0.029999
  20 C :   -0.158569
  21 H :    0.009623
  22 C :    0.076056
  23 H :    0.009174
  24 H :    0.014093
  25 C :   -0.055740
  26 H :    0.035981
  27 H :    0.004966
  28 C :   -0.015053
  29 H :    0.028208
  30 H :    0.035830
  31 H :    0.034229
  32 H :    0.064276
  33 H :    0.066450
Sum of atomic charges:   -0.0000000

LOEWDIN ATOMIC CHARGES
----------------------
   0 S :    0.452557
   1 C :   -0.231722
   2 C :   -0.068256
   3 C :   -0.047193
   4 C :   -0.203989
   5 H :    0.029974
   6 C :   -0.028513
   7 H :    0.025443
   8 H :    0.025366
   9 C :   -0.049194
  10 H :    0.020031
  11 H :    0.029464
  12 C :   -0.075914
  13 H :    0.026479
  14 H :    0.030700
  15 H :    0.036388
  16 S :    0.432566
  17 C :   -0.200180
  18 C :   -0.073421
  19 C :   -0.048402
  20 C :   -0.219756
  21 H :    0.022740
  22 C :   -0.037114
  23 H :    0.031903
  24 H :    0.024974
  25 C :   -0.035190
  26 H :    0.030349
  27 H :    0.011502
  28 C :   -0.057340
  29 H :    0.023835
  30 H :    0.027882
  31 H :    0.028755
  32 H :    0.035277
  33 H :    0.030001

  Mayer bond orders larger than 0.100000
B(  0-S ,  1-C ) :   1.1723 B(  0-S ,  4-C ) :   1.1746 B(  1-C ,  2-C ) :   1.5924
B(  1-C , 32-H ) :   0.9593 B(  2-C ,  3-C ) :   1.2613 B(  2-C ,  6-C ) :   1.0281
B(  3-C ,  4-C ) :   1.5538 B(  3-C ,  5-H ) :   1.0053 B(  4-C , 20-C ) :   1.0175
B(  6-C ,  7-H ) :   0.9339 B(  6-C ,  8-H ) :   0.9417 B(  6-C ,  9-C ) :   1.0554
B(  9-C , 10-H ) :   0.9561 B(  9-C , 11-H ) :   0.9570 B(  9-C , 12-C ) :   1.0624
B( 12-C , 13-H ) :   0.9764 B( 12-C , 14-H ) :   0.9755 B( 12-C , 15-H ) :   0.9764
B( 16-S , 17-C ) :   1.1921 B( 16-S , 20-C ) :   1.1791 B( 17-C , 18-C ) :   1.5480
B( 17-C , 20-C ) :   0.1136 B( 17-C , 33-H ) :   0.9710 B( 18-C , 19-C ) :   1.2809
B( 18-C , 21-H ) :   0.9957 B( 19-C , 20-C ) :   1.5230 B( 19-C , 22-C ) :   1.0516
B( 22-C , 23-H ) :   0.9322 B( 22-C , 24-H ) :   0.9261 B( 22-C , 25-C ) :   1.0418
B( 25-C , 26-H ) :   0.9546 B( 25-C , 27-H ) :   0.9547 B( 25-C , 28-C ) :   1.0857
B( 28-C , 29-H ) :   0.9712 B( 28-C , 30-H ) :   0.9750 B( 28-C , 31-H ) :   0.9771

Dispersion correction           -0.013923409
FINAL SINGLE POINT ENERGY     -1339.866196875260

DIPOLE MOMENT
-------------
                                X             Y             Z
Electronic contribution:      8.23986      -1.57140      24.30305
Nuclear contribution   :     -8.40686       1.68306     -24.67895
                        -----------------------------------------
Total Dipole Moment    :     -0.16699       0.11166      -0.37591
                        -----------------------------------------
Magnitude (a.u.)       :      0.42622
Magnitude (Debye)      :      1.08336

Rotational constants in cm-1:     0.018045     0.007802     0.006589
Rotational constants in MHz :   540.980315   233.887055   197.546907

                             ****ORCA TERMINATED NORMALLY****
TOTAL RUN TIME: 0 days 0 hours 0 minutes 29 seconds 155 msec
