                         Program Version 4.2.1 -  RELEASE  -
|  1> ! wB97X-D3 SP def2-SVP
|  2> %pal
|  3> nprocs 16
|  4> end
|  5>
|  6> * xyz 0 1
|  7> S 	 -22.4621 	 47.9429 	 63.7511
|  8> C 	 -21.6071 	 49.1846 	 62.9351
|  9> C 	 -21.3533 	 50.2813 	 63.6798
| 10> C 	 -21.8166 	 50.1348 	 65.0083
| 11> C 	 -22.4411 	 48.9226 	 65.1906
| 12> H 	 -21.7458 	 50.8739 	 65.8187
| 13> C 	 -20.6842 	 51.5883 	 63.0873
| 14> H 	 -21.5568 	 52.2103 	 62.8586
| 15> H 	 -20.2257 	 51.3757 	 62.1081
| 16> C 	 -19.5933 	 52.2769 	 64.0394
| 17> H 	 -19.1768 	 53.1351 	 63.4556
| 18> H 	 -19.9655 	 52.6995 	 64.9562
| 19> C 	 -18.3924 	 51.3197 	 64.2633
| 20> H 	 -17.9277 	 51.0015 	 63.3225
| 21> H 	 -17.5535 	 51.7784 	 64.8165
| 22> H 	 -18.7166 	 50.3416 	 64.7196
| 23> S 	 -24.9164 	 48.1616 	 66.2132
| 24> C 	 -25.0634 	 48.0742 	 67.9563
| 25> C 	 -23.876 	 48.3924 	 68.6274
| 26> C 	 -22.7964 	 48.6504 	 67.7044
| 27> C 	 -23.1965 	 48.5536 	 66.3587
| 28> H 	 -23.8163 	 48.2201 	 69.7263
| 29> C 	 -21.3447 	 49.1195 	 68.0878
| 30> H 	 -21.3555 	 50.2892 	 68.117
| 31> H 	 -20.6254 	 48.7599 	 67.3924
| 32> C 	 -20.9241 	 48.7346 	 69.5055
| 33> H 	 -20.9536 	 47.634 	 69.5591
| 34> H 	 -21.6992 	 48.9575 	 70.2711
| 35> C 	 -19.5466 	 49.2268 	 69.9413
| 36> H 	 -18.7615 	 48.914 	 69.247
| 37> H 	 -19.2966 	 48.8132 	 70.8863
| 38> H 	 -19.6492 	 50.3286 	 69.985
| 39> H 	 -21.3095 	 49.1597 	 61.8348
| 40> H 	 -25.9742 	 47.6095 	 68.3363
| 41> *
| 42>
| 43>                          ****END OF INPUT****

CARTESIAN COORDINATES (ANGSTROEM)
---------------------------------
  S    -22.462100   47.942900   63.751100
  C    -21.607100   49.184600   62.935100
  C    -21.353300   50.281300   63.679800
  C    -21.816600   50.134800   65.008300
  C    -22.441100   48.922600   65.190600
  H    -21.745800   50.873900   65.818700
  C    -20.684200   51.588300   63.087300
  H    -21.556800   52.210300   62.858600
  H    -20.225700   51.375700   62.108100
  C    -19.593300   52.276900   64.039400
  H    -19.176800   53.135100   63.455600
  H    -19.965500   52.699500   64.956200
  C    -18.392400   51.319700   64.263300
  H    -17.927700   51.001500   63.322500
  H    -17.553500   51.778400   64.816500
  H    -18.716600   50.341600   64.719600
  S    -24.916400   48.161600   66.213200
  C    -25.063400   48.074200   67.956300
  C    -23.876000   48.392400   68.627400
  C    -22.796400   48.650400   67.704400
  C    -23.196500   48.553600   66.358700
  H    -23.816300   48.220100   69.726300
  C    -21.344700   49.119500   68.087800
  H    -21.355500   50.289200   68.117000
  H    -20.625400   48.759900   67.392400
  C    -20.924100   48.734600   69.505500
  H    -20.953600   47.634000   69.559100
  H    -21.699200   48.957500   70.271100
  C    -19.546600   49.226800   69.941300
  H    -18.761500   48.914000   69.247000
  H    -19.296600   48.813200   70.886300
  H    -19.649200   50.328600   69.985000
  H    -21.309500   49.159700   61.834800
  H    -25.974200   47.609500   68.336300

 Total Charge           Charge          ....    0
 Multiplicity           Mult            ....    1
 Number of Electrons    NEL             ....  134
 Basis Dimension        Dim             ....  322

ORBITAL ENERGIES
----------------

  NO   OCC          E(Eh)            E(eV)
   0   2.0000     -88.967633     -2420.9324
   1   2.0000     -88.964734     -2420.8535
   2   2.0000     -10.324165      -280.9348
   3   2.0000     -10.323547      -280.9180
   4   2.0000     -10.320314      -280.8300
   5   2.0000     -10.310497      -280.5629
   6   2.0000     -10.309593      -280.5383
   7   2.0000     -10.304962      -280.4123
   8   2.0000     -10.303641      -280.3763
   9   2.0000     -10.301298      -280.3126
  10   2.0000     -10.298368      -280.2328
  11   2.0000     -10.298324      -280.2316
  12   2.0000     -10.294445      -280.1261
  13   2.0000     -10.285717      -279.8886
  14   2.0000     -10.283118      -279.8179
  15   2.0000     -10.278763      -279.6994
  16   2.0000      -8.083213      -219.9554
  17   2.0000      -8.079300      -219.8489
  18   2.0000      -6.041550      -164.3989
  19   2.0000      -6.037750      -164.2955
  20   2.0000      -6.037742      -164.2953
  21   2.0000      -6.033971      -164.1927
  22   2.0000      -6.033843      -164.1892
  23   2.0000      -6.030145      -164.0886
  24   2.0000      -1.010223       -27.4896
  25   2.0000      -0.980947       -26.6929
  26   2.0000      -0.905660       -24.6443
  27   2.0000      -0.899319       -24.4717
  28   2.0000      -0.868482       -23.6326
  29   2.0000      -0.851229       -23.1631
  30   2.0000      -0.843255       -22.9461
  31   2.0000      -0.809153       -22.0182
  32   2.0000      -0.781664       -21.2702
  33   2.0000      -0.767892       -20.8954
  34   2.0000      -0.706275       -19.2187
  35   2.0000      -0.696486       -18.9524
  36   2.0000      -0.689166       -18.7532
  37   2.0000      -0.648953       -17.6589
  38   2.0000      -0.635107       -17.2821
  39   2.0000      -0.620257       -16.8781
  40   2.0000      -0.596594       -16.2341
  41   2.0000      -0.567494       -15.4423
  42   2.0000      -0.556971       -15.1560
  43   2.0000      -0.549958       -14.9651
  44   2.0000      -0.534873       -14.5546
  45   2.0000      -0.526142       -14.3170
  46   2.0000      -0.517046       -14.0695
  47   2.0000      -0.502564       -13.6755
  48   2.0000      -0.495120       -13.4729
  49   2.0000      -0.488006       -13.2793
  50   2.0000      -0.484250       -13.1771
  51   2.0000      -0.482287       -13.1237
  52   2.0000      -0.472629       -12.8609
  53   2.0000      -0.461929       -12.5697
  54   2.0000      -0.459186       -12.4951
  55   2.0000      -0.450209       -12.2508
  56   2.0000      -0.449608       -12.2344
  57   2.0000      -0.441147       -12.0042
  58   2.0000      -0.432258       -11.7623
  59   2.0000      -0.429830       -11.6963
  60   2.0000      -0.420732       -11.4487
  61   2.0000      -0.413386       -11.2488
  62   2.0000      -0.409645       -11.1470
  63   2.0000      -0.347167        -9.4469
  64   2.0000      -0.333529        -9.0758
  65   2.0000      -0.330664        -8.9978
  66   2.0000      -0.289788        -7.8855
  67   0.0000       0.029835         0.8119
  68   0.0000       0.073588         2.0024
  69   0.0000       0.115546         3.1442
  70   0.0000       0.119565         3.2535
  71   0.0000       0.135483         3.6867

MULLIKEN ATOMIC CHARGES
-----------------------
   0 S :    0.126864
   1 C :   -0.149470
   2 C :   -0.084142
   3 C :    0.020619
   4 C :   -0.181669
   5 H :    0.020080
   6 C :    0.054751
   7 H :    0.050961
   8 H :    0.022612
   9 C :   -0.073230
  10 H :    0.037504
  11 H :    0.037001
  12 C :   -0.082161
  13 H :    0.022704
  14 H :    0.042361
  15 H :    0.049890
  16 S :    0.103267
  17 C :   -0.118095
  18 C :   -0.045484
  19 C :   -0.046255
  20 C :   -0.134675
  21 H :    0.046055
  22 C :    0.055342
  23 H :    0.049857
  24 H :    0.039469
  25 C :   -0.140589
  26 H :    0.020951
  27 H :    0.030109
  28 C :   -0.002775
  29 H :    0.034365
  30 H :    0.027261
  31 H :    0.034210
  32 H :    0.063358
  33 H :    0.068951
Sum of atomic charges:   -0.0000000

LOEWDIN ATOMIC CHARGES
----------------------
   0 S :    0.421597
   1 C :   -0.220244
   2 C :   -0.072682
   3 C :   -0.054952
   4 C :   -0.199617
   5 H :    0.036399
   6 C :   -0.024808
   7 H :    0.035307
   8 H :    0.029313
   9 C :   -0.041627
  10 H :    0.031623
  11 H :    0.019510
  12 C :   -0.075809
  13 H :    0.024037
  14 H :    0.027982
  15 H :    0.030911
  16 S :    0.396212
  17 C :   -0.185501
  18 C :   -0.079295
  19 C :   -0.054569
  20 C :   -0.199421
  21 H :    0.040877
  22 C :   -0.028540
  23 H :    0.038414
  24 H :    0.027711
  25 C :   -0.056935
  26 H :    0.020700
  27 H :    0.022925
  28 C :   -0.057929
  29 H :    0.027494
  30 H :    0.023249
  31 H :    0.028530
  32 H :    0.040941
  33 H :    0.028197

  Mayer bond orders larger than 0.100000
B(  0-S ,  1-C ) :   1.1363 B(  0-S ,  4-C ) :   1.1550 B(  1-C ,  2-C ) :   1.6508
B(  1-C , 32-H ) :   0.9503 B(  2-C ,  3-C ) :   1.2402 B(  2-C ,  6-C ) :   0.9942
B(  3-C ,  4-C ) :   1.5649 B(  3-C ,  5-H ) :   0.9923 B(  4-C , 20-C ) :   1.0549
B(  6-C ,  7-H ) :   0.9449 B(  6-C ,  8-H ) :   0.9478 B(  6-C ,  9-C ) :   1.0597
B(  9-C , 10-H ) :   0.9575 B(  9-C , 11-H ) :   0.9604 B(  9-C , 12-C ) :   1.0654
B( 12-C , 13-H ) :   0.9742 B( 12-C , 14-H ) :   0.9757 B( 12-C , 15-H ) :   0.9748
B( 16-S , 17-C ) :   1.1646 B( 16-S , 20-C ) :   1.1402 B( 17-C , 18-C ) :   1.5924
B( 17-C , 20-C ) :   0.1035 B( 17-C , 33-H ) :   0.9648 B( 18-C , 19-C ) :   1.2466
B( 18-C , 21-H ) :   0.9787 B( 19-C , 20-C ) :   1.5944 B( 19-C , 22-C ) :   1.0312
B( 22-C , 23-H ) :   0.9339 B( 22-C , 24-H ) :   0.9361 B( 22-C , 25-C ) :   1.0654
B( 25-C , 26-H ) :   0.9542 B( 25-C , 27-H ) :   0.9481 B( 25-C , 28-C ) :   1.0871
B( 28-C , 29-H ) :   0.9732 B( 28-C , 30-H ) :   0.9704 B( 28-C , 31-H ) :   0.9744

Dispersion correction           -0.014295141
FINAL SINGLE POINT ENERGY     -1339.886821375370

DIPOLE MOMENT
-------------
                                X             Y             Z
Electronic contribution:    -24.99354     -14.43429     -10.53046
Nuclear contribution   :     25.40900      14.80745      10.71144
                        -----------------------------------------
Total Dipole Moment    :      0.41546       0.37317       0.18098
                        -----------------------------------------
Magnitude (a.u.)       :      0.58704
Magnitude (Debye)      :      1.49213

Rotational constants in cm-1:     0.015800     0.009968     0.006771
Rotational constants in MHz :   473.679425   298.837638   203.004286

                             ****ORCA TERMINATED NORMALLY****
TOTAL RUN TIME: 0 days 0 hours 0 minutes 36 seconds 46 msec
