                         Program Version 4.2.1 -  RELEASE  -
|  1> ! wB97X-D3 SP def2-SVP
|  2> %pal
|  3> nprocs 16
|  4> end
|  5>
|  6> * xyz 0 1
|  7> S 	 -55.0131 	 23.1885 	 95.7688
|  8> C 	 -53.3849 	 22.6651 	 95.314
|  9> C 	 -52.5955 	 23.7245 	 94.9472
| 10> C 	 -53.3826 	 24.9041 	 94.8682
| 11> C 	 -54.74 	 24.7727 	 95.2568
| 12> H 	 -53.127 	 25.9148 	 94.4615
| 13> C 	 -51.3325 	 23.6409 	 94.2176
| 14> H 	 -51.115 	 24.4575 	 93.5256
| 15> H 	 -51.3717 	 22.7923 	 93.5892
| 16> C 	 -50.0456 	 23.2986 	 95.0623
| 17> H 	 -49.5368 	 24.2368 	 95.3768
| 18> H 	 -50.1801 	 22.8283 	 96.0169
| 19> C 	 -48.8657 	 22.527 	 94.3468
| 20> H 	 -47.9068 	 22.5935 	 94.8446
| 21> H 	 -48.9798 	 21.4593 	 94.2767
| 22> H 	 -48.7258 	 22.8828 	 93.3587
| 23> S 	 -57.2791 	 25.4042 	 94.4405
| 24> C 	 -57.9054 	 27.0173 	 94.5777
| 25> C 	 -56.9907 	 27.8426 	 95.2573
| 26> C 	 -55.7274 	 27.2057 	 95.429
| 27> C 	 -55.7194 	 25.8223 	 95.163
| 28> H 	 -57.292 	 28.8591 	 95.4636
| 29> C 	 -54.6443 	 27.9217 	 96.1373
| 30> H 	 -53.8987 	 28.2013 	 95.4358
| 31> H 	 -54.0824 	 27.2087 	 96.7973
| 32> C 	 -55.0291 	 29.15 	 96.9957
| 33> H 	 -55.7455 	 28.8915 	 97.7835
| 34> H 	 -55.6041 	 29.8548 	 96.4299
| 35> C 	 -53.9421 	 29.9186 	 97.6381
| 36> H 	 -53.4077 	 29.133 	 98.2095
| 37> H 	 -54.3233 	 30.7772 	 98.2417
| 38> H 	 -53.3214 	 30.3165 	 96.817
| 39> H 	 -52.9898 	 21.6784 	 95.184
| 40> H 	 -58.9821 	 27.2839 	 94.2842
| 41> *
| 42>
| 43>                          ****END OF INPUT****

CARTESIAN COORDINATES (ANGSTROEM)
---------------------------------
  S    -55.013100   23.188500   95.768800
  C    -53.384900   22.665100   95.314000
  C    -52.595500   23.724500   94.947200
  C    -53.382600   24.904100   94.868200
  C    -54.740000   24.772700   95.256800
  H    -53.127000   25.914800   94.461500
  C    -51.332500   23.640900   94.217600
  H    -51.115000   24.457500   93.525600
  H    -51.371700   22.792300   93.589200
  C    -50.045600   23.298600   95.062300
  H    -49.536800   24.236800   95.376800
  H    -50.180100   22.828300   96.016900
  C    -48.865700   22.527000   94.346800
  H    -47.906800   22.593500   94.844600
  H    -48.979800   21.459300   94.276700
  H    -48.725800   22.882800   93.358700
  S    -57.279100   25.404200   94.440500
  C    -57.905400   27.017300   94.577700
  C    -56.990700   27.842600   95.257300
  C    -55.727400   27.205700   95.429000
  C    -55.719400   25.822300   95.163000
  H    -57.292000   28.859100   95.463600
  C    -54.644300   27.921700   96.137300
  H    -53.898700   28.201300   95.435800
  H    -54.082400   27.208700   96.797300
  C    -55.029100   29.150000   96.995700
  H    -55.745500   28.891500   97.783500
  H    -55.604100   29.854800   96.429900
  C    -53.942100   29.918600   97.638100
  H    -53.407700   29.133000   98.209500
  H    -54.323300   30.777200   98.241700
  H    -53.321400   30.316500   96.817000
  H    -52.989800   21.678400   95.184000
  H    -58.982100   27.283900   94.284200

 Total Charge           Charge          ....    0
 Multiplicity           Mult            ....    1
 Number of Electrons    NEL             ....  134
 Basis Dimension        Dim             ....  322

ORBITAL ENERGIES
----------------

  NO   OCC          E(Eh)            E(eV)
   0   2.0000     -88.972121     -2421.0545
   1   2.0000     -88.964855     -2420.8568
   2   2.0000     -10.330383      -281.1040
   3   2.0000     -10.327916      -281.0369
   4   2.0000     -10.326283      -280.9924
   5   2.0000     -10.313678      -280.6495
   6   2.0000     -10.307629      -280.4848
   7   2.0000     -10.299599      -280.2663
   8   2.0000     -10.297426      -280.2072
   9   2.0000     -10.296372      -280.1785
  10   2.0000     -10.292234      -280.0659
  11   2.0000     -10.290688      -280.0239
  12   2.0000     -10.289719      -279.9975
  13   2.0000     -10.281122      -279.7636
  14   2.0000     -10.279444      -279.7179
  15   2.0000     -10.275327      -279.6059
  16   2.0000      -8.087096      -220.0611
  17   2.0000      -8.079625      -219.8578
  18   2.0000      -6.045629      -164.5099
  19   2.0000      -6.041411      -164.3951
  20   2.0000      -6.038083      -164.3046
  21   2.0000      -6.037964      -164.3014
  22   2.0000      -6.033932      -164.1916
  23   2.0000      -6.030637      -164.1020
  24   2.0000      -1.011496       -27.5242
  25   2.0000      -0.987051       -26.8590
  26   2.0000      -0.916719       -24.9452
  27   2.0000      -0.913081       -24.8462
  28   2.0000      -0.869547       -23.6616
  29   2.0000      -0.859043       -23.3758
  30   2.0000      -0.847887       -23.0722
  31   2.0000      -0.810753       -22.0617
  32   2.0000      -0.787432       -21.4271
  33   2.0000      -0.772433       -21.0190
  34   2.0000      -0.709098       -19.2955
  35   2.0000      -0.705698       -19.2030
  36   2.0000      -0.698125       -18.9969
  37   2.0000      -0.653846       -17.7920
  38   2.0000      -0.639547       -17.4030
  39   2.0000      -0.617987       -16.8163
  40   2.0000      -0.600443       -16.3389
  41   2.0000      -0.578693       -15.7470
  42   2.0000      -0.570640       -15.5279
  43   2.0000      -0.551684       -15.0121
  44   2.0000      -0.531603       -14.4656
  45   2.0000      -0.524234       -14.2651
  46   2.0000      -0.519543       -14.1375
  47   2.0000      -0.514942       -14.0123
  48   2.0000      -0.511110       -13.9080
  49   2.0000      -0.502329       -13.6691
  50   2.0000      -0.492164       -13.3925
  51   2.0000      -0.483072       -13.1451
  52   2.0000      -0.468027       -12.7357
  53   2.0000      -0.464827       -12.6486
  54   2.0000      -0.459863       -12.5135
  55   2.0000      -0.457929       -12.4609
  56   2.0000      -0.440996       -12.0001
  57   2.0000      -0.438846       -11.9416
  58   2.0000      -0.431790       -11.7496
  59   2.0000      -0.422891       -11.5074
  60   2.0000      -0.418277       -11.3819
  61   2.0000      -0.412998       -11.2382
  62   2.0000      -0.411979       -11.2105
  63   2.0000      -0.347896        -9.4667
  64   2.0000      -0.333726        -9.0812
  65   2.0000      -0.329256        -8.9595
  66   2.0000      -0.285931        -7.7806
  67   0.0000       0.020681         0.5628
  68   0.0000       0.071808         1.9540
  69   0.0000       0.117461         3.1963
  70   0.0000       0.119117         3.2413
  71   0.0000       0.130211         3.5432

MULLIKEN ATOMIC CHARGES
-----------------------
   0 S :    0.134542
   1 C :   -0.109997
   2 C :   -0.014721
   3 C :   -0.026086
   4 C :   -0.150748
   5 H :    0.022304
   6 C :    0.072991
   7 H :    0.036010
   8 H :    0.017253
   9 C :   -0.097898
  10 H :    0.027798
  11 H :    0.029496
  12 C :   -0.059325
  13 H :    0.029750
  14 H :    0.024306
  15 H :    0.021026
  16 S :    0.100675
  17 C :   -0.121719
  18 C :   -0.049162
  19 C :   -0.014075
  20 C :   -0.151616
  21 H :    0.024821
  22 C :    0.055221
  23 H :    0.018897
  24 H :    0.036863
  25 C :   -0.098393
  26 H :    0.025646
  27 H :    0.012197
  28 C :   -0.038674
  29 H :    0.036034
  30 H :    0.048978
  31 H :    0.029621
  32 H :    0.038734
  33 H :    0.089253
Sum of atomic charges:   -0.0000000

LOEWDIN ATOMIC CHARGES
----------------------
   0 S :    0.436080
   1 C :   -0.188147
   2 C :   -0.065260
   3 C :   -0.067018
   4 C :   -0.225167
   5 H :    0.034491
   6 C :   -0.028166
   7 H :    0.037138
   8 H :    0.030563
   9 C :   -0.041514
  10 H :    0.026412
  11 H :    0.021359
  12 C :   -0.069749
  13 H :    0.028539
  14 H :    0.019637
  15 H :    0.017920
  16 S :    0.408937
  17 C :   -0.200263
  18 C :   -0.075155
  19 C :   -0.052815
  20 C :   -0.196703
  21 H :    0.032833
  22 C :   -0.035771
  23 H :    0.026249
  24 H :    0.038239
  25 C :   -0.050433
  26 H :    0.024612
  27 H :    0.013314
  28 C :   -0.064076
  29 H :    0.029085
  30 H :    0.035180
  31 H :    0.025119
  32 H :    0.027628
  33 H :    0.046903

  Mayer bond orders larger than 0.100000
B(  0-S ,  1-C ) :   1.1441 B(  0-S ,  4-C ) :   1.1653 B(  1-C ,  2-C ) :   1.5832
B(  1-C , 32-H ) :   0.9655 B(  2-C ,  3-C ) :   1.2546 B(  2-C ,  6-C ) :   1.0338
B(  3-C ,  4-C ) :   1.5318 B(  3-C ,  5-H ) :   0.9895 B(  4-C , 20-C ) :   1.0752
B(  6-C ,  7-H ) :   0.9476 B(  6-C ,  8-H ) :   0.9497 B(  6-C ,  9-C ) :   1.0213
B(  9-C , 10-H ) :   0.9586 B(  9-C , 11-H ) :   0.9677 B(  9-C , 12-C ) :   1.0753
B( 12-C , 13-H ) :   0.9759 B( 12-C , 14-H ) :   0.9763 B( 12-C , 15-H ) :   0.9770
B( 16-S , 17-C ) :   1.1848 B( 16-S , 20-C ) :   1.1374 B( 17-C , 18-C ) :   1.5599
B( 17-C , 20-C ) :   0.1098 B( 17-C , 33-H ) :   0.9547 B( 18-C , 19-C ) :   1.2718
B( 18-C , 21-H ) :   0.9902 B( 19-C , 20-C ) :   1.5456 B( 19-C , 22-C ) :   1.0465
B( 22-C , 23-H ) :   0.9114 B( 22-C , 24-H ) :   0.9354 B( 22-C , 25-C ) :   1.0790
B( 25-C , 26-H ) :   0.9505 B( 25-C , 27-H ) :   0.9394 B( 25-C , 28-C ) :   1.0916
B( 28-C , 29-H ) :   0.9742 B( 28-C , 30-H ) :   0.9688 B( 28-C , 31-H ) :   0.9734

Dispersion correction           -0.013084691
FINAL SINGLE POINT ENERGY     -1339.856145873645

DIPOLE MOMENT
-------------
                                X             Y             Z
Electronic contribution:    -26.25823     -11.14635      -4.24626
Nuclear contribution   :     26.64012      11.52913       4.12502
                        -----------------------------------------
Total Dipole Moment    :      0.38189       0.38279      -0.12124
                        -----------------------------------------
Magnitude (a.u.)       :      0.55413
Magnitude (Debye)      :      1.40850

Rotational constants in cm-1:     0.018658     0.007444     0.005739
Rotational constants in MHz :   559.355030   223.155791   172.063173

                             ****ORCA TERMINATED NORMALLY****
TOTAL RUN TIME: 0 days 0 hours 0 minutes 28 seconds 628 msec
