                         Program Version 4.2.1 -  RELEASE  -
|  1> ! wB97X-D3 SP def2-SVP
|  2> %pal
|  3> nprocs 16
|  4> end
|  5>
|  6> * xyz 0 1
|  7> S 	 2.52466 	 -16.9144 	 77.9092
|  8> C 	 1.64896 	 -16.5653 	 79.4289
|  9> C 	 2.1363 	 -15.4636 	 80.1177
| 10> C 	 3.09922 	 -14.7446 	 79.3084
| 11> C 	 3.44204 	 -15.4449 	 78.1495
| 12> H 	 3.66836 	 -13.8587 	 79.6601
| 13> C 	 1.83746 	 -15.1514 	 81.5614
| 14> H 	 0.782913 	 -15.1659 	 81.7396
| 15> H 	 2.15388 	 -14.0712 	 81.7509
| 16> C 	 2.6532 	 -16.0835 	 82.5352
| 17> H 	 2.44433 	 -17.1172 	 82.3104
| 18> H 	 3.7532 	 -15.9292 	 82.4069
| 19> C 	 2.30061 	 -15.8808 	 84.1018
| 20> H 	 2.3514 	 -14.8197 	 84.3709
| 21> H 	 1.23764 	 -16.1093 	 84.1836
| 22> H 	 2.79183 	 -16.4612 	 84.7936
| 23> S 	 4.42253 	 -13.8483 	 76.2134
| 24> C 	 5.97984 	 -14.1403 	 75.5051
| 25> C 	 6.55928 	 -15.2113 	 76.0139
| 26> C 	 5.79104 	 -15.8357 	 77.0478
| 27> C 	 4.57081 	 -15.1957 	 77.2818
| 28> H 	 7.47758 	 -15.5179 	 75.5812
| 29> C 	 6.22018 	 -17.1348 	 77.8259
| 30> H 	 7.08993 	 -17.5938 	 77.3452
| 31> H 	 5.34546 	 -17.8515 	 77.762
| 32> C 	 6.69979 	 -16.8238 	 79.2438
| 33> H 	 5.9313 	 -16.4632 	 79.8836
| 34> H 	 7.43741 	 -16.0977 	 79.1808
| 35> C 	 7.42095 	 -18.049 	 79.9118
| 36> H 	 6.89053 	 -18.9452 	 79.7728
| 37> H 	 7.41783 	 -17.8565 	 80.9959
| 38> H 	 8.43389 	 -18.2435 	 79.6947
| 39> H 	 0.982092 	 -17.3044 	 79.9424
| 40> H 	 6.54137 	 -13.4993 	 74.8306
| 41> *
| 42>
| 43>                          ****END OF INPUT****

CARTESIAN COORDINATES (ANGSTROEM)
---------------------------------
  S      2.524660  -16.914400   77.909200
  C      1.648960  -16.565300   79.428900
  C      2.136300  -15.463600   80.117700
  C      3.099220  -14.744600   79.308400
  C      3.442040  -15.444900   78.149500
  H      3.668360  -13.858700   79.660100
  C      1.837460  -15.151400   81.561400
  H      0.782913  -15.165900   81.739600
  H      2.153880  -14.071200   81.750900
  C      2.653200  -16.083500   82.535200
  H      2.444330  -17.117200   82.310400
  H      3.753200  -15.929200   82.406900
  C      2.300610  -15.880800   84.101800
  H      2.351400  -14.819700   84.370900
  H      1.237640  -16.109300   84.183600
  H      2.791830  -16.461200   84.793600
  S      4.422530  -13.848300   76.213400
  C      5.979840  -14.140300   75.505100
  C      6.559280  -15.211300   76.013900
  C      5.791040  -15.835700   77.047800
  C      4.570810  -15.195700   77.281800
  H      7.477580  -15.517900   75.581200
  C      6.220180  -17.134800   77.825900
  H      7.089930  -17.593800   77.345200
  H      5.345460  -17.851500   77.762000
  C      6.699790  -16.823800   79.243800
  H      5.931300  -16.463200   79.883600
  H      7.437410  -16.097700   79.180800
  C      7.420950  -18.049000   79.911800
  H      6.890530  -18.945200   79.772800
  H      7.417830  -17.856500   80.995900
  H      8.433890  -18.243500   79.694700
  H      0.982092  -17.304400   79.942400
  H      6.541370  -13.499300   74.830600

 Total Charge           Charge          ....    0
 Multiplicity           Mult            ....    1
 Number of Electrons    NEL             ....  134
 Basis Dimension        Dim             ....  322

ORBITAL ENERGIES
----------------

  NO   OCC          E(Eh)            E(eV)
   0   2.0000     -88.972171     -2421.0558
   1   2.0000     -88.959607     -2420.7140
   2   2.0000     -10.332092      -281.1505
   3   2.0000     -10.321252      -280.8555
   4   2.0000     -10.319846      -280.8173
   5   2.0000     -10.306782      -280.4618
   6   2.0000     -10.306456      -280.4529
   7   2.0000     -10.304526      -280.4004
   8   2.0000     -10.303766      -280.3797
   9   2.0000     -10.303210      -280.3646
  10   2.0000     -10.300161      -280.2816
  11   2.0000     -10.294486      -280.1272
  12   2.0000     -10.283505      -279.8284
  13   2.0000     -10.279453      -279.7181
  14   2.0000     -10.275731      -279.6169
  15   2.0000     -10.267946      -279.4050
  16   2.0000      -8.085858      -220.0274
  17   2.0000      -8.075266      -219.7392
  18   2.0000      -6.044338      -164.4748
  19   2.0000      -6.040634      -164.3740
  20   2.0000      -6.036591      -164.2640
  21   2.0000      -6.033712      -164.1857
  22   2.0000      -6.029543      -164.0722
  23   2.0000      -6.026130      -163.9793
  24   2.0000      -1.008790       -27.4506
  25   2.0000      -0.983562       -26.7641
  26   2.0000      -0.907371       -24.6908
  27   2.0000      -0.900795       -24.5119
  28   2.0000      -0.870157       -23.6782
  29   2.0000      -0.847694       -23.0669
  30   2.0000      -0.840283       -22.8652
  31   2.0000      -0.815784       -22.1986
  32   2.0000      -0.783708       -21.3258
  33   2.0000      -0.768769       -20.9193
  34   2.0000      -0.708801       -19.2875
  35   2.0000      -0.707000       -19.2384
  36   2.0000      -0.693505       -18.8712
  37   2.0000      -0.658118       -17.9083
  38   2.0000      -0.635579       -17.2950
  39   2.0000      -0.618134       -16.8203
  40   2.0000      -0.589580       -16.0433
  41   2.0000      -0.570938       -15.5360
  42   2.0000      -0.564668       -15.3654
  43   2.0000      -0.555048       -15.1036
  44   2.0000      -0.528003       -14.3677
  45   2.0000      -0.519728       -14.1425
  46   2.0000      -0.515264       -14.0210
  47   2.0000      -0.507733       -13.8161
  48   2.0000      -0.504456       -13.7269
  49   2.0000      -0.500489       -13.6190
  50   2.0000      -0.490123       -13.3369
  51   2.0000      -0.475298       -12.9335
  52   2.0000      -0.467012       -12.7081
  53   2.0000      -0.466263       -12.6877
  54   2.0000      -0.459435       -12.5018
  55   2.0000      -0.448962       -12.2169
  56   2.0000      -0.446361       -12.1461
  57   2.0000      -0.442914       -12.0523
  58   2.0000      -0.435414       -11.8482
  59   2.0000      -0.426218       -11.5980
  60   2.0000      -0.425272       -11.5723
  61   2.0000      -0.422110       -11.4862
  62   2.0000      -0.405680       -11.0391
  63   2.0000      -0.338593        -9.2136
  64   2.0000      -0.335898        -9.1403
  65   2.0000      -0.324036        -8.8175
  66   2.0000      -0.301906        -8.2153
  67   0.0000       0.033274         0.9054
  68   0.0000       0.067825         1.8456
  69   0.0000       0.102827         2.7981
  70   0.0000       0.118004         3.2110
  71   0.0000       0.132304         3.6002

MULLIKEN ATOMIC CHARGES
-----------------------
   0 S :    0.123484
   1 C :   -0.130385
   2 C :   -0.108774
   3 C :    0.051780
   4 C :   -0.165744
   5 H :    0.033017
   6 C :    0.053208
   7 H :    0.031476
   8 H :    0.032712
   9 C :   -0.095914
  10 H :    0.030480
  11 H :    0.045251
  12 C :   -0.027459
  13 H :    0.028655
  14 H :    0.020606
  15 H :    0.028979
  16 S :    0.110529
  17 C :   -0.075214
  18 C :   -0.034743
  19 C :   -0.028863
  20 C :   -0.187668
  21 H :    0.002006
  22 C :    0.060134
  23 H :    0.012923
  24 H :    0.041292
  25 C :   -0.029569
  26 H :    0.029847
  27 H :    0.010530
  28 C :   -0.041139
  29 H :    0.018397
  30 H :    0.023533
  31 H :    0.024775
  32 H :    0.061874
  33 H :    0.049986
Sum of atomic charges:    0.0000000

LOEWDIN ATOMIC CHARGES
----------------------
   0 S :    0.406142
   1 C :   -0.196686
   2 C :   -0.062004
   3 C :   -0.057015
   4 C :   -0.198440
   5 H :    0.040237
   6 C :   -0.032458
   7 H :    0.028004
   8 H :    0.037560
   9 C :   -0.032374
  10 H :    0.018930
  11 H :    0.028306
  12 C :   -0.061859
  13 H :    0.025636
  14 H :    0.024903
  15 H :    0.014301
  16 S :    0.420410
  17 C :   -0.189322
  18 C :   -0.076104
  19 C :   -0.054374
  20 C :   -0.216820
  21 H :    0.028814
  22 C :   -0.031867
  23 H :    0.027724
  24 H :    0.029006
  25 C :   -0.027467
  26 H :    0.020679
  27 H :    0.017187
  28 C :   -0.062960
  29 H :    0.016628
  30 H :    0.030114
  31 H :    0.017779
  32 H :    0.033796
  33 H :    0.033595

  Mayer bond orders larger than 0.100000
B(  0-S ,  1-C ) :   1.1247 B(  0-S ,  4-C ) :   1.1575 B(  1-C ,  2-C ) :   1.6396
B(  1-C , 32-H ) :   0.9578 B(  2-C ,  3-C ) :   1.2362 B(  2-C ,  6-C ) :   1.0312
B(  3-C ,  4-C ) :   1.5851 B(  3-C ,  5-H ) :   0.9817 B(  4-C , 20-C ) :   1.0176
B(  6-C ,  7-H ) :   0.9417 B(  6-C ,  8-H ) :   0.9418 B(  6-C ,  9-C ) :   1.0446
B(  9-C , 10-H ) :   0.9640 B(  9-C , 11-H ) :   0.9601 B(  9-C , 12-C ) :   1.0649
B( 12-C , 13-H ) :   0.9785 B( 12-C , 14-H ) :   0.9765 B( 12-C , 15-H ) :   0.9798
B( 16-S , 17-C ) :   1.1458 B( 16-S , 20-C ) :   1.1581 B( 17-C , 18-C ) :   1.6431
B( 17-C , 33-H ) :   0.9595 B( 18-C , 19-C ) :   1.2362 B( 18-C , 21-H ) :   0.9989
B( 19-C , 20-C ) :   1.5915 B( 19-C , 22-C ) :   1.0320 B( 22-C , 23-H ) :   0.9383
B( 22-C , 24-H ) :   0.9352 B( 22-C , 25-C ) :   1.0706 B( 25-C , 26-H ) :   0.9595
B( 25-C , 27-H ) :   0.9513 B( 25-C , 28-C ) :   1.0813 B( 28-C , 29-H ) :   0.9765
B( 28-C , 30-H ) :   0.9744 B( 28-C , 31-H ) :   0.9775

Dispersion correction           -0.014686143
FINAL SINGLE POINT ENERGY     -1339.870768590271

DIPOLE MOMENT
-------------
                                X             Y             Z
Electronic contribution:     -7.77353       8.66125     -27.28732
Nuclear contribution   :      8.12031      -8.80813      27.89443
                        -----------------------------------------
Total Dipole Moment    :      0.34678      -0.14688       0.60711
                        -----------------------------------------
Magnitude (a.u.)       :      0.71443
Magnitude (Debye)      :      1.81595

Rotational constants in cm-1:     0.018750     0.008596     0.007067
Rotational constants in MHz :   562.121409   257.698433   211.861203

                             ****ORCA TERMINATED NORMALLY****
TOTAL RUN TIME: 0 days 0 hours 0 minutes 34 seconds 567 msec
