                         Program Version 4.2.1 -  RELEASE  -
|  1> ! wB97X-D3 SP def2-SVP
|  2> %pal
|  3> nprocs 16
|  4> end
|  5>
|  6> * xyz 0 1
|  7> S 	 -7.95285 	 31.2957 	 53.9789
|  8> C 	 -7.60208 	 29.5455 	 54.0505
|  9> C 	 -6.19374 	 29.3461 	 53.917
| 10> C 	 -5.54993 	 30.5236 	 53.4975
| 11> C 	 -6.33867 	 31.6477 	 53.4681
| 12> H 	 -4.49317 	 30.5883 	 53.2379
| 13> C 	 -5.3663 	 28.0052 	 53.9414
| 14> H 	 -4.46036 	 28.0882 	 53.3622
| 15> H 	 -5.95432 	 27.2477 	 53.4465
| 16> C 	 -5.02562 	 27.5366 	 55.3528
| 17> H 	 -4.40256 	 26.6893 	 55.2806
| 18> H 	 -4.46946 	 28.2482 	 55.9714
| 19> C 	 -6.28201 	 27.2169 	 56.1832
| 20> H 	 -6.6509 	 28.1213 	 56.6794
| 21> H 	 -7.14233 	 26.8959 	 55.595
| 22> H 	 -6.06545 	 26.4097 	 56.8313
| 23> S 	 -4.17185 	 33.4236 	 53.4819
| 24> C 	 -4.25309 	 34.9258 	 52.6011
| 25> C 	 -5.49306 	 35.0231 	 52.0803
| 26> C 	 -6.4955 	 34.0171 	 52.365
| 27> C 	 -5.84309 	 32.9663 	 53.0112
| 28> H 	 -5.68296 	 35.837 	 51.4248
| 29> C 	 -7.96023 	 34.0762 	 51.8899
| 30> H 	 -8.32857 	 33.1782 	 51.4357
| 31> H 	 -8.02725 	 34.8122 	 51.0087
| 32> C 	 -8.96178 	 34.4465 	 52.9696
| 33> H 	 -8.86109 	 33.7417 	 53.8291
| 34> H 	 -9.94894 	 34.2997 	 52.5779
| 35> C 	 -8.71371 	 35.9317 	 53.4212
| 36> H 	 -9.33646 	 36.1343 	 54.3594
| 37> H 	 -8.99766 	 36.6633 	 52.7291
| 38> H 	 -7.67629 	 36.1315 	 53.6396
| 39> H 	 -8.36322 	 28.7568 	 54.1366
| 40> H 	 -3.44062 	 35.6368 	 52.3886
| 41> *
| 42>
| 43>                          ****END OF INPUT****

CARTESIAN COORDINATES (ANGSTROEM)
---------------------------------
  S     -7.952850   31.295700   53.978900
  C     -7.602080   29.545500   54.050500
  C     -6.193740   29.346100   53.917000
  C     -5.549930   30.523600   53.497500
  C     -6.338670   31.647700   53.468100
  H     -4.493170   30.588300   53.237900
  C     -5.366300   28.005200   53.941400
  H     -4.460360   28.088200   53.362200
  H     -5.954320   27.247700   53.446500
  C     -5.025620   27.536600   55.352800
  H     -4.402560   26.689300   55.280600
  H     -4.469460   28.248200   55.971400
  C     -6.282010   27.216900   56.183200
  H     -6.650900   28.121300   56.679400
  H     -7.142330   26.895900   55.595000
  H     -6.065450   26.409700   56.831300
  S     -4.171850   33.423600   53.481900
  C     -4.253090   34.925800   52.601100
  C     -5.493060   35.023100   52.080300
  C     -6.495500   34.017100   52.365000
  C     -5.843090   32.966300   53.011200
  H     -5.682960   35.837000   51.424800
  C     -7.960230   34.076200   51.889900
  H     -8.328570   33.178200   51.435700
  H     -8.027250   34.812200   51.008700
  C     -8.961780   34.446500   52.969600
  H     -8.861090   33.741700   53.829100
  H     -9.948940   34.299700   52.577900
  C     -8.713710   35.931700   53.421200
  H     -9.336460   36.134300   54.359400
  H     -8.997660   36.663300   52.729100
  H     -7.676290   36.131500   53.639600
  H     -8.363220   28.756800   54.136600
  H     -3.440620   35.636800   52.388600

 Total Charge           Charge          ....    0
 Multiplicity           Mult            ....    1
 Number of Electrons    NEL             ....  134
 Basis Dimension        Dim             ....  322

ORBITAL ENERGIES
----------------

  NO   OCC          E(Eh)            E(eV)
   0   2.0000     -88.973168     -2421.0830
   1   2.0000     -88.964400     -2420.8444
   2   2.0000     -10.335132      -281.2332
   3   2.0000     -10.329045      -281.0676
   4   2.0000     -10.324861      -280.9538
   5   2.0000     -10.315848      -280.7085
   6   2.0000     -10.309047      -280.5234
   7   2.0000     -10.308953      -280.5209
   8   2.0000     -10.297808      -280.2176
   9   2.0000     -10.294372      -280.1241
  10   2.0000     -10.289370      -279.9880
  11   2.0000     -10.289052      -279.9793
  12   2.0000     -10.287206      -279.9291
  13   2.0000     -10.281170      -279.7649
  14   2.0000     -10.273226      -279.5487
  15   2.0000     -10.270086      -279.4632
  16   2.0000      -8.086612      -220.0479
  17   2.0000      -8.078500      -219.8272
  18   2.0000      -6.045161      -164.4972
  19   2.0000      -6.041281      -164.3916
  20   2.0000      -6.037428      -164.2868
  21   2.0000      -6.037219      -164.2811
  22   2.0000      -6.033116      -164.1694
  23   2.0000      -6.029040      -164.0585
  24   2.0000      -1.004362       -27.3301
  25   2.0000      -0.982343       -26.7309
  26   2.0000      -0.910310       -24.7708
  27   2.0000      -0.906095       -24.6561
  28   2.0000      -0.864911       -23.5354
  29   2.0000      -0.849731       -23.1224
  30   2.0000      -0.839150       -22.8344
  31   2.0000      -0.807092       -21.9621
  32   2.0000      -0.784567       -21.3491
  33   2.0000      -0.777327       -21.1521
  34   2.0000      -0.707608       -19.2550
  35   2.0000      -0.698448       -19.0057
  36   2.0000      -0.690166       -18.7804
  37   2.0000      -0.663123       -18.0445
  38   2.0000      -0.632375       -17.2078
  39   2.0000      -0.616035       -16.7632
  40   2.0000      -0.598148       -16.2764
  41   2.0000      -0.569474       -15.4962
  42   2.0000      -0.552309       -15.0291
  43   2.0000      -0.547593       -14.9008
  44   2.0000      -0.545381       -14.8406
  45   2.0000      -0.537778       -14.6337
  46   2.0000      -0.514219       -13.9926
  47   2.0000      -0.506904       -13.7936
  48   2.0000      -0.500838       -13.6285
  49   2.0000      -0.492128       -13.3915
  50   2.0000      -0.487382       -13.2623
  51   2.0000      -0.482238       -13.1224
  52   2.0000      -0.476486       -12.9658
  53   2.0000      -0.468981       -12.7616
  54   2.0000      -0.460107       -12.5201
  55   2.0000      -0.446252       -12.1431
  56   2.0000      -0.438876       -11.9424
  57   2.0000      -0.435572       -11.8525
  58   2.0000      -0.429333       -11.6828
  59   2.0000      -0.421346       -11.4654
  60   2.0000      -0.418647       -11.3920
  61   2.0000      -0.414673       -11.2838
  62   2.0000      -0.409440       -11.1414
  63   2.0000      -0.351618        -9.5680
  64   2.0000      -0.335707        -9.1351
  65   2.0000      -0.329874        -8.9763
  66   2.0000      -0.288381        -7.8472
  67   0.0000       0.019895         0.5414
  68   0.0000       0.080942         2.2026
  69   0.0000       0.108434         2.9506
  70   0.0000       0.109213         2.9718
  71   0.0000       0.129340         3.5195

MULLIKEN ATOMIC CHARGES
-----------------------
   0 S :    0.099117
   1 C :   -0.144715
   2 C :   -0.068238
   3 C :   -0.020174
   4 C :   -0.099524
   5 H :    0.019274
   6 C :    0.066559
   7 H :    0.021998
   8 H :    0.028284
   9 C :   -0.053504
  10 H :    0.018691
  11 H :    0.032774
  12 C :   -0.052570
  13 H :    0.046579
  14 H :    0.010058
  15 H :    0.028761
  16 S :    0.087308
  17 C :   -0.086513
  18 C :   -0.031787
  19 C :   -0.031839
  20 C :   -0.145803
  21 H :    0.000287
  22 C :    0.031038
  23 H :    0.028769
  24 H :    0.032000
  25 C :   -0.058179
  26 H :    0.044715
  27 H :    0.027498
  28 C :   -0.059610
  29 H :    0.038199
  30 H :    0.017354
  31 H :    0.039856
  32 H :    0.064983
  33 H :    0.068357
Sum of atomic charges:   -0.0000000

LOEWDIN ATOMIC CHARGES
----------------------
   0 S :    0.422500
   1 C :   -0.198594
   2 C :   -0.051567
   3 C :   -0.073461
   4 C :   -0.198599
   5 H :    0.029566
   6 C :   -0.021451
   7 H :    0.027755
   8 H :    0.028896
   9 C :   -0.037223
  10 H :    0.016927
  11 H :    0.028311
  12 C :   -0.064934
  13 H :    0.030325
  14 H :    0.018033
  15 H :    0.022080
  16 S :    0.386544
  17 C :   -0.196315
  18 C :   -0.070311
  19 C :   -0.057784
  20 C :   -0.167267
  21 H :    0.021690
  22 C :   -0.038297
  23 H :    0.026155
  24 H :    0.037803
  25 C :   -0.039030
  26 H :    0.015199
  27 H :    0.022563
  28 C :   -0.066839
  29 H :    0.033355
  30 H :    0.014668
  31 H :    0.025114
  32 H :    0.031715
  33 H :    0.042475

  Mayer bond orders larger than 0.100000
B(  0-S ,  1-C ) :   1.1400 B(  0-S ,  4-C ) :   1.1463 B(  1-C ,  2-C ) :   1.5667
B(  1-C , 32-H ) :   0.9691 B(  2-C ,  3-C ) :   1.2827 B(  2-C ,  6-C ) :   1.0082
B(  3-C ,  4-C ) :   1.5406 B(  3-C ,  5-H ) :   0.9884 B(  4-C , 20-C ) :   1.0555
B(  6-C ,  7-H ) :   0.9484 B(  6-C ,  8-H ) :   0.9459 B(  6-C ,  9-C ) :   1.0799
B(  9-C , 10-H ) :   0.9595 B(  9-C , 11-H ) :   0.9564 B(  9-C , 12-C ) :   1.0693
B( 12-C , 13-H ) :   0.9751 B( 12-C , 14-H ) :   0.9775 B( 12-C , 15-H ) :   0.9741
B( 16-S , 17-C ) :   1.1165 B( 16-S , 20-C ) :   1.1408 B( 17-C , 18-C ) :   1.6472
B( 17-C , 33-H ) :   0.9638 B( 18-C , 19-C ) :   1.2171 B( 18-C , 21-H ) :   0.9860
B( 19-C , 20-C ) :   1.5888 B( 19-C , 22-C ) :   1.0293 B( 22-C , 23-H ) :   0.9372
B( 22-C , 24-H ) :   0.9412 B( 22-C , 25-C ) :   1.0741 B( 25-C , 26-H ) :   0.9515
B( 25-C , 27-H ) :   0.9541 B( 25-C , 28-C ) :   1.0623 B( 28-C , 29-H ) :   0.9753
B( 28-C , 30-H ) :   0.9766 B( 28-C , 31-H ) :   0.9783

Dispersion correction           -0.014790625
FINAL SINGLE POINT ENERGY     -1339.876790626371

DIPOLE MOMENT
-------------
                                X             Y             Z
Electronic contribution:      7.23969       6.54497      -3.76562
Nuclear contribution   :     -7.26953      -6.73318       3.49114
                        -----------------------------------------
Total Dipole Moment    :     -0.02984      -0.18821      -0.27448
                        -----------------------------------------
Magnitude (a.u.)       :      0.33414
Magnitude (Debye)      :      0.84932

Rotational constants in cm-1:     0.024491     0.007960     0.006424
Rotational constants in MHz :   734.213881   238.633215   192.596816

                             ****ORCA TERMINATED NORMALLY****
TOTAL RUN TIME: 0 days 0 hours 0 minutes 33 seconds 87 msec
