                         Program Version 4.2.1 -  RELEASE  -
|  1> ! wB97X-D3 SP def2-SVP
|  2> %pal
|  3> nprocs 16
|  4> end
|  5>
|  6> * xyz 0 1
|  7> S 	 53.6054 	 -1.425 	 91.4179
|  8> C 	 52.397 	 -2.47269 	 90.5784
|  9> C 	 52.092 	 -2.05229 	 89.2913
| 10> C 	 52.7422 	 -0.833274 	 89.045
| 11> C 	 53.6388 	 -0.30771 	 90.0014
| 12> H 	 52.6564 	 -0.275029 	 88.1131
| 13> C 	 51.1201 	 -2.81114 	 88.3559
| 14> H 	 50.4789 	 -1.99735 	 87.8902
| 15> H 	 50.3971 	 -3.33344 	 89.0455
| 16> C 	 51.9253 	 -3.71427 	 87.3726
| 17> H 	 52.6613 	 -3.22395 	 86.6642
| 18> H 	 52.538 	 -4.35605 	 87.9524
| 19> C 	 50.9777 	 -4.54067 	 86.5095
| 20> H 	 51.6503 	 -5.14344 	 85.7661
| 21> H 	 50.3584 	 -5.30146 	 87.0783
| 22> H 	 50.3615 	 -3.91772 	 85.9403
| 23> S 	 54.7172 	 1.81619 	 88.5398
| 24> C 	 55.1627 	 3.24527 	 89.4738
| 25> C 	 55.2645 	 2.9687 	 90.8021
| 26> C 	 54.6172 	 1.75179 	 91.1643
| 27> C 	 54.3344 	 0.957994 	 90.0646
| 28> H 	 55.5914 	 3.69998 	 91.5288
| 29> C 	 54.3644 	 1.55156 	 92.6583
| 30> H 	 55.2819 	 2.01954 	 93.0417
| 31> H 	 54.4277 	 0.546828 	 92.9985
| 32> C 	 53.0932 	 2.34212 	 93.138
| 33> H 	 52.3241 	 1.74953 	 92.7309
| 34> H 	 52.993 	 3.32274 	 92.7406
| 35> C 	 52.8237 	 2.27042 	 94.6615
| 36> H 	 52.8553 	 1.23664 	 95.025
| 37> H 	 51.8097 	 2.63512 	 94.8633
| 38> H 	 53.4974 	 2.84827 	 95.255
| 39> H 	 51.8581 	 -3.39789 	 90.9207
| 40> H 	 55.5503 	 4.10997 	 89.0155
| 41> *
| 42>
| 43>                          ****END OF INPUT****

CARTESIAN COORDINATES (ANGSTROEM)
---------------------------------
  S     53.605400   -1.425000   91.417900
  C     52.397000   -2.472690   90.578400
  C     52.092000   -2.052290   89.291300
  C     52.742200   -0.833274   89.045000
  C     53.638800   -0.307710   90.001400
  H     52.656400   -0.275029   88.113100
  C     51.120100   -2.811140   88.355900
  H     50.478900   -1.997350   87.890200
  H     50.397100   -3.333440   89.045500
  C     51.925300   -3.714270   87.372600
  H     52.661300   -3.223950   86.664200
  H     52.538000   -4.356050   87.952400
  C     50.977700   -4.540670   86.509500
  H     51.650300   -5.143440   85.766100
  H     50.358400   -5.301460   87.078300
  H     50.361500   -3.917720   85.940300
  S     54.717200    1.816190   88.539800
  C     55.162700    3.245270   89.473800
  C     55.264500    2.968700   90.802100
  C     54.617200    1.751790   91.164300
  C     54.334400    0.957994   90.064600
  H     55.591400    3.699980   91.528800
  C     54.364400    1.551560   92.658300
  H     55.281900    2.019540   93.041700
  H     54.427700    0.546828   92.998500
  C     53.093200    2.342120   93.138000
  H     52.324100    1.749530   92.730900
  H     52.993000    3.322740   92.740600
  C     52.823700    2.270420   94.661500
  H     52.855300    1.236640   95.025000
  H     51.809700    2.635120   94.863300
  H     53.497400    2.848270   95.255000
  H     51.858100   -3.397890   90.920700
  H     55.550300    4.109970   89.015500

 Total Charge           Charge          ....    0
 Multiplicity           Mult            ....    1
 Number of Electrons    NEL             ....  134
 Basis Dimension        Dim             ....  322

ORBITAL ENERGIES
----------------

  NO   OCC          E(Eh)            E(eV)
   0   2.0000     -88.969217     -2420.9755
   1   2.0000     -88.966344     -2420.8973
   2   2.0000     -10.336050      -281.2582
   3   2.0000     -10.331094      -281.1234
   4   2.0000     -10.319405      -280.8053
   5   2.0000     -10.315946      -280.7112
   6   2.0000     -10.310031      -280.5502
   7   2.0000     -10.303632      -280.3761
   8   2.0000     -10.300501      -280.2909
   9   2.0000     -10.294640      -280.1314
  10   2.0000     -10.293656      -280.1046
  11   2.0000     -10.292531      -280.0740
  12   2.0000     -10.292190      -280.0647
  13   2.0000     -10.285676      -279.8875
  14   2.0000     -10.282149      -279.7915
  15   2.0000     -10.276055      -279.6257
  16   2.0000      -8.081469      -219.9079
  17   2.0000      -8.080334      -219.8771
  18   2.0000      -6.040236      -164.3632
  19   2.0000      -6.039031      -164.3304
  20   2.0000      -6.036332      -164.2569
  21   2.0000      -6.035147      -164.2247
  22   2.0000      -6.032105      -164.1419
  23   2.0000      -6.030764      -164.1054
  24   2.0000      -1.000760       -27.2321
  25   2.0000      -0.976461       -26.5709
  26   2.0000      -0.907763       -24.7015
  27   2.0000      -0.904756       -24.6197
  28   2.0000      -0.869727       -23.6665
  29   2.0000      -0.851927       -23.1821
  30   2.0000      -0.840739       -22.8777
  31   2.0000      -0.809215       -22.0199
  32   2.0000      -0.783009       -21.3068
  33   2.0000      -0.768126       -20.9018
  34   2.0000      -0.710762       -19.3408
  35   2.0000      -0.701750       -19.0956
  36   2.0000      -0.695418       -18.9233
  37   2.0000      -0.671207       -18.2645
  38   2.0000      -0.623859       -16.9761
  39   2.0000      -0.614708       -16.7271
  40   2.0000      -0.598820       -16.2947
  41   2.0000      -0.565412       -15.3856
  42   2.0000      -0.558491       -15.1973
  43   2.0000      -0.554625       -15.0921
  44   2.0000      -0.528409       -14.3787
  45   2.0000      -0.523505       -14.2453
  46   2.0000      -0.516729       -14.0609
  47   2.0000      -0.513672       -13.9777
  48   2.0000      -0.507916       -13.8211
  49   2.0000      -0.494188       -13.4475
  50   2.0000      -0.485788       -13.2190
  51   2.0000      -0.472041       -12.8449
  52   2.0000      -0.469052       -12.7636
  53   2.0000      -0.460193       -12.5225
  54   2.0000      -0.457475       -12.4485
  55   2.0000      -0.451387       -12.2829
  56   2.0000      -0.445699       -12.1281
  57   2.0000      -0.443630       -12.0718
  58   2.0000      -0.432284       -11.7630
  59   2.0000      -0.423259       -11.5175
  60   2.0000      -0.421841       -11.4789
  61   2.0000      -0.416958       -11.3460
  62   2.0000      -0.408581       -11.1181
  63   2.0000      -0.356903        -9.7118
  64   2.0000      -0.333882        -9.0854
  65   2.0000      -0.331400        -9.0179
  66   2.0000      -0.279164        -7.5964
  67   0.0000       0.016340         0.4446
  68   0.0000       0.081479         2.2171
  69   0.0000       0.104901         2.8545
  70   0.0000       0.108199         2.9442
  71   0.0000       0.129797         3.5320

MULLIKEN ATOMIC CHARGES
-----------------------
   0 S :    0.083578
   1 C :   -0.125129
   2 C :   -0.101114
   3 C :    0.005674
   4 C :   -0.141019
   5 H :    0.005551
   6 C :    0.031941
   7 H :    0.044506
   8 H :    0.037128
   9 C :   -0.056476
  10 H :    0.047769
  11 H :    0.020676
  12 C :   -0.056803
  13 H :    0.040288
  14 H :    0.042153
  15 H :    0.024450
  16 S :    0.090208
  17 C :   -0.073357
  18 C :   -0.012140
  19 C :   -0.100614
  20 C :   -0.100369
  21 H :    0.023845
  22 C :    0.066828
  23 H :    0.019068
  24 H :    0.020351
  25 C :   -0.039130
  26 H :    0.023125
  27 H :    0.027695
  28 C :   -0.035187
  29 H :    0.029817
  30 H :    0.032411
  31 H :    0.025004
  32 H :    0.054515
  33 H :    0.044757
Sum of atomic charges:   -0.0000000

LOEWDIN ATOMIC CHARGES
----------------------
   0 S :    0.372869
   1 C :   -0.194370
   2 C :   -0.070329
   3 C :   -0.069772
   4 C :   -0.171793
   5 H :    0.024119
   6 C :   -0.031623
   7 H :    0.038037
   8 H :    0.037233
   9 C :   -0.041912
  10 H :    0.037785
  11 H :    0.020418
  12 C :   -0.068646
  13 H :    0.035643
  14 H :    0.029272
  15 H :    0.013208
  16 S :    0.377955
  17 C :   -0.163585
  18 C :   -0.065586
  19 C :   -0.054149
  20 C :   -0.187308
  21 H :    0.032603
  22 C :   -0.029177
  23 H :    0.030953
  24 H :    0.011729
  25 C :   -0.028247
  26 H :    0.024512
  27 H :    0.021355
  28 C :   -0.061564
  29 H :    0.027564
  30 H :    0.028755
  31 H :    0.016398
  32 H :    0.037998
  33 H :    0.019653

  Mayer bond orders larger than 0.100000
B(  0-S ,  1-C ) :   1.1282 B(  0-S ,  4-C ) :   1.1187 B(  1-C ,  2-C ) :   1.6240
B(  1-C ,  4-C ) :   0.1005 B(  1-C , 32-H ) :   0.9508 B(  2-C ,  3-C ) :   1.2714
B(  2-C ,  6-C ) :   1.0058 B(  3-C ,  4-C ) :   1.5653 B(  3-C ,  5-H ) :   0.9773
B(  4-C , 20-C ) :   1.1002 B(  6-C ,  7-H ) :   0.9446 B(  6-C ,  8-H ) :   0.9474
B(  6-C ,  9-C ) :   1.0395 B(  9-C , 10-H ) :   0.9584 B(  9-C , 11-H ) :   0.9549
B(  9-C , 12-C ) :   1.0832 B( 12-C , 13-H ) :   0.9748 B( 12-C , 14-H ) :   0.9753
B( 12-C , 15-H ) :   0.9753 B( 16-S , 17-C ) :   1.1406 B( 16-S , 20-C ) :   1.1085
B( 17-C , 18-C ) :   1.6371 B( 17-C , 33-H ) :   0.9681 B( 18-C , 19-C ) :   1.2335
B( 18-C , 21-H ) :   0.9795 B( 19-C , 20-C ) :   1.6006 B( 19-C , 22-C ) :   1.0230
B( 22-C , 23-H ) :   0.9330 B( 22-C , 24-H ) :   0.9390 B( 22-C , 25-C ) :   1.0448
B( 25-C , 26-H ) :   0.9519 B( 25-C , 27-H ) :   0.9614 B( 25-C , 28-C ) :   1.0846
B( 28-C , 29-H ) :   0.9734 B( 28-C , 30-H ) :   0.9744 B( 28-C , 31-H ) :   0.9786

Dispersion correction           -0.013668538
FINAL SINGLE POINT ENERGY     -1339.864238586874

DIPOLE MOMENT
-------------
                                X             Y             Z
Electronic contribution:     12.66305       7.26756      -3.25105
Nuclear contribution   :    -12.97232      -7.16741       3.29541
                        -----------------------------------------
Total Dipole Moment    :     -0.30928       0.10015       0.04436
                        -----------------------------------------
Magnitude (a.u.)       :      0.32810
Magnitude (Debye)      :      0.83396

Rotational constants in cm-1:     0.021693     0.007370     0.005886
Rotational constants in MHz :   650.338331   220.955234   176.461314

                             ****ORCA TERMINATED NORMALLY****
TOTAL RUN TIME: 0 days 0 hours 0 minutes 29 seconds 978 msec
