                         Program Version 4.2.1 -  RELEASE  -
|  1> ! wB97X-D3 SP def2-SVP
|  2> %pal
|  3> nprocs 16
|  4> end
|  5>
|  6> * xyz 0 1
|  7> S 	 -24.0929 	 49.1115 	 64.5838
|  8> C 	 -23.7827 	 50.2192 	 63.2642
|  9> C 	 -22.6962 	 51.0071 	 63.5786
| 10> C 	 -22.1267 	 50.7229 	 64.8516
| 11> C 	 -22.7746 	 49.6872 	 65.5243
| 12> H 	 -21.3244 	 51.1517 	 65.4085
| 13> C 	 -22.3008 	 52.0511 	 62.5587
| 14> H 	 -22.6637 	 53.0094 	 62.9151
| 15> H 	 -22.8837 	 51.9424 	 61.6335
| 16> C 	 -20.8125 	 52.1508 	 62.2586
| 17> H 	 -20.7578 	 53.0891 	 61.622
| 18> H 	 -20.3131 	 52.3552 	 63.2006
| 19> C 	 -20.1966 	 51.0019 	 61.5012
| 20> H 	 -19.1431 	 51.1675 	 61.304
| 21> H 	 -20.3085 	 50.1963 	 62.0798
| 22> H 	 -20.7703 	 50.9114 	 60.5285
| 23> S 	 -23.872 	 49.1725 	 68.1432
| 24> C 	 -22.7437 	 48.5369 	 69.3061
| 25> C 	 -21.5589 	 48.3481 	 68.7217
| 26> C 	 -21.3565 	 48.757 	 67.3441
| 27> C 	 -22.602 	 49.2451 	 66.8848
| 28> H 	 -20.7286 	 48.0768 	 69.3259
| 29> C 	 -19.9748 	 48.692 	 66.6618
| 30> H 	 -19.2514 	 48.3897 	 67.4405
| 31> H 	 -19.763 	 49.727 	 66.3971
| 32> C 	 -19.9272 	 47.8288 	 65.4142
| 33> H 	 -20.8157 	 48.0536 	 64.8951
| 34> H 	 -19.9058 	 46.8021 	 65.6078
| 35> C 	 -18.8393 	 48.1513 	 64.4046
| 36> H 	 -18.8786 	 49.1793 	 64.1332
| 37> H 	 -18.873 	 47.5544 	 63.421
| 38> H 	 -17.8914 	 47.877 	 64.8799
| 39> H 	 -24.2418 	 50.1332 	 62.3299
| 40> H 	 -22.8629 	 48.4966 	 70.3624
| 41> *
| 42>
| 43>                          ****END OF INPUT****

CARTESIAN COORDINATES (ANGSTROEM)
---------------------------------
  S    -24.092900   49.111500   64.583800
  C    -23.782700   50.219200   63.264200
  C    -22.696200   51.007100   63.578600
  C    -22.126700   50.722900   64.851600
  C    -22.774600   49.687200   65.524300
  H    -21.324400   51.151700   65.408500
  C    -22.300800   52.051100   62.558700
  H    -22.663700   53.009400   62.915100
  H    -22.883700   51.942400   61.633500
  C    -20.812500   52.150800   62.258600
  H    -20.757800   53.089100   61.622000
  H    -20.313100   52.355200   63.200600
  C    -20.196600   51.001900   61.501200
  H    -19.143100   51.167500   61.304000
  H    -20.308500   50.196300   62.079800
  H    -20.770300   50.911400   60.528500
  S    -23.872000   49.172500   68.143200
  C    -22.743700   48.536900   69.306100
  C    -21.558900   48.348100   68.721700
  C    -21.356500   48.757000   67.344100
  C    -22.602000   49.245100   66.884800
  H    -20.728600   48.076800   69.325900
  C    -19.974800   48.692000   66.661800
  H    -19.251400   48.389700   67.440500
  H    -19.763000   49.727000   66.397100
  C    -19.927200   47.828800   65.414200
  H    -20.815700   48.053600   64.895100
  H    -19.905800   46.802100   65.607800
  C    -18.839300   48.151300   64.404600
  H    -18.878600   49.179300   64.133200
  H    -18.873000   47.554400   63.421000
  H    -17.891400   47.877000   64.879900
  H    -24.241800   50.133200   62.329900
  H    -22.862900   48.496600   70.362400

 Total Charge           Charge          ....    0
 Multiplicity           Mult            ....    1
 Number of Electrons    NEL             ....  134
 Basis Dimension        Dim             ....  322

ORBITAL ENERGIES
----------------

  NO   OCC          E(Eh)            E(eV)
   0   2.0000     -88.969882     -2420.9936
   1   2.0000     -88.962099     -2420.7818
   2   2.0000     -10.332076      -281.1501
   3   2.0000     -10.327974      -281.0385
   4   2.0000     -10.311547      -280.5915
   5   2.0000     -10.309151      -280.5263
   6   2.0000     -10.307615      -280.4845
   7   2.0000     -10.302680      -280.3502
   8   2.0000     -10.300765      -280.2981
   9   2.0000     -10.296148      -280.1724
  10   2.0000     -10.289766      -279.9988
  11   2.0000     -10.286462      -279.9089
  12   2.0000     -10.285789      -279.8905
  13   2.0000     -10.278519      -279.6927
  14   2.0000     -10.272038      -279.5164
  15   2.0000     -10.270316      -279.4695
  16   2.0000      -8.083851      -219.9728
  17   2.0000      -8.077546      -219.8012
  18   2.0000      -6.042616      -164.4279
  19   2.0000      -6.038441      -164.3143
  20   2.0000      -6.035910      -164.2455
  21   2.0000      -6.034402      -164.2044
  22   2.0000      -6.031725      -164.1316
  23   2.0000      -6.028639      -164.0476
  24   2.0000      -1.008915       -27.4540
  25   2.0000      -0.985704       -26.8224
  26   2.0000      -0.917382       -24.9632
  27   2.0000      -0.913630       -24.8611
  28   2.0000      -0.874986       -23.8096
  29   2.0000      -0.852720       -23.2037
  30   2.0000      -0.844546       -22.9813
  31   2.0000      -0.821004       -22.3407
  32   2.0000      -0.788860       -21.4660
  33   2.0000      -0.775903       -21.1134
  34   2.0000      -0.715490       -19.4695
  35   2.0000      -0.697103       -18.9691
  36   2.0000      -0.689083       -18.7509
  37   2.0000      -0.654748       -17.8166
  38   2.0000      -0.648944       -17.6587
  39   2.0000      -0.620521       -16.8852
  40   2.0000      -0.597741       -16.2654
  41   2.0000      -0.577445       -15.7131
  42   2.0000      -0.572107       -15.5678
  43   2.0000      -0.554152       -15.0792
  44   2.0000      -0.546065       -14.8592
  45   2.0000      -0.526392       -14.3238
  46   2.0000      -0.519951       -14.1486
  47   2.0000      -0.515472       -14.0267
  48   2.0000      -0.509137       -13.8543
  49   2.0000      -0.503613       -13.7040
  50   2.0000      -0.492771       -13.4090
  51   2.0000      -0.486733       -13.2447
  52   2.0000      -0.475050       -12.9268
  53   2.0000      -0.466979       -12.7071
  54   2.0000      -0.460817       -12.5395
  55   2.0000      -0.446972       -12.1627
  56   2.0000      -0.443296       -12.0627
  57   2.0000      -0.439567       -11.9612
  58   2.0000      -0.430093       -11.7034
  59   2.0000      -0.428586       -11.6624
  60   2.0000      -0.425124       -11.5682
  61   2.0000      -0.411696       -11.2028
  62   2.0000      -0.402783       -10.9603
  63   2.0000      -0.349178        -9.5016
  64   2.0000      -0.333430        -9.0731
  65   2.0000      -0.330707        -8.9990
  66   2.0000      -0.292557        -7.9609
  67   0.0000       0.029300         0.7973
  68   0.0000       0.066165         1.8004
  69   0.0000       0.118945         3.2366
  70   0.0000       0.122292         3.3277
  71   0.0000       0.127238         3.4623

MULLIKEN ATOMIC CHARGES
-----------------------
   0 S :    0.106791
   1 C :   -0.118821
   2 C :   -0.061220
   3 C :    0.034950
   4 C :   -0.208683
   5 H :   -0.001162
   6 C :    0.073572
   7 H :    0.033895
   8 H :    0.007260
   9 C :   -0.115254
  10 H :    0.029804
  11 H :    0.026219
  12 C :    0.016380
  13 H :    0.036998
  14 H :    0.007991
  15 H :    0.030673
  16 S :    0.123481
  17 C :   -0.078694
  18 C :   -0.014615
  19 C :   -0.069760
  20 C :   -0.144557
  21 H :   -0.000604
  22 C :    0.105338
  23 H :    0.024297
  24 H :    0.020816
  25 C :   -0.031351
  26 H :    0.030081
  27 H :    0.021166
  28 C :   -0.069351
  29 H :    0.024791
  30 H :    0.046570
  31 H :    0.025460
  32 H :    0.036165
  33 H :    0.051374
Sum of atomic charges:   -0.0000000

LOEWDIN ATOMIC CHARGES
----------------------
   0 S :    0.418544
   1 C :   -0.193006
   2 C :   -0.059939
   3 C :   -0.072457
   4 C :   -0.196061
   5 H :    0.026537
   6 C :   -0.031739
   7 H :    0.034397
   8 H :    0.028155
   9 C :   -0.045240
  10 H :    0.028548
  11 H :    0.018853
  12 C :   -0.052364
  13 H :    0.029239
  14 H :    0.005546
  15 H :    0.034589
  16 S :    0.395861
  17 C :   -0.186918
  18 C :   -0.071369
  19 C :   -0.043774
  20 C :   -0.196323
  21 H :    0.021712
  22 C :   -0.022349
  23 H :    0.032874
  24 H :    0.031232
  25 C :   -0.037713
  26 H :    0.022771
  27 H :    0.019360
  28 C :   -0.063595
  29 H :    0.015492
  30 H :    0.037464
  31 H :    0.021570
  32 H :    0.017933
  33 H :    0.032171

  Mayer bond orders larger than 0.100000
B(  0-S ,  1-C ) :   1.1384 B(  0-S ,  4-C ) :   1.1725 B(  1-C ,  2-C ) :   1.5842
B(  1-C ,  4-C ) :   0.1003 B(  1-C , 32-H ) :   0.9813 B(  2-C ,  3-C ) :   1.2272
B(  2-C ,  6-C ) :   1.0230 B(  3-C ,  4-C ) :   1.5500 B(  3-C ,  5-H ) :   1.0023
B(  4-C , 20-C ) :   1.0586 B(  6-C ,  7-H ) :   0.9316 B(  6-C ,  8-H ) :   0.9394
B(  6-C ,  9-C ) :   1.0775 B(  9-C , 10-H ) :   0.9547 B(  9-C , 11-H ) :   0.9528
B(  9-C , 12-C ) :   1.0751 B( 12-C , 13-H ) :   0.9719 B( 12-C , 14-H ) :   0.9746
B( 12-C , 15-H ) :   0.9687 B( 16-S , 17-C ) :   1.1257 B( 16-S , 20-C ) :   1.1355
B( 17-C , 18-C ) :   1.6486 B( 17-C , 33-H ) :   0.9661 B( 18-C , 19-C ) :   1.2504
B( 18-C , 21-H ) :   0.9819 B( 19-C , 20-C ) :   1.5769 B( 19-C , 22-C ) :   1.0269
B( 22-C , 23-H ) :   0.9296 B( 22-C , 24-H ) :   0.9317 B( 22-C , 25-C ) :   1.0585
B( 25-C , 26-H ) :   0.9551 B( 25-C , 27-H ) :   0.9525 B( 25-C , 28-C ) :   1.0870
B( 28-C , 29-H ) :   0.9730 B( 28-C , 30-H ) :   0.9733 B( 28-C , 31-H ) :   0.9741

Dispersion correction           -0.015757937
FINAL SINGLE POINT ENERGY     -1339.871319023356

DIPOLE MOMENT
-------------
                                X             Y             Z
Electronic contribution:    -24.38804      -4.79013      18.57303
Nuclear contribution   :     24.99897       5.01056     -18.68412
                        -----------------------------------------
Total Dipole Moment    :      0.61093       0.22044      -0.11108
                        -----------------------------------------
Magnitude (a.u.)       :      0.65891
Magnitude (Debye)      :      1.67482

Rotational constants in cm-1:     0.020241     0.009666     0.007428
Rotational constants in MHz :   606.820491   289.774291   222.680381

                             ****ORCA TERMINATED NORMALLY****
TOTAL RUN TIME: 0 days 0 hours 0 minutes 36 seconds 73 msec
