                         Program Version 4.2.1 -  RELEASE  -
|  1> ! wB97X-D3 SP def2-SVP
|  2> %pal
|  3> nprocs 16
|  4> end
|  5>
|  6> * xyz 0 1
|  7> S 	 -2.23132 	 -17.4823 	 83.1831
|  8> C 	 -0.560218 	 -17.0554 	 83.0775
|  9> C 	 0.0596969 	 -17.3943 	 84.2445
| 10> C 	 -0.859167 	 -17.7763 	 85.2874
| 11> C 	 -2.15538 	 -17.82 	 84.8976
| 12> H 	 -0.577379 	 -18.1194 	 86.2237
| 13> C 	 1.5507 	 -17.3111 	 84.5336
| 14> H 	 1.85848 	 -16.2471 	 84.7856
| 15> H 	 1.91998 	 -17.4389 	 83.5748
| 16> C 	 2.18117 	 -18.3679 	 85.4885
| 17> H 	 3.23964 	 -18.3088 	 85.5523
| 18> H 	 1.8202 	 -18.0347 	 86.5262
| 19> C 	 1.80987 	 -19.8842 	 85.1175
| 20> H 	 2.41869 	 -20.5046 	 85.7904
| 21> H 	 0.744254 	 -20.1746 	 85.3708
| 22> H 	 1.97628 	 -20.0749 	 84.0273
| 23> S 	 -4.17805 	 -19.6356 	 84.8727
| 24> C 	 -5.07416 	 -19.9361 	 86.381
| 25> C 	 -4.74609 	 -19.052 	 87.3609
| 26> C 	 -3.79416 	 -18.0652 	 86.9362
| 27> C 	 -3.33464 	 -18.2911 	 85.6318
| 28> H 	 -5.16016 	 -19.0474 	 88.37
| 29> C 	 -3.3034 	 -17.0126 	 87.8702
| 30> H 	 -2.24061 	 -16.88 	 87.6577
| 31> H 	 -3.27619 	 -17.3965 	 88.8796
| 32> C 	 -4.11143 	 -15.7101 	 88.0001
| 33> H 	 -5.12495 	 -16.0123 	 88.3106
| 34> H 	 -4.17004 	 -15.3556 	 86.9791
| 35> C 	 -3.49539 	 -14.6556 	 88.9547
| 36> H 	 -3.03401 	 -15.0988 	 89.8422
| 37> H 	 -4.22964 	 -13.8834 	 89.1951
| 38> H 	 -2.69996 	 -14.1929 	 88.4249
| 39> H 	 -0.0420627 	 -16.834 	 82.178
| 40> H 	 -5.77214 	 -20.7179 	 86.5465
| 41> *
| 42>
| 43>                          ****END OF INPUT****

CARTESIAN COORDINATES (ANGSTROEM)
---------------------------------
  S     -2.231320  -17.482300   83.183100
  C     -0.560218  -17.055400   83.077500
  C      0.059697  -17.394300   84.244500
  C     -0.859167  -17.776300   85.287400
  C     -2.155380  -17.820000   84.897600
  H     -0.577379  -18.119400   86.223700
  C      1.550700  -17.311100   84.533600
  H      1.858480  -16.247100   84.785600
  H      1.919980  -17.438900   83.574800
  C      2.181170  -18.367900   85.488500
  H      3.239640  -18.308800   85.552300
  H      1.820200  -18.034700   86.526200
  C      1.809870  -19.884200   85.117500
  H      2.418690  -20.504600   85.790400
  H      0.744254  -20.174600   85.370800
  H      1.976280  -20.074900   84.027300
  S     -4.178050  -19.635600   84.872700
  C     -5.074160  -19.936100   86.381000
  C     -4.746090  -19.052000   87.360900
  C     -3.794160  -18.065200   86.936200
  C     -3.334640  -18.291100   85.631800
  H     -5.160160  -19.047400   88.370000
  C     -3.303400  -17.012600   87.870200
  H     -2.240610  -16.880000   87.657700
  H     -3.276190  -17.396500   88.879600
  C     -4.111430  -15.710100   88.000100
  H     -5.124950  -16.012300   88.310600
  H     -4.170040  -15.355600   86.979100
  C     -3.495390  -14.655600   88.954700
  H     -3.034010  -15.098800   89.842200
  H     -4.229640  -13.883400   89.195100
  H     -2.699960  -14.192900   88.424900
  H     -0.042063  -16.834000   82.178000
  H     -5.772140  -20.717900   86.546500

 Total Charge           Charge          ....    0
 Multiplicity           Mult            ....    1
 Number of Electrons    NEL             ....  134
 Basis Dimension        Dim             ....  322

ORBITAL ENERGIES
----------------

  NO   OCC          E(Eh)            E(eV)
   0   2.0000     -88.966827     -2420.9104
   1   2.0000     -88.961124     -2420.7553
   2   2.0000     -10.330292      -281.1015
   3   2.0000     -10.327919      -281.0370
   4   2.0000     -10.316882      -280.7366
   5   2.0000     -10.308950      -280.5208
   6   2.0000     -10.304117      -280.3893
   7   2.0000     -10.299815      -280.2722
   8   2.0000     -10.299155      -280.2542
   9   2.0000     -10.294278      -280.1215
  10   2.0000     -10.291199      -280.0378
  11   2.0000     -10.290925      -280.0303
  12   2.0000     -10.285778      -279.8903
  13   2.0000     -10.285334      -279.8782
  14   2.0000     -10.284898      -279.8663
  15   2.0000     -10.277680      -279.6699
  16   2.0000      -8.081024      -219.8958
  17   2.0000      -8.076599      -219.7754
  18   2.0000      -6.039653      -164.3473
  19   2.0000      -6.035618      -164.2375
  20   2.0000      -6.035198      -164.2261
  21   2.0000      -6.031660      -164.1298
  22   2.0000      -6.031034      -164.1128
  23   2.0000      -6.027183      -164.0080
  24   2.0000      -1.009164       -27.4608
  25   2.0000      -0.985259       -26.8103
  26   2.0000      -0.908321       -24.7167
  27   2.0000      -0.904274       -24.6065
  28   2.0000      -0.871333       -23.7102
  29   2.0000      -0.850484       -23.1429
  30   2.0000      -0.837604       -22.7924
  31   2.0000      -0.821179       -22.3454
  32   2.0000      -0.781403       -21.2631
  33   2.0000      -0.771277       -20.9875
  34   2.0000      -0.711658       -19.3652
  35   2.0000      -0.698513       -19.0075
  36   2.0000      -0.694354       -18.8943
  37   2.0000      -0.663627       -18.0582
  38   2.0000      -0.645292       -17.5593
  39   2.0000      -0.625334       -17.0162
  40   2.0000      -0.597002       -16.2452
  41   2.0000      -0.564751       -15.3676
  42   2.0000      -0.557010       -15.1570
  43   2.0000      -0.547581       -14.9004
  44   2.0000      -0.537023       -14.6131
  45   2.0000      -0.525402       -14.2969
  46   2.0000      -0.515309       -14.0223
  47   2.0000      -0.510726       -13.8976
  48   2.0000      -0.507518       -13.8103
  49   2.0000      -0.505814       -13.7639
  50   2.0000      -0.492252       -13.3949
  51   2.0000      -0.483226       -13.1493
  52   2.0000      -0.468824       -12.7574
  53   2.0000      -0.461175       -12.5492
  54   2.0000      -0.457435       -12.4474
  55   2.0000      -0.452734       -12.3195
  56   2.0000      -0.443790       -12.0761
  57   2.0000      -0.433986       -11.8094
  58   2.0000      -0.431545       -11.7429
  59   2.0000      -0.427813       -11.6414
  60   2.0000      -0.420429       -11.4404
  61   2.0000      -0.414507       -11.2793
  62   2.0000      -0.410274       -11.1641
  63   2.0000      -0.353115        -9.6087
  64   2.0000      -0.331625        -9.0240
  65   2.0000      -0.324430        -8.8282
  66   2.0000      -0.293886        -7.9970
  67   0.0000       0.031017         0.8440
  68   0.0000       0.069414         1.8889
  69   0.0000       0.105241         2.8638
  70   0.0000       0.123882         3.3710
  71   0.0000       0.131902         3.5892

MULLIKEN ATOMIC CHARGES
-----------------------
   0 S :    0.092948
   1 C :   -0.099538
   2 C :   -0.122008
   3 C :    0.058404
   4 C :   -0.140952
   5 H :   -0.016529
   6 C :    0.094945
   7 H :    0.053102
   8 H :   -0.009272
   9 C :   -0.099033
  10 H :    0.031607
  11 H :    0.037395
  12 C :   -0.085114
  13 H :    0.040324
  14 H :    0.051892
  15 H :    0.052884
  16 S :    0.098469
  17 C :   -0.066111
  18 C :   -0.027885
  19 C :   -0.052753
  20 C :   -0.134466
  21 H :    0.024231
  22 C :    0.052303
  23 H :    0.011489
  24 H :    0.003461
  25 C :   -0.063008
  26 H :    0.022449
  27 H :    0.032454
  28 C :   -0.022221
  29 H :    0.029318
  30 H :    0.043978
  31 H :    0.025375
  32 H :    0.038273
  33 H :    0.043591
Sum of atomic charges:   -0.0000000

LOEWDIN ATOMIC CHARGES
----------------------
   0 S :    0.404857
   1 C :   -0.198658
   2 C :   -0.060299
   3 C :   -0.058335
   4 C :   -0.189358
   5 H :    0.016948
   6 C :   -0.037797
   7 H :    0.042015
   8 H :    0.015242
   9 C :   -0.041998
  10 H :    0.021268
  11 H :    0.028417
  12 C :   -0.072917
  13 H :    0.027488
  14 H :    0.033189
  15 H :    0.032964
  16 S :    0.390990
  17 C :   -0.167772
  18 C :   -0.067034
  19 C :   -0.054323
  20 C :   -0.192097
  21 H :    0.035485
  22 C :   -0.040732
  23 H :    0.027839
  24 H :    0.024552
  25 C :   -0.034497
  26 H :    0.021795
  27 H :    0.024518
  28 C :   -0.061459
  29 H :    0.025468
  30 H :    0.031324
  31 H :    0.023931
  32 H :    0.025027
  33 H :    0.023957

  Mayer bond orders larger than 0.100000
B(  0-S ,  1-C ) :   1.1312 B(  0-S ,  4-C ) :   1.1485 B(  1-C ,  2-C ) :   1.6321
B(  1-C , 32-H ) :   0.9714 B(  2-C ,  3-C ) :   1.2232 B(  2-C ,  6-C ) :   1.0022
B(  3-C ,  4-C ) :   1.5926 B(  3-C ,  5-H ) :   1.0028 B(  4-C , 20-C ) :   1.0164
B(  6-C ,  7-H ) :   0.9409 B(  6-C ,  8-H ) :   0.9306 B(  6-C ,  9-C ) :   1.0674
B(  9-C , 10-H ) :   0.9601 B(  9-C , 11-H ) :   0.9523 B(  9-C , 12-C ) :   1.0601
B( 12-C , 13-H ) :   0.9767 B( 12-C , 14-H ) :   0.9731 B( 12-C , 15-H ) :   0.9762
B( 16-S , 17-C ) :   1.1347 B( 16-S , 20-C ) :   1.1344 B( 17-C , 18-C ) :   1.6274
B( 17-C , 33-H ) :   0.9703 B( 18-C , 19-C ) :   1.2378 B( 18-C , 21-H ) :   0.9855
B( 19-C , 20-C ) :   1.6042 B( 19-C , 22-C ) :   1.0564 B( 22-C , 23-H ) :   0.9307
B( 22-C , 24-H ) :   0.9250 B( 22-C , 25-C ) :   1.0569 B( 25-C , 26-H ) :   0.9556
B( 25-C , 27-H ) :   0.9587 B( 25-C , 28-C ) :   1.0729 B( 28-C , 29-H ) :   0.9755
B( 28-C , 30-H ) :   0.9749 B( 28-C , 31-H ) :   0.9747

Dispersion correction           -0.014180771
FINAL SINGLE POINT ENERGY     -1339.876624728917

DIPOLE MOMENT
-------------
                                X             Y             Z
Electronic contribution:    -14.92550      -7.90753     -17.14224
Nuclear contribution   :     15.39318       7.90433      17.69738
                        -----------------------------------------
Total Dipole Moment    :      0.46768      -0.00320       0.55514
                        -----------------------------------------
Magnitude (a.u.)       :      0.72589
Magnitude (Debye)      :      1.84507

Rotational constants in cm-1:     0.016420     0.008969     0.007551
Rotational constants in MHz :   492.262373   268.895346   226.371473

                             ****ORCA TERMINATED NORMALLY****
TOTAL RUN TIME: 0 days 0 hours 0 minutes 34 seconds 455 msec
