                         Program Version 4.2.1 -  RELEASE  -
|  1> ! wB97X-D3 SP def2-SVP
|  2> %pal
|  3> nprocs 16
|  4> end
|  5>
|  6> * xyz 0 1
|  7> S 	 -14.6154 	 40.3968 	 34.4989
|  8> C 	 -14.6448 	 38.6474 	 34.5355
|  9> C 	 -13.9278 	 38.2234 	 33.4413
| 10> C 	 -13.1924 	 39.2387 	 32.7355
| 11> C 	 -13.4316 	 40.4931 	 33.2113
| 12> H 	 -12.4945 	 39.1502 	 31.8745
| 13> C 	 -13.8551 	 36.7433 	 33.0751
| 14> H 	 -14.2205 	 36.1301 	 33.8713
| 15> H 	 -12.8043 	 36.4269 	 32.9427
| 16> C 	 -14.7367 	 36.3375 	 31.8821
| 17> H 	 -14.3721 	 35.4522 	 31.4026
| 18> H 	 -15.7246 	 35.9742 	 32.2937
| 19> C 	 -15.0117 	 37.4226 	 30.8128
| 20> H 	 -15.4557 	 37.0255 	 29.9442
| 21> H 	 -15.6444 	 38.2707 	 31.2158
| 22> H 	 -14.1923 	 37.8776 	 30.4423
| 23> S 	 -12.8667 	 43.2147 	 33.7333
| 24> C 	 -12.1677 	 44.2528 	 32.4929
| 25> C 	 -12.1509 	 43.605 	 31.2678
| 26> C 	 -12.5401 	 42.1751 	 31.3863
| 27> C 	 -12.9692 	 41.8229 	 32.6749
| 28> H 	 -11.8017 	 44.0897 	 30.3331
| 29> C 	 -12.5238 	 41.2804 	 30.1416
| 30> H 	 -12.9602 	 41.8358 	 29.2995
| 31> H 	 -13.2034 	 40.5004 	 30.3621
| 32> C 	 -11.0745 	 40.8113 	 29.7758
| 33> H 	 -10.5519 	 40.5599 	 30.6277
| 34> H 	 -10.4794 	 41.59 	 29.4462
| 35> C 	 -10.9994 	 39.6886 	 28.7119
| 36> H 	 -10.0663 	 39.1742 	 28.5919
| 37> H 	 -11.1658 	 40.1872 	 27.7606
| 38> H 	 -11.7667 	 38.9596 	 28.8966
| 39> H 	 -15.147 	 37.9528 	 35.2236
| 40> H 	 -11.7331 	 45.2251 	 32.5784
| 41> *
| 42>
| 43>                          ****END OF INPUT****

CARTESIAN COORDINATES (ANGSTROEM)
---------------------------------
  S    -14.615400   40.396800   34.498900
  C    -14.644800   38.647400   34.535500
  C    -13.927800   38.223400   33.441300
  C    -13.192400   39.238700   32.735500
  C    -13.431600   40.493100   33.211300
  H    -12.494500   39.150200   31.874500
  C    -13.855100   36.743300   33.075100
  H    -14.220500   36.130100   33.871300
  H    -12.804300   36.426900   32.942700
  C    -14.736700   36.337500   31.882100
  H    -14.372100   35.452200   31.402600
  H    -15.724600   35.974200   32.293700
  C    -15.011700   37.422600   30.812800
  H    -15.455700   37.025500   29.944200
  H    -15.644400   38.270700   31.215800
  H    -14.192300   37.877600   30.442300
  S    -12.866700   43.214700   33.733300
  C    -12.167700   44.252800   32.492900
  C    -12.150900   43.605000   31.267800
  C    -12.540100   42.175100   31.386300
  C    -12.969200   41.822900   32.674900
  H    -11.801700   44.089700   30.333100
  C    -12.523800   41.280400   30.141600
  H    -12.960200   41.835800   29.299500
  H    -13.203400   40.500400   30.362100
  C    -11.074500   40.811300   29.775800
  H    -10.551900   40.559900   30.627700
  H    -10.479400   41.590000   29.446200
  C    -10.999400   39.688600   28.711900
  H    -10.066300   39.174200   28.591900
  H    -11.165800   40.187200   27.760600
  H    -11.766700   38.959600   28.896600
  H    -15.147000   37.952800   35.223600
  H    -11.733100   45.225100   32.578400

 Total Charge           Charge          ....    0
 Multiplicity           Mult            ....    1
 Number of Electrons    NEL             ....  134
 Basis Dimension        Dim             ....  322

ORBITAL ENERGIES
----------------

  NO   OCC          E(Eh)            E(eV)
   0   2.0000     -88.968958     -2420.9684
   1   2.0000     -88.963623     -2420.8233
   2   2.0000     -10.337688      -281.3028
   3   2.0000     -10.336491      -281.2702
   4   2.0000     -10.322060      -280.8775
   5   2.0000     -10.317394      -280.7506
   6   2.0000     -10.313116      -280.6342
   7   2.0000     -10.303812      -280.3810
   8   2.0000     -10.303324      -280.3677
   9   2.0000     -10.297571      -280.2112
  10   2.0000     -10.295611      -280.1578
  11   2.0000     -10.289698      -279.9969
  12   2.0000     -10.288015      -279.9511
  13   2.0000     -10.279498      -279.7194
  14   2.0000     -10.277370      -279.6615
  15   2.0000     -10.266902      -279.3766
  16   2.0000      -8.083176      -219.9544
  17   2.0000      -8.078403      -219.8245
  18   2.0000      -6.041968      -164.4103
  19   2.0000      -6.037663      -164.2932
  20   2.0000      -6.037073      -164.2771
  21   2.0000      -6.033750      -164.1867
  22   2.0000      -6.032862      -164.1625
  23   2.0000      -6.029020      -164.0580
  24   2.0000      -1.005848       -27.3705
  25   2.0000      -0.983240       -26.7553
  26   2.0000      -0.908462       -24.7205
  27   2.0000      -0.907551       -24.6957
  28   2.0000      -0.868149       -23.6235
  29   2.0000      -0.849847       -23.1255
  30   2.0000      -0.838301       -22.8113
  31   2.0000      -0.823093       -22.3975
  32   2.0000      -0.786820       -21.4105
  33   2.0000      -0.774437       -21.0735
  34   2.0000      -0.716619       -19.5002
  35   2.0000      -0.701591       -19.0913
  36   2.0000      -0.697926       -18.9915
  37   2.0000      -0.660267       -17.9668
  38   2.0000      -0.640069       -17.4172
  39   2.0000      -0.616917       -16.7872
  40   2.0000      -0.590611       -16.0713
  41   2.0000      -0.569414       -15.4945
  42   2.0000      -0.566332       -15.4107
  43   2.0000      -0.551349       -15.0030
  44   2.0000      -0.539535       -14.6815
  45   2.0000      -0.530626       -14.4391
  46   2.0000      -0.518719       -14.1151
  47   2.0000      -0.514978       -14.0133
  48   2.0000      -0.508349       -13.8329
  49   2.0000      -0.500389       -13.6163
  50   2.0000      -0.492231       -13.3943
  51   2.0000      -0.481634       -13.1059
  52   2.0000      -0.475679       -12.9439
  53   2.0000      -0.466643       -12.6980
  54   2.0000      -0.463234       -12.6052
  55   2.0000      -0.448760       -12.2114
  56   2.0000      -0.445021       -12.1096
  57   2.0000      -0.436959       -11.8903
  58   2.0000      -0.434743       -11.8300
  59   2.0000      -0.425294       -11.5728
  60   2.0000      -0.420519       -11.4429
  61   2.0000      -0.417632       -11.3643
  62   2.0000      -0.404241       -11.0000
  63   2.0000      -0.360079        -9.7983
  64   2.0000      -0.330744        -9.0000
  65   2.0000      -0.326401        -8.8818
  66   2.0000      -0.293241        -7.9795
  67   0.0000       0.025265         0.6875
  68   0.0000       0.080307         2.1853
  69   0.0000       0.106924         2.9096
  70   0.0000       0.117714         3.2032
  71   0.0000       0.125545         3.4163

MULLIKEN ATOMIC CHARGES
-----------------------
   0 S :    0.089093
   1 C :   -0.105054
   2 C :   -0.124630
   3 C :   -0.006214
   4 C :   -0.101542
   5 H :    0.024726
   6 C :    0.090833
   7 H :    0.006597
   8 H :    0.036016
   9 C :   -0.091797
  10 H :    0.020009
  11 H :    0.027880
  12 C :    0.002162
  13 H :    0.018113
  14 H :    0.050802
  15 H :   -0.014499
  16 S :    0.107603
  17 C :   -0.078155
  18 C :   -0.035767
  19 C :   -0.104631
  20 C :   -0.115563
  21 H :    0.036161
  22 C :    0.069660
  23 H :    0.031800
  24 H :    0.009444
  25 C :   -0.028240
  26 H :    0.008408
  27 H :    0.003724
  28 C :   -0.028936
  29 H :    0.033024
  30 H :    0.026381
  31 H :    0.025788
  32 H :    0.061195
  33 H :    0.055611
Sum of atomic charges:   -0.0000000

LOEWDIN ATOMIC CHARGES
----------------------
   0 S :    0.394856
   1 C :   -0.200539
   2 C :   -0.062304
   3 C :   -0.077010
   4 C :   -0.178450
   5 H :    0.039268
   6 C :   -0.033596
   7 H :    0.026503
   8 H :    0.032048
   9 C :   -0.039049
  10 H :    0.020099
  11 H :    0.028062
  12 C :   -0.062722
  13 H :    0.022430
  14 H :    0.038912
  15 H :    0.003150
  16 S :    0.401222
  17 C :   -0.179931
  18 C :   -0.072022
  19 C :   -0.049573
  20 C :   -0.201519
  21 H :    0.037132
  22 C :   -0.025420
  23 H :    0.034510
  24 H :    0.020567
  25 C :   -0.032436
  26 H :    0.013413
  27 H :    0.017042
  28 C :   -0.059756
  29 H :    0.025509
  30 H :    0.026627
  31 H :    0.020154
  32 H :    0.041182
  33 H :    0.031640

  Mayer bond orders larger than 0.100000
B(  0-S ,  1-C ) :   1.1176 B(  0-S ,  4-C ) :   1.1517 B(  1-C ,  2-C ) :   1.6248
B(  1-C , 32-H ) :   0.9679 B(  2-C ,  3-C ) :   1.2069 B(  2-C ,  6-C ) :   1.0389
B(  3-C ,  4-C ) :   1.5981 B(  3-C ,  5-H ) :   0.9896 B(  4-C , 20-C ) :   1.0252
B(  6-C ,  7-H ) :   0.9426 B(  6-C ,  8-H ) :   0.9429 B(  6-C ,  9-C ) :   1.0556
B(  9-C , 10-H ) :   0.9563 B(  9-C , 11-H ) :   0.9584 B(  9-C , 12-C ) :   1.1014
B( 12-C , 13-H ) :   0.9661 B( 12-C , 14-H ) :   0.9642 B( 12-C , 15-H ) :   0.9700
B( 16-S , 17-C ) :   1.1443 B( 16-S , 20-C ) :   1.1259 B( 17-C , 18-C ) :   1.6278
B( 17-C , 33-H ) :   0.9687 B( 18-C , 19-C ) :   1.2280 B( 18-C , 21-H ) :   0.9809
B( 19-C , 20-C ) :   1.6075 B( 19-C , 22-C ) :   1.0460 B( 22-C , 23-H ) :   0.9354
B( 22-C , 24-H ) :   0.9398 B( 22-C , 25-C ) :   1.0438 B( 25-C , 26-H ) :   0.9562
B( 25-C , 27-H ) :   0.9511 B( 25-C , 28-C ) :   1.0760 B( 28-C , 29-H ) :   0.9750
B( 28-C , 30-H ) :   0.9764 B( 28-C , 31-H ) :   0.9799

Dispersion correction           -0.015380522
FINAL SINGLE POINT ENERGY     -1339.867052444037

DIPOLE MOMENT
-------------
                                X             Y             Z
Electronic contribution:     -4.11291      19.99409      23.51393
Nuclear contribution   :      4.41370     -20.33833     -24.18892
                        -----------------------------------------
Total Dipole Moment    :      0.30079      -0.34424      -0.67499
                        -----------------------------------------
Magnitude (a.u.)       :      0.81522
Magnitude (Debye)      :      2.07213

Rotational constants in cm-1:     0.017169     0.010562     0.006972
Rotational constants in MHz :   514.719842   316.643666   209.000831

                             ****ORCA TERMINATED NORMALLY****
TOTAL RUN TIME: 0 days 0 hours 0 minutes 35 seconds 808 msec
