                         Program Version 4.2.1 -  RELEASE  -
|  1> ! wB97X-D3 SP def2-SVP
|  2> %pal
|  3> nprocs 16
|  4> end
|  5>
|  6> * xyz 0 1
|  7> S 	 -21.1043 	 50.0393 	 64.6671
|  8> C 	 -20.4003 	 48.3992 	 64.4921
|  9> C 	 -20.3366 	 47.7966 	 65.7319
| 10> C 	 -20.8674 	 48.6032 	 66.7412
| 11> C 	 -21.2516 	 49.8824 	 66.4106
| 12> H 	 -21.0014 	 48.2242 	 67.763
| 13> C 	 -19.8276 	 46.4615 	 65.9914
| 14> H 	 -19.2133 	 46.5332 	 66.8468
| 15> H 	 -19.1583 	 46.242 	 65.0879
| 16> C 	 -20.8525 	 45.3274 	 66.2248
| 17> H 	 -20.4825 	 44.3866 	 66.717
| 18> H 	 -21.5925 	 45.6768 	 66.9726
| 19> C 	 -21.688 	 45.0029 	 64.9878
| 20> H 	 -22.0247 	 45.9551 	 64.4028
| 21> H 	 -21.1146 	 44.4111 	 64.2686
| 22> H 	 -22.5963 	 44.4724 	 65.1914
| 23> S 	 -22.9616 	 52.0342 	 66.448
| 24> C 	 -23.2173 	 52.8806 	 67.9708
| 25> C 	 -22.5578 	 52.2663 	 69.0762
| 26> C 	 -21.7777 	 51.1233 	 68.6284
| 27> C 	 -21.8039 	 50.9506 	 67.2694
| 28> H 	 -22.6864 	 52.6164 	 70.0896
| 29> C 	 -21.0915 	 50.2842 	 69.6777
| 30> H 	 -20.6406 	 50.8766 	 70.4154
| 31> H 	 -20.2146 	 49.8515 	 69.188
| 32> C 	 -21.9463 	 49.1555 	 70.2955
| 33> H 	 -22.2176 	 48.4014 	 69.5402
| 34> H 	 -22.8754 	 49.6407 	 70.7603
| 35> C 	 -21.2748 	 48.4284 	 71.4398
| 36> H 	 -21.9311 	 47.7846 	 72.019
| 37> H 	 -20.884 	 49.2231 	 72.0616
| 38> H 	 -20.436 	 47.8478 	 71.0082
| 39> H 	 -20.0134 	 48.0046 	 63.5631
| 40> H 	 -23.6788 	 53.8368 	 68.1359
| 41> *
| 42>
| 43>                          ****END OF INPUT****

CARTESIAN COORDINATES (ANGSTROEM)
---------------------------------
  S    -21.104300   50.039300   64.667100
  C    -20.400300   48.399200   64.492100
  C    -20.336600   47.796600   65.731900
  C    -20.867400   48.603200   66.741200
  C    -21.251600   49.882400   66.410600
  H    -21.001400   48.224200   67.763000
  C    -19.827600   46.461500   65.991400
  H    -19.213300   46.533200   66.846800
  H    -19.158300   46.242000   65.087900
  C    -20.852500   45.327400   66.224800
  H    -20.482500   44.386600   66.717000
  H    -21.592500   45.676800   66.972600
  C    -21.688000   45.002900   64.987800
  H    -22.024700   45.955100   64.402800
  H    -21.114600   44.411100   64.268600
  H    -22.596300   44.472400   65.191400
  S    -22.961600   52.034200   66.448000
  C    -23.217300   52.880600   67.970800
  C    -22.557800   52.266300   69.076200
  C    -21.777700   51.123300   68.628400
  C    -21.803900   50.950600   67.269400
  H    -22.686400   52.616400   70.089600
  C    -21.091500   50.284200   69.677700
  H    -20.640600   50.876600   70.415400
  H    -20.214600   49.851500   69.188000
  C    -21.946300   49.155500   70.295500
  H    -22.217600   48.401400   69.540200
  H    -22.875400   49.640700   70.760300
  C    -21.274800   48.428400   71.439800
  H    -21.931100   47.784600   72.019000
  H    -20.884000   49.223100   72.061600
  H    -20.436000   47.847800   71.008200
  H    -20.013400   48.004600   63.563100
  H    -23.678800   53.836800   68.135900

 Total Charge           Charge          ....    0
 Multiplicity           Mult            ....    1
 Number of Electrons    NEL             ....  134
 Basis Dimension        Dim             ....  322

ORBITAL ENERGIES
----------------

  NO   OCC          E(Eh)            E(eV)
   0   2.0000     -88.971549     -2421.0389
   1   2.0000     -88.965986     -2420.8876
   2   2.0000     -10.334123      -281.2058
   3   2.0000     -10.333746      -281.1955
   4   2.0000     -10.323478      -280.9161
   5   2.0000     -10.318531      -280.7815
   6   2.0000     -10.307696      -280.4867
   7   2.0000     -10.301664      -280.3225
   8   2.0000     -10.295882      -280.1652
   9   2.0000     -10.295370      -280.1512
  10   2.0000     -10.295054      -280.1427
  11   2.0000     -10.293001      -280.0868
  12   2.0000     -10.291123      -280.0357
  13   2.0000     -10.290114      -280.0082
  14   2.0000     -10.280621      -279.7499
  15   2.0000     -10.279643      -279.7233
  16   2.0000      -8.085312      -220.0125
  17   2.0000      -8.079962      -219.8669
  18   2.0000      -6.044005      -164.4657
  19   2.0000      -6.040061      -164.3584
  20   2.0000      -6.038607      -164.3189
  21   2.0000      -6.035837      -164.2435
  22   2.0000      -6.034567      -164.2089
  23   2.0000      -6.030628      -164.1017
  24   2.0000      -1.005587       -27.3634
  25   2.0000      -0.982232       -26.7279
  26   2.0000      -0.916636       -24.9429
  27   2.0000      -0.913085       -24.8463
  28   2.0000      -0.865060       -23.5395
  29   2.0000      -0.857908       -23.3449
  30   2.0000      -0.844025       -22.9671
  31   2.0000      -0.814045       -22.1513
  32   2.0000      -0.784756       -21.3543
  33   2.0000      -0.775251       -21.0956
  34   2.0000      -0.707143       -19.2423
  35   2.0000      -0.698189       -18.9987
  36   2.0000      -0.692731       -18.8502
  37   2.0000      -0.667553       -18.1650
  38   2.0000      -0.638860       -17.3843
  39   2.0000      -0.624719       -16.9995
  40   2.0000      -0.595013       -16.1911
  41   2.0000      -0.573889       -15.6163
  42   2.0000      -0.568481       -15.4692
  43   2.0000      -0.553473       -15.0608
  44   2.0000      -0.536922       -14.6104
  45   2.0000      -0.529430       -14.4065
  46   2.0000      -0.524296       -14.2668
  47   2.0000      -0.517898       -14.0927
  48   2.0000      -0.504178       -13.7194
  49   2.0000      -0.501561       -13.6482
  50   2.0000      -0.487295       -13.2600
  51   2.0000      -0.485487       -13.2108
  52   2.0000      -0.464737       -12.6461
  53   2.0000      -0.460211       -12.5230
  54   2.0000      -0.458163       -12.4673
  55   2.0000      -0.453815       -12.3489
  56   2.0000      -0.440869       -11.9967
  57   2.0000      -0.437367       -11.9014
  58   2.0000      -0.434993       -11.8368
  59   2.0000      -0.431245       -11.7348
  60   2.0000      -0.418219       -11.3803
  61   2.0000      -0.414940       -11.2911
  62   2.0000      -0.410720       -11.1762
  63   2.0000      -0.355341        -9.6693
  64   2.0000      -0.335276        -9.1233
  65   2.0000      -0.330732        -8.9997
  66   2.0000      -0.286539        -7.7971
  67   0.0000       0.018290         0.4977
  68   0.0000       0.076357         2.0778
  69   0.0000       0.090569         2.4645
  70   0.0000       0.114660         3.1200
  71   0.0000       0.125554         3.4165

MULLIKEN ATOMIC CHARGES
-----------------------
   0 S :    0.083457
   1 C :   -0.124152
   2 C :   -0.077226
   3 C :   -0.008716
   4 C :   -0.102561
   5 H :   -0.010724
   6 C :    0.084296
   7 H :    0.018508
   8 H :    0.029756
   9 C :   -0.071558
  10 H :    0.041587
  11 H :    0.024488
  12 C :   -0.085432
  13 H :    0.048921
  14 H :    0.027640
  15 H :    0.033031
  16 S :    0.102879
  17 C :   -0.079902
  18 C :   -0.039445
  19 C :   -0.063887
  20 C :   -0.095852
  21 H :    0.022561
  22 C :    0.073407
  23 H :    0.003429
  24 H :    0.017638
  25 C :   -0.108312
  26 H :    0.043176
  27 H :    0.035983
  28 C :   -0.024348
  29 H :    0.044183
  30 H :    0.022777
  31 H :    0.029595
  32 H :    0.048639
  33 H :    0.056162
Sum of atomic charges:   -0.0000000

LOEWDIN ATOMIC CHARGES
----------------------
   0 S :    0.379728
   1 C :   -0.178514
   2 C :   -0.069712
   3 C :   -0.073322
   4 C :   -0.182073
   5 H :    0.028424
   6 C :   -0.032017
   7 H :    0.027760
   8 H :    0.039032
   9 C :   -0.046809
  10 H :    0.031548
  11 H :    0.025571
  12 C :   -0.076235
  13 H :    0.037956
  14 H :    0.020554
  15 H :    0.021967
  16 S :    0.389314
  17 C :   -0.179526
  18 C :   -0.062307
  19 C :   -0.051535
  20 C :   -0.179451
  21 H :    0.031552
  22 C :   -0.033049
  23 H :    0.022336
  24 H :    0.030161
  25 C :   -0.042775
  26 H :    0.022352
  27 H :    0.030632
  28 C :   -0.063734
  29 H :    0.027543
  30 H :    0.022770
  31 H :    0.025943
  32 H :    0.028278
  33 H :    0.027634

  Mayer bond orders larger than 0.100000
B(  0-S ,  1-C ) :   1.1248 B(  0-S ,  4-C ) :   1.1457 B(  1-C ,  2-C ) :   1.5818
B(  1-C ,  4-C ) :   0.1004 B(  1-C , 32-H ) :   0.9695 B(  2-C ,  3-C ) :   1.2687
B(  2-C ,  6-C ) :   1.0330 B(  3-C ,  4-C ) :   1.5575 B(  3-C ,  5-H ) :   0.9835
B(  4-C , 20-C ) :   1.0494 B(  6-C ,  7-H ) :   0.9283 B(  6-C ,  8-H ) :   0.9416
B(  6-C ,  9-C ) :   1.0630 B(  9-C , 10-H ) :   0.9565 B(  9-C , 11-H ) :   0.9554
B(  9-C , 12-C ) :   1.0695 B( 12-C , 13-H ) :   0.9727 B( 12-C , 14-H ) :   0.9761
B( 12-C , 15-H ) :   0.9749 B( 16-S , 17-C ) :   1.1478 B( 16-S , 20-C ) :   1.1123
B( 17-C , 18-C ) :   1.6228 B( 17-C , 33-H ) :   0.9652 B( 18-C , 19-C ) :   1.2154
B( 18-C , 21-H ) :   0.9890 B( 19-C , 20-C ) :   1.6407 B( 19-C , 22-C ) :   1.0486
B( 22-C , 23-H ) :   0.9276 B( 22-C , 24-H ) :   0.9260 B( 22-C , 25-C ) :   1.0614
B( 25-C , 26-H ) :   0.9505 B( 25-C , 27-H ) :   0.9528 B( 25-C , 28-C ) :   1.0818
B( 28-C , 29-H ) :   0.9743 B( 28-C , 30-H ) :   0.9725 B( 28-C , 31-H ) :   0.9735

Dispersion correction           -0.014484722
FINAL SINGLE POINT ENERGY     -1339.879753767029

DIPOLE MOMENT
-------------
                                X             Y             Z
Electronic contribution:     -4.20612      24.61759     -15.73981
Nuclear contribution   :      4.31624     -25.02930      16.39442
                        -----------------------------------------
Total Dipole Moment    :      0.11013      -0.41172       0.65460
                        -----------------------------------------
Magnitude (a.u.)       :      0.78112
Magnitude (Debye)      :      1.98544

Rotational constants in cm-1:     0.017331     0.009709     0.006778
Rotational constants in MHz :   519.568217   291.058693   203.192226

                             ****ORCA TERMINATED NORMALLY****
TOTAL RUN TIME: 0 days 0 hours 0 minutes 34 seconds 199 msec
