                         Program Version 4.2.1 -  RELEASE  -
|  1> ! wB97X-D3 SP def2-SVP
|  2> %pal
|  3> nprocs 16
|  4> end
|  5>
|  6> * xyz 0 1
|  7> S 	 13.919 	 25.0144 	 65.0332
|  8> C 	 14.7126 	 26.2318 	 64.0626
|  9> C 	 15.4153 	 27.1596 	 64.8204
| 10> C 	 15.4812 	 26.7483 	 66.1984
| 11> C 	 14.7801 	 25.6149 	 66.5067
| 12> H 	 16.0158 	 27.2532 	 66.9581
| 13> C 	 16.0791 	 28.3829 	 64.2394
| 14> H 	 15.2449 	 29.0645 	 63.9063
| 15> H 	 16.542 	 28.0744 	 63.3287
| 16> C 	 17.2293 	 29.1209 	 64.9619
| 17> H 	 17.3304 	 30.0801 	 64.4296
| 18> H 	 17.004 	 29.4068 	 66.0129
| 19> C 	 18.5154 	 28.2743 	 65.0234
| 20> H 	 18.7282 	 27.9579 	 63.9558
| 21> H 	 19.1921 	 28.8293 	 65.5748
| 22> H 	 18.4177 	 27.349 	 65.6621
| 23> S 	 13.1458 	 24.4559 	 68.3678
| 24> C 	 13.7343 	 24.2327 	 69.9649
| 25> C 	 15.0777 	 24.3978 	 70.009
| 26> C 	 15.6575 	 24.7933 	 68.7834
| 27> C 	 14.7086 	 24.9474 	 67.8114
| 28> H 	 15.595 	 24.2611 	 70.9569
| 29> C 	 17.1357 	 25.0706 	 68.5844
| 30> H 	 17.2915 	 25.4557 	 67.5829
| 31> H 	 17.4712 	 24.0442 	 68.6106
| 32> C 	 17.9059 	 25.6971 	 69.7155
| 33> H 	 18.9298 	 25.9261 	 69.2809
| 34> H 	 18.014 	 24.9862 	 70.5415
| 35> C 	 17.2022 	 26.9731 	 70.1411
| 36> H 	 16.3599 	 26.8888 	 70.7409
| 37> H 	 16.833 	 27.5457 	 69.2672
| 38> H 	 17.9624 	 27.5186 	 70.769
| 39> H 	 14.4687 	 26.4222 	 63.03
| 40> H 	 13.1683 	 23.939 	 70.8289
| 41> *
| 42>
| 43>                          ****END OF INPUT****

CARTESIAN COORDINATES (ANGSTROEM)
---------------------------------
  S     13.919000   25.014400   65.033200
  C     14.712600   26.231800   64.062600
  C     15.415300   27.159600   64.820400
  C     15.481200   26.748300   66.198400
  C     14.780100   25.614900   66.506700
  H     16.015800   27.253200   66.958100
  C     16.079100   28.382900   64.239400
  H     15.244900   29.064500   63.906300
  H     16.542000   28.074400   63.328700
  C     17.229300   29.120900   64.961900
  H     17.330400   30.080100   64.429600
  H     17.004000   29.406800   66.012900
  C     18.515400   28.274300   65.023400
  H     18.728200   27.957900   63.955800
  H     19.192100   28.829300   65.574800
  H     18.417700   27.349000   65.662100
  S     13.145800   24.455900   68.367800
  C     13.734300   24.232700   69.964900
  C     15.077700   24.397800   70.009000
  C     15.657500   24.793300   68.783400
  C     14.708600   24.947400   67.811400
  H     15.595000   24.261100   70.956900
  C     17.135700   25.070600   68.584400
  H     17.291500   25.455700   67.582900
  H     17.471200   24.044200   68.610600
  C     17.905900   25.697100   69.715500
  H     18.929800   25.926100   69.280900
  H     18.014000   24.986200   70.541500
  C     17.202200   26.973100   70.141100
  H     16.359900   26.888800   70.740900
  H     16.833000   27.545700   69.267200
  H     17.962400   27.518600   70.769000
  H     14.468700   26.422200   63.030000
  H     13.168300   23.939000   70.828900

 Total Charge           Charge          ....    0
 Multiplicity           Mult            ....    1
 Number of Electrons    NEL             ....  134
 Basis Dimension        Dim             ....  322

ORBITAL ENERGIES
----------------

  NO   OCC          E(Eh)            E(eV)
   0   2.0000     -88.964522     -2420.8477
   1   2.0000     -88.961823     -2420.7743
   2   2.0000     -10.331561      -281.1361
   3   2.0000     -10.320274      -280.8289
   4   2.0000     -10.311459      -280.5891
   5   2.0000     -10.310724      -280.5691
   6   2.0000     -10.302239      -280.3382
   7   2.0000     -10.299032      -280.2509
   8   2.0000     -10.295128      -280.1447
   9   2.0000     -10.294386      -280.1245
  10   2.0000     -10.293172      -280.0915
  11   2.0000     -10.290539      -280.0198
  12   2.0000     -10.288792      -279.9723
  13   2.0000     -10.284664      -279.8599
  14   2.0000     -10.284507      -279.8557
  15   2.0000     -10.276179      -279.6291
  16   2.0000      -8.078391      -219.8242
  17   2.0000      -8.077859      -219.8097
  18   2.0000      -6.037066      -164.2769
  19   2.0000      -6.036279      -164.2555
  20   2.0000      -6.033091      -164.1688
  21   2.0000      -6.032234      -164.1454
  22   2.0000      -6.028973      -164.0567
  23   2.0000      -6.028590      -164.0463
  24   2.0000      -1.011899       -27.5352
  25   2.0000      -0.983414       -26.7600
  26   2.0000      -0.919713       -25.0266
  27   2.0000      -0.910629       -24.7795
  28   2.0000      -0.872288       -23.7362
  29   2.0000      -0.851852       -23.1801
  30   2.0000      -0.842956       -22.9380
  31   2.0000      -0.820650       -22.3310
  32   2.0000      -0.787523       -21.4296
  33   2.0000      -0.774011       -21.0619
  34   2.0000      -0.710976       -19.3466
  35   2.0000      -0.699130       -19.0243
  36   2.0000      -0.691919       -18.8281
  37   2.0000      -0.657933       -17.9033
  38   2.0000      -0.639701       -17.4071
  39   2.0000      -0.625533       -17.0216
  40   2.0000      -0.597826       -16.2677
  41   2.0000      -0.573830       -15.6147
  42   2.0000      -0.561767       -15.2865
  43   2.0000      -0.553793       -15.0695
  44   2.0000      -0.545054       -14.8317
  45   2.0000      -0.529617       -14.4116
  46   2.0000      -0.521227       -14.1833
  47   2.0000      -0.511611       -13.9216
  48   2.0000      -0.500406       -13.6167
  49   2.0000      -0.498162       -13.5557
  50   2.0000      -0.496099       -13.4995
  51   2.0000      -0.489066       -13.3082
  52   2.0000      -0.482329       -13.1248
  53   2.0000      -0.464862       -12.6496
  54   2.0000      -0.458487       -12.4761
  55   2.0000      -0.447951       -12.1894
  56   2.0000      -0.445581       -12.1249
  57   2.0000      -0.436195       -11.8695
  58   2.0000      -0.430688       -11.7196
  59   2.0000      -0.426330       -11.6010
  60   2.0000      -0.416185       -11.3250
  61   2.0000      -0.415358       -11.3025
  62   2.0000      -0.414065       -11.2673
  63   2.0000      -0.353402        -9.6166
  64   2.0000      -0.331750        -9.0274
  65   2.0000      -0.325105        -8.8466
  66   2.0000      -0.286517        -7.7965
  67   0.0000       0.031606         0.8600
  68   0.0000       0.073221         1.9924
  69   0.0000       0.110964         3.0195
  70   0.0000       0.118473         3.2238
  71   0.0000       0.125081         3.4036

MULLIKEN ATOMIC CHARGES
-----------------------
   0 S :    0.099364
   1 C :   -0.117848
   2 C :   -0.087124
   3 C :    0.030381
   4 C :   -0.124148
   5 H :   -0.025616
   6 C :    0.046548
   7 H :    0.050012
   8 H :    0.015811
   9 C :   -0.083084
  10 H :    0.037659
  11 H :    0.027231
  12 C :   -0.046873
  13 H :    0.046779
  14 H :    0.024276
  15 H :    0.039969
  16 S :    0.108460
  17 C :   -0.074844
  18 C :   -0.053203
  19 C :   -0.061478
  20 C :   -0.157077
  21 H :    0.014675
  22 C :    0.085366
  23 H :    0.028438
  24 H :    0.030306
  25 C :   -0.075074
  26 H :    0.045021
  27 H :    0.032169
  28 C :   -0.039962
  29 H :    0.021474
  30 H :    0.033068
  31 H :    0.037245
  32 H :    0.043851
  33 H :    0.048228
Sum of atomic charges:   -0.0000000

LOEWDIN ATOMIC CHARGES
----------------------
   0 S :    0.375336
   1 C :   -0.197959
   2 C :   -0.060216
   3 C :   -0.062925
   4 C :   -0.167841
   5 H :    0.019767
   6 C :   -0.041713
   7 H :    0.041812
   8 H :    0.028282
   9 C :   -0.044758
  10 H :    0.031380
  11 H :    0.021650
  12 C :   -0.064611
  13 H :    0.033986
  14 H :    0.017060
  15 H :    0.032231
  16 S :    0.420839
  17 C :   -0.187551
  18 C :   -0.078407
  19 C :   -0.054645
  20 C :   -0.207856
  21 H :    0.031559
  22 C :   -0.037844
  23 H :    0.029080
  24 H :    0.040531
  25 C :   -0.043058
  26 H :    0.037424
  27 H :    0.024143
  28 C :   -0.067266
  29 H :    0.015727
  30 H :    0.028827
  31 H :    0.031905
  32 H :    0.025198
  33 H :    0.029913

  Mayer bond orders larger than 0.100000
B(  0-S ,  1-C ) :   1.1318 B(  0-S ,  4-C ) :   1.1283 B(  1-C ,  2-C ) :   1.6323
B(  1-C , 32-H ) :   0.9661 B(  2-C ,  3-C ) :   1.2295 B(  2-C ,  6-C ) :   1.0073
B(  3-C ,  4-C ) :   1.5941 B(  3-C ,  5-H ) :   0.9993 B(  4-C , 20-C ) :   1.0253
B(  6-C ,  7-H ) :   0.9316 B(  6-C ,  8-H ) :   0.9415 B(  6-C ,  9-C ) :   1.0792
B(  9-C , 10-H ) :   0.9510 B(  9-C , 11-H ) :   0.9516 B(  9-C , 12-C ) :   1.0731
B( 12-C , 13-H ) :   0.9731 B( 12-C , 14-H ) :   0.9717 B( 12-C , 15-H ) :   0.9733
B( 16-S , 17-C ) :   1.1599 B( 16-S , 20-C ) :   1.1403 B( 17-C , 18-C ) :   1.6150
B( 17-C , 33-H ) :   0.9679 B( 18-C , 19-C ) :   1.2376 B( 18-C , 21-H ) :   0.9900
B( 19-C , 20-C ) :   1.6070 B( 19-C , 22-C ) :   1.0199 B( 22-C , 23-H ) :   0.9397
B( 22-C , 24-H ) :   0.9162 B( 22-C , 25-C ) :   1.0843 B( 25-C , 26-H ) :   0.9532
B( 25-C , 27-H ) :   0.9422 B( 25-C , 28-C ) :   1.0854 B( 28-C , 29-H ) :   0.9665
B( 28-C , 30-H ) :   0.9729 B( 28-C , 31-H ) :   0.9732

Dispersion correction           -0.015489762
FINAL SINGLE POINT ENERGY     -1339.873471800261

DIPOLE MOMENT
-------------
                                X             Y             Z
Electronic contribution:    -24.88217     -16.94031      -3.48706
Nuclear contribution   :     25.49302      17.38151       3.76226
                        -----------------------------------------
Total Dipole Moment    :      0.61084       0.44120       0.27520
                        -----------------------------------------
Magnitude (a.u.)       :      0.80220
Magnitude (Debye)      :      2.03903

Rotational constants in cm-1:     0.017643     0.010638     0.007177
Rotational constants in MHz :   528.931464   318.927736   215.148616

                             ****ORCA TERMINATED NORMALLY****
TOTAL RUN TIME: 0 days 0 hours 0 minutes 37 seconds 136 msec
