                         Program Version 4.2.1 -  RELEASE  -
|  1> ! wB97X-D3 SP def2-SVP
|  2> %pal
|  3> nprocs 16
|  4> end
|  5>
|  6> * xyz 0 1
|  7> S 	 -39.6608 	 21.8772 	 80.6185
|  8> C 	 -39.7339 	 22.9213 	 82.0527
|  9> C 	 -39.811 	 24.2694 	 81.6945
| 10> C 	 -39.7757 	 24.5004 	 80.2811
| 11> C 	 -39.7256 	 23.3237 	 79.5721
| 12> H 	 -39.8757 	 25.494 	 79.7602
| 13> C 	 -39.9422 	 25.4225 	 82.7057
| 14> H 	 -40.6503 	 25.0724 	 83.4159
| 15> H 	 -40.3849 	 26.3258 	 82.3573
| 16> C 	 -38.6042 	 25.6213 	 83.3974
| 17> H 	 -38.2779 	 24.693 	 83.8243
| 18> H 	 -37.8057 	 26.0019 	 82.8031
| 19> C 	 -38.804 	 26.6399 	 84.5116
| 20> H 	 -39.3497 	 26.2227 	 85.3265
| 21> H 	 -37.8864 	 26.8249 	 85.133
| 22> H 	 -39.2026 	 27.6459 	 84.1723
| 23> S 	 -38.4196 	 22.3225 	 77.3027
| 24> C 	 -39.1005 	 22.5905 	 75.7402
| 25> C 	 -40.3036 	 23.1936 	 75.7766
| 26> C 	 -40.6273 	 23.6675 	 77.1211
| 27> C 	 -39.7233 	 23.2825 	 78.0609
| 28> H 	 -40.9046 	 23.4106 	 74.8698
| 29> C 	 -41.9495 	 24.4543 	 77.2802
| 30> H 	 -41.9583 	 25.1151 	 76.446
| 31> H 	 -41.8282 	 25.0492 	 78.1574
| 32> C 	 -43.3333 	 23.7264 	 77.2908
| 33> H 	 -43.3128 	 23.1287 	 76.4284
| 34> H 	 -43.9821 	 24.5841 	 77.058
| 35> C 	 -43.5422 	 22.9374 	 78.5071
| 36> H 	 -44.5061 	 22.5241 	 78.4913
| 37> H 	 -43.408 	 23.6068 	 79.36
| 38> H 	 -42.849 	 22.2458 	 78.7304
| 39> H 	 -39.7954 	 22.6009 	 83.071
| 40> H 	 -38.5541 	 22.3323 	 74.8005
| 41> *
| 42>
| 43>                          ****END OF INPUT****

CARTESIAN COORDINATES (ANGSTROEM)
---------------------------------
  S    -39.660800   21.877200   80.618500
  C    -39.733900   22.921300   82.052700
  C    -39.811000   24.269400   81.694500
  C    -39.775700   24.500400   80.281100
  C    -39.725600   23.323700   79.572100
  H    -39.875700   25.494000   79.760200
  C    -39.942200   25.422500   82.705700
  H    -40.650300   25.072400   83.415900
  H    -40.384900   26.325800   82.357300
  C    -38.604200   25.621300   83.397400
  H    -38.277900   24.693000   83.824300
  H    -37.805700   26.001900   82.803100
  C    -38.804000   26.639900   84.511600
  H    -39.349700   26.222700   85.326500
  H    -37.886400   26.824900   85.133000
  H    -39.202600   27.645900   84.172300
  S    -38.419600   22.322500   77.302700
  C    -39.100500   22.590500   75.740200
  C    -40.303600   23.193600   75.776600
  C    -40.627300   23.667500   77.121100
  C    -39.723300   23.282500   78.060900
  H    -40.904600   23.410600   74.869800
  C    -41.949500   24.454300   77.280200
  H    -41.958300   25.115100   76.446000
  H    -41.828200   25.049200   78.157400
  C    -43.333300   23.726400   77.290800
  H    -43.312800   23.128700   76.428400
  H    -43.982100   24.584100   77.058000
  C    -43.542200   22.937400   78.507100
  H    -44.506100   22.524100   78.491300
  H    -43.408000   23.606800   79.360000
  H    -42.849000   22.245800   78.730400
  H    -39.795400   22.600900   83.071000
  H    -38.554100   22.332300   74.800500

 Total Charge           Charge          ....    0
 Multiplicity           Mult            ....    1
 Number of Electrons    NEL             ....  134
 Basis Dimension        Dim             ....  322

ORBITAL ENERGIES
----------------

  NO   OCC          E(Eh)            E(eV)
   0   2.0000     -88.972306     -2421.0595
   1   2.0000     -88.959730     -2420.7173
   2   2.0000     -10.335708      -281.2489
   3   2.0000     -10.328878      -281.0631
   4   2.0000     -10.316064      -280.7144
   5   2.0000     -10.316002      -280.7127
   6   2.0000     -10.304035      -280.3870
   7   2.0000     -10.303987      -280.3857
   8   2.0000     -10.297648      -280.2132
   9   2.0000     -10.293210      -280.0925
  10   2.0000     -10.287656      -279.9414
  11   2.0000     -10.284597      -279.8581
  12   2.0000     -10.280892      -279.7573
  13   2.0000     -10.279313      -279.7143
  14   2.0000     -10.279197      -279.7112
  15   2.0000     -10.255887      -279.0769
  16   2.0000      -8.085461      -220.0166
  17   2.0000      -8.074884      -219.7288
  18   2.0000      -6.044177      -164.4704
  19   2.0000      -6.040262      -164.3639
  20   2.0000      -6.036018      -164.2484
  21   2.0000      -6.033503      -164.1800
  22   2.0000      -6.029418      -164.0688
  23   2.0000      -6.025429      -163.9602
  24   2.0000      -1.000619       -27.2282
  25   2.0000      -0.980872       -26.6909
  26   2.0000      -0.915536       -24.9130
  27   2.0000      -0.911845       -24.8126
  28   2.0000      -0.863952       -23.5093
  29   2.0000      -0.851939       -23.1824
  30   2.0000      -0.845411       -23.0048
  31   2.0000      -0.814095       -22.1527
  32   2.0000      -0.785975       -21.3875
  33   2.0000      -0.771410       -20.9911
  34   2.0000      -0.707170       -19.2431
  35   2.0000      -0.705081       -19.1862
  36   2.0000      -0.690355       -18.7855
  37   2.0000      -0.656796       -17.8723
  38   2.0000      -0.639384       -17.3985
  39   2.0000      -0.615114       -16.7381
  40   2.0000      -0.594646       -16.1811
  41   2.0000      -0.578653       -15.7460
  42   2.0000      -0.557983       -15.1835
  43   2.0000      -0.553842       -15.0708
  44   2.0000      -0.543083       -14.7780
  45   2.0000      -0.522027       -14.2051
  46   2.0000      -0.520486       -14.1631
  47   2.0000      -0.510532       -13.8923
  48   2.0000      -0.508579       -13.8392
  49   2.0000      -0.500586       -13.6216
  50   2.0000      -0.493459       -13.4277
  51   2.0000      -0.474558       -12.9134
  52   2.0000      -0.473045       -12.8722
  53   2.0000      -0.459997       -12.5172
  54   2.0000      -0.454713       -12.3734
  55   2.0000      -0.449569       -12.2334
  56   2.0000      -0.445340       -12.1183
  57   2.0000      -0.436038       -11.8652
  58   2.0000      -0.431503       -11.7418
  59   2.0000      -0.424865       -11.5612
  60   2.0000      -0.422817       -11.5054
  61   2.0000      -0.415719       -11.3123
  62   2.0000      -0.406982       -11.0745
  63   2.0000      -0.347253        -9.4492
  64   2.0000      -0.332076        -9.0363
  65   2.0000      -0.327054        -8.8996
  66   2.0000      -0.296494        -8.0680
  67   0.0000       0.038309         1.0424
  68   0.0000       0.064457         1.7540
  69   0.0000       0.108783         2.9601
  70   0.0000       0.124237         3.3807
  71   0.0000       0.125993         3.4285

MULLIKEN ATOMIC CHARGES
-----------------------
   0 S :    0.118351
   1 C :   -0.118001
   2 C :   -0.093964
   3 C :    0.013808
   4 C :   -0.139128
   5 H :    0.044352
   6 C :    0.096993
   7 H :    0.012877
   8 H :    0.011783
   9 C :   -0.038022
  10 H :    0.018639
  11 H :    0.030602
  12 C :   -0.071897
  13 H :    0.015697
  14 H :    0.025205
  15 H :    0.045339
  16 S :    0.085853
  17 C :   -0.096536
  18 C :   -0.038143
  19 C :   -0.061395
  20 C :   -0.174723
  21 H :    0.032725
  22 C :    0.060979
  23 H :    0.009935
  24 H :   -0.001376
  25 C :   -0.029351
  26 H :    0.003437
  27 H :    0.032014
  28 C :    0.049465
  29 H :    0.024825
  30 H :    0.010560
  31 H :    0.005150
  32 H :    0.040523
  33 H :    0.073423
Sum of atomic charges:   -0.0000000

LOEWDIN ATOMIC CHARGES
----------------------
   0 S :    0.385237
   1 C :   -0.196255
   2 C :   -0.052825
   3 C :   -0.071495
   4 C :   -0.180130
   5 H :    0.045056
   6 C :   -0.023367
   7 H :    0.028598
   8 H :    0.024383
   9 C :   -0.031478
  10 H :    0.022940
  11 H :    0.023447
  12 C :   -0.077803
  13 H :    0.018157
  14 H :    0.028988
  15 H :    0.030625
  16 S :    0.383730
  17 C :   -0.188332
  18 C :   -0.081101
  19 C :   -0.054801
  20 C :   -0.188318
  21 H :    0.037538
  22 C :   -0.024555
  23 H :    0.024546
  24 H :    0.018729
  25 C :   -0.028379
  26 H :    0.014129
  27 H :    0.030628
  28 C :   -0.050350
  29 H :    0.023378
  30 H :    0.030901
  31 H :    0.014451
  32 H :    0.024425
  33 H :    0.039301

  Mayer bond orders larger than 0.100000
B(  0-S ,  1-C ) :   1.1161 B(  0-S ,  4-C ) :   1.1431 B(  1-C ,  2-C ) :   1.6276
B(  1-C , 32-H ) :   0.9686 B(  2-C ,  3-C ) :   1.2334 B(  2-C ,  6-C ) :   1.0099
B(  3-C ,  4-C ) :   1.6003 B(  3-C ,  5-H ) :   0.9823 B(  4-C , 20-C ) :   1.0037
B(  6-C ,  7-H ) :   0.9374 B(  6-C ,  8-H ) :   0.9500 B(  6-C ,  9-C ) :   1.0617
B(  9-C , 10-H ) :   0.9536 B(  9-C , 11-H ) :   0.9584 B(  9-C , 12-C ) :   1.0883
B( 12-C , 13-H ) :   0.9719 B( 12-C , 14-H ) :   0.9695 B( 12-C , 15-H ) :   0.9729
B( 16-S , 17-C ) :   1.1493 B( 16-S , 20-C ) :   1.1105 B( 17-C , 18-C ) :   1.6457
B( 17-C , 33-H ) :   0.9581 B( 18-C , 19-C ) :   1.2017 B( 18-C , 21-H ) :   0.9846
B( 19-C , 20-C ) :   1.6659 B( 19-C , 22-C ) :   1.0293 B( 22-C , 23-H ) :   0.9306
B( 22-C , 24-H ) :   0.9345 B( 22-C , 25-C ) :   1.0749 B( 25-C , 26-H ) :   0.9487
B( 25-C , 27-H ) :   0.9528 B( 25-C , 28-C ) :   1.0816 B( 28-C , 29-H ) :   0.9680
B( 28-C , 30-H ) :   0.9674 B( 28-C , 31-H ) :   0.9687

Dispersion correction           -0.014511632
FINAL SINGLE POINT ENERGY     -1339.862390248346

DIPOLE MOMENT
-------------
                                X             Y             Z
Electronic contribution:     12.42953     -16.82041     -12.97631
Nuclear contribution   :    -12.82363      17.32231      13.04929
                        -----------------------------------------
Total Dipole Moment    :     -0.39410       0.50190       0.07298
                        -----------------------------------------
Magnitude (a.u.)       :      0.64230
Magnitude (Debye)      :      1.63260

Rotational constants in cm-1:     0.021163     0.007602     0.006728
Rotational constants in MHz :   634.455939   227.894665   201.694377

                             ****ORCA TERMINATED NORMALLY****
TOTAL RUN TIME: 0 days 0 hours 0 minutes 30 seconds 209 msec
