                         Program Version 4.2.1 -  RELEASE  -
|  1> ! wB97X-D3 SP def2-SVP
|  2> %pal
|  3> nprocs 16
|  4> end
|  5>
|  6> * xyz 0 1
|  7> S 	 -3.15303 	 -16.0151 	 82.272
|  8> C 	 -4.38996 	 -17.1544 	 81.6856
|  9> C 	 -3.94216 	 -18.4527 	 81.658
| 10> C 	 -2.53005 	 -18.5171 	 82.0193
| 11> C 	 -2.08608 	 -17.28 	 82.3918
| 12> H 	 -1.91415 	 -19.334 	 81.8607
| 13> C 	 -4.75692 	 -19.537 	 81.0821
| 14> H 	 -5.71914 	 -19.4697 	 81.6075
| 15> H 	 -4.41284 	 -20.4708 	 81.3812
| 16> C 	 -4.85838 	 -19.5525 	 79.5758
| 17> H 	 -5.40496 	 -20.4699 	 79.3521
| 18> H 	 -5.44965 	 -18.7437 	 79.1553
| 19> C 	 -3.51865 	 -19.5266 	 78.8008
| 20> H 	 -2.69049 	 -19.9226 	 79.3865
| 21> H 	 -3.56422 	 -20.0901 	 77.8659
| 22> H 	 -3.30383 	 -18.4666 	 78.5824
| 23> S 	 -0.623906 	 -16.4984 	 84.6295
| 24> C 	 1.18514 	 -16.6773 	 84.5045
| 25> C 	 1.55757 	 -16.9683 	 83.2223
| 26> C 	 0.442179 	 -17.2593 	 82.336
| 27> C 	 -0.782268 	 -17.1107 	 82.9621
| 28> H 	 2.59578 	 -17.1174 	 83.0079
| 29> C 	 0.688002 	 -17.7432 	 80.9068
| 30> H 	 0.927486 	 -16.824 	 80.3154
| 31> H 	 -0.261539 	 -18.0737 	 80.444
| 32> C 	 1.73667 	 -18.8157 	 80.7103
| 33> H 	 2.72664 	 -18.4055 	 81.0166
| 34> H 	 1.74301 	 -18.9959 	 79.6446
| 35> C 	 1.61183 	 -20.167 	 81.5727
| 36> H 	 1.26916 	 -19.8777 	 82.5951
| 37> H 	 2.53475 	 -20.6728 	 81.8073
| 38> H 	 0.841459 	 -20.8397 	 81.1436
| 39> H 	 -5.43317 	 -16.9177 	 81.4264
| 40> H 	 1.86516 	 -16.4826 	 85.214
| 41> *
| 42>
| 43>                          ****END OF INPUT****

CARTESIAN COORDINATES (ANGSTROEM)
---------------------------------
  S     -3.153030  -16.015100   82.272000
  C     -4.389960  -17.154400   81.685600
  C     -3.942160  -18.452700   81.658000
  C     -2.530050  -18.517100   82.019300
  C     -2.086080  -17.280000   82.391800
  H     -1.914150  -19.334000   81.860700
  C     -4.756920  -19.537000   81.082100
  H     -5.719140  -19.469700   81.607500
  H     -4.412840  -20.470800   81.381200
  C     -4.858380  -19.552500   79.575800
  H     -5.404960  -20.469900   79.352100
  H     -5.449650  -18.743700   79.155300
  C     -3.518650  -19.526600   78.800800
  H     -2.690490  -19.922600   79.386500
  H     -3.564220  -20.090100   77.865900
  H     -3.303830  -18.466600   78.582400
  S     -0.623906  -16.498400   84.629500
  C      1.185140  -16.677300   84.504500
  C      1.557570  -16.968300   83.222300
  C      0.442179  -17.259300   82.336000
  C     -0.782268  -17.110700   82.962100
  H      2.595780  -17.117400   83.007900
  C      0.688002  -17.743200   80.906800
  H      0.927486  -16.824000   80.315400
  H     -0.261539  -18.073700   80.444000
  C      1.736670  -18.815700   80.710300
  H      2.726640  -18.405500   81.016600
  H      1.743010  -18.995900   79.644600
  C      1.611830  -20.167000   81.572700
  H      1.269160  -19.877700   82.595100
  H      2.534750  -20.672800   81.807300
  H      0.841459  -20.839700   81.143600
  H     -5.433170  -16.917700   81.426400
  H      1.865160  -16.482600   85.214000

 Total Charge           Charge          ....    0
 Multiplicity           Mult            ....    1
 Number of Electrons    NEL             ....  134
 Basis Dimension        Dim             ....  322

ORBITAL ENERGIES
----------------

  NO   OCC          E(Eh)            E(eV)
   0   2.0000     -88.968862     -2420.9658
   1   2.0000     -88.963441     -2420.8183
   2   2.0000     -10.323234      -280.9095
   3   2.0000     -10.317338      -280.7490
   4   2.0000     -10.313116      -280.6342
   5   2.0000     -10.310992      -280.5764
   6   2.0000     -10.302653      -280.3494
   7   2.0000     -10.296527      -280.1828
   8   2.0000     -10.295231      -280.1475
   9   2.0000     -10.293822      -280.1091
  10   2.0000     -10.293324      -280.0956
  11   2.0000     -10.286589      -279.9123
  12   2.0000     -10.285653      -279.8869
  13   2.0000     -10.284997      -279.8690
  14   2.0000     -10.283575      -279.8303
  15   2.0000     -10.279314      -279.7143
  16   2.0000      -8.084827      -219.9993
  17   2.0000      -8.076723      -219.7788
  18   2.0000      -6.043192      -164.4436
  19   2.0000      -6.039236      -164.3360
  20   2.0000      -6.035582      -164.2365
  21   2.0000      -6.035484      -164.2339
  22   2.0000      -6.031639      -164.1293
  23   2.0000      -6.027096      -164.0056
  24   2.0000      -1.012157       -27.5422
  25   2.0000      -0.977037       -26.5865
  26   2.0000      -0.921688       -25.0804
  27   2.0000      -0.901845       -24.5404
  28   2.0000      -0.869880       -23.6706
  29   2.0000      -0.850261       -23.1368
  30   2.0000      -0.834898       -22.7187
  31   2.0000      -0.817042       -22.2328
  32   2.0000      -0.788649       -21.4602
  33   2.0000      -0.775933       -21.1142
  34   2.0000      -0.707895       -19.2628
  35   2.0000      -0.705082       -19.1862
  36   2.0000      -0.695860       -18.9353
  37   2.0000      -0.658293       -17.9131
  38   2.0000      -0.640826       -17.4378
  39   2.0000      -0.614454       -16.7201
  40   2.0000      -0.597080       -16.2474
  41   2.0000      -0.579507       -15.7692
  42   2.0000      -0.552951       -15.0466
  43   2.0000      -0.549283       -14.9467
  44   2.0000      -0.542306       -14.7569
  45   2.0000      -0.536264       -14.5925
  46   2.0000      -0.522832       -14.2270
  47   2.0000      -0.512304       -13.9405
  48   2.0000      -0.501265       -13.6401
  49   2.0000      -0.492358       -13.3977
  50   2.0000      -0.487421       -13.2634
  51   2.0000      -0.479169       -13.0389
  52   2.0000      -0.467204       -12.7133
  53   2.0000      -0.466839       -12.7033
  54   2.0000      -0.457957       -12.4616
  55   2.0000      -0.449311       -12.2264
  56   2.0000      -0.446405       -12.1473
  57   2.0000      -0.444866       -12.1054
  58   2.0000      -0.439865       -11.9693
  59   2.0000      -0.421904       -11.4806
  60   2.0000      -0.417957       -11.3732
  61   2.0000      -0.414651       -11.2832
  62   2.0000      -0.407599       -11.0913
  63   2.0000      -0.340532        -9.2663
  64   2.0000      -0.332613        -9.0509
  65   2.0000      -0.326631        -8.8881
  66   2.0000      -0.295620        -8.0442
  67   0.0000       0.040612         1.1051
  68   0.0000       0.063913         1.7392
  69   0.0000       0.108887         2.9630
  70   0.0000       0.118490         3.2243
  71   0.0000       0.123747         3.3673

MULLIKEN ATOMIC CHARGES
-----------------------
   0 S :    0.134079
   1 C :   -0.140875
   2 C :   -0.095208
   3 C :    0.051425
   4 C :   -0.161316
   5 H :   -0.014468
   6 C :    0.105704
   7 H :    0.028682
   8 H :   -0.005337
   9 C :   -0.062583
  10 H :    0.027275
  11 H :    0.026844
  12 C :   -0.058899
  13 H :    0.021432
  14 H :    0.039364
  15 H :    0.044532
  16 S :    0.091534
  17 C :   -0.040625
  18 C :   -0.023853
  19 C :   -0.048359
  20 C :   -0.159196
  21 H :    0.015246
  22 C :    0.067393
  23 H :    0.047595
  24 H :    0.022776
  25 C :   -0.076831
  26 H :    0.028598
  27 H :    0.036002
  28 C :   -0.077656
  29 H :    0.041243
  30 H :    0.039078
  31 H :    0.042264
  32 H :    0.046754
  33 H :    0.007386
Sum of atomic charges:    0.0000000

LOEWDIN ATOMIC CHARGES
----------------------
   0 S :    0.437768
   1 C :   -0.198672
   2 C :   -0.054609
   3 C :   -0.052932
   4 C :   -0.220154
   5 H :    0.017707
   6 C :   -0.035231
   7 H :    0.039784
   8 H :    0.020606
   9 C :   -0.036856
  10 H :    0.024021
  11 H :    0.022102
  12 C :   -0.065894
  13 H :    0.019709
  14 H :    0.028975
  15 H :    0.032297
  16 S :    0.353695
  17 C :   -0.140376
  18 C :   -0.061193
  19 C :   -0.057796
  20 C :   -0.186239
  21 H :    0.028261
  22 C :   -0.039651
  23 H :    0.043864
  24 H :    0.029706
  25 C :   -0.040988
  26 H :    0.022705
  27 H :    0.025793
  28 C :   -0.074710
  29 H :    0.031836
  30 H :    0.026039
  31 H :    0.026072
  32 H :    0.029773
  33 H :    0.004592

  Mayer bond orders larger than 0.100000
B(  0-S ,  1-C ) :   1.1142 B(  0-S ,  4-C ) :   1.1812 B(  1-C ,  2-C ) :   1.6308
B(  1-C , 32-H ) :   0.9670 B(  2-C ,  3-C ) :   1.2150 B(  2-C ,  6-C ) :   1.0389
B(  3-C ,  4-C ) :   1.5606 B(  3-C ,  5-H ) :   1.0086 B(  4-C , 20-C ) :   1.0246
B(  6-C ,  7-H ) :   0.9277 B(  6-C ,  8-H ) :   0.9275 B(  6-C ,  9-C ) :   1.0816
B(  9-C , 10-H ) :   0.9581 B(  9-C , 11-H ) :   0.9599 B(  9-C , 12-C ) :   1.0626
B( 12-C , 13-H ) :   0.9794 B( 12-C , 14-H ) :   0.9743 B( 12-C , 15-H ) :   0.9761
B( 16-S , 17-C ) :   1.1132 B( 16-S , 20-C ) :   1.1126 B( 17-C , 18-C ) :   1.6766
B( 17-C , 33-H ) :   0.9781 B( 18-C , 19-C ) :   1.1848 B( 18-C , 21-H ) :   0.9869
B( 19-C , 20-C ) :   1.6492 B( 19-C , 22-C ) :   1.0369 B( 22-C , 23-H ) :   0.9279
B( 22-C , 24-H ) :   0.9332 B( 22-C , 25-C ) :   1.0743 B( 25-C , 26-H ) :   0.9548
B( 25-C , 27-H ) :   0.9565 B( 25-C , 28-C ) :   1.0588 B( 28-C , 29-H ) :   0.9727
B( 28-C , 30-H ) :   0.9787 B( 28-C , 31-H ) :   0.9773

Dispersion correction           -0.015816754
FINAL SINGLE POINT ENERGY     -1339.868524623039

DIPOLE MOMENT
-------------
                                X             Y             Z
Electronic contribution:     -3.38182      19.87985      19.70723
Nuclear contribution   :      3.51664     -20.33276     -20.22221
                        -----------------------------------------
Total Dipole Moment    :      0.13483      -0.45291      -0.51498
                        -----------------------------------------
Magnitude (a.u.)       :      0.69894
Magnitude (Debye)      :      1.77655

Rotational constants in cm-1:     0.019153     0.009939     0.007291
Rotational constants in MHz :   574.196110   297.957352   218.583997

                             ****ORCA TERMINATED NORMALLY****
TOTAL RUN TIME: 0 days 0 hours 0 minutes 36 seconds 406 msec
