                         Program Version 4.2.1 -  RELEASE  -
|  1> ! wB97X-D3 SP def2-SVP
|  2> %pal
|  3> nprocs 16
|  4> end
|  5>
|  6> * xyz 0 1
|  7> S 	 58.0554 	 28.3314 	 39.037
|  8> C 	 57.2076 	 29.6676 	 38.371
|  9> C 	 55.8314 	 29.3777 	 38.3763
| 10> C 	 55.4545 	 28.3271 	 39.2933
| 11> C 	 56.6203 	 27.5763 	 39.6715
| 12> H 	 54.4427 	 27.9835 	 39.4336
| 13> C 	 54.7431 	 30.1798 	 37.612
| 14> H 	 54.5026 	 29.7311 	 36.6589
| 15> H 	 55.1579 	 31.1838 	 37.4081
| 16> C 	 53.4599 	 30.4253 	 38.3368
| 17> H 	 53.1701 	 29.5341 	 38.9617
| 18> H 	 53.5239 	 31.2552 	 39.0739
| 19> C 	 52.2018 	 30.591 	 37.4853
| 20> H 	 52.3932 	 31.5088 	 36.8946
| 21> H 	 52.0397 	 29.7719 	 36.8223
| 22> H 	 51.3674 	 30.8427 	 38.2838
| 23> S 	 57.7562 	 25.1496 	 39.8388
| 24> C 	 57.1213 	 23.8935 	 40.8024
| 25> C 	 56.0321 	 24.3374 	 41.5453
| 26> C 	 55.6948 	 25.729 	 41.2951
| 27> C 	 56.604 	 26.3269 	 40.3784
| 28> H 	 55.5645 	 23.5655 	 42.1366
| 29> C 	 54.5934 	 26.342 	 41.9613
| 30> H 	 53.6277 	 26.3592 	 41.3915
| 31> H 	 54.9591 	 27.3957 	 41.9173
| 32> C 	 54.3872 	 25.777 	 43.3769
| 33> H 	 55.267 	 25.7021 	 44.0396
| 34> H 	 54.1277 	 24.75 	 43.2556
| 35> C 	 53.3251 	 26.5208 	 44.1534
| 36> H 	 52.5407 	 26.9652 	 43.5109
| 37> H 	 53.8113 	 27.2746 	 44.734
| 38> H 	 52.9503 	 25.8691 	 44.8958
| 39> H 	 57.6615 	 30.4596 	 37.8336
| 40> H 	 57.5571 	 22.8742 	 40.9201
| 41> *
| 42>
| 43>                          ****END OF INPUT****

CARTESIAN COORDINATES (ANGSTROEM)
---------------------------------
  S     58.055400   28.331400   39.037000
  C     57.207600   29.667600   38.371000
  C     55.831400   29.377700   38.376300
  C     55.454500   28.327100   39.293300
  C     56.620300   27.576300   39.671500
  H     54.442700   27.983500   39.433600
  C     54.743100   30.179800   37.612000
  H     54.502600   29.731100   36.658900
  H     55.157900   31.183800   37.408100
  C     53.459900   30.425300   38.336800
  H     53.170100   29.534100   38.961700
  H     53.523900   31.255200   39.073900
  C     52.201800   30.591000   37.485300
  H     52.393200   31.508800   36.894600
  H     52.039700   29.771900   36.822300
  H     51.367400   30.842700   38.283800
  S     57.756200   25.149600   39.838800
  C     57.121300   23.893500   40.802400
  C     56.032100   24.337400   41.545300
  C     55.694800   25.729000   41.295100
  C     56.604000   26.326900   40.378400
  H     55.564500   23.565500   42.136600
  C     54.593400   26.342000   41.961300
  H     53.627700   26.359200   41.391500
  H     54.959100   27.395700   41.917300
  C     54.387200   25.777000   43.376900
  H     55.267000   25.702100   44.039600
  H     54.127700   24.750000   43.255600
  C     53.325100   26.520800   44.153400
  H     52.540700   26.965200   43.510900
  H     53.811300   27.274600   44.734000
  H     52.950300   25.869100   44.895800
  H     57.661500   30.459600   37.833600
  H     57.557100   22.874200   40.920100

 Total Charge           Charge          ....    0
 Multiplicity           Mult            ....    1
 Number of Electrons    NEL             ....  134
 Basis Dimension        Dim             ....  322

ORBITAL ENERGIES
----------------

  NO   OCC          E(Eh)            E(eV)
   0   2.0000     -88.970348     -2421.0063
   1   2.0000     -88.962921     -2420.8041
   2   2.0000     -10.336553      -281.2719
   3   2.0000     -10.326126      -280.9882
   4   2.0000     -10.315087      -280.6878
   5   2.0000     -10.313400      -280.6419
   6   2.0000     -10.308611      -280.5116
   7   2.0000     -10.303847      -280.3819
   8   2.0000     -10.299892      -280.2743
   9   2.0000     -10.292994      -280.0866
  10   2.0000     -10.291850      -280.0555
  11   2.0000     -10.290059      -280.0067
  12   2.0000     -10.287936      -279.9490
  13   2.0000     -10.286506      -279.9101
  14   2.0000     -10.282618      -279.8042
  15   2.0000     -10.270327      -279.4698
  16   2.0000      -8.085424      -220.0156
  17   2.0000      -8.078819      -219.8358
  18   2.0000      -6.043931      -164.4637
  19   2.0000      -6.039787      -164.3510
  20   2.0000      -6.037288      -164.2830
  21   2.0000      -6.036256      -164.2549
  22   2.0000      -6.033013      -164.1666
  23   2.0000      -6.029712      -164.0768
  24   2.0000      -1.009438       -27.4682
  25   2.0000      -0.985211       -26.8090
  26   2.0000      -0.920211       -25.0402
  27   2.0000      -0.913923       -24.8691
  28   2.0000      -0.873602       -23.7719
  29   2.0000      -0.857565       -23.3355
  30   2.0000      -0.845892       -23.0179
  31   2.0000      -0.813084       -22.1251
  32   2.0000      -0.781081       -21.2543
  33   2.0000      -0.769089       -20.9280
  34   2.0000      -0.712999       -19.4017
  35   2.0000      -0.701755       -19.0957
  36   2.0000      -0.686454       -18.6794
  37   2.0000      -0.653046       -17.7703
  38   2.0000      -0.636699       -17.3255
  39   2.0000      -0.623644       -16.9702
  40   2.0000      -0.599023       -16.3003
  41   2.0000      -0.571002       -15.5377
  42   2.0000      -0.567599       -15.4451
  43   2.0000      -0.563202       -15.3255
  44   2.0000      -0.535790       -14.5796
  45   2.0000      -0.526824       -14.3356
  46   2.0000      -0.520493       -14.1633
  47   2.0000      -0.513224       -13.9655
  48   2.0000      -0.506954       -13.7949
  49   2.0000      -0.504643       -13.7320
  50   2.0000      -0.494023       -13.4431
  51   2.0000      -0.487038       -13.2530
  52   2.0000      -0.467260       -12.7148
  53   2.0000      -0.464170       -12.6307
  54   2.0000      -0.456495       -12.4219
  55   2.0000      -0.449433       -12.2297
  56   2.0000      -0.445726       -12.1288
  57   2.0000      -0.440336       -11.9822
  58   2.0000      -0.439109       -11.9488
  59   2.0000      -0.424223       -11.5437
  60   2.0000      -0.414835       -11.2882
  61   2.0000      -0.408350       -11.1118
  62   2.0000      -0.401908       -10.9365
  63   2.0000      -0.358288        -9.7495
  64   2.0000      -0.330044        -8.9810
  65   2.0000      -0.323713        -8.8087
  66   2.0000      -0.278422        -7.5763
  67   0.0000       0.019595         0.5332
  68   0.0000       0.078767         2.1434
  69   0.0000       0.109385         2.9765
  70   0.0000       0.120725         3.2851
  71   0.0000       0.128730         3.5029

MULLIKEN ATOMIC CHARGES
-----------------------
   0 S :    0.124841
   1 C :   -0.101898
   2 C :   -0.106628
   3 C :   -0.000183
   4 C :   -0.133982
   5 H :    0.022541
   6 C :    0.107768
   7 H :    0.032815
   8 H :    0.022979
   9 C :   -0.145715
  10 H :    0.027350
  11 H :    0.037813
  12 C :   -0.074064
  13 H :    0.031059
  14 H :    0.041871
  15 H :    0.055256
  16 S :    0.100192
  17 C :   -0.108307
  18 C :   -0.056316
  19 C :   -0.040791
  20 C :   -0.121455
  21 H :    0.020251
  22 C :    0.028668
  23 H :    0.051815
  24 H :    0.037985
  25 C :   -0.115678
  26 H :    0.035653
  27 H :    0.023677
  28 C :    0.014869
  29 H :    0.034660
  30 H :    0.023776
  31 H :    0.014451
  32 H :    0.042849
  33 H :    0.071876
Sum of atomic charges:   -0.0000000

LOEWDIN ATOMIC CHARGES
----------------------
   0 S :    0.432377
   1 C :   -0.212192
   2 C :   -0.052575
   3 C :   -0.068386
   4 C :   -0.195802
   5 H :    0.027729
   6 C :   -0.035645
   7 H :    0.031390
   8 H :    0.034063
   9 C :   -0.057611
  10 H :    0.022166
  11 H :    0.027119
  12 C :   -0.067857
  13 H :    0.022683
  14 H :    0.019345
  15 H :    0.044905
  16 S :    0.429689
  17 C :   -0.209673
  18 C :   -0.077535
  19 C :   -0.056774
  20 C :   -0.207871
  21 H :    0.031218
  22 C :   -0.048213
  23 H :    0.038796
  24 H :    0.041335
  25 C :   -0.039777
  26 H :    0.031924
  27 H :    0.016274
  28 C :   -0.059016
  29 H :    0.027923
  30 H :    0.024671
  31 H :    0.021853
  32 H :    0.023353
  33 H :    0.040115

  Mayer bond orders larger than 0.100000
B(  0-S ,  1-C ) :   1.1438 B(  0-S ,  4-C ) :   1.1756 B(  1-C ,  2-C ) :   1.5751
B(  1-C ,  4-C ) :   0.1023 B(  1-C , 32-H ) :   0.9757 B(  2-C ,  3-C ) :   1.2851
B(  2-C ,  6-C ) :   1.0180 B(  3-C ,  4-C ) :   1.4938 B(  3-C ,  5-H ) :   0.9809
B(  4-C , 20-C ) :   1.0945 B(  6-C ,  7-H ) :   0.9376 B(  6-C ,  8-H ) :   0.9401
B(  6-C ,  9-C ) :   1.0582 B(  9-C , 10-H ) :   0.9546 B(  9-C , 11-H ) :   0.9567
B(  9-C , 12-C ) :   1.0756 B( 12-C , 13-H ) :   0.9758 B( 12-C , 14-H ) :   0.9756
B( 12-C , 15-H ) :   0.9726 B( 16-S , 17-C ) :   1.1754 B( 16-S , 20-C ) :   1.1448
B( 17-C , 18-C ) :   1.5954 B( 17-C , 33-H ) :   0.9587 B( 18-C , 19-C ) :   1.2347
B( 18-C , 21-H ) :   0.9926 B( 19-C , 20-C ) :   1.5345 B( 19-C , 22-C ) :   1.0710
B( 22-C , 23-H ) :   0.9087 B( 22-C , 24-H ) :   0.9333 B( 22-C , 25-C ) :   1.0665
B( 25-C , 26-H ) :   0.9592 B( 25-C , 27-H ) :   0.9459 B( 25-C , 28-C ) :   1.0860
B( 28-C , 29-H ) :   0.9729 B( 28-C , 30-H ) :   0.9740 B( 28-C , 31-H ) :   0.9683

Dispersion correction           -0.013235378
FINAL SINGLE POINT ENERGY     -1339.855972073980

DIPOLE MOMENT
-------------
                                X             Y             Z
Electronic contribution:     28.10515     -10.23440      -7.34971
Nuclear contribution   :    -28.68323      10.24552       7.42149
                        -----------------------------------------
Total Dipole Moment    :     -0.57808       0.01112       0.07179
                        -----------------------------------------
Magnitude (a.u.)       :      0.58262
Magnitude (Debye)      :      1.48091

Rotational constants in cm-1:     0.016051     0.008932     0.006332
Rotational constants in MHz :   481.199692   267.778054   189.843051

                             ****ORCA TERMINATED NORMALLY****
TOTAL RUN TIME: 0 days 0 hours 0 minutes 29 seconds 183 msec
