                         Program Version 4.2.1 -  RELEASE  -
|  1> ! wB97X-D3 SP def2-SVP
|  2> %pal
|  3> nprocs 16
|  4> end
|  5>
|  6> * xyz 0 1
|  7> S 	 57.7928 	 16.9461 	 51.7163
|  8> C 	 57.2372 	 18.5555 	 51.8489
|  9> C 	 56.4944 	 18.6966 	 52.9753
| 10> C 	 56.4962 	 17.5152 	 53.8169
| 11> C 	 57.1272 	 16.4258 	 53.2083
| 12> H 	 55.8722 	 17.3438 	 54.7266
| 13> C 	 55.6614 	 19.9544 	 53.3295
| 14> H 	 55.5235 	 20.5176 	 52.3687
| 15> H 	 56.1382 	 20.6129 	 54.0966
| 16> C 	 54.2922 	 19.6741 	 53.8795
| 17> H 	 53.7503 	 18.9921 	 53.2188
| 18> H 	 54.3593 	 19.1908 	 54.8719
| 19> C 	 53.4282 	 20.8929 	 54.0598
| 20> H 	 53.577 	 21.7318 	 53.3784
| 21> H 	 52.3515 	 20.618 	 54.0127
| 22> H 	 53.6673 	 21.2685 	 55.041
| 23> S 	 58.8655 	 14.2506 	 53.6808
| 24> C 	 58.2276 	 12.8378 	 54.513
| 25> C 	 56.9655 	 13.07 	 54.881
| 26> C 	 56.3867 	 14.2564 	 54.3388
| 27> C 	 57.2874 	 15.0867 	 53.7501
| 28> H 	 56.5622 	 12.2891 	 55.4521
| 29> C 	 54.8602 	 14.6247 	 54.5117
| 30> H 	 54.6853 	 15.7005 	 54.4799
| 31> H 	 54.6409 	 14.2344 	 55.5127
| 32> C 	 54.1184 	 14.0252 	 53.2405
| 33> H 	 54.4956 	 12.9804 	 53.2281
| 34> H 	 54.4154 	 14.5817 	 52.3608
| 35> C 	 52.6043 	 13.954 	 53.3201
| 36> H 	 52.1606 	 14.9555 	 53.3825
| 37> H 	 52.3562 	 13.3458 	 54.2287
| 38> H 	 52.1252 	 13.449 	 52.3944
| 39> H 	 57.3022 	 19.3238 	 51.0145
| 40> H 	 58.7745 	 11.9644 	 54.7568
| 41> *
| 42>
| 43>                          ****END OF INPUT****

CARTESIAN COORDINATES (ANGSTROEM)
---------------------------------
  S     57.792800   16.946100   51.716300
  C     57.237200   18.555500   51.848900
  C     56.494400   18.696600   52.975300
  C     56.496200   17.515200   53.816900
  C     57.127200   16.425800   53.208300
  H     55.872200   17.343800   54.726600
  C     55.661400   19.954400   53.329500
  H     55.523500   20.517600   52.368700
  H     56.138200   20.612900   54.096600
  C     54.292200   19.674100   53.879500
  H     53.750300   18.992100   53.218800
  H     54.359300   19.190800   54.871900
  C     53.428200   20.892900   54.059800
  H     53.577000   21.731800   53.378400
  H     52.351500   20.618000   54.012700
  H     53.667300   21.268500   55.041000
  S     58.865500   14.250600   53.680800
  C     58.227600   12.837800   54.513000
  C     56.965500   13.070000   54.881000
  C     56.386700   14.256400   54.338800
  C     57.287400   15.086700   53.750100
  H     56.562200   12.289100   55.452100
  C     54.860200   14.624700   54.511700
  H     54.685300   15.700500   54.479900
  H     54.640900   14.234400   55.512700
  C     54.118400   14.025200   53.240500
  H     54.495600   12.980400   53.228100
  H     54.415400   14.581700   52.360800
  C     52.604300   13.954000   53.320100
  H     52.160600   14.955500   53.382500
  H     52.356200   13.345800   54.228700
  H     52.125200   13.449000   52.394400
  H     57.302200   19.323800   51.014500
  H     58.774500   11.964400   54.756800

 Total Charge           Charge          ....    0
 Multiplicity           Mult            ....    1
 Number of Electrons    NEL             ....  134
 Basis Dimension        Dim             ....  322

ORBITAL ENERGIES
----------------

  NO   OCC          E(Eh)            E(eV)
   0   2.0000     -88.965647     -2420.8783
   1   2.0000     -88.959744     -2420.7177
   2   2.0000     -10.330901      -281.1181
   3   2.0000     -10.327330      -281.0209
   4   2.0000     -10.315945      -280.7111
   5   2.0000     -10.313075      -280.6330
   6   2.0000     -10.304676      -280.4045
   7   2.0000     -10.303545      -280.3737
   8   2.0000     -10.299602      -280.2664
   9   2.0000     -10.299047      -280.2513
  10   2.0000     -10.298962      -280.2490
  11   2.0000     -10.288199      -279.9561
  12   2.0000     -10.287187      -279.9286
  13   2.0000     -10.285719      -279.8886
  14   2.0000     -10.284542      -279.8566
  15   2.0000     -10.277981      -279.6781
  16   2.0000      -8.081748      -219.9155
  17   2.0000      -8.074292      -219.7127
  18   2.0000      -6.040171      -164.3614
  19   2.0000      -6.035895      -164.2451
  20   2.0000      -6.032927      -164.1643
  21   2.0000      -6.032662      -164.1571
  22   2.0000      -6.028889      -164.0544
  23   2.0000      -6.024835      -163.9441
  24   2.0000      -1.012620       -27.5548
  25   2.0000      -0.990866       -26.9628
  26   2.0000      -0.917052       -24.9543
  27   2.0000      -0.900253       -24.4971
  28   2.0000      -0.878405       -23.9026
  29   2.0000      -0.849871       -23.1262
  30   2.0000      -0.841473       -22.8977
  31   2.0000      -0.820176       -22.3181
  32   2.0000      -0.781312       -21.2606
  33   2.0000      -0.771225       -20.9861
  34   2.0000      -0.711223       -19.3534
  35   2.0000      -0.688456       -18.7338
  36   2.0000      -0.687804       -18.7161
  37   2.0000      -0.661221       -17.9927
  38   2.0000      -0.639514       -17.4021
  39   2.0000      -0.620155       -16.8753
  40   2.0000      -0.593129       -16.1399
  41   2.0000      -0.581371       -15.8199
  42   2.0000      -0.571205       -15.5433
  43   2.0000      -0.562934       -15.3182
  44   2.0000      -0.523935       -14.2570
  45   2.0000      -0.523321       -14.2403
  46   2.0000      -0.515647       -14.0315
  47   2.0000      -0.510627       -13.8949
  48   2.0000      -0.507442       -13.8082
  49   2.0000      -0.504245       -13.7212
  50   2.0000      -0.490390       -13.3442
  51   2.0000      -0.486092       -13.2272
  52   2.0000      -0.479298       -13.0424
  53   2.0000      -0.469531       -12.7766
  54   2.0000      -0.462129       -12.5752
  55   2.0000      -0.443975       -12.0812
  56   2.0000      -0.441694       -12.0191
  57   2.0000      -0.433720       -11.8021
  58   2.0000      -0.430318       -11.7096
  59   2.0000      -0.420303       -11.4370
  60   2.0000      -0.415533       -11.3072
  61   2.0000      -0.412946       -11.2368
  62   2.0000      -0.405695       -11.0395
  63   2.0000      -0.355165        -9.6645
  64   2.0000      -0.330261        -8.9869
  65   2.0000      -0.329690        -8.9713
  66   2.0000      -0.297691        -8.1006
  67   0.0000       0.030179         0.8212
  68   0.0000       0.079408         2.1608
  69   0.0000       0.118299         3.2191
  70   0.0000       0.119672         3.2564
  71   0.0000       0.130104         3.5403

MULLIKEN ATOMIC CHARGES
-----------------------
   0 S :    0.120678
   1 C :   -0.147785
   2 C :   -0.078032
   3 C :    0.017973
   4 C :   -0.165234
   5 H :    0.036988
   6 C :    0.053780
   7 H :    0.024503
   8 H :    0.045580
   9 C :   -0.116616
  10 H :    0.028288
  11 H :    0.035833
  12 C :   -0.041471
  13 H :    0.028907
  14 H :    0.042141
  15 H :    0.023540
  16 S :    0.085923
  17 C :   -0.079581
  18 C :   -0.015683
  19 C :   -0.055726
  20 C :   -0.132177
  21 H :   -0.001245
  22 C :    0.068716
  23 H :    0.019339
  24 H :    0.032162
  25 C :   -0.086475
  26 H :    0.035183
  27 H :    0.042117
  28 C :   -0.063588
  29 H :    0.032895
  30 H :    0.036146
  31 H :    0.050364
  32 H :    0.076369
  33 H :    0.046185
Sum of atomic charges:   -0.0000000

LOEWDIN ATOMIC CHARGES
----------------------
   0 S :    0.440269
   1 C :   -0.221688
   2 C :   -0.069434
   3 C :   -0.068569
   4 C :   -0.204888
   5 H :    0.035902
   6 C :   -0.034171
   7 H :    0.032226
   8 H :    0.035855
   9 C :   -0.052222
  10 H :    0.021009
  11 H :    0.025435
  12 C :   -0.065971
  13 H :    0.023344
  14 H :    0.033775
  15 H :    0.023245
  16 S :    0.371666
  17 C :   -0.163374
  18 C :   -0.074248
  19 C :   -0.052948
  20 C :   -0.186369
  21 H :    0.025998
  22 C :   -0.023677
  23 H :    0.022942
  24 H :    0.029189
  25 C :   -0.040198
  26 H :    0.027254
  27 H :    0.026829
  28 C :   -0.078089
  29 H :    0.021875
  30 H :    0.028276
  31 H :    0.036546
  32 H :    0.047136
  33 H :    0.027076

  Mayer bond orders larger than 0.100000
B(  0-S ,  1-C ) :   1.1476 B(  0-S ,  4-C ) :   1.1742 B(  1-C ,  2-C ) :   1.6149
B(  1-C , 32-H ) :   0.9588 B(  2-C ,  3-C ) :   1.2510 B(  2-C ,  6-C ) :   1.0118
B(  3-C ,  4-C ) :   1.5532 B(  3-C ,  5-H ) :   0.9772 B(  4-C , 20-C ) :   1.0471
B(  6-C ,  7-H ) :   0.9455 B(  6-C ,  8-H ) :   0.9385 B(  6-C ,  9-C ) :   1.0767
B(  9-C , 10-H ) :   0.9614 B(  9-C , 11-H ) :   0.9479 B(  9-C , 12-C ) :   1.0801
B( 12-C , 13-H ) :   0.9757 B( 12-C , 14-H ) :   0.9753 B( 12-C , 15-H ) :   0.9757
B( 16-S , 17-C ) :   1.1368 B( 16-S , 20-C ) :   1.1155 B( 17-C , 18-C ) :   1.6571
B( 17-C , 33-H ) :   0.9695 B( 18-C , 19-C ) :   1.1957 B( 18-C , 21-H ) :   0.9989
B( 19-C , 20-C ) :   1.6409 B( 19-C , 22-C ) :   1.0294 B( 22-C , 23-H ) :   0.9351
B( 22-C , 24-H ) :   0.9444 B( 22-C , 25-C ) :   1.0449 B( 25-C , 26-H ) :   0.9620
B( 25-C , 27-H ) :   0.9565 B( 25-C , 28-C ) :   1.0849 B( 28-C , 29-H ) :   0.9724
B( 28-C , 30-H ) :   0.9747 B( 28-C , 31-H ) :   0.9725

Dispersion correction           -0.014057635
FINAL SINGLE POINT ENERGY     -1339.878781766001

DIPOLE MOMENT
-------------
                                X             Y             Z
Electronic contribution:     29.18818     -10.31013      -5.89761
Nuclear contribution   :    -29.87285      10.40216       6.15135
                        -----------------------------------------
Total Dipole Moment    :     -0.68467       0.09203       0.25374
                        -----------------------------------------
Magnitude (a.u.)       :      0.73595
Magnitude (Debye)      :      1.87063

Rotational constants in cm-1:     0.017631     0.009001     0.006779
Rotational constants in MHz :   528.551944   269.829170   203.215051

                             ****ORCA TERMINATED NORMALLY****
TOTAL RUN TIME: 0 days 0 hours 0 minutes 30 seconds 297 msec
