                         Program Version 4.2.1 -  RELEASE  -
|  1> ! wB97X-D3 SP def2-SVP
|  2> %pal
|  3> nprocs 16
|  4> end
|  5>
|  6> * xyz 0 1
|  7> S 	 -112.441 	 52.8913 	 117.015
|  8> C 	 -110.879 	 52.8344 	 117.728
|  9> C 	 -109.974 	 53.8129 	 117.277
| 10> C 	 -110.74 	 54.8146 	 116.56
| 11> C 	 -112.081 	 54.4954 	 116.459
| 12> H 	 -110.378 	 55.7602 	 116.089
| 13> C 	 -108.422 	 53.7853 	 117.518
| 14> H 	 -108.319 	 54.2492 	 118.493
| 15> H 	 -108.09 	 54.5585 	 116.842
| 16> C 	 -107.766 	 52.4408 	 117.43
| 17> H 	 -106.741 	 52.6276 	 117.825
| 18> H 	 -108.058 	 51.6519 	 118.082
| 19> C 	 -107.543 	 51.9964 	 115.961
| 20> H 	 -108.496 	 51.8956 	 115.46
| 21> H 	 -106.855 	 52.7081 	 115.428
| 22> H 	 -106.906 	 51.1075 	 115.88
| 23> S 	 -113.798 	 54.4317 	 114.19
| 24> C 	 -114.619 	 55.911 	 113.838
| 25> C 	 -114.198 	 56.9591 	 114.614
| 26> C 	 -113.313 	 56.5539 	 115.613
| 27> C 	 -112.993 	 55.1883 	 115.593
| 28> H 	 -114.513 	 58.003 	 114.478
| 29> C 	 -112.875 	 57.5642 	 116.609
| 30> H 	 -112.274 	 57.0299 	 117.365
| 31> H 	 -113.652 	 58.0568 	 117.2
| 32> C 	 -111.995 	 58.7053 	 115.961
| 33> H 	 -111.31 	 58.2955 	 115.205
| 34> H 	 -111.425 	 59.1009 	 116.784
| 35> C 	 -112.823 	 59.8527 	 115.342
| 36> H 	 -112.96 	 59.6295 	 114.286
| 37> H 	 -112.22 	 60.8389 	 115.259
| 38> H 	 -113.785 	 59.9691 	 115.744
| 39> H 	 -110.521 	 52.0043 	 118.295
| 40> H 	 -115.363 	 55.9977 	 113.003
| 41> *
| 42>
| 43>                          ****END OF INPUT****

CARTESIAN COORDINATES (ANGSTROEM)
---------------------------------
  S    -112.441000   52.891300  117.015000
  C    -110.879000   52.834400  117.728000
  C    -109.974000   53.812900  117.277000
  C    -110.740000   54.814600  116.560000
  C    -112.081000   54.495400  116.459000
  H    -110.378000   55.760200  116.089000
  C    -108.422000   53.785300  117.518000
  H    -108.319000   54.249200  118.493000
  H    -108.090000   54.558500  116.842000
  C    -107.766000   52.440800  117.430000
  H    -106.741000   52.627600  117.825000
  H    -108.058000   51.651900  118.082000
  C    -107.543000   51.996400  115.961000
  H    -108.496000   51.895600  115.460000
  H    -106.855000   52.708100  115.428000
  H    -106.906000   51.107500  115.880000
  S    -113.798000   54.431700  114.190000
  C    -114.619000   55.911000  113.838000
  C    -114.198000   56.959100  114.614000
  C    -113.313000   56.553900  115.613000
  C    -112.993000   55.188300  115.593000
  H    -114.513000   58.003000  114.478000
  C    -112.875000   57.564200  116.609000
  H    -112.274000   57.029900  117.365000
  H    -113.652000   58.056800  117.200000
  C    -111.995000   58.705300  115.961000
  H    -111.310000   58.295500  115.205000
  H    -111.425000   59.100900  116.784000
  C    -112.823000   59.852700  115.342000
  H    -112.960000   59.629500  114.286000
  H    -112.220000   60.838900  115.259000
  H    -113.785000   59.969100  115.744000
  H    -110.521000   52.004300  118.295000
  H    -115.363000   55.997700  113.003000

 Total Charge           Charge          ....    0
 Multiplicity           Mult            ....    1
 Number of Electrons    NEL             ....  134
 Basis Dimension        Dim             ....  322

ORBITAL ENERGIES
----------------

  NO   OCC          E(Eh)            E(eV)
   0   2.0000     -88.967839     -2420.9380
   1   2.0000     -88.964710     -2420.8528
   2   2.0000     -10.322555      -280.8910
   3   2.0000     -10.322018      -280.8764
   4   2.0000     -10.315440      -280.6974
   5   2.0000     -10.308771      -280.5159
   6   2.0000     -10.306576      -280.4562
   7   2.0000     -10.300021      -280.2778
   8   2.0000     -10.298601      -280.2392
   9   2.0000     -10.292044      -280.0608
  10   2.0000     -10.291207      -280.0380
  11   2.0000     -10.288205      -279.9563
  12   2.0000     -10.287323      -279.9323
  13   2.0000     -10.285455      -279.8814
  14   2.0000     -10.281678      -279.7787
  15   2.0000     -10.281086      -279.7626
  16   2.0000      -8.083328      -219.9585
  17   2.0000      -8.079213      -219.8466
  18   2.0000      -6.041603      -164.4004
  19   2.0000      -6.037995      -164.3022
  20   2.0000      -6.037690      -164.2939
  21   2.0000      -6.034037      -164.1945
  22   2.0000      -6.033798      -164.1880
  23   2.0000      -6.029988      -164.0843
  24   2.0000      -1.007244       -27.4085
  25   2.0000      -0.983976       -26.7754
  26   2.0000      -0.913876       -24.8678
  27   2.0000      -0.905552       -24.6413
  28   2.0000      -0.867587       -23.6082
  29   2.0000      -0.851049       -23.1582
  30   2.0000      -0.844613       -22.9831
  31   2.0000      -0.808105       -21.9897
  32   2.0000      -0.785653       -21.3787
  33   2.0000      -0.768674       -20.9167
  34   2.0000      -0.711588       -19.3633
  35   2.0000      -0.702565       -19.1178
  36   2.0000      -0.688808       -18.7434
  37   2.0000      -0.657993       -17.9049
  38   2.0000      -0.637440       -17.3456
  39   2.0000      -0.609250       -16.5785
  40   2.0000      -0.597678       -16.2637
  41   2.0000      -0.569407       -15.4944
  42   2.0000      -0.560939       -15.2639
  43   2.0000      -0.546926       -14.8826
  44   2.0000      -0.536766       -14.6061
  45   2.0000      -0.531439       -14.4612
  46   2.0000      -0.516149       -14.0451
  47   2.0000      -0.511663       -13.9231
  48   2.0000      -0.503533       -13.7018
  49   2.0000      -0.492452       -13.4003
  50   2.0000      -0.487997       -13.2791
  51   2.0000      -0.473630       -12.8881
  52   2.0000      -0.470535       -12.8039
  53   2.0000      -0.466905       -12.7051
  54   2.0000      -0.460127       -12.5207
  55   2.0000      -0.451582       -12.2882
  56   2.0000      -0.440865       -11.9965
  57   2.0000      -0.437551       -11.9064
  58   2.0000      -0.437144       -11.8953
  59   2.0000      -0.431246       -11.7348
  60   2.0000      -0.419773       -11.4226
  61   2.0000      -0.412040       -11.2122
  62   2.0000      -0.409729       -11.1493
  63   2.0000      -0.345911        -9.4127
  64   2.0000      -0.330039        -8.9808
  65   2.0000      -0.328094        -8.9279
  66   2.0000      -0.283274        -7.7083
  67   0.0000       0.030501         0.8300
  68   0.0000       0.068947         1.8761
  69   0.0000       0.110557         3.0084
  70   0.0000       0.123158         3.3513
  71   0.0000       0.130818         3.5597

MULLIKEN ATOMIC CHARGES
-----------------------
   0 S :    0.125258
   1 C :   -0.101254
   2 C :   -0.138209
   3 C :    0.007272
   4 C :   -0.179922
   5 H :    0.031035
   6 C :    0.109431
   7 H :    0.041371
   8 H :    0.016633
   9 C :   -0.064013
  10 H :    0.022517
  11 H :    0.032501
  12 C :   -0.060306
  13 H :    0.052046
  14 H :    0.029195
  15 H :    0.031397
  16 S :    0.108401
  17 C :   -0.109074
  18 C :   -0.028503
  19 C :   -0.024333
  20 C :   -0.141899
  21 H :    0.017272
  22 C :    0.027785
  23 H :    0.024963
  24 H :    0.037285
  25 C :   -0.081748
  26 H :    0.039206
  27 H :    0.031172
  28 C :   -0.065390
  29 H :    0.031515
  30 H :    0.047406
  31 H :    0.030099
  32 H :    0.031183
  33 H :    0.069706
Sum of atomic charges:    0.0000000

LOEWDIN ATOMIC CHARGES
----------------------
   0 S :    0.428305
   1 C :   -0.206700
   2 C :   -0.059632
   3 C :   -0.060321
   4 C :   -0.206274
   5 H :    0.038464
   6 C :   -0.026107
   7 H :    0.037308
   8 H :    0.032702
   9 C :   -0.046927
  10 H :    0.032699
  11 H :    0.022705
  12 C :   -0.066335
  13 H :    0.025736
  14 H :    0.030574
  15 H :    0.026742
  16 S :    0.395334
  17 C :   -0.194412
  18 C :   -0.077356
  19 C :   -0.062470
  20 C :   -0.196289
  21 H :    0.036341
  22 C :   -0.033722
  23 H :    0.029784
  24 H :    0.031388
  25 C :   -0.035748
  26 H :    0.025770
  27 H :    0.021889
  28 C :   -0.074794
  29 H :    0.024139
  30 H :    0.039514
  31 H :    0.014074
  32 H :    0.016439
  33 H :    0.037179

  Mayer bond orders larger than 0.100000
B(  0-S ,  1-C ) :   1.1561 B(  0-S ,  4-C ) :   1.1489 B(  1-C ,  2-C ) :   1.6031
B(  1-C , 32-H ) :   0.9690 B(  2-C ,  3-C ) :   1.2519 B(  2-C ,  6-C ) :   0.9899
B(  3-C ,  4-C ) :   1.5609 B(  3-C ,  5-H ) :   0.9841 B(  4-C , 20-C ) :   1.0679
B(  6-C ,  7-H ) :   0.9329 B(  6-C ,  8-H ) :   0.9415 B(  6-C ,  9-C ) :   1.0766
B(  9-C , 10-H ) :   0.9459 B(  9-C , 11-H ) :   0.9569 B(  9-C , 12-C ) :   1.0712
B( 12-C , 13-H ) :   0.9802 B( 12-C , 14-H ) :   0.9740 B( 12-C , 15-H ) :   0.9738
B( 16-S , 17-C ) :   1.1621 B( 16-S , 20-C ) :   1.1251 B( 17-C , 18-C ) :   1.5869
B( 17-C , 33-H ) :   0.9583 B( 18-C , 19-C ) :   1.2671 B( 18-C , 21-H ) :   0.9847
B( 19-C , 20-C ) :   1.5771 B( 19-C , 22-C ) :   1.0594 B( 22-C , 23-H ) :   0.9277
B( 22-C , 24-H ) :   0.9421 B( 22-C , 25-C ) :   1.0591 B( 25-C , 26-H ) :   0.9584
B( 25-C , 27-H ) :   0.9626 B( 25-C , 28-C ) :   1.0688 B( 28-C , 29-H ) :   0.9708
B( 28-C , 30-H ) :   0.9683 B( 28-C , 31-H ) :   0.9754

Dispersion correction           -0.014454195
FINAL SINGLE POINT ENERGY     -1339.867924207069

DIPOLE MOMENT
-------------
                                X             Y             Z
Electronic contribution:    -18.99503     -13.27743      -2.86133
Nuclear contribution   :     19.61681      13.61562       2.95177
                        -----------------------------------------
Total Dipole Moment    :      0.62178       0.33819       0.09045
                        -----------------------------------------
Magnitude (a.u.)       :      0.71356
Magnitude (Debye)      :      1.81372

Rotational constants in cm-1:     0.021375     0.007790     0.006506
Rotational constants in MHz :   640.819116   233.532039   195.046712

                             ****ORCA TERMINATED NORMALLY****
TOTAL RUN TIME: 0 days 0 hours 0 minutes 36 seconds 862 msec
