                         Program Version 4.2.1 -  RELEASE  -
|  1> ! wB97X-D3 SP def2-SVP
|  2> %pal
|  3> nprocs 16
|  4> end
|  5>
|  6> * xyz 0 1
|  7> S 	 -20.3534 	 35.5467 	 36.6069
|  8> C 	 -20.6661 	 35.8754 	 34.9508
|  9> C 	 -20.9639 	 34.72 	 34.2543
| 10> C 	 -20.7925 	 33.5032 	 34.9648
| 11> C 	 -20.2899 	 33.8203 	 36.2262
| 12> H 	 -20.902 	 32.5026 	 34.5958
| 13> C 	 -21.2323 	 34.8489 	 32.7386
| 14> H 	 -21.7442 	 35.7149 	 32.5158
| 15> H 	 -21.8986 	 34.0925 	 32.4231
| 16> C 	 -19.9921 	 34.8562 	 31.8273
| 17> H 	 -20.27 	 34.7946 	 30.805
| 18> H 	 -19.4634 	 35.8344 	 31.9376
| 19> C 	 -19.0676 	 33.6912 	 32.1578
| 20> H 	 -18.4799 	 33.4104 	 31.3538
| 21> H 	 -18.4365 	 33.8674 	 33.0002
| 22> H 	 -19.6568 	 32.7755 	 32.4032
| 23> S 	 -20.9473 	 32.8942 	 38.7883
| 24> C 	 -20.102 	 31.406 	 39.3603
| 25> C 	 -19.1032 	 30.9794 	 38.5428
| 26> C 	 -19.1167 	 31.7843 	 37.2936
| 27> C 	 -20.0512 	 32.8283 	 37.2457
| 28> H 	 -18.4767 	 30.1853 	 38.9313
| 29> C 	 -18.1999 	 31.4462 	 36.0637
| 30> H 	 -17.2534 	 31.2218 	 36.6082
| 31> H 	 -17.9691 	 32.2497 	 35.4648
| 32> C 	 -18.6833 	 30.2224 	 35.2431
| 33> H 	 -18.1124 	 30.2227 	 34.3063
| 34> H 	 -19.7349 	 30.3894 	 34.8798
| 35> C 	 -18.4705 	 28.949 	 36.068
| 36> H 	 -17.4888 	 28.9192 	 36.4684
| 37> H 	 -18.656 	 28.1077 	 35.3894
| 38> H 	 -19.0663 	 28.926 	 36.9594
| 39> H 	 -20.6806 	 36.8695 	 34.5492
| 40> H 	 -20.2819 	 30.9371 	 40.3135
| 41> *
| 42>
| 43>                          ****END OF INPUT****

CARTESIAN COORDINATES (ANGSTROEM)
---------------------------------
  S    -20.353400   35.546700   36.606900
  C    -20.666100   35.875400   34.950800
  C    -20.963900   34.720000   34.254300
  C    -20.792500   33.503200   34.964800
  C    -20.289900   33.820300   36.226200
  H    -20.902000   32.502600   34.595800
  C    -21.232300   34.848900   32.738600
  H    -21.744200   35.714900   32.515800
  H    -21.898600   34.092500   32.423100
  C    -19.992100   34.856200   31.827300
  H    -20.270000   34.794600   30.805000
  H    -19.463400   35.834400   31.937600
  C    -19.067600   33.691200   32.157800
  H    -18.479900   33.410400   31.353800
  H    -18.436500   33.867400   33.000200
  H    -19.656800   32.775500   32.403200
  S    -20.947300   32.894200   38.788300
  C    -20.102000   31.406000   39.360300
  C    -19.103200   30.979400   38.542800
  C    -19.116700   31.784300   37.293600
  C    -20.051200   32.828300   37.245700
  H    -18.476700   30.185300   38.931300
  C    -18.199900   31.446200   36.063700
  H    -17.253400   31.221800   36.608200
  H    -17.969100   32.249700   35.464800
  C    -18.683300   30.222400   35.243100
  H    -18.112400   30.222700   34.306300
  H    -19.734900   30.389400   34.879800
  C    -18.470500   28.949000   36.068000
  H    -17.488800   28.919200   36.468400
  H    -18.656000   28.107700   35.389400
  H    -19.066300   28.926000   36.959400
  H    -20.680600   36.869500   34.549200
  H    -20.281900   30.937100   40.313500

 Total Charge           Charge          ....    0
 Multiplicity           Mult            ....    1
 Number of Electrons    NEL             ....  134
 Basis Dimension        Dim             ....  322

ORBITAL ENERGIES
----------------

  NO   OCC          E(Eh)            E(eV)
   0   2.0000     -88.969451     -2420.9818
   1   2.0000     -88.961492     -2420.7653
   2   2.0000     -10.330793      -281.1152
   3   2.0000     -10.326392      -280.9954
   4   2.0000     -10.318668      -280.7852
   5   2.0000     -10.312034      -280.6047
   6   2.0000     -10.310780      -280.5706
   7   2.0000     -10.300893      -280.3015
   8   2.0000     -10.300837      -280.3000
   9   2.0000     -10.299010      -280.2503
  10   2.0000     -10.291169      -280.0369
  11   2.0000     -10.286836      -279.9190
  12   2.0000     -10.284304      -279.8501
  13   2.0000     -10.279951      -279.7317
  14   2.0000     -10.272528      -279.5297
  15   2.0000     -10.267957      -279.4053
  16   2.0000      -8.084496      -219.9903
  17   2.0000      -8.075128      -219.7354
  18   2.0000      -6.042840      -164.4340
  19   2.0000      -6.039110      -164.3325
  20   2.0000      -6.035261      -164.2278
  21   2.0000      -6.033847      -164.1893
  22   2.0000      -6.029971      -164.0838
  23   2.0000      -6.025544      -163.9634
  24   2.0000      -1.005125       -27.3508
  25   2.0000      -0.975480       -26.5442
  26   2.0000      -0.911520       -24.8037
  27   2.0000      -0.902792       -24.5662
  28   2.0000      -0.872660       -23.7463
  29   2.0000      -0.851109       -23.1598
  30   2.0000      -0.835131       -22.7251
  31   2.0000      -0.819600       -22.3025
  32   2.0000      -0.786529       -21.4025
  33   2.0000      -0.769012       -20.9259
  34   2.0000      -0.709046       -19.2941
  35   2.0000      -0.701245       -19.0818
  36   2.0000      -0.692325       -18.8391
  37   2.0000      -0.659019       -17.9328
  38   2.0000      -0.645350       -17.5609
  39   2.0000      -0.615657       -16.7529
  40   2.0000      -0.587199       -15.9785
  41   2.0000      -0.574743       -15.6395
  42   2.0000      -0.556798       -15.1513
  43   2.0000      -0.551112       -14.9965
  44   2.0000      -0.544749       -14.8234
  45   2.0000      -0.539434       -14.6787
  46   2.0000      -0.515324       -14.0227
  47   2.0000      -0.513637       -13.9768
  48   2.0000      -0.503428       -13.6990
  49   2.0000      -0.495555       -13.4847
  50   2.0000      -0.489048       -13.3077
  51   2.0000      -0.476990       -12.9795
  52   2.0000      -0.474274       -12.9057
  53   2.0000      -0.466556       -12.6956
  54   2.0000      -0.458701       -12.4819
  55   2.0000      -0.448438       -12.2026
  56   2.0000      -0.441663       -12.0183
  57   2.0000      -0.435802       -11.8588
  58   2.0000      -0.432255       -11.7623
  59   2.0000      -0.430414       -11.7121
  60   2.0000      -0.424201       -11.5431
  61   2.0000      -0.414276       -11.2730
  62   2.0000      -0.401143       -10.9157
  63   2.0000      -0.349485        -9.5100
  64   2.0000      -0.333566        -9.0768
  65   2.0000      -0.325106        -8.8466
  66   2.0000      -0.290829        -7.9139
  67   0.0000       0.031225         0.8497
  68   0.0000       0.061430         1.6716
  69   0.0000       0.107835         2.9343
  70   0.0000       0.119707         3.2574
  71   0.0000       0.129819         3.5325

MULLIKEN ATOMIC CHARGES
-----------------------
   0 S :    0.124589
   1 C :   -0.111093
   2 C :   -0.081215
   3 C :    0.041383
   4 C :   -0.163573
   5 H :    0.012963
   6 C :    0.105556
   7 H :   -0.004446
   8 H :    0.008266
   9 C :   -0.060251
  10 H :    0.021212
  11 H :    0.028010
  12 C :   -0.031192
  13 H :    0.014585
  14 H :    0.042709
  15 H :    0.013003
  16 S :    0.081802
  17 C :   -0.092669
  18 C :   -0.030305
  19 C :   -0.062822
  20 C :   -0.138950
  21 H :    0.032818
  22 C :    0.066484
  23 H :    0.024073
  24 H :    0.006469
  25 C :   -0.074167
  26 H :    0.030674
  27 H :    0.033354
  28 C :   -0.017106
  29 H :    0.011136
  30 H :    0.038739
  31 H :    0.033842
  32 H :    0.044764
  33 H :    0.051359
Sum of atomic charges:   -0.0000000

LOEWDIN ATOMIC CHARGES
----------------------
   0 S :    0.416203
   1 C :   -0.200332
   2 C :   -0.058594
   3 C :   -0.044726
   4 C :   -0.183761
   5 H :    0.032120
   6 C :   -0.025124
   7 H :    0.017989
   8 H :    0.022447
   9 C :   -0.033072
  10 H :    0.019480
  11 H :    0.025721
  12 C :   -0.061688
  13 H :    0.014966
  14 H :    0.024742
  15 H :    0.025175
  16 S :    0.352385
  17 C :   -0.160193
  18 C :   -0.076635
  19 C :   -0.046486
  20 C :   -0.192839
  21 H :    0.038810
  22 C :   -0.027844
  23 H :    0.032765
  24 H :    0.013883
  25 C :   -0.038699
  26 H :    0.024340
  27 H :    0.024642
  28 C :   -0.060423
  29 H :    0.019364
  30 H :    0.029390
  31 H :    0.023759
  32 H :    0.025563
  33 H :    0.026672

  Mayer bond orders larger than 0.100000
B(  0-S ,  1-C ) :   1.1396 B(  0-S ,  4-C ) :   1.1607 B(  1-C ,  2-C ) :   1.5934
B(  1-C , 32-H ) :   0.9751 B(  2-C ,  3-C ) :   1.2391 B(  2-C ,  6-C ) :   1.0335
B(  3-C ,  4-C ) :   1.5400 B(  3-C ,  5-H ) :   1.0015 B(  4-C , 20-C ) :   1.0675
B(  6-C ,  7-H ) :   0.9352 B(  6-C ,  8-H ) :   0.9353 B(  6-C ,  9-C ) :   1.0818
B(  9-C , 10-H ) :   0.9558 B(  9-C , 11-H ) :   0.9550 B(  9-C , 12-C ) :   1.0830
B( 12-C , 13-H ) :   0.9708 B( 12-C , 14-H ) :   0.9699 B( 12-C , 15-H ) :   0.9731
B( 16-S , 17-C ) :   1.1268 B( 16-S , 20-C ) :   1.0991 B( 17-C , 18-C ) :   1.6857
B( 17-C , 33-H ) :   0.9613 B( 18-C , 19-C ) :   1.1691 B( 18-C , 21-H ) :   0.9838
B( 19-C , 20-C ) :   1.6566 B( 19-C , 22-C ) :   1.0323 B( 22-C , 23-H ) :   0.9413
B( 22-C , 24-H ) :   0.9372 B( 22-C , 25-C ) :   1.0655 B( 25-C , 26-H ) :   0.9551
B( 25-C , 27-H ) :   0.9511 B( 25-C , 28-C ) :   1.0756 B( 28-C , 29-H ) :   0.9726
B( 28-C , 30-H ) :   0.9711 B( 28-C , 31-H ) :   0.9686

Dispersion correction           -0.016015478
FINAL SINGLE POINT ENERGY     -1339.865187830851

DIPOLE MOMENT
-------------
                                X             Y             Z
Electronic contribution:     -9.88053      13.86196      23.01294
Nuclear contribution   :     10.14931     -14.14996     -23.55602
                        -----------------------------------------
Total Dipole Moment    :      0.26878      -0.28801      -0.54309
                        -----------------------------------------
Magnitude (a.u.)       :      0.67092
Magnitude (Debye)      :      1.70534

Rotational constants in cm-1:     0.019034     0.010142     0.007095
Rotational constants in MHz :   570.620988   304.053152   212.697391

                             ****ORCA TERMINATED NORMALLY****
TOTAL RUN TIME: 0 days 0 hours 0 minutes 36 seconds 140 msec
