                         Program Version 4.2.1 -  RELEASE  -
|  1> ! wB97X-D3 SP def2-SVP
|  2> %pal
|  3> nprocs 16
|  4> end
|  5>
|  6> * xyz 0 1
|  7> S 	 -0.0374559 	 34.4311 	 38.6298
|  8> C 	 0.776465 	 34.3192 	 37.047
|  9> C 	 -0.101307 	 33.7338 	 36.1277
| 10> C 	 -1.3722 	 33.4481 	 36.7173
| 11> C 	 -1.52553 	 33.7383 	 38.0539
| 12> H 	 -2.2722 	 33.1047 	 36.2525
| 13> C 	 0.234642 	 33.3817 	 34.7097
| 14> H 	 0.136608 	 34.2693 	 34.094
| 15> H 	 -0.567919 	 32.6999 	 34.2988
| 16> C 	 1.53675 	 32.5777 	 34.5512
| 17> H 	 2.42547 	 33.191 	 34.9858
| 18> H 	 1.52873 	 31.5881 	 34.9925
| 19> C 	 1.99105 	 32.239 	 33.1962
| 20> H 	 1.2713 	 31.4863 	 32.8284
| 21> H 	 1.99347 	 33.109 	 32.5393
| 22> H 	 3.00769 	 31.8839 	 33.1928
| 23> S 	 -2.96026 	 34.9833 	 40.0346
| 24> C 	 -4.55689 	 34.4456 	 40.4169
| 25> C 	 -4.86941 	 33.2338 	 39.8291
| 26> C 	 -3.82229 	 32.7586 	 38.9846
| 27> C 	 -2.70635 	 33.6462 	 38.8879
| 28> H 	 -5.80628 	 32.7615 	 40.0506
| 29> C 	 -3.90865 	 31.3151 	 38.4423
| 30> H 	 -4.4879 	 30.8344 	 39.2125
| 31> H 	 -2.92573 	 30.8388 	 38.5431
| 32> C 	 -4.65142 	 31.218 	 37.0739
| 33> H 	 -4.21656 	 31.8984 	 36.37
| 34> H 	 -5.62545 	 31.7604 	 37.2106
| 35> C 	 -4.65524 	 29.7905 	 36.5277
| 36> H 	 -3.62295 	 29.4348 	 36.4485
| 37> H 	 -5.0456 	 29.707 	 35.4786
| 38> H 	 -5.03893 	 29.1503 	 37.2727
| 39> H 	 1.75884 	 34.6503 	 36.9183
| 40> H 	 -5.16147 	 34.9784 	 41.1517
| 41> *
| 42>
| 43>                          ****END OF INPUT****

CARTESIAN COORDINATES (ANGSTROEM)
---------------------------------
  S     -0.037456   34.431100   38.629800
  C      0.776465   34.319200   37.047000
  C     -0.101307   33.733800   36.127700
  C     -1.372200   33.448100   36.717300
  C     -1.525530   33.738300   38.053900
  H     -2.272200   33.104700   36.252500
  C      0.234642   33.381700   34.709700
  H      0.136608   34.269300   34.094000
  H     -0.567919   32.699900   34.298800
  C      1.536750   32.577700   34.551200
  H      2.425470   33.191000   34.985800
  H      1.528730   31.588100   34.992500
  C      1.991050   32.239000   33.196200
  H      1.271300   31.486300   32.828400
  H      1.993470   33.109000   32.539300
  H      3.007690   31.883900   33.192800
  S     -2.960260   34.983300   40.034600
  C     -4.556890   34.445600   40.416900
  C     -4.869410   33.233800   39.829100
  C     -3.822290   32.758600   38.984600
  C     -2.706350   33.646200   38.887900
  H     -5.806280   32.761500   40.050600
  C     -3.908650   31.315100   38.442300
  H     -4.487900   30.834400   39.212500
  H     -2.925730   30.838800   38.543100
  C     -4.651420   31.218000   37.073900
  H     -4.216560   31.898400   36.370000
  H     -5.625450   31.760400   37.210600
  C     -4.655240   29.790500   36.527700
  H     -3.622950   29.434800   36.448500
  H     -5.045600   29.707000   35.478600
  H     -5.038930   29.150300   37.272700
  H      1.758840   34.650300   36.918300
  H     -5.161470   34.978400   41.151700

 Total Charge           Charge          ....    0
 Multiplicity           Mult            ....    1
 Number of Electrons    NEL             ....  134
 Basis Dimension        Dim             ....  322

ORBITAL ENERGIES
----------------

  NO   OCC          E(Eh)            E(eV)
   0   2.0000     -88.965415     -2420.8720
   1   2.0000     -88.962038     -2420.7801
   2   2.0000     -10.334063      -281.2042
   3   2.0000     -10.329027      -281.0671
   4   2.0000     -10.319017      -280.7947
   5   2.0000     -10.315678      -280.7039
   6   2.0000     -10.311293      -280.5846
   7   2.0000     -10.305619      -280.4301
   8   2.0000     -10.297407      -280.2067
   9   2.0000     -10.295274      -280.1486
  10   2.0000     -10.294317      -280.1226
  11   2.0000     -10.291252      -280.0392
  12   2.0000     -10.289744      -279.9982
  13   2.0000     -10.288805      -279.9726
  14   2.0000     -10.281234      -279.7666
  15   2.0000     -10.273876      -279.5664
  16   2.0000      -8.080256      -219.8749
  17   2.0000      -8.076646      -219.7767
  18   2.0000      -6.038639      -164.3197
  19   2.0000      -6.035230      -164.2270
  20   2.0000      -6.034695      -164.2124
  21   2.0000      -6.031188      -164.1170
  22   2.0000      -6.031084      -164.1141
  23   2.0000      -6.027419      -164.0144
  24   2.0000      -1.004199       -27.3257
  25   2.0000      -0.981555       -26.7095
  26   2.0000      -0.917317       -24.9615
  27   2.0000      -0.906771       -24.6745
  28   2.0000      -0.874070       -23.7847
  29   2.0000      -0.852414       -23.1954
  30   2.0000      -0.848131       -23.0788
  31   2.0000      -0.816243       -22.2111
  32   2.0000      -0.782789       -21.3008
  33   2.0000      -0.770709       -20.9721
  34   2.0000      -0.711253       -19.3542
  35   2.0000      -0.699636       -19.0381
  36   2.0000      -0.689313       -18.7572
  37   2.0000      -0.664923       -18.0935
  38   2.0000      -0.646700       -17.5976
  39   2.0000      -0.613834       -16.7033
  40   2.0000      -0.594063       -16.1653
  41   2.0000      -0.576330       -15.6827
  42   2.0000      -0.566136       -15.4053
  43   2.0000      -0.556726       -15.1493
  44   2.0000      -0.531264       -14.4564
  45   2.0000      -0.530875       -14.4458
  46   2.0000      -0.522396       -14.2151
  47   2.0000      -0.517198       -14.0737
  48   2.0000      -0.508131       -13.8269
  49   2.0000      -0.501211       -13.6386
  50   2.0000      -0.499369       -13.5885
  51   2.0000      -0.483600       -13.1594
  52   2.0000      -0.475476       -12.9384
  53   2.0000      -0.461868       -12.5681
  54   2.0000      -0.456104       -12.4112
  55   2.0000      -0.454146       -12.3579
  56   2.0000      -0.443049       -12.0560
  57   2.0000      -0.435031       -11.8378
  58   2.0000      -0.428650       -11.6642
  59   2.0000      -0.427022       -11.6199
  60   2.0000      -0.416659       -11.3379
  61   2.0000      -0.409394       -11.1402
  62   2.0000      -0.404354       -11.0030
  63   2.0000      -0.353868        -9.6292
  64   2.0000      -0.332679        -9.0526
  65   2.0000      -0.328063        -8.9271
  66   2.0000      -0.284285        -7.7358
  67   0.0000       0.020871         0.5679
  68   0.0000       0.074024         2.0143
  69   0.0000       0.105039         2.8583
  70   0.0000       0.125005         3.4016
  71   0.0000       0.131433         3.5765

MULLIKEN ATOMIC CHARGES
-----------------------
   0 S :    0.083930
   1 C :   -0.116042
   2 C :   -0.051627
   3 C :    0.024351
   4 C :   -0.120091
   5 H :   -0.017818
   6 C :    0.080629
   7 H :    0.041122
   8 H :    0.022951
   9 C :   -0.125736
  10 H :    0.030633
  11 H :    0.037616
  12 C :   -0.025007
  13 H :    0.027834
  14 H :    0.018687
  15 H :    0.035273
  16 S :    0.098893
  17 C :   -0.094677
  18 C :   -0.026089
  19 C :   -0.061977
  20 C :   -0.142697
  21 H :    0.019120
  22 C :    0.047225
  23 H :    0.016310
  24 H :    0.037723
  25 C :   -0.072029
  26 H :    0.015498
  27 H :    0.027198
  28 C :   -0.005053
  29 H :    0.021455
  30 H :    0.050831
  31 H :    0.021916
  32 H :    0.035714
  33 H :    0.063933
Sum of atomic charges:   -0.0000000

LOEWDIN ATOMIC CHARGES
----------------------
   0 S :    0.390108
   1 C :   -0.173464
   2 C :   -0.058228
   3 C :   -0.068738
   4 C :   -0.194818
   5 H :    0.024793
   6 C :   -0.035536
   7 H :    0.034717
   8 H :    0.035459
   9 C :   -0.050174
  10 H :    0.026448
  11 H :    0.029667
  12 C :   -0.064482
  13 H :    0.025017
  14 H :    0.019606
  15 H :    0.027884
  16 S :    0.407186
  17 C :   -0.186342
  18 C :   -0.075690
  19 C :   -0.050755
  20 C :   -0.192536
  21 H :    0.031957
  22 C :   -0.029282
  23 H :    0.028006
  24 H :    0.033133
  25 C :   -0.044436
  26 H :    0.015169
  27 H :    0.030044
  28 C :   -0.066430
  29 H :    0.028796
  30 H :    0.035843
  31 H :    0.020485
  32 H :    0.016069
  33 H :    0.030525

  Mayer bond orders larger than 0.100000
B(  0-S ,  1-C ) :   1.1357 B(  0-S ,  4-C ) :   1.1449 B(  1-C ,  2-C ) :   1.5741
B(  1-C , 32-H ) :   0.9865 B(  2-C ,  3-C ) :   1.2457 B(  2-C ,  6-C ) :   1.0219
B(  3-C ,  4-C ) :   1.5782 B(  3-C ,  5-H ) :   0.9993 B(  4-C , 20-C ) :   1.0656
B(  6-C ,  7-H ) :   0.9305 B(  6-C ,  8-H ) :   0.9432 B(  6-C ,  9-C ) :   1.0630
B(  9-C , 10-H ) :   0.9525 B(  9-C , 11-H ) :   0.9594 B(  9-C , 12-C ) :   1.0950
B( 12-C , 13-H ) :   0.9731 B( 12-C , 14-H ) :   0.9705 B( 12-C , 15-H ) :   0.9706
B( 16-S , 17-C ) :   1.1781 B( 16-S , 20-C ) :   1.1376 B( 17-C , 18-C ) :   1.5781
B( 17-C , 20-C ) :   0.1045 B( 17-C , 33-H ) :   0.9662 B( 18-C , 19-C ) :   1.2671
B( 18-C , 21-H ) :   0.9928 B( 19-C , 20-C ) :   1.5548 B( 19-C , 22-C ) :   1.0249
B( 22-C , 23-H ) :   0.9386 B( 22-C , 24-H ) :   0.9476 B( 22-C , 25-C ) :   1.0429
B( 25-C , 26-H ) :   0.9577 B( 25-C , 27-H ) :   0.9497 B( 25-C , 28-C ) :   1.0733
B( 28-C , 29-H ) :   0.9693 B( 28-C , 30-H ) :   0.9725 B( 28-C , 31-H ) :   0.9729

Dispersion correction           -0.013527595
FINAL SINGLE POINT ENERGY     -1339.871889526400

DIPOLE MOMENT
-------------
                                X             Y             Z
Electronic contribution:     -0.64246      19.77370      24.16310
Nuclear contribution   :      0.43005     -20.21221     -24.58039
                        -----------------------------------------
Total Dipole Moment    :     -0.21241      -0.43851      -0.41729
                        -----------------------------------------
Magnitude (a.u.)       :      0.64152
Magnitude (Debye)      :      1.63061

Rotational constants in cm-1:     0.018240     0.008330     0.005958
Rotational constants in MHz :   546.824560   249.725433   178.607583

                             ****ORCA TERMINATED NORMALLY****
TOTAL RUN TIME: 0 days 0 hours 0 minutes 33 seconds 860 msec
