                         Program Version 4.2.1 -  RELEASE  -
|  1> ! wB97X-D3 SP def2-SVP
|  2> %pal
|  3> nprocs 16
|  4> end
|  5>
|  6> * xyz 0 1
|  7> S 	 -67.1438 	 38.1892 	 144.176
|  8> C 	 -68.6079 	 37.9291 	 143.307
|  9> C 	 -68.4034 	 37.5258 	 141.988
| 10> C 	 -66.9842 	 37.5779 	 141.699
| 11> C 	 -66.2343 	 37.8474 	 142.784
| 12> H 	 -66.4317 	 37.3439 	 140.74
| 13> C 	 -69.5746 	 37.145 	 140.976
| 14> H 	 -70.506 	 37.0107 	 141.475
| 15> H 	 -69.3041 	 36.1809 	 140.512
| 16> C 	 -69.7409 	 38.1459 	 139.806
| 17> H 	 -70.2163 	 39.0386 	 140.066
| 18> H 	 -68.7534 	 38.4196 	 139.469
| 19> C 	 -70.6062 	 37.534 	 138.657
| 20> H 	 -71.6715 	 37.349 	 138.903
| 21> H 	 -70.4955 	 38.1373 	 137.662
| 22> H 	 -70.2412 	 36.5223 	 138.412
| 23> S 	 -64.0913 	 37.1872 	 144.371
| 24> C 	 -62.4721 	 37.6736 	 143.964
| 25> C 	 -62.5532 	 38.4673 	 142.84
| 26> C 	 -63.8699 	 38.7773 	 142.316
| 27> C 	 -64.7957 	 37.9991 	 142.948
| 28> H 	 -61.602 	 38.8555 	 142.415
| 29> C 	 -63.888 	 39.4862 	 140.984
| 30> H 	 -64.6453 	 39.0453 	 140.42
| 31> H 	 -62.9962 	 39.4296 	 140.417
| 32> C 	 -64.0486 	 40.9543 	 141.088
| 33> H 	 -63.8437 	 41.4039 	 140.165
| 34> H 	 -63.2798 	 41.345 	 141.74
| 35> C 	 -65.3701 	 41.5378 	 141.557
| 36> H 	 -65.5329 	 42.564 	 141.251
| 37> H 	 -65.4428 	 41.4809 	 142.691
| 38> H 	 -66.2919 	 41.059 	 141.153
| 39> H 	 -69.5918 	 38.0347 	 143.705
| 40> H 	 -61.5528 	 37.2586 	 144.291
| 41> *
| 42>
| 43>                          ****END OF INPUT****

CARTESIAN COORDINATES (ANGSTROEM)
---------------------------------
  S    -67.143800   38.189200  144.176000
  C    -68.607900   37.929100  143.307000
  C    -68.403400   37.525800  141.988000
  C    -66.984200   37.577900  141.699000
  C    -66.234300   37.847400  142.784000
  H    -66.431700   37.343900  140.740000
  C    -69.574600   37.145000  140.976000
  H    -70.506000   37.010700  141.475000
  H    -69.304100   36.180900  140.512000
  C    -69.740900   38.145900  139.806000
  H    -70.216300   39.038600  140.066000
  H    -68.753400   38.419600  139.469000
  C    -70.606200   37.534000  138.657000
  H    -71.671500   37.349000  138.903000
  H    -70.495500   38.137300  137.662000
  H    -70.241200   36.522300  138.412000
  S    -64.091300   37.187200  144.371000
  C    -62.472100   37.673600  143.964000
  C    -62.553200   38.467300  142.840000
  C    -63.869900   38.777300  142.316000
  C    -64.795700   37.999100  142.948000
  H    -61.602000   38.855500  142.415000
  C    -63.888000   39.486200  140.984000
  H    -64.645300   39.045300  140.420000
  H    -62.996200   39.429600  140.417000
  C    -64.048600   40.954300  141.088000
  H    -63.843700   41.403900  140.165000
  H    -63.279800   41.345000  141.740000
  C    -65.370100   41.537800  141.557000
  H    -65.532900   42.564000  141.251000
  H    -65.442800   41.480900  142.691000
  H    -66.291900   41.059000  141.153000
  H    -69.591800   38.034700  143.705000
  H    -61.552800   37.258600  144.291000

 Total Charge           Charge          ....    0
 Multiplicity           Mult            ....    1
 Number of Electrons    NEL             ....  134
 Basis Dimension        Dim             ....  322

ORBITAL ENERGIES
----------------

  NO   OCC          E(Eh)            E(eV)
   0   2.0000     -88.965857     -2420.8840
   1   2.0000     -88.962775     -2420.8002
   2   2.0000     -10.330008      -281.0938
   3   2.0000     -10.321190      -280.8539
   4   2.0000     -10.312659      -280.6217
   5   2.0000     -10.310511      -280.5633
   6   2.0000     -10.309665      -280.5402
   7   2.0000     -10.302138      -280.3354
   8   2.0000     -10.300650      -280.2949
   9   2.0000     -10.299063      -280.2518
  10   2.0000     -10.294402      -280.1249
  11   2.0000     -10.291130      -280.0359
  12   2.0000     -10.285229      -279.8753
  13   2.0000     -10.281527      -279.7746
  14   2.0000     -10.273859      -279.5659
  15   2.0000     -10.273321      -279.5513
  16   2.0000      -8.082104      -219.9252
  17   2.0000      -8.077421      -219.7978
  18   2.0000      -6.040497      -164.3703
  19   2.0000      -6.036422      -164.2594
  20   2.0000      -6.036132      -164.2515
  21   2.0000      -6.032842      -164.1620
  22   2.0000      -6.031871      -164.1356
  23   2.0000      -6.028017      -164.0307
  24   2.0000      -1.015583       -27.6354
  25   2.0000      -0.986904       -26.8550
  26   2.0000      -0.919653       -25.0250
  27   2.0000      -0.906181       -24.6584
  28   2.0000      -0.870435       -23.6857
  29   2.0000      -0.851464       -23.1695
  30   2.0000      -0.842374       -22.9222
  31   2.0000      -0.813233       -22.1292
  32   2.0000      -0.786693       -21.4070
  33   2.0000      -0.773511       -21.0483
  34   2.0000      -0.708756       -19.2862
  35   2.0000      -0.699190       -19.0259
  36   2.0000      -0.693302       -18.8657
  37   2.0000      -0.660694       -17.9784
  38   2.0000      -0.647840       -17.6286
  39   2.0000      -0.618361       -16.8264
  40   2.0000      -0.602467       -16.3940
  41   2.0000      -0.564901       -15.3718
  42   2.0000      -0.559997       -15.2383
  43   2.0000      -0.557223       -15.1628
  44   2.0000      -0.543542       -14.7905
  45   2.0000      -0.520603       -14.1663
  46   2.0000      -0.515635       -14.0311
  47   2.0000      -0.511785       -13.9264
  48   2.0000      -0.501018       -13.6334
  49   2.0000      -0.498820       -13.5736
  50   2.0000      -0.495612       -13.4863
  51   2.0000      -0.477479       -12.9929
  52   2.0000      -0.475991       -12.9524
  53   2.0000      -0.464944       -12.6518
  54   2.0000      -0.458588       -12.4788
  55   2.0000      -0.449875       -12.2417
  56   2.0000      -0.438761       -11.9393
  57   2.0000      -0.433776       -11.8037
  58   2.0000      -0.430416       -11.7122
  59   2.0000      -0.426223       -11.5981
  60   2.0000      -0.422904       -11.5078
  61   2.0000      -0.416968       -11.3463
  62   2.0000      -0.408953       -11.1282
  63   2.0000      -0.350195        -9.5293
  64   2.0000      -0.334504        -9.1023
  65   2.0000      -0.327986        -8.9250
  66   2.0000      -0.295658        -8.0453
  67   0.0000       0.037699         1.0259
  68   0.0000       0.067909         1.8479
  69   0.0000       0.111920         3.0455
  70   0.0000       0.117398         3.1946
  71   0.0000       0.129411         3.5215

MULLIKEN ATOMIC CHARGES
-----------------------
   0 S :    0.128966
   1 C :   -0.107961
   2 C :   -0.094556
   3 C :   -0.009264
   4 C :   -0.133594
   5 H :    0.037612
   6 C :    0.080828
   7 H :    0.016045
   8 H :    0.031488
   9 C :   -0.034487
  10 H :    0.021525
  11 H :    0.022793
  12 C :   -0.106104
  13 H :    0.042812
  14 H :    0.053831
  15 H :    0.022691
  16 S :    0.089227
  17 C :   -0.059306
  18 C :   -0.075632
  19 C :    0.000584
  20 C :   -0.178641
  21 H :    0.028203
  22 C :    0.136301
  23 H :   -0.009099
  24 H :    0.014004
  25 C :   -0.049045
  26 H :    0.006083
  27 H :    0.016492
  28 C :   -0.076253
  29 H :    0.026945
  30 H :    0.045758
  31 H :    0.028600
  32 H :    0.033122
  33 H :    0.050034
Sum of atomic charges:    0.0000000

LOEWDIN ATOMIC CHARGES
----------------------
   0 S :    0.441888
   1 C :   -0.204166
   2 C :   -0.056180
   3 C :   -0.077720
   4 C :   -0.209656
   5 H :    0.042313
   6 C :   -0.019487
   7 H :    0.023721
   8 H :    0.033251
   9 C :   -0.034843
  10 H :    0.017117
  11 H :    0.022127
  12 C :   -0.079212
  13 H :    0.027319
  14 H :    0.038765
  15 H :    0.020025
  16 S :    0.387559
  17 C :   -0.192188
  18 C :   -0.067916
  19 C :   -0.057069
  20 C :   -0.180937
  21 H :    0.031001
  22 C :   -0.017825
  23 H :    0.019216
  24 H :    0.033487
  25 C :   -0.040442
  26 H :    0.016271
  27 H :    0.025597
  28 C :   -0.075245
  29 H :    0.023940
  30 H :    0.032592
  31 H :    0.026319
  32 H :    0.021475
  33 H :    0.028905

  Mayer bond orders larger than 0.100000
B(  0-S ,  1-C ) :   1.1453 B(  0-S ,  4-C ) :   1.1628 B(  1-C ,  2-C ) :   1.6339
B(  1-C , 32-H ) :   0.9709 B(  2-C ,  3-C ) :   1.2088 B(  2-C ,  6-C ) :   1.0154
B(  3-C ,  4-C ) :   1.6348 B(  3-C ,  5-H ) :   0.9803 B(  4-C , 20-C ) :   1.0001
B(  6-C ,  7-H ) :   0.9466 B(  6-C ,  8-H ) :   0.9451 B(  6-C ,  9-C ) :   1.0572
B(  9-C , 10-H ) :   0.9565 B(  9-C , 11-H ) :   0.9599 B(  9-C , 12-C ) :   1.0684
B( 12-C , 13-H ) :   0.9763 B( 12-C , 14-H ) :   0.9744 B( 12-C , 15-H ) :   0.9764
B( 16-S , 17-C ) :   1.1268 B( 16-S , 20-C ) :   1.1371 B( 17-C , 18-C ) :   1.6499
B( 17-C , 33-H ) :   0.9687 B( 18-C , 19-C ) :   1.2000 B( 18-C , 21-H ) :   0.9757
B( 19-C , 20-C ) :   1.6151 B( 19-C , 22-C ) :   1.0356 B( 22-C , 23-H ) :   0.9354
B( 22-C , 24-H ) :   0.9342 B( 22-C , 25-C ) :   1.0833 B( 25-C , 26-H ) :   0.9509
B( 25-C , 27-H ) :   0.9480 B( 25-C , 28-C ) :   1.0797 B( 28-C , 29-H ) :   0.9745
B( 28-C , 30-H ) :   0.9747 B( 28-C , 31-H ) :   0.9747

Dispersion correction           -0.014407072
FINAL SINGLE POINT ENERGY     -1339.866413066209

DIPOLE MOMENT
-------------
                                X             Y             Z
Electronic contribution:     11.63974     -10.24895      24.59808
Nuclear contribution   :    -11.66154      10.37730     -25.29273
                        -----------------------------------------
Total Dipole Moment    :     -0.02180       0.12835      -0.69465
                        -----------------------------------------
Magnitude (a.u.)       :      0.70674
Magnitude (Debye)      :      1.79640

Rotational constants in cm-1:     0.020401     0.008317     0.006854
Rotational constants in MHz :   611.599777   249.328201   205.464436

                             ****ORCA TERMINATED NORMALLY****
TOTAL RUN TIME: 0 days 0 hours 0 minutes 33 seconds 977 msec
