                         Program Version 4.2.1 -  RELEASE  -
|  1> ! wB97X-D3 SP def2-SVP
|  2> %pal
|  3> nprocs 16
|  4> end
|  5>
|  6> * xyz 0 1
|  7> S 	 -2.96958 	 -15.0411 	 83.8353
|  8> C 	 -1.297 	 -14.6831 	 83.7296
|  9> C 	 -0.578801 	 -15.1204 	 84.8952
| 10> C 	 -1.46023 	 -15.6254 	 85.8756
| 11> C 	 -2.79911 	 -15.6107 	 85.5032
| 12> H 	 -1.10822 	 -16.0966 	 86.759
| 13> C 	 0.967781 	 -15.17 	 85.1212
| 14> H 	 1.28973 	 -15.8868 	 84.3718
| 15> H 	 1.18901 	 -15.5428 	 86.1194
| 16> C 	 1.51364 	 -13.7457 	 85.0387
| 17> H 	 1.10423 	 -13.2988 	 84.1413
| 18> H 	 1.16543 	 -13.2134 	 85.8788
| 19> C 	 3.03108 	 -13.7633 	 84.7519
| 20> H 	 3.28405 	 -12.7144 	 84.6157
| 21> H 	 3.71941 	 -14.1176 	 85.5271
| 22> H 	 3.22855 	 -14.346 	 83.831
| 23> S 	 -5.13044 	 -17.1087 	 85.6143
| 24> C 	 -6.0726 	 -17.1052 	 87.0669
| 25> C 	 -5.42948 	 -16.4797 	 88.061
| 26> C 	 -4.23212 	 -15.7905 	 87.6564
| 27> C 	 -3.94842 	 -15.9731 	 86.3351
| 28> H 	 -5.78438 	 -16.558 	 89.0866
| 29> C 	 -3.41956 	 -15.0016 	 88.6378
| 30> H 	 -2.37019 	 -15.5122 	 88.6975
| 31> H 	 -3.82225 	 -15.1197 	 89.6938
| 32> C 	 -3.437 	 -13.5116 	 88.4607
| 33> H 	 -2.82077 	 -13.3107 	 87.5997
| 34> H 	 -2.96313 	 -13.0221 	 89.3739
| 35> C 	 -4.87267 	 -12.8518 	 88.2651
| 36> H 	 -5.38469 	 -13.2761 	 87.5001
| 37> H 	 -4.86993 	 -11.7805 	 88.0929
| 38> H 	 -5.4306 	 -13.0516 	 89.2016
| 39> H 	 -0.716 	 -14.3038 	 82.8792
| 40> H 	 -7.01887 	 -17.4777 	 87.192
| 41> *
| 42>
| 43>                          ****END OF INPUT****

CARTESIAN COORDINATES (ANGSTROEM)
---------------------------------
  S     -2.969580  -15.041100   83.835300
  C     -1.297000  -14.683100   83.729600
  C     -0.578801  -15.120400   84.895200
  C     -1.460230  -15.625400   85.875600
  C     -2.799110  -15.610700   85.503200
  H     -1.108220  -16.096600   86.759000
  C      0.967781  -15.170000   85.121200
  H      1.289730  -15.886800   84.371800
  H      1.189010  -15.542800   86.119400
  C      1.513640  -13.745700   85.038700
  H      1.104230  -13.298800   84.141300
  H      1.165430  -13.213400   85.878800
  C      3.031080  -13.763300   84.751900
  H      3.284050  -12.714400   84.615700
  H      3.719410  -14.117600   85.527100
  H      3.228550  -14.346000   83.831000
  S     -5.130440  -17.108700   85.614300
  C     -6.072600  -17.105200   87.066900
  C     -5.429480  -16.479700   88.061000
  C     -4.232120  -15.790500   87.656400
  C     -3.948420  -15.973100   86.335100
  H     -5.784380  -16.558000   89.086600
  C     -3.419560  -15.001600   88.637800
  H     -2.370190  -15.512200   88.697500
  H     -3.822250  -15.119700   89.693800
  C     -3.437000  -13.511600   88.460700
  H     -2.820770  -13.310700   87.599700
  H     -2.963130  -13.022100   89.373900
  C     -4.872670  -12.851800   88.265100
  H     -5.384690  -13.276100   87.500100
  H     -4.869930  -11.780500   88.092900
  H     -5.430600  -13.051600   89.201600
  H     -0.716000  -14.303800   82.879200
  H     -7.018870  -17.477700   87.192000

 Total Charge           Charge          ....    0
 Multiplicity           Mult            ....    1
 Number of Electrons    NEL             ....  134
 Basis Dimension        Dim             ....  322

ORBITAL ENERGIES
----------------

  NO   OCC          E(Eh)            E(eV)
   0   2.0000     -88.973972     -2421.1049
   1   2.0000     -88.960231     -2420.7310
   2   2.0000     -10.331234      -281.1272
   3   2.0000     -10.326781      -281.0060
   4   2.0000     -10.318305      -280.7754
   5   2.0000     -10.305465      -280.4260
   6   2.0000     -10.303275      -280.3664
   7   2.0000     -10.300028      -280.2780
   8   2.0000     -10.299021      -280.2506
   9   2.0000     -10.294020      -280.1145
  10   2.0000     -10.290949      -280.0310
  11   2.0000     -10.288012      -279.9510
  12   2.0000     -10.287089      -279.9259
  13   2.0000     -10.284500      -279.8555
  14   2.0000     -10.280923      -279.7581
  15   2.0000     -10.269841      -279.4566
  16   2.0000      -8.088197      -220.0910
  17   2.0000      -8.075165      -219.7364
  18   2.0000      -6.046635      -164.5373
  19   2.0000      -6.042695      -164.4301
  20   2.0000      -6.039155      -164.3338
  21   2.0000      -6.033788      -164.1877
  22   2.0000      -6.029742      -164.0776
  23   2.0000      -6.025707      -163.9678
  24   2.0000      -1.006095       -27.3772
  25   2.0000      -0.984935       -26.8014
  26   2.0000      -0.912658       -24.8347
  27   2.0000      -0.907414       -24.6920
  28   2.0000      -0.868162       -23.6239
  29   2.0000      -0.853124       -23.2147
  30   2.0000      -0.839771       -22.8513
  31   2.0000      -0.812209       -22.1013
  32   2.0000      -0.782773       -21.3003
  33   2.0000      -0.772358       -21.0169
  34   2.0000      -0.709758       -19.3135
  35   2.0000      -0.703022       -19.1302
  36   2.0000      -0.685758       -18.6604
  37   2.0000      -0.665103       -18.0984
  38   2.0000      -0.638669       -17.3791
  39   2.0000      -0.618789       -16.8381
  40   2.0000      -0.588425       -16.0119
  41   2.0000      -0.578247       -15.7349
  42   2.0000      -0.560410       -15.2495
  43   2.0000      -0.555642       -15.1198
  44   2.0000      -0.544674       -14.8213
  45   2.0000      -0.525062       -14.2877
  46   2.0000      -0.514480       -13.9997
  47   2.0000      -0.506744       -13.7892
  48   2.0000      -0.502749       -13.6805
  49   2.0000      -0.494366       -13.4524
  50   2.0000      -0.490334       -13.3427
  51   2.0000      -0.478149       -13.0111
  52   2.0000      -0.474252       -12.9051
  53   2.0000      -0.464108       -12.6290
  54   2.0000      -0.461769       -12.5654
  55   2.0000      -0.453768       -12.3477
  56   2.0000      -0.446625       -12.1533
  57   2.0000      -0.443522       -12.0688
  58   2.0000      -0.437237       -11.8978
  59   2.0000      -0.424044       -11.5388
  60   2.0000      -0.414979       -11.2921
  61   2.0000      -0.407664       -11.0931
  62   2.0000      -0.401261       -10.9189
  63   2.0000      -0.349246        -9.5035
  64   2.0000      -0.333360        -9.0712
  65   2.0000      -0.328856        -8.9486
  66   2.0000      -0.288447        -7.8491
  67   0.0000       0.024392         0.6637
  68   0.0000       0.071792         1.9536
  69   0.0000       0.104063         2.8317
  70   0.0000       0.121604         3.3090
  71   0.0000       0.134720         3.6659

MULLIKEN ATOMIC CHARGES
-----------------------
   0 S :    0.141660
   1 C :   -0.124501
   2 C :   -0.141060
   3 C :    0.034943
   4 C :   -0.150814
   5 H :    0.000859
   6 C :    0.082211
   7 H :    0.042087
   8 H :    0.020404
   9 C :   -0.069651
  10 H :    0.023232
  11 H :    0.029953
  12 C :   -0.048476
  13 H :    0.030449
  14 H :    0.034479
  15 H :    0.035313
  16 S :    0.084033
  17 C :   -0.038405
  18 C :   -0.039870
  19 C :   -0.050063
  20 C :   -0.135571
  21 H :    0.018891
  22 C :    0.021139
  23 H :    0.051626
  24 H :    0.018451
  25 C :   -0.082129
  26 H :    0.036572
  27 H :    0.039689
  28 C :   -0.029407
  29 H :    0.025937
  30 H :    0.037634
  31 H :    0.022707
  32 H :    0.055823
  33 H :    0.021855
Sum of atomic charges:   -0.0000000

LOEWDIN ATOMIC CHARGES
----------------------
   0 S :    0.432355
   1 C :   -0.225709
   2 C :   -0.058985
   3 C :   -0.061180
   4 C :   -0.196249
   5 H :    0.025732
   6 C :   -0.023465
   7 H :    0.032212
   8 H :    0.027181
   9 C :   -0.032674
  10 H :    0.023404
  11 H :    0.022578
  12 C :   -0.068086
  13 H :    0.025618
  14 H :    0.022703
  15 H :    0.029079
  16 S :    0.382902
  17 C :   -0.171430
  18 C :   -0.070695
  19 C :   -0.061788
  20 C :   -0.182193
  21 H :    0.032871
  22 C :   -0.045920
  23 H :    0.042088
  24 H :    0.031909
  25 C :   -0.041063
  26 H :    0.019053
  27 H :    0.030607
  28 C :   -0.054646
  29 H :    0.010718
  30 H :    0.028882
  31 H :    0.026552
  32 H :    0.031986
  33 H :    0.015655

  Mayer bond orders larger than 0.100000
B(  0-S ,  1-C ) :   1.1650 B(  0-S ,  4-C ) :   1.1650 B(  1-C ,  2-C ) :   1.5582
B(  1-C ,  4-C ) :   0.1142 B(  1-C , 32-H ) :   0.9607 B(  2-C ,  3-C ) :   1.3099
B(  2-C ,  6-C ) :   1.0008 B(  3-C ,  4-C ) :   1.5210 B(  3-C ,  5-H ) :   0.9973
B(  4-C , 20-C ) :   1.0408 B(  6-C ,  7-H ) :   0.9436 B(  6-C ,  8-H ) :   0.9469
B(  6-C ,  9-C ) :   1.0597 B(  9-C , 10-H ) :   0.9632 B(  9-C , 11-H ) :   0.9581
B(  9-C , 12-C ) :   1.0688 B( 12-C , 13-H ) :   0.9756 B( 12-C , 14-H ) :   0.9764
B( 12-C , 15-H ) :   0.9763 B( 16-S , 17-C ) :   1.1382 B( 16-S , 20-C ) :   1.1203
B( 17-C , 18-C ) :   1.6412 B( 17-C , 33-H ) :   0.9735 B( 18-C , 19-C ) :   1.2203
B( 18-C , 21-H ) :   0.9888 B( 19-C , 20-C ) :   1.6285 B( 19-C , 22-C ) :   1.0357
B( 22-C , 23-H ) :   0.9349 B( 22-C , 24-H ) :   0.9355 B( 22-C , 25-C ) :   1.0654
B( 25-C , 26-H ) :   0.9565 B( 25-C , 27-H ) :   0.9601 B( 25-C , 28-C ) :   1.0653
B( 28-C , 29-H ) :   0.9746 B( 28-C , 30-H ) :   0.9763 B( 28-C , 31-H ) :   0.9766

Dispersion correction           -0.014708067
FINAL SINGLE POINT ENERGY     -1339.867311118897

DIPOLE MOMENT
-------------
                                X             Y             Z
Electronic contribution:    -19.31336     -14.80736     -11.73332
Nuclear contribution   :     19.77443      14.94083      12.14519
                        -----------------------------------------
Total Dipole Moment    :      0.46107       0.13347       0.41187
                        -----------------------------------------
Magnitude (a.u.)       :      0.63248
Magnitude (Debye)      :      1.60765

Rotational constants in cm-1:     0.022274     0.007884     0.006671
Rotational constants in MHz :   667.763760   236.366682   200.002958

                             ****ORCA TERMINATED NORMALLY****
TOTAL RUN TIME: 0 days 0 hours 0 minutes 32 seconds 449 msec
