                         Program Version 4.2.1 -  RELEASE  -
|  1> ! wB97X-D3 SP def2-SVP
|  2> %pal
|  3> nprocs 16
|  4> end
|  5>
|  6> * xyz 0 1
|  7> S 	 -89.6636 	 41.871 	 114.48
|  8> C 	 -88.62 	 42.917 	 115.515
|  9> C 	 -89.1896 	 44.1301 	 115.648
| 10> C 	 -90.4251 	 44.2661 	 114.964
| 11> C 	 -90.8927 	 43.121 	 114.333
| 12> H 	 -91.0432 	 45.144 	 115.075
| 13> C 	 -88.6497 	 45.1695 	 116.644
| 14> H 	 -89.1259 	 46.1304 	 116.531
| 15> H 	 -87.571 	 45.3008 	 116.364
| 16> C 	 -88.7827 	 44.7599 	 118.147
| 17> H 	 -88.1955 	 43.909 	 118.322
| 18> H 	 -88.3659 	 45.5168 	 118.849
| 19> C 	 -90.1941 	 44.3183 	 118.641
| 20> H 	 -90.2373 	 44.4352 	 119.711
| 21> H 	 -90.9206 	 45.0773 	 118.318
| 22> H 	 -90.6057 	 43.4138 	 118.181
| 23> S 	 -91.8788 	 42.3607 	 111.801
| 24> C 	 -93.6309 	 42.4777 	 111.577
| 25> C 	 -94.2758 	 42.9737 	 112.656
| 26> C 	 -93.4066 	 43.2118 	 113.759
| 27> C 	 -92.0729 	 42.9548 	 113.495
| 28> H 	 -95.347 	 42.9835 	 112.765
| 29> C 	 -94.0509 	 43.9519 	 114.931
| 30> H 	 -95.0719 	 44.089 	 114.527
| 31> H 	 -93.6098 	 44.9374 	 115.017
| 32> C 	 -94.1718 	 43.1635 	 116.248
| 33> H 	 -93.2133 	 42.771 	 116.598
| 34> H 	 -94.8848 	 42.3474 	 116.195
| 35> C 	 -94.4812 	 44.1548 	 117.38
| 36> H 	 -93.7474 	 44.9484 	 117.55
| 37> H 	 -94.4737 	 43.5376 	 118.286
| 38> H 	 -95.4663 	 44.6045 	 117.207
| 39> H 	 -87.552 	 42.6723 	 115.785
| 40> H 	 -94.104 	 42.0871 	 110.708
| 41> *
| 42>
| 43>                          ****END OF INPUT****

CARTESIAN COORDINATES (ANGSTROEM)
---------------------------------
  S    -89.663600   41.871000  114.480000
  C    -88.620000   42.917000  115.515000
  C    -89.189600   44.130100  115.648000
  C    -90.425100   44.266100  114.964000
  C    -90.892700   43.121000  114.333000
  H    -91.043200   45.144000  115.075000
  C    -88.649700   45.169500  116.644000
  H    -89.125900   46.130400  116.531000
  H    -87.571000   45.300800  116.364000
  C    -88.782700   44.759900  118.147000
  H    -88.195500   43.909000  118.322000
  H    -88.365900   45.516800  118.849000
  C    -90.194100   44.318300  118.641000
  H    -90.237300   44.435200  119.711000
  H    -90.920600   45.077300  118.318000
  H    -90.605700   43.413800  118.181000
  S    -91.878800   42.360700  111.801000
  C    -93.630900   42.477700  111.577000
  C    -94.275800   42.973700  112.656000
  C    -93.406600   43.211800  113.759000
  C    -92.072900   42.954800  113.495000
  H    -95.347000   42.983500  112.765000
  C    -94.050900   43.951900  114.931000
  H    -95.071900   44.089000  114.527000
  H    -93.609800   44.937400  115.017000
  C    -94.171800   43.163500  116.248000
  H    -93.213300   42.771000  116.598000
  H    -94.884800   42.347400  116.195000
  C    -94.481200   44.154800  117.380000
  H    -93.747400   44.948400  117.550000
  H    -94.473700   43.537600  118.286000
  H    -95.466300   44.604500  117.207000
  H    -87.552000   42.672300  115.785000
  H    -94.104000   42.087100  110.708000

 Total Charge           Charge          ....    0
 Multiplicity           Mult            ....    1
 Number of Electrons    NEL             ....  134
 Basis Dimension        Dim             ....  322

ORBITAL ENERGIES
----------------

  NO   OCC          E(Eh)            E(eV)
   0   2.0000     -88.966141     -2420.8918
   1   2.0000     -88.965008     -2420.8610
   2   2.0000     -10.333775      -281.1963
   3   2.0000     -10.330887      -281.1177
   4   2.0000     -10.319209      -280.8000
   5   2.0000     -10.316480      -280.7257
   6   2.0000     -10.301142      -280.3083
   7   2.0000     -10.299206      -280.2556
   8   2.0000     -10.298984      -280.2496
   9   2.0000     -10.294070      -280.1159
  10   2.0000     -10.293534      -280.1013
  11   2.0000     -10.289770      -279.9989
  12   2.0000     -10.288399      -279.9616
  13   2.0000     -10.285803      -279.8909
  14   2.0000     -10.277879      -279.6753
  15   2.0000     -10.277530      -279.6658
  16   2.0000      -8.079930      -219.8661
  17   2.0000      -8.078914      -219.8384
  18   2.0000      -6.038578      -164.3181
  19   2.0000      -6.037529      -164.2895
  20   2.0000      -6.034667      -164.2116
  21   2.0000      -6.033444      -164.1783
  22   2.0000      -6.030498      -164.0982
  23   2.0000      -6.029685      -164.0761
  24   2.0000      -1.002702       -27.2849
  25   2.0000      -0.982508       -26.7354
  26   2.0000      -0.908302       -24.7162
  27   2.0000      -0.906071       -24.6555
  28   2.0000      -0.868110       -23.6225
  29   2.0000      -0.852672       -23.2024
  30   2.0000      -0.840612       -22.8742
  31   2.0000      -0.814570       -22.1656
  32   2.0000      -0.782829       -21.3019
  33   2.0000      -0.771510       -20.9938
  34   2.0000      -0.708874       -19.2894
  35   2.0000      -0.702491       -19.1158
  36   2.0000      -0.691816       -18.8253
  37   2.0000      -0.666577       -18.1385
  38   2.0000      -0.634733       -17.2720
  39   2.0000      -0.614429       -16.7195
  40   2.0000      -0.596879       -16.2419
  41   2.0000      -0.572995       -15.5920
  42   2.0000      -0.566503       -15.4153
  43   2.0000      -0.549934       -14.9645
  44   2.0000      -0.538927       -14.6649
  45   2.0000      -0.527936       -14.3659
  46   2.0000      -0.512344       -13.9416
  47   2.0000      -0.505470       -13.7545
  48   2.0000      -0.501948       -13.6587
  49   2.0000      -0.495317       -13.4783
  50   2.0000      -0.491229       -13.3670
  51   2.0000      -0.485910       -13.2223
  52   2.0000      -0.471917       -12.8415
  53   2.0000      -0.466083       -12.6828
  54   2.0000      -0.461808       -12.5664
  55   2.0000      -0.450028       -12.2459
  56   2.0000      -0.442624       -12.0444
  57   2.0000      -0.437501       -11.9050
  58   2.0000      -0.435658       -11.8548
  59   2.0000      -0.422481       -11.4963
  60   2.0000      -0.416429       -11.3316
  61   2.0000      -0.412027       -11.2118
  62   2.0000      -0.405195       -11.0259
  63   2.0000      -0.344320        -9.3694
  64   2.0000      -0.333578        -9.0771
  65   2.0000      -0.331374        -9.0172
  66   2.0000      -0.297705        -8.1010
  67   0.0000       0.024106         0.6560
  68   0.0000       0.066045         1.7972
  69   0.0000       0.105388         2.8677
  70   0.0000       0.115270         3.1366
  71   0.0000       0.128392         3.4937

MULLIKEN ATOMIC CHARGES
-----------------------
   0 S :    0.092296
   1 C :   -0.160164
   2 C :   -0.079707
   3 C :    0.041890
   4 C :   -0.151683
   5 H :    0.002076
   6 C :    0.061789
   7 H :    0.019347
   8 H :    0.040541
   9 C :   -0.067327
  10 H :    0.015437
  11 H :    0.035254
  12 C :   -0.057897
  13 H :    0.034560
  14 H :    0.008361
  15 H :    0.056575
  16 S :    0.097566
  17 C :   -0.077800
  18 C :   -0.017334
  19 C :   -0.039865
  20 C :   -0.150355
  21 H :    0.023880
  22 C :    0.050525
  23 H :    0.013706
  24 H :    0.037994
  25 C :   -0.059977
  26 H :    0.037201
  27 H :    0.033230
  28 C :   -0.061601
  29 H :    0.037205
  30 H :    0.031768
  31 H :    0.027911
  32 H :    0.076255
  33 H :    0.048345
Sum of atomic charges:   -0.0000000

LOEWDIN ATOMIC CHARGES
----------------------
   0 S :    0.379942
   1 C :   -0.187824
   2 C :   -0.072499
   3 C :   -0.064114
   4 C :   -0.186019
   5 H :    0.027362
   6 C :   -0.027820
   7 H :    0.023708
   8 H :    0.038385
   9 C :   -0.039485
  10 H :    0.013964
  11 H :    0.029718
  12 C :   -0.070562
  13 H :    0.028323
  14 H :    0.020195
  15 H :    0.031029
  16 S :    0.374092
  17 C :   -0.161791
  18 C :   -0.075775
  19 C :   -0.051544
  20 C :   -0.185897
  21 H :    0.032486
  22 C :   -0.028370
  23 H :    0.032655
  24 H :    0.030370
  25 C :   -0.036222
  26 H :    0.026059
  27 H :    0.025786
  28 C :   -0.065025
  29 H :    0.023407
  30 H :    0.026753
  31 H :    0.020950
  32 H :    0.044299
  33 H :    0.023464

  Mayer bond orders larger than 0.100000
B(  0-S ,  1-C ) :   1.1233 B(  0-S ,  4-C ) :   1.1464 B(  1-C ,  2-C ) :   1.6215
B(  1-C , 32-H ) :   0.9598 B(  2-C ,  3-C ) :   1.2554 B(  2-C ,  6-C ) :   1.0148
B(  3-C ,  4-C ) :   1.5661 B(  3-C ,  5-H ) :   0.9933 B(  4-C , 20-C ) :   1.0530
B(  6-C ,  7-H ) :   0.9463 B(  6-C ,  8-H ) :   0.9414 B(  6-C ,  9-C ) :   1.0678
B(  9-C , 10-H ) :   0.9550 B(  9-C , 11-H ) :   0.9585 B(  9-C , 12-C ) :   1.0731
B( 12-C , 13-H ) :   0.9714 B( 12-C , 14-H ) :   0.9747 B( 12-C , 15-H ) :   0.9724
B( 16-S , 17-C ) :   1.1471 B( 16-S , 20-C ) :   1.1130 B( 17-C , 18-C ) :   1.6297
B( 17-C , 33-H ) :   0.9666 B( 18-C , 19-C ) :   1.2474 B( 18-C , 21-H ) :   0.9790
B( 19-C , 20-C ) :   1.6256 B( 19-C , 22-C ) :   1.0211 B( 22-C , 23-H ) :   0.9342
B( 22-C , 24-H ) :   0.9454 B( 22-C , 25-C ) :   1.0573 B( 25-C , 26-H ) :   0.9636
B( 25-C , 27-H ) :   0.9528 B( 25-C , 28-C ) :   1.0787 B( 28-C , 29-H ) :   0.9769
B( 28-C , 30-H ) :   0.9756 B( 28-C , 31-H ) :   0.9728

Dispersion correction           -0.015456893
FINAL SINGLE POINT ENERGY     -1339.876675625087

DIPOLE MOMENT
-------------
                                X             Y             Z
Electronic contribution:      7.09935     -13.05897     -27.11196
Nuclear contribution   :     -7.38280      13.46262      27.56353
                        -----------------------------------------
Total Dipole Moment    :     -0.28345       0.40365       0.45157
                        -----------------------------------------
Magnitude (a.u.)       :      0.66873
Magnitude (Debye)      :      1.69977

Rotational constants in cm-1:     0.018516     0.010003     0.007111
Rotational constants in MHz :   555.086110   299.872666   213.168467

                             ****ORCA TERMINATED NORMALLY****
TOTAL RUN TIME: 0 days 0 hours 0 minutes 35 seconds 779 msec
