                         Program Version 4.2.1 -  RELEASE  -
|  1> ! wB97X-D3 SP def2-SVP
|  2> %pal
|  3> nprocs 16
|  4> end
|  5>
|  6> * xyz 0 1
|  7> S 	 -11.7947 	 47.1776 	 42.5515
|  8> C 	 -12.5362 	 47.156 	 40.9398
|  9> C 	 -12.2629 	 45.9687 	 40.2311
| 10> C 	 -11.6064 	 45.0351 	 41.053
| 11> C 	 -11.1379 	 45.5609 	 42.2267
| 12> H 	 -11.3757 	 44.0078 	 40.7542
| 13> C 	 -12.7845 	 45.5605 	 38.829
| 14> H 	 -12.0806 	 45.2646 	 38.0997
| 15> H 	 -13.2225 	 46.3969 	 38.312
| 16> C 	 -13.8116 	 44.4003 	 38.8693
| 17> H 	 -13.2943 	 43.4124 	 38.8595
| 18> H 	 -14.3614 	 44.33 	 39.7623
| 19> C 	 -14.8313 	 44.5347 	 37.7398
| 20> H 	 -15.6364 	 43.8042 	 37.9448
| 21> H 	 -15.3759 	 45.4482 	 37.7917
| 22> H 	 -14.3422 	 44.4211 	 36.7966
| 23> S 	 -11.3656 	 44.3794 	 44.7218
| 24> C 	 -10.3582 	 43.0782 	 45.1654
| 25> C 	 -9.25369 	 43.0106 	 44.2597
| 26> C 	 -9.34787 	 43.9702 	 43.1944
| 27> C 	 -10.4478 	 44.7768 	 43.2664
| 28> H 	 -8.43309 	 42.2871 	 44.4175
| 29> C 	 -8.35426 	 43.9976 	 42.0852
| 30> H 	 -8.63849 	 44.523 	 41.2062
| 31> H 	 -8.32747 	 43.0269 	 41.6271
| 32> C 	 -6.99159 	 44.5985 	 42.4191
| 33> H 	 -6.56015 	 44.0632 	 43.288
| 34> H 	 -7.04041 	 45.6049 	 42.7268
| 35> C 	 -5.95029 	 44.4857 	 41.3191
| 36> H 	 -5.79618 	 43.3887 	 41.1786
| 37> H 	 -5.03271 	 45.0565 	 41.6094
| 38> H 	 -6.43565 	 44.8957 	 40.397
| 39> H 	 -13.0408 	 48.066 	 40.5359
| 40> H 	 -10.4483 	 42.5589 	 46.1491
| 41> *
| 42>
| 43>                          ****END OF INPUT****

CARTESIAN COORDINATES (ANGSTROEM)
---------------------------------
  S    -11.794700   47.177600   42.551500
  C    -12.536200   47.156000   40.939800
  C    -12.262900   45.968700   40.231100
  C    -11.606400   45.035100   41.053000
  C    -11.137900   45.560900   42.226700
  H    -11.375700   44.007800   40.754200
  C    -12.784500   45.560500   38.829000
  H    -12.080600   45.264600   38.099700
  H    -13.222500   46.396900   38.312000
  C    -13.811600   44.400300   38.869300
  H    -13.294300   43.412400   38.859500
  H    -14.361400   44.330000   39.762300
  C    -14.831300   44.534700   37.739800
  H    -15.636400   43.804200   37.944800
  H    -15.375900   45.448200   37.791700
  H    -14.342200   44.421100   36.796600
  S    -11.365600   44.379400   44.721800
  C    -10.358200   43.078200   45.165400
  C     -9.253690   43.010600   44.259700
  C     -9.347870   43.970200   43.194400
  C    -10.447800   44.776800   43.266400
  H     -8.433090   42.287100   44.417500
  C     -8.354260   43.997600   42.085200
  H     -8.638490   44.523000   41.206200
  H     -8.327470   43.026900   41.627100
  C     -6.991590   44.598500   42.419100
  H     -6.560150   44.063200   43.288000
  H     -7.040410   45.604900   42.726800
  C     -5.950290   44.485700   41.319100
  H     -5.796180   43.388700   41.178600
  H     -5.032710   45.056500   41.609400
  H     -6.435650   44.895700   40.397000
  H    -13.040800   48.066000   40.535900
  H    -10.448300   42.558900   46.149100

 Total Charge           Charge          ....    0
 Multiplicity           Mult            ....    1
 Number of Electrons    NEL             ....  134
 Basis Dimension        Dim             ....  322

ORBITAL ENERGIES
----------------

  NO   OCC          E(Eh)            E(eV)
   0   2.0000     -88.969345     -2420.9789
   1   2.0000     -88.961652     -2420.7696
   2   2.0000     -10.330300      -281.1017
   3   2.0000     -10.323621      -280.9200
   4   2.0000     -10.323234      -280.9095
   5   2.0000     -10.322807      -280.8978
   6   2.0000     -10.307141      -280.4716
   7   2.0000     -10.301998      -280.3316
   8   2.0000     -10.300954      -280.3032
   9   2.0000     -10.292965      -280.0858
  10   2.0000     -10.291195      -280.0376
  11   2.0000     -10.283688      -279.8334
  12   2.0000     -10.282958      -279.8135
  13   2.0000     -10.282037      -279.7885
  14   2.0000     -10.277423      -279.6629
  15   2.0000     -10.275361      -279.6068
  16   2.0000      -8.083227      -219.9558
  17   2.0000      -8.077203      -219.7919
  18   2.0000      -6.041675      -164.4023
  19   2.0000      -6.038004      -164.3024
  20   2.0000      -6.035623      -164.2377
  21   2.0000      -6.033972      -164.1927
  22   2.0000      -6.031386      -164.1224
  23   2.0000      -6.028199      -164.0356
  24   2.0000      -1.005477       -27.3604
  25   2.0000      -0.982165       -26.7261
  26   2.0000      -0.913520       -24.8582
  27   2.0000      -0.910231       -24.7686
  28   2.0000      -0.865407       -23.5489
  29   2.0000      -0.854426       -23.2501
  30   2.0000      -0.847222       -23.0541
  31   2.0000      -0.807878       -21.9835
  32   2.0000      -0.782262       -21.2864
  33   2.0000      -0.771318       -20.9886
  34   2.0000      -0.705437       -19.1959
  35   2.0000      -0.695045       -18.9131
  36   2.0000      -0.690212       -18.7816
  37   2.0000      -0.659986       -17.9591
  38   2.0000      -0.643559       -17.5121
  39   2.0000      -0.623343       -16.9620
  40   2.0000      -0.603707       -16.4277
  41   2.0000      -0.572464       -15.5775
  42   2.0000      -0.561757       -15.2862
  43   2.0000      -0.550266       -14.9735
  44   2.0000      -0.531801       -14.4711
  45   2.0000      -0.528394       -14.3783
  46   2.0000      -0.512831       -13.9548
  47   2.0000      -0.510416       -13.8891
  48   2.0000      -0.504585       -13.7305
  49   2.0000      -0.497808       -13.5460
  50   2.0000      -0.494547       -13.4573
  51   2.0000      -0.477350       -12.9894
  52   2.0000      -0.467556       -12.7228
  53   2.0000      -0.462302       -12.5799
  54   2.0000      -0.455553       -12.3962
  55   2.0000      -0.448944       -12.2164
  56   2.0000      -0.445864       -12.1326
  57   2.0000      -0.441194       -12.0055
  58   2.0000      -0.435847       -11.8600
  59   2.0000      -0.425054       -11.5663
  60   2.0000      -0.419037       -11.4026
  61   2.0000      -0.416233       -11.3263
  62   2.0000      -0.404517       -11.0075
  63   2.0000      -0.342281        -9.3139
  64   2.0000      -0.331368        -9.0170
  65   2.0000      -0.327883        -8.9222
  66   2.0000      -0.295690        -8.0461
  67   0.0000       0.033918         0.9229
  68   0.0000       0.061800         1.6817
  69   0.0000       0.110119         2.9965
  70   0.0000       0.122060         3.3214
  71   0.0000       0.129940         3.5359

MULLIKEN ATOMIC CHARGES
-----------------------
   0 S :    0.104606
   1 C :   -0.149354
   2 C :   -0.062642
   3 C :    0.032643
   4 C :   -0.156727
   5 H :    0.023474
   6 C :    0.095669
   7 H :    0.020909
   8 H :    0.004802
   9 C :   -0.092695
  10 H :    0.031691
  11 H :    0.021857
  12 C :   -0.042486
  13 H :    0.032538
  14 H :    0.026227
  15 H :    0.034178
  16 S :    0.105178
  17 C :   -0.119967
  18 C :   -0.049969
  19 C :   -0.042347
  20 C :   -0.124751
  21 H :    0.033581
  22 C :    0.081376
  23 H :   -0.002214
  24 H :    0.012363
  25 C :   -0.067689
  26 H :    0.016868
  27 H :    0.021908
  28 C :   -0.060800
  29 H :    0.035422
  30 H :    0.052891
  31 H :    0.031090
  32 H :    0.068256
  33 H :    0.084116
Sum of atomic charges:   -0.0000000

LOEWDIN ATOMIC CHARGES
----------------------
   0 S :    0.386663
   1 C :   -0.195244
   2 C :   -0.057891
   3 C :   -0.055253
   4 C :   -0.185640
   5 H :    0.036306
   6 C :   -0.028062
   7 H :    0.027590
   8 H :    0.025565
   9 C :   -0.039680
  10 H :    0.025664
  11 H :    0.017178
  12 C :   -0.058990
  13 H :    0.032135
  14 H :    0.021571
  15 H :    0.020981
  16 S :    0.420622
  17 C :   -0.206860
  18 C :   -0.077390
  19 C :   -0.056072
  20 C :   -0.200456
  21 H :    0.034489
  22 C :   -0.036962
  23 H :    0.024854
  24 H :    0.029933
  25 C :   -0.039218
  26 H :    0.020105
  27 H :    0.018798
  28 C :   -0.067482
  29 H :    0.027819
  30 H :    0.034495
  31 H :    0.025046
  32 H :    0.034251
  33 H :    0.041136

  Mayer bond orders larger than 0.100000
B(  0-S ,  1-C ) :   1.1398 B(  0-S ,  4-C ) :   1.1427 B(  1-C ,  2-C ) :   1.6071
B(  1-C ,  4-C ) :   0.1010 B(  1-C , 32-H ) :   0.9603 B(  2-C ,  3-C ) :   1.2375
B(  2-C ,  6-C ) :   1.0319 B(  3-C ,  4-C ) :   1.5936 B(  3-C ,  5-H ) :   0.9882
B(  4-C , 20-C ) :   1.0026 B(  6-C ,  7-H ) :   0.9371 B(  6-C ,  8-H ) :   0.9485
B(  6-C ,  9-C ) :   1.0388 B(  9-C , 10-H ) :   0.9528 B(  9-C , 11-H ) :   0.9643
B(  9-C , 12-C ) :   1.0923 B( 12-C , 13-H ) :   0.9731 B( 12-C , 14-H ) :   0.9742
B( 12-C , 15-H ) :   0.9777 B( 16-S , 17-C ) :   1.1960 B( 16-S , 20-C ) :   1.1351
B( 17-C , 18-C ) :   1.5521 B( 17-C , 33-H ) :   0.9626 B( 18-C , 19-C ) :   1.2596
B( 18-C , 21-H ) :   0.9899 B( 19-C , 20-C ) :   1.6051 B( 19-C , 22-C ) :   1.0504
B( 22-C , 23-H ) :   0.9250 B( 22-C , 24-H ) :   0.9293 B( 22-C , 25-C ) :   1.0569
B( 25-C , 26-H ) :   0.9568 B( 25-C , 27-H ) :   0.9528 B( 25-C , 28-C ) :   1.0831
B( 28-C , 29-H ) :   0.9763 B( 28-C , 30-H ) :   0.9722 B( 28-C , 31-H ) :   0.9735

Dispersion correction           -0.013616351
FINAL SINGLE POINT ENERGY     -1339.871589126536

DIPOLE MOMENT
-------------
                                X             Y             Z
Electronic contribution:     -6.41530       8.15130      22.84319
Nuclear contribution   :      6.49098      -8.49927     -23.34327
                        -----------------------------------------
Total Dipole Moment    :      0.07568      -0.34797      -0.50009
                        -----------------------------------------
Magnitude (a.u.)       :      0.61392
Magnitude (Debye)      :      1.56046

Rotational constants in cm-1:     0.017202     0.007822     0.006824
Rotational constants in MHz :   515.689371   234.510973   204.572237

                             ****ORCA TERMINATED NORMALLY****
TOTAL RUN TIME: 0 days 0 hours 0 minutes 30 seconds 962 msec
