                         Program Version 4.2.1 -  RELEASE  -
|  1> ! wB97X-D3 SP def2-SVP
|  2> %pal
|  3> nprocs 16
|  4> end
|  5>
|  6> * xyz 0 1
|  7> S 	 1.34087 	 -25.6036 	 84.9953
|  8> C 	 2.49078 	 -26.858 	 84.4582
|  9> C 	 3.70796 	 -26.3379 	 84.1419
| 10> C 	 3.60573 	 -24.9245 	 83.9948
| 11> C 	 2.38542 	 -24.3705 	 84.2936
| 12> H 	 4.39543 	 -24.3124 	 83.6405
| 13> C 	 4.95789 	 -27.0652 	 83.8035
| 14> H 	 4.90854 	 -27.9277 	 84.5041
| 15> H 	 5.81893 	 -26.4835 	 84.1326
| 16> C 	 5.03183 	 -27.4959 	 82.3257
| 17> H 	 4.21061 	 -28.0929 	 82.0225
| 18> H 	 5.02802 	 -26.4632 	 81.8911
| 19> C 	 6.32277 	 -28.1434 	 81.8909
| 20> H 	 6.70007 	 -28.8154 	 82.5946
| 21> H 	 6.2219 	 -28.6684 	 80.9434
| 22> H 	 7.07778 	 -27.4375 	 81.6581
| 23> S 	 1.93217 	 -22.1383 	 85.7601
| 24> C 	 1.37585 	 -20.7352 	 84.941
| 25> C 	 1.44416 	 -20.9073 	 83.5584
| 26> C 	 1.61922 	 -22.2682 	 83.1722
| 27> C 	 1.90342 	 -23.0209 	 84.2703
| 28> H 	 1.31285 	 -20.0873 	 82.9805
| 29> C 	 1.73284 	 -22.5966 	 81.6884
| 30> H 	 2.33909 	 -23.5292 	 81.5238
| 31> H 	 2.33409 	 -21.8982 	 81.1575
| 32> C 	 0.361659 	 -22.7481 	 80.9304
| 33> H 	 0.567528 	 -23.0593 	 79.872
| 34> H 	 -0.0633557 	 -21.7436 	 80.9698
| 35> C 	 -0.5575 	 -23.8137 	 81.4695
| 36> H 	 -0.588504 	 -24.0051 	 82.5678
| 37> H 	 -0.325129 	 -24.8051 	 81.0556
| 38> H 	 -1.58325 	 -23.6655 	 81.2982
| 39> H 	 2.41337 	 -27.9031 	 84.5889
| 40> H 	 1.42211 	 -19.7572 	 85.3163
| 41> *
| 42>
| 43>                          ****END OF INPUT****

CARTESIAN COORDINATES (ANGSTROEM)
---------------------------------
  S      1.340870  -25.603600   84.995300
  C      2.490780  -26.858000   84.458200
  C      3.707960  -26.337900   84.141900
  C      3.605730  -24.924500   83.994800
  C      2.385420  -24.370500   84.293600
  H      4.395430  -24.312400   83.640500
  C      4.957890  -27.065200   83.803500
  H      4.908540  -27.927700   84.504100
  H      5.818930  -26.483500   84.132600
  C      5.031830  -27.495900   82.325700
  H      4.210610  -28.092900   82.022500
  H      5.028020  -26.463200   81.891100
  C      6.322770  -28.143400   81.890900
  H      6.700070  -28.815400   82.594600
  H      6.221900  -28.668400   80.943400
  H      7.077780  -27.437500   81.658100
  S      1.932170  -22.138300   85.760100
  C      1.375850  -20.735200   84.941000
  C      1.444160  -20.907300   83.558400
  C      1.619220  -22.268200   83.172200
  C      1.903420  -23.020900   84.270300
  H      1.312850  -20.087300   82.980500
  C      1.732840  -22.596600   81.688400
  H      2.339090  -23.529200   81.523800
  H      2.334090  -21.898200   81.157500
  C      0.361659  -22.748100   80.930400
  H      0.567528  -23.059300   79.872000
  H     -0.063356  -21.743600   80.969800
  C     -0.557500  -23.813700   81.469500
  H     -0.588504  -24.005100   82.567800
  H     -0.325129  -24.805100   81.055600
  H     -1.583250  -23.665500   81.298200
  H      2.413370  -27.903100   84.588900
  H      1.422110  -19.757200   85.316300

 Total Charge           Charge          ....    0
 Multiplicity           Mult            ....    1
 Number of Electrons    NEL             ....  134
 Basis Dimension        Dim             ....  322

ORBITAL ENERGIES
----------------

  NO   OCC          E(Eh)            E(eV)
   0   2.0000     -88.966845     -2420.9109
   1   2.0000     -88.962084     -2420.7814
   2   2.0000     -10.323158      -280.9074
   3   2.0000     -10.319790      -280.8158
   4   2.0000     -10.308410      -280.5061
   5   2.0000     -10.308380      -280.5053
   6   2.0000     -10.300938      -280.3028
   7   2.0000     -10.293958      -280.1128
   8   2.0000     -10.293416      -280.0981
   9   2.0000     -10.292613      -280.0762
  10   2.0000     -10.289251      -279.9848
  11   2.0000     -10.288446      -279.9629
  12   2.0000     -10.287587      -279.9395
  13   2.0000     -10.285258      -279.8761
  14   2.0000     -10.268928      -279.4317
  15   2.0000     -10.265606      -279.3413
  16   2.0000      -8.082539      -219.9371
  17   2.0000      -8.076231      -219.7654
  18   2.0000      -6.040892      -164.3810
  19   2.0000      -6.037055      -164.2766
  20   2.0000      -6.034891      -164.2177
  21   2.0000      -6.033246      -164.1730
  22   2.0000      -6.030944      -164.1103
  23   2.0000      -6.026740      -163.9959
  24   2.0000      -1.012073       -27.5399
  25   2.0000      -0.986458       -26.8429
  26   2.0000      -0.917164       -24.9573
  27   2.0000      -0.903479       -24.5849
  28   2.0000      -0.874012       -23.7831
  29   2.0000      -0.851197       -23.1623
  30   2.0000      -0.847141       -23.0519
  31   2.0000      -0.815455       -22.1897
  32   2.0000      -0.787661       -21.4334
  33   2.0000      -0.776824       -21.1384
  34   2.0000      -0.709182       -19.2978
  35   2.0000      -0.704214       -19.1626
  36   2.0000      -0.691954       -18.8290
  37   2.0000      -0.666940       -18.1484
  38   2.0000      -0.641013       -17.4429
  39   2.0000      -0.620654       -16.8889
  40   2.0000      -0.597605       -16.2617
  41   2.0000      -0.578494       -15.7416
  42   2.0000      -0.563351       -15.3296
  43   2.0000      -0.550298       -14.9744
  44   2.0000      -0.541122       -14.7247
  45   2.0000      -0.529944       -14.4205
  46   2.0000      -0.522189       -14.2095
  47   2.0000      -0.512388       -13.9428
  48   2.0000      -0.502685       -13.6787
  49   2.0000      -0.499433       -13.5903
  50   2.0000      -0.491707       -13.3800
  51   2.0000      -0.477340       -12.9891
  52   2.0000      -0.465823       -12.6757
  53   2.0000      -0.461703       -12.5636
  54   2.0000      -0.455266       -12.3884
  55   2.0000      -0.449055       -12.2194
  56   2.0000      -0.447036       -12.1645
  57   2.0000      -0.436122       -11.8675
  58   2.0000      -0.433358       -11.7923
  59   2.0000      -0.428335       -11.6556
  60   2.0000      -0.415541       -11.3074
  61   2.0000      -0.413296       -11.2463
  62   2.0000      -0.412270       -11.2184
  63   2.0000      -0.335448        -9.1280
  64   2.0000      -0.329183        -8.9575
  65   2.0000      -0.326517        -8.8850
  66   2.0000      -0.303886        -8.2692
  67   0.0000       0.043077         1.1722
  68   0.0000       0.052882         1.4390
  69   0.0000       0.106089         2.8868
  70   0.0000       0.111077         3.0226
  71   0.0000       0.134521         3.6605

MULLIKEN ATOMIC CHARGES
-----------------------
   0 S :    0.100247
   1 C :   -0.090315
   2 C :   -0.109809
   3 C :    0.065953
   4 C :   -0.173909
   5 H :   -0.009626
   6 C :    0.056159
   7 H :    0.019251
   8 H :    0.028597
   9 C :   -0.063998
  10 H :    0.029211
  11 H :    0.029034
  12 C :    0.006805
  13 H :    0.017557
  14 H :    0.027158
  15 H :    0.016774
  16 S :    0.131543
  17 C :   -0.061320
  18 C :   -0.031340
  19 C :    0.021955
  20 C :   -0.185509
  21 H :   -0.019465
  22 C :    0.057560
  23 H :    0.023864
  24 H :    0.020320
  25 C :   -0.067464
  26 H :    0.041214
  27 H :    0.029746
  28 C :   -0.047856
  29 H :    0.030378
  30 H :    0.026173
  31 H :    0.018003
  32 H :    0.021256
  33 H :    0.041852
Sum of atomic charges:    0.0000000

LOEWDIN ATOMIC CHARGES
----------------------
   0 S :    0.384195
   1 C :   -0.176267
   2 C :   -0.065171
   3 C :   -0.054539
   4 C :   -0.186518
   5 H :    0.023301
   6 C :   -0.034771
   7 H :    0.028825
   8 H :    0.032588
   9 C :   -0.034481
  10 H :    0.021719
  11 H :    0.033378
  12 C :   -0.061954
  13 H :    0.016768
  14 H :    0.030715
  15 H :    0.022280
  16 S :    0.433508
  17 C :   -0.193639
  18 C :   -0.048189
  19 C :   -0.050502
  20 C :   -0.212760
  21 H :    0.011153
  22 C :   -0.030812
  23 H :    0.031679
  24 H :    0.026451
  25 C :   -0.038475
  26 H :    0.033272
  27 H :    0.021360
  28 C :   -0.076622
  29 H :    0.028640
  30 H :    0.027833
  31 H :    0.020055
  32 H :    0.017662
  33 H :    0.019319

  Mayer bond orders larger than 0.100000
B(  0-S ,  1-C ) :   1.1261 B(  0-S ,  4-C ) :   1.1326 B(  1-C ,  2-C ) :   1.6518
B(  1-C ,  4-C ) :   0.1007 B(  1-C , 32-H ) :   0.9666 B(  2-C ,  3-C ) :   1.2061
B(  2-C ,  6-C ) :   1.0304 B(  3-C ,  4-C ) :   1.6174 B(  3-C ,  5-H ) :   1.0042
B(  4-C , 20-C ) :   1.0127 B(  6-C ,  7-H ) :   0.9245 B(  6-C ,  8-H ) :   0.9428
B(  6-C ,  9-C ) :   1.0571 B(  9-C , 10-H ) :   0.9602 B(  9-C , 11-H ) :   0.9594
B(  9-C , 12-C ) :   1.0851 B( 12-C , 13-H ) :   0.9731 B( 12-C , 14-H ) :   0.9714
B( 12-C , 15-H ) :   0.9727 B( 16-S , 17-C ) :   1.1534 B( 16-S , 20-C ) :   1.1718
B( 17-C , 18-C ) :   1.6232 B( 17-C , 33-H ) :   0.9664 B( 18-C , 19-C ) :   1.2237
B( 18-C , 21-H ) :   1.0005 B( 19-C , 20-C ) :   1.6001 B( 19-C , 22-C ) :   1.0369
B( 22-C , 23-H ) :   0.9343 B( 22-C , 24-H ) :   0.9439 B( 22-C , 25-C ) :   1.0658
B( 25-C , 26-H ) :   0.9568 B( 25-C , 27-H ) :   0.9613 B( 25-C , 28-C ) :   1.0722
B( 28-C , 29-H ) :   0.9719 B( 28-C , 30-H ) :   0.9757 B( 28-C , 31-H ) :   0.9725

Dispersion correction           -0.014672182
FINAL SINGLE POINT ENERGY     -1339.858734315104

DIPOLE MOMENT
-------------
                                X             Y             Z
Electronic contribution:     -8.32893      10.80924      22.05336
Nuclear contribution   :      8.91380     -10.79395     -22.57661
                        -----------------------------------------
Total Dipole Moment    :      0.58486       0.01529      -0.52325
                        -----------------------------------------
Magnitude (a.u.)       :      0.78491
Magnitude (Debye)      :      1.99509

Rotational constants in cm-1:     0.019831     0.008146     0.007211
Rotational constants in MHz :   594.509513   244.219004   216.175014

                             ****ORCA TERMINATED NORMALLY****
TOTAL RUN TIME: 0 days 0 hours 0 minutes 49 seconds 719 msec
