                         Program Version 4.2.1 -  RELEASE  -
|  1> ! wB97X-D3 SP def2-SVP
|  2> %pal
|  3> nprocs 16
|  4> end
|  5>
|  6> * xyz 0 1
|  7> S 	 -112.791 	 52.3689 	 133.39
|  8> C 	 -113.113 	 53.9099 	 134.287
|  9> C 	 -112.638 	 53.7373 	 135.578
| 10> C 	 -112.19 	 52.4226 	 135.872
| 11> C 	 -112.153 	 51.5337 	 134.795
| 12> H 	 -111.825 	 52.0937 	 136.873
| 13> C 	 -112.748 	 54.7444 	 136.682
| 14> H 	 -113.051 	 54.0748 	 137.514
| 15> H 	 -113.451 	 55.5274 	 136.489
| 16> C 	 -111.393 	 55.4543 	 137.02
| 17> H 	 -110.771 	 54.6885 	 137.512
| 18> H 	 -110.834 	 55.7328 	 136.123
| 19> C 	 -111.493 	 56.6743 	 137.929
| 20> H 	 -110.474 	 56.9567 	 138.471
| 21> H 	 -111.926 	 57.5346 	 137.5
| 22> H 	 -112.059 	 56.3835 	 138.8
| 23> S 	 -110.035 	 49.907 	 134.374
| 24> C 	 -110.274 	 48.1752 	 134.33
| 25> C 	 -111.554 	 47.7604 	 134.694
| 26> C 	 -112.411 	 48.9095 	 134.929
| 27> C 	 -111.754 	 50.1374 	 134.792
| 28> H 	 -111.961 	 46.7786 	 134.541
| 29> C 	 -113.94 	 48.7298 	 135.035
| 30> H 	 -114.312 	 49.1939 	 135.96
| 31> H 	 -113.99 	 47.6733 	 135.265
| 32> C 	 -114.675 	 49.0455 	 133.785
| 33> H 	 -114.178 	 48.6237 	 132.968
| 34> H 	 -114.672 	 50.1023 	 133.568
| 35> C 	 -116.111 	 48.5291 	 133.744
| 36> H 	 -116.693 	 48.7871 	 134.658
| 37> H 	 -116.146 	 47.4123 	 133.649
| 38> H 	 -116.636 	 48.9958 	 132.877
| 39> H 	 -113.525 	 54.8836 	 134.003
| 40> H 	 -109.51 	 47.4193 	 134.1
| 41> *
| 42>
| 43>                          ****END OF INPUT****

CARTESIAN COORDINATES (ANGSTROEM)
---------------------------------
  S    -112.791000   52.368900  133.390000
  C    -113.113000   53.909900  134.287000
  C    -112.638000   53.737300  135.578000
  C    -112.190000   52.422600  135.872000
  C    -112.153000   51.533700  134.795000
  H    -111.825000   52.093700  136.873000
  C    -112.748000   54.744400  136.682000
  H    -113.051000   54.074800  137.514000
  H    -113.451000   55.527400  136.489000
  C    -111.393000   55.454300  137.020000
  H    -110.771000   54.688500  137.512000
  H    -110.834000   55.732800  136.123000
  C    -111.493000   56.674300  137.929000
  H    -110.474000   56.956700  138.471000
  H    -111.926000   57.534600  137.500000
  H    -112.059000   56.383500  138.800000
  S    -110.035000   49.907000  134.374000
  C    -110.274000   48.175200  134.330000
  C    -111.554000   47.760400  134.694000
  C    -112.411000   48.909500  134.929000
  C    -111.754000   50.137400  134.792000
  H    -111.961000   46.778600  134.541000
  C    -113.940000   48.729800  135.035000
  H    -114.312000   49.193900  135.960000
  H    -113.990000   47.673300  135.265000
  C    -114.675000   49.045500  133.785000
  H    -114.178000   48.623700  132.968000
  H    -114.672000   50.102300  133.568000
  C    -116.111000   48.529100  133.744000
  H    -116.693000   48.787100  134.658000
  H    -116.146000   47.412300  133.649000
  H    -116.636000   48.995800  132.877000
  H    -113.525000   54.883600  134.003000
  H    -109.510000   47.419300  134.100000

 Total Charge           Charge          ....    0
 Multiplicity           Mult            ....    1
 Number of Electrons    NEL             ....  134
 Basis Dimension        Dim             ....  322

ORBITAL ENERGIES
----------------

  NO   OCC          E(Eh)            E(eV)
   0   2.0000     -88.968606     -2420.9589
   1   2.0000     -88.968431     -2420.9541
   2   2.0000     -10.333202      -281.1807
   3   2.0000     -10.328900      -281.0636
   4   2.0000     -10.323901      -280.9276
   5   2.0000     -10.321369      -280.8587
   6   2.0000     -10.309661      -280.5401
   7   2.0000     -10.299788      -280.2715
   8   2.0000     -10.297863      -280.2191
   9   2.0000     -10.297577      -280.2113
  10   2.0000     -10.293500      -280.1004
  11   2.0000     -10.288628      -279.9678
  12   2.0000     -10.288384      -279.9612
  13   2.0000     -10.282807      -279.8094
  14   2.0000     -10.281795      -279.7819
  15   2.0000     -10.272544      -279.5301
  16   2.0000      -8.082657      -219.9403
  17   2.0000      -8.081520      -219.9093
  18   2.0000      -6.041155      -164.3882
  19   2.0000      -6.040296      -164.3648
  20   2.0000      -6.037228      -164.2813
  21   2.0000      -6.036075      -164.2500
  22   2.0000      -6.033446      -164.1784
  23   2.0000      -6.032256      -164.1460
  24   2.0000      -1.000732       -27.2313
  25   2.0000      -0.978704       -26.6319
  26   2.0000      -0.912086       -24.8191
  27   2.0000      -0.910296       -24.7704
  28   2.0000      -0.868269       -23.6268
  29   2.0000      -0.848180       -23.0801
  30   2.0000      -0.843799       -22.9609
  31   2.0000      -0.811221       -22.0744
  32   2.0000      -0.780394       -21.2356
  33   2.0000      -0.769040       -20.9266
  34   2.0000      -0.708394       -19.2764
  35   2.0000      -0.697998       -18.9935
  36   2.0000      -0.694601       -18.9010
  37   2.0000      -0.665313       -18.1041
  38   2.0000      -0.634541       -17.2667
  39   2.0000      -0.617803       -16.8113
  40   2.0000      -0.592872       -16.1329
  41   2.0000      -0.567051       -15.4302
  42   2.0000      -0.564633       -15.3645
  43   2.0000      -0.560314       -15.2469
  44   2.0000      -0.527832       -14.3630
  45   2.0000      -0.515722       -14.0335
  46   2.0000      -0.511697       -13.9240
  47   2.0000      -0.510749       -13.8982
  48   2.0000      -0.504616       -13.7313
  49   2.0000      -0.502200       -13.6655
  50   2.0000      -0.499189       -13.5836
  51   2.0000      -0.476173       -12.9573
  52   2.0000      -0.470672       -12.8076
  53   2.0000      -0.464311       -12.6345
  54   2.0000      -0.452908       -12.3243
  55   2.0000      -0.450559       -12.2603
  56   2.0000      -0.447523       -12.1777
  57   2.0000      -0.439031       -11.9466
  58   2.0000      -0.429907       -11.6984
  59   2.0000      -0.423061       -11.5121
  60   2.0000      -0.416424       -11.3315
  61   2.0000      -0.413279       -11.2459
  62   2.0000      -0.406483       -11.0610
  63   2.0000      -0.336538        -9.1577
  64   2.0000      -0.327304        -8.9064
  65   2.0000      -0.316779        -8.6200
  66   2.0000      -0.316387        -8.6093
  67   0.0000       0.042581         1.1587
  68   0.0000       0.043141         1.1739
  69   0.0000       0.111433         3.0322
  70   0.0000       0.115037         3.1303
  71   0.0000       0.119617         3.2549

MULLIKEN ATOMIC CHARGES
-----------------------
   0 S :    0.111275
   1 C :   -0.118893
   2 C :   -0.092647
   3 C :    0.033040
   4 C :   -0.153428
   5 H :    0.026041
   6 C :    0.063067
   7 H :    0.038949
   8 H :    0.013955
   9 C :   -0.082256
  10 H :    0.025488
  11 H :    0.036240
  12 C :   -0.055184
  13 H :    0.044784
  14 H :    0.035202
  15 H :    0.019505
  16 S :    0.118520
  17 C :   -0.090628
  18 C :   -0.031418
  19 C :   -0.058577
  20 C :   -0.201466
  21 H :    0.025022
  22 C :    0.100121
  23 H :    0.032597
  24 H :   -0.004039
  25 C :   -0.015944
  26 H :    0.009468
  27 H :    0.025907
  28 C :   -0.082990
  29 H :    0.034116
  30 H :    0.036150
  31 H :    0.041863
  32 H :    0.050141
  33 H :    0.066017
Sum of atomic charges:    0.0000000

LOEWDIN ATOMIC CHARGES
----------------------
   0 S :    0.394824
   1 C :   -0.189165
   2 C :   -0.067898
   3 C :   -0.065283
   4 C :   -0.203830
   5 H :    0.037134
   6 C :   -0.028960
   7 H :    0.039203
   8 H :    0.022866
   9 C :   -0.044414
  10 H :    0.025370
  11 H :    0.024392
  12 C :   -0.072674
  13 H :    0.042489
  14 H :    0.016695
  15 H :    0.021708
  16 S :    0.404964
  17 C :   -0.181239
  18 C :   -0.077238
  19 C :   -0.039815
  20 C :   -0.202049
  21 H :    0.031321
  22 C :   -0.028966
  23 H :    0.033837
  24 H :    0.024870
  25 C :   -0.043128
  26 H :    0.020592
  27 H :    0.018419
  28 C :   -0.068846
  29 H :    0.025432
  30 H :    0.025889
  31 H :    0.031742
  32 H :    0.037758
  33 H :    0.033996

  Mayer bond orders larger than 0.100000
B(  0-S ,  1-C ) :   1.1217 B(  0-S ,  4-C ) :   1.1434 B(  1-C ,  2-C ) :   1.6103
B(  1-C ,  4-C ) :   0.1043 B(  1-C , 32-H ) :   0.9665 B(  2-C ,  3-C ) :   1.2426
B(  2-C ,  6-C ) :   1.0274 B(  3-C ,  4-C ) :   1.5892 B(  3-C ,  5-H ) :   0.9828
B(  4-C , 20-C ) :   1.0210 B(  6-C ,  7-H ) :   0.9385 B(  6-C ,  8-H ) :   0.9482
B(  6-C ,  9-C ) :   1.0476 B(  9-C , 10-H ) :   0.9535 B(  9-C , 11-H ) :   0.9614
B(  9-C , 12-C ) :   1.0867 B( 12-C , 13-H ) :   0.9726 B( 12-C , 14-H ) :   0.9772
B( 12-C , 15-H ) :   0.9702 B( 16-S , 17-C ) :   1.1676 B( 16-S , 20-C ) :   1.1330
B( 17-C , 18-C ) :   1.6193 B( 17-C , 33-H ) :   0.9588 B( 18-C , 19-C ) :   1.2473
B( 18-C , 21-H ) :   0.9801 B( 19-C , 20-C ) :   1.6160 B( 19-C , 22-C ) :   1.0375
B( 22-C , 23-H ) :   0.9258 B( 22-C , 24-H ) :   0.9282 B( 22-C , 25-C ) :   1.0729
B( 25-C , 26-H ) :   0.9465 B( 25-C , 27-H ) :   0.9446 B( 25-C , 28-C ) :   1.0886
B( 28-C , 29-H ) :   0.9750 B( 28-C , 30-H ) :   0.9762 B( 28-C , 31-H ) :   0.9739

Dispersion correction           -0.014096881
FINAL SINGLE POINT ENERGY     -1339.872386687776

DIPOLE MOMENT
-------------
                                X             Y             Z
Electronic contribution:     12.92573      -7.68947     -11.24457
Nuclear contribution   :    -13.16595       7.68167      11.54228
                        -----------------------------------------
Total Dipole Moment    :     -0.24022      -0.00780       0.29771
                        -----------------------------------------
Magnitude (a.u.)       :      0.38262
Magnitude (Debye)      :      0.97256

Rotational constants in cm-1:     0.020408     0.007601     0.006379
Rotational constants in MHz :   611.815302   227.867705   191.239798

                             ****ORCA TERMINATED NORMALLY****
TOTAL RUN TIME: 0 days 0 hours 0 minutes 32 seconds 755 msec
