                         Program Version 4.2.1 -  RELEASE  -
|  1> ! wB97X-D3 SP def2-SVP
|  2> %pal
|  3> nprocs 16
|  4> end
|  5>
|  6> * xyz 0 1
|  7> S 	 6.01032 	 -27.0082 	 83.7353
|  8> C 	 6.85323 	 -28.5829 	 83.7722
|  9> C 	 7.94705 	 -28.5191 	 82.9405
| 10> C 	 8.21078 	 -27.1646 	 82.491
| 11> C 	 7.3436 	 -26.237 	 82.9114
| 12> H 	 8.91342 	 -26.8582 	 81.7302
| 13> C 	 8.98859 	 -29.5732 	 82.7168
| 14> H 	 9.32797 	 -29.5804 	 81.6994
| 15> H 	 8.49291 	 -30.5561 	 82.7392
| 16> C 	 10.181 	 -29.5143 	 83.7095
| 17> H 	 10.7838 	 -28.6108 	 83.5745
| 18> H 	 9.71942 	 -29.5066 	 84.7119
| 19> C 	 11.025 	 -30.7501 	 83.6969
| 20> H 	 11.0394 	 -31.2943 	 82.7818
| 21> H 	 12.0316 	 -30.4455 	 84.0611
| 22> H 	 10.6961 	 -31.5188 	 84.4027
| 23> S 	 5.71952 	 -24.1495 	 82.3845
| 24> C 	 6.34728 	 -22.7619 	 81.6251
| 25> C 	 7.73849 	 -22.7245 	 81.6072
| 26> C 	 8.3184 	 -23.9067 	 82.1576
| 27> C 	 7.34164 	 -24.8687 	 82.4798
| 28> H 	 8.2557 	 -21.8688 	 81.1695
| 29> C 	 9.82341 	 -24.1291 	 82.2757
| 30> H 	 10.3206 	 -23.1846 	 81.9619
| 31> H 	 10.1277 	 -24.8493 	 81.5734
| 32> C 	 10.4077 	 -24.3869 	 83.7235
| 33> H 	 10.0252 	 -25.289 	 84.1672
| 34> H 	 10.164 	 -23.5123 	 84.3652
| 35> C 	 11.9296 	 -24.6544 	 83.7459
| 36> H 	 12.197 	 -24.8258 	 84.7925
| 37> H 	 12.6687 	 -23.9588 	 83.3431
| 38> H 	 12.1333 	 -25.6346 	 83.261
| 39> H 	 6.49693 	 -29.4919 	 84.0851
| 40> H 	 5.77428 	 -21.8963 	 81.3655
| 41> *
| 42>
| 43>                          ****END OF INPUT****

CARTESIAN COORDINATES (ANGSTROEM)
---------------------------------
  S      6.010320  -27.008200   83.735300
  C      6.853230  -28.582900   83.772200
  C      7.947050  -28.519100   82.940500
  C      8.210780  -27.164600   82.491000
  C      7.343600  -26.237000   82.911400
  H      8.913420  -26.858200   81.730200
  C      8.988590  -29.573200   82.716800
  H      9.327970  -29.580400   81.699400
  H      8.492910  -30.556100   82.739200
  C     10.181000  -29.514300   83.709500
  H     10.783800  -28.610800   83.574500
  H      9.719420  -29.506600   84.711900
  C     11.025000  -30.750100   83.696900
  H     11.039400  -31.294300   82.781800
  H     12.031600  -30.445500   84.061100
  H     10.696100  -31.518800   84.402700
  S      5.719520  -24.149500   82.384500
  C      6.347280  -22.761900   81.625100
  C      7.738490  -22.724500   81.607200
  C      8.318400  -23.906700   82.157600
  C      7.341640  -24.868700   82.479800
  H      8.255700  -21.868800   81.169500
  C      9.823410  -24.129100   82.275700
  H     10.320600  -23.184600   81.961900
  H     10.127700  -24.849300   81.573400
  C     10.407700  -24.386900   83.723500
  H     10.025200  -25.289000   84.167200
  H     10.164000  -23.512300   84.365200
  C     11.929600  -24.654400   83.745900
  H     12.197000  -24.825800   84.792500
  H     12.668700  -23.958800   83.343100
  H     12.133300  -25.634600   83.261000
  H      6.496930  -29.491900   84.085100
  H      5.774280  -21.896300   81.365500

 Total Charge           Charge          ....    0
 Multiplicity           Mult            ....    1
 Number of Electrons    NEL             ....  134
 Basis Dimension        Dim             ....  322

ORBITAL ENERGIES
----------------

  NO   OCC          E(Eh)            E(eV)
   0   2.0000     -88.966099     -2420.8906
   1   2.0000     -88.963823     -2420.8287
   2   2.0000     -10.328856      -281.0625
   3   2.0000     -10.324703      -280.9494
   4   2.0000     -10.313651      -280.6487
   5   2.0000     -10.311156      -280.5808
   6   2.0000     -10.309662      -280.5402
   7   2.0000     -10.301058      -280.3060
   8   2.0000     -10.296098      -280.1711
   9   2.0000     -10.294798      -280.1357
  10   2.0000     -10.291073      -280.0343
  11   2.0000     -10.290550      -280.0201
  12   2.0000     -10.287605      -279.9400
  13   2.0000     -10.285426      -279.8807
  14   2.0000     -10.280565      -279.7484
  15   2.0000     -10.275974      -279.6235
  16   2.0000      -8.081549      -219.9101
  17   2.0000      -8.078247      -219.8203
  18   2.0000      -6.039878      -164.3534
  19   2.0000      -6.037128      -164.2786
  20   2.0000      -6.036021      -164.2485
  21   2.0000      -6.032975      -164.1656
  22   2.0000      -6.032394      -164.1498
  23   2.0000      -6.028439      -164.0422
  24   2.0000      -1.010348       -27.4930
  25   2.0000      -0.984700       -26.7951
  26   2.0000      -0.914610       -24.8878
  27   2.0000      -0.902901       -24.5692
  28   2.0000      -0.875062       -23.8117
  29   2.0000      -0.855057       -23.2673
  30   2.0000      -0.845129       -22.9971
  31   2.0000      -0.816819       -22.2268
  32   2.0000      -0.782876       -21.3031
  33   2.0000      -0.773870       -21.0581
  34   2.0000      -0.710371       -19.3302
  35   2.0000      -0.701682       -19.0937
  36   2.0000      -0.693722       -18.8771
  37   2.0000      -0.665382       -18.1060
  38   2.0000      -0.643387       -17.5074
  39   2.0000      -0.618908       -16.8413
  40   2.0000      -0.594141       -16.1674
  41   2.0000      -0.570472       -15.5233
  42   2.0000      -0.566411       -15.4128
  43   2.0000      -0.557871       -15.1804
  44   2.0000      -0.532995       -14.5035
  45   2.0000      -0.524137       -14.2625
  46   2.0000      -0.516515       -14.0551
  47   2.0000      -0.509543       -13.8654
  48   2.0000      -0.508270       -13.8307
  49   2.0000      -0.506438       -13.7809
  50   2.0000      -0.492616       -13.4048
  51   2.0000      -0.484427       -13.1819
  52   2.0000      -0.472879       -12.8677
  53   2.0000      -0.466250       -12.6873
  54   2.0000      -0.456885       -12.4325
  55   2.0000      -0.451436       -12.2842
  56   2.0000      -0.440609       -11.9896
  57   2.0000      -0.439674       -11.9641
  58   2.0000      -0.429130       -11.6772
  59   2.0000      -0.423877       -11.5343
  60   2.0000      -0.423260       -11.5175
  61   2.0000      -0.415355       -11.3024
  62   2.0000      -0.409414       -11.1407
  63   2.0000      -0.360267        -9.8034
  64   2.0000      -0.335804        -9.1377
  65   2.0000      -0.324490        -8.8298
  66   2.0000      -0.283947        -7.7266
  67   0.0000       0.019997         0.5441
  68   0.0000       0.075845         2.0638
  69   0.0000       0.097843         2.6624
  70   0.0000       0.117268         3.1910
  71   0.0000       0.125797         3.4231

MULLIKEN ATOMIC CHARGES
-----------------------
   0 S :    0.081275
   1 C :   -0.060220
   2 C :   -0.085530
   3 C :   -0.034580
   4 C :   -0.065576
   5 H :    0.010097
   6 C :    0.050647
   7 H :    0.017661
   8 H :    0.012035
   9 C :   -0.059893
  10 H :    0.037869
  11 H :    0.032365
  12 C :   -0.040712
  13 H :    0.024050
  14 H :    0.036698
  15 H :    0.027888
  16 S :    0.102588
  17 C :   -0.071324
  18 C :   -0.055945
  19 C :   -0.028153
  20 C :   -0.157280
  21 H :    0.024424
  22 C :    0.060337
  23 H :    0.016477
  24 H :    0.025442
  25 C :   -0.067115
  26 H :    0.038337
  27 H :    0.042978
  28 C :   -0.072838
  29 H :    0.032238
  30 H :    0.036166
  31 H :    0.025287
  32 H :    0.013490
  33 H :    0.050817
Sum of atomic charges:   -0.0000000

LOEWDIN ATOMIC CHARGES
----------------------
   0 S :    0.375885
   1 C :   -0.171087
   2 C :   -0.053482
   3 C :   -0.072154
   4 C :   -0.188222
   5 H :    0.030684
   6 C :   -0.037799
   7 H :    0.026294
   8 H :    0.028708
   9 C :   -0.039210
  10 H :    0.024850
  11 H :    0.031747
  12 C :   -0.069410
  13 H :    0.018805
  14 H :    0.033677
  15 H :    0.027311
  16 S :    0.416903
  17 C :   -0.195682
  18 C :   -0.075318
  19 C :   -0.053103
  20 C :   -0.180218
  21 H :    0.035081
  22 C :   -0.031951
  23 H :    0.034143
  24 H :    0.020718
  25 C :   -0.033178
  26 H :    0.024345
  27 H :    0.030091
  28 C :   -0.073982
  29 H :    0.029147
  30 H :    0.021536
  31 H :    0.025406
  32 H :    0.013282
  33 H :    0.026182

  Mayer bond orders larger than 0.100000
B(  0-S ,  1-C ) :   1.1028 B(  0-S ,  4-C ) :   1.1141 B(  1-C ,  2-C ) :   1.6465
B(  1-C , 32-H ) :   0.9764 B(  2-C ,  3-C ) :   1.1899 B(  2-C ,  6-C ) :   1.0538
B(  3-C ,  4-C ) :   1.6041 B(  3-C ,  5-H ) :   1.0003 B(  4-C , 20-C ) :   1.1005
B(  6-C ,  7-H ) :   0.9304 B(  6-C ,  8-H ) :   0.9387 B(  6-C ,  9-C ) :   1.0567
B(  9-C , 10-H ) :   0.9610 B(  9-C , 11-H ) :   0.9565 B(  9-C , 12-C ) :   1.0773
B( 12-C , 13-H ) :   0.9759 B( 12-C , 14-H ) :   0.9733 B( 12-C , 15-H ) :   0.9752
B( 16-S , 17-C ) :   1.1776 B( 16-S , 20-C ) :   1.1353 B( 17-C , 18-C ) :   1.5896
B( 17-C , 20-C ) :   0.1017 B( 17-C , 33-H ) :   0.9667 B( 18-C , 19-C ) :   1.2639
B( 18-C , 21-H ) :   0.9899 B( 19-C , 20-C ) :   1.5510 B( 19-C , 22-C ) :   1.0403
B( 22-C , 23-H ) :   0.9329 B( 22-C , 24-H ) :   0.9379 B( 22-C , 25-C ) :   1.0561
B( 25-C , 26-H ) :   0.9544 B( 25-C , 27-H ) :   0.9586 B( 25-C , 28-C ) :   1.0787
B( 28-C , 29-H ) :   0.9743 B( 28-C , 30-H ) :   0.9772 B( 28-C , 31-H ) :   0.9736

Dispersion correction           -0.014344072
FINAL SINGLE POINT ENERGY     -1339.872129129341

DIPOLE MOMENT
-------------
                                X             Y             Z
Electronic contribution:    -30.82520      11.61928      -3.21049
Nuclear contribution   :     31.49563     -11.74720       3.02528
                        -----------------------------------------
Total Dipole Moment    :      0.67043      -0.12792      -0.18521
                        -----------------------------------------
Magnitude (a.u.)       :      0.70721
Magnitude (Debye)      :      1.79758

Rotational constants in cm-1:     0.018489     0.009398     0.006681
Rotational constants in MHz :   554.277014   281.744903   200.283279

                             ****ORCA TERMINATED NORMALLY****
TOTAL RUN TIME: 0 days 0 hours 0 minutes 33 seconds 34 msec
