                         Program Version 4.2.1 -  RELEASE  -
|  1> ! wB97X-D3 SP def2-SVP
|  2> %pal
|  3> nprocs 16
|  4> end
|  5>
|  6> * xyz 0 1
|  7> S 	 -106.706 	 40.5743 	 132.329
|  8> C 	 -105.145 	 40.039 	 133.04
|  9> C 	 -104.081 	 40.1724 	 132.183
| 10> C 	 -104.585 	 40.5419 	 130.879
| 11> C 	 -105.974 	 40.7452 	 130.716
| 12> H 	 -103.989 	 40.7083 	 129.982
| 13> C 	 -102.589 	 39.8292 	 132.41
| 14> H 	 -102.42 	 38.8306 	 132.051
| 15> H 	 -102.424 	 39.6474 	 133.505
| 16> C 	 -101.652 	 41.0007 	 132.03
| 17> H 	 -100.664 	 40.5547 	 132.275
| 18> H 	 -101.641 	 41.2892 	 130.987
| 19> C 	 -101.843 	 42.2364 	 132.938
| 20> H 	 -100.908 	 42.774 	 132.962
| 21> H 	 -102.742 	 42.8037 	 132.69
| 22> H 	 -101.96 	 41.9501 	 133.99
| 23> S 	 -108.356 	 41.8148 	 129.902
| 24> C 	 -108.675 	 41.9649 	 128.186
| 25> C 	 -107.614 	 41.5925 	 127.383
| 26> C 	 -106.523 	 41.1165 	 128.146
| 27> C 	 -106.754 	 41.0858 	 129.555
| 28> H 	 -107.678 	 41.6963 	 126.336
| 29> C 	 -105.278 	 40.5773 	 127.493
| 30> H 	 -105.623 	 39.9488 	 126.8
| 31> H 	 -104.822 	 39.9193 	 128.208
| 32> C 	 -104.251 	 41.5957 	 126.926
| 33> H 	 -103.305 	 41.1669 	 126.681
| 34> H 	 -104.097 	 42.2784 	 127.78
| 35> C 	 -104.698 	 42.4263 	 125.741
| 36> H 	 -104.879 	 41.7849 	 124.921
| 37> H 	 -103.81 	 42.9423 	 125.413
| 38> H 	 -105.505 	 43.1148 	 125.869
| 39> H 	 -105.056 	 39.8302 	 134.052
| 40> H 	 -109.609 	 42.3206 	 127.715
| 41> *
| 42>
| 43>                          ****END OF INPUT****

CARTESIAN COORDINATES (ANGSTROEM)
---------------------------------
  S    -106.706000   40.574300  132.329000
  C    -105.145000   40.039000  133.040000
  C    -104.081000   40.172400  132.183000
  C    -104.585000   40.541900  130.879000
  C    -105.974000   40.745200  130.716000
  H    -103.989000   40.708300  129.982000
  C    -102.589000   39.829200  132.410000
  H    -102.420000   38.830600  132.051000
  H    -102.424000   39.647400  133.505000
  C    -101.652000   41.000700  132.030000
  H    -100.664000   40.554700  132.275000
  H    -101.641000   41.289200  130.987000
  C    -101.843000   42.236400  132.938000
  H    -100.908000   42.774000  132.962000
  H    -102.742000   42.803700  132.690000
  H    -101.960000   41.950100  133.990000
  S    -108.356000   41.814800  129.902000
  C    -108.675000   41.964900  128.186000
  C    -107.614000   41.592500  127.383000
  C    -106.523000   41.116500  128.146000
  C    -106.754000   41.085800  129.555000
  H    -107.678000   41.696300  126.336000
  C    -105.278000   40.577300  127.493000
  H    -105.623000   39.948800  126.800000
  H    -104.822000   39.919300  128.208000
  C    -104.251000   41.595700  126.926000
  H    -103.305000   41.166900  126.681000
  H    -104.097000   42.278400  127.780000
  C    -104.698000   42.426300  125.741000
  H    -104.879000   41.784900  124.921000
  H    -103.810000   42.942300  125.413000
  H    -105.505000   43.114800  125.869000
  H    -105.056000   39.830200  134.052000
  H    -109.609000   42.320600  127.715000

 Total Charge           Charge          ....    0
 Multiplicity           Mult            ....    1
 Number of Electrons    NEL             ....  134
 Basis Dimension        Dim             ....  322

ORBITAL ENERGIES
----------------

  NO   OCC          E(Eh)            E(eV)
   0   2.0000     -88.968488     -2420.9556
   1   2.0000     -88.963384     -2420.8168
   2   2.0000     -10.335795      -281.2513
   3   2.0000     -10.334746      -281.2227
   4   2.0000     -10.321197      -280.8541
   5   2.0000     -10.312617      -280.6206
   6   2.0000     -10.307889      -280.4919
   7   2.0000     -10.305756      -280.4339
   8   2.0000     -10.301218      -280.3104
   9   2.0000     -10.296018      -280.1689
  10   2.0000     -10.294035      -280.1149
  11   2.0000     -10.291953      -280.0583
  12   2.0000     -10.287516      -279.9376
  13   2.0000     -10.278192      -279.6838
  14   2.0000     -10.277722      -279.6710
  15   2.0000     -10.270852      -279.4841
  16   2.0000      -8.082486      -219.9356
  17   2.0000      -8.077094      -219.7889
  18   2.0000      -6.041044      -164.3852
  19   2.0000      -6.037174      -164.2799
  20   2.0000      -6.035884      -164.2447
  21   2.0000      -6.033171      -164.1709
  22   2.0000      -6.031854      -164.1351
  23   2.0000      -6.027516      -164.0171
  24   2.0000      -0.999629       -27.2013
  25   2.0000      -0.975889       -26.5553
  26   2.0000      -0.913118       -24.8472
  27   2.0000      -0.908687       -24.7266
  28   2.0000      -0.870902       -23.6984
  29   2.0000      -0.855786       -23.2871
  30   2.0000      -0.836821       -22.7711
  31   2.0000      -0.814097       -22.1527
  32   2.0000      -0.788094       -21.4451
  33   2.0000      -0.776463       -21.1286
  34   2.0000      -0.714746       -19.4492
  35   2.0000      -0.701595       -19.0914
  36   2.0000      -0.694655       -18.9025
  37   2.0000      -0.664653       -18.0861
  38   2.0000      -0.641030       -17.4433
  39   2.0000      -0.618629       -16.8337
  40   2.0000      -0.594702       -16.1827
  41   2.0000      -0.571451       -15.5500
  42   2.0000      -0.558845       -15.2070
  43   2.0000      -0.554931       -15.1004
  44   2.0000      -0.545472       -14.8430
  45   2.0000      -0.537747       -14.6329
  46   2.0000      -0.519782       -14.1440
  47   2.0000      -0.503478       -13.7003
  48   2.0000      -0.501500       -13.6465
  49   2.0000      -0.499628       -13.5956
  50   2.0000      -0.491438       -13.3727
  51   2.0000      -0.484701       -13.1894
  52   2.0000      -0.473433       -12.8828
  53   2.0000      -0.462346       -12.5811
  54   2.0000      -0.458770       -12.4838
  55   2.0000      -0.451529       -12.2867
  56   2.0000      -0.439398       -11.9566
  57   2.0000      -0.438067       -11.9204
  58   2.0000      -0.432870       -11.7790
  59   2.0000      -0.428122       -11.6498
  60   2.0000      -0.422485       -11.4964
  61   2.0000      -0.417445       -11.3593
  62   2.0000      -0.407035       -11.0760
  63   2.0000      -0.361781        -9.8446
  64   2.0000      -0.336255        -9.1500
  65   2.0000      -0.326967        -8.8972
  66   2.0000      -0.276708        -7.5296
  67   0.0000       0.013149         0.3578
  68   0.0000       0.078538         2.1371
  69   0.0000       0.094333         2.5669
  70   0.0000       0.120963         3.2916
  71   0.0000       0.136362         3.7106

MULLIKEN ATOMIC CHARGES
-----------------------
   0 S :    0.077821
   1 C :   -0.100068
   2 C :   -0.066428
   3 C :   -0.020152
   4 C :   -0.118356
   5 H :    0.005519
   6 C :    0.064686
   7 H :    0.044220
   8 H :    0.014957
   9 C :   -0.087388
  10 H :    0.031092
  11 H :    0.044390
  12 C :   -0.047721
  13 H :    0.036430
  14 H :    0.057784
  15 H :    0.017168
  16 S :    0.092130
  17 C :   -0.084710
  18 C :   -0.020799
  19 C :   -0.074736
  20 C :   -0.118206
  21 H :    0.005115
  22 C :    0.118655
  23 H :   -0.012069
  24 H :    0.007158
  25 C :   -0.063450
  26 H :    0.025929
  27 H :    0.030608
  28 C :   -0.020152
  29 H :    0.010670
  30 H :    0.022938
  31 H :    0.041694
  32 H :    0.022302
  33 H :    0.062971
Sum of atomic charges:    0.0000000

LOEWDIN ATOMIC CHARGES
----------------------
   0 S :    0.361933
   1 C :   -0.168205
   2 C :   -0.061697
   3 C :   -0.072629
   4 C :   -0.180776
   5 H :    0.024291
   6 C :   -0.030217
   7 H :    0.032108
   8 H :    0.033246
   9 C :   -0.039584
  10 H :    0.029570
  11 H :    0.022418
  12 C :   -0.064743
  13 H :    0.028244
  14 H :    0.031750
  15 H :    0.024977
  16 S :    0.389018
  17 C :   -0.181008
  18 C :   -0.069493
  19 C :   -0.044276
  20 C :   -0.182867
  21 H :    0.027788
  22 C :   -0.027047
  23 H :    0.012076
  24 H :    0.029130
  25 C :   -0.031684
  26 H :    0.022586
  27 H :    0.027231
  28 C :   -0.061832
  29 H :    0.018517
  30 H :    0.030253
  31 H :    0.022750
  32 H :    0.012278
  33 H :    0.035894

  Mayer bond orders larger than 0.100000
B(  0-S ,  1-C ) :   1.1238 B(  0-S ,  4-C ) :   1.1190 B(  1-C ,  2-C ) :   1.6337
B(  1-C , 32-H ) :   0.9715 B(  2-C ,  3-C ) :   1.2174 B(  2-C ,  6-C ) :   1.0096
B(  3-C ,  4-C ) :   1.5841 B(  3-C ,  5-H ) :   0.9820 B(  4-C , 20-C ) :   1.1181
B(  6-C ,  7-H ) :   0.9477 B(  6-C ,  8-H ) :   0.9408 B(  6-C ,  9-C ) :   1.0565
B(  9-C , 10-H ) :   0.9578 B(  9-C , 11-H ) :   0.9612 B(  9-C , 12-C ) :   1.0704
B( 12-C , 13-H ) :   0.9750 B( 12-C , 14-H ) :   0.9737 B( 12-C , 15-H ) :   0.9731
B( 16-S , 17-C ) :   1.1580 B( 16-S , 20-C ) :   1.1210 B( 17-C , 18-C ) :   1.6019
B( 17-C , 20-C ) :   0.1021 B( 17-C , 33-H ) :   0.9594 B( 18-C , 19-C ) :   1.2577
B( 18-C , 21-H ) :   0.9956 B( 19-C , 20-C ) :   1.5557 B( 19-C , 22-C ) :   1.0298
B( 22-C , 23-H ) :   0.9269 B( 22-C , 24-H ) :   0.9307 B( 22-C , 25-C ) :   1.0577
B( 25-C , 26-H ) :   0.9580 B( 25-C , 27-H ) :   0.9522 B( 25-C , 28-C ) :   1.0957
B( 28-C , 29-H ) :   0.9708 B( 28-C , 30-H ) :   0.9675 B( 28-C , 31-H ) :   0.9719

Dispersion correction           -0.014461694
FINAL SINGLE POINT ENERGY     -1339.865382262877

DIPOLE MOMENT
-------------
                                X             Y             Z
Electronic contribution:    -26.48029      -3.27304       9.29659
Nuclear contribution   :     27.20356       3.24475      -9.72977
                        -----------------------------------------
Total Dipole Moment    :      0.72327      -0.02830      -0.43318
                        -----------------------------------------
Magnitude (a.u.)       :      0.84354
Magnitude (Debye)      :      2.14412

Rotational constants in cm-1:     0.018086     0.009251     0.006651
Rotational constants in MHz :   542.214261   277.345797   199.378909

                             ****ORCA TERMINATED NORMALLY****
TOTAL RUN TIME: 0 days 0 hours 0 minutes 34 seconds 305 msec
