                         Program Version 4.2.1 -  RELEASE  -
|  1> ! wB97X-D3 SP def2-SVP
|  2> %pal
|  3> nprocs 16
|  4> end
|  5>
|  6> * xyz 0 1
|  7> S 	 -33.1626 	 43.0907 	 96.2628
|  8> C 	 -32.1411 	 41.7942 	 95.7133
|  9> C 	 -32.7553 	 40.5624 	 95.9036
| 10> C 	 -34.0396 	 40.7443 	 96.4077
| 11> C 	 -34.5295 	 42.0253 	 96.4923
| 12> H 	 -34.7454 	 39.9909 	 96.659
| 13> C 	 -32.2024 	 39.2633 	 95.4258
| 14> H 	 -31.082 	 39.2899 	 95.3693
| 15> H 	 -32.3987 	 39.1051 	 94.3777
| 16> C 	 -32.6673 	 38.0288 	 96.0898
| 17> H 	 -32.348 	 37.8609 	 97.1369
| 18> H 	 -33.8409 	 38.0076 	 96.2033
| 19> C 	 -32.1854 	 36.7517 	 95.3283
| 20> H 	 -32.7281 	 36.7269 	 94.3526
| 21> H 	 -31.1372 	 36.7927 	 95.0571
| 22> H 	 -32.5874 	 35.9017 	 95.8327
| 23> S 	 -35.7105 	 44.0564 	 97.8469
| 24> C 	 -37.3767 	 44.0028 	 98.2397
| 25> C 	 -38.0435 	 42.987 	 97.5764
| 26> C 	 -37.0925 	 42.0829 	 96.8945
| 27> C 	 -35.7939 	 42.6294 	 96.9272
| 28> H 	 -39.1199 	 42.9073 	 97.548
| 29> C 	 -37.5244 	 40.7262 	 96.3097
| 30> H 	 -36.8339 	 40.6419 	 95.505
| 31> H 	 -38.4754 	 40.7867 	 95.7788
| 32> C 	 -37.5915 	 39.5511 	 97.2385
| 33> H 	 -38.1702 	 39.8097 	 98.0452
| 34> H 	 -36.6566 	 39.3564 	 97.6464
| 35> C 	 -38.2439 	 38.3735 	 96.5797
| 36> H 	 -37.7317 	 38.1048 	 95.6381
| 37> H 	 -39.3446 	 38.5262 	 96.381
| 38> H 	 -38.2584 	 37.4485 	 97.1413
| 39> H 	 -31.3401 	 41.8318 	 94.9974
| 40> H 	 -37.9957 	 44.6447 	 98.8675
| 41> *
| 42>
| 43>                          ****END OF INPUT****

CARTESIAN COORDINATES (ANGSTROEM)
---------------------------------
  S    -33.162600   43.090700   96.262800
  C    -32.141100   41.794200   95.713300
  C    -32.755300   40.562400   95.903600
  C    -34.039600   40.744300   96.407700
  C    -34.529500   42.025300   96.492300
  H    -34.745400   39.990900   96.659000
  C    -32.202400   39.263300   95.425800
  H    -31.082000   39.289900   95.369300
  H    -32.398700   39.105100   94.377700
  C    -32.667300   38.028800   96.089800
  H    -32.348000   37.860900   97.136900
  H    -33.840900   38.007600   96.203300
  C    -32.185400   36.751700   95.328300
  H    -32.728100   36.726900   94.352600
  H    -31.137200   36.792700   95.057100
  H    -32.587400   35.901700   95.832700
  S    -35.710500   44.056400   97.846900
  C    -37.376700   44.002800   98.239700
  C    -38.043500   42.987000   97.576400
  C    -37.092500   42.082900   96.894500
  C    -35.793900   42.629400   96.927200
  H    -39.119900   42.907300   97.548000
  C    -37.524400   40.726200   96.309700
  H    -36.833900   40.641900   95.505000
  H    -38.475400   40.786700   95.778800
  C    -37.591500   39.551100   97.238500
  H    -38.170200   39.809700   98.045200
  H    -36.656600   39.356400   97.646400
  C    -38.243900   38.373500   96.579700
  H    -37.731700   38.104800   95.638100
  H    -39.344600   38.526200   96.381000
  H    -38.258400   37.448500   97.141300
  H    -31.340100   41.831800   94.997400
  H    -37.995700   44.644700   98.867500

 Total Charge           Charge          ....    0
 Multiplicity           Mult            ....    1
 Number of Electrons    NEL             ....  134
 Basis Dimension        Dim             ....  322

ORBITAL ENERGIES
----------------

  NO   OCC          E(Eh)            E(eV)
   0   2.0000     -88.971138     -2421.0278
   1   2.0000     -88.962595     -2420.7953
   2   2.0000     -10.330848      -281.1167
   3   2.0000     -10.329461      -281.0789
   4   2.0000     -10.316907      -280.7373
   5   2.0000     -10.310350      -280.5589
   6   2.0000     -10.308362      -280.5048
   7   2.0000     -10.298144      -280.2268
   8   2.0000     -10.297551      -280.2106
   9   2.0000     -10.296133      -280.1720
  10   2.0000     -10.292334      -280.0687
  11   2.0000     -10.288552      -279.9657
  12   2.0000     -10.287796      -279.9452
  13   2.0000     -10.282568      -279.8029
  14   2.0000     -10.281758      -279.7809
  15   2.0000     -10.274349      -279.5793
  16   2.0000      -8.087127      -220.0619
  17   2.0000      -8.077791      -219.8079
  18   2.0000      -6.045694      -164.5117
  19   2.0000      -6.041430      -164.3957
  20   2.0000      -6.037756      -164.2957
  21   2.0000      -6.036356      -164.2576
  22   2.0000      -6.032207      -164.1447
  23   2.0000      -6.028502      -164.0439
  24   2.0000      -1.014941       -27.6179
  25   2.0000      -0.990806       -26.9612
  26   2.0000      -0.921764       -25.0825
  27   2.0000      -0.919510       -25.0211
  28   2.0000      -0.873078       -23.7576
  29   2.0000      -0.855984       -23.2925
  30   2.0000      -0.844489       -22.9797
  31   2.0000      -0.820401       -22.3242
  32   2.0000      -0.785483       -21.3741
  33   2.0000      -0.773704       -21.0535
  34   2.0000      -0.716140       -19.4872
  35   2.0000      -0.706529       -19.2256
  36   2.0000      -0.687909       -18.7190
  37   2.0000      -0.665812       -18.1177
  38   2.0000      -0.644582       -17.5400
  39   2.0000      -0.624427       -16.9915
  40   2.0000      -0.598141       -16.2763
  41   2.0000      -0.576864       -15.6973
  42   2.0000      -0.573683       -15.6107
  43   2.0000      -0.561192       -15.2708
  44   2.0000      -0.534416       -14.5422
  45   2.0000      -0.527831       -14.3630
  46   2.0000      -0.526641       -14.3306
  47   2.0000      -0.514208       -13.9923
  48   2.0000      -0.504670       -13.7328
  49   2.0000      -0.501555       -13.6480
  50   2.0000      -0.494592       -13.4585
  51   2.0000      -0.483154       -13.1473
  52   2.0000      -0.477204       -12.9854
  53   2.0000      -0.462101       -12.5744
  54   2.0000      -0.457429       -12.4473
  55   2.0000      -0.455470       -12.3940
  56   2.0000      -0.445214       -12.1149
  57   2.0000      -0.440421       -11.9845
  58   2.0000      -0.440109       -11.9760
  59   2.0000      -0.433343       -11.7918
  60   2.0000      -0.415697       -11.3117
  61   2.0000      -0.413404       -11.2493
  62   2.0000      -0.408105       -11.1051
  63   2.0000      -0.357826        -9.7369
  64   2.0000      -0.334873        -9.1124
  65   2.0000      -0.326571        -8.8864
  66   2.0000      -0.283691        -7.7196
  67   0.0000       0.022803         0.6205
  68   0.0000       0.073618         2.0032
  69   0.0000       0.104817         2.8522
  70   0.0000       0.113662         3.0929
  71   0.0000       0.124605         3.3907

MULLIKEN ATOMIC CHARGES
-----------------------
   0 S :    0.082887
   1 C :   -0.091415
   2 C :   -0.051873
   3 C :    0.025546
   4 C :   -0.143905
   5 H :   -0.042422
   6 C :    0.079439
   7 H :    0.023628
   8 H :    0.026135
   9 C :   -0.150399
  10 H :    0.038844
  11 H :    0.041765
  12 C :   -0.031317
  13 H :    0.023007
  14 H :    0.040293
  15 H :    0.032098
  16 S :    0.128232
  17 C :   -0.080067
  18 C :   -0.035922
  19 C :   -0.096151
  20 C :   -0.099157
  21 H :    0.020477
  22 C :    0.050225
  23 H :    0.016508
  24 H :    0.010946
  25 C :    0.050353
  26 H :   -0.001259
  27 H :    0.007648
  28 C :   -0.070476
  29 H :    0.029503
  30 H :    0.036950
  31 H :    0.029062
  32 H :    0.044265
  33 H :    0.056553
Sum of atomic charges:    0.0000000

LOEWDIN ATOMIC CHARGES
----------------------
   0 S :    0.401047
   1 C :   -0.201976
   2 C :   -0.060287
   3 C :   -0.072179
   4 C :   -0.176783
   5 H :    0.019482
   6 C :   -0.043683
   7 H :    0.037175
   8 H :    0.034495
   9 C :   -0.050194
  10 H :    0.024163
  11 H :    0.031445
  12 C :   -0.063174
  13 H :    0.026792
  14 H :    0.025913
  15 H :    0.025132
  16 S :    0.445572
  17 C :   -0.203944
  18 C :   -0.067756
  19 C :   -0.049366
  20 C :   -0.220113
  21 H :    0.029948
  22 C :   -0.031684
  23 H :    0.025201
  24 H :    0.031322
  25 C :   -0.031385
  26 H :    0.018853
  27 H :    0.014964
  28 C :   -0.066686
  29 H :    0.026047
  30 H :    0.032119
  31 H :    0.024715
  32 H :    0.028836
  33 H :    0.035988

  Mayer bond orders larger than 0.100000
B(  0-S ,  1-C ) :   1.1468 B(  0-S ,  4-C ) :   1.1521 B(  1-C ,  2-C ) :   1.6008
B(  1-C ,  4-C ) :   0.1105 B(  1-C , 32-H ) :   0.9632 B(  2-C ,  3-C ) :   1.2553
B(  2-C ,  6-C ) :   1.0233 B(  3-C ,  4-C ) :   1.5706 B(  3-C ,  5-H ) :   0.9940
B(  4-C , 20-C ) :   1.0343 B(  6-C ,  7-H ) :   0.9304 B(  6-C ,  8-H ) :   0.9296
B(  6-C ,  9-C ) :   1.0672 B(  9-C , 10-H ) :   0.9572 B(  9-C , 11-H ) :   0.9446
B(  9-C , 12-C ) :   1.0814 B( 12-C , 13-H ) :   0.9724 B( 12-C , 14-H ) :   0.9748
B( 12-C , 15-H ) :   0.9716 B( 16-S , 17-C ) :   1.1578 B( 16-S , 20-C ) :   1.1474
B( 17-C , 18-C ) :   1.6186 B( 17-C , 33-H ) :   0.9638 B( 18-C , 19-C ) :   1.2369
B( 18-C , 21-H ) :   0.9889 B( 19-C , 20-C ) :   1.5896 B( 19-C , 22-C ) :   1.0422
B( 22-C , 23-H ) :   0.9261 B( 22-C , 24-H ) :   0.9351 B( 22-C , 25-C ) :   1.0637
B( 25-C , 26-H ) :   0.9390 B( 25-C , 27-H ) :   0.9429 B( 25-C , 28-C ) :   1.0903
B( 28-C , 29-H ) :   0.9736 B( 28-C , 30-H ) :   0.9710 B( 28-C , 31-H ) :   0.9726

Dispersion correction           -0.013918278
FINAL SINGLE POINT ENERGY     -1339.856642630201

DIPOLE MOMENT
-------------
                                X             Y             Z
Electronic contribution:      4.46404      33.26220       6.26350
Nuclear contribution   :     -4.86832     -33.96978      -6.40966
                        -----------------------------------------
Total Dipole Moment    :     -0.40428      -0.70758      -0.14616
                        -----------------------------------------
Magnitude (a.u.)       :      0.82794
Magnitude (Debye)      :      2.10445

Rotational constants in cm-1:     0.017078     0.009739     0.006421
Rotational constants in MHz :   511.970821   291.975382   192.496090

                             ****ORCA TERMINATED NORMALLY****
TOTAL RUN TIME: 0 days 0 hours 0 minutes 30 seconds 479 msec
