                         Program Version 4.2.1 -  RELEASE  -
|  1> ! wB97X-D3 SP def2-SVP
|  2> %pal
|  3> nprocs 16
|  4> end
|  5>
|  6> * xyz 0 1
|  7> S 	 -7.18877 	 13.746 	 87.764
|  8> C 	 -7.38116 	 12.8433 	 86.2677
|  9> C 	 -6.26258 	 12.106 	 86.0218
| 10> C 	 -5.29249 	 12.1444 	 87.1027
| 11> C 	 -5.73324 	 12.8944 	 88.1691
| 12> H 	 -4.39286 	 11.5834 	 87.2611
| 13> C 	 -6.19866 	 11.1076 	 84.8707
| 14> H 	 -5.94053 	 11.6757 	 83.9735
| 15> H 	 -7.16846 	 10.7847 	 84.5512
| 16> C 	 -5.14433 	 9.94262 	 85.0613
| 17> H 	 -5.05036 	 9.37532 	 84.1292
| 18> H 	 -4.21395 	 10.3345 	 85.4358
| 19> C 	 -5.57119 	 8.90825 	 86.1808
| 20> H 	 -6.53341 	 8.46023 	 85.7273
| 21> H 	 -4.8584 	 8.13734 	 86.2369
| 22> H 	 -5.83682 	 9.31788 	 87.199
| 23> S 	 -6.14565 	 12.8824 	 90.9546
| 24> C 	 -4.7787 	 13.0189 	 92.0157
| 25> C 	 -3.58089 	 13.1891 	 91.261
| 26> C 	 -3.75904 	 13.0486 	 89.8627
| 27> C 	 -5.0765 	 12.994 	 89.4709
| 28> H 	 -2.65705 	 13.3713 	 91.7227
| 29> C 	 -2.57078 	 13.2111 	 88.9361
| 30> H 	 -2.05156 	 14.1409 	 89.2509
| 31> H 	 -2.89773 	 13.4969 	 87.9373
| 32> C 	 -1.64928 	 11.9417 	 88.9273
| 33> H 	 -1.32123 	 11.7647 	 90.013
| 34> H 	 -0.704807 	 12.1601 	 88.3963
| 35> C 	 -2.04995 	 10.6746 	 88.2273
| 36> H 	 -1.9714 	 10.9101 	 87.2074
| 37> H 	 -3.01976 	 10.3175 	 88.5237
| 38> H 	 -1.28821 	 9.87069 	 88.3841
| 39> H 	 -8.27046 	 12.9174 	 85.6204
| 40> H 	 -4.87956 	 13.1283 	 93.0925
| 41> *
| 42>
| 43>                          ****END OF INPUT****

CARTESIAN COORDINATES (ANGSTROEM)
---------------------------------
  S     -7.188770   13.746000   87.764000
  C     -7.381160   12.843300   86.267700
  C     -6.262580   12.106000   86.021800
  C     -5.292490   12.144400   87.102700
  C     -5.733240   12.894400   88.169100
  H     -4.392860   11.583400   87.261100
  C     -6.198660   11.107600   84.870700
  H     -5.940530   11.675700   83.973500
  H     -7.168460   10.784700   84.551200
  C     -5.144330    9.942620   85.061300
  H     -5.050360    9.375320   84.129200
  H     -4.213950   10.334500   85.435800
  C     -5.571190    8.908250   86.180800
  H     -6.533410    8.460230   85.727300
  H     -4.858400    8.137340   86.236900
  H     -5.836820    9.317880   87.199000
  S     -6.145650   12.882400   90.954600
  C     -4.778700   13.018900   92.015700
  C     -3.580890   13.189100   91.261000
  C     -3.759040   13.048600   89.862700
  C     -5.076500   12.994000   89.470900
  H     -2.657050   13.371300   91.722700
  C     -2.570780   13.211100   88.936100
  H     -2.051560   14.140900   89.250900
  H     -2.897730   13.496900   87.937300
  C     -1.649280   11.941700   88.927300
  H     -1.321230   11.764700   90.013000
  H     -0.704807   12.160100   88.396300
  C     -2.049950   10.674600   88.227300
  H     -1.971400   10.910100   87.207400
  H     -3.019760   10.317500   88.523700
  H     -1.288210    9.870690   88.384100
  H     -8.270460   12.917400   85.620400
  H     -4.879560   13.128300   93.092500

 Total Charge           Charge          ....    0
 Multiplicity           Mult            ....    1
 Number of Electrons    NEL             ....  134
 Basis Dimension        Dim             ....  322

ORBITAL ENERGIES
----------------

  NO   OCC          E(Eh)            E(eV)
   0   2.0000     -88.965619     -2420.8776
   1   2.0000     -88.963111     -2420.8093
   2   2.0000     -10.332344      -281.1574
   3   2.0000     -10.328461      -281.0517
   4   2.0000     -10.324226      -280.9365
   5   2.0000     -10.312554      -280.6189
   6   2.0000     -10.303854      -280.3821
   7   2.0000     -10.303701      -280.3779
   8   2.0000     -10.298526      -280.2371
   9   2.0000     -10.295821      -280.1635
  10   2.0000     -10.294861      -280.1374
  11   2.0000     -10.293797      -280.1085
  12   2.0000     -10.293181      -280.0917
  13   2.0000     -10.293076      -280.0888
  14   2.0000     -10.281967      -279.7865
  15   2.0000     -10.278949      -279.7044
  16   2.0000      -8.079418      -219.8521
  17   2.0000      -8.078100      -219.8163
  18   2.0000      -6.037951      -164.3010
  19   2.0000      -6.036661      -164.2659
  20   2.0000      -6.033997      -164.1934
  21   2.0000      -6.032591      -164.1551
  22   2.0000      -6.030263      -164.0918
  23   2.0000      -6.028771      -164.0512
  24   2.0000      -1.004371       -27.3303
  25   2.0000      -0.980924       -26.6923
  26   2.0000      -0.908901       -24.7325
  27   2.0000      -0.903138       -24.5756
  28   2.0000      -0.867647       -23.6099
  29   2.0000      -0.857123       -23.3235
  30   2.0000      -0.837931       -22.8013
  31   2.0000      -0.812898       -22.1201
  32   2.0000      -0.786904       -21.4127
  33   2.0000      -0.772353       -21.0168
  34   2.0000      -0.707365       -19.2484
  35   2.0000      -0.693717       -18.8770
  36   2.0000      -0.688969       -18.7478
  37   2.0000      -0.661287       -17.9945
  38   2.0000      -0.643682       -17.5155
  39   2.0000      -0.622408       -16.9366
  40   2.0000      -0.598061       -16.2741
  41   2.0000      -0.564720       -15.3668
  42   2.0000      -0.559996       -15.2383
  43   2.0000      -0.546239       -14.8639
  44   2.0000      -0.541466       -14.7340
  45   2.0000      -0.532528       -14.4908
  46   2.0000      -0.520453       -14.1623
  47   2.0000      -0.514039       -13.9877
  48   2.0000      -0.504378       -13.7248
  49   2.0000      -0.498875       -13.5751
  50   2.0000      -0.488232       -13.2855
  51   2.0000      -0.479545       -13.0491
  52   2.0000      -0.476608       -12.9692
  53   2.0000      -0.464404       -12.6371
  54   2.0000      -0.460024       -12.5179
  55   2.0000      -0.447381       -12.1739
  56   2.0000      -0.444352       -12.0914
  57   2.0000      -0.438722       -11.9382
  58   2.0000      -0.433802       -11.8044
  59   2.0000      -0.418108       -11.3773
  60   2.0000      -0.417089       -11.3496
  61   2.0000      -0.411143       -11.1878
  62   2.0000      -0.408085       -11.1046
  63   2.0000      -0.350446        -9.5361
  64   2.0000      -0.332997        -9.0613
  65   2.0000      -0.326328        -8.8798
  66   2.0000      -0.289109        -7.8671
  67   0.0000       0.024542         0.6678
  68   0.0000       0.072429         1.9709
  69   0.0000       0.112464         3.0603
  70   0.0000       0.120450         3.2776
  71   0.0000       0.127259         3.4629

MULLIKEN ATOMIC CHARGES
-----------------------
   0 S :    0.106566
   1 C :   -0.148681
   2 C :   -0.052606
   3 C :    0.043173
   4 C :   -0.138807
   5 H :   -0.053524
   6 C :    0.080540
   7 H :    0.029535
   8 H :    0.010431
   9 C :   -0.075126
  10 H :    0.038447
  11 H :    0.032956
  12 C :   -0.092929
  13 H :    0.029787
  14 H :    0.031598
  15 H :    0.065114
  16 S :    0.094797
  17 C :   -0.095472
  18 C :   -0.017643
  19 C :   -0.028874
  20 C :   -0.151744
  21 H :    0.002215
  22 C :    0.052649
  23 H :    0.040201
  24 H :    0.021749
  25 C :   -0.123751
  26 H :    0.034919
  27 H :    0.026571
  28 C :   -0.010908
  29 H :    0.024793
  30 H :    0.052049
  31 H :    0.042678
  32 H :    0.059770
  33 H :    0.069527
Sum of atomic charges:    0.0000000

LOEWDIN ATOMIC CHARGES
----------------------
   0 S :    0.400450
   1 C :   -0.198788
   2 C :   -0.058815
   3 C :   -0.067226
   4 C :   -0.192295
   5 H :    0.025059
   6 C :   -0.033039
   7 H :    0.035264
   8 H :    0.025349
   9 C :   -0.033870
  10 H :    0.029031
  11 H :    0.017184
  12 C :   -0.072519
  13 H :    0.030381
  14 H :    0.014910
  15 H :    0.033269
  16 S :    0.381685
  17 C :   -0.184766
  18 C :   -0.064406
  19 C :   -0.059384
  20 C :   -0.173315
  21 H :    0.021368
  22 C :   -0.032960
  23 H :    0.041090
  24 H :    0.027129
  25 C :   -0.047310
  26 H :    0.026395
  27 H :    0.026410
  28 C :   -0.064186
  29 H :    0.019738
  30 H :    0.021272
  31 H :    0.039495
  32 H :    0.035737
  33 H :    0.031662

  Mayer bond orders larger than 0.100000
B(  0-S ,  1-C ) :   1.1163 B(  0-S ,  4-C ) :   1.1543 B(  1-C ,  2-C ) :   1.6327
B(  1-C , 32-H ) :   0.9709 B(  2-C ,  3-C ) :   1.2087 B(  2-C ,  6-C ) :   1.0082
B(  3-C ,  4-C ) :   1.5874 B(  3-C ,  5-H ) :   0.9876 B(  4-C , 20-C ) :   1.0496
B(  6-C ,  7-H ) :   0.9259 B(  6-C ,  8-H ) :   0.9484 B(  6-C ,  9-C ) :   1.0763
B(  9-C , 10-H ) :   0.9568 B(  9-C , 11-H ) :   0.9545 B(  9-C , 12-C ) :   1.0648
B( 12-C , 13-H ) :   0.9772 B( 12-C , 14-H ) :   0.9771 B( 12-C , 15-H ) :   0.9743
B( 16-S , 17-C ) :   1.1713 B( 16-S , 20-C ) :   1.1182 B( 17-C , 18-C ) :   1.5730
B( 17-C , 20-C ) :   0.1085 B( 17-C , 33-H ) :   0.9678 B( 18-C , 19-C ) :   1.2487
B( 18-C , 21-H ) :   0.9944 B( 19-C , 20-C ) :   1.5952 B( 19-C , 22-C ) :   1.0323
B( 22-C , 23-H ) :   0.9400 B( 22-C , 24-H ) :   0.9400 B( 22-C , 25-C ) :   1.0556
B( 25-C , 26-H ) :   0.9586 B( 25-C , 27-H ) :   0.9563 B( 25-C , 28-C ) :   1.0914
B( 28-C , 29-H ) :   0.9643 B( 28-C , 30-H ) :   0.9583 B( 28-C , 31-H ) :   0.9632

Dispersion correction           -0.015876316
FINAL SINGLE POINT ENERGY     -1339.874285139850

DIPOLE MOMENT
-------------
                                X             Y             Z
Electronic contribution:    -17.46342      17.88705      14.04451
Nuclear contribution   :     18.03237     -18.16536     -14.36678
                        -----------------------------------------
Total Dipole Moment    :      0.56894      -0.27831      -0.32228
                        -----------------------------------------
Magnitude (a.u.)       :      0.71065
Magnitude (Debye)      :      1.80632

Rotational constants in cm-1:     0.017429     0.010757     0.007798
Rotational constants in MHz :   522.513753   322.498076   233.766399

                             ****ORCA TERMINATED NORMALLY****
TOTAL RUN TIME: 0 days 0 hours 0 minutes 35 seconds 436 msec
