                         Program Version 4.2.1 -  RELEASE  -
|  1> ! wB97X-D3 SP def2-SVP
|  2> %pal
|  3> nprocs 16
|  4> end
|  5>
|  6> * xyz 0 1
|  7> S 	 -47.8074 	 66.3202 	 131.35
|  8> C 	 -47.7994 	 64.5688 	 131.198
|  9> C 	 -46.9394 	 64.0011 	 132.141
| 10> C 	 -46.4549 	 65.0066 	 133.049
| 11> C 	 -46.9008 	 66.2848 	 132.791
| 12> H 	 -45.6986 	 64.9523 	 133.806
| 13> C 	 -46.4011 	 62.5311 	 132.223
| 14> H 	 -47.2118 	 61.8712 	 132.428
| 15> H 	 -45.6884 	 62.557 	 132.991
| 16> C 	 -45.7086 	 61.9273 	 130.98
| 17> H 	 -45.411 	 60.9435 	 131.267
| 18> H 	 -46.3889 	 61.7891 	 130.157
| 19> C 	 -44.4041 	 62.6025 	 130.395
| 20> H 	 -44.2117 	 61.9981 	 129.526
| 21> H 	 -44.5776 	 63.6136 	 129.913
| 22> H 	 -43.5491 	 62.84 	 131.096
| 23> S 	 -45.8908 	 68.8922 	 132.453
| 24> C 	 -45.1464 	 69.631 	 133.888
| 25> C 	 -45.4866 	 69.0035 	 135.037
| 26> C 	 -46.0044 	 67.7134 	 134.786
| 27> C 	 -46.4067 	 67.4755 	 133.488
| 28> H 	 -45.3 	 69.4666 	 135.957
| 29> C 	 -46.2517 	 66.7058 	 135.942
| 30> H 	 -45.7651 	 67.2035 	 136.834
| 31> H 	 -45.7002 	 65.7259 	 135.815
| 32> C 	 -47.6727 	 66.2906 	 136.184
| 33> H 	 -47.9968 	 65.9969 	 135.183
| 34> H 	 -48.3142 	 67.0907 	 136.402
| 35> C 	 -47.7777 	 65.2057 	 137.266
| 36> H 	 -48.8329 	 65.1808 	 137.574
| 37> H 	 -47.3346 	 65.4159 	 138.244
| 38> H 	 -47.5934 	 64.2455 	 136.787
| 39> H 	 -48.1487 	 64.0095 	 130.427
| 40> H 	 -44.7441 	 70.6209 	 133.764
| 41> *
| 42>
| 43>                          ****END OF INPUT****

CARTESIAN COORDINATES (ANGSTROEM)
---------------------------------
  S    -47.807400   66.320200  131.350000
  C    -47.799400   64.568800  131.198000
  C    -46.939400   64.001100  132.141000
  C    -46.454900   65.006600  133.049000
  C    -46.900800   66.284800  132.791000
  H    -45.698600   64.952300  133.806000
  C    -46.401100   62.531100  132.223000
  H    -47.211800   61.871200  132.428000
  H    -45.688400   62.557000  132.991000
  C    -45.708600   61.927300  130.980000
  H    -45.411000   60.943500  131.267000
  H    -46.388900   61.789100  130.157000
  C    -44.404100   62.602500  130.395000
  H    -44.211700   61.998100  129.526000
  H    -44.577600   63.613600  129.913000
  H    -43.549100   62.840000  131.096000
  S    -45.890800   68.892200  132.453000
  C    -45.146400   69.631000  133.888000
  C    -45.486600   69.003500  135.037000
  C    -46.004400   67.713400  134.786000
  C    -46.406700   67.475500  133.488000
  H    -45.300000   69.466600  135.957000
  C    -46.251700   66.705800  135.942000
  H    -45.765100   67.203500  136.834000
  H    -45.700200   65.725900  135.815000
  C    -47.672700   66.290600  136.184000
  H    -47.996800   65.996900  135.183000
  H    -48.314200   67.090700  136.402000
  C    -47.777700   65.205700  137.266000
  H    -48.832900   65.180800  137.574000
  H    -47.334600   65.415900  138.244000
  H    -47.593400   64.245500  136.787000
  H    -48.148700   64.009500  130.427000
  H    -44.744100   70.620900  133.764000

 Total Charge           Charge          ....    0
 Multiplicity           Mult            ....    1
 Number of Electrons    NEL             ....  134
 Basis Dimension        Dim             ....  322

ORBITAL ENERGIES
----------------

  NO   OCC          E(Eh)            E(eV)
   0   2.0000     -88.969590     -2420.9856
   1   2.0000     -88.961477     -2420.7649
   2   2.0000     -10.332899      -281.1725
   3   2.0000     -10.327449      -281.0242
   4   2.0000     -10.318147      -280.7710
   5   2.0000     -10.310044      -280.5506
   6   2.0000     -10.307502      -280.4814
   7   2.0000     -10.305694      -280.4322
   8   2.0000     -10.296522      -280.1826
   9   2.0000     -10.293006      -280.0869
  10   2.0000     -10.291984      -280.0591
  11   2.0000     -10.290246      -280.0118
  12   2.0000     -10.290048      -280.0064
  13   2.0000     -10.285334      -279.8782
  14   2.0000     -10.277513      -279.6654
  15   2.0000     -10.274436      -279.5816
  16   2.0000      -8.084702      -219.9959
  17   2.0000      -8.075364      -219.7418
  18   2.0000      -6.043221      -164.4444
  19   2.0000      -6.039169      -164.3341
  20   2.0000      -6.035421      -164.2321
  21   2.0000      -6.033997      -164.1934
  22   2.0000      -6.030187      -164.0897
  23   2.0000      -6.025853      -163.9718
  24   2.0000      -1.007965       -27.4281
  25   2.0000      -0.983675       -26.7672
  26   2.0000      -0.908173       -24.7126
  27   2.0000      -0.906539       -24.6682
  28   2.0000      -0.869879       -23.6706
  29   2.0000      -0.850312       -23.1382
  30   2.0000      -0.842924       -22.9371
  31   2.0000      -0.814220       -22.1561
  32   2.0000      -0.786975       -21.4147
  33   2.0000      -0.774024       -21.0623
  34   2.0000      -0.711656       -19.3651
  35   2.0000      -0.703557       -19.1448
  36   2.0000      -0.688863       -18.7449
  37   2.0000      -0.667378       -18.1603
  38   2.0000      -0.644704       -17.5433
  39   2.0000      -0.612308       -16.6617
  40   2.0000      -0.598132       -16.2760
  41   2.0000      -0.575138       -15.6503
  42   2.0000      -0.567760       -15.4495
  43   2.0000      -0.554568       -15.0906
  44   2.0000      -0.537085       -14.6148
  45   2.0000      -0.521823       -14.1995
  46   2.0000      -0.517195       -14.0736
  47   2.0000      -0.514439       -13.9986
  48   2.0000      -0.502023       -13.6607
  49   2.0000      -0.499752       -13.5990
  50   2.0000      -0.491246       -13.3675
  51   2.0000      -0.479642       -13.0517
  52   2.0000      -0.477947       -13.0056
  53   2.0000      -0.462690       -12.5904
  54   2.0000      -0.456665       -12.4265
  55   2.0000      -0.450912       -12.2699
  56   2.0000      -0.441816       -12.0224
  57   2.0000      -0.434156       -11.8140
  58   2.0000      -0.429609       -11.6903
  59   2.0000      -0.427068       -11.6211
  60   2.0000      -0.414006       -11.2657
  61   2.0000      -0.412525       -11.2254
  62   2.0000      -0.408285       -11.1100
  63   2.0000      -0.354786        -9.6542
  64   2.0000      -0.334197        -9.0940
  65   2.0000      -0.329041        -8.9537
  66   2.0000      -0.287588        -7.8257
  67   0.0000       0.022390         0.6093
  68   0.0000       0.066224         1.8021
  69   0.0000       0.106548         2.8993
  70   0.0000       0.121095         3.2952
  71   0.0000       0.128509         3.4969

MULLIKEN ATOMIC CHARGES
-----------------------
   0 S :    0.112730
   1 C :   -0.072068
   2 C :   -0.094840
   3 C :   -0.007343
   4 C :   -0.126100
   5 H :    0.003015
   6 C :    0.133307
   7 H :    0.033718
   8 H :    0.005868
   9 C :   -0.079635
  10 H :    0.024562
  11 H :    0.023297
  12 C :   -0.087559
  13 H :    0.033561
  14 H :    0.038276
  15 H :    0.050851
  16 S :    0.063365
  17 C :   -0.092006
  18 C :    0.013234
  19 C :   -0.049076
  20 C :   -0.119594
  21 H :    0.005833
  22 C :    0.005404
  23 H :    0.017923
  24 H :    0.037119
  25 C :   -0.044087
  26 H :    0.034616
  27 H :    0.010347
  28 C :   -0.037053
  29 H :    0.022007
  30 H :    0.037492
  31 H :    0.040408
  32 H :    0.004270
  33 H :    0.058157
Sum of atomic charges:   -0.0000000

LOEWDIN ATOMIC CHARGES
----------------------
   0 S :    0.427991
   1 C :   -0.186392
   2 C :   -0.050234
   3 C :   -0.070695
   4 C :   -0.210382
   5 H :    0.025932
   6 C :   -0.018275
   7 H :    0.032907
   8 H :    0.022482
   9 C :   -0.036206
  10 H :    0.023113
  11 H :    0.020697
  12 C :   -0.080068
  13 H :    0.026373
  14 H :    0.030826
  15 H :    0.032490
  16 S :    0.347454
  17 C :   -0.157102
  18 C :   -0.062787
  19 C :   -0.056291
  20 C :   -0.166536
  21 H :    0.028219
  22 C :   -0.037217
  23 H :    0.027456
  24 H :    0.032509
  25 C :   -0.043130
  26 H :    0.030188
  27 H :    0.015000
  28 C :   -0.068387
  29 H :    0.030385
  30 H :    0.029088
  31 H :    0.029226
  32 H :    0.007370
  33 H :    0.023996

  Mayer bond orders larger than 0.100000
B(  0-S ,  1-C ) :   1.1390 B(  0-S ,  4-C ) :   1.1604 B(  1-C ,  2-C ) :   1.5988
B(  1-C , 32-H ) :   0.9823 B(  2-C ,  3-C ) :   1.2535 B(  2-C ,  6-C ) :   1.0053
B(  3-C ,  4-C ) :   1.5510 B(  3-C ,  5-H ) :   0.9917 B(  4-C , 20-C ) :   1.0519
B(  6-C ,  7-H ) :   0.9350 B(  6-C ,  8-H ) :   0.9430 B(  6-C ,  9-C ) :   1.0824
B(  9-C , 10-H ) :   0.9549 B(  9-C , 11-H ) :   0.9565 B(  9-C , 12-C ) :   1.0670
B( 12-C , 13-H ) :   0.9737 B( 12-C , 14-H ) :   0.9747 B( 12-C , 15-H ) :   0.9768
B( 16-S , 17-C ) :   1.1503 B( 16-S , 20-C ) :   1.1003 B( 17-C , 18-C ) :   1.6310
B( 17-C , 33-H ) :   0.9637 B( 18-C , 19-C ) :   1.2176 B( 18-C , 21-H ) :   0.9969
B( 19-C , 20-C ) :   1.6340 B( 19-C , 22-C ) :   1.0265 B( 22-C , 23-H ) :   0.9336
B( 22-C , 24-H ) :   0.9377 B( 22-C , 25-C ) :   1.0595 B( 25-C , 26-H ) :   0.9483
B( 25-C , 27-H ) :   0.9538 B( 25-C , 28-C ) :   1.0839 B( 28-C , 29-H ) :   0.9717
B( 28-C , 30-H ) :   0.9740 B( 28-C , 31-H ) :   0.9726

Dispersion correction           -0.014476572
FINAL SINGLE POINT ENERGY     -1339.852585811508

DIPOLE MOMENT
-------------
                                X             Y             Z
Electronic contribution:     -3.94260      22.07942     -10.84360
Nuclear contribution   :      4.14189     -22.50267      11.18472
                        -----------------------------------------
Total Dipole Moment    :      0.19930      -0.42325       0.34113
                        -----------------------------------------
Magnitude (a.u.)       :      0.57899
Magnitude (Debye)      :      1.47168

Rotational constants in cm-1:     0.017639     0.009012     0.007231
Rotational constants in MHz :   528.800551   270.183842   216.771177

                             ****ORCA TERMINATED NORMALLY****
TOTAL RUN TIME: 0 days 0 hours 0 minutes 35 seconds 978 msec
