                         Program Version 4.2.1 -  RELEASE  -
|  1> ! wB97X-D3 SP def2-SVP
|  2> %pal
|  3> nprocs 16
|  4> end
|  5>
|  6> * xyz 0 1
|  7> S 	 -46.2788 	 54.8673 	 100.222
|  8> C 	 -47.7734 	 54.5068 	 101.092
|  9> C 	 -48.8559 	 55.2479 	 100.651
| 10> C 	 -48.4236 	 56.1854 	 99.6321
| 11> C 	 -47.0967 	 56.0108 	 99.1764
| 12> H 	 -49.03 	 56.9663 	 99.1998
| 13> C 	 -50.3507 	 55.1628 	 101.066
| 14> H 	 -50.7103 	 56.1343 	 101.174
| 15> H 	 -50.3111 	 54.7605 	 102.053
| 16> C 	 -51.2811 	 54.4111 	 100.105
| 17> H 	 -51.3562 	 54.9013 	 99.1321
| 18> H 	 -50.9553 	 53.4181 	 99.9332
| 19> C 	 -52.7223 	 54.2337 	 100.706
| 20> H 	 -52.5974 	 53.8556 	 101.814
| 21> H 	 -53.2347 	 55.197 	 100.441
| 22> H 	 -53.4346 	 53.5234 	 100.222
| 23> S 	 -44.8522 	 57.6123 	 98.6748
| 24> C 	 -44.8456 	 58.7042 	 97.3024
| 25> C 	 -45.8623 	 58.3737 	 96.4771
| 26> C 	 -46.7935 	 57.4232 	 96.9848
| 27> C 	 -46.4752 	 56.909 	 98.2618
| 28> H 	 -45.8113 	 58.7753 	 95.4771
| 29> C 	 -48.0123 	 56.9402 	 96.1475
| 30> H 	 -48.3766 	 57.8331 	 95.5763
| 31> H 	 -48.7712 	 56.7508 	 96.843
| 32> C 	 -48.0121 	 55.6561 	 95.2963
| 33> H 	 -47.2952 	 55.7983 	 94.4749
| 34> H 	 -49.0163 	 55.534 	 94.8138
| 35> C 	 -47.5884 	 54.3522 	 96.0184
| 36> H 	 -48.0416 	 54.3389 	 97.0362
| 37> H 	 -46.4526 	 54.2167 	 96.1086
| 38> H 	 -47.9034 	 53.4925 	 95.4708
| 39> H 	 -47.8442 	 53.5944 	 101.733
| 40> H 	 -44.0594 	 59.4026 	 97.0817
| 41> *
| 42>
| 43>                          ****END OF INPUT****

CARTESIAN COORDINATES (ANGSTROEM)
---------------------------------
  S    -46.278800   54.867300  100.222000
  C    -47.773400   54.506800  101.092000
  C    -48.855900   55.247900  100.651000
  C    -48.423600   56.185400   99.632100
  C    -47.096700   56.010800   99.176400
  H    -49.030000   56.966300   99.199800
  C    -50.350700   55.162800  101.066000
  H    -50.710300   56.134300  101.174000
  H    -50.311100   54.760500  102.053000
  C    -51.281100   54.411100  100.105000
  H    -51.356200   54.901300   99.132100
  H    -50.955300   53.418100   99.933200
  C    -52.722300   54.233700  100.706000
  H    -52.597400   53.855600  101.814000
  H    -53.234700   55.197000  100.441000
  H    -53.434600   53.523400  100.222000
  S    -44.852200   57.612300   98.674800
  C    -44.845600   58.704200   97.302400
  C    -45.862300   58.373700   96.477100
  C    -46.793500   57.423200   96.984800
  C    -46.475200   56.909000   98.261800
  H    -45.811300   58.775300   95.477100
  C    -48.012300   56.940200   96.147500
  H    -48.376600   57.833100   95.576300
  H    -48.771200   56.750800   96.843000
  C    -48.012100   55.656100   95.296300
  H    -47.295200   55.798300   94.474900
  H    -49.016300   55.534000   94.813800
  C    -47.588400   54.352200   96.018400
  H    -48.041600   54.338900   97.036200
  H    -46.452600   54.216700   96.108600
  H    -47.903400   53.492500   95.470800
  H    -47.844200   53.594400  101.733000
  H    -44.059400   59.402600   97.081700

 Total Charge           Charge          ....    0
 Multiplicity           Mult            ....    1
 Number of Electrons    NEL             ....  134
 Basis Dimension        Dim             ....  322

ORBITAL ENERGIES
----------------

  NO   OCC          E(Eh)            E(eV)
   0   2.0000     -88.971420     -2421.0354
   1   2.0000     -88.960002     -2420.7247
   2   2.0000     -10.335047      -281.2309
   3   2.0000     -10.334743      -281.2227
   4   2.0000     -10.322882      -280.8999
   5   2.0000     -10.315733      -280.7054
   6   2.0000     -10.310084      -280.5517
   7   2.0000     -10.309929      -280.5474
   8   2.0000     -10.299090      -280.2525
   9   2.0000     -10.297154      -280.1998
  10   2.0000     -10.293887      -280.1109
  11   2.0000     -10.290234      -280.0115
  12   2.0000     -10.290100      -280.0078
  13   2.0000     -10.290036      -280.0061
  14   2.0000     -10.289935      -280.0034
  15   2.0000     -10.277088      -279.6538
  16   2.0000      -8.085601      -220.0204
  17   2.0000      -8.074152      -219.7089
  18   2.0000      -6.044282      -164.4733
  19   2.0000      -6.040140      -164.3606
  20   2.0000      -6.036255      -164.2549
  21   2.0000      -6.032782      -164.1603
  22   2.0000      -6.028741      -164.0504
  23   2.0000      -6.024801      -163.9432
  24   2.0000      -1.002471       -27.2786
  25   2.0000      -0.979873       -26.6637
  26   2.0000      -0.911590       -24.8056
  27   2.0000      -0.899169       -24.4676
  28   2.0000      -0.873405       -23.7666
  29   2.0000      -0.847418       -23.0594
  30   2.0000      -0.838078       -22.8053
  31   2.0000      -0.811190       -22.0736
  32   2.0000      -0.782059       -21.2809
  33   2.0000      -0.772719       -21.0268
  34   2.0000      -0.710362       -19.3299
  35   2.0000      -0.701198       -19.0806
  36   2.0000      -0.688990       -18.7484
  37   2.0000      -0.657167       -17.8824
  38   2.0000      -0.639264       -17.3952
  39   2.0000      -0.618033       -16.8175
  40   2.0000      -0.592481       -16.1222
  41   2.0000      -0.576141       -15.6776
  42   2.0000      -0.564146       -15.3512
  43   2.0000      -0.546990       -14.8844
  44   2.0000      -0.538504       -14.6534
  45   2.0000      -0.521945       -14.2028
  46   2.0000      -0.514980       -14.0133
  47   2.0000      -0.509421       -13.8621
  48   2.0000      -0.508133       -13.8270
  49   2.0000      -0.497141       -13.5279
  50   2.0000      -0.492956       -13.4140
  51   2.0000      -0.473680       -12.8895
  52   2.0000      -0.469297       -12.7702
  53   2.0000      -0.463682       -12.6174
  54   2.0000      -0.460297       -12.5253
  55   2.0000      -0.444306       -12.0902
  56   2.0000      -0.439805       -11.9677
  57   2.0000      -0.436959       -11.8903
  58   2.0000      -0.434287       -11.8176
  59   2.0000      -0.428136       -11.6502
  60   2.0000      -0.410974       -11.1832
  61   2.0000      -0.408679       -11.1207
  62   2.0000      -0.406941       -11.0734
  63   2.0000      -0.356000        -9.6873
  64   2.0000      -0.333250        -9.0682
  65   2.0000      -0.326750        -8.8913
  66   2.0000      -0.285839        -7.7781
  67   0.0000       0.019403         0.5280
  68   0.0000       0.066652         1.8137
  69   0.0000       0.106442         2.8964
  70   0.0000       0.118590         3.2270
  71   0.0000       0.129230         3.5165

MULLIKEN ATOMIC CHARGES
-----------------------
   0 S :    0.112589
   1 C :   -0.146997
   2 C :   -0.084978
   3 C :   -0.001076
   4 C :   -0.145653
   5 H :    0.024195
   6 C :    0.122450
   7 H :    0.011328
   8 H :    0.010803
   9 C :   -0.046074
  10 H :    0.031528
  11 H :    0.022509
  12 C :   -0.121614
  13 H :    0.058325
  14 H :    0.042843
  15 H :    0.043115
  16 S :    0.075967
  17 C :   -0.087586
  18 C :   -0.028485
  19 C :   -0.048986
  20 C :   -0.139467
  21 H :    0.019855
  22 C :    0.081331
  23 H :    0.028758
  24 H :   -0.008596
  25 C :   -0.063551
  26 H :    0.023331
  27 H :    0.038623
  28 C :   -0.074708
  29 H :    0.045886
  30 H :    0.049150
  31 H :    0.027186
  32 H :    0.069820
  33 H :    0.058178
Sum of atomic charges:   -0.0000000

LOEWDIN ATOMIC CHARGES
----------------------
   0 S :    0.402825
   1 C :   -0.198950
   2 C :   -0.057998
   3 C :   -0.055613
   4 C :   -0.198286
   5 H :    0.027724
   6 C :   -0.018840
   7 H :    0.024863
   8 H :    0.027457
   9 C :   -0.036958
  10 H :    0.025153
  11 H :    0.017912
  12 C :   -0.086224
  13 H :    0.040475
  14 H :    0.030996
  15 H :    0.028045
  16 S :    0.368381
  17 C :   -0.174413
  18 C :   -0.078952
  19 C :   -0.055612
  20 C :   -0.172855
  21 H :    0.033665
  22 C :   -0.036680
  23 H :    0.035858
  24 H :    0.017462
  25 C :   -0.042055
  26 H :    0.020379
  27 H :    0.031257
  28 C :   -0.073518
  29 H :    0.028687
  30 H :    0.036416
  31 H :    0.021002
  32 H :    0.037102
  33 H :    0.031295

  Mayer bond orders larger than 0.100000
B(  0-S ,  1-C ) :   1.1338 B(  0-S ,  4-C ) :   1.1371 B(  1-C ,  2-C ) :   1.6234
B(  1-C , 32-H ) :   0.9577 B(  2-C ,  3-C ) :   1.2378 B(  2-C ,  6-C ) :   1.0183
B(  3-C ,  4-C ) :   1.5512 B(  3-C ,  5-H ) :   0.9856 B(  4-C , 20-C ) :   1.1038
B(  6-C ,  7-H ) :   0.9363 B(  6-C ,  8-H ) :   0.9366 B(  6-C ,  9-C ) :   1.0616
B(  9-C , 10-H ) :   0.9581 B(  9-C , 11-H ) :   0.9589 B(  9-C , 12-C ) :   1.0665
B( 12-C , 13-H ) :   0.9723 B( 12-C , 14-H ) :   0.9777 B( 12-C , 15-H ) :   0.9768
B( 16-S , 17-C ) :   1.1496 B( 16-S , 20-C ) :   1.1130 B( 17-C , 18-C ) :   1.6119
B( 17-C , 20-C ) :   0.1022 B( 17-C , 33-H ) :   0.9684 B( 18-C , 19-C ) :   1.2444
B( 18-C , 21-H ) :   0.9924 B( 19-C , 20-C ) :   1.5734 B( 19-C , 22-C ) :   1.0302
B( 22-C , 23-H ) :   0.9367 B( 22-C , 24-H ) :   0.9283 B( 22-C , 25-C ) :   1.0725
B( 25-C , 26-H ) :   0.9566 B( 25-C , 27-H ) :   0.9536 B( 25-C , 28-C ) :   1.0724
B( 28-C , 29-H ) :   0.9753 B( 28-C , 30-H ) :   0.9733 B( 28-C , 31-H ) :   0.9729

Dispersion correction           -0.014835246
FINAL SINGLE POINT ENERGY     -1339.860534973924

DIPOLE MOMENT
-------------
                                X             Y             Z
Electronic contribution:     26.74396       9.33278       7.59704
Nuclear contribution   :    -27.39650      -9.41687      -7.91797
                        -----------------------------------------
Total Dipole Moment    :     -0.65254      -0.08409      -0.32093
                        -----------------------------------------
Magnitude (a.u.)       :      0.73204
Magnitude (Debye)      :      1.86069

Rotational constants in cm-1:     0.020097     0.008412     0.006969
Rotational constants in MHz :   602.481817   252.171256   208.938353

                             ****ORCA TERMINATED NORMALLY****
TOTAL RUN TIME: 0 days 0 hours 0 minutes 30 seconds 816 msec
