                         Program Version 4.2.1 -  RELEASE  -
|  1> ! wB97X-D3 SP def2-SVP
|  2> %pal
|  3> nprocs 16
|  4> end
|  5>
|  6> * xyz 0 1
|  7> S 	 14.9868 	 21.6274 	 40.8493
|  8> C 	 15.8455 	 21.5753 	 39.3266
|  9> C 	 15.7152 	 20.414 	 38.5767
| 10> C 	 14.6545 	 19.6811 	 39.243
| 11> C 	 14.077 	 20.24 	 40.3955
| 12> H 	 14.209 	 18.7415 	 38.9373
| 13> C 	 16.3302 	 20.0675 	 37.2507
| 14> H 	 17.1226 	 19.2941 	 37.5618
| 15> H 	 16.7614 	 20.9551 	 36.7591
| 16> C 	 15.4248 	 19.4449 	 36.192
| 17> H 	 15.8154 	 19.4101 	 35.0988
| 18> H 	 15.3364 	 18.3566 	 36.5371
| 19> C 	 14.0765 	 20.1646 	 36.0784
| 20> H 	 13.3974 	 20.1075 	 36.9441
| 21> H 	 14.2909 	 21.2459 	 35.9086
| 22> H 	 13.457 	 19.7376 	 35.1591
| 23> S 	 13.0783 	 19.3286 	 42.7651
| 24> C 	 11.4783 	 18.6158 	 42.8901
| 25> C 	 10.8494 	 18.746 	 41.6512
| 26> C 	 11.6534 	 19.3685 	 40.6116
| 27> C 	 12.9012 	 19.708 	 41.0753
| 28> H 	 9.84256 	 18.2997 	 41.4114
| 29> C 	 11.0508 	 19.6219 	 39.2319
| 30> H 	 10.0617 	 19.2047 	 39.145
| 31> H 	 11.7557 	 19.2013 	 38.5588
| 32> C 	 10.9145 	 21.1424 	 38.9173
| 33> H 	 10.6236 	 21.3857 	 37.8724
| 34> H 	 11.9102 	 21.5527 	 38.9094
| 35> C 	 10.165 	 21.972 	 39.9344
| 36> H 	 10.5621 	 21.6584 	 40.8733
| 37> H 	 9.13668 	 21.6847 	 39.913
| 38> H 	 10.1881 	 23.0307 	 39.8538
| 39> H 	 16.6731 	 22.3006 	 39.1989
| 40> H 	 10.9267 	 18.2189 	 43.7917
| 41> *
| 42>
| 43>                          ****END OF INPUT****

CARTESIAN COORDINATES (ANGSTROEM)
---------------------------------
  S     14.986800   21.627400   40.849300
  C     15.845500   21.575300   39.326600
  C     15.715200   20.414000   38.576700
  C     14.654500   19.681100   39.243000
  C     14.077000   20.240000   40.395500
  H     14.209000   18.741500   38.937300
  C     16.330200   20.067500   37.250700
  H     17.122600   19.294100   37.561800
  H     16.761400   20.955100   36.759100
  C     15.424800   19.444900   36.192000
  H     15.815400   19.410100   35.098800
  H     15.336400   18.356600   36.537100
  C     14.076500   20.164600   36.078400
  H     13.397400   20.107500   36.944100
  H     14.290900   21.245900   35.908600
  H     13.457000   19.737600   35.159100
  S     13.078300   19.328600   42.765100
  C     11.478300   18.615800   42.890100
  C     10.849400   18.746000   41.651200
  C     11.653400   19.368500   40.611600
  C     12.901200   19.708000   41.075300
  H      9.842560   18.299700   41.411400
  C     11.050800   19.621900   39.231900
  H     10.061700   19.204700   39.145000
  H     11.755700   19.201300   38.558800
  C     10.914500   21.142400   38.917300
  H     10.623600   21.385700   37.872400
  H     11.910200   21.552700   38.909400
  C     10.165000   21.972000   39.934400
  H     10.562100   21.658400   40.873300
  H      9.136680   21.684700   39.913000
  H     10.188100   23.030700   39.853800
  H     16.673100   22.300600   39.198900
  H     10.926700   18.218900   43.791700

 Total Charge           Charge          ....    0
 Multiplicity           Mult            ....    1
 Number of Electrons    NEL             ....  134
 Basis Dimension        Dim             ....  322

ORBITAL ENERGIES
----------------

  NO   OCC          E(Eh)            E(eV)
   0   2.0000     -88.969262     -2420.9767
   1   2.0000     -88.966627     -2420.9050
   2   2.0000     -10.329263      -281.0735
   3   2.0000     -10.327871      -281.0356
   4   2.0000     -10.325967      -280.9838
   5   2.0000     -10.319365      -280.8042
   6   2.0000     -10.311932      -280.6019
   7   2.0000     -10.306855      -280.4638
   8   2.0000     -10.305427      -280.4249
   9   2.0000     -10.303810      -280.3809
  10   2.0000     -10.301010      -280.3047
  11   2.0000     -10.298612      -280.2395
  12   2.0000     -10.292210      -280.0653
  13   2.0000     -10.290842      -280.0280
  14   2.0000     -10.279215      -279.7117
  15   2.0000     -10.260300      -279.1969
  16   2.0000      -8.084527      -219.9912
  17   2.0000      -8.081397      -219.9060
  18   2.0000      -6.042893      -164.4355
  19   2.0000      -6.040064      -164.3585
  20   2.0000      -6.039089      -164.3320
  21   2.0000      -6.035752      -164.2412
  22   2.0000      -6.035274      -164.2282
  23   2.0000      -6.032118      -164.1423
  24   2.0000      -1.009338       -27.4655
  25   2.0000      -0.985966       -26.8295
  26   2.0000      -0.917435       -24.9647
  27   2.0000      -0.908344       -24.7173
  28   2.0000      -0.868457       -23.6319
  29   2.0000      -0.848022       -23.0758
  30   2.0000      -0.842256       -22.9189
  31   2.0000      -0.810597       -22.0575
  32   2.0000      -0.786043       -21.3893
  33   2.0000      -0.775968       -21.1152
  34   2.0000      -0.706477       -19.2242
  35   2.0000      -0.692914       -18.8552
  36   2.0000      -0.684405       -18.6236
  37   2.0000      -0.661171       -17.9914
  38   2.0000      -0.640190       -17.4205
  39   2.0000      -0.619355       -16.8535
  40   2.0000      -0.586771       -15.9669
  41   2.0000      -0.564314       -15.3558
  42   2.0000      -0.561039       -15.2666
  43   2.0000      -0.552807       -15.0426
  44   2.0000      -0.547544       -14.8994
  45   2.0000      -0.542749       -14.7690
  46   2.0000      -0.510885       -13.9019
  47   2.0000      -0.505925       -13.7669
  48   2.0000      -0.502432       -13.6719
  49   2.0000      -0.497167       -13.5286
  50   2.0000      -0.492684       -13.4066
  51   2.0000      -0.476134       -12.9563
  52   2.0000      -0.468929       -12.7602
  53   2.0000      -0.466646       -12.6981
  54   2.0000      -0.461333       -12.5535
  55   2.0000      -0.448484       -12.2039
  56   2.0000      -0.442683       -12.0460
  57   2.0000      -0.433636       -11.7998
  58   2.0000      -0.431405       -11.7391
  59   2.0000      -0.425232       -11.5712
  60   2.0000      -0.417808       -11.3691
  61   2.0000      -0.409660       -11.1474
  62   2.0000      -0.405796       -11.0423
  63   2.0000      -0.343498        -9.3470
  64   2.0000      -0.332133        -9.0378
  65   2.0000      -0.329509        -8.9664
  66   2.0000      -0.297169        -8.0864
  67   0.0000       0.030790         0.8378
  68   0.0000       0.064584         1.7574
  69   0.0000       0.106928         2.9097
  70   0.0000       0.120115         3.2685
  71   0.0000       0.124148         3.3782

MULLIKEN ATOMIC CHARGES
-----------------------
   0 S :    0.124369
   1 C :   -0.145776
   2 C :   -0.066459
   3 C :    0.005996
   4 C :   -0.163614
   5 H :    0.008750
   6 C :    0.060662
   7 H :    0.065155
   8 H :    0.037138
   9 C :   -0.125704
  10 H :    0.059235
  11 H :    0.039388
  12 C :   -0.091664
  13 H :    0.045707
  14 H :    0.038239
  15 H :    0.049500
  16 S :    0.106244
  17 C :   -0.107068
  18 C :   -0.062581
  19 C :   -0.096328
  20 C :   -0.164239
  21 H :    0.038524
  22 C :    0.160042
  23 H :    0.016862
  24 H :    0.014574
  25 C :   -0.109556
  26 H :    0.024168
  27 H :    0.027221
  28 C :   -0.001095
  29 H :    0.030144
  30 H :    0.008994
  31 H :    0.030669
  32 H :    0.058155
  33 H :    0.084348
Sum of atomic charges:    0.0000000

LOEWDIN ATOMIC CHARGES
----------------------
   0 S :    0.418425
   1 C :   -0.195568
   2 C :   -0.062341
   3 C :   -0.058632
   4 C :   -0.216516
   5 H :    0.024639
   6 C :   -0.040784
   7 H :    0.051518
   8 H :    0.034639
   9 C :   -0.060456
  10 H :    0.041667
  11 H :    0.027207
  12 C :   -0.080775
  13 H :    0.022999
  14 H :    0.029767
  15 H :    0.037913
  16 S :    0.409732
  17 C :   -0.201344
  18 C :   -0.080056
  19 C :   -0.059461
  20 C :   -0.203363
  21 H :    0.037583
  22 C :   -0.015984
  23 H :    0.027398
  24 H :    0.027356
  25 C :   -0.044198
  26 H :    0.022785
  27 H :    0.020743
  28 C :   -0.057974
  29 H :    0.025071
  30 H :    0.017467
  31 H :    0.023942
  32 H :    0.027228
  33 H :    0.049374

  Mayer bond orders larger than 0.100000
B(  0-S ,  1-C ) :   1.1589 B(  0-S ,  4-C ) :   1.1440 B(  1-C ,  2-C ) :   1.6085
B(  1-C , 32-H ) :   0.9568 B(  2-C ,  3-C ) :   1.2211 B(  2-C ,  6-C ) :   1.0140
B(  3-C ,  4-C ) :   1.5881 B(  3-C ,  5-H ) :   0.9899 B(  4-C , 20-C ) :   1.0287
B(  6-C ,  7-H ) :   0.9328 B(  6-C ,  8-H ) :   0.9481 B(  6-C ,  9-C ) :   1.0622
B(  9-C , 10-H ) :   0.9594 B(  9-C , 11-H ) :   0.9466 B(  9-C , 12-C ) :   1.0746
B( 12-C , 13-H ) :   0.9667 B( 12-C , 14-H ) :   0.9698 B( 12-C , 15-H ) :   0.9727
B( 16-S , 17-C ) :   1.1480 B( 16-S , 20-C ) :   1.1454 B( 17-C , 18-C ) :   1.6093
B( 17-C , 33-H ) :   0.9605 B( 18-C , 19-C ) :   1.2462 B( 18-C , 21-H ) :   0.9740
B( 19-C , 20-C ) :   1.6036 B( 19-C , 22-C ) :   1.0339 B( 22-C , 23-H ) :   0.9357
B( 22-C , 24-H ) :   0.9241 B( 22-C , 25-C ) :   1.0722 B( 25-C , 26-H ) :   0.9573
B( 25-C , 27-H ) :   0.9519 B( 25-C , 28-C ) :   1.0741 B( 28-C , 29-H ) :   0.9705
B( 28-C , 30-H ) :   0.9737 B( 28-C , 31-H ) :   0.9734

Dispersion correction           -0.016727179
FINAL SINGLE POINT ENERGY     -1339.868666057836

DIPOLE MOMENT
-------------
                                X             Y             Z
Electronic contribution:      8.62510      -1.28159      24.34471
Nuclear contribution   :     -8.72029       1.11501     -24.92459
                        -----------------------------------------
Total Dipole Moment    :     -0.09519      -0.16658      -0.57987
                        -----------------------------------------
Magnitude (a.u.)       :      0.61079
Magnitude (Debye)      :      1.55250

Rotational constants in cm-1:     0.019592     0.009941     0.008269
Rotational constants in MHz :   587.353546   298.016213   247.906743

                             ****ORCA TERMINATED NORMALLY****
TOTAL RUN TIME: 0 days 0 hours 0 minutes 39 seconds 14 msec
