                         Program Version 4.2.1 -  RELEASE  -
|  1> ! wB97X-D3 SP def2-SVP
|  2> %pal
|  3> nprocs 16
|  4> end
|  5>
|  6> * xyz 0 1
|  7> S 	 41.1565 	 11.2836 	 80.667
|  8> C 	 41.9813 	 10.9762 	 79.1201
|  9> C 	 42.4802 	 12.1439 	 78.5584
| 10> C 	 42.0105 	 13.2485 	 79.2778
| 11> C 	 41.4327 	 13.0114 	 80.4773
| 12> H 	 42.053 	 14.2011 	 78.8856
| 13> C 	 43.2 	 12.1758 	 77.2549
| 14> H 	 43.9995 	 11.4654 	 77.2683
| 15> H 	 43.4499 	 13.2016 	 77.0697
| 16> C 	 42.2081 	 11.8122 	 76.0488
| 17> H 	 41.5956 	 10.9782 	 76.4704
| 18> H 	 41.4917 	 12.5439 	 75.8499
| 19> C 	 42.8849 	 11.3788 	 74.7225
| 20> H 	 43.3984 	 10.468 	 74.9594
| 21> H 	 42.2657 	 11.0823 	 73.8271
| 22> H 	 43.5853 	 12.1742 	 74.4083
| 23> S 	 39.0215 	 14.3067 	 81.0048
| 24> C 	 39.0268 	 15.7742 	 81.9417
| 25> C 	 40.3496 	 16.0684 	 82.3056
| 26> C 	 41.3317 	 15.1515 	 81.8223
| 27> C 	 40.7573 	 14.107 	 81.1399
| 28> H 	 40.5357 	 16.9353 	 82.9685
| 29> C 	 42.8 	 15.3413 	 82.1221
| 30> H 	 43.2851 	 14.3266 	 82.255
| 31> H 	 42.9256 	 15.8827 	 83.0301
| 32> C 	 43.5462 	 16.1684 	 81.0696
| 33> H 	 43.1503 	 17.2132 	 81.0295
| 34> H 	 43.4712 	 15.731 	 80.0661
| 35> C 	 45.0555 	 16.3117 	 81.4173
| 36> H 	 45.0764 	 16.7302 	 82.4451
| 37> H 	 45.5814 	 16.977 	 80.7098
| 38> H 	 45.552 	 15.3608 	 81.4919
| 39> H 	 42.2855 	 9.93433 	 78.8127
| 40> H 	 38.2039 	 16.3201 	 82.3113
| 41> *
| 42>
| 43>                          ****END OF INPUT****

CARTESIAN COORDINATES (ANGSTROEM)
---------------------------------
  S     41.156500   11.283600   80.667000
  C     41.981300   10.976200   79.120100
  C     42.480200   12.143900   78.558400
  C     42.010500   13.248500   79.277800
  C     41.432700   13.011400   80.477300
  H     42.053000   14.201100   78.885600
  C     43.200000   12.175800   77.254900
  H     43.999500   11.465400   77.268300
  H     43.449900   13.201600   77.069700
  C     42.208100   11.812200   76.048800
  H     41.595600   10.978200   76.470400
  H     41.491700   12.543900   75.849900
  C     42.884900   11.378800   74.722500
  H     43.398400   10.468000   74.959400
  H     42.265700   11.082300   73.827100
  H     43.585300   12.174200   74.408300
  S     39.021500   14.306700   81.004800
  C     39.026800   15.774200   81.941700
  C     40.349600   16.068400   82.305600
  C     41.331700   15.151500   81.822300
  C     40.757300   14.107000   81.139900
  H     40.535700   16.935300   82.968500
  C     42.800000   15.341300   82.122100
  H     43.285100   14.326600   82.255000
  H     42.925600   15.882700   83.030100
  C     43.546200   16.168400   81.069600
  H     43.150300   17.213200   81.029500
  H     43.471200   15.731000   80.066100
  C     45.055500   16.311700   81.417300
  H     45.076400   16.730200   82.445100
  H     45.581400   16.977000   80.709800
  H     45.552000   15.360800   81.491900
  H     42.285500    9.934330   78.812700
  H     38.203900   16.320100   82.311300

 Total Charge           Charge          ....    0
 Multiplicity           Mult            ....    1
 Number of Electrons    NEL             ....  134
 Basis Dimension        Dim             ....  322

ORBITAL ENERGIES
----------------

  NO   OCC          E(Eh)            E(eV)
   0   2.0000     -88.969788     -2420.9910
   1   2.0000     -88.964066     -2420.8353
   2   2.0000     -10.323611      -280.9197
   3   2.0000     -10.322760      -280.8966
   4   2.0000     -10.322065      -280.8777
   5   2.0000     -10.314382      -280.6686
   6   2.0000     -10.298888      -280.2470
   7   2.0000     -10.298559      -280.2380
   8   2.0000     -10.295983      -280.1679
   9   2.0000     -10.294453      -280.1263
  10   2.0000     -10.291402      -280.0433
  11   2.0000     -10.288427      -279.9623
  12   2.0000     -10.288206      -279.9563
  13   2.0000     -10.285050      -279.8704
  14   2.0000     -10.284054      -279.8433
  15   2.0000     -10.278801      -279.7004
  16   2.0000      -8.083705      -219.9688
  17   2.0000      -8.078799      -219.8353
  18   2.0000      -6.042293      -164.4192
  19   2.0000      -6.038331      -164.3114
  20   2.0000      -6.037333      -164.2842
  21   2.0000      -6.034416      -164.2048
  22   2.0000      -6.033203      -164.1718
  23   2.0000      -6.029629      -164.0745
  24   2.0000      -1.009674       -27.4746
  25   2.0000      -0.985149       -26.8073
  26   2.0000      -0.910909       -24.7871
  27   2.0000      -0.907349       -24.6902
  28   2.0000      -0.868427       -23.6311
  29   2.0000      -0.852158       -23.1884
  30   2.0000      -0.846542       -23.0356
  31   2.0000      -0.813014       -22.1232
  32   2.0000      -0.780723       -21.2446
  33   2.0000      -0.769897       -20.9500
  34   2.0000      -0.706014       -19.2116
  35   2.0000      -0.703020       -19.1302
  36   2.0000      -0.691342       -18.8124
  37   2.0000      -0.661384       -17.9972
  38   2.0000      -0.643946       -17.5227
  39   2.0000      -0.623950       -16.9785
  40   2.0000      -0.593512       -16.1503
  41   2.0000      -0.573788       -15.6136
  42   2.0000      -0.566036       -15.4026
  43   2.0000      -0.557340       -15.1660
  44   2.0000      -0.524561       -14.2740
  45   2.0000      -0.520911       -14.1747
  46   2.0000      -0.518650       -14.1132
  47   2.0000      -0.514648       -14.0043
  48   2.0000      -0.510517       -13.8919
  49   2.0000      -0.501787       -13.6543
  50   2.0000      -0.491935       -13.3862
  51   2.0000      -0.479228       -13.0405
  52   2.0000      -0.468885       -12.7590
  53   2.0000      -0.466095       -12.6831
  54   2.0000      -0.456971       -12.4348
  55   2.0000      -0.447144       -12.1674
  56   2.0000      -0.440296       -11.9810
  57   2.0000      -0.434900       -11.8342
  58   2.0000      -0.431798       -11.7498
  59   2.0000      -0.431075       -11.7301
  60   2.0000      -0.421014       -11.4564
  61   2.0000      -0.418287       -11.3822
  62   2.0000      -0.413824       -11.2607
  63   2.0000      -0.341382        -9.2895
  64   2.0000      -0.328333        -8.9344
  65   2.0000      -0.326667        -8.8891
  66   2.0000      -0.302863        -8.2413
  67   0.0000       0.032321         0.8795
  68   0.0000       0.061005         1.6600
  69   0.0000       0.114921         3.1272
  70   0.0000       0.126637         3.4460
  71   0.0000       0.128719         3.5026

MULLIKEN ATOMIC CHARGES
-----------------------
   0 S :    0.110928
   1 C :   -0.154507
   2 C :   -0.086053
   3 C :    0.036591
   4 C :   -0.145914
   5 H :   -0.003092
   6 C :    0.118597
   7 H :    0.028763
   8 H :    0.018035
   9 C :   -0.094283
  10 H :    0.025842
  11 H :    0.019290
  12 C :   -0.058263
  13 H :    0.023660
  14 H :    0.048570
  15 H :    0.039463
  16 S :    0.117216
  17 C :   -0.082820
  18 C :   -0.056205
  19 C :   -0.017104
  20 C :   -0.173257
  21 H :    0.026190
  22 C :    0.079465
  23 H :    0.042202
  24 H :    0.005947
  25 C :   -0.099980
  26 H :    0.033791
  27 H :    0.026429
  28 C :   -0.042507
  29 H :    0.022883
  30 H :    0.044288
  31 H :    0.028575
  32 H :    0.073092
  33 H :    0.044170
Sum of atomic charges:   -0.0000000

LOEWDIN ATOMIC CHARGES
----------------------
   0 S :    0.394045
   1 C :   -0.187825
   2 C :   -0.066368
   3 C :   -0.041619
   4 C :   -0.201182
   5 H :    0.019062
   6 C :   -0.017735
   7 H :    0.030975
   8 H :    0.028464
   9 C :   -0.035503
  10 H :    0.024085
  11 H :    0.013713
  12 C :   -0.075168
  13 H :    0.020141
  14 H :    0.035804
  15 H :    0.027219
  16 S :    0.410493
  17 C :   -0.189514
  18 C :   -0.073395
  19 C :   -0.059264
  20 C :   -0.197321
  21 H :    0.033379
  22 C :   -0.030235
  23 H :    0.039378
  24 H :    0.024553
  25 C :   -0.040921
  26 H :    0.027510
  27 H :    0.018576
  28 C :   -0.066663
  29 H :    0.025119
  30 H :    0.028659
  31 H :    0.020521
  32 H :    0.036924
  33 H :    0.024093

  Mayer bond orders larger than 0.100000
B(  0-S ,  1-C ) :   1.1505 B(  0-S ,  4-C ) :   1.1311 B(  1-C ,  2-C ) :   1.5812
B(  1-C , 32-H ) :   0.9539 B(  2-C ,  3-C ) :   1.2629 B(  2-C ,  6-C ) :   1.0433
B(  3-C ,  4-C ) :   1.5779 B(  3-C ,  5-H ) :   0.9921 B(  4-C , 20-C ) :   1.0278
B(  6-C ,  7-H ) :   0.9359 B(  6-C ,  8-H ) :   0.9350 B(  6-C ,  9-C ) :   1.0447
B(  9-C , 10-H ) :   0.9638 B(  9-C , 11-H ) :   0.9604 B(  9-C , 12-C ) :   1.0653
B( 12-C , 13-H ) :   0.9778 B( 12-C , 14-H ) :   0.9749 B( 12-C , 15-H ) :   0.9753
B( 16-S , 17-C ) :   1.1555 B( 16-S , 20-C ) :   1.1442 B( 17-C , 18-C ) :   1.6016
B( 17-C , 33-H ) :   0.9731 B( 18-C , 19-C ) :   1.2546 B( 18-C , 21-H ) :   0.9825
B( 19-C , 20-C ) :   1.6058 B( 19-C , 22-C ) :   1.0488 B( 22-C , 23-H ) :   0.9304
B( 22-C , 24-H ) :   0.9287 B( 22-C , 25-C ) :   1.0686 B( 25-C , 26-H ) :   0.9543
B( 25-C , 27-H ) :   0.9521 B( 25-C , 28-C ) :   1.0821 B( 28-C , 29-H ) :   0.9724
B( 28-C , 30-H ) :   0.9750 B( 28-C , 31-H ) :   0.9753

Dispersion correction           -0.014160018
FINAL SINGLE POINT ENERGY     -1339.875752908305

DIPOLE MOMENT
-------------
                                X             Y             Z
Electronic contribution:    -20.90357      -6.49531      15.18519
Nuclear contribution   :     21.33126       6.73035     -15.50342
                        -----------------------------------------
Total Dipole Moment    :      0.42769       0.23504      -0.31823
                        -----------------------------------------
Magnitude (a.u.)       :      0.58261
Magnitude (Debye)      :      1.48087

Rotational constants in cm-1:     0.017701     0.008312     0.006801
Rotational constants in MHz :   530.661303   249.177746   203.883569

                             ****ORCA TERMINATED NORMALLY****
TOTAL RUN TIME: 0 days 0 hours 0 minutes 29 seconds 525 msec
