                         Program Version 4.2.1 -  RELEASE  -
|  1> ! wB97X-D3 SP def2-SVP
|  2> %pal
|  3> nprocs 16
|  4> end
|  5>
|  6> * xyz 0 1
|  7> S 	 -35.6898 	 54.3691 	 109.182
|  8> C 	 -36.6472 	 55.8079 	 109.359
|  9> C 	 -37.9647 	 55.5149 	 109.656
| 10> C 	 -38.1779 	 54.1417 	 109.782
| 11> C 	 -37.0525 	 53.3625 	 109.49
| 12> H 	 -39.1283 	 53.6702 	 110.065
| 13> C 	 -39.0418 	 56.6036 	 109.773
| 14> H 	 -39.0779 	 57.2192 	 108.897
| 15> H 	 -38.6289 	 57.2257 	 110.607
| 16> C 	 -40.4441 	 56.1786 	 110.046
| 17> H 	 -40.4138 	 55.6681 	 110.962
| 18> H 	 -40.9907 	 57.0481 	 110.403
| 19> C 	 -41.1168 	 55.4847 	 108.832
| 20> H 	 -42.1984 	 55.3599 	 108.84
| 21> H 	 -40.9151 	 55.9701 	 107.884
| 22> H 	 -40.8174 	 54.5125 	 108.758
| 23> S 	 -35.7004 	 51.3013 	 110.575
| 24> C 	 -36.0733 	 49.6744 	 109.968
| 25> C 	 -37.0191 	 49.6283 	 109.019
| 26> C 	 -37.5634 	 50.9177 	 108.728
| 27> C 	 -36.9769 	 51.92 	 109.546
| 28> H 	 -37.2885 	 48.6395 	 108.623
| 29> C 	 -38.7197 	 51.1079 	 107.78
| 30> H 	 -38.7464 	 50.4812 	 106.889
| 31> H 	 -38.6444 	 52.1613 	 107.404
| 32> C 	 -40.065 	 50.9119 	 108.505
| 33> H 	 -40.8549 	 51.3753 	 107.94
| 34> H 	 -40.0397 	 51.4085 	 109.487
| 35> C 	 -40.3886 	 49.409 	 108.814
| 36> H 	 -41.4212 	 49.3012 	 109.108
| 37> H 	 -39.7723 	 49.0784 	 109.65
| 38> H 	 -40.1838 	 48.6324 	 108.164
| 39> H 	 -36.2793 	 56.8174 	 109.317
| 40> H 	 -35.5419 	 48.7992 	 110.345
| 41> *
| 42>
| 43>                          ****END OF INPUT****

CARTESIAN COORDINATES (ANGSTROEM)
---------------------------------
  S    -35.689800   54.369100  109.182000
  C    -36.647200   55.807900  109.359000
  C    -37.964700   55.514900  109.656000
  C    -38.177900   54.141700  109.782000
  C    -37.052500   53.362500  109.490000
  H    -39.128300   53.670200  110.065000
  C    -39.041800   56.603600  109.773000
  H    -39.077900   57.219200  108.897000
  H    -38.628900   57.225700  110.607000
  C    -40.444100   56.178600  110.046000
  H    -40.413800   55.668100  110.962000
  H    -40.990700   57.048100  110.403000
  C    -41.116800   55.484700  108.832000
  H    -42.198400   55.359900  108.840000
  H    -40.915100   55.970100  107.884000
  H    -40.817400   54.512500  108.758000
  S    -35.700400   51.301300  110.575000
  C    -36.073300   49.674400  109.968000
  C    -37.019100   49.628300  109.019000
  C    -37.563400   50.917700  108.728000
  C    -36.976900   51.920000  109.546000
  H    -37.288500   48.639500  108.623000
  C    -38.719700   51.107900  107.780000
  H    -38.746400   50.481200  106.889000
  H    -38.644400   52.161300  107.404000
  C    -40.065000   50.911900  108.505000
  H    -40.854900   51.375300  107.940000
  H    -40.039700   51.408500  109.487000
  C    -40.388600   49.409000  108.814000
  H    -41.421200   49.301200  109.108000
  H    -39.772300   49.078400  109.650000
  H    -40.183800   48.632400  108.164000
  H    -36.279300   56.817400  109.317000
  H    -35.541900   48.799200  110.345000

 Total Charge           Charge          ....    0
 Multiplicity           Mult            ....    1
 Number of Electrons    NEL             ....  134
 Basis Dimension        Dim             ....  322

ORBITAL ENERGIES
----------------

  NO   OCC          E(Eh)            E(eV)
   0   2.0000     -88.967760     -2420.9358
   1   2.0000     -88.964694     -2420.8524
   2   2.0000     -10.326203      -280.9903
   3   2.0000     -10.323418      -280.9145
   4   2.0000     -10.313954      -280.6570
   5   2.0000     -10.307938      -280.4932
   6   2.0000     -10.306996      -280.4676
   7   2.0000     -10.295321      -280.1499
   8   2.0000     -10.292736      -280.0796
   9   2.0000     -10.292237      -280.0660
  10   2.0000     -10.290359      -280.0149
  11   2.0000     -10.290230      -280.0114
  12   2.0000     -10.289467      -279.9906
  13   2.0000     -10.282507      -279.8012
  14   2.0000     -10.273429      -279.5542
  15   2.0000     -10.270149      -279.4650
  16   2.0000      -8.082779      -219.9436
  17   2.0000      -8.079285      -219.8485
  18   2.0000      -6.041135      -164.3876
  19   2.0000      -6.037725      -164.2949
  20   2.0000      -6.037169      -164.2797
  21   2.0000      -6.033950      -164.1921
  22   2.0000      -6.033760      -164.1869
  23   2.0000      -6.029993      -164.0845
  24   2.0000      -1.008328       -27.4380
  25   2.0000      -0.984474       -26.7889
  26   2.0000      -0.917513       -24.9668
  27   2.0000      -0.906316       -24.6621
  28   2.0000      -0.872434       -23.7401
  29   2.0000      -0.845786       -23.0150
  30   2.0000      -0.842861       -22.9354
  31   2.0000      -0.816622       -22.2214
  32   2.0000      -0.790958       -21.5230
  33   2.0000      -0.774471       -21.0744
  34   2.0000      -0.717824       -19.5330
  35   2.0000      -0.703485       -19.1428
  36   2.0000      -0.690344       -18.7852
  37   2.0000      -0.657131       -17.8814
  38   2.0000      -0.636984       -17.3332
  39   2.0000      -0.623670       -16.9709
  40   2.0000      -0.598055       -16.2739
  41   2.0000      -0.574729       -15.6392
  42   2.0000      -0.555589       -15.1183
  43   2.0000      -0.546111       -14.8604
  44   2.0000      -0.540743       -14.7144
  45   2.0000      -0.532573       -14.4920
  46   2.0000      -0.516694       -14.0599
  47   2.0000      -0.507295       -13.8042
  48   2.0000      -0.499382       -13.5889
  49   2.0000      -0.494985       -13.4692
  50   2.0000      -0.489112       -13.3094
  51   2.0000      -0.482265       -13.1231
  52   2.0000      -0.476729       -12.9725
  53   2.0000      -0.471088       -12.8190
  54   2.0000      -0.458151       -12.4669
  55   2.0000      -0.447837       -12.1863
  56   2.0000      -0.442945       -12.0532
  57   2.0000      -0.439645       -11.9633
  58   2.0000      -0.436589       -11.8802
  59   2.0000      -0.430092       -11.7034
  60   2.0000      -0.424857       -11.5609
  61   2.0000      -0.415808       -11.3147
  62   2.0000      -0.412106       -11.2140
  63   2.0000      -0.344375        -9.3709
  64   2.0000      -0.330816        -9.0019
  65   2.0000      -0.328127        -8.9288
  66   2.0000      -0.289935        -7.8895
  67   0.0000       0.032985         0.8976
  68   0.0000       0.066270         1.8033
  69   0.0000       0.110986         3.0201
  70   0.0000       0.129533         3.5248
  71   0.0000       0.133934         3.6445

MULLIKEN ATOMIC CHARGES
-----------------------
   0 S :    0.136769
   1 C :   -0.137050
   2 C :   -0.071575
   3 C :    0.002639
   4 C :   -0.151654
   5 H :    0.018763
   6 C :    0.035664
   7 H :    0.030945
   8 H :    0.041435
   9 C :   -0.026580
  10 H :    0.007846
  11 H :    0.018110
  12 C :   -0.002110
  13 H :    0.026229
  14 H :    0.028156
  15 H :   -0.000848
  16 S :    0.099777
  17 C :   -0.097068
  18 C :   -0.024317
  19 C :   -0.026850
  20 C :   -0.181271
  21 H :    0.026301
  22 C :    0.059554
  23 H :    0.029544
  24 H :    0.037893
  25 C :   -0.066850
  26 H :    0.033123
  27 H :    0.034718
  28 C :   -0.038681
  29 H :    0.029887
  30 H :    0.027666
  31 H :    0.008075
  32 H :    0.037830
  33 H :    0.053928
Sum of atomic charges:    0.0000000

LOEWDIN ATOMIC CHARGES
----------------------
   0 S :    0.434145
   1 C :   -0.206465
   2 C :   -0.065759
   3 C :   -0.069769
   4 C :   -0.213953
   5 H :    0.031908
   6 C :   -0.031083
   7 H :    0.026878
   8 H :    0.041156
   9 C :   -0.043887
  10 H :    0.018719
  11 H :    0.029855
  12 C :   -0.058024
  13 H :    0.029640
  14 H :    0.029103
  15 H :    0.011181
  16 S :    0.391480
  17 C :   -0.172571
  18 C :   -0.075603
  19 C :   -0.045380
  20 C :   -0.199763
  21 H :    0.039193
  22 C :   -0.035946
  23 H :    0.030632
  24 H :    0.037479
  25 C :   -0.031189
  26 H :    0.019807
  27 H :    0.026595
  28 C :   -0.069156
  29 H :    0.027154
  30 H :    0.028733
  31 H :    0.011493
  32 H :    0.025461
  33 H :    0.027937

  Mayer bond orders larger than 0.100000
B(  0-S ,  1-C ) :   1.1525 B(  0-S ,  4-C ) :   1.1782 B(  1-C ,  2-C ) :   1.5845
B(  1-C ,  4-C ) :   0.1053 B(  1-C , 32-H ) :   0.9741 B(  2-C ,  3-C ) :   1.3023
B(  2-C ,  6-C ) :   0.9845 B(  3-C ,  4-C ) :   1.5199 B(  3-C ,  5-H ) :   0.9857
B(  4-C , 20-C ) :   1.0423 B(  6-C ,  7-H ) :   0.9461 B(  6-C ,  8-H ) :   0.9339
B(  6-C ,  9-C ) :   1.1095 B(  9-C , 10-H ) :   0.9444 B(  9-C , 11-H ) :   0.9449
B(  9-C , 12-C ) :   1.0543 B( 12-C , 13-H ) :   0.9716 B( 12-C , 14-H ) :   0.9747
B( 12-C , 15-H ) :   0.9757 B( 16-S , 17-C ) :   1.1382 B( 16-S , 20-C ) :   1.1457
B( 17-C , 18-C ) :   1.6492 B( 17-C , 33-H ) :   0.9618 B( 18-C , 19-C ) :   1.2161
B( 18-C , 21-H ) :   0.9860 B( 19-C , 20-C ) :   1.5882 B( 19-C , 22-C ) :   1.0597
B( 22-C , 23-H ) :   0.9422 B( 22-C , 24-H ) :   0.9238 B( 22-C , 25-C ) :   1.0693
B( 25-C , 26-H ) :   0.9599 B( 25-C , 27-H ) :   0.9516 B( 25-C , 28-C ) :   1.0665
B( 28-C , 29-H ) :   0.9731 B( 28-C , 30-H ) :   0.9703 B( 28-C , 31-H ) :   0.9782

Dispersion correction           -0.015512888
FINAL SINGLE POINT ENERGY     -1339.875327785614

DIPOLE MOMENT
-------------
                                X             Y             Z
Electronic contribution:     28.67800      -1.27821       5.21524
Nuclear contribution   :    -29.27908       1.24889      -5.32961
                        -----------------------------------------
Total Dipole Moment    :     -0.60108      -0.02932      -0.11437
                        -----------------------------------------
Magnitude (a.u.)       :      0.61256
Magnitude (Debye)      :      1.55702

Rotational constants in cm-1:     0.017931     0.010393     0.007162
Rotational constants in MHz :   537.555561   311.580922   214.716423

                             ****ORCA TERMINATED NORMALLY****
TOTAL RUN TIME: 0 days 0 hours 0 minutes 32 seconds 261 msec
