                         Program Version 4.2.1 -  RELEASE  -
|  1> ! wB97X-D3 SP def2-SVP
|  2> %pal
|  3> nprocs 16
|  4> end
|  5>
|  6> * xyz 0 1
|  7> S 	 -35.413 	 40.9613 	 100.235
|  8> C 	 -33.9022 	 40.813 	 101.228
|  9> C 	 -33.0262 	 39.9441 	 100.592
| 10> C 	 -33.5927 	 39.2952 	 99.4948
| 11> C 	 -34.8805 	 39.746 	 99.0965
| 12> H 	 -33.0552 	 38.6196 	 98.8058
| 13> C 	 -31.591 	 39.6376 	 101.016
| 14> H 	 -31.4108 	 38.638 	 101.33
| 15> H 	 -31.271 	 40.256 	 101.851
| 16> C 	 -30.5927 	 39.9981 	 99.9516
| 17> H 	 -30.8337 	 39.4528 	 99.0407
| 18> H 	 -30.7537 	 41.0729 	 99.6093
| 19> C 	 -29.1704 	 39.7775 	 100.374
| 20> H 	 -29.0637 	 38.7019 	 100.348
| 21> H 	 -28.4291 	 40.2477 	 99.658
| 22> H 	 -28.9076 	 40.2187 	 101.348
| 23> S 	 -36.3068 	 40.7417 	 96.9516
| 24> C 	 -36.884 	 39.5733 	 95.7914
| 25> C 	 -36.8169 	 38.2514 	 96.2878
| 26> C 	 -35.9754 	 38.1904 	 97.4447
| 27> C 	 -35.6689 	 39.4199 	 97.9209
| 28> H 	 -37.2856 	 37.3968 	 95.805
| 29> C 	 -35.5523 	 36.8519 	 98.052
| 30> H 	 -34.7653 	 36.9375 	 98.8506
| 31> H 	 -35.0046 	 36.2223 	 97.3368
| 32> C 	 -36.6974 	 35.9902 	 98.5844
| 33> H 	 -37.3966 	 35.7162 	 97.7755
| 34> H 	 -37.149 	 36.4749 	 99.5238
| 35> C 	 -36.2376 	 34.6642 	 99.191
| 36> H 	 -37.0482 	 33.9389 	 99.4433
| 37> H 	 -35.5589 	 34.7914 	 100.065
| 38> H 	 -35.7072 	 34.0524 	 98.4401
| 39> H 	 -33.6806 	 41.3188 	 102.097
| 40> H 	 -37.5457 	 39.8707 	 94.9568
| 41> *
| 42>
| 43>                          ****END OF INPUT****

CARTESIAN COORDINATES (ANGSTROEM)
---------------------------------
  S    -35.413000   40.961300  100.235000
  C    -33.902200   40.813000  101.228000
  C    -33.026200   39.944100  100.592000
  C    -33.592700   39.295200   99.494800
  C    -34.880500   39.746000   99.096500
  H    -33.055200   38.619600   98.805800
  C    -31.591000   39.637600  101.016000
  H    -31.410800   38.638000  101.330000
  H    -31.271000   40.256000  101.851000
  C    -30.592700   39.998100   99.951600
  H    -30.833700   39.452800   99.040700
  H    -30.753700   41.072900   99.609300
  C    -29.170400   39.777500  100.374000
  H    -29.063700   38.701900  100.348000
  H    -28.429100   40.247700   99.658000
  H    -28.907600   40.218700  101.348000
  S    -36.306800   40.741700   96.951600
  C    -36.884000   39.573300   95.791400
  C    -36.816900   38.251400   96.287800
  C    -35.975400   38.190400   97.444700
  C    -35.668900   39.419900   97.920900
  H    -37.285600   37.396800   95.805000
  C    -35.552300   36.851900   98.052000
  H    -34.765300   36.937500   98.850600
  H    -35.004600   36.222300   97.336800
  C    -36.697400   35.990200   98.584400
  H    -37.396600   35.716200   97.775500
  H    -37.149000   36.474900   99.523800
  C    -36.237600   34.664200   99.191000
  H    -37.048200   33.938900   99.443300
  H    -35.558900   34.791400  100.065000
  H    -35.707200   34.052400   98.440100
  H    -33.680600   41.318800  102.097000
  H    -37.545700   39.870700   94.956800

 Total Charge           Charge          ....    0
 Multiplicity           Mult            ....    1
 Number of Electrons    NEL             ....  134
 Basis Dimension        Dim             ....  322

ORBITAL ENERGIES
----------------

  NO   OCC          E(Eh)            E(eV)
   0   2.0000     -88.970380     -2421.0071
   1   2.0000     -88.967877     -2420.9390
   2   2.0000     -10.333785      -281.1966
   3   2.0000     -10.326207      -280.9904
   4   2.0000     -10.324362      -280.9402
   5   2.0000     -10.314295      -280.6662
   6   2.0000     -10.304506      -280.3999
   7   2.0000     -10.301955      -280.3304
   8   2.0000     -10.301913      -280.3293
   9   2.0000     -10.297627      -280.2127
  10   2.0000     -10.294760      -280.1347
  11   2.0000     -10.294194      -280.1192
  12   2.0000     -10.288101      -279.9535
  13   2.0000     -10.283754      -279.8352
  14   2.0000     -10.282831      -279.8101
  15   2.0000     -10.282063      -279.7892
  16   2.0000      -8.085102      -220.0068
  17   2.0000      -8.081439      -219.9071
  18   2.0000      -6.043613      -164.4551
  19   2.0000      -6.039964      -164.3558
  20   2.0000      -6.039782      -164.3508
  21   2.0000      -6.036055      -164.2494
  22   2.0000      -6.035673      -164.2390
  23   2.0000      -6.032307      -164.1474
  24   2.0000      -1.007347       -27.4113
  25   2.0000      -0.981537       -26.7090
  26   2.0000      -0.918932       -25.0054
  27   2.0000      -0.909045       -24.7364
  28   2.0000      -0.870382       -23.6843
  29   2.0000      -0.855220       -23.2717
  30   2.0000      -0.841844       -22.9077
  31   2.0000      -0.808923       -22.0119
  32   2.0000      -0.783762       -21.3272
  33   2.0000      -0.774566       -21.0770
  34   2.0000      -0.704889       -19.1810
  35   2.0000      -0.692108       -18.8332
  36   2.0000      -0.690113       -18.7789
  37   2.0000      -0.663519       -18.0553
  38   2.0000      -0.643802       -17.5188
  39   2.0000      -0.619919       -16.8689
  40   2.0000      -0.601758       -16.3747
  41   2.0000      -0.575120       -15.6498
  42   2.0000      -0.569971       -15.5097
  43   2.0000      -0.562626       -15.3098
  44   2.0000      -0.525191       -14.2912
  45   2.0000      -0.520357       -14.1596
  46   2.0000      -0.512207       -13.9378
  47   2.0000      -0.510210       -13.8835
  48   2.0000      -0.505860       -13.7652
  49   2.0000      -0.500037       -13.6067
  50   2.0000      -0.497317       -13.5327
  51   2.0000      -0.477628       -12.9969
  52   2.0000      -0.470274       -12.7968
  53   2.0000      -0.464138       -12.6298
  54   2.0000      -0.457206       -12.4412
  55   2.0000      -0.456015       -12.4088
  56   2.0000      -0.446517       -12.1504
  57   2.0000      -0.431111       -11.7311
  58   2.0000      -0.430175       -11.7056
  59   2.0000      -0.425178       -11.5697
  60   2.0000      -0.420095       -11.4314
  61   2.0000      -0.410736       -11.1767
  62   2.0000      -0.408962       -11.1284
  63   2.0000      -0.348145        -9.4735
  64   2.0000      -0.335182        -9.1208
  65   2.0000      -0.333578        -9.0771
  66   2.0000      -0.288366        -7.8468
  67   0.0000       0.025829         0.7028
  68   0.0000       0.063021         1.7149
  69   0.0000       0.108713         2.9582
  70   0.0000       0.118288         3.2188
  71   0.0000       0.130564         3.5528

MULLIKEN ATOMIC CHARGES
-----------------------
   0 S :    0.093932
   1 C :   -0.092182
   2 C :   -0.065287
   3 C :    0.015383
   4 C :   -0.162940
   5 H :    0.026636
   6 C :    0.107232
   7 H :    0.021857
   8 H :    0.003630
   9 C :   -0.128438
  10 H :    0.024092
  11 H :    0.033855
  12 C :   -0.040745
  13 H :    0.030801
  14 H :    0.044028
  15 H :    0.034036
  16 S :    0.121588
  17 C :   -0.106700
  18 C :   -0.035774
  19 C :   -0.002707
  20 C :   -0.148834
  21 H :    0.029021
  22 C :    0.050078
  23 H :    0.021755
  24 H :    0.023111
  25 C :   -0.095086
  26 H :    0.039422
  27 H :    0.055214
  28 C :   -0.082872
  29 H :    0.041270
  30 H :    0.042348
  31 H :    0.014997
  32 H :    0.014699
  33 H :    0.072580
Sum of atomic charges:   -0.0000000

LOEWDIN ATOMIC CHARGES
----------------------
   0 S :    0.386899
   1 C :   -0.170127
   2 C :   -0.057414
   3 C :   -0.074889
   4 C :   -0.184240
   5 H :    0.031862
   6 C :   -0.025968
   7 H :    0.025162
   8 H :    0.027349
   9 C :   -0.050873
  10 H :    0.018489
  11 H :    0.028698
  12 C :   -0.067515
  13 H :    0.025324
  14 H :    0.035574
  15 H :    0.025522
  16 S :    0.407455
  17 C :   -0.190818
  18 C :   -0.060241
  19 C :   -0.053500
  20 C :   -0.198778
  21 H :    0.033078
  22 C :   -0.038654
  23 H :    0.034284
  24 H :    0.030555
  25 C :   -0.047528
  26 H :    0.026021
  27 H :    0.039951
  28 C :   -0.079344
  29 H :    0.031914
  30 H :    0.027242
  31 H :    0.018631
  32 H :    0.012662
  33 H :    0.033215

  Mayer bond orders larger than 0.100000
B(  0-S ,  1-C ) :   1.1242 B(  0-S ,  4-C ) :   1.1629 B(  1-C ,  2-C ) :   1.5942
B(  1-C ,  4-C ) :   0.1159 B(  1-C , 32-H ) :   0.9813 B(  2-C ,  3-C ) :   1.2694
B(  2-C ,  6-C ) :   1.0225 B(  3-C ,  4-C ) :   1.5449 B(  3-C ,  5-H ) :   0.9792
B(  4-C , 20-C ) :   1.0470 B(  6-C ,  7-H ) :   0.9412 B(  6-C ,  8-H ) :   0.9388
B(  6-C ,  9-C ) :   1.0551 B(  9-C , 10-H ) :   0.9549 B(  9-C , 11-H ) :   0.9522
B(  9-C , 12-C ) :   1.0854 B( 12-C , 13-H ) :   0.9733 B( 12-C , 14-H ) :   0.9725
B( 12-C , 15-H ) :   0.9731 B( 16-S , 17-C ) :   1.1559 B( 16-S , 20-C ) :   1.1276
B( 17-C , 18-C ) :   1.6095 B( 17-C , 33-H ) :   0.9618 B( 18-C , 19-C ) :   1.2268
B( 18-C , 21-H ) :   0.9862 B( 19-C , 20-C ) :   1.6306 B( 19-C , 22-C ) :   1.0371
B( 22-C , 23-H ) :   0.9326 B( 22-C , 24-H ) :   0.9322 B( 22-C , 25-C ) :   1.0676
B( 25-C , 26-H ) :   0.9523 B( 25-C , 27-H ) :   0.9550 B( 25-C , 28-C ) :   1.0841
B( 28-C , 29-H ) :   0.9732 B( 28-C , 30-H ) :   0.9751 B( 28-C , 31-H ) :   0.9696

Dispersion correction           -0.013485434
FINAL SINGLE POINT ENERGY     -1339.876462221420

DIPOLE MOMENT
-------------
                                X             Y             Z
Electronic contribution:    -17.72038      20.17482      -6.35040
Nuclear contribution   :     18.03513     -20.71110       6.29257
                        -----------------------------------------
Total Dipole Moment    :      0.31474      -0.53628      -0.05783
                        -----------------------------------------
Magnitude (a.u.)       :      0.62450
Magnitude (Debye)      :      1.58736

Rotational constants in cm-1:     0.016822     0.008208     0.006777
Rotational constants in MHz :   504.312177   246.075384   203.181332

                             ****ORCA TERMINATED NORMALLY****
TOTAL RUN TIME: 0 days 0 hours 0 minutes 29 seconds 149 msec
