                         Program Version 4.2.1 -  RELEASE  -
|  1> ! wB97X-D3 SP def2-SVP
|  2> %pal
|  3> nprocs 16
|  4> end
|  5>
|  6> * xyz 0 1
|  7> S 	 -55.8851 	 51.6272 	 136.977
|  8> C 	 -56.3116 	 53.1079 	 136.168
|  9> C 	 -57.2389 	 53.8597 	 136.892
| 10> C 	 -57.6508 	 53.157 	 138.094
| 11> C 	 -57.047 	 51.9409 	 138.211
| 12> H 	 -58.2577 	 53.5007 	 138.896
| 13> C 	 -57.9165 	 55.1498 	 136.432
| 14> H 	 -57.9481 	 55.1221 	 135.328
| 15> H 	 -57.1716 	 56.001 	 136.579
| 16> C 	 -59.3223 	 55.3961 	 137.082
| 17> H 	 -59.7927 	 54.4826 	 136.844
| 18> H 	 -59.216 	 55.486 	 138.213
| 19> C 	 -60.0634 	 56.5014 	 136.418
| 20> H 	 -60.0207 	 56.4621 	 135.367
| 21> H 	 -61.1253 	 56.5899 	 136.654
| 22> H 	 -59.6402 	 57.4319 	 136.67
| 23> S 	 -55.7401 	 50.5794 	 140.374
| 24> C 	 -56.8359 	 49.7963 	 141.582
| 25> C 	 -58.1538 	 49.9117 	 141.243
| 26> C 	 -58.3582 	 50.5993 	 140.003
| 27> C 	 -57.1428 	 50.9633 	 139.325
| 28> H 	 -58.8824 	 49.4489 	 141.868
| 29> C 	 -59.7701 	 51.0824 	 139.706
| 30> H 	 -59.7947 	 51.1834 	 138.628
| 31> H 	 -59.7862 	 52.055 	 140.049
| 32> C 	 -60.9372 	 50.1966 	 140.251
| 33> H 	 -60.8808 	 50.1357 	 141.389
| 34> H 	 -60.7101 	 49.1528 	 139.802
| 35> C 	 -62.2954 	 50.6817 	 139.781
| 36> H 	 -62.4068 	 50.6125 	 138.647
| 37> H 	 -62.3187 	 51.7864 	 139.956
| 38> H 	 -63.1601 	 50.2456 	 140.353
| 39> H 	 -55.6989 	 53.5395 	 135.379
| 40> H 	 -56.5062 	 49.2754 	 142.463
| 41> *
| 42>
| 43>                          ****END OF INPUT****

CARTESIAN COORDINATES (ANGSTROEM)
---------------------------------
  S    -55.885100   51.627200  136.977000
  C    -56.311600   53.107900  136.168000
  C    -57.238900   53.859700  136.892000
  C    -57.650800   53.157000  138.094000
  C    -57.047000   51.940900  138.211000
  H    -58.257700   53.500700  138.896000
  C    -57.916500   55.149800  136.432000
  H    -57.948100   55.122100  135.328000
  H    -57.171600   56.001000  136.579000
  C    -59.322300   55.396100  137.082000
  H    -59.792700   54.482600  136.844000
  H    -59.216000   55.486000  138.213000
  C    -60.063400   56.501400  136.418000
  H    -60.020700   56.462100  135.367000
  H    -61.125300   56.589900  136.654000
  H    -59.640200   57.431900  136.670000
  S    -55.740100   50.579400  140.374000
  C    -56.835900   49.796300  141.582000
  C    -58.153800   49.911700  141.243000
  C    -58.358200   50.599300  140.003000
  C    -57.142800   50.963300  139.325000
  H    -58.882400   49.448900  141.868000
  C    -59.770100   51.082400  139.706000
  H    -59.794700   51.183400  138.628000
  H    -59.786200   52.055000  140.049000
  C    -60.937200   50.196600  140.251000
  H    -60.880800   50.135700  141.389000
  H    -60.710100   49.152800  139.802000
  C    -62.295400   50.681700  139.781000
  H    -62.406800   50.612500  138.647000
  H    -62.318700   51.786400  139.956000
  H    -63.160100   50.245600  140.353000
  H    -55.698900   53.539500  135.379000
  H    -56.506200   49.275400  142.463000

 Total Charge           Charge          ....    0
 Multiplicity           Mult            ....    1
 Number of Electrons    NEL             ....  134
 Basis Dimension        Dim             ....  322

ORBITAL ENERGIES
----------------

  NO   OCC          E(Eh)            E(eV)
   0   2.0000     -88.967319     -2420.9238
   1   2.0000     -88.963628     -2420.8234
   2   2.0000     -10.332504      -281.1617
   3   2.0000     -10.326323      -280.9935
   4   2.0000     -10.320390      -280.8321
   5   2.0000     -10.312113      -280.6069
   6   2.0000     -10.308043      -280.4961
   7   2.0000     -10.306536      -280.4551
   8   2.0000     -10.303638      -280.3762
   9   2.0000     -10.301778      -280.3256
  10   2.0000     -10.292528      -280.0739
  11   2.0000     -10.292312      -280.0680
  12   2.0000     -10.292040      -280.0606
  13   2.0000     -10.290438      -280.0171
  14   2.0000     -10.287277      -279.9310
  15   2.0000     -10.270874      -279.4847
  16   2.0000      -8.080205      -219.8736
  17   2.0000      -8.079217      -219.8467
  18   2.0000      -6.038939      -164.3279
  19   2.0000      -6.037593      -164.2913
  20   2.0000      -6.035046      -164.2219
  21   2.0000      -6.033609      -164.1828
  22   2.0000      -6.030760      -164.1053
  23   2.0000      -6.030071      -164.0866
  24   2.0000      -1.002588       -27.2818
  25   2.0000      -0.975463       -26.5437
  26   2.0000      -0.913481       -24.8571
  27   2.0000      -0.905946       -24.6521
  28   2.0000      -0.868774       -23.6405
  29   2.0000      -0.852126       -23.1875
  30   2.0000      -0.844514       -22.9804
  31   2.0000      -0.817272       -22.2391
  32   2.0000      -0.782127       -21.2828
  33   2.0000      -0.765786       -20.8381
  34   2.0000      -0.712873       -19.3983
  35   2.0000      -0.699785       -19.0421
  36   2.0000      -0.688025       -18.7221
  37   2.0000      -0.647530       -17.6202
  38   2.0000      -0.642920       -17.4947
  39   2.0000      -0.620985       -16.8979
  40   2.0000      -0.592630       -16.1263
  41   2.0000      -0.571251       -15.5445
  42   2.0000      -0.568638       -15.4734
  43   2.0000      -0.564185       -15.3523
  44   2.0000      -0.529705       -14.4140
  45   2.0000      -0.522507       -14.2181
  46   2.0000      -0.515884       -14.0379
  47   2.0000      -0.510239       -13.8843
  48   2.0000      -0.502061       -13.6618
  49   2.0000      -0.490864       -13.3571
  50   2.0000      -0.489064       -13.3081
  51   2.0000      -0.480118       -13.0647
  52   2.0000      -0.475678       -12.9438
  53   2.0000      -0.469939       -12.7877
  54   2.0000      -0.456091       -12.4109
  55   2.0000      -0.453869       -12.3504
  56   2.0000      -0.445552       -12.1241
  57   2.0000      -0.434512       -11.8237
  58   2.0000      -0.426845       -11.6150
  59   2.0000      -0.424517       -11.5517
  60   2.0000      -0.423117       -11.5136
  61   2.0000      -0.419808       -11.4236
  62   2.0000      -0.417396       -11.3579
  63   2.0000      -0.346882        -9.4392
  64   2.0000      -0.329508        -8.9664
  65   2.0000      -0.323669        -8.8075
  66   2.0000      -0.292465        -7.9584
  67   0.0000       0.028727         0.7817
  68   0.0000       0.066741         1.8161
  69   0.0000       0.110104         2.9961
  70   0.0000       0.119115         3.2413
  71   0.0000       0.125358         3.4112

MULLIKEN ATOMIC CHARGES
-----------------------
   0 S :    0.110511
   1 C :   -0.114634
   2 C :   -0.095116
   3 C :    0.018838
   4 C :   -0.169839
   5 H :    0.001056
   6 C :    0.010663
   7 H :    0.029266
   8 H :    0.041693
   9 C :   -0.084393
  10 H :    0.027712
  11 H :    0.054390
  12 C :    0.019897
  13 H :    0.012901
  14 H :    0.031067
  15 H :    0.011326
  16 S :    0.091681
  17 C :   -0.088727
  18 C :   -0.025451
  19 C :   -0.076504
  20 C :   -0.102654
  21 H :    0.017762
  22 C :    0.070530
  23 H :    0.030022
  24 H :    0.025310
  25 C :   -0.129841
  26 H :    0.051098
  27 H :    0.052289
  28 C :   -0.053875
  29 H :    0.047231
  30 H :    0.026739
  31 H :    0.052507
  32 H :    0.054431
  33 H :    0.052113
Sum of atomic charges:   -0.0000000

LOEWDIN ATOMIC CHARGES
----------------------
   0 S :    0.420392
   1 C :   -0.209080
   2 C :   -0.057898
   3 C :   -0.064730
   4 C :   -0.197135
   5 H :    0.027424
   6 C :   -0.039853
   7 H :    0.032576
   8 H :    0.035893
   9 C :   -0.040017
  10 H :    0.021788
  11 H :    0.033697
  12 C :   -0.059219
  13 H :    0.021665
  14 H :    0.029804
  15 H :    0.020386
  16 S :    0.365853
  17 C :   -0.157695
  18 C :   -0.072736
  19 C :   -0.043532
  20 C :   -0.204266
  21 H :    0.029772
  22 C :   -0.032443
  23 H :    0.032654
  24 H :    0.019959
  25 C :   -0.052309
  26 H :    0.029302
  27 H :    0.036000
  28 C :   -0.078930
  29 H :    0.035465
  30 H :    0.026835
  31 H :    0.033943
  32 H :    0.028908
  33 H :    0.027527

  Mayer bond orders larger than 0.100000
B(  0-S ,  1-C ) :   1.1416 B(  0-S ,  4-C ) :   1.1645 B(  1-C ,  2-C ) :   1.6296
B(  1-C , 32-H ) :   0.9653 B(  2-C ,  3-C ) :   1.2276 B(  2-C ,  6-C ) :   1.0079
B(  3-C ,  4-C ) :   1.5839 B(  3-C ,  5-H ) :   0.9961 B(  4-C , 20-C ) :   1.0090
B(  6-C ,  7-H ) :   0.9493 B(  6-C ,  8-H ) :   0.9281 B(  6-C ,  9-C ) :   1.0674
B(  9-C , 10-H ) :   0.9551 B(  9-C , 11-H ) :   0.9448 B(  9-C , 12-C ) :   1.0920
B( 12-C , 13-H ) :   0.9684 B( 12-C , 14-H ) :   0.9702 B( 12-C , 15-H ) :   0.9699
B( 16-S , 17-C ) :   1.1416 B( 16-S , 20-C ) :   1.1210 B( 17-C , 18-C ) :   1.6306
B( 17-C , 33-H ) :   0.9626 B( 18-C , 19-C ) :   1.2318 B( 18-C , 21-H ) :   0.9885
B( 19-C , 20-C ) :   1.5917 B( 19-C , 22-C ) :   1.0344 B( 22-C , 23-H ) :   0.9291
B( 22-C , 24-H ) :   0.9238 B( 22-C , 25-C ) :   1.0573 B( 25-C , 26-H ) :   0.9429
B( 25-C , 27-H ) :   0.9599 B( 25-C , 28-C ) :   1.0805 B( 28-C , 29-H ) :   0.9720
B( 28-C , 30-H ) :   0.9704 B( 28-C , 31-H ) :   0.9723

Dispersion correction           -0.013763587
FINAL SINGLE POINT ENERGY     -1339.866354688886

DIPOLE MOMENT
-------------
                                X             Y             Z
Electronic contribution:     28.70350     -14.28422       2.62097
Nuclear contribution   :    -29.38540      14.78158      -2.45858
                        -----------------------------------------
Total Dipole Moment    :     -0.68190       0.49736       0.16239
                        -----------------------------------------
Magnitude (a.u.)       :      0.85949
Magnitude (Debye)      :      2.18466

Rotational constants in cm-1:     0.015316     0.009414     0.006414
Rotational constants in MHz :   459.148312   282.220600   192.294061

                             ****ORCA TERMINATED NORMALLY****
TOTAL RUN TIME: 0 days 0 hours 0 minutes 34 seconds 468 msec
