                         Program Version 4.2.1 -  RELEASE  -
|  1> ! wB97X-D3 SP def2-SVP
|  2> %pal
|  3> nprocs 16
|  4> end
|  5>
|  6> * xyz 0 1
|  7> S 	 -119.36 	 48.2691 	 130.985
|  8> C 	 -118.792 	 49.0913 	 132.426
|  9> C 	 -117.579 	 48.5815 	 132.838
| 10> C 	 -117.119 	 47.5731 	 131.999
| 11> C 	 -117.842 	 47.3633 	 130.848
| 12> H 	 -116.171 	 47.032 	 132.18
| 13> C 	 -116.989 	 48.9825 	 134.155
| 14> H 	 -116.53 	 49.9368 	 134.215
| 15> H 	 -116.168 	 48.371 	 134.29
| 16> C 	 -117.894 	 48.9223 	 135.444
| 17> H 	 -117.329 	 49.3552 	 136.297
| 18> H 	 -118.792 	 49.5312 	 135.382
| 19> C 	 -118.264 	 47.4702 	 135.75
| 20> H 	 -118.682 	 47.3223 	 136.725
| 21> H 	 -119.174 	 47.2148 	 135.175
| 22> H 	 -117.523 	 46.7822 	 135.552
| 23> S 	 -118.673 	 45.5612 	 129.001
| 24> C 	 -117.471 	 44.6557 	 128.112
| 25> C 	 -116.323 	 45.3884 	 128.03
| 26> C 	 -116.257 	 46.4731 	 128.97
| 27> C 	 -117.475 	 46.5986 	 129.698
| 28> H 	 -115.701 	 45.0726 	 127.191
| 29> C 	 -115.007 	 47.2813 	 129.077
| 30> H 	 -114.496 	 46.6893 	 129.796
| 31> H 	 -115.386 	 48.1309 	 129.593
| 32> C 	 -114.18 	 47.6081 	 127.763
| 33> H 	 -113.781 	 46.7215 	 127.45
| 34> H 	 -113.352 	 48.3116 	 128.083
| 35> C 	 -114.961 	 48.2632 	 126.68
| 36> H 	 -115.2 	 49.3382 	 126.957
| 37> H 	 -115.87 	 47.7969 	 126.379
| 38> H 	 -114.277 	 48.3291 	 125.854
| 39> H 	 -119.349 	 49.8029 	 133.063
| 40> H 	 -117.66 	 43.9068 	 127.438
| 41> *
| 42>
| 43>                          ****END OF INPUT****

CARTESIAN COORDINATES (ANGSTROEM)
---------------------------------
  S    -119.360000   48.269100  130.985000
  C    -118.792000   49.091300  132.426000
  C    -117.579000   48.581500  132.838000
  C    -117.119000   47.573100  131.999000
  C    -117.842000   47.363300  130.848000
  H    -116.171000   47.032000  132.180000
  C    -116.989000   48.982500  134.155000
  H    -116.530000   49.936800  134.215000
  H    -116.168000   48.371000  134.290000
  C    -117.894000   48.922300  135.444000
  H    -117.329000   49.355200  136.297000
  H    -118.792000   49.531200  135.382000
  C    -118.264000   47.470200  135.750000
  H    -118.682000   47.322300  136.725000
  H    -119.174000   47.214800  135.175000
  H    -117.523000   46.782200  135.552000
  S    -118.673000   45.561200  129.001000
  C    -117.471000   44.655700  128.112000
  C    -116.323000   45.388400  128.030000
  C    -116.257000   46.473100  128.970000
  C    -117.475000   46.598600  129.698000
  H    -115.701000   45.072600  127.191000
  C    -115.007000   47.281300  129.077000
  H    -114.496000   46.689300  129.796000
  H    -115.386000   48.130900  129.593000
  C    -114.180000   47.608100  127.763000
  H    -113.781000   46.721500  127.450000
  H    -113.352000   48.311600  128.083000
  C    -114.961000   48.263200  126.680000
  H    -115.200000   49.338200  126.957000
  H    -115.870000   47.796900  126.379000
  H    -114.277000   48.329100  125.854000
  H    -119.349000   49.802900  133.063000
  H    -117.660000   43.906800  127.438000

 Total Charge           Charge          ....    0
 Multiplicity           Mult            ....    1
 Number of Electrons    NEL             ....  134
 Basis Dimension        Dim             ....  322

ORBITAL ENERGIES
----------------

  NO   OCC          E(Eh)            E(eV)
   0   2.0000     -88.965698     -2420.8797
   1   2.0000     -88.960760     -2420.7453
   2   2.0000     -10.328907      -281.0639
   3   2.0000     -10.326412      -280.9959
   4   2.0000     -10.313244      -280.6376
   5   2.0000     -10.308460      -280.5074
   6   2.0000     -10.308440      -280.5069
   7   2.0000     -10.294152      -280.1181
   8   2.0000     -10.292277      -280.0671
   9   2.0000     -10.291230      -280.0386
  10   2.0000     -10.290873      -280.0289
  11   2.0000     -10.289491      -279.9913
  12   2.0000     -10.283174      -279.8194
  13   2.0000     -10.282867      -279.8110
  14   2.0000     -10.274929      -279.5950
  15   2.0000     -10.265288      -279.3327
  16   2.0000      -8.080039      -219.8691
  17   2.0000      -8.076263      -219.7663
  18   2.0000      -6.038623      -164.3193
  19   2.0000      -6.034730      -164.2133
  20   2.0000      -6.034592      -164.2096
  21   2.0000      -6.030892      -164.1089
  22   2.0000      -6.030746      -164.1049
  23   2.0000      -6.026791      -163.9973
  24   2.0000      -1.009191       -27.4615
  25   2.0000      -0.987045       -26.8589
  26   2.0000      -0.912907       -24.8415
  27   2.0000      -0.910442       -24.7744
  28   2.0000      -0.872731       -23.7482
  29   2.0000      -0.855622       -23.2827
  30   2.0000      -0.846590       -23.0369
  31   2.0000      -0.819425       -22.2977
  32   2.0000      -0.786185       -21.3932
  33   2.0000      -0.773070       -21.0363
  34   2.0000      -0.713236       -19.4081
  35   2.0000      -0.708984       -19.2924
  36   2.0000      -0.701717       -19.0947
  37   2.0000      -0.654999       -17.8234
  38   2.0000      -0.634197       -17.2574
  39   2.0000      -0.618605       -16.8331
  40   2.0000      -0.592884       -16.1332
  41   2.0000      -0.577609       -15.7175
  42   2.0000      -0.560377       -15.2486
  43   2.0000      -0.553707       -15.0671
  44   2.0000      -0.544320       -14.8117
  45   2.0000      -0.536208       -14.5910
  46   2.0000      -0.525583       -14.3018
  47   2.0000      -0.513985       -13.9863
  48   2.0000      -0.508964       -13.8496
  49   2.0000      -0.499278       -13.5860
  50   2.0000      -0.493392       -13.4259
  51   2.0000      -0.476608       -12.9692
  52   2.0000      -0.470407       -12.8004
  53   2.0000      -0.462111       -12.5747
  54   2.0000      -0.457293       -12.4436
  55   2.0000      -0.446913       -12.1611
  56   2.0000      -0.443314       -12.0632
  57   2.0000      -0.441286       -12.0080
  58   2.0000      -0.431695       -11.7470
  59   2.0000      -0.428878       -11.6704
  60   2.0000      -0.417526       -11.3615
  61   2.0000      -0.416675       -11.3383
  62   2.0000      -0.412395       -11.2218
  63   2.0000      -0.351292        -9.5591
  64   2.0000      -0.333736        -9.0814
  65   2.0000      -0.320333        -8.7167
  66   2.0000      -0.282904        -7.6982
  67   0.0000       0.021864         0.5949
  68   0.0000       0.067034         1.8241
  69   0.0000       0.102468         2.7883
  70   0.0000       0.122589         3.3358
  71   0.0000       0.139571         3.7979

MULLIKEN ATOMIC CHARGES
-----------------------
   0 S :    0.107228
   1 C :   -0.120466
   2 C :   -0.095117
   3 C :    0.011754
   4 C :   -0.136748
   5 H :    0.018044
   6 C :    0.120924
   7 H :    0.023386
   8 H :   -0.014398
   9 C :   -0.100389
  10 H :    0.030954
  11 H :    0.026583
  12 C :   -0.013421
  13 H :    0.018206
  14 H :    0.029075
  15 H :    0.018953
  16 S :    0.096239
  17 C :   -0.049844
  18 C :   -0.074070
  19 C :   -0.071196
  20 C :   -0.160932
  21 H :    0.029658
  22 C :    0.106394
  23 H :    0.033317
  24 H :    0.015660
  25 C :   -0.047589
  26 H :    0.013440
  27 H :    0.044945
  28 C :   -0.041864
  29 H :    0.035969
  30 H :    0.039819
  31 H :    0.027443
  32 H :    0.054087
  33 H :    0.023957
Sum of atomic charges:   -0.0000000

LOEWDIN ATOMIC CHARGES
----------------------
   0 S :    0.393984
   1 C :   -0.192988
   2 C :   -0.071728
   3 C :   -0.067588
   4 C :   -0.187654
   5 H :    0.035720
   6 C :   -0.026147
   7 H :    0.030773
   8 H :    0.018654
   9 C :   -0.034287
  10 H :    0.025861
  11 H :    0.019597
  12 C :   -0.063445
  13 H :    0.023010
  14 H :    0.033299
  15 H :    0.013060
  16 S :    0.407363
  17 C :   -0.168333
  18 C :   -0.079541
  19 C :   -0.046042
  20 C :   -0.211797
  21 H :    0.036523
  22 C :   -0.034014
  23 H :    0.033216
  24 H :    0.026707
  25 C :   -0.028137
  26 H :    0.008677
  27 H :    0.039815
  28 C :   -0.062745
  29 H :    0.034566
  30 H :    0.021721
  31 H :    0.026268
  32 H :    0.034359
  33 H :    0.011273

  Mayer bond orders larger than 0.100000
B(  0-S ,  1-C ) :   1.1405 B(  0-S ,  4-C ) :   1.1379 B(  1-C ,  2-C ) :   1.5935
B(  1-C ,  4-C ) :   0.1057 B(  1-C , 32-H ) :   0.9657 B(  2-C ,  3-C ) :   1.2775
B(  2-C ,  6-C ) :   1.0158 B(  3-C ,  4-C ) :   1.5503 B(  3-C ,  5-H ) :   0.9894
B(  4-C , 20-C ) :   1.0766 B(  6-C ,  7-H ) :   0.9290 B(  6-C ,  8-H ) :   0.9345
B(  6-C ,  9-C ) :   1.0774 B(  9-C , 10-H ) :   0.9566 B(  9-C , 11-H ) :   0.9576
B(  9-C , 12-C ) :   1.0745 B( 12-C , 13-H ) :   0.9718 B( 12-C , 14-H ) :   0.9706
B( 12-C , 15-H ) :   0.9810 B( 16-S , 17-C ) :   1.1575 B( 16-S , 20-C ) :   1.1360
B( 17-C , 18-C ) :   1.6282 B( 17-C , 20-C ) :   0.1051 B( 17-C , 33-H ) :   0.9712
B( 18-C , 19-C ) :   1.2196 B( 18-C , 21-H ) :   0.9864 B( 19-C , 20-C ) :   1.5513
B( 19-C , 22-C ) :   1.0193 B( 22-C , 23-H ) :   0.9275 B( 22-C , 24-H ) :   0.9276
B( 22-C , 25-C ) :   1.0644 B( 25-C , 26-H ) :   0.9499 B( 25-C , 27-H ) :   0.9533
B( 25-C , 28-C ) :   1.0930 B( 28-C , 29-H ) :   0.9724 B( 28-C , 30-H ) :   0.9734
B( 28-C , 31-H ) :   0.9705

Dispersion correction           -0.014435752
FINAL SINGLE POINT ENERGY     -1339.844762529404

DIPOLE MOMENT
-------------
                                X             Y             Z
Electronic contribution:    -15.84607      -7.10052      -9.26177
Nuclear contribution   :     16.50621       7.20080       9.33251
                        -----------------------------------------
Total Dipole Moment    :      0.66014       0.10029       0.07074
                        -----------------------------------------
Magnitude (a.u.)       :      0.67145
Magnitude (Debye)      :      1.70669

Rotational constants in cm-1:     0.022900     0.007479     0.006569
Rotational constants in MHz :   686.536535   224.222648   196.933996

                             ****ORCA TERMINATED NORMALLY****
TOTAL RUN TIME: 0 days 0 hours 0 minutes 34 seconds 24 msec
