                         Program Version 4.2.1 -  RELEASE  -
|  1> ! wB97X-D3 SP def2-SVP
|  2> %pal
|  3> nprocs 16
|  4> end
|  5>
|  6> * xyz 0 1
|  7> S 	 -2.56842 	 -9.48636 	 54.074
|  8> C 	 -3.27379 	 -9.2327 	 52.456
|  9> C 	 -2.96846 	 -10.1923 	 51.5484
| 10> C 	 -2.01226 	 -11.1456 	 52.0251
| 11> C 	 -1.72689 	 -10.8718 	 53.351
| 12> H 	 -1.62479 	 -11.9079 	 51.4291
| 13> C 	 -3.55034 	 -10.2358 	 50.2103
| 14> H 	 -2.90314 	 -9.69982 	 49.5025
| 15> H 	 -4.38672 	 -9.65197 	 50.1458
| 16> C 	 -3.88468 	 -11.6783 	 49.6165
| 17> H 	 -4.17293 	 -11.5282 	 48.5472
| 18> H 	 -3.12616 	 -12.3504 	 49.5821
| 19> C 	 -5.14954 	 -12.2597 	 50.2975
| 20> H 	 -4.95678 	 -12.3274 	 51.313
| 21> H 	 -6.09371 	 -11.6701 	 50.1678
| 22> H 	 -5.32593 	 -13.1664 	 49.844
| 23> S 	 0.883175 	 -11.4433 	 53.6832
| 24> C 	 1.23832 	 -12.5019 	 55.0322
| 25> C 	 0.175597 	 -12.9884 	 55.7177
| 26> C 	 -1.06345 	 -12.4918 	 55.1919
| 27> C 	 -0.786873 	 -11.5911 	 54.1487
| 28> H 	 0.365872 	 -13.6633 	 56.4941
| 29> C 	 -2.40964 	 -12.7651 	 55.7983
| 30> H 	 -2.91919 	 -11.8536 	 55.7718
| 31> H 	 -2.30056 	 -12.8574 	 56.8606
| 32> C 	 -3.24823 	 -13.8208 	 55.1331
| 33> H 	 -2.60971 	 -14.7041 	 54.9377
| 34> H 	 -3.741 	 -13.5906 	 54.1694
| 35> C 	 -4.49084 	 -14.2042 	 55.8948
| 36> H 	 -4.33692 	 -14.5091 	 56.8892
| 37> H 	 -5.00324 	 -15.0065 	 55.3281
| 38> H 	 -5.18718 	 -13.4213 	 56.1376
| 39> H 	 -3.87175 	 -8.41745 	 52.2553
| 40> H 	 2.25792 	 -12.6652 	 55.3294
| 41> *
| 42>
| 43>                          ****END OF INPUT****

CARTESIAN COORDINATES (ANGSTROEM)
---------------------------------
  S     -2.568420   -9.486360   54.074000
  C     -3.273790   -9.232700   52.456000
  C     -2.968460  -10.192300   51.548400
  C     -2.012260  -11.145600   52.025100
  C     -1.726890  -10.871800   53.351000
  H     -1.624790  -11.907900   51.429100
  C     -3.550340  -10.235800   50.210300
  H     -2.903140   -9.699820   49.502500
  H     -4.386720   -9.651970   50.145800
  C     -3.884680  -11.678300   49.616500
  H     -4.172930  -11.528200   48.547200
  H     -3.126160  -12.350400   49.582100
  C     -5.149540  -12.259700   50.297500
  H     -4.956780  -12.327400   51.313000
  H     -6.093710  -11.670100   50.167800
  H     -5.325930  -13.166400   49.844000
  S      0.883175  -11.443300   53.683200
  C      1.238320  -12.501900   55.032200
  C      0.175597  -12.988400   55.717700
  C     -1.063450  -12.491800   55.191900
  C     -0.786873  -11.591100   54.148700
  H      0.365872  -13.663300   56.494100
  C     -2.409640  -12.765100   55.798300
  H     -2.919190  -11.853600   55.771800
  H     -2.300560  -12.857400   56.860600
  C     -3.248230  -13.820800   55.133100
  H     -2.609710  -14.704100   54.937700
  H     -3.741000  -13.590600   54.169400
  C     -4.490840  -14.204200   55.894800
  H     -4.336920  -14.509100   56.889200
  H     -5.003240  -15.006500   55.328100
  H     -5.187180  -13.421300   56.137600
  H     -3.871750   -8.417450   52.255300
  H      2.257920  -12.665200   55.329400

 Total Charge           Charge          ....    0
 Multiplicity           Mult            ....    1
 Number of Electrons    NEL             ....  134
 Basis Dimension        Dim             ....  322

ORBITAL ENERGIES
----------------

  NO   OCC          E(Eh)            E(eV)
   0   2.0000     -88.966129     -2420.8914
   1   2.0000     -88.965719     -2420.8803
   2   2.0000     -10.324821      -280.9527
   3   2.0000     -10.315989      -280.7123
   4   2.0000     -10.307578      -280.4834
   5   2.0000     -10.301550      -280.3194
   6   2.0000     -10.300630      -280.2944
   7   2.0000     -10.291898      -280.0568
   8   2.0000     -10.289286      -279.9857
   9   2.0000     -10.286932      -279.9216
  10   2.0000     -10.285812      -279.8912
  11   2.0000     -10.282898      -279.8119
  12   2.0000     -10.282765      -279.8083
  13   2.0000     -10.280031      -279.7339
  14   2.0000     -10.267745      -279.3995
  15   2.0000     -10.267032      -279.3802
  16   2.0000      -8.080734      -219.8880
  17   2.0000      -8.079860      -219.8642
  18   2.0000      -6.039008      -164.3298
  19   2.0000      -6.038275      -164.3098
  20   2.0000      -6.035464      -164.2333
  21   2.0000      -6.034813      -164.2156
  22   2.0000      -6.031482      -164.1250
  23   2.0000      -6.030487      -164.0979
  24   2.0000      -1.005749       -27.3678
  25   2.0000      -0.980817       -26.6894
  26   2.0000      -0.913271       -24.8514
  27   2.0000      -0.910704       -24.7815
  28   2.0000      -0.870258       -23.6809
  29   2.0000      -0.855761       -23.2864
  30   2.0000      -0.847748       -23.0684
  31   2.0000      -0.818167       -22.2635
  32   2.0000      -0.788777       -21.4637
  33   2.0000      -0.769258       -20.9326
  34   2.0000      -0.715493       -19.4696
  35   2.0000      -0.703448       -19.1418
  36   2.0000      -0.692616       -18.8470
  37   2.0000      -0.662606       -18.0304
  38   2.0000      -0.642994       -17.4967
  39   2.0000      -0.628545       -17.1036
  40   2.0000      -0.600277       -16.3344
  41   2.0000      -0.565451       -15.3867
  42   2.0000      -0.557176       -15.1615
  43   2.0000      -0.555159       -15.1066
  44   2.0000      -0.539332       -14.6760
  45   2.0000      -0.535212       -14.5639
  46   2.0000      -0.518064       -14.0972
  47   2.0000      -0.511815       -13.9272
  48   2.0000      -0.507550       -13.8111
  49   2.0000      -0.502559       -13.6753
  50   2.0000      -0.490145       -13.3375
  51   2.0000      -0.473911       -12.8958
  52   2.0000      -0.465881       -12.6773
  53   2.0000      -0.461426       -12.5561
  54   2.0000      -0.454866       -12.3775
  55   2.0000      -0.453043       -12.3279
  56   2.0000      -0.447080       -12.1657
  57   2.0000      -0.442972       -12.0539
  58   2.0000      -0.439789       -11.9673
  59   2.0000      -0.429004       -11.6738
  60   2.0000      -0.423177       -11.5152
  61   2.0000      -0.417015       -11.3476
  62   2.0000      -0.401596       -10.9280
  63   2.0000      -0.337479        -9.1833
  64   2.0000      -0.333025        -9.0621
  65   2.0000      -0.323861        -8.8127
  66   2.0000      -0.291912        -7.9433
  67   0.0000       0.042647         1.1605
  68   0.0000       0.061374         1.6701
  69   0.0000       0.102909         2.8003
  70   0.0000       0.110588         3.0092
  71   0.0000       0.132803         3.6138

MULLIKEN ATOMIC CHARGES
-----------------------
   0 S :    0.107216
   1 C :   -0.108222
   2 C :   -0.058628
   3 C :    0.050903
   4 C :   -0.156832
   5 H :   -0.007542
   6 C :    0.108514
   7 H :    0.034187
   8 H :   -0.017679
   9 C :   -0.081894
  10 H :    0.026883
  11 H :    0.013207
  12 C :   -0.012876
  13 H :    0.027533
  14 H :    0.031389
  15 H :    0.015993
  16 S :    0.126867
  17 C :   -0.090218
  18 C :   -0.009622
  19 C :   -0.027786
  20 C :   -0.188155
  21 H :   -0.003514
  22 C :    0.149415
  23 H :   -0.015177
  24 H :    0.010650
  25 C :   -0.071032
  26 H :    0.029755
  27 H :    0.040497
  28 C :   -0.029268
  29 H :   -0.000069
  30 H :    0.037879
  31 H :    0.017725
  32 H :    0.007051
  33 H :    0.042851
Sum of atomic charges:   -0.0000000

LOEWDIN ATOMIC CHARGES
----------------------
   0 S :    0.381467
   1 C :   -0.177180
   2 C :   -0.059331
   3 C :   -0.049256
   4 C :   -0.174574
   5 H :    0.024102
   6 C :   -0.027746
   7 H :    0.037659
   8 H :    0.017633
   9 C :   -0.024139
  10 H :    0.030285
  11 H :    0.005579
  12 C :   -0.052288
  13 H :    0.015645
  14 H :    0.031532
  15 H :    0.014851
  16 S :    0.412378
  17 C :   -0.179641
  18 C :   -0.062589
  19 C :   -0.045686
  20 C :   -0.208386
  21 H :    0.025577
  22 C :   -0.034542
  23 H :    0.019861
  24 H :    0.031728
  25 C :   -0.041331
  26 H :    0.026246
  27 H :    0.034142
  28 C :   -0.067713
  29 H :    0.011883
  30 H :    0.032322
  31 H :    0.023946
  32 H :    0.007280
  33 H :    0.020285

  Mayer bond orders larger than 0.100000
B(  0-S ,  1-C ) :   1.1044 B(  0-S ,  4-C ) :   1.1485 B(  1-C ,  2-C ) :   1.6520
B(  1-C , 32-H ) :   0.9765 B(  2-C ,  3-C ) :   1.1906 B(  2-C ,  6-C ) :   1.0422
B(  3-C ,  4-C ) :   1.5919 B(  3-C ,  5-H ) :   1.0097 B(  4-C , 20-C ) :   1.0286
B(  6-C ,  7-H ) :   0.9207 B(  6-C ,  8-H ) :   0.9285 B(  6-C ,  9-C ) :   1.0713
B(  9-C , 10-H ) :   0.9551 B(  9-C , 11-H ) :   0.9621 B(  9-C , 12-C ) :   1.0706
B( 12-C , 13-H ) :   0.9805 B( 12-C , 14-H ) :   0.9746 B( 12-C , 15-H ) :   0.9734
B( 16-S , 17-C ) :   1.1394 B( 16-S , 20-C ) :   1.1548 B( 17-C , 18-C ) :   1.6440
B( 17-C , 33-H ) :   0.9657 B( 18-C , 19-C ) :   1.2047 B( 18-C , 21-H ) :   1.0023
B( 19-C , 20-C ) :   1.5966 B( 19-C , 22-C ) :   1.0448 B( 22-C , 23-H ) :   0.9026
B( 22-C , 24-H ) :   0.9329 B( 22-C , 25-C ) :   1.0603 B( 25-C , 26-H ) :   0.9572
B( 25-C , 27-H ) :   0.9527 B( 25-C , 28-C ) :   1.0823 B( 28-C , 29-H ) :   0.9686
B( 28-C , 30-H ) :   0.9750 B( 28-C , 31-H ) :   0.9691

Dispersion correction           -0.014851654
FINAL SINGLE POINT ENERGY     -1339.849601238904

DIPOLE MOMENT
-------------
                                X             Y             Z
Electronic contribution:     21.45238      14.15503       6.60244
Nuclear contribution   :    -21.73105     -14.42011      -6.79253
                        -----------------------------------------
Total Dipole Moment    :     -0.27867      -0.26508      -0.19009
                        -----------------------------------------
Magnitude (a.u.)       :      0.42902
Magnitude (Debye)      :      1.09049

Rotational constants in cm-1:     0.016852     0.009775     0.007933
Rotational constants in MHz :   505.221925   293.046752   237.836425

                             ****ORCA TERMINATED NORMALLY****
TOTAL RUN TIME: 0 days 0 hours 0 minutes 29 seconds 851 msec
