                         Program Version 4.2.1 -  RELEASE  -
|  1> ! wB97X-D3 SP def2-SVP
|  2> %pal
|  3> nprocs 16
|  4> end
|  5>
|  6> * xyz 0 1
|  7> S 	 -56.1396 	 56.338 	 136.284
|  8> C 	 -54.6002 	 57.2561 	 136.32
|  9> C 	 -54.4576 	 57.8821 	 137.533
| 10> C 	 -55.6203 	 57.8182 	 138.363
| 11> C 	 -56.5729 	 56.9349 	 137.855
| 12> H 	 -55.6586 	 58.3625 	 139.312
| 13> C 	 -53.3182 	 58.7337 	 138.009
| 14> H 	 -53.6381 	 59.7031 	 138.109
| 15> H 	 -52.6498 	 58.8811 	 137.139
| 16> C 	 -52.6285 	 58.4171 	 139.331
| 17> H 	 -53.3455 	 58.3476 	 140.113
| 18> H 	 -51.9538 	 57.5362 	 139.219
| 19> C 	 -51.661 	 59.5661 	 139.728
| 20> H 	 -51.9949 	 60.5852 	 139.442
| 21> H 	 -51.5443 	 59.6 	 140.806
| 22> H 	 -50.7559 	 59.3868 	 139.105
| 23> S 	 -59.1368 	 56.6125 	 137.047
| 24> C 	 -60.3574 	 56.1302 	 138.206
| 25> C 	 -59.8596 	 56.108 	 139.494
| 26> C 	 -58.575 	 56.5592 	 139.598
| 27> C 	 -57.9642 	 56.6951 	 138.339
| 28> H 	 -60.5389 	 55.8232 	 140.251
| 29> C 	 -57.847 	 56.6624 	 140.981
| 30> H 	 -56.7507 	 56.3865 	 140.955
| 31> H 	 -58.3312 	 55.8167 	 141.541
| 32> C 	 -58.0269 	 57.9922 	 141.703
| 33> H 	 -59.1269 	 58.2066 	 141.8
| 34> H 	 -57.6021 	 58.7654 	 141.099
| 35> C 	 -57.4475 	 58.1559 	 143.147
| 36> H 	 -56.5081 	 57.656 	 143.241
| 37> H 	 -57.9733 	 57.5354 	 143.857
| 38> H 	 -57.3934 	 59.1943 	 143.53
| 39> H 	 -53.7579 	 57.0682 	 135.743
| 40> H 	 -61.4127 	 55.9031 	 137.984
| 41> *
| 42>
| 43>                          ****END OF INPUT****

CARTESIAN COORDINATES (ANGSTROEM)
---------------------------------
  S    -56.139600   56.338000  136.284000
  C    -54.600200   57.256100  136.320000
  C    -54.457600   57.882100  137.533000
  C    -55.620300   57.818200  138.363000
  C    -56.572900   56.934900  137.855000
  H    -55.658600   58.362500  139.312000
  C    -53.318200   58.733700  138.009000
  H    -53.638100   59.703100  138.109000
  H    -52.649800   58.881100  137.139000
  C    -52.628500   58.417100  139.331000
  H    -53.345500   58.347600  140.113000
  H    -51.953800   57.536200  139.219000
  C    -51.661000   59.566100  139.728000
  H    -51.994900   60.585200  139.442000
  H    -51.544300   59.600000  140.806000
  H    -50.755900   59.386800  139.105000
  S    -59.136800   56.612500  137.047000
  C    -60.357400   56.130200  138.206000
  C    -59.859600   56.108000  139.494000
  C    -58.575000   56.559200  139.598000
  C    -57.964200   56.695100  138.339000
  H    -60.538900   55.823200  140.251000
  C    -57.847000   56.662400  140.981000
  H    -56.750700   56.386500  140.955000
  H    -58.331200   55.816700  141.541000
  C    -58.026900   57.992200  141.703000
  H    -59.126900   58.206600  141.800000
  H    -57.602100   58.765400  141.099000
  C    -57.447500   58.155900  143.147000
  H    -56.508100   57.656000  143.241000
  H    -57.973300   57.535400  143.857000
  H    -57.393400   59.194300  143.530000
  H    -53.757900   57.068200  135.743000
  H    -61.412700   55.903100  137.984000

 Total Charge           Charge          ....    0
 Multiplicity           Mult            ....    1
 Number of Electrons    NEL             ....  134
 Basis Dimension        Dim             ....  322

ORBITAL ENERGIES
----------------

  NO   OCC          E(Eh)            E(eV)
   0   2.0000     -88.968822     -2420.9647
   1   2.0000     -88.968679     -2420.9608
   2   2.0000     -10.336113      -281.2599
   3   2.0000     -10.330909      -281.1183
   4   2.0000     -10.315358      -280.6952
   5   2.0000     -10.309024      -280.5228
   6   2.0000     -10.305247      -280.4200
   7   2.0000     -10.303468      -280.3716
   8   2.0000     -10.298507      -280.2366
   9   2.0000     -10.293834      -280.1095
  10   2.0000     -10.290766      -280.0260
  11   2.0000     -10.290695      -280.0240
  12   2.0000     -10.287054      -279.9250
  13   2.0000     -10.284848      -279.8650
  14   2.0000     -10.284220      -279.8479
  15   2.0000     -10.279883      -279.7298
  16   2.0000      -8.083267      -219.9569
  17   2.0000      -8.082930      -219.9477
  18   2.0000      -6.041646      -164.4015
  19   2.0000      -6.041577      -164.3997
  20   2.0000      -6.037727      -164.2949
  21   2.0000      -6.037536      -164.2897
  22   2.0000      -6.034227      -164.1997
  23   2.0000      -6.033546      -164.1811
  24   2.0000      -1.008958       -27.4552
  25   2.0000      -0.985521       -26.8174
  26   2.0000      -0.917532       -24.9673
  27   2.0000      -0.903427       -24.5835
  28   2.0000      -0.871475       -23.7140
  29   2.0000      -0.851356       -23.1666
  30   2.0000      -0.845358       -23.0034
  31   2.0000      -0.813531       -22.1373
  32   2.0000      -0.783438       -21.3184
  33   2.0000      -0.775037       -21.0898
  34   2.0000      -0.709002       -19.2929
  35   2.0000      -0.700929       -19.0732
  36   2.0000      -0.693394       -18.8682
  37   2.0000      -0.663989       -18.0680
  38   2.0000      -0.637372       -17.3438
  39   2.0000      -0.626007       -17.0345
  40   2.0000      -0.593749       -16.1567
  41   2.0000      -0.575218       -15.6525
  42   2.0000      -0.569920       -15.5083
  43   2.0000      -0.556660       -15.1475
  44   2.0000      -0.531417       -14.4606
  45   2.0000      -0.524581       -14.2746
  46   2.0000      -0.521168       -14.1817
  47   2.0000      -0.510699       -13.8968
  48   2.0000      -0.500883       -13.6297
  49   2.0000      -0.497256       -13.5310
  50   2.0000      -0.493442       -13.4272
  51   2.0000      -0.482260       -13.1230
  52   2.0000      -0.466139       -12.6843
  53   2.0000      -0.462722       -12.5913
  54   2.0000      -0.455821       -12.4035
  55   2.0000      -0.452751       -12.3200
  56   2.0000      -0.448002       -12.1908
  57   2.0000      -0.441107       -12.0031
  58   2.0000      -0.436174       -11.8689
  59   2.0000      -0.426982       -11.6188
  60   2.0000      -0.419741       -11.4217
  61   2.0000      -0.414762       -11.2862
  62   2.0000      -0.412684       -11.2297
  63   2.0000      -0.352609        -9.5950
  64   2.0000      -0.338332        -9.2065
  65   2.0000      -0.331066        -9.0088
  66   2.0000      -0.285303        -7.7635
  67   0.0000       0.022065         0.6004
  68   0.0000       0.074062         2.0153
  69   0.0000       0.104377         2.8403
  70   0.0000       0.120344         3.2747
  71   0.0000       0.125976         3.4280

MULLIKEN ATOMIC CHARGES
-----------------------
   0 S :    0.091998
   1 C :   -0.091401
   2 C :   -0.080545
   3 C :   -0.000291
   4 C :   -0.094802
   5 H :    0.019106
   6 C :    0.068966
   7 H :    0.002000
   8 H :    0.005913
   9 C :   -0.056156
  10 H :    0.021831
  11 H :    0.045299
  12 C :   -0.073879
  13 H :    0.024666
  14 H :    0.041602
  15 H :    0.040989
  16 S :    0.112614
  17 C :   -0.107299
  18 C :   -0.031936
  19 C :    0.002480
  20 C :   -0.157653
  21 H :    0.004554
  22 C :    0.013892
  23 H :    0.040720
  24 H :    0.028963
  25 C :   -0.072080
  26 H :    0.034786
  27 H :    0.026982
  28 C :   -0.030975
  29 H :    0.010479
  30 H :    0.016424
  31 H :    0.051892
  32 H :    0.029855
  33 H :    0.061006
Sum of atomic charges:   -0.0000000

LOEWDIN ATOMIC CHARGES
----------------------
   0 S :    0.395288
   1 C :   -0.188720
   2 C :   -0.052735
   3 C :   -0.069808
   4 C :   -0.184663
   5 H :    0.031627
   6 C :   -0.037645
   7 H :    0.022464
   8 H :    0.031529
   9 C :   -0.032382
  10 H :    0.016652
  11 H :    0.032723
  12 C :   -0.067785
  13 H :    0.022130
  14 H :    0.026416
  15 H :    0.031413
  16 S :    0.415212
  17 C :   -0.192758
  18 C :   -0.069273
  19 C :   -0.059463
  20 C :   -0.191375
  21 H :    0.028923
  22 C :   -0.035032
  23 H :    0.033604
  24 H :    0.033005
  25 C :   -0.044980
  26 H :    0.030062
  27 H :    0.018694
  28 C :   -0.070983
  29 H :    0.019789
  30 H :    0.023119
  31 H :    0.034292
  32 H :    0.016932
  33 H :    0.033732

  Mayer bond orders larger than 0.100000
B(  0-S ,  1-C ) :   1.1023 B(  0-S ,  4-C ) :   1.1628 B(  1-C ,  2-C ) :   1.6422
B(  1-C , 32-H ) :   0.9633 B(  2-C ,  3-C ) :   1.2343 B(  2-C ,  6-C ) :   1.0308
B(  3-C ,  4-C ) :   1.5530 B(  3-C ,  5-H ) :   0.9884 B(  4-C , 20-C ) :   1.0267
B(  6-C ,  7-H ) :   0.9293 B(  6-C ,  8-H ) :   0.9358 B(  6-C ,  9-C ) :   1.0638
B(  9-C , 10-H ) :   0.9548 B(  9-C , 11-H ) :   0.9594 B(  9-C , 12-C ) :   1.0718
B( 12-C , 13-H ) :   0.9759 B( 12-C , 14-H ) :   0.9766 B( 12-C , 15-H ) :   0.9802
B( 16-S , 17-C ) :   1.1551 B( 16-S , 20-C ) :   1.1686 B( 17-C , 18-C ) :   1.5893
B( 17-C , 20-C ) :   0.1113 B( 17-C , 33-H ) :   0.9640 B( 18-C , 19-C ) :   1.2819
B( 18-C , 21-H ) :   0.9954 B( 19-C , 20-C ) :   1.5524 B( 19-C , 22-C ) :   1.0189
B( 22-C , 23-H ) :   0.9409 B( 22-C , 24-H ) :   0.9434 B( 22-C , 25-C ) :   1.0611
B( 25-C , 26-H ) :   0.9555 B( 25-C , 27-H ) :   0.9562 B( 25-C , 28-C ) :   1.0751
B( 28-C , 29-H ) :   0.9707 B( 28-C , 30-H ) :   0.9717 B( 28-C , 31-H ) :   0.9765

Dispersion correction           -0.013549199
FINAL SINGLE POINT ENERGY     -1339.862036850694

DIPOLE MOMENT
-------------
                                X             Y             Z
Electronic contribution:    -17.06487     -12.80148     -25.94253
Nuclear contribution   :     17.28735      13.04044      26.58380
                        -----------------------------------------
Total Dipole Moment    :      0.22248       0.23896       0.64126
                        -----------------------------------------
Magnitude (a.u.)       :      0.71960
Magnitude (Debye)      :      1.82907

Rotational constants in cm-1:     0.016198     0.009514     0.006208
Rotational constants in MHz :   485.591395   285.236653   186.098408

                             ****ORCA TERMINATED NORMALLY****
TOTAL RUN TIME: 0 days 0 hours 0 minutes 32 seconds 622 msec
