                         Program Version 4.2.1 -  RELEASE  -
|  1> ! wB97X-D3 SP def2-SVP
|  2> %pal
|  3> nprocs 16
|  4> end
|  5>
|  6> * xyz 0 1
|  7> S 	 -108.079 	 55.6879 	 120.415
|  8> C 	 -106.823 	 56.7861 	 120.975
|  9> C 	 -105.579 	 56.4735 	 120.544
| 10> C 	 -105.637 	 55.4251 	 119.578
| 11> C 	 -106.94 	 55.0094 	 119.309
| 12> H 	 -104.835 	 55.1877 	 118.937
| 13> C 	 -104.315 	 57.1176 	 121.11
| 14> H 	 -103.446 	 56.4973 	 120.937
| 15> H 	 -104.47 	 57.2727 	 122.164
| 16> C 	 -104.128 	 58.5187 	 120.527
| 17> H 	 -103.212 	 58.9525 	 121.056
| 18> H 	 -103.839 	 58.3086 	 119.487
| 19> C 	 -105.228 	 59.5005 	 120.621
| 20> H 	 -104.761 	 60.5212 	 120.674
| 21> H 	 -105.859 	 59.4191 	 119.742
| 22> H 	 -105.785 	 59.4261 	 121.555
| 23> S 	 -107.922 	 52.6499 	 119.321
| 24> C 	 -108.102 	 51.661 	 117.888
| 25> C 	 -107.68 	 52.3944 	 116.792
| 26> C 	 -107.252 	 53.7127 	 117.081
| 27> C 	 -107.247 	 53.9301 	 118.387
| 28> H 	 -107.901 	 51.9711 	 115.827
| 29> C 	 -106.967 	 54.7892 	 116.048
| 30> H 	 -105.882 	 54.9863 	 116.187
| 31> H 	 -107.507 	 55.7446 	 116.294
| 32> C 	 -107.417 	 54.4472 	 114.604
| 33> H 	 -108.532 	 54.2915 	 114.619
| 34> H 	 -106.946 	 53.5091 	 114.339
| 35> C 	 -107.013 	 55.3955 	 113.493
| 36> H 	 -105.994 	 55.536 	 113.288
| 37> H 	 -107.307 	 56.3955 	 113.698
| 38> H 	 -107.408 	 55.2346 	 112.517
| 39> H 	 -107.018 	 57.4362 	 121.854
| 40> H 	 -108.708 	 50.7152 	 117.771
| 41> *
| 42>
| 43>                          ****END OF INPUT****

CARTESIAN COORDINATES (ANGSTROEM)
---------------------------------
  S    -108.079000   55.687900  120.415000
  C    -106.823000   56.786100  120.975000
  C    -105.579000   56.473500  120.544000
  C    -105.637000   55.425100  119.578000
  C    -106.940000   55.009400  119.309000
  H    -104.835000   55.187700  118.937000
  C    -104.315000   57.117600  121.110000
  H    -103.446000   56.497300  120.937000
  H    -104.470000   57.272700  122.164000
  C    -104.128000   58.518700  120.527000
  H    -103.212000   58.952500  121.056000
  H    -103.839000   58.308600  119.487000
  C    -105.228000   59.500500  120.621000
  H    -104.761000   60.521200  120.674000
  H    -105.859000   59.419100  119.742000
  H    -105.785000   59.426100  121.555000
  S    -107.922000   52.649900  119.321000
  C    -108.102000   51.661000  117.888000
  C    -107.680000   52.394400  116.792000
  C    -107.252000   53.712700  117.081000
  C    -107.247000   53.930100  118.387000
  H    -107.901000   51.971100  115.827000
  C    -106.967000   54.789200  116.048000
  H    -105.882000   54.986300  116.187000
  H    -107.507000   55.744600  116.294000
  C    -107.417000   54.447200  114.604000
  H    -108.532000   54.291500  114.619000
  H    -106.946000   53.509100  114.339000
  C    -107.013000   55.395500  113.493000
  H    -105.994000   55.536000  113.288000
  H    -107.307000   56.395500  113.698000
  H    -107.408000   55.234600  112.517000
  H    -107.018000   57.436200  121.854000
  H    -108.708000   50.715200  117.771000

 Total Charge           Charge          ....    0
 Multiplicity           Mult            ....    1
 Number of Electrons    NEL             ....  134
 Basis Dimension        Dim             ....  322

ORBITAL ENERGIES
----------------

  NO   OCC          E(Eh)            E(eV)
   0   2.0000     -88.968239     -2420.9489
   1   2.0000     -88.958771     -2420.6912
   2   2.0000     -10.325793      -280.9791
   3   2.0000     -10.315952      -280.7113
   4   2.0000     -10.313235      -280.6374
   5   2.0000     -10.309601      -280.5385
   6   2.0000     -10.298636      -280.2401
   7   2.0000     -10.296424      -280.1799
   8   2.0000     -10.296367      -280.1784
   9   2.0000     -10.292311      -280.0680
  10   2.0000     -10.290089      -280.0076
  11   2.0000     -10.289305      -279.9862
  12   2.0000     -10.289282      -279.9856
  13   2.0000     -10.286045      -279.8975
  14   2.0000     -10.277255      -279.6583
  15   2.0000     -10.267597      -279.3955
  16   2.0000      -8.083174      -219.9544
  17   2.0000      -8.074465      -219.7174
  18   2.0000      -6.041548      -164.3989
  19   2.0000      -6.037819      -164.2974
  20   2.0000      -6.033892      -164.1905
  21   2.0000      -6.033039      -164.1673
  22   2.0000      -6.028764      -164.0510
  23   2.0000      -6.025137      -163.9523
  24   2.0000      -1.016334       -27.6559
  25   2.0000      -0.989060       -26.9137
  26   2.0000      -0.919024       -25.0079
  27   2.0000      -0.907243       -24.6873
  28   2.0000      -0.870455       -23.6863
  29   2.0000      -0.856474       -23.3059
  30   2.0000      -0.848347       -23.0847
  31   2.0000      -0.812616       -22.1124
  32   2.0000      -0.787728       -21.4352
  33   2.0000      -0.780449       -21.2371
  34   2.0000      -0.710155       -19.3243
  35   2.0000      -0.698417       -19.0049
  36   2.0000      -0.684982       -18.6393
  37   2.0000      -0.656938       -17.8762
  38   2.0000      -0.640064       -17.4170
  39   2.0000      -0.619253       -16.8507
  40   2.0000      -0.593827       -16.1589
  41   2.0000      -0.570348       -15.5200
  42   2.0000      -0.567788       -15.4503
  43   2.0000      -0.559720       -15.2308
  44   2.0000      -0.537765       -14.6333
  45   2.0000      -0.521128       -14.1806
  46   2.0000      -0.519334       -14.1318
  47   2.0000      -0.510436       -13.8897
  48   2.0000      -0.507805       -13.8181
  49   2.0000      -0.499363       -13.5884
  50   2.0000      -0.493256       -13.4222
  51   2.0000      -0.478872       -13.0308
  52   2.0000      -0.473268       -12.8783
  53   2.0000      -0.468222       -12.7410
  54   2.0000      -0.459062       -12.4917
  55   2.0000      -0.451541       -12.2871
  56   2.0000      -0.448309       -12.1991
  57   2.0000      -0.438872       -11.9423
  58   2.0000      -0.430078       -11.7030
  59   2.0000      -0.421628       -11.4731
  60   2.0000      -0.419713       -11.4210
  61   2.0000      -0.413791       -11.2598
  62   2.0000      -0.408326       -11.1111
  63   2.0000      -0.337760        -9.1909
  64   2.0000      -0.331669        -9.0252
  65   2.0000      -0.328420        -8.9368
  66   2.0000      -0.298028        -8.1098
  67   0.0000       0.037190         1.0120
  68   0.0000       0.064443         1.7536
  69   0.0000       0.107743         2.9318
  70   0.0000       0.128730         3.5029
  71   0.0000       0.136638         3.7181

MULLIKEN ATOMIC CHARGES
-----------------------
   0 S :    0.130540
   1 C :   -0.144545
   2 C :   -0.096784
   3 C :    0.055112
   4 C :   -0.168302
   5 H :    0.000166
   6 C :    0.102788
   7 H :    0.026459
   8 H :    0.021108
   9 C :   -0.119384
  10 H :    0.034473
  11 H :    0.023423
  12 C :   -0.021292
  13 H :    0.038061
  14 H :    0.049657
  15 H :    0.019478
  16 S :    0.093330
  17 C :   -0.106563
  18 C :   -0.065122
  19 C :   -0.010892
  20 C :   -0.171742
  21 H :    0.014011
  22 C :    0.052037
  23 H :    0.039233
  24 H :    0.047012
  25 C :   -0.103804
  26 H :    0.046955
  27 H :    0.032543
  28 C :    0.017854
  29 H :    0.010298
  30 H :    0.002117
  31 H :    0.019361
  32 H :    0.056183
  33 H :    0.076231
Sum of atomic charges:    0.0000000

LOEWDIN ATOMIC CHARGES
----------------------
   0 S :    0.412563
   1 C :   -0.199671
   2 C :   -0.062720
   3 C :   -0.056532
   4 C :   -0.207341
   5 H :    0.023208
   6 C :   -0.024750
   7 H :    0.031271
   8 H :    0.026634
   9 C :   -0.049011
  10 H :    0.027214
  11 H :    0.023281
  12 C :   -0.069015
  13 H :    0.036726
  14 H :    0.030843
  15 H :    0.022009
  16 S :    0.414926
  17 C :   -0.201342
  18 C :   -0.074156
  19 C :   -0.069020
  20 C :   -0.194963
  21 H :    0.027909
  22 C :   -0.031429
  23 H :    0.036715
  24 H :    0.039164
  25 C :   -0.043306
  26 H :    0.034478
  27 H :    0.021558
  28 C :   -0.065112
  29 H :    0.020671
  30 H :    0.019944
  31 H :    0.026673
  32 H :    0.028497
  33 H :    0.044085

  Mayer bond orders larger than 0.100000
B(  0-S ,  1-C ) :   1.1262 B(  0-S ,  4-C ) :   1.1623 B(  1-C ,  2-C ) :   1.6381
B(  1-C , 32-H ) :   0.9536 B(  2-C ,  3-C ) :   1.2519 B(  2-C ,  6-C ) :   1.0136
B(  3-C ,  4-C ) :   1.5691 B(  3-C ,  5-H ) :   0.9961 B(  4-C , 20-C ) :   1.0060
B(  6-C ,  7-H ) :   0.9447 B(  6-C ,  8-H ) :   0.9368 B(  6-C ,  9-C ) :   1.0764
B(  9-C , 10-H ) :   0.9595 B(  9-C , 11-H ) :   0.9530 B(  9-C , 12-C ) :   1.0895
B( 12-C , 13-H ) :   0.9690 B( 12-C , 14-H ) :   0.9682 B( 12-C , 15-H ) :   0.9680
B( 16-S , 17-C ) :   1.1428 B( 16-S , 20-C ) :   1.1524 B( 17-C , 18-C ) :   1.6282
B( 17-C , 33-H ) :   0.9570 B( 18-C , 19-C ) :   1.2200 B( 18-C , 21-H ) :   0.9845
B( 19-C , 20-C ) :   1.6639 B( 19-C , 22-C ) :   1.0161 B( 22-C , 23-H ) :   0.9306
B( 22-C , 24-H ) :   0.9401 B( 22-C , 25-C ) :   1.0770 B( 25-C , 26-H ) :   0.9549
B( 25-C , 27-H ) :   0.9482 B( 25-C , 28-C ) :   1.0867 B( 28-C , 29-H ) :   0.9703
B( 28-C , 30-H ) :   0.9667 B( 28-C , 31-H ) :   0.9701

Dispersion correction           -0.013847527
FINAL SINGLE POINT ENERGY     -1339.862894714460

DIPOLE MOMENT
-------------
                                X             Y             Z
Electronic contribution:    -12.32106     -17.75536      14.49496
Nuclear contribution   :     12.61694      18.09543     -14.81726
                        -----------------------------------------
Total Dipole Moment    :      0.29588       0.34007      -0.32230
                        -----------------------------------------
Magnitude (a.u.)       :      0.55414
Magnitude (Debye)      :      1.40851

Rotational constants in cm-1:     0.018988     0.008247     0.006382
Rotational constants in MHz :   569.252974   247.224343   191.330444

                             ****ORCA TERMINATED NORMALLY****
TOTAL RUN TIME: 0 days 0 hours 0 minutes 33 seconds 917 msec
