                         Program Version 4.2.1 -  RELEASE  -
|  1> ! wB97X-D3 SP def2-SVP
|  2> %pal
|  3> nprocs 16
|  4> end
|  5>
|  6> * xyz 0 1
|  7> S 	 -112.758 	 42.4673 	 132.121
|  8> C 	 -113.514 	 41.1013 	 132.831
|  9> C 	 -114.23 	 41.4225 	 133.977
| 10> C 	 -114.123 	 42.8242 	 134.282
| 11> C 	 -113.332 	 43.5729 	 133.407
| 12> H 	 -114.721 	 43.2662 	 135.092
| 13> C 	 -115.215 	 40.4843 	 134.656
| 14> H 	 -115.691 	 39.7287 	 134.011
| 15> H 	 -116.035 	 41.0798 	 135.065
| 16> C 	 -114.683 	 39.6721 	 135.848
| 17> H 	 -115.358 	 38.8785 	 136.037
| 18> H 	 -113.756 	 39.2723 	 135.485
| 19> C 	 -114.366 	 40.5325 	 137.085
| 20> H 	 -114.142 	 39.848 	 137.958
| 21> H 	 -113.499 	 41.1744 	 137.12
| 22> H 	 -115.227 	 41.0798 	 137.365
| 23> S 	 -111.522 	 45.681 	 133.147
| 24> C 	 -112.069 	 47.3309 	 133.151
| 25> C 	 -113.434 	 47.2983 	 133.012
| 26> C 	 -114.111 	 46.0618 	 133.091
| 27> C 	 -113.156 	 45.0328 	 133.271
| 28> H 	 -113.92 	 48.1962 	 132.884
| 29> C 	 -115.634 	 45.8807 	 132.923
| 30> H 	 -115.873 	 44.9584 	 132.409
| 31> H 	 -115.838 	 46.7301 	 132.259
| 32> C 	 -116.464 	 45.9866 	 134.194
| 33> H 	 -116.409 	 46.9276 	 134.668
| 34> H 	 -116.183 	 45.2049 	 134.856
| 35> C 	 -117.957 	 45.7548 	 133.73
| 36> H 	 -118.105 	 46.2978 	 132.815
| 37> H 	 -118.745 	 45.9812 	 134.422
| 38> H 	 -118.149 	 44.7513 	 133.377
| 39> H 	 -113.636 	 40.1077 	 132.353
| 40> H 	 -111.565 	 48.29 	 133.167
| 41> *
| 42>
| 43>                          ****END OF INPUT****

CARTESIAN COORDINATES (ANGSTROEM)
---------------------------------
  S    -112.758000   42.467300  132.121000
  C    -113.514000   41.101300  132.831000
  C    -114.230000   41.422500  133.977000
  C    -114.123000   42.824200  134.282000
  C    -113.332000   43.572900  133.407000
  H    -114.721000   43.266200  135.092000
  C    -115.215000   40.484300  134.656000
  H    -115.691000   39.728700  134.011000
  H    -116.035000   41.079800  135.065000
  C    -114.683000   39.672100  135.848000
  H    -115.358000   38.878500  136.037000
  H    -113.756000   39.272300  135.485000
  C    -114.366000   40.532500  137.085000
  H    -114.142000   39.848000  137.958000
  H    -113.499000   41.174400  137.120000
  H    -115.227000   41.079800  137.365000
  S    -111.522000   45.681000  133.147000
  C    -112.069000   47.330900  133.151000
  C    -113.434000   47.298300  133.012000
  C    -114.111000   46.061800  133.091000
  C    -113.156000   45.032800  133.271000
  H    -113.920000   48.196200  132.884000
  C    -115.634000   45.880700  132.923000
  H    -115.873000   44.958400  132.409000
  H    -115.838000   46.730100  132.259000
  C    -116.464000   45.986600  134.194000
  H    -116.409000   46.927600  134.668000
  H    -116.183000   45.204900  134.856000
  C    -117.957000   45.754800  133.730000
  H    -118.105000   46.297800  132.815000
  H    -118.745000   45.981200  134.422000
  H    -118.149000   44.751300  133.377000
  H    -113.636000   40.107700  132.353000
  H    -111.565000   48.290000  133.167000

 Total Charge           Charge          ....    0
 Multiplicity           Mult            ....    1
 Number of Electrons    NEL             ....  134
 Basis Dimension        Dim             ....  322

ORBITAL ENERGIES
----------------

  NO   OCC          E(Eh)            E(eV)
   0   2.0000     -88.966939     -2420.9135
   1   2.0000     -88.966636     -2420.9052
   2   2.0000     -10.336421      -281.2683
   3   2.0000     -10.331669      -281.1390
   4   2.0000     -10.316442      -280.7247
   5   2.0000     -10.316046      -280.7139
   6   2.0000     -10.305617      -280.4301
   7   2.0000     -10.302260      -280.3388
   8   2.0000     -10.301703      -280.3236
   9   2.0000     -10.295362      -280.1511
  10   2.0000     -10.292861      -280.0830
  11   2.0000     -10.285532      -279.8836
  12   2.0000     -10.283948      -279.8405
  13   2.0000     -10.281183      -279.7652
  14   2.0000     -10.275176      -279.6017
  15   2.0000     -10.274507      -279.5835
  16   2.0000      -8.081601      -219.9115
  17   2.0000      -8.081065      -219.8970
  18   2.0000      -6.040106      -164.3596
  19   2.0000      -6.039644      -164.3471
  20   2.0000      -6.036060      -164.2495
  21   2.0000      -6.035522      -164.2349
  22   2.0000      -6.032408      -164.1502
  23   2.0000      -6.031841      -164.1347
  24   2.0000      -1.003398       -27.3039
  25   2.0000      -0.984540       -26.7907
  26   2.0000      -0.911454       -24.8019
  27   2.0000      -0.910739       -24.7825
  28   2.0000      -0.867374       -23.6024
  29   2.0000      -0.849536       -23.1171
  30   2.0000      -0.843963       -22.9654
  31   2.0000      -0.814556       -22.1652
  32   2.0000      -0.782441       -21.2913
  33   2.0000      -0.771642       -20.9974
  34   2.0000      -0.712890       -19.3987
  35   2.0000      -0.701615       -19.0919
  36   2.0000      -0.699096       -19.0234
  37   2.0000      -0.661171       -17.9914
  38   2.0000      -0.637488       -17.3469
  39   2.0000      -0.619555       -16.8589
  40   2.0000      -0.596692       -16.2368
  41   2.0000      -0.577673       -15.7193
  42   2.0000      -0.570910       -15.5352
  43   2.0000      -0.544726       -14.8228
  44   2.0000      -0.542324       -14.7574
  45   2.0000      -0.525869       -14.3096
  46   2.0000      -0.515158       -14.0182
  47   2.0000      -0.511187       -13.9101
  48   2.0000      -0.504666       -13.7327
  49   2.0000      -0.497048       -13.5254
  50   2.0000      -0.490001       -13.3336
  51   2.0000      -0.476399       -12.9635
  52   2.0000      -0.470957       -12.8154
  53   2.0000      -0.469426       -12.7737
  54   2.0000      -0.455275       -12.3887
  55   2.0000      -0.449941       -12.2435
  56   2.0000      -0.441899       -12.0247
  57   2.0000      -0.438547       -11.9335
  58   2.0000      -0.435022       -11.8375
  59   2.0000      -0.432452       -11.7676
  60   2.0000      -0.423716       -11.5299
  61   2.0000      -0.416917       -11.3449
  62   2.0000      -0.412685       -11.2297
  63   2.0000      -0.344142        -9.3646
  64   2.0000      -0.330473        -8.9926
  65   2.0000      -0.330109        -8.9827
  66   2.0000      -0.294112        -8.0032
  67   0.0000       0.032538         0.8854
  68   0.0000       0.057418         1.5624
  69   0.0000       0.109103         2.9688
  70   0.0000       0.116474         3.1694
  71   0.0000       0.134233         3.6527

MULLIKEN ATOMIC CHARGES
-----------------------
   0 S :    0.113634
   1 C :   -0.121385
   2 C :   -0.092874
   3 C :    0.027882
   4 C :   -0.139526
   5 H :    0.020335
   6 C :    0.024376
   7 H :    0.029118
   8 H :    0.016843
   9 C :   -0.023597
  10 H :    0.025262
  11 H :    0.016687
  12 C :   -0.065882
  13 H :    0.030737
  14 H :    0.044479
  15 H :    0.015932
  16 S :    0.112485
  17 C :   -0.072494
  18 C :   -0.036265
  19 C :    0.002807
  20 C :   -0.193839
  21 H :   -0.020287
  22 C :    0.042755
  23 H :    0.036413
  24 H :    0.025581
  25 C :   -0.014656
  26 H :    0.025513
  27 H :    0.021540
  28 C :   -0.036332
  29 H :    0.012726
  30 H :    0.033763
  31 H :    0.017845
  32 H :    0.063753
  33 H :    0.056672
Sum of atomic charges:    0.0000000

LOEWDIN ATOMIC CHARGES
----------------------
   0 S :    0.409031
   1 C :   -0.208802
   2 C :   -0.071528
   3 C :   -0.059215
   4 C :   -0.188875
   5 H :    0.032648
   6 C :   -0.033749
   7 H :    0.032554
   8 H :    0.025841
   9 C :   -0.032592
  10 H :    0.020365
  11 H :    0.021180
  12 C :   -0.070957
  13 H :    0.034127
  14 H :    0.027903
  15 H :    0.014777
  16 S :    0.412859
  17 C :   -0.193652
  18 C :   -0.070531
  19 C :   -0.051130
  20 C :   -0.201785
  21 H :    0.013818
  22 C :   -0.024429
  23 H :    0.033345
  24 H :    0.034235
  25 C :   -0.022600
  26 H :    0.020562
  27 H :    0.017939
  28 C :   -0.065077
  29 H :    0.021680
  30 H :    0.021520
  31 H :    0.023385
  32 H :    0.038258
  33 H :    0.038896

  Mayer bond orders larger than 0.100000
B(  0-S ,  1-C ) :   1.1596 B(  0-S ,  4-C ) :   1.1500 B(  1-C ,  2-C ) :   1.6013
B(  1-C , 32-H ) :   0.9583 B(  2-C ,  3-C ) :   1.2616 B(  2-C ,  6-C ) :   1.0192
B(  3-C ,  4-C ) :   1.5671 B(  3-C ,  5-H ) :   0.9911 B(  4-C , 20-C ) :   1.0313
B(  6-C ,  7-H ) :   0.9487 B(  6-C ,  8-H ) :   0.9464 B(  6-C ,  9-C ) :   1.0738
B(  9-C , 10-H ) :   0.9574 B(  9-C , 11-H ) :   0.9525 B(  9-C , 12-C ) :   1.0773
B( 12-C , 13-H ) :   0.9720 B( 12-C , 14-H ) :   0.9760 B( 12-C , 15-H ) :   0.9766
B( 16-S , 17-C ) :   1.1484 B( 16-S , 20-C ) :   1.1601 B( 17-C , 18-C ) :   1.5992
B( 17-C , 20-C ) :   0.1064 B( 17-C , 33-H ) :   0.9675 B( 18-C , 19-C ) :   1.2737
B( 18-C , 21-H ) :   0.9922 B( 19-C , 20-C ) :   1.5407 B( 19-C , 22-C ) :   1.0199
B( 22-C , 23-H ) :   0.9403 B( 22-C , 24-H ) :   0.9306 B( 22-C , 25-C ) :   1.0779
B( 25-C , 26-H ) :   0.9543 B( 25-C , 27-H ) :   0.9553 B( 25-C , 28-C ) :   1.0731
B( 28-C , 29-H ) :   0.9715 B( 28-C , 30-H ) :   0.9764 B( 28-C , 31-H ) :   0.9736

Dispersion correction           -0.014222763
FINAL SINGLE POINT ENERGY     -1339.873604429559

DIPOLE MOMENT
-------------
                                X             Y             Z
Electronic contribution:     23.92210       6.79816     -14.40192
Nuclear contribution   :    -24.67912      -6.76849      14.53538
                        -----------------------------------------
Total Dipole Moment    :     -0.75702       0.02967       0.13346
                        -----------------------------------------
Magnitude (a.u.)       :      0.76927
Magnitude (Debye)      :      1.95533

Rotational constants in cm-1:     0.017070     0.008920     0.006994
Rotational constants in MHz :   511.757883   267.425250   209.675515

                             ****ORCA TERMINATED NORMALLY****
TOTAL RUN TIME: 0 days 0 hours 0 minutes 33 seconds 983 msec
