                         Program Version 4.2.1 -  RELEASE  -
|  1> ! wB97X-D3 SP def2-SVP
|  2> %pal
|  3> nprocs 16
|  4> end
|  5>
|  6> * xyz 0 1
|  7> S 	 -36.4107 	 56.3853 	 108.952
|  8> C 	 -36.1154 	 58.0844 	 109.191
|  9> C 	 -37.1058 	 58.6952 	 110.002
| 10> C 	 -38.096 	 57.7087 	 110.338
| 11> C 	 -37.8996 	 56.5068 	 109.772
| 12> H 	 -38.955 	 57.9706 	 111.015
| 13> C 	 -37.1828 	 60.145 	 110.391
| 14> H 	 -38.2148 	 60.4374 	 110.334
| 15> H 	 -36.7342 	 60.6593 	 109.498
| 16> C 	 -36.4545 	 60.5557 	 111.732
| 17> H 	 -35.4422 	 60.2349 	 111.676
| 18> H 	 -36.428 	 61.6676 	 111.94
| 19> C 	 -37.2247 	 59.9629 	 112.924
| 20> H 	 -37.1053 	 58.9134 	 112.991
| 21> H 	 -37.0078 	 60.3558 	 113.845
| 22> H 	 -38.3351 	 60.0711 	 112.734
| 23> S 	 -38.0241 	 53.8501 	 110.522
| 24> C 	 -39.4879 	 52.9581 	 110.322
| 25> C 	 -40.41 	 53.7344 	 109.702
| 26> C 	 -40.1078 	 55.158 	 109.642
| 27> C 	 -38.7688 	 55.3226 	 109.921
| 28> H 	 -41.292 	 53.292 	 109.318
| 29> C 	 -41.0464 	 56.0698 	 109.064
| 30> H 	 -40.5536 	 57.043 	 109.226
| 31> H 	 -41.9981 	 56.0136 	 109.548
| 32> C 	 -41.2775 	 55.7519 	 107.592
| 33> H 	 -41.8706 	 54.8416 	 107.479
| 34> H 	 -40.3458 	 55.7581 	 107.02
| 35> C 	 -41.9108 	 56.9759 	 106.974
| 36> H 	 -42.2611 	 56.7027 	 105.977
| 37> H 	 -41.1938 	 57.7887 	 106.845
| 38> H 	 -42.7405 	 57.4043 	 107.631
| 39> H 	 -35.2949 	 58.6597 	 108.85
| 40> H 	 -39.5919 	 51.8765 	 110.403
| 41> *
| 42>
| 43>                          ****END OF INPUT****

CARTESIAN COORDINATES (ANGSTROEM)
---------------------------------
  S    -36.410700   56.385300  108.952000
  C    -36.115400   58.084400  109.191000
  C    -37.105800   58.695200  110.002000
  C    -38.096000   57.708700  110.338000
  C    -37.899600   56.506800  109.772000
  H    -38.955000   57.970600  111.015000
  C    -37.182800   60.145000  110.391000
  H    -38.214800   60.437400  110.334000
  H    -36.734200   60.659300  109.498000
  C    -36.454500   60.555700  111.732000
  H    -35.442200   60.234900  111.676000
  H    -36.428000   61.667600  111.940000
  C    -37.224700   59.962900  112.924000
  H    -37.105300   58.913400  112.991000
  H    -37.007800   60.355800  113.845000
  H    -38.335100   60.071100  112.734000
  S    -38.024100   53.850100  110.522000
  C    -39.487900   52.958100  110.322000
  C    -40.410000   53.734400  109.702000
  C    -40.107800   55.158000  109.642000
  C    -38.768800   55.322600  109.921000
  H    -41.292000   53.292000  109.318000
  C    -41.046400   56.069800  109.064000
  H    -40.553600   57.043000  109.226000
  H    -41.998100   56.013600  109.548000
  C    -41.277500   55.751900  107.592000
  H    -41.870600   54.841600  107.479000
  H    -40.345800   55.758100  107.020000
  C    -41.910800   56.975900  106.974000
  H    -42.261100   56.702700  105.977000
  H    -41.193800   57.788700  106.845000
  H    -42.740500   57.404300  107.631000
  H    -35.294900   58.659700  108.850000
  H    -39.591900   51.876500  110.403000

 Total Charge           Charge          ....    0
 Multiplicity           Mult            ....    1
 Number of Electrons    NEL             ....  134
 Basis Dimension        Dim             ....  322

ORBITAL ENERGIES
----------------

  NO   OCC          E(Eh)            E(eV)
   0   2.0000     -88.969797     -2420.9912
   1   2.0000     -88.959007     -2420.6976
   2   2.0000     -10.323327      -280.9120
   3   2.0000     -10.322419      -280.8873
   4   2.0000     -10.313014      -280.6314
   5   2.0000     -10.309643      -280.5396
   6   2.0000     -10.302909      -280.3564
   7   2.0000     -10.297695      -280.2145
   8   2.0000     -10.295076      -280.1432
   9   2.0000     -10.294361      -280.1238
  10   2.0000     -10.292204      -280.0651
  11   2.0000     -10.284809      -279.8639
  12   2.0000     -10.283915      -279.8396
  13   2.0000     -10.282459      -279.7999
  14   2.0000     -10.278677      -279.6970
  15   2.0000     -10.270294      -279.4689
  16   2.0000      -8.085284      -220.0118
  17   2.0000      -8.074396      -219.7155
  18   2.0000      -6.043716      -164.4579
  19   2.0000      -6.039747      -164.3499
  20   2.0000      -6.036011      -164.2482
  21   2.0000      -6.033004      -164.1664
  22   2.0000      -6.028903      -164.0548
  23   2.0000      -6.024923      -163.9465
  24   2.0000      -1.012387       -27.5484
  25   2.0000      -0.988563       -26.9002
  26   2.0000      -0.924037       -25.1443
  27   2.0000      -0.909830       -24.7577
  28   2.0000      -0.867312       -23.6008
  29   2.0000      -0.855473       -23.2786
  30   2.0000      -0.847422       -23.0595
  31   2.0000      -0.816636       -22.2218
  32   2.0000      -0.782184       -21.2843
  33   2.0000      -0.769590       -20.9416
  34   2.0000      -0.709684       -19.3115
  35   2.0000      -0.699328       -19.0297
  36   2.0000      -0.694403       -18.8957
  37   2.0000      -0.659735       -17.9523
  38   2.0000      -0.637844       -17.3566
  39   2.0000      -0.618234       -16.8230
  40   2.0000      -0.598611       -16.2890
  41   2.0000      -0.578376       -15.7384
  42   2.0000      -0.570172       -15.5152
  43   2.0000      -0.551573       -15.0091
  44   2.0000      -0.545379       -14.8405
  45   2.0000      -0.532453       -14.4888
  46   2.0000      -0.518148       -14.0995
  47   2.0000      -0.504516       -13.7286
  48   2.0000      -0.502734       -13.6801
  49   2.0000      -0.499077       -13.5806
  50   2.0000      -0.491894       -13.3851
  51   2.0000      -0.477599       -12.9961
  52   2.0000      -0.469728       -12.7820
  53   2.0000      -0.464908       -12.6508
  54   2.0000      -0.460705       -12.5364
  55   2.0000      -0.449835       -12.2406
  56   2.0000      -0.441151       -12.0043
  57   2.0000      -0.437251       -11.8982
  58   2.0000      -0.433308       -11.7909
  59   2.0000      -0.429251       -11.6805
  60   2.0000      -0.423047       -11.5117
  61   2.0000      -0.418349       -11.3839
  62   2.0000      -0.413469       -11.2511
  63   2.0000      -0.346349        -9.4246
  64   2.0000      -0.331458        -9.0194
  65   2.0000      -0.321354        -8.7445
  66   2.0000      -0.293821        -7.9953
  67   0.0000       0.039884         1.0853
  68   0.0000       0.070599         1.9211
  69   0.0000       0.113405         3.0859
  70   0.0000       0.121931         3.3179
  71   0.0000       0.129742         3.5305

MULLIKEN ATOMIC CHARGES
-----------------------
   0 S :    0.132939
   1 C :   -0.099949
   2 C :   -0.123959
   3 C :    0.014955
   4 C :   -0.153638
   5 H :    0.031945
   6 C :    0.037195
   7 H :    0.025782
   8 H :    0.030836
   9 C :   -0.043798
  10 H :    0.027353
  11 H :    0.042688
  12 C :   -0.034940
  13 H :    0.030474
  14 H :    0.017702
  15 H :    0.023936
  16 S :    0.093900
  17 C :   -0.076859
  18 C :   -0.046415
  19 C :   -0.028740
  20 C :   -0.154739
  21 H :    0.001561
  22 C :    0.086288
  23 H :    0.014993
  24 H :    0.024431
  25 C :   -0.078137
  26 H :    0.040197
  27 H :    0.037671
  28 C :   -0.056963
  29 H :    0.030395
  30 H :    0.036435
  31 H :    0.029429
  32 H :    0.027141
  33 H :    0.059891
Sum of atomic charges:   -0.0000000

LOEWDIN ATOMIC CHARGES
----------------------
   0 S :    0.435059
   1 C :   -0.200494
   2 C :   -0.060168
   3 C :   -0.075062
   4 C :   -0.212911
   5 H :    0.039594
   6 C :   -0.035967
   7 H :    0.027225
   8 H :    0.038091
   9 C :   -0.031979
  10 H :    0.019727
  11 H :    0.031910
  12 C :   -0.060908
  13 H :    0.021573
  14 H :    0.012293
  15 H :    0.029938
  16 S :    0.395929
  17 C :   -0.195491
  18 C :   -0.065085
  19 C :   -0.054574
  20 C :   -0.194110
  21 H :    0.020361
  22 C :   -0.036524
  23 H :    0.034928
  24 H :    0.032419
  25 C :   -0.034727
  26 H :    0.024754
  27 H :    0.033719
  28 C :   -0.066020
  29 H :    0.023178
  30 H :    0.024991
  31 H :    0.025435
  32 H :    0.019095
  33 H :    0.033801

  Mayer bond orders larger than 0.100000
B(  0-S ,  1-C ) :   1.1440 B(  0-S ,  4-C ) :   1.1609 B(  1-C ,  2-C ) :   1.6052
B(  1-C , 32-H ) :   0.9698 B(  2-C ,  3-C ) :   1.2504 B(  2-C ,  6-C ) :   1.0126
B(  3-C ,  4-C ) :   1.5864 B(  3-C ,  5-H ) :   0.9826 B(  4-C , 20-C ) :   0.9975
B(  6-C ,  7-H ) :   0.9488 B(  6-C ,  8-H ) :   0.9399 B(  6-C ,  9-C ) :   1.0578
B(  9-C , 10-H ) :   0.9579 B(  9-C , 11-H ) :   0.9606 B(  9-C , 12-C ) :   1.0691
B( 12-C , 13-H ) :   0.9743 B( 12-C , 14-H ) :   0.9749 B( 12-C , 15-H ) :   0.9743
B( 16-S , 17-C ) :   1.1313 B( 16-S , 20-C ) :   1.1377 B( 17-C , 18-C ) :   1.6593
B( 17-C , 33-H ) :   0.9640 B( 18-C , 19-C ) :   1.1824 B( 18-C , 21-H ) :   0.9903
B( 19-C , 20-C ) :   1.6204 B( 19-C , 22-C ) :   1.0856 B( 22-C , 23-H ) :   0.9268
B( 22-C , 24-H ) :   0.9023 B( 22-C , 25-C ) :   1.0827 B( 25-C , 26-H ) :   0.9506
B( 25-C , 27-H ) :   0.9549 B( 25-C , 28-C ) :   1.0837 B( 28-C , 29-H ) :   0.9718
B( 28-C , 30-H ) :   0.9792 B( 28-C , 31-H ) :   0.9681

Dispersion correction           -0.014364098
FINAL SINGLE POINT ENERGY     -1339.869826803134

DIPOLE MOMENT
-------------
                                X             Y             Z
Electronic contribution:     12.68976     -20.03832      -0.03848
Nuclear contribution   :    -13.06404      20.43578      -0.08205
                        -----------------------------------------
Total Dipole Moment    :     -0.37428       0.39746      -0.12053
                        -----------------------------------------
Magnitude (a.u.)       :      0.55910
Magnitude (Debye)      :      1.42111

Rotational constants in cm-1:     0.018675     0.008568     0.007305
Rotational constants in MHz :   559.864998   256.863733   218.995768

                             ****ORCA TERMINATED NORMALLY****
TOTAL RUN TIME: 0 days 0 hours 0 minutes 30 seconds 904 msec
