                         Program Version 4.2.1 -  RELEASE  -
|  1> ! wB97X-D3 SP def2-SVP
|  2> %pal
|  3> nprocs 16
|  4> end
|  5>
|  6> * xyz 0 1
|  7> S 	 -97.4494 	 40.0254 	 124.499
|  8> C 	 -95.969 	 39.1613 	 124.157
|  9> C 	 -95.9919 	 38.6553 	 122.895
| 10> C 	 -97.2007 	 38.8454 	 122.212
| 11> C 	 -98.0872 	 39.6088 	 122.972
| 12> H 	 -97.3881 	 38.4453 	 121.201
| 13> C 	 -94.8619 	 37.8805 	 122.319
| 14> H 	 -95.2163 	 36.9014 	 122.116
| 15> H 	 -94.0716 	 37.5755 	 122.971
| 16> C 	 -94.265 	 38.4153 	 121.009
| 17> H 	 -95.1884 	 38.3868 	 120.405
| 18> H 	 -93.8774 	 39.3699 	 121.161
| 19> C 	 -93.1518 	 37.4956 	 120.385
| 20> H 	 -92.5458 	 38.0184 	 119.698
| 21> H 	 -92.366 	 37.2552 	 121.178
| 22> H 	 -93.4675 	 36.5612 	 119.96
| 23> S 	 -100.702 	 39.9592 	 123.889
| 24> C 	 -101.91 	 40.5295 	 122.836
| 25> C 	 -101.305 	 41.0087 	 121.671
| 26> C 	 -99.9502 	 40.6173 	 121.49
| 27> C 	 -99.4415 	 40.0362 	 122.663
| 28> H 	 -101.966 	 41.516 	 120.93
| 29> C 	 -99.185 	 40.7175 	 120.157
| 30> H 	 -98.191 	 40.5144 	 120.285
| 31> H 	 -99.1164 	 41.7816 	 119.982
| 32> C 	 -99.9638 	 40.0058 	 118.981
| 33> H 	 -100.904 	 40.4543 	 118.847
| 34> H 	 -100.132 	 38.9613 	 119.245
| 35> C 	 -99.2528 	 40.2615 	 117.632
| 36> H 	 -99.1827 	 41.3251 	 117.445
| 37> H 	 -99.881 	 39.715 	 116.869
| 38> H 	 -98.3168 	 39.7938 	 117.698
| 39> H 	 -95.0594 	 39.2184 	 124.738
| 40> H 	 -103.009 	 40.5132 	 123.052
| 41> *
| 42>
| 43>                          ****END OF INPUT****

CARTESIAN COORDINATES (ANGSTROEM)
---------------------------------
  S    -97.449400   40.025400  124.499000
  C    -95.969000   39.161300  124.157000
  C    -95.991900   38.655300  122.895000
  C    -97.200700   38.845400  122.212000
  C    -98.087200   39.608800  122.972000
  H    -97.388100   38.445300  121.201000
  C    -94.861900   37.880500  122.319000
  H    -95.216300   36.901400  122.116000
  H    -94.071600   37.575500  122.971000
  C    -94.265000   38.415300  121.009000
  H    -95.188400   38.386800  120.405000
  H    -93.877400   39.369900  121.161000
  C    -93.151800   37.495600  120.385000
  H    -92.545800   38.018400  119.698000
  H    -92.366000   37.255200  121.178000
  H    -93.467500   36.561200  119.960000
  S    -100.702000   39.959200  123.889000
  C    -101.910000   40.529500  122.836000
  C    -101.305000   41.008700  121.671000
  C    -99.950200   40.617300  121.490000
  C    -99.441500   40.036200  122.663000
  H    -101.966000   41.516000  120.930000
  C    -99.185000   40.717500  120.157000
  H    -98.191000   40.514400  120.285000
  H    -99.116400   41.781600  119.982000
  C    -99.963800   40.005800  118.981000
  H    -100.904000   40.454300  118.847000
  H    -100.132000   38.961300  119.245000
  C    -99.252800   40.261500  117.632000
  H    -99.182700   41.325100  117.445000
  H    -99.881000   39.715000  116.869000
  H    -98.316800   39.793800  117.698000
  H    -95.059400   39.218400  124.738000
  H    -103.009000   40.513200  123.052000

 Total Charge           Charge          ....    0
 Multiplicity           Mult            ....    1
 Number of Electrons    NEL             ....  134
 Basis Dimension        Dim             ....  322

ORBITAL ENERGIES
----------------

  NO   OCC          E(Eh)            E(eV)
   0   2.0000     -88.965889     -2420.8849
   1   2.0000     -88.964793     -2420.8551
   2   2.0000     -10.329673      -281.0847
   3   2.0000     -10.325185      -280.9626
   4   2.0000     -10.319359      -280.8040
   5   2.0000     -10.305571      -280.4289
   6   2.0000     -10.304849      -280.4092
   7   2.0000     -10.296675      -280.1868
   8   2.0000     -10.293516      -280.1008
   9   2.0000     -10.292751      -280.0800
  10   2.0000     -10.287237      -279.9299
  11   2.0000     -10.286944      -279.9220
  12   2.0000     -10.286679      -279.9148
  13   2.0000     -10.282350      -279.7970
  14   2.0000     -10.279386      -279.7163
  15   2.0000     -10.279372      -279.7159
  16   2.0000      -8.081462      -219.9078
  17   2.0000      -8.080127      -219.8714
  18   2.0000      -6.039884      -164.3536
  19   2.0000      -6.038588      -164.3183
  20   2.0000      -6.035782      -164.2420
  21   2.0000      -6.034395      -164.2042
  22   2.0000      -6.032346      -164.1485
  23   2.0000      -6.031062      -164.1135
  24   2.0000      -1.012986       -27.5647
  25   2.0000      -0.989525       -26.9263
  26   2.0000      -0.915817       -24.9206
  27   2.0000      -0.907553       -24.6958
  28   2.0000      -0.868860       -23.6429
  29   2.0000      -0.854565       -23.2539
  30   2.0000      -0.844054       -22.9679
  31   2.0000      -0.812232       -22.1020
  32   2.0000      -0.786418       -21.3995
  33   2.0000      -0.774172       -21.0663
  34   2.0000      -0.711277       -19.3548
  35   2.0000      -0.706508       -19.2251
  36   2.0000      -0.695863       -18.9354
  37   2.0000      -0.654939       -17.8218
  38   2.0000      -0.636913       -17.3313
  39   2.0000      -0.627909       -17.0863
  40   2.0000      -0.596891       -16.2422
  41   2.0000      -0.572814       -15.5870
  42   2.0000      -0.567773       -15.4499
  43   2.0000      -0.560889       -15.2626
  44   2.0000      -0.533748       -14.5240
  45   2.0000      -0.519566       -14.1381
  46   2.0000      -0.516219       -14.0470
  47   2.0000      -0.508552       -13.8384
  48   2.0000      -0.505661       -13.7597
  49   2.0000      -0.501050       -13.6343
  50   2.0000      -0.495547       -13.4845
  51   2.0000      -0.480299       -13.0696
  52   2.0000      -0.475613       -12.9421
  53   2.0000      -0.466163       -12.6850
  54   2.0000      -0.463997       -12.6260
  55   2.0000      -0.453545       -12.3416
  56   2.0000      -0.447857       -12.1868
  57   2.0000      -0.438552       -11.9336
  58   2.0000      -0.436268       -11.8714
  59   2.0000      -0.427417       -11.6306
  60   2.0000      -0.426342       -11.6014
  61   2.0000      -0.412453       -11.2234
  62   2.0000      -0.408985       -11.1291
  63   2.0000      -0.350888        -9.5481
  64   2.0000      -0.333510        -9.0753
  65   2.0000      -0.328414        -8.9366
  66   2.0000      -0.283766        -7.7217
  67   0.0000       0.031289         0.8514
  68   0.0000       0.072541         1.9740
  69   0.0000       0.115148         3.1333
  70   0.0000       0.123992         3.3740
  71   0.0000       0.129545         3.5251

MULLIKEN ATOMIC CHARGES
-----------------------
   0 S :    0.113754
   1 C :   -0.126314
   2 C :   -0.056218
   3 C :    0.004114
   4 C :   -0.147528
   5 H :    0.027237
   6 C :    0.074427
   7 H :    0.010504
   8 H :   -0.006756
   9 C :   -0.063874
  10 H :    0.025122
  11 H :    0.024714
  12 C :   -0.044282
  13 H :    0.024353
  14 H :    0.026160
  15 H :    0.035937
  16 S :    0.116279
  17 C :   -0.123254
  18 C :   -0.061390
  19 C :   -0.041706
  20 C :   -0.153482
  21 H :    0.032156
  22 C :    0.129791
  23 H :   -0.016004
  24 H :    0.015031
  25 C :   -0.080149
  26 H :    0.018220
  27 H :    0.039718
  28 C :   -0.028874
  29 H :    0.038494
  30 H :    0.042992
  31 H :    0.023100
  32 H :    0.044401
  33 H :    0.083324
Sum of atomic charges:    0.0000000

LOEWDIN ATOMIC CHARGES
----------------------
   0 S :    0.428208
   1 C :   -0.205855
   2 C :   -0.062364
   3 C :   -0.075087
   4 C :   -0.191672
   5 H :    0.035472
   6 C :   -0.036360
   7 H :    0.028510
   8 H :    0.020972
   9 C :   -0.027904
  10 H :    0.024973
  11 H :    0.016589
  12 C :   -0.065925
  13 H :    0.020682
  14 H :    0.032026
  15 H :    0.022696
  16 S :    0.420997
  17 C :   -0.210609
  18 C :   -0.081303
  19 C :   -0.048724
  20 C :   -0.208474
  21 H :    0.034316
  22 C :   -0.023636
  23 H :    0.013233
  24 H :    0.034189
  25 C :   -0.029025
  26 H :    0.016233
  27 H :    0.025637
  28 C :   -0.057304
  29 H :    0.026140
  30 H :    0.034537
  31 H :    0.015639
  32 H :    0.028783
  33 H :    0.044411

  Mayer bond orders larger than 0.100000
B(  0-S ,  1-C ) :   1.1202 B(  0-S ,  4-C ) :   1.1923 B(  1-C ,  2-C ) :   1.6141
B(  1-C , 32-H ) :   0.9677 B(  2-C ,  3-C ) :   1.2559 B(  2-C ,  6-C ) :   1.0294
B(  3-C ,  4-C ) :   1.5279 B(  3-C ,  5-H ) :   0.9890 B(  4-C , 20-C ) :   1.0475
B(  6-C ,  7-H ) :   0.9337 B(  6-C ,  8-H ) :   0.9378 B(  6-C ,  9-C ) :   1.0449
B(  9-C , 10-H ) :   0.9595 B(  9-C , 11-H ) :   0.9615 B(  9-C , 12-C ) :   1.0809
B( 12-C , 13-H ) :   0.9763 B( 12-C , 14-H ) :   0.9721 B( 12-C , 15-H ) :   0.9773
B( 16-S , 17-C ) :   1.1790 B( 16-S , 20-C ) :   1.1490 B( 17-C , 18-C ) :   1.5703
B( 17-C , 20-C ) :   0.1072 B( 17-C , 33-H ) :   0.9645 B( 18-C , 19-C ) :   1.2666
B( 18-C , 21-H ) :   0.9829 B( 19-C , 20-C ) :   1.5496 B( 19-C , 22-C ) :   1.0430
B( 22-C , 23-H ) :   0.9288 B( 22-C , 24-H ) :   0.9210 B( 22-C , 25-C ) :   1.0493
B( 25-C , 26-H ) :   0.9537 B( 25-C , 27-H ) :   0.9615 B( 25-C , 28-C ) :   1.0806
B( 28-C , 29-H ) :   0.9751 B( 28-C , 30-H ) :   0.9745 B( 28-C , 31-H ) :   0.9779

Dispersion correction           -0.013661916
FINAL SINGLE POINT ENERGY     -1339.866258977666

DIPOLE MOMENT
-------------
                                X             Y             Z
Electronic contribution:    -15.65898       6.36382      28.10582
Nuclear contribution   :     15.80681      -6.42771     -28.79968
                        -----------------------------------------
Total Dipole Moment    :      0.14783      -0.06389      -0.69386
                        -----------------------------------------
Magnitude (a.u.)       :      0.71230
Magnitude (Debye)      :      1.81052

Rotational constants in cm-1:     0.016830     0.009194     0.006193
Rotational constants in MHz :   504.554718   275.628508   185.664166

                             ****ORCA TERMINATED NORMALLY****
TOTAL RUN TIME: 0 days 0 hours 0 minutes 32 seconds 556 msec
