                         Program Version 4.2.1 -  RELEASE  -
|  1> ! wB97X-D3 SP def2-SVP
|  2> %pal
|  3> nprocs 16
|  4> end
|  5>
|  6> * xyz 0 1
|  7> S 	 -49.2618 	 30.7505 	 89.6914
|  8> C 	 -50.0542 	 29.1837 	 89.563
|  9> C 	 -50.8725 	 29.0924 	 88.4474
| 10> C 	 -50.6169 	 30.1939 	 87.5895
| 11> C 	 -49.7945 	 31.1792 	 88.1233
| 12> H 	 -51.0831 	 30.2855 	 86.5766
| 13> C 	 -51.6681 	 27.939 	 87.9634
| 14> H 	 -51.3993 	 27.0019 	 88.466
| 15> H 	 -51.3094 	 27.8203 	 86.9288
| 16> C 	 -53.1908 	 28.1158 	 88.1392
| 17> H 	 -53.2381 	 28.5193 	 89.1083
| 18> H 	 -53.3797 	 28.8815 	 87.3614
| 19> C 	 -53.9542 	 26.7424 	 88.032
| 20> H 	 -53.5095 	 25.9628 	 88.6892
| 21> H 	 -55.0308 	 26.6732 	 88.2553
| 22> H 	 -53.733 	 26.3844 	 86.985
| 23> S 	 -49.2008 	 32.5443 	 85.8119
| 24> C 	 -48.6921 	 34.1829 	 85.8619
| 25> C 	 -48.8169 	 34.71 	 87.1481
| 26> C 	 -49.1468 	 33.7111 	 88.1461
| 27> C 	 -49.3927 	 32.4854 	 87.5963
| 28> H 	 -48.903 	 35.7747 	 87.3598
| 29> C 	 -49.5073 	 34.126 	 89.5202
| 30> H 	 -49.2681 	 33.3012 	 90.3602
| 31> H 	 -50.6132 	 34.1128 	 89.4803
| 32> C 	 -49.0661 	 35.5238 	 90.0641
| 33> H 	 -49.2246 	 36.3232 	 89.3501
| 34> H 	 -47.9942 	 35.4464 	 90.2169
| 35> C 	 -49.6521 	 35.9789 	 91.4568
| 36> H 	 -49.391 	 35.2489 	 92.1902
| 37> H 	 -50.7318 	 36.179 	 91.3711
| 38> H 	 -49.2543 	 36.918 	 91.6989
| 39> H 	 -50.0886 	 28.378 	 90.2649
| 40> H 	 -48.54 	 34.7949 	 84.9684
| 41> *
| 42>
| 43>                          ****END OF INPUT****

CARTESIAN COORDINATES (ANGSTROEM)
---------------------------------
  S    -49.261800   30.750500   89.691400
  C    -50.054200   29.183700   89.563000
  C    -50.872500   29.092400   88.447400
  C    -50.616900   30.193900   87.589500
  C    -49.794500   31.179200   88.123300
  H    -51.083100   30.285500   86.576600
  C    -51.668100   27.939000   87.963400
  H    -51.399300   27.001900   88.466000
  H    -51.309400   27.820300   86.928800
  C    -53.190800   28.115800   88.139200
  H    -53.238100   28.519300   89.108300
  H    -53.379700   28.881500   87.361400
  C    -53.954200   26.742400   88.032000
  H    -53.509500   25.962800   88.689200
  H    -55.030800   26.673200   88.255300
  H    -53.733000   26.384400   86.985000
  S    -49.200800   32.544300   85.811900
  C    -48.692100   34.182900   85.861900
  C    -48.816900   34.710000   87.148100
  C    -49.146800   33.711100   88.146100
  C    -49.392700   32.485400   87.596300
  H    -48.903000   35.774700   87.359800
  C    -49.507300   34.126000   89.520200
  H    -49.268100   33.301200   90.360200
  H    -50.613200   34.112800   89.480300
  C    -49.066100   35.523800   90.064100
  H    -49.224600   36.323200   89.350100
  H    -47.994200   35.446400   90.216900
  C    -49.652100   35.978900   91.456800
  H    -49.391000   35.248900   92.190200
  H    -50.731800   36.179000   91.371100
  H    -49.254300   36.918000   91.698900
  H    -50.088600   28.378000   90.264900
  H    -48.540000   34.794900   84.968400

 Total Charge           Charge          ....    0
 Multiplicity           Mult            ....    1
 Number of Electrons    NEL             ....  134
 Basis Dimension        Dim             ....  322

ORBITAL ENERGIES
----------------

  NO   OCC          E(Eh)            E(eV)
   0   2.0000     -88.969321     -2420.9783
   1   2.0000     -88.964145     -2420.8375
   2   2.0000     -10.330377      -281.1039
   3   2.0000     -10.328149      -281.0432
   4   2.0000     -10.318987      -280.7939
   5   2.0000     -10.312041      -280.6049
   6   2.0000     -10.304350      -280.3956
   7   2.0000     -10.303408      -280.3700
   8   2.0000     -10.297545      -280.2104
   9   2.0000     -10.295996      -280.1683
  10   2.0000     -10.295432      -280.1529
  11   2.0000     -10.292067      -280.0614
  12   2.0000     -10.291425      -280.0439
  13   2.0000     -10.290802      -280.0270
  14   2.0000     -10.290438      -280.0171
  15   2.0000     -10.278183      -279.6836
  16   2.0000      -8.084104      -219.9797
  17   2.0000      -8.078839      -219.8364
  18   2.0000      -6.042622      -164.4281
  19   2.0000      -6.038611      -164.3190
  20   2.0000      -6.037436      -164.2870
  21   2.0000      -6.034846      -164.2165
  22   2.0000      -6.033412      -164.1775
  23   2.0000      -6.029471      -164.0702
  24   2.0000      -1.009734       -27.4763
  25   2.0000      -0.986111       -26.8335
  26   2.0000      -0.917284       -24.9606
  27   2.0000      -0.905145       -24.6303
  28   2.0000      -0.867853       -23.6155
  29   2.0000      -0.852329       -23.1931
  30   2.0000      -0.846502       -23.0345
  31   2.0000      -0.807378       -21.9699
  32   2.0000      -0.783521       -21.3207
  33   2.0000      -0.773812       -21.0565
  34   2.0000      -0.709944       -19.3186
  35   2.0000      -0.706868       -19.2349
  36   2.0000      -0.693861       -18.8809
  37   2.0000      -0.661912       -18.0115
  38   2.0000      -0.630466       -17.1559
  39   2.0000      -0.618971       -16.8431
  40   2.0000      -0.599320       -16.3083
  41   2.0000      -0.573624       -15.6091
  42   2.0000      -0.566017       -15.4021
  43   2.0000      -0.558735       -15.2039
  44   2.0000      -0.527448       -14.3526
  45   2.0000      -0.521692       -14.1960
  46   2.0000      -0.519519       -14.1368
  47   2.0000      -0.512315       -13.9408
  48   2.0000      -0.502470       -13.6729
  49   2.0000      -0.497900       -13.5486
  50   2.0000      -0.488177       -13.2840
  51   2.0000      -0.473844       -12.8939
  52   2.0000      -0.469281       -12.7698
  53   2.0000      -0.463666       -12.6170
  54   2.0000      -0.462152       -12.5758
  55   2.0000      -0.458180       -12.4677
  56   2.0000      -0.451200       -12.2778
  57   2.0000      -0.441708       -12.0195
  58   2.0000      -0.428917       -11.6714
  59   2.0000      -0.424483       -11.5508
  60   2.0000      -0.421644       -11.4735
  61   2.0000      -0.417161       -11.3515
  62   2.0000      -0.412212       -11.2169
  63   2.0000      -0.354544        -9.6476
  64   2.0000      -0.333848        -9.0845
  65   2.0000      -0.325042        -8.8448
  66   2.0000      -0.283119        -7.7041
  67   0.0000       0.023727         0.6456
  68   0.0000       0.076801         2.0899
  69   0.0000       0.103196         2.8081
  70   0.0000       0.118504         3.2247
  71   0.0000       0.128948         3.5089

MULLIKEN ATOMIC CHARGES
-----------------------
   0 S :    0.113691
   1 C :   -0.093647
   2 C :   -0.095364
   3 C :   -0.017939
   4 C :   -0.118611
   5 H :    0.026615
   6 C :    0.013833
   7 H :    0.009560
   8 H :    0.038175
   9 C :   -0.032439
  10 H :    0.025124
  11 H :    0.038966
  12 C :   -0.073585
  13 H :    0.032598
  14 H :    0.052112
  15 H :    0.037290
  16 S :    0.095632
  17 C :   -0.081994
  18 C :   -0.054654
  19 C :   -0.017569
  20 C :   -0.126613
  21 H :    0.029676
  22 C :   -0.040371
  23 H :    0.056278
  24 H :    0.050365
  25 C :   -0.105848
  26 H :    0.028670
  27 H :    0.035321
  28 C :   -0.011979
  29 H :    0.036848
  30 H :    0.034390
  31 H :    0.020232
  32 H :    0.028598
  33 H :    0.066641
Sum of atomic charges:   -0.0000000

LOEWDIN ATOMIC CHARGES
----------------------
   0 S :    0.436339
   1 C :   -0.194494
   2 C :   -0.063320
   3 C :   -0.077385
   4 C :   -0.201097
   5 H :    0.033514
   6 C :   -0.035027
   7 H :    0.025068
   8 H :    0.033543
   9 C :   -0.033302
  10 H :    0.018035
  11 H :    0.030383
  12 C :   -0.076034
  13 H :    0.027777
  14 H :    0.029391
  15 H :    0.032535
  16 S :    0.402690
  17 C :   -0.194342
  18 C :   -0.075327
  19 C :   -0.066349
  20 C :   -0.183311
  21 H :    0.031932
  22 C :   -0.054128
  23 H :    0.035142
  24 H :    0.040183
  25 C :   -0.041502
  26 H :    0.017820
  27 H :    0.025263
  28 C :   -0.052737
  29 H :    0.023670
  30 H :    0.028009
  31 H :    0.020974
  32 H :    0.022365
  33 H :    0.033723

  Mayer bond orders larger than 0.100000
B(  0-S ,  1-C ) :   1.1345 B(  0-S ,  4-C ) :   1.1612 B(  1-C ,  2-C ) :   1.6137
B(  1-C , 32-H ) :   0.9640 B(  2-C ,  3-C ) :   1.2590 B(  2-C ,  6-C ) :   1.0295
B(  3-C ,  4-C ) :   1.5531 B(  3-C ,  5-H ) :   0.9766 B(  4-C , 20-C ) :   1.0468
B(  6-C ,  7-H ) :   0.9443 B(  6-C ,  8-H ) :   0.9443 B(  6-C ,  9-C ) :   1.0281
B(  9-C , 10-H ) :   0.9607 B(  9-C , 11-H ) :   0.9611 B(  9-C , 12-C ) :   1.0647
B( 12-C , 13-H ) :   0.9743 B( 12-C , 14-H ) :   0.9784 B( 12-C , 15-H ) :   0.9752
B( 16-S , 17-C ) :   1.1684 B( 16-S , 20-C ) :   1.1209 B( 17-C , 18-C ) :   1.6040
B( 17-C , 33-H ) :   0.9620 B( 18-C , 19-C ) :   1.2395 B( 18-C , 21-H ) :   0.9797
B( 19-C , 20-C ) :   1.6086 B( 19-C , 22-C ) :   1.0366 B( 22-C , 23-H ) :   0.9290
B( 22-C , 24-H ) :   0.9314 B( 22-C , 25-C ) :   1.0619 B( 25-C , 26-H ) :   0.9498
B( 25-C , 27-H ) :   0.9593 B( 25-C , 28-C ) :   1.0889 B( 28-C , 29-H ) :   0.9766
B( 28-C , 30-H ) :   0.9759 B( 28-C , 31-H ) :   0.9718

Dispersion correction           -0.013254978
FINAL SINGLE POINT ENERGY     -1339.865603602650

DIPOLE MOMENT
-------------
                                X             Y             Z
Electronic contribution:     13.88204       1.64302      -9.98142
Nuclear contribution   :    -14.31398      -1.51523      10.12896
                        -----------------------------------------
Total Dipole Moment    :     -0.43194       0.12779       0.14754
                        -----------------------------------------
Magnitude (a.u.)       :      0.47400
Magnitude (Debye)      :      1.20480

Rotational constants in cm-1:     0.021100     0.007034     0.005895
Rotational constants in MHz :   632.575930   210.859322   176.720174

                             ****ORCA TERMINATED NORMALLY****
TOTAL RUN TIME: 0 days 0 hours 0 minutes 28 seconds 603 msec
