                         Program Version 4.2.1 -  RELEASE  -
|  1> ! wB97X-D3 SP def2-SVP
|  2> %pal
|  3> nprocs 16
|  4> end
|  5>
|  6> * xyz 0 1
|  7> S 	 -10.9204 	 -12.204 	 84.8745
|  8> C 	 -12.4245 	 -12.9653 	 84.568
|  9> C 	 -13.1118 	 -13.3294 	 85.7088
| 10> C 	 -12.3624 	 -13.0169 	 86.8642
| 11> C 	 -11.1197 	 -12.5887 	 86.6046
| 12> H 	 -12.6509 	 -13.1853 	 87.9017
| 13> C 	 -14.3889 	 -14.0766 	 85.7607
| 14> H 	 -14.0688 	 -15.1867 	 85.9724
| 15> H 	 -14.8292 	 -13.8801 	 84.842
| 16> C 	 -15.2926 	 -13.5241 	 86.8891
| 17> H 	 -14.8535 	 -13.8356 	 87.8091
| 18> H 	 -15.2789 	 -12.4711 	 86.9315
| 19> C 	 -16.6909 	 -13.9724 	 86.8003
| 20> H 	 -17.3401 	 -13.5741 	 87.5545
| 21> H 	 -17.2068 	 -13.5091 	 85.8991
| 22> H 	 -16.7298 	 -15.0783 	 86.7904
| 23> S 	 -8.80352 	 -11.1023 	 87.1429
| 24> C 	 -7.9929 	 -11.2276 	 88.6721
| 25> C 	 -8.62248 	 -12.1742 	 89.4423
| 26> C 	 -9.80654 	 -12.6956 	 88.857
| 27> C 	 -10.0452 	 -12.243 	 87.5494
| 28> H 	 -8.14525 	 -12.5691 	 90.3619
| 29> C 	 -10.6157 	 -13.6333 	 89.6649
| 30> H 	 -11.6169 	 -13.1794 	 89.6873
| 31> H 	 -10.294 	 -13.5024 	 90.7286
| 32> C 	 -10.783 	 -15.0664 	 89.2461
| 33> H 	 -10.8216 	 -15.1536 	 88.1696
| 34> H 	 -11.6294 	 -15.4796 	 89.7802
| 35> C 	 -9.58046 	 -15.9551 	 89.6521
| 36> H 	 -9.71923 	 -16.9681 	 89.3625
| 37> H 	 -9.30354 	 -16.0363 	 90.6964
| 38> H 	 -8.61406 	 -15.6435 	 89.15
| 39> H 	 -12.8264 	 -13.0593 	 83.5969
| 40> H 	 -6.9748 	 -10.9367 	 88.9469
| 41> *
| 42>
| 43>                          ****END OF INPUT****

CARTESIAN COORDINATES (ANGSTROEM)
---------------------------------
  S    -10.920400  -12.204000   84.874500
  C    -12.424500  -12.965300   84.568000
  C    -13.111800  -13.329400   85.708800
  C    -12.362400  -13.016900   86.864200
  C    -11.119700  -12.588700   86.604600
  H    -12.650900  -13.185300   87.901700
  C    -14.388900  -14.076600   85.760700
  H    -14.068800  -15.186700   85.972400
  H    -14.829200  -13.880100   84.842000
  C    -15.292600  -13.524100   86.889100
  H    -14.853500  -13.835600   87.809100
  H    -15.278900  -12.471100   86.931500
  C    -16.690900  -13.972400   86.800300
  H    -17.340100  -13.574100   87.554500
  H    -17.206800  -13.509100   85.899100
  H    -16.729800  -15.078300   86.790400
  S     -8.803520  -11.102300   87.142900
  C     -7.992900  -11.227600   88.672100
  C     -8.622480  -12.174200   89.442300
  C     -9.806540  -12.695600   88.857000
  C    -10.045200  -12.243000   87.549400
  H     -8.145250  -12.569100   90.361900
  C    -10.615700  -13.633300   89.664900
  H    -11.616900  -13.179400   89.687300
  H    -10.294000  -13.502400   90.728600
  C    -10.783000  -15.066400   89.246100
  H    -10.821600  -15.153600   88.169600
  H    -11.629400  -15.479600   89.780200
  C     -9.580460  -15.955100   89.652100
  H     -9.719230  -16.968100   89.362500
  H     -9.303540  -16.036300   90.696400
  H     -8.614060  -15.643500   89.150000
  H    -12.826400  -13.059300   83.596900
  H     -6.974800  -10.936700   88.946900

 Total Charge           Charge          ....    0
 Multiplicity           Mult            ....    1
 Number of Electrons    NEL             ....  134
 Basis Dimension        Dim             ....  322

ORBITAL ENERGIES
----------------

  NO   OCC          E(Eh)            E(eV)
   0   2.0000     -88.966809     -2420.9099
   1   2.0000     -88.964973     -2420.8600
   2   2.0000     -10.330171      -281.0982
   3   2.0000     -10.329250      -281.0732
   4   2.0000     -10.314064      -280.6600
   5   2.0000     -10.306764      -280.4613
   6   2.0000     -10.298591      -280.2389
   7   2.0000     -10.295288      -280.1490
   8   2.0000     -10.294178      -280.1188
   9   2.0000     -10.291572      -280.0479
  10   2.0000     -10.289317      -279.9865
  11   2.0000     -10.288653      -279.9685
  12   2.0000     -10.286554      -279.9114
  13   2.0000     -10.279603      -279.7222
  14   2.0000     -10.278657      -279.6965
  15   2.0000     -10.274048      -279.5710
  16   2.0000      -8.081728      -219.9150
  17   2.0000      -8.080127      -219.8714
  18   2.0000      -6.040294      -164.3648
  19   2.0000      -6.038615      -164.3191
  20   2.0000      -6.036131      -164.2515
  21   2.0000      -6.034820      -164.2158
  22   2.0000      -6.032491      -164.1524
  23   2.0000      -6.030664      -164.1027
  24   2.0000      -1.012365       -27.5478
  25   2.0000      -0.991351       -26.9760
  26   2.0000      -0.921893       -25.0860
  27   2.0000      -0.914606       -24.8877
  28   2.0000      -0.873750       -23.7759
  29   2.0000      -0.858031       -23.3482
  30   2.0000      -0.848659       -23.0932
  31   2.0000      -0.822537       -22.3824
  32   2.0000      -0.782623       -21.2963
  33   2.0000      -0.770537       -20.9674
  34   2.0000      -0.716907       -19.5080
  35   2.0000      -0.702143       -19.1063
  36   2.0000      -0.687687       -18.7129
  37   2.0000      -0.662116       -18.0171
  38   2.0000      -0.642109       -17.4727
  39   2.0000      -0.627034       -17.0625
  40   2.0000      -0.596508       -16.2318
  41   2.0000      -0.582705       -15.8562
  42   2.0000      -0.564625       -15.3642
  43   2.0000      -0.548713       -14.9312
  44   2.0000      -0.546697       -14.8764
  45   2.0000      -0.531369       -14.4593
  46   2.0000      -0.518951       -14.1214
  47   2.0000      -0.511777       -13.9262
  48   2.0000      -0.506479       -13.7820
  49   2.0000      -0.503432       -13.6991
  50   2.0000      -0.487772       -13.2729
  51   2.0000      -0.481379       -13.0990
  52   2.0000      -0.472910       -12.8685
  53   2.0000      -0.465888       -12.6775
  54   2.0000      -0.463937       -12.6244
  55   2.0000      -0.455367       -12.3912
  56   2.0000      -0.441739       -12.0203
  57   2.0000      -0.437470       -11.9042
  58   2.0000      -0.436611       -11.8808
  59   2.0000      -0.430444       -11.7130
  60   2.0000      -0.417958       -11.3732
  61   2.0000      -0.412415       -11.2224
  62   2.0000      -0.410433       -11.1685
  63   2.0000      -0.361891        -9.8476
  64   2.0000      -0.335530        -9.1302
  65   2.0000      -0.324995        -8.8436
  66   2.0000      -0.282763        -7.6944
  67   0.0000       0.021229         0.5777
  68   0.0000       0.084568         2.3012
  69   0.0000       0.101321         2.7571
  70   0.0000       0.116146         3.1605
  71   0.0000       0.135084         3.6758

MULLIKEN ATOMIC CHARGES
-----------------------
   0 S :    0.101481
   1 C :   -0.098596
   2 C :   -0.109102
   3 C :   -0.021893
   4 C :   -0.103241
   5 H :    0.002783
   6 C :    0.109904
   7 H :    0.069073
   8 H :   -0.004180
   9 C :   -0.081727
  10 H :    0.020643
  11 H :    0.020708
  12 C :   -0.029456
  13 H :    0.025029
  14 H :    0.028845
  15 H :    0.035813
  16 S :    0.100973
  17 C :   -0.082222
  18 C :   -0.063296
  19 C :   -0.072578
  20 C :   -0.107937
  21 H :    0.032932
  22 C :    0.028622
  23 H :    0.030060
  24 H :    0.019964
  25 C :   -0.016993
  26 H :    0.047860
  27 H :    0.027457
  28 C :   -0.077024
  29 H :    0.021998
  30 H :    0.020309
  31 H :    0.035103
  32 H :    0.024994
  33 H :    0.063693
Sum of atomic charges:    0.0000000

LOEWDIN ATOMIC CHARGES
----------------------
   0 S :    0.395126
   1 C :   -0.198483
   2 C :   -0.066029
   3 C :   -0.066290
   4 C :   -0.167905
   5 H :    0.032079
   6 C :   -0.023277
   7 H :    0.052626
   8 H :    0.018799
   9 C :   -0.041776
  10 H :    0.018502
  11 H :    0.021879
  12 C :   -0.067077
  13 H :    0.023342
  14 H :    0.031349
  15 H :    0.028184
  16 S :    0.419187
  17 C :   -0.203222
  18 C :   -0.076120
  19 C :   -0.066537
  20 C :   -0.201377
  21 H :    0.037484
  22 C :   -0.043276
  23 H :    0.031174
  24 H :    0.035631
  25 C :   -0.034510
  26 H :    0.031511
  27 H :    0.027142
  28 C :   -0.072964
  29 H :    0.019293
  30 H :    0.018973
  31 H :    0.030503
  32 H :    0.017778
  33 H :    0.038281

  Mayer bond orders larger than 0.100000
B(  0-S ,  1-C ) :   1.1359 B(  0-S ,  4-C ) :   1.1284 B(  1-C ,  2-C ) :   1.6258
B(  1-C , 32-H ) :   0.9714 B(  2-C ,  3-C ) :   1.2109 B(  2-C ,  6-C ) :   1.0293
B(  3-C ,  4-C ) :   1.6019 B(  3-C ,  5-H ) :   0.9896 B(  4-C , 20-C ) :   1.0702
B(  6-C ,  7-H ) :   0.9279 B(  6-C ,  8-H ) :   0.9297 B(  6-C ,  9-C ) :   1.0674
B(  9-C , 10-H ) :   0.9403 B(  9-C , 11-H ) :   0.9594 B(  9-C , 12-C ) :   1.1105
B( 12-C , 13-H ) :   0.9687 B( 12-C , 14-H ) :   0.9692 B( 12-C , 15-H ) :   0.9683
B( 16-S , 17-C ) :   1.1594 B( 16-S , 20-C ) :   1.1403 B( 17-C , 18-C ) :   1.5964
B( 17-C , 33-H ) :   0.9591 B( 18-C , 19-C ) :   1.2907 B( 18-C , 21-H ) :   0.9792
B( 19-C , 20-C ) :   1.5520 B( 19-C , 22-C ) :   1.0444 B( 22-C , 23-H ) :   0.9250
B( 22-C , 24-H ) :   0.9298 B( 22-C , 25-C ) :   1.0708 B( 25-C , 26-H ) :   0.9530
B( 25-C , 27-H ) :   0.9505 B( 25-C , 28-C ) :   1.0794 B( 28-C , 29-H ) :   0.9745
B( 28-C , 30-H ) :   0.9762 B( 28-C , 31-H ) :   0.9766

Dispersion correction           -0.014501536
FINAL SINGLE POINT ENERGY     -1339.871434338289

DIPOLE MOMENT
-------------
                                X             Y             Z
Electronic contribution:     19.09934      18.56237     -13.04466
Nuclear contribution   :    -19.51321     -19.02912      13.47117
                        -----------------------------------------
Total Dipole Moment    :     -0.41387      -0.46675       0.42651
                        -----------------------------------------
Magnitude (a.u.)       :      0.75568
Magnitude (Debye)      :      1.92079

Rotational constants in cm-1:     0.018808     0.009091     0.006929
Rotational constants in MHz :   563.850148   272.555367   207.732763

                             ****ORCA TERMINATED NORMALLY****
TOTAL RUN TIME: 0 days 0 hours 0 minutes 32 seconds 715 msec
