                         Program Version 4.2.1 -  RELEASE  -
|  1> ! wB97X-D3 SP def2-SVP
|  2> %pal
|  3> nprocs 16
|  4> end
|  5>
|  6> * xyz 0 1
|  7> S 	 64.6789 	 19.8059 	 76.3038
|  8> C 	 66.2941 	 19.5269 	 76.8587
|  9> C 	 67.2571 	 20.1 	 76.0464
| 10> C 	 66.6631 	 20.874 	 74.9896
| 11> C 	 65.2867 	 20.8279 	 74.9712
| 12> H 	 67.2132 	 21.294 	 74.1737
| 13> C 	 68.7667 	 20.1565 	 76.4274
| 14> H 	 68.8028 	 19.9476 	 77.5158
| 15> H 	 69.1263 	 21.1962 	 76.3474
| 16> C 	 69.675 	 19.3057 	 75.4988
| 17> H 	 69.5634 	 18.2894 	 75.7175
| 18> H 	 69.507 	 19.4324 	 74.4404
| 19> C 	 71.1888 	 19.5955 	 75.74
| 20> H 	 71.4051 	 20.5761 	 75.3438
| 21> H 	 71.5227 	 19.7204 	 76.7889
| 22> H 	 71.7678 	 18.8341 	 75.2042
| 23> S 	 63.4295 	 20.323 	 73.0951
| 24> C 	 62.8652 	 21.5903 	 72.0501
| 25> C 	 63.4412 	 22.8072 	 72.4168
| 26> C 	 64.3745 	 22.6716 	 73.5038
| 27> C 	 64.4974 	 21.3947 	 73.9417
| 28> H 	 63.3053 	 23.6898 	 71.8435
| 29> C 	 65.1941 	 23.8954 	 73.9286
| 30> H 	 65.2842 	 24.5756 	 73.1032
| 31> H 	 66.2796 	 23.5998 	 74.099
| 32> C 	 64.669 	 24.5858 	 75.1633
| 33> H 	 65.451 	 25.2086 	 75.5867
| 34> H 	 64.4645 	 23.7588 	 75.868
| 35> C 	 63.4219 	 25.3946 	 74.8386
| 36> H 	 63.0863 	 26.0489 	 75.6256
| 37> H 	 62.6249 	 24.6465 	 74.6432
| 38> H 	 63.6798 	 26.0408 	 73.9593
| 39> H 	 66.6029 	 19.1385 	 77.8003
| 40> H 	 62.2296 	 21.3879 	 71.1994
| 41> *
| 42>
| 43>                          ****END OF INPUT****

CARTESIAN COORDINATES (ANGSTROEM)
---------------------------------
  S     64.678900   19.805900   76.303800
  C     66.294100   19.526900   76.858700
  C     67.257100   20.100000   76.046400
  C     66.663100   20.874000   74.989600
  C     65.286700   20.827900   74.971200
  H     67.213200   21.294000   74.173700
  C     68.766700   20.156500   76.427400
  H     68.802800   19.947600   77.515800
  H     69.126300   21.196200   76.347400
  C     69.675000   19.305700   75.498800
  H     69.563400   18.289400   75.717500
  H     69.507000   19.432400   74.440400
  C     71.188800   19.595500   75.740000
  H     71.405100   20.576100   75.343800
  H     71.522700   19.720400   76.788900
  H     71.767800   18.834100   75.204200
  S     63.429500   20.323000   73.095100
  C     62.865200   21.590300   72.050100
  C     63.441200   22.807200   72.416800
  C     64.374500   22.671600   73.503800
  C     64.497400   21.394700   73.941700
  H     63.305300   23.689800   71.843500
  C     65.194100   23.895400   73.928600
  H     65.284200   24.575600   73.103200
  H     66.279600   23.599800   74.099000
  C     64.669000   24.585800   75.163300
  H     65.451000   25.208600   75.586700
  H     64.464500   23.758800   75.868000
  C     63.421900   25.394600   74.838600
  H     63.086300   26.048900   75.625600
  H     62.624900   24.646500   74.643200
  H     63.679800   26.040800   73.959300
  H     66.602900   19.138500   77.800300
  H     62.229600   21.387900   71.199400

 Total Charge           Charge          ....    0
 Multiplicity           Mult            ....    1
 Number of Electrons    NEL             ....  134
 Basis Dimension        Dim             ....  322

ORBITAL ENERGIES
----------------

  NO   OCC          E(Eh)            E(eV)
   0   2.0000     -88.970037     -2420.9978
   1   2.0000     -88.963382     -2420.8167
   2   2.0000     -10.328298      -281.0473
   3   2.0000     -10.319463      -280.8069
   4   2.0000     -10.318319      -280.7757
   5   2.0000     -10.311185      -280.5816
   6   2.0000     -10.301524      -280.3187
   7   2.0000     -10.301272      -280.3119
   8   2.0000     -10.299988      -280.2769
   9   2.0000     -10.293709      -280.1061
  10   2.0000     -10.292804      -280.0814
  11   2.0000     -10.290211      -280.0109
  12   2.0000     -10.284973      -279.8683
  13   2.0000     -10.279778      -279.7270
  14   2.0000     -10.279100      -279.7085
  15   2.0000     -10.276230      -279.6304
  16   2.0000      -8.084235      -219.9832
  17   2.0000      -8.078974      -219.8401
  18   2.0000      -6.042803      -164.4330
  19   2.0000      -6.038855      -164.3256
  20   2.0000      -6.037380      -164.2855
  21   2.0000      -6.034924      -164.2186
  22   2.0000      -6.033287      -164.1741
  23   2.0000      -6.029859      -164.0808
  24   2.0000      -1.011150       -27.5148
  25   2.0000      -0.984067       -26.7778
  26   2.0000      -0.912102       -24.8196
  27   2.0000      -0.905409       -24.6374
  28   2.0000      -0.875501       -23.8236
  29   2.0000      -0.850492       -23.1431
  30   2.0000      -0.843975       -22.9657
  31   2.0000      -0.813504       -22.1366
  32   2.0000      -0.779632       -21.2149
  33   2.0000      -0.769568       -20.9410
  34   2.0000      -0.710314       -19.3286
  35   2.0000      -0.701345       -19.0846
  36   2.0000      -0.687210       -18.6999
  37   2.0000      -0.670784       -18.2530
  38   2.0000      -0.641241       -17.4490
  39   2.0000      -0.618314       -16.8252
  40   2.0000      -0.598180       -16.2773
  41   2.0000      -0.568572       -15.4716
  42   2.0000      -0.558916       -15.2089
  43   2.0000      -0.550865       -14.9898
  44   2.0000      -0.546697       -14.8764
  45   2.0000      -0.528465       -14.3803
  46   2.0000      -0.517349       -14.0778
  47   2.0000      -0.511559       -13.9202
  48   2.0000      -0.504198       -13.7199
  49   2.0000      -0.497994       -13.5511
  50   2.0000      -0.487236       -13.2584
  51   2.0000      -0.477585       -12.9957
  52   2.0000      -0.470535       -12.8039
  53   2.0000      -0.465576       -12.6690
  54   2.0000      -0.457290       -12.4435
  55   2.0000      -0.447720       -12.1831
  56   2.0000      -0.445667       -12.1272
  57   2.0000      -0.442068       -12.0293
  58   2.0000      -0.428039       -11.6475
  59   2.0000      -0.423333       -11.5195
  60   2.0000      -0.420007       -11.4290
  61   2.0000      -0.415833       -11.3154
  62   2.0000      -0.411959       -11.2100
  63   2.0000      -0.351158        -9.5555
  64   2.0000      -0.332524        -9.0484
  65   2.0000      -0.329199        -8.9579
  66   2.0000      -0.293253        -7.9798
  67   0.0000       0.034671         0.9435
  68   0.0000       0.062836         1.7098
  69   0.0000       0.113820         3.0972
  70   0.0000       0.115583         3.1452
  71   0.0000       0.136439         3.7127

MULLIKEN ATOMIC CHARGES
-----------------------
   0 S :    0.123092
   1 C :   -0.100910
   2 C :   -0.081949
   3 C :    0.030533
   4 C :   -0.148346
   5 H :    0.016075
   6 C :    0.031611
   7 H :    0.027748
   8 H :    0.028584
   9 C :   -0.042352
  10 H :    0.020741
  11 H :    0.035033
  12 C :   -0.069261
  13 H :    0.020166
  14 H :    0.033015
  15 H :    0.042925
  16 S :    0.107982
  17 C :   -0.099746
  18 C :   -0.016709
  19 C :   -0.041076
  20 C :   -0.169475
  21 H :    0.009695
  22 C :    0.045479
  23 H :    0.009479
  24 H :    0.028296
  25 C :   -0.055486
  26 H :    0.025968
  27 H :    0.038291
  28 C :   -0.057786
  29 H :    0.034694
  30 H :    0.049314
  31 H :    0.028150
  32 H :    0.033953
  33 H :    0.062273
Sum of atomic charges:    0.0000000

LOEWDIN ATOMIC CHARGES
----------------------
   0 S :    0.399093
   1 C :   -0.200358
   2 C :   -0.062663
   3 C :   -0.054261
   4 C :   -0.186454
   5 H :    0.028662
   6 C :   -0.029434
   7 H :    0.032911
   8 H :    0.030119
   9 C :   -0.033339
  10 H :    0.016763
  11 H :    0.026850
  12 C :   -0.068861
  13 H :    0.018865
  14 H :    0.026573
  15 H :    0.028686
  16 S :    0.417809
  17 C :   -0.186599
  18 C :   -0.065823
  19 C :   -0.057922
  20 C :   -0.205134
  21 H :    0.025558
  22 C :   -0.031430
  23 H :    0.020512
  24 H :    0.035311
  25 C :   -0.042483
  26 H :    0.020820
  27 H :    0.029481
  28 C :   -0.068610
  29 H :    0.022163
  30 H :    0.033434
  31 H :    0.027155
  32 H :    0.023450
  33 H :    0.029158

  Mayer bond orders larger than 0.100000
B(  0-S ,  1-C ) :   1.1325 B(  0-S ,  4-C ) :   1.1237 B(  1-C ,  2-C ) :   1.6350
B(  1-C , 32-H ) :   0.9629 B(  2-C ,  3-C ) :   1.2369 B(  2-C ,  6-C ) :   1.0127
B(  3-C ,  4-C ) :   1.5924 B(  3-C ,  5-H ) :   0.9880 B(  4-C , 20-C ) :   1.0572
B(  6-C ,  7-H ) :   0.9469 B(  6-C ,  8-H ) :   0.9541 B(  6-C ,  9-C ) :   1.0462
B(  9-C , 10-H ) :   0.9585 B(  9-C , 11-H ) :   0.9617 B(  9-C , 12-C ) :   1.0751
B( 12-C , 13-H ) :   0.9765 B( 12-C , 14-H ) :   0.9762 B( 12-C , 15-H ) :   0.9765
B( 16-S , 17-C ) :   1.1649 B( 16-S , 20-C ) :   1.1390 B( 17-C , 18-C ) :   1.5859
B( 17-C , 33-H ) :   0.9719 B( 18-C , 19-C ) :   1.2399 B( 18-C , 21-H ) :   0.9950
B( 19-C , 20-C ) :   1.6223 B( 19-C , 22-C ) :   1.0331 B( 22-C , 23-H ) :   0.9390
B( 22-C , 24-H ) :   0.9352 B( 22-C , 25-C ) :   1.0688 B( 25-C , 26-H ) :   0.9539
B( 25-C , 27-H ) :   0.9566 B( 25-C , 28-C ) :   1.0740 B( 28-C , 29-H ) :   0.9744
B( 28-C , 30-H ) :   0.9735 B( 28-C , 31-H ) :   0.9737

Dispersion correction           -0.014233225
FINAL SINGLE POINT ENERGY     -1339.887203489627

DIPOLE MOMENT
-------------
                                X             Y             Z
Electronic contribution:    -20.38665     -13.54403      -3.68580
Nuclear contribution   :     20.93782      13.91565       3.59440
                        -----------------------------------------
Total Dipole Moment    :      0.55117       0.37161      -0.09140
                        -----------------------------------------
Magnitude (a.u.)       :      0.67100
Magnitude (Debye)      :      1.70555

Rotational constants in cm-1:     0.019991     0.007615     0.006823
Rotational constants in MHz :   599.319684   228.301058   204.552332

                             ****ORCA TERMINATED NORMALLY****
TOTAL RUN TIME: 0 days 0 hours 0 minutes 28 seconds 474 msec
