                         Program Version 4.2.1 -  RELEASE  -
|  1> ! wB97X-D3 SP def2-SVP
|  2> %pal
|  3> nprocs 16
|  4> end
|  5>
|  6> * xyz 0 1
|  7> S 	 -75.3727 	 50.17 	 136.078
|  8> C 	 -76.3296 	 49.0152 	 136.981
|  9> C 	 -77.5904 	 49.4785 	 137.364
| 10> C 	 -77.7216 	 50.817 	 137.013
| 11> C 	 -76.6203 	 51.3408 	 136.371
| 12> H 	 -78.5234 	 51.4615 	 137.207
| 13> C 	 -78.6606 	 48.7144 	 138.18
| 14> H 	 -79.6846 	 49.0211 	 137.904
| 15> H 	 -78.6622 	 48.9444 	 139.269
| 16> C 	 -78.5015 	 47.2037 	 138.097
| 17> H 	 -78.4548 	 46.7085 	 137.089
| 18> H 	 -77.4779 	 47.0292 	 138.463
| 19> C 	 -79.5135 	 46.4981 	 139.041
| 20> H 	 -79.2482 	 45.4266 	 139.243
| 21> H 	 -79.6639 	 46.9717 	 140.023
| 22> H 	 -80.4293 	 46.5061 	 138.64
| 23> S 	 -78.0874 	 53.3744 	 135.144
| 24> C 	 -77.1468 	 54.8527 	 134.879
| 25> C 	 -75.9275 	 54.868 	 135.422
| 26> C 	 -75.484 	 53.5883 	 135.933
| 27> C 	 -76.5655 	 52.7111 	 135.856
| 28> H 	 -75.2842 	 55.7887 	 135.591
| 29> C 	 -74.1273 	 53.4764 	 136.586
| 30> H 	 -73.3976 	 54.0884 	 136.065
| 31> H 	 -73.731 	 52.4682 	 136.469
| 32> C 	 -74.0285 	 53.7603 	 138.097
| 33> H 	 -73.0077 	 53.515 	 138.438
| 34> H 	 -74.7087 	 53.0544 	 138.581
| 35> C 	 -74.2992 	 55.1889 	 138.573
| 36> H 	 -75.3136 	 55.5044 	 138.25
| 37> H 	 -73.6393 	 55.9352 	 138.232
| 38> H 	 -74.2562 	 55.3333 	 139.69
| 39> H 	 -75.9289 	 47.9936 	 137.169
| 40> H 	 -77.5865 	 55.7285 	 134.567
| 41> *
| 42>
| 43>                          ****END OF INPUT****

CARTESIAN COORDINATES (ANGSTROEM)
---------------------------------
  S    -75.372700   50.170000  136.078000
  C    -76.329600   49.015200  136.981000
  C    -77.590400   49.478500  137.364000
  C    -77.721600   50.817000  137.013000
  C    -76.620300   51.340800  136.371000
  H    -78.523400   51.461500  137.207000
  C    -78.660600   48.714400  138.180000
  H    -79.684600   49.021100  137.904000
  H    -78.662200   48.944400  139.269000
  C    -78.501500   47.203700  138.097000
  H    -78.454800   46.708500  137.089000
  H    -77.477900   47.029200  138.463000
  C    -79.513500   46.498100  139.041000
  H    -79.248200   45.426600  139.243000
  H    -79.663900   46.971700  140.023000
  H    -80.429300   46.506100  138.640000
  S    -78.087400   53.374400  135.144000
  C    -77.146800   54.852700  134.879000
  C    -75.927500   54.868000  135.422000
  C    -75.484000   53.588300  135.933000
  C    -76.565500   52.711100  135.856000
  H    -75.284200   55.788700  135.591000
  C    -74.127300   53.476400  136.586000
  H    -73.397600   54.088400  136.065000
  H    -73.731000   52.468200  136.469000
  C    -74.028500   53.760300  138.097000
  H    -73.007700   53.515000  138.438000
  H    -74.708700   53.054400  138.581000
  C    -74.299200   55.188900  138.573000
  H    -75.313600   55.504400  138.250000
  H    -73.639300   55.935200  138.232000
  H    -74.256200   55.333300  139.690000
  H    -75.928900   47.993600  137.169000
  H    -77.586500   55.728500  134.567000

 Total Charge           Charge          ....    0
 Multiplicity           Mult            ....    1
 Number of Electrons    NEL             ....  134
 Basis Dimension        Dim             ....  322

ORBITAL ENERGIES
----------------

  NO   OCC          E(Eh)            E(eV)
   0   2.0000     -88.970616     -2421.0136
   1   2.0000     -88.969650     -2420.9873
   2   2.0000     -10.330942      -281.1192
   3   2.0000     -10.322699      -280.8949
   4   2.0000     -10.316405      -280.7236
   5   2.0000     -10.306998      -280.4677
   6   2.0000     -10.304123      -280.3894
   7   2.0000     -10.302653      -280.3494
   8   2.0000     -10.299942      -280.2757
   9   2.0000     -10.293941      -280.1124
  10   2.0000     -10.293291      -280.0947
  11   2.0000     -10.291164      -280.0368
  12   2.0000     -10.288683      -279.9693
  13   2.0000     -10.282799      -279.8092
  14   2.0000     -10.277168      -279.6560
  15   2.0000     -10.274317      -279.5784
  16   2.0000      -8.085199      -220.0095
  17   2.0000      -8.083148      -219.9536
  18   2.0000      -6.043556      -164.4535
  19   2.0000      -6.041745      -164.4043
  20   2.0000      -6.039835      -164.3523
  21   2.0000      -6.038309      -164.3107
  22   2.0000      -6.036047      -164.2492
  23   2.0000      -6.033418      -164.1776
  24   2.0000      -1.006362       -27.3845
  25   2.0000      -0.982191       -26.7268
  26   2.0000      -0.910593       -24.7785
  27   2.0000      -0.907317       -24.6893
  28   2.0000      -0.865238       -23.5443
  29   2.0000      -0.857117       -23.3233
  30   2.0000      -0.845990       -23.0205
  31   2.0000      -0.809329       -22.0230
  32   2.0000      -0.788897       -21.4670
  33   2.0000      -0.772410       -21.0183
  34   2.0000      -0.712357       -19.3842
  35   2.0000      -0.704029       -19.1576
  36   2.0000      -0.685094       -18.6424
  37   2.0000      -0.661967       -18.0130
  38   2.0000      -0.639628       -17.4052
  39   2.0000      -0.613563       -16.6959
  40   2.0000      -0.600700       -16.3459
  41   2.0000      -0.563615       -15.3367
  42   2.0000      -0.557897       -15.1811
  43   2.0000      -0.551690       -15.0122
  44   2.0000      -0.540065       -14.6959
  45   2.0000      -0.519514       -14.1367
  46   2.0000      -0.516473       -14.0539
  47   2.0000      -0.508507       -13.8372
  48   2.0000      -0.499297       -13.5866
  49   2.0000      -0.490976       -13.3601
  50   2.0000      -0.483935       -13.1685
  51   2.0000      -0.480866       -13.0850
  52   2.0000      -0.477897       -13.0042
  53   2.0000      -0.463641       -12.6163
  54   2.0000      -0.456798       -12.4301
  55   2.0000      -0.455569       -12.3967
  56   2.0000      -0.446424       -12.1478
  57   2.0000      -0.443875       -12.0784
  58   2.0000      -0.432506       -11.7691
  59   2.0000      -0.426696       -11.6110
  60   2.0000      -0.423417       -11.5218
  61   2.0000      -0.415991       -11.3197
  62   2.0000      -0.413020       -11.2389
  63   2.0000      -0.348442        -9.4816
  64   2.0000      -0.337613        -9.1869
  65   2.0000      -0.334095        -9.0912
  66   2.0000      -0.284408        -7.7391
  67   0.0000       0.025749         0.7007
  68   0.0000       0.074775         2.0347
  69   0.0000       0.095283         2.5928
  70   0.0000       0.110691         3.0120
  71   0.0000       0.130346         3.5469

MULLIKEN ATOMIC CHARGES
-----------------------
   0 S :    0.126438
   1 C :   -0.173553
   2 C :   -0.013307
   3 C :   -0.005172
   4 C :   -0.130496
   5 H :   -0.013270
   6 C :    0.055028
   7 H :    0.024615
   8 H :    0.042964
   9 C :   -0.118068
  10 H :    0.045166
  11 H :    0.027247
  12 C :   -0.014124
  13 H :    0.037966
  14 H :    0.023217
  15 H :    0.004960
  16 S :    0.100711
  17 C :   -0.039795
  18 C :   -0.047183
  19 C :   -0.058722
  20 C :   -0.151120
  21 H :    0.042702
  22 C :    0.075841
  23 H :    0.020716
  24 H :    0.017930
  25 C :   -0.052288
  26 H :    0.030126
  27 H :    0.037059
  28 C :   -0.067908
  29 H :    0.035192
  30 H :    0.016193
  31 H :    0.039333
  32 H :    0.061148
  33 H :    0.020451
Sum of atomic charges:   -0.0000000

LOEWDIN ATOMIC CHARGES
----------------------
   0 S :    0.422827
   1 C :   -0.206024
   2 C :   -0.058107
   3 C :   -0.067125
   4 C :   -0.193264
   5 H :    0.018346
   6 C :   -0.030696
   7 H :    0.028763
   8 H :    0.039226
   9 C :   -0.047863
  10 H :    0.031137
  11 H :    0.021559
  12 C :   -0.060620
  13 H :    0.033392
  14 H :    0.027401
  15 H :    0.006583
  16 S :    0.372454
  17 C :   -0.168420
  18 C :   -0.067573
  19 C :   -0.057511
  20 C :   -0.169098
  21 H :    0.042942
  22 C :   -0.035703
  23 H :    0.029894
  24 H :    0.026300
  25 C :   -0.034746
  26 H :    0.027001
  27 H :    0.028913
  28 C :   -0.075248
  29 H :    0.026867
  30 H :    0.014568
  31 H :    0.034337
  32 H :    0.028670
  33 H :    0.010820

  Mayer bond orders larger than 0.100000
B(  0-S ,  1-C ) :   1.1452 B(  0-S ,  4-C ) :   1.1566 B(  1-C ,  2-C ) :   1.5903
B(  1-C , 32-H ) :   0.9591 B(  2-C ,  3-C ) :   1.2604 B(  2-C ,  6-C ) :   1.0066
B(  3-C ,  4-C ) :   1.5514 B(  3-C ,  5-H ) :   1.0062 B(  4-C , 20-C ) :   1.0639
B(  6-C ,  7-H ) :   0.9474 B(  6-C ,  8-H ) :   0.9375 B(  6-C ,  9-C ) :   1.0602
B(  9-C , 10-H ) :   0.9612 B(  9-C , 11-H ) :   0.9475 B(  9-C , 12-C ) :   1.0758
B( 12-C , 13-H ) :   0.9738 B( 12-C , 14-H ) :   0.9719 B( 12-C , 15-H ) :   0.9749
B( 16-S , 17-C ) :   1.1076 B( 16-S , 20-C ) :   1.1221 B( 17-C , 18-C ) :   1.6843
B( 17-C , 33-H ) :   0.9673 B( 18-C , 19-C ) :   1.2007 B( 18-C , 21-H ) :   0.9710
B( 19-C , 20-C ) :   1.6151 B( 19-C , 22-C ) :   1.0496 B( 22-C , 23-H ) :   0.9319
B( 22-C , 24-H ) :   0.9215 B( 22-C , 25-C ) :   1.0763 B( 25-C , 26-H ) :   0.9536
B( 25-C , 27-H ) :   0.9540 B( 25-C , 28-C ) :   1.0806 B( 28-C , 29-H ) :   0.9729
B( 28-C , 30-H ) :   0.9742 B( 28-C , 31-H ) :   0.9727

Dispersion correction           -0.014148331
FINAL SINGLE POINT ENERGY     -1339.872787189314

DIPOLE MOMENT
-------------
                                X             Y             Z
Electronic contribution:     -0.45252       6.46323     -18.23450
Nuclear contribution   :      0.48947      -6.40897      18.70939
                        -----------------------------------------
Total Dipole Moment    :      0.03695       0.05426       0.47489
                        -----------------------------------------
Magnitude (a.u.)       :      0.47941
Magnitude (Debye)      :      1.21856

Rotational constants in cm-1:     0.023163     0.007097     0.006322
Rotational constants in MHz :   694.422931   212.769056   189.539085

                             ****ORCA TERMINATED NORMALLY****
TOTAL RUN TIME: 0 days 0 hours 0 minutes 34 seconds 331 msec
