                         Program Version 4.2.1 -  RELEASE  -
|  1> ! wB97X-D3 SP def2-SVP
|  2> %pal
|  3> nprocs 16
|  4> end
|  5>
|  6> * xyz 0 1
|  7> S 	 17.2505 	 -0.134745 	 64.6153
|  8> C 	 15.8341 	 0.260281 	 63.5732
|  9> C 	 16.0526 	 1.36789 	 62.7871
| 10> C 	 17.3165 	 1.96852 	 63.0892
| 11> C 	 18.0426 	 1.27415 	 64.0968
| 12> H 	 17.8137 	 2.85227 	 62.73
| 13> C 	 15.1857 	 1.94216 	 61.6903
| 14> H 	 14.7486 	 1.07815 	 61.1389
| 15> H 	 15.9023 	 2.44884 	 60.9909
| 16> C 	 14.0837 	 2.96212 	 62.0656
| 17> H 	 13.6929 	 3.39875 	 61.1354
| 18> H 	 13.3156 	 2.48388 	 62.689
| 19> C 	 14.5732 	 4.16979 	 62.968
| 20> H 	 15.2532 	 4.86932 	 62.4585
| 21> H 	 13.7294 	 4.8129 	 63.196
| 22> H 	 15.1172 	 3.85682 	 63.8625
| 23> S 	 20.6557 	 0.475785 	 63.7267
| 24> C 	 21.8474 	 1.20534 	 64.7235
| 25> C 	 21.3737 	 2.34743 	 65.3629
| 26> C 	 20.0203 	 2.47076 	 65.2557
| 27> C 	 19.4015 	 1.49146 	 64.5441
| 28> H 	 22.0048 	 2.93198 	 65.9577
| 29> C 	 19.3111 	 3.6705 	 65.8745
| 30> H 	 19.529 	 4.44016 	 65.1708
| 31> H 	 19.7692 	 3.94989 	 66.8181
| 32> C 	 17.8298 	 3.7013 	 66.2401
| 33> H 	 17.373 	 3.51077 	 65.3017
| 34> H 	 17.5436 	 4.62725 	 66.6025
| 35> C 	 17.4695 	 2.70246 	 67.3287
| 36> H 	 16.3873 	 2.5856 	 67.3709
| 37> H 	 17.8542 	 3.14641 	 68.1965
| 38> H 	 17.6814 	 1.64858 	 67.2573
| 39> H 	 15.0148 	 -0.415996 	 63.5731
| 40> H 	 22.8809 	 0.989686 	 64.7159
| 41> *
| 42>
| 43>                          ****END OF INPUT****

CARTESIAN COORDINATES (ANGSTROEM)
---------------------------------
  S     17.250500   -0.134745   64.615300
  C     15.834100    0.260281   63.573200
  C     16.052600    1.367890   62.787100
  C     17.316500    1.968520   63.089200
  C     18.042600    1.274150   64.096800
  H     17.813700    2.852270   62.730000
  C     15.185700    1.942160   61.690300
  H     14.748600    1.078150   61.138900
  H     15.902300    2.448840   60.990900
  C     14.083700    2.962120   62.065600
  H     13.692900    3.398750   61.135400
  H     13.315600    2.483880   62.689000
  C     14.573200    4.169790   62.968000
  H     15.253200    4.869320   62.458500
  H     13.729400    4.812900   63.196000
  H     15.117200    3.856820   63.862500
  S     20.655700    0.475785   63.726700
  C     21.847400    1.205340   64.723500
  C     21.373700    2.347430   65.362900
  C     20.020300    2.470760   65.255700
  C     19.401500    1.491460   64.544100
  H     22.004800    2.931980   65.957700
  C     19.311100    3.670500   65.874500
  H     19.529000    4.440160   65.170800
  H     19.769200    3.949890   66.818100
  C     17.829800    3.701300   66.240100
  H     17.373000    3.510770   65.301700
  H     17.543600    4.627250   66.602500
  C     17.469500    2.702460   67.328700
  H     16.387300    2.585600   67.370900
  H     17.854200    3.146410   68.196500
  H     17.681400    1.648580   67.257300
  H     15.014800   -0.415996   63.573100
  H     22.880900    0.989686   64.715900

 Total Charge           Charge          ....    0
 Multiplicity           Mult            ....    1
 Number of Electrons    NEL             ....  134
 Basis Dimension        Dim             ....  322

ORBITAL ENERGIES
----------------

  NO   OCC          E(Eh)            E(eV)
   0   2.0000     -88.966629     -2420.9051
   1   2.0000     -88.962918     -2420.8041
   2   2.0000     -10.325590      -280.9736
   3   2.0000     -10.319538      -280.8089
   4   2.0000     -10.316068      -280.7145
   5   2.0000     -10.312332      -280.6128
   6   2.0000     -10.306559      -280.4557
   7   2.0000     -10.300347      -280.2867
   8   2.0000     -10.296132      -280.1720
   9   2.0000     -10.296126      -280.1718
  10   2.0000     -10.295996      -280.1683
  11   2.0000     -10.282821      -279.8098
  12   2.0000     -10.281689      -279.7790
  13   2.0000     -10.279126      -279.7092
  14   2.0000     -10.269896      -279.4581
  15   2.0000     -10.262040      -279.2443
  16   2.0000      -8.081428      -219.9068
  17   2.0000      -8.077640      -219.8037
  18   2.0000      -6.039775      -164.3506
  19   2.0000      -6.036042      -164.2490
  20   2.0000      -6.035797      -164.2424
  21   2.0000      -6.032475      -164.1520
  22   2.0000      -6.032294      -164.1471
  23   2.0000      -6.028376      -164.0405
  24   2.0000      -1.008834       -27.4518
  25   2.0000      -0.985347       -26.8127
  26   2.0000      -0.910948       -24.7881
  27   2.0000      -0.908828       -24.7305
  28   2.0000      -0.865842       -23.5608
  29   2.0000      -0.855272       -23.2731
  30   2.0000      -0.842859       -22.9354
  31   2.0000      -0.807456       -21.9720
  32   2.0000      -0.787640       -21.4328
  33   2.0000      -0.776829       -21.1386
  34   2.0000      -0.710592       -19.3362
  35   2.0000      -0.703075       -19.1316
  36   2.0000      -0.689098       -18.7513
  37   2.0000      -0.666384       -18.1332
  38   2.0000      -0.647923       -17.6309
  39   2.0000      -0.605970       -16.4893
  40   2.0000      -0.593851       -16.1595
  41   2.0000      -0.573472       -15.6050
  42   2.0000      -0.568056       -15.4576
  43   2.0000      -0.549106       -14.9419
  44   2.0000      -0.547474       -14.8975
  45   2.0000      -0.542272       -14.7560
  46   2.0000      -0.514696       -14.0056
  47   2.0000      -0.509168       -13.8552
  48   2.0000      -0.500945       -13.6314
  49   2.0000      -0.490556       -13.3487
  50   2.0000      -0.486128       -13.2282
  51   2.0000      -0.476624       -12.9696
  52   2.0000      -0.474131       -12.9018
  53   2.0000      -0.465639       -12.6707
  54   2.0000      -0.462858       -12.5950
  55   2.0000      -0.448341       -12.2000
  56   2.0000      -0.444986       -12.1087
  57   2.0000      -0.437622       -11.9083
  58   2.0000      -0.426955       -11.6180
  59   2.0000      -0.422817       -11.5054
  60   2.0000      -0.420857       -11.4521
  61   2.0000      -0.417669       -11.3653
  62   2.0000      -0.401796       -10.9334
  63   2.0000      -0.338820        -9.2198
  64   2.0000      -0.329563        -8.9679
  65   2.0000      -0.322462        -8.7746
  66   2.0000      -0.301110        -8.1936
  67   0.0000       0.034607         0.9417
  68   0.0000       0.055684         1.5152
  69   0.0000       0.104910         2.8547
  70   0.0000       0.114644         3.1196
  71   0.0000       0.127394         3.4666

MULLIKEN ATOMIC CHARGES
-----------------------
   0 S :    0.115824
   1 C :   -0.132940
   2 C :   -0.055156
   3 C :    0.057328
   4 C :   -0.217907
   5 H :    0.008551
   6 C :    0.048012
   7 H :    0.039724
   8 H :    0.034532
   9 C :   -0.051832
  10 H :    0.041010
  11 H :    0.037669
  12 C :   -0.093581
  13 H :    0.020771
  14 H :    0.034629
  15 H :    0.056295
  16 S :    0.108163
  17 C :   -0.056653
  18 C :   -0.043615
  19 C :    0.035343
  20 C :   -0.190017
  21 H :   -0.007191
  22 C :    0.032122
  23 H :    0.030458
  24 H :    0.008378
  25 C :    0.009837
  26 H :    0.017087
  27 H :    0.006910
  28 C :   -0.030870
  29 H :    0.022278
  30 H :    0.015791
  31 H :    0.024130
  32 H :    0.035363
  33 H :    0.039557
Sum of atomic charges:    0.0000000

LOEWDIN ATOMIC CHARGES
----------------------
   0 S :    0.422819
   1 C :   -0.177322
   2 C :   -0.062999
   3 C :   -0.060703
   4 C :   -0.214775
   5 H :    0.029085
   6 C :   -0.037321
   7 H :    0.036820
   8 H :    0.037100
   9 C :   -0.034335
  10 H :    0.029050
  11 H :    0.026524
  12 C :   -0.074584
  13 H :    0.021191
  14 H :    0.026522
  15 H :    0.026656
  16 S :    0.398570
  17 C :   -0.174704
  18 C :   -0.068723
  19 C :   -0.051155
  20 C :   -0.198699
  21 H :    0.023317
  22 C :   -0.024839
  23 H :    0.031202
  24 H :    0.024342
  25 C :   -0.030425
  26 H :    0.014801
  27 H :    0.019109
  28 C :   -0.062302
  29 H :    0.029827
  30 H :    0.017457
  31 H :    0.020932
  32 H :    0.017207
  33 H :    0.020355

  Mayer bond orders larger than 0.100000
B(  0-S ,  1-C ) :   1.1388 B(  0-S ,  4-C ) :   1.1876 B(  1-C ,  2-C ) :   1.5941
B(  1-C ,  4-C ) :   0.1022 B(  1-C , 32-H ) :   0.9817 B(  2-C ,  3-C ) :   1.2280
B(  2-C ,  6-C ) :   1.0104 B(  3-C ,  4-C ) :   1.5578 B(  3-C ,  5-H ) :   0.9941
B(  4-C , 20-C ) :   1.0179 B(  6-C ,  7-H ) :   0.9409 B(  6-C ,  8-H ) :   0.9426
B(  6-C ,  9-C ) :   1.0729 B(  9-C , 10-H ) :   0.9562 B(  9-C , 11-H ) :   0.9576
B(  9-C , 12-C ) :   1.0733 B( 12-C , 13-H ) :   0.9757 B( 12-C , 14-H ) :   0.9740
B( 12-C , 15-H ) :   0.9736 B( 16-S , 17-C ) :   1.1788 B( 16-S , 20-C ) :   1.1246
B( 17-C , 18-C ) :   1.5775 B( 17-C , 20-C ) :   0.1094 B( 17-C , 33-H ) :   0.9688
B( 18-C , 19-C ) :   1.2735 B( 18-C , 21-H ) :   1.0024 B( 19-C , 20-C ) :   1.6024
B( 19-C , 22-C ) :   1.0075 B( 22-C , 23-H ) :   0.9302 B( 22-C , 24-H ) :   0.9405
B( 22-C , 25-C ) :   1.0914 B( 25-C , 26-H ) :   0.9393 B( 25-C , 27-H ) :   0.9433
B( 25-C , 28-C ) :   1.0795 B( 28-C , 29-H ) :   0.9713 B( 28-C , 30-H ) :   0.9760
B( 28-C , 31-H ) :   0.9744

Dispersion correction           -0.016390972
FINAL SINGLE POINT ENERGY     -1339.861894657985

DIPOLE MOMENT
-------------
                                X             Y             Z
Electronic contribution:     17.01974     -19.57709      -2.72015
Nuclear contribution   :    -17.21561      20.12145       2.58484
                        -----------------------------------------
Total Dipole Moment    :     -0.19587       0.54435      -0.13532
                        -----------------------------------------
Magnitude (a.u.)       :      0.59414
Magnitude (Debye)      :      1.51017

Rotational constants in cm-1:     0.020805     0.009504     0.008135
Rotational constants in MHz :   623.705513   284.919749   243.866717

                             ****ORCA TERMINATED NORMALLY****
TOTAL RUN TIME: 0 days 0 hours 0 minutes 39 seconds 121 msec
