                         Program Version 4.2.1 -  RELEASE  -
|  1> ! wB97X-D3 SP def2-SVP
|  2> %pal
|  3> nprocs 16
|  4> end
|  5>
|  6> * xyz 0 1
|  7> S 	 57.9665 	 4.02608 	 80.8682
|  8> C 	 56.9031 	 3.54269 	 79.5899
|  9> C 	 55.6193 	 3.42 	 80.0861
| 10> C 	 55.4947 	 3.60159 	 81.529
| 11> C 	 56.7331 	 3.81725 	 82.1467
| 12> H 	 54.6323 	 3.37916 	 82.1744
| 13> C 	 54.4507 	 3.11972 	 79.1737
| 14> H 	 54.0469 	 4.17143 	 78.9783
| 15> H 	 53.7924 	 2.54968 	 79.8401
| 16> C 	 54.7606 	 2.30442 	 77.9067
| 17> H 	 53.8218 	 2.22214 	 77.3335
| 18> H 	 55.4247 	 2.77959 	 77.1234
| 19> C 	 55.1956 	 0.836363 	 78.1818
| 20> H 	 55.2346 	 0.285443 	 77.2674
| 21> H 	 56.1746 	 0.708894 	 78.632
| 22> H 	 54.4446 	 0.357371 	 78.817
| 23> S 	 56.7835 	 5.77409 	 84.137
| 24> C 	 57.1318 	 5.27478 	 85.6822
| 25> C 	 57.2344 	 3.89657 	 85.837
| 26> C 	 57.0803 	 3.2354 	 84.5771
| 27> C 	 56.9595 	 4.10936 	 83.5419
| 28> H 	 57.5382 	 3.3519 	 86.7457
| 29> C 	 56.9937 	 1.74722 	 84.4454
| 30> H 	 56.4243 	 1.33748 	 83.6144
| 31> H 	 56.3599 	 1.45472 	 85.3146
| 32> C 	 58.3437 	 1.09206 	 84.5128
| 33> H 	 59.0432 	 1.43457 	 85.3081
| 34> H 	 58.8665 	 1.31708 	 83.5818
| 35> C 	 58.081 	 -0.38363 	 84.6477
| 36> H 	 58.944 	 -0.850782 	 85.0814
| 37> H 	 57.713 	 -0.839158 	 83.748
| 38> H 	 57.3679 	 -0.532247 	 85.4438
| 39> H 	 57.1732 	 3.51527 	 78.5199
| 40> H 	 57.1422 	 5.91061 	 86.5132
| 41> *
| 42>
| 43>                          ****END OF INPUT****

CARTESIAN COORDINATES (ANGSTROEM)
---------------------------------
  S     57.966500    4.026080   80.868200
  C     56.903100    3.542690   79.589900
  C     55.619300    3.420000   80.086100
  C     55.494700    3.601590   81.529000
  C     56.733100    3.817250   82.146700
  H     54.632300    3.379160   82.174400
  C     54.450700    3.119720   79.173700
  H     54.046900    4.171430   78.978300
  H     53.792400    2.549680   79.840100
  C     54.760600    2.304420   77.906700
  H     53.821800    2.222140   77.333500
  H     55.424700    2.779590   77.123400
  C     55.195600    0.836363   78.181800
  H     55.234600    0.285443   77.267400
  H     56.174600    0.708894   78.632000
  H     54.444600    0.357371   78.817000
  S     56.783500    5.774090   84.137000
  C     57.131800    5.274780   85.682200
  C     57.234400    3.896570   85.837000
  C     57.080300    3.235400   84.577100
  C     56.959500    4.109360   83.541900
  H     57.538200    3.351900   86.745700
  C     56.993700    1.747220   84.445400
  H     56.424300    1.337480   83.614400
  H     56.359900    1.454720   85.314600
  C     58.343700    1.092060   84.512800
  H     59.043200    1.434570   85.308100
  H     58.866500    1.317080   83.581800
  C     58.081000   -0.383630   84.647700
  H     58.944000   -0.850782   85.081400
  H     57.713000   -0.839158   83.748000
  H     57.367900   -0.532247   85.443800
  H     57.173200    3.515270   78.519900
  H     57.142200    5.910610   86.513200

 Total Charge           Charge          ....    0
 Multiplicity           Mult            ....    1
 Number of Electrons    NEL             ....  134
 Basis Dimension        Dim             ....  322

ORBITAL ENERGIES
----------------

  NO   OCC          E(Eh)            E(eV)
   0   2.0000     -88.963461     -2420.8188
   1   2.0000     -88.959699     -2420.7165
   2   2.0000     -10.328598      -281.0554
   3   2.0000     -10.316217      -280.7185
   4   2.0000     -10.311169      -280.5812
   5   2.0000     -10.310044      -280.5506
   6   2.0000     -10.299859      -280.2734
   7   2.0000     -10.299626      -280.2671
   8   2.0000     -10.298659      -280.2408
   9   2.0000     -10.297780      -280.2168
  10   2.0000     -10.296242      -280.1750
  11   2.0000     -10.292412      -280.0708
  12   2.0000     -10.286947      -279.9221
  13   2.0000     -10.280237      -279.7395
  14   2.0000     -10.276907      -279.6489
  15   2.0000     -10.267168      -279.3838
  16   2.0000      -8.079758      -219.8614
  17   2.0000      -8.074141      -219.7085
  18   2.0000      -6.038028      -164.3031
  19   2.0000      -6.034129      -164.1970
  20   2.0000      -6.032724      -164.1588
  21   2.0000      -6.030591      -164.1007
  22   2.0000      -6.028532      -164.0447
  23   2.0000      -6.024983      -163.9481
  24   2.0000      -1.008099       -27.4318
  25   2.0000      -0.982394       -26.7323
  26   2.0000      -0.920486       -25.0477
  27   2.0000      -0.907400       -24.6916
  28   2.0000      -0.869114       -23.6498
  29   2.0000      -0.854716       -23.2580
  30   2.0000      -0.842512       -22.9259
  31   2.0000      -0.808428       -21.9985
  32   2.0000      -0.781676       -21.2705
  33   2.0000      -0.767995       -20.8982
  34   2.0000      -0.705471       -19.1968
  35   2.0000      -0.702202       -19.1079
  36   2.0000      -0.695053       -18.9134
  37   2.0000      -0.661214       -17.9925
  38   2.0000      -0.636576       -17.3221
  39   2.0000      -0.612144       -16.6573
  40   2.0000      -0.593079       -16.1385
  41   2.0000      -0.570311       -15.5190
  42   2.0000      -0.565020       -15.3750
  43   2.0000      -0.554572       -15.0907
  44   2.0000      -0.533408       -14.5148
  45   2.0000      -0.526664       -14.3312
  46   2.0000      -0.515422       -14.0254
  47   2.0000      -0.512035       -13.9332
  48   2.0000      -0.508117       -13.8266
  49   2.0000      -0.499968       -13.6048
  50   2.0000      -0.486472       -13.2376
  51   2.0000      -0.480413       -13.0727
  52   2.0000      -0.470164       -12.7938
  53   2.0000      -0.464923       -12.6512
  54   2.0000      -0.454293       -12.3619
  55   2.0000      -0.450785       -12.2665
  56   2.0000      -0.444421       -12.0933
  57   2.0000      -0.439287       -11.9536
  58   2.0000      -0.435265       -11.8442
  59   2.0000      -0.428607       -11.6630
  60   2.0000      -0.419690       -11.4203
  61   2.0000      -0.410209       -11.1624
  62   2.0000      -0.403881       -10.9902
  63   2.0000      -0.333040        -9.0625
  64   2.0000      -0.326994        -8.8979
  65   2.0000      -0.314681        -8.5629
  66   2.0000      -0.309033        -8.4092
  67   0.0000       0.046116         1.2549
  68   0.0000       0.055514         1.5106
  69   0.0000       0.112991         3.0747
  70   0.0000       0.125221         3.4074
  71   0.0000       0.133669         3.6373

MULLIKEN ATOMIC CHARGES
-----------------------
   0 S :    0.100458
   1 C :   -0.119717
   2 C :   -0.137737
   3 C :    0.045850
   4 C :   -0.189823
   5 H :    0.029325
   6 C :    0.069801
   7 H :    0.064074
   8 H :    0.024139
   9 C :   -0.106390
  10 H :    0.030990
  11 H :    0.036198
  12 C :   -0.040055
  13 H :    0.026790
  14 H :    0.040247
  15 H :    0.028607
  16 S :    0.132527
  17 C :   -0.053795
  18 C :   -0.049796
  19 C :   -0.004893
  20 C :   -0.191442
  21 H :    0.026409
  22 C :    0.041421
  23 H :    0.027690
  24 H :    0.025037
  25 C :   -0.092613
  26 H :    0.033902
  27 H :    0.031691
  28 C :    0.011263
  29 H :    0.019296
  30 H :    0.034693
  31 H :    0.006615
  32 H :    0.062325
  33 H :    0.036916
Sum of atomic charges:   -0.0000000

LOEWDIN ATOMIC CHARGES
----------------------
   0 S :    0.393487
   1 C :   -0.213249
   2 C :   -0.073116
   3 C :   -0.063292
   4 C :   -0.187289
   5 H :    0.037145
   6 C :   -0.038194
   7 H :    0.048376
   8 H :    0.030492
   9 C :   -0.051361
  10 H :    0.029832
  11 H :    0.027203
  12 C :   -0.062707
  13 H :    0.023627
  14 H :    0.024504
  15 H :    0.026143
  16 S :    0.435335
  17 C :   -0.195022
  18 C :   -0.079884
  19 C :   -0.045152
  20 C :   -0.212115
  21 H :    0.034933
  22 C :   -0.033824
  23 H :    0.032360
  24 H :    0.033163
  25 C :   -0.041135
  26 H :    0.027336
  27 H :    0.027283
  28 C :   -0.060072
  29 H :    0.023677
  30 H :    0.024955
  31 H :    0.020949
  32 H :    0.036976
  33 H :    0.018635

  Mayer bond orders larger than 0.100000
B(  0-S ,  1-C ) :   1.1335 B(  0-S ,  4-C ) :   1.1464 B(  1-C ,  2-C ) :   1.6178
B(  1-C , 32-H ) :   0.9630 B(  2-C ,  3-C ) :   1.2307 B(  2-C ,  6-C ) :   1.0005
B(  3-C ,  4-C ) :   1.5886 B(  3-C ,  5-H ) :   0.9858 B(  4-C , 20-C ) :   1.0385
B(  6-C ,  7-H ) :   0.9321 B(  6-C ,  8-H ) :   0.9459 B(  6-C ,  9-C ) :   1.0809
B(  9-C , 10-H ) :   0.9519 B(  9-C , 11-H ) :   0.9504 B(  9-C , 12-C ) :   1.0728
B( 12-C , 13-H ) :   0.9742 B( 12-C , 14-H ) :   0.9768 B( 12-C , 15-H ) :   0.9746
B( 16-S , 17-C ) :   1.1936 B( 16-S , 20-C ) :   1.1249 B( 17-C , 18-C ) :   1.5825
B( 17-C , 33-H ) :   0.9697 B( 18-C , 19-C ) :   1.2557 B( 18-C , 21-H ) :   0.9854
B( 19-C , 20-C ) :   1.6232 B( 19-C , 22-C ) :   1.0308 B( 22-C , 23-H ) :   0.9327
B( 22-C , 24-H ) :   0.9382 B( 22-C , 25-C ) :   1.0634 B( 25-C , 26-H ) :   0.9616
B( 25-C , 27-H ) :   0.9468 B( 25-C , 28-C ) :   1.0845 B( 28-C , 29-H ) :   0.9700
B( 28-C , 30-H ) :   0.9712 B( 28-C , 31-H ) :   0.9707

Dispersion correction           -0.014413789
FINAL SINGLE POINT ENERGY     -1339.878742347738

DIPOLE MOMENT
-------------
                                X             Y             Z
Electronic contribution:      5.89688      24.58166       7.02198
Nuclear contribution   :     -6.29195     -25.03973      -7.01771
                        -----------------------------------------
Total Dipole Moment    :     -0.39507      -0.45807       0.00427
                        -----------------------------------------
Magnitude (a.u.)       :      0.60492
Magnitude (Debye)      :      1.53758

Rotational constants in cm-1:     0.019405     0.008398     0.006717
Rotational constants in MHz :   581.757595   251.757614   201.378753

                             ****ORCA TERMINATED NORMALLY****
TOTAL RUN TIME: 0 days 0 hours 0 minutes 30 seconds 441 msec
