                         Program Version 4.2.1 -  RELEASE  -
|  1> ! wB97X-D3 SP def2-SVP
|  2> %pal
|  3> nprocs 16
|  4> end
|  5>
|  6> * xyz 0 1
|  7> S 	 -43.7231 	 51.7344 	 101.289
|  8> C 	 -43.0795 	 51.0557 	 102.795
|  9> C 	 -42.8729 	 52.1163 	 103.683
| 10> C 	 -43.4365 	 53.3284 	 103.168
| 11> C 	 -43.9541 	 53.3261 	 101.896
| 12> H 	 -43.4212 	 54.2238 	 103.772
| 13> C 	 -42.0037 	 52.078 	 104.943
| 14> H 	 -40.9852 	 52.5646 	 104.81
| 15> H 	 -41.7167 	 50.9996 	 105.072
| 16> C 	 -42.734 	 52.6012 	 106.161
| 17> H 	 -41.9382 	 52.6643 	 106.913
| 18> H 	 -42.9075 	 53.5694 	 105.858
| 19> C 	 -43.9386 	 51.8136 	 106.623
| 20> H 	 -44.7267 	 51.7166 	 105.81
| 21> H 	 -43.7116 	 50.7694 	 106.991
| 22> H 	 -44.4272 	 52.2393 	 107.475
| 23> S 	 -45.8575 	 54.0287 	 99.9592
| 24> C 	 -46.0032 	 55.6863 	 99.6424
| 25> C 	 -45.1748 	 56.5047 	 100.307
| 26> C 	 -44.1994 	 55.7775 	 101.045
| 27> C 	 -44.4893 	 54.3909 	 101.093
| 28> H 	 -45.2847 	 57.5973 	 100.267
| 29> C 	 -43.2231 	 56.5309 	 101.92
| 30> H 	 -42.5868 	 57.0887 	 101.239
| 31> H 	 -42.6853 	 55.7777 	 102.412
| 32> C 	 -43.7934 	 57.6039 	 102.868
| 33> H 	 -44.576 	 57.1575 	 103.494
| 34> H 	 -44.2077 	 58.416 	 102.29
| 35> C 	 -42.7431 	 58.0747 	 103.898
| 36> H 	 -42.4858 	 57.3193 	 104.664
| 37> H 	 -43.027 	 58.9082 	 104.534
| 38> H 	 -41.7839 	 58.3241 	 103.43
| 39> H 	 -42.9012 	 50.0168 	 102.837
| 40> H 	 -46.7989 	 55.9153 	 98.9341
| 41> *
| 42>
| 43>                          ****END OF INPUT****

CARTESIAN COORDINATES (ANGSTROEM)
---------------------------------
  S    -43.723100   51.734400  101.289000
  C    -43.079500   51.055700  102.795000
  C    -42.872900   52.116300  103.683000
  C    -43.436500   53.328400  103.168000
  C    -43.954100   53.326100  101.896000
  H    -43.421200   54.223800  103.772000
  C    -42.003700   52.078000  104.943000
  H    -40.985200   52.564600  104.810000
  H    -41.716700   50.999600  105.072000
  C    -42.734000   52.601200  106.161000
  H    -41.938200   52.664300  106.913000
  H    -42.907500   53.569400  105.858000
  C    -43.938600   51.813600  106.623000
  H    -44.726700   51.716600  105.810000
  H    -43.711600   50.769400  106.991000
  H    -44.427200   52.239300  107.475000
  S    -45.857500   54.028700   99.959200
  C    -46.003200   55.686300   99.642400
  C    -45.174800   56.504700  100.307000
  C    -44.199400   55.777500  101.045000
  C    -44.489300   54.390900  101.093000
  H    -45.284700   57.597300  100.267000
  C    -43.223100   56.530900  101.920000
  H    -42.586800   57.088700  101.239000
  H    -42.685300   55.777700  102.412000
  C    -43.793400   57.603900  102.868000
  H    -44.576000   57.157500  103.494000
  H    -44.207700   58.416000  102.290000
  C    -42.743100   58.074700  103.898000
  H    -42.485800   57.319300  104.664000
  H    -43.027000   58.908200  104.534000
  H    -41.783900   58.324100  103.430000
  H    -42.901200   50.016800  102.837000
  H    -46.798900   55.915300   98.934100

 Total Charge           Charge          ....    0
 Multiplicity           Mult            ....    1
 Number of Electrons    NEL             ....  134
 Basis Dimension        Dim             ....  322

ORBITAL ENERGIES
----------------

  NO   OCC          E(Eh)            E(eV)
   0   2.0000     -88.964782     -2420.8548
   1   2.0000     -88.958926     -2420.6954
   2   2.0000     -10.332728      -281.1678
   3   2.0000     -10.327378      -281.0222
   4   2.0000     -10.316589      -280.7287
   5   2.0000     -10.313574      -280.6466
   6   2.0000     -10.308385      -280.5054
   7   2.0000     -10.304530      -280.4005
   8   2.0000     -10.298610      -280.2394
   9   2.0000     -10.293025      -280.0874
  10   2.0000     -10.291897      -280.0567
  11   2.0000     -10.290116      -280.0083
  12   2.0000     -10.288056      -279.9522
  13   2.0000     -10.283184      -279.8197
  14   2.0000     -10.282976      -279.8140
  15   2.0000     -10.280699      -279.7520
  16   2.0000      -8.080192      -219.8732
  17   2.0000      -8.074320      -219.7134
  18   2.0000      -6.038502      -164.3160
  19   2.0000      -6.034749      -164.2139
  20   2.0000      -6.032806      -164.1610
  21   2.0000      -6.030964      -164.1109
  22   2.0000      -6.028651      -164.0479
  23   2.0000      -6.025133      -163.9522
  24   2.0000      -1.008526       -27.4434
  25   2.0000      -0.987513       -26.8716
  26   2.0000      -0.916689       -24.9444
  27   2.0000      -0.913561       -24.8593
  28   2.0000      -0.872080       -23.7305
  29   2.0000      -0.855268       -23.2730
  30   2.0000      -0.838033       -22.8040
  31   2.0000      -0.813969       -22.1492
  32   2.0000      -0.787180       -21.4202
  33   2.0000      -0.775508       -21.1026
  34   2.0000      -0.714488       -19.4422
  35   2.0000      -0.703303       -19.1379
  36   2.0000      -0.695046       -18.9132
  37   2.0000      -0.655762       -17.8442
  38   2.0000      -0.642287       -17.4775
  39   2.0000      -0.628258       -17.0958
  40   2.0000      -0.604536       -16.4503
  41   2.0000      -0.575752       -15.6670
  42   2.0000      -0.567463       -15.4415
  43   2.0000      -0.549469       -14.9518
  44   2.0000      -0.537127       -14.6160
  45   2.0000      -0.525981       -14.3127
  46   2.0000      -0.520608       -14.1665
  47   2.0000      -0.515100       -14.0166
  48   2.0000      -0.501821       -13.6552
  49   2.0000      -0.497491       -13.5374
  50   2.0000      -0.490593       -13.3497
  51   2.0000      -0.480878       -13.0854
  52   2.0000      -0.474882       -12.9222
  53   2.0000      -0.467031       -12.7085
  54   2.0000      -0.461243       -12.5511
  55   2.0000      -0.453827       -12.3493
  56   2.0000      -0.442496       -12.0409
  57   2.0000      -0.439118       -11.9490
  58   2.0000      -0.433404       -11.7935
  59   2.0000      -0.430631       -11.7181
  60   2.0000      -0.419001       -11.4016
  61   2.0000      -0.416539       -11.3346
  62   2.0000      -0.406153       -11.0520
  63   2.0000      -0.352226        -9.5845
  64   2.0000      -0.333874        -9.0852
  65   2.0000      -0.325366        -8.8537
  66   2.0000      -0.287290        -7.8176
  67   0.0000       0.023001         0.6259
  68   0.0000       0.079206         2.1553
  69   0.0000       0.101441         2.7604
  70   0.0000       0.113890         3.0991
  71   0.0000       0.123769         3.3679

MULLIKEN ATOMIC CHARGES
-----------------------
   0 S :    0.080659
   1 C :   -0.127095
   2 C :   -0.076303
   3 C :   -0.008144
   4 C :   -0.108784
   5 H :    0.003111
   6 C :    0.020118
   7 H :    0.057770
   8 H :    0.013865
   9 C :   -0.019623
  10 H :    0.022429
  11 H :    0.002380
  12 C :   -0.058930
  13 H :    0.053267
  14 H :    0.033228
  15 H :    0.030023
  16 S :    0.103915
  17 C :   -0.080223
  18 C :   -0.038274
  19 C :   -0.041905
  20 C :   -0.152153
  21 H :    0.029316
  22 C :    0.096895
  23 H :    0.026519
  24 H :    0.000810
  25 C :   -0.063377
  26 H :    0.035981
  27 H :    0.033033
  28 C :   -0.061821
  29 H :    0.027716
  30 H :    0.033959
  31 H :    0.026909
  32 H :    0.044327
  33 H :    0.060403
Sum of atomic charges:    0.0000000

LOEWDIN ATOMIC CHARGES
----------------------
   0 S :    0.403120
   1 C :   -0.179496
   2 C :   -0.064312
   3 C :   -0.077763
   4 C :   -0.201455
   5 H :    0.022417
   6 C :   -0.034307
   7 H :    0.042490
   8 H :    0.027565
   9 C :   -0.042546
  10 H :    0.027491
  11 H :    0.011341
  12 C :   -0.070187
  13 H :    0.036591
  14 H :    0.031847
  15 H :    0.023537
  16 S :    0.401896
  17 C :   -0.183803
  18 C :   -0.081416
  19 C :   -0.038945
  20 C :   -0.187289
  21 H :    0.037876
  22 C :   -0.026735
  23 H :    0.034916
  24 H :    0.019249
  25 C :   -0.034559
  26 H :    0.027626
  27 H :    0.021824
  28 C :   -0.070888
  29 H :    0.027212
  30 H :    0.026776
  31 H :    0.022998
  32 H :    0.020069
  33 H :    0.026861

  Mayer bond orders larger than 0.100000
B(  0-S ,  1-C ) :   1.1475 B(  0-S ,  4-C ) :   1.1560 B(  1-C ,  2-C ) :   1.5601
B(  1-C ,  4-C ) :   0.1026 B(  1-C , 32-H ) :   0.9845 B(  2-C ,  3-C ) :   1.2594
B(  2-C ,  6-C ) :   1.0180 B(  3-C ,  4-C ) :   1.5575 B(  3-C ,  5-H ) :   0.9897
B(  4-C , 20-C ) :   1.0772 B(  6-C ,  7-H ) :   0.9463 B(  6-C ,  8-H ) :   0.9406
B(  6-C ,  9-C ) :   1.0604 B(  9-C , 10-H ) :   0.9490 B(  9-C , 11-H ) :   0.9559
B(  9-C , 12-C ) :   1.0782 B( 12-C , 13-H ) :   0.9705 B( 12-C , 14-H ) :   0.9717
B( 12-C , 15-H ) :   0.9731 B( 16-S , 17-C ) :   1.1751 B( 16-S , 20-C ) :   1.1250
B( 17-C , 18-C ) :   1.6070 B( 17-C , 33-H ) :   0.9635 B( 18-C , 19-C ) :   1.2229
B( 18-C , 21-H ) :   0.9922 B( 19-C , 20-C ) :   1.5739 B( 19-C , 22-C ) :   1.0606
B( 22-C , 23-H ) :   0.9125 B( 22-C , 24-H ) :   0.9375 B( 22-C , 25-C ) :   1.0668
B( 25-C , 26-H ) :   0.9595 B( 25-C , 27-H ) :   0.9485 B( 25-C , 28-C ) :   1.0811
B( 28-C , 29-H ) :   0.9750 B( 28-C , 30-H ) :   0.9741 B( 28-C , 31-H ) :   0.9750

Dispersion correction           -0.014122227
FINAL SINGLE POINT ENERGY     -1339.875919203256

DIPOLE MOMENT
-------------
                                X             Y             Z
Electronic contribution:    -10.02676     -11.97263     -26.06765
Nuclear contribution   :     10.23228      12.48744      26.58100
                        -----------------------------------------
Total Dipole Moment    :      0.20552       0.51482       0.51335
                        -----------------------------------------
Magnitude (a.u.)       :      0.75551
Magnitude (Debye)      :      1.92037

Rotational constants in cm-1:     0.016528     0.009747     0.006780
Rotational constants in MHz :   495.498240   292.201734   203.255301

                             ****ORCA TERMINATED NORMALLY****
TOTAL RUN TIME: 0 days 0 hours 0 minutes 30 seconds 593 msec
