                         Program Version 4.2.1 -  RELEASE  -
|  1> ! wB97X-D3 SP def2-SVP
|  2> %pal
|  3> nprocs 16
|  4> end
|  5>
|  6> * xyz 0 1
|  7> S 	 7.26138 	 -6.51598 	 90.4034
|  8> C 	 7.62789 	 -4.83858 	 90.423
|  9> C 	 8.1521 	 -4.4134 	 89.2189
| 10> C 	 7.83499 	 -5.36261 	 88.2093
| 11> C 	 7.26086 	 -6.52084 	 88.6528
| 12> H 	 7.97394 	 -5.19462 	 87.1507
| 13> C 	 8.60274 	 -2.98865 	 88.9686
| 14> H 	 8.813 	 -2.44757 	 89.8606
| 15> H 	 7.72052 	 -2.50105 	 88.4413
| 16> C 	 9.81679 	 -2.83469 	 88.0293
| 17> H 	 10.6757 	 -3.40074 	 88.2076
| 18> H 	 9.43243 	 -3.02084 	 87.0234
| 19> C 	 10.3738 	 -1.43088 	 87.8905
| 20> H 	 11.2571 	 -1.36053 	 87.2232
| 21> H 	 9.64205 	 -0.693821 	 87.4816
| 22> H 	 10.5957 	 -1.17115 	 88.9265
| 23> S 	 7.67312 	 -9.20904 	 88.3556
| 24> C 	 7.05271 	 -9.9918 	 86.9227
| 25> C 	 6.38865 	 -9.08476 	 86.1467
| 26> C 	 6.42841 	 -7.75113 	 86.6582
| 27> C 	 7.03035 	 -7.70369 	 87.8428
| 28> H 	 5.98404 	 -9.47051 	 85.2285
| 29> C 	 5.74065 	 -6.63776 	 85.9948
| 30> H 	 5.52509 	 -5.8087 	 86.6567
| 31> H 	 4.76116 	 -6.99602 	 85.7585
| 32> C 	 6.40698 	 -6.09834 	 84.7888
| 33> H 	 6.68594 	 -6.85377 	 84.0468
| 34> H 	 7.25902 	 -5.59661 	 85.1031
| 35> C 	 5.64089 	 -4.88277 	 84.2368
| 36> H 	 6.11822 	 -4.54298 	 83.3139
| 37> H 	 5.59044 	 -4.08216 	 84.9265
| 38> H 	 4.6839 	 -5.16877 	 83.8954
| 39> H 	 7.81259 	 -4.23797 	 91.2589
| 40> H 	 7.29189 	 -11.0319 	 86.6461
| 41> *
| 42>
| 43>                          ****END OF INPUT****

CARTESIAN COORDINATES (ANGSTROEM)
---------------------------------
  S      7.261380   -6.515980   90.403400
  C      7.627890   -4.838580   90.423000
  C      8.152100   -4.413400   89.218900
  C      7.834990   -5.362610   88.209300
  C      7.260860   -6.520840   88.652800
  H      7.973940   -5.194620   87.150700
  C      8.602740   -2.988650   88.968600
  H      8.813000   -2.447570   89.860600
  H      7.720520   -2.501050   88.441300
  C      9.816790   -2.834690   88.029300
  H     10.675700   -3.400740   88.207600
  H      9.432430   -3.020840   87.023400
  C     10.373800   -1.430880   87.890500
  H     11.257100   -1.360530   87.223200
  H      9.642050   -0.693821   87.481600
  H     10.595700   -1.171150   88.926500
  S      7.673120   -9.209040   88.355600
  C      7.052710   -9.991800   86.922700
  C      6.388650   -9.084760   86.146700
  C      6.428410   -7.751130   86.658200
  C      7.030350   -7.703690   87.842800
  H      5.984040   -9.470510   85.228500
  C      5.740650   -6.637760   85.994800
  H      5.525090   -5.808700   86.656700
  H      4.761160   -6.996020   85.758500
  C      6.406980   -6.098340   84.788800
  H      6.685940   -6.853770   84.046800
  H      7.259020   -5.596610   85.103100
  C      5.640890   -4.882770   84.236800
  H      6.118220   -4.542980   83.313900
  H      5.590440   -4.082160   84.926500
  H      4.683900   -5.168770   83.895400
  H      7.812590   -4.237970   91.258900
  H      7.291890  -11.031900   86.646100

 Total Charge           Charge          ....    0
 Multiplicity           Mult            ....    1
 Number of Electrons    NEL             ....  134
 Basis Dimension        Dim             ....  322

ORBITAL ENERGIES
----------------

  NO   OCC          E(Eh)            E(eV)
   0   2.0000     -88.965700     -2420.8798
   1   2.0000     -88.961032     -2420.7527
   2   2.0000     -10.324949      -280.9562
   3   2.0000     -10.316245      -280.7193
   4   2.0000     -10.315265      -280.6926
   5   2.0000     -10.305109      -280.4163
   6   2.0000     -10.299276      -280.2575
   7   2.0000     -10.299095      -280.2526
   8   2.0000     -10.290469      -280.0179
   9   2.0000     -10.290314      -280.0137
  10   2.0000     -10.290080      -280.0073
  11   2.0000     -10.281978      -279.7868
  12   2.0000     -10.281513      -279.7742
  13   2.0000     -10.277896      -279.6758
  14   2.0000     -10.277320      -279.6601
  15   2.0000     -10.271658      -279.5060
  16   2.0000      -8.080960      -219.8941
  17   2.0000      -8.076953      -219.7851
  18   2.0000      -6.039433      -164.3413
  19   2.0000      -6.035608      -164.2373
  20   2.0000      -6.035517      -164.2348
  21   2.0000      -6.031525      -164.1261
  22   2.0000      -6.031319      -164.1205
  23   2.0000      -6.027564      -164.0184
  24   2.0000      -1.017799       -27.6957
  25   2.0000      -0.993605       -27.0374
  26   2.0000      -0.924108       -25.1463
  27   2.0000      -0.915385       -24.9089
  28   2.0000      -0.876497       -23.8507
  29   2.0000      -0.859041       -23.3757
  30   2.0000      -0.850132       -23.1333
  31   2.0000      -0.819901       -22.3106
  32   2.0000      -0.785040       -21.3620
  33   2.0000      -0.774468       -21.0744
  34   2.0000      -0.710336       -19.3292
  35   2.0000      -0.703118       -19.1328
  36   2.0000      -0.691397       -18.8139
  37   2.0000      -0.666436       -18.1346
  38   2.0000      -0.641417       -17.4538
  39   2.0000      -0.625156       -17.0114
  40   2.0000      -0.605113       -16.4660
  41   2.0000      -0.578961       -15.7543
  42   2.0000      -0.575643       -15.6640
  43   2.0000      -0.567795       -15.4505
  44   2.0000      -0.532654       -14.4943
  45   2.0000      -0.529879       -14.4187
  46   2.0000      -0.516057       -14.0426
  47   2.0000      -0.512020       -13.9328
  48   2.0000      -0.508716       -13.8429
  49   2.0000      -0.504376       -13.7248
  50   2.0000      -0.496869       -13.5205
  51   2.0000      -0.486056       -13.2263
  52   2.0000      -0.474303       -12.9064
  53   2.0000      -0.469238       -12.7686
  54   2.0000      -0.463029       -12.5997
  55   2.0000      -0.450217       -12.2510
  56   2.0000      -0.443947       -12.0804
  57   2.0000      -0.438574       -11.9342
  58   2.0000      -0.433651       -11.8002
  59   2.0000      -0.430272       -11.7083
  60   2.0000      -0.421721       -11.4756
  61   2.0000      -0.413219       -11.2443
  62   2.0000      -0.412027       -11.2118
  63   2.0000      -0.355554        -9.6751
  64   2.0000      -0.331022        -9.0076
  65   2.0000      -0.327674        -8.9165
  66   2.0000      -0.291711        -7.9379
  67   0.0000       0.035221         0.9584
  68   0.0000       0.072715         1.9787
  69   0.0000       0.111548         3.0354
  70   0.0000       0.116896         3.1809
  71   0.0000       0.132008         3.5921

MULLIKEN ATOMIC CHARGES
-----------------------
   0 S :    0.113862
   1 C :   -0.077906
   2 C :   -0.071574
   3 C :    0.022364
   4 C :   -0.144321
   5 H :   -0.010083
   6 C :    0.047771
   7 H :    0.008148
   8 H :    0.052960
   9 C :   -0.072871
  10 H :    0.028644
  11 H :    0.023260
  12 C :   -0.070017
  13 H :    0.045593
  14 H :    0.030170
  15 H :    0.023844
  16 S :    0.099678
  17 C :   -0.110705
  18 C :   -0.024345
  19 C :   -0.023414
  20 C :   -0.124236
  21 H :    0.009460
  22 C :    0.073854
  23 H :    0.013965
  24 H :    0.011073
  25 C :   -0.054149
  26 H :    0.032064
  27 H :    0.003244
  28 C :   -0.008063
  29 H :    0.024993
  30 H :    0.025320
  31 H :    0.010437
  32 H :    0.024772
  33 H :    0.066208
Sum of atomic charges:   -0.0000000

LOEWDIN ATOMIC CHARGES
----------------------
   0 S :    0.414950
   1 C :   -0.197228
   2 C :   -0.062203
   3 C :   -0.059068
   4 C :   -0.187469
   5 H :    0.025360
   6 C :   -0.027159
   7 H :    0.020039
   8 H :    0.046312
   9 C :   -0.043147
  10 H :    0.019512
  11 H :    0.022307
  12 C :   -0.066531
  13 H :    0.031168
  14 H :    0.024227
  15 H :    0.020621
  16 S :    0.406319
  17 C :   -0.187140
  18 C :   -0.065234
  19 C :   -0.063349
  20 C :   -0.199141
  21 H :    0.029590
  22 C :   -0.032755
  23 H :    0.030501
  24 H :    0.028483
  25 C :   -0.033176
  26 H :    0.026026
  27 H :    0.013140
  28 C :   -0.050516
  29 H :    0.028023
  30 H :    0.019985
  31 H :    0.014968
  32 H :    0.016881
  33 H :    0.035705

  Mayer bond orders larger than 0.100000
B(  0-S ,  1-C ) :   1.1467 B(  0-S ,  4-C ) :   1.1390 B(  1-C ,  2-C ) :   1.6061
B(  1-C , 32-H ) :   0.9690 B(  2-C ,  3-C ) :   1.2366 B(  2-C ,  6-C ) :   1.0428
B(  3-C ,  4-C ) :   1.5717 B(  3-C ,  5-H ) :   0.9956 B(  4-C , 20-C ) :   1.0389
B(  6-C ,  7-H ) :   0.9449 B(  6-C ,  8-H ) :   0.9402 B(  6-C ,  9-C ) :   1.0542
B(  9-C , 10-H ) :   0.9644 B(  9-C , 11-H ) :   0.9503 B(  9-C , 12-C ) :   1.0878
B( 12-C , 13-H ) :   0.9747 B( 12-C , 14-H ) :   0.9742 B( 12-C , 15-H ) :   0.9750
B( 16-S , 17-C ) :   1.1402 B( 16-S , 20-C ) :   1.1295 B( 17-C , 18-C ) :   1.6346
B( 17-C , 33-H ) :   0.9659 B( 18-C , 19-C ) :   1.1980 B( 18-C , 21-H ) :   0.9976
B( 19-C , 20-C ) :   1.6484 B( 19-C , 22-C ) :   1.0530 B( 22-C , 23-H ) :   0.9230
B( 22-C , 24-H ) :   0.9238 B( 22-C , 25-C ) :   1.0752 B( 25-C , 26-H ) :   0.9531
B( 25-C , 27-H ) :   0.9447 B( 25-C , 28-C ) :   1.0867 B( 28-C , 29-H ) :   0.9721
B( 28-C , 30-H ) :   0.9735 B( 28-C , 31-H ) :   0.9731

Dispersion correction           -0.014031391
FINAL SINGLE POINT ENERGY     -1339.867560886562

DIPOLE MOMENT
-------------
                                X             Y             Z
Electronic contribution:     -3.01411     -26.13061      18.85710
Nuclear contribution   :      3.11839      26.59698     -19.44327
                        -----------------------------------------
Total Dipole Moment    :      0.10429       0.46636      -0.58617
                        -----------------------------------------
Magnitude (a.u.)       :      0.75628
Magnitude (Debye)      :      1.92232

Rotational constants in cm-1:     0.017127     0.009335     0.006833
Rotational constants in MHz :   513.466916   279.846359   204.833712

                             ****ORCA TERMINATED NORMALLY****
TOTAL RUN TIME: 0 days 0 hours 0 minutes 33 seconds 597 msec
