                         Program Version 4.2.1 -  RELEASE  -
|  1> ! wB97X-D3 SP def2-SVP
|  2> %pal
|  3> nprocs 16
|  4> end
|  5>
|  6> * xyz 0 1
|  7> S 	 51.4705 	 0.613131 	 91.41
|  8> C 	 52.4042 	 -0.705632 	 91.9723
|  9> C 	 53.7769 	 -0.425159 	 91.8422
| 10> C 	 54.0667 	 0.820694 	 91.1682
| 11> C 	 52.8615 	 1.44307 	 90.8224
| 12> H 	 54.971 	 1.2308 	 90.8945
| 13> C 	 54.9364 	 -1.35826 	 92.2624
| 14> H 	 55.3511 	 -1.74243 	 91.2944
| 15> H 	 54.4875 	 -2.13596 	 92.9141
| 16> C 	 56.0823 	 -0.635623 	 93.0579
| 17> H 	 56.514 	 0.323773 	 92.698
| 18> H 	 55.5915 	 -0.333156 	 94.0288
| 19> C 	 57.2824 	 -1.50204 	 93.3917
| 20> H 	 57.6611 	 -1.9598 	 92.5072
| 21> H 	 58.0817 	 -0.981862 	 93.8545
| 22> H 	 57.0733 	 -2.28186 	 94.1407
| 23> S 	 52.1106 	 2.449 	 88.3321
| 24> C 	 52.3584 	 4.11352 	 87.9677
| 25> C 	 53.1026 	 4.70199 	 88.991
| 26> C 	 53.3197 	 3.86704 	 90.1412
| 27> C 	 52.7483 	 2.64194 	 90.009
| 28> H 	 53.4789 	 5.6941 	 88.8634
| 29> C 	 54.1367 	 4.28768 	 91.315
| 30> H 	 55.0438 	 4.74004 	 90.9045
| 31> H 	 54.5136 	 3.40795 	 91.7888
| 32> C 	 53.3822 	 5.23938 	 92.2754
| 33> H 	 52.4441 	 4.7457 	 92.4984
| 34> H 	 53.1521 	 6.16161 	 91.7576
| 35> C 	 54.1858 	 5.60146 	 93.5486
| 36> H 	 53.8841 	 6.51482 	 94.0834
| 37> H 	 55.2036 	 5.81303 	 93.191
| 38> H 	 54.3445 	 4.76247 	 94.1836
| 39> H 	 51.9952 	 -1.6277 	 92.3433
| 40> H 	 52.3251 	 4.66393 	 87.0912
| 41> *
| 42>
| 43>                          ****END OF INPUT****

CARTESIAN COORDINATES (ANGSTROEM)
---------------------------------
  S     51.470500    0.613131   91.410000
  C     52.404200   -0.705632   91.972300
  C     53.776900   -0.425159   91.842200
  C     54.066700    0.820694   91.168200
  C     52.861500    1.443070   90.822400
  H     54.971000    1.230800   90.894500
  C     54.936400   -1.358260   92.262400
  H     55.351100   -1.742430   91.294400
  H     54.487500   -2.135960   92.914100
  C     56.082300   -0.635623   93.057900
  H     56.514000    0.323773   92.698000
  H     55.591500   -0.333156   94.028800
  C     57.282400   -1.502040   93.391700
  H     57.661100   -1.959800   92.507200
  H     58.081700   -0.981862   93.854500
  H     57.073300   -2.281860   94.140700
  S     52.110600    2.449000   88.332100
  C     52.358400    4.113520   87.967700
  C     53.102600    4.701990   88.991000
  C     53.319700    3.867040   90.141200
  C     52.748300    2.641940   90.009000
  H     53.478900    5.694100   88.863400
  C     54.136700    4.287680   91.315000
  H     55.043800    4.740040   90.904500
  H     54.513600    3.407950   91.788800
  C     53.382200    5.239380   92.275400
  H     52.444100    4.745700   92.498400
  H     53.152100    6.161610   91.757600
  C     54.185800    5.601460   93.548600
  H     53.884100    6.514820   94.083400
  H     55.203600    5.813030   93.191000
  H     54.344500    4.762470   94.183600
  H     51.995200   -1.627700   92.343300
  H     52.325100    4.663930   87.091200

 Total Charge           Charge          ....    0
 Multiplicity           Mult            ....    1
 Number of Electrons    NEL             ....  134
 Basis Dimension        Dim             ....  322

ORBITAL ENERGIES
----------------

  NO   OCC          E(Eh)            E(eV)
   0   2.0000     -88.968486     -2420.9556
   1   2.0000     -88.962997     -2420.8062
   2   2.0000     -10.327607      -281.0285
   3   2.0000     -10.323308      -280.9115
   4   2.0000     -10.313321      -280.6397
   5   2.0000     -10.311509      -280.5904
   6   2.0000     -10.307250      -280.4745
   7   2.0000     -10.304088      -280.3885
   8   2.0000     -10.298358      -280.2326
   9   2.0000     -10.294933      -280.1394
  10   2.0000     -10.293678      -280.1052
  11   2.0000     -10.290142      -280.0090
  12   2.0000     -10.286535      -279.9108
  13   2.0000     -10.285159      -279.8734
  14   2.0000     -10.276333      -279.6332
  15   2.0000     -10.272794      -279.5369
  16   2.0000      -8.084145      -219.9808
  17   2.0000      -8.077336      -219.7955
  18   2.0000      -6.042495      -164.4247
  19   2.0000      -6.038410      -164.3135
  20   2.0000      -6.035987      -164.2476
  21   2.0000      -6.035137      -164.2244
  22   2.0000      -6.031937      -164.1374
  23   2.0000      -6.027910      -164.0278
  24   2.0000      -1.008070       -27.4310
  25   2.0000      -0.984551       -26.7910
  26   2.0000      -0.909036       -24.7361
  27   2.0000      -0.905349       -24.6358
  28   2.0000      -0.871170       -23.7057
  29   2.0000      -0.853853       -23.2345
  30   2.0000      -0.846474       -23.0337
  31   2.0000      -0.813756       -22.1434
  32   2.0000      -0.782034       -21.2802
  33   2.0000      -0.771193       -20.9852
  34   2.0000      -0.709343       -19.3022
  35   2.0000      -0.702184       -19.1074
  36   2.0000      -0.693223       -18.8636
  37   2.0000      -0.661283       -17.9944
  38   2.0000      -0.650048       -17.6887
  39   2.0000      -0.617415       -16.8007
  40   2.0000      -0.591829       -16.1045
  41   2.0000      -0.569192       -15.4885
  42   2.0000      -0.564906       -15.3719
  43   2.0000      -0.560870       -15.2621
  44   2.0000      -0.528606       -14.3841
  45   2.0000      -0.524036       -14.2597
  46   2.0000      -0.517387       -14.0788
  47   2.0000      -0.515770       -14.0348
  48   2.0000      -0.505385       -13.7522
  49   2.0000      -0.503453       -13.6996
  50   2.0000      -0.496968       -13.5232
  51   2.0000      -0.477484       -12.9930
  52   2.0000      -0.472134       -12.8474
  53   2.0000      -0.464605       -12.6425
  54   2.0000      -0.459403       -12.5010
  55   2.0000      -0.454077       -12.3561
  56   2.0000      -0.445089       -12.1115
  57   2.0000      -0.431937       -11.7536
  58   2.0000      -0.429648       -11.6913
  59   2.0000      -0.423884       -11.5345
  60   2.0000      -0.420663       -11.4468
  61   2.0000      -0.418192       -11.3796
  62   2.0000      -0.415517       -11.3068
  63   2.0000      -0.341061        -9.2807
  64   2.0000      -0.330846        -9.0028
  65   2.0000      -0.322899        -8.7865
  66   2.0000      -0.299835        -8.1589
  67   0.0000       0.034271         0.9326
  68   0.0000       0.065136         1.7724
  69   0.0000       0.111726         3.0402
  70   0.0000       0.115554         3.1444
  71   0.0000       0.131897         3.5891

MULLIKEN ATOMIC CHARGES
-----------------------
   0 S :    0.138135
   1 C :   -0.118788
   2 C :   -0.099544
   3 C :    0.083508
   4 C :   -0.197399
   5 H :   -0.010299
   6 C :    0.070097
   7 H :    0.050181
   8 H :    0.032102
   9 C :   -0.132125
  10 H :    0.037581
  11 H :    0.033097
  12 C :   -0.014065
  13 H :    0.021267
  14 H :    0.021126
  15 H :    0.025375
  16 S :    0.103809
  17 C :   -0.036242
  18 C :   -0.066006
  19 C :   -0.040130
  20 C :   -0.155191
  21 H :    0.008158
  22 C :    0.096326
  23 H :    0.017454
  24 H :   -0.002819
  25 C :   -0.058108
  26 H :    0.033317
  27 H :    0.024772
  28 C :   -0.026649
  29 H :    0.044683
  30 H :    0.010945
  31 H :    0.028366
  32 H :    0.044190
  33 H :    0.032877
Sum of atomic charges:   -0.0000000

LOEWDIN ATOMIC CHARGES
----------------------
   0 S :    0.444102
   1 C :   -0.219016
   2 C :   -0.058868
   3 C :   -0.046597
   4 C :   -0.204356
   5 H :    0.018333
   6 C :   -0.030526
   7 H :    0.036435
   8 H :    0.034273
   9 C :   -0.052892
  10 H :    0.026026
  11 H :    0.029852
  12 C :   -0.065199
  13 H :    0.019975
  14 H :    0.022944
  15 H :    0.026459
  16 S :    0.395648
  17 C :   -0.185967
  18 C :   -0.068503
  19 C :   -0.054137
  20 C :   -0.189123
  21 H :    0.023897
  22 C :   -0.029846
  23 H :    0.030606
  24 H :    0.022511
  25 C :   -0.031015
  26 H :    0.024637
  27 H :    0.023046
  28 C :   -0.067864
  29 H :    0.030407
  30 H :    0.024859
  31 H :    0.021265
  32 H :    0.026638
  33 H :    0.021999

  Mayer bond orders larger than 0.100000
B(  0-S ,  1-C ) :   1.1470 B(  0-S ,  4-C ) :   1.1862 B(  1-C ,  2-C ) :   1.5883
B(  1-C , 32-H ) :   0.9740 B(  2-C ,  3-C ) :   1.2415 B(  2-C ,  6-C ) :   1.0229
B(  3-C ,  4-C ) :   1.5462 B(  3-C ,  5-H ) :   1.0022 B(  4-C , 20-C ) :   1.0209
B(  6-C ,  7-H ) :   0.9404 B(  6-C ,  8-H ) :   0.9455 B(  6-C ,  9-C ) :   1.0476
B(  9-C , 10-H ) :   0.9597 B(  9-C , 11-H ) :   0.9557 B(  9-C , 12-C ) :   1.0902
B( 12-C , 13-H ) :   0.9732 B( 12-C , 14-H ) :   0.9722 B( 12-C , 15-H ) :   0.9731
B( 16-S , 17-C ) :   1.1520 B( 16-S , 20-C ) :   1.1253 B( 17-C , 18-C ) :   1.6205
B( 17-C , 33-H ) :   0.9692 B( 18-C , 19-C ) :   1.2285 B( 18-C , 21-H ) :   0.9893
B( 19-C , 20-C ) :   1.6158 B( 19-C , 22-C ) :   1.0542 B( 22-C , 23-H ) :   0.9211
B( 22-C , 24-H ) :   0.9238 B( 22-C , 25-C ) :   1.0596 B( 25-C , 26-H ) :   0.9578
B( 25-C , 27-H ) :   0.9574 B( 25-C , 28-C ) :   1.0778 B( 28-C , 29-H ) :   0.9761
B( 28-C , 30-H ) :   0.9694 B( 28-C , 31-H ) :   0.9756

Dispersion correction           -0.013914566
FINAL SINGLE POINT ENERGY     -1339.876801535148

DIPOLE MOMENT
-------------
                                X             Y             Z
Electronic contribution:    -22.32586      -2.74545     -19.15109
Nuclear contribution   :     23.03051       2.84165      19.39558
                        -----------------------------------------
Total Dipole Moment    :      0.70466       0.09620       0.24449
                        -----------------------------------------
Magnitude (a.u.)       :      0.75204
Magnitude (Debye)      :      1.91154

Rotational constants in cm-1:     0.016526     0.008647     0.006889
Rotational constants in MHz :   495.451059   259.243593   206.526642

                             ****ORCA TERMINATED NORMALLY****
TOTAL RUN TIME: 0 days 0 hours 0 minutes 27 seconds 901 msec
