                         Program Version 4.2.1 -  RELEASE  -
|  1> ! wB97X-D3 SP def2-SVP
|  2> %pal
|  3> nprocs 16
|  4> end
|  5>
|  6> * xyz 0 1
|  7> S 	 11.1702 	 -22.9729 	 84.8112
|  8> C 	 9.57005 	 -23.2016 	 85.4021
|  9> C 	 8.79334 	 -23.9774 	 84.5684
| 10> C 	 9.54227 	 -24.3248 	 83.3969
| 11> C 	 10.8976 	 -24.0043 	 83.4636
| 12> H 	 9.12342 	 -24.9143 	 82.5741
| 13> C 	 7.35711 	 -24.4138 	 84.9044
| 14> H 	 7.05046 	 -23.9779 	 85.8207
| 15> H 	 7.3188 	 -25.4548 	 85.2497
| 16> C 	 6.3169 	 -24.2884 	 83.7787
| 17> H 	 6.50797 	 -23.3107 	 83.2597
| 18> H 	 6.44012 	 -25.0623 	 83.0855
| 19> C 	 4.90707 	 -24.3347 	 84.296
| 20> H 	 4.81934 	 -23.8784 	 85.238
| 21> H 	 4.30436 	 -23.7173 	 83.6115
| 22> H 	 4.4113 	 -25.3568 	 84.3455
| 23> S 	 12.6087 	 -25.9431 	 82.4416
| 24> C 	 13.9035 	 -25.4991 	 81.3422
| 25> C 	 13.8904 	 -24.1236 	 81.122
| 26> C 	 12.8313 	 -23.4884 	 81.8066
| 27> C 	 11.9649 	 -24.3429 	 82.5209
| 28> H 	 14.7108 	 -23.6275 	 80.6398
| 29> C 	 12.6552 	 -22.0135 	 81.5562
| 30> H 	 13.552 	 -21.6171 	 81.0991
| 31> H 	 12.6148 	 -21.5431 	 82.5634
| 32> C 	 11.4084 	 -21.5542 	 80.818
| 33> H 	 11.4707 	 -20.4793 	 80.6763
| 34> H 	 10.4555 	 -21.6815 	 81.3806
| 35> C 	 11.1394 	 -22.047 	 79.3758
| 36> H 	 12.065 	 -21.7058 	 78.8528
| 37> H 	 10.2496 	 -21.6917 	 78.8542
| 38> H 	 11.0428 	 -23.1682 	 79.2995
| 39> H 	 9.23643 	 -22.8586 	 86.3791
| 40> H 	 14.7928 	 -26.1458 	 81.1523
| 41> *
| 42>
| 43>                          ****END OF INPUT****

CARTESIAN COORDINATES (ANGSTROEM)
---------------------------------
  S     11.170200  -22.972900   84.811200
  C      9.570050  -23.201600   85.402100
  C      8.793340  -23.977400   84.568400
  C      9.542270  -24.324800   83.396900
  C     10.897600  -24.004300   83.463600
  H      9.123420  -24.914300   82.574100
  C      7.357110  -24.413800   84.904400
  H      7.050460  -23.977900   85.820700
  H      7.318800  -25.454800   85.249700
  C      6.316900  -24.288400   83.778700
  H      6.507970  -23.310700   83.259700
  H      6.440120  -25.062300   83.085500
  C      4.907070  -24.334700   84.296000
  H      4.819340  -23.878400   85.238000
  H      4.304360  -23.717300   83.611500
  H      4.411300  -25.356800   84.345500
  S     12.608700  -25.943100   82.441600
  C     13.903500  -25.499100   81.342200
  C     13.890400  -24.123600   81.122000
  C     12.831300  -23.488400   81.806600
  C     11.964900  -24.342900   82.520900
  H     14.710800  -23.627500   80.639800
  C     12.655200  -22.013500   81.556200
  H     13.552000  -21.617100   81.099100
  H     12.614800  -21.543100   82.563400
  C     11.408400  -21.554200   80.818000
  H     11.470700  -20.479300   80.676300
  H     10.455500  -21.681500   81.380600
  C     11.139400  -22.047000   79.375800
  H     12.065000  -21.705800   78.852800
  H     10.249600  -21.691700   78.854200
  H     11.042800  -23.168200   79.299500
  H      9.236430  -22.858600   86.379100
  H     14.792800  -26.145800   81.152300

 Total Charge           Charge          ....    0
 Multiplicity           Mult            ....    1
 Number of Electrons    NEL             ....  134
 Basis Dimension        Dim             ....  322

ORBITAL ENERGIES
----------------

  NO   OCC          E(Eh)            E(eV)
   0   2.0000     -88.967673     -2420.9335
   1   2.0000     -88.967181     -2420.9201
   2   2.0000     -10.329425      -281.0779
   3   2.0000     -10.326727      -281.0045
   4   2.0000     -10.321204      -280.8542
   5   2.0000     -10.311641      -280.5940
   6   2.0000     -10.302374      -280.3419
   7   2.0000     -10.300103      -280.2801
   8   2.0000     -10.296622      -280.1853
   9   2.0000     -10.291887      -280.0565
  10   2.0000     -10.291236      -280.0388
  11   2.0000     -10.289344      -279.9873
  12   2.0000     -10.284847      -279.8649
  13   2.0000     -10.282430      -279.7991
  14   2.0000     -10.278455      -279.6910
  15   2.0000     -10.276903      -279.6488
  16   2.0000      -8.082690      -219.9412
  17   2.0000      -8.082374      -219.9326
  18   2.0000      -6.041082      -164.3862
  19   2.0000      -6.040733      -164.3767
  20   2.0000      -6.037005      -164.2752
  21   2.0000      -6.036706      -164.2671
  22   2.0000      -6.033615      -164.1830
  23   2.0000      -6.033451      -164.1786
  24   2.0000      -1.009839       -27.4791
  25   2.0000      -0.987951       -26.8835
  26   2.0000      -0.914261       -24.8783
  27   2.0000      -0.904461       -24.6116
  28   2.0000      -0.871563       -23.7164
  29   2.0000      -0.851059       -23.1585
  30   2.0000      -0.842882       -22.9360
  31   2.0000      -0.814294       -22.1581
  32   2.0000      -0.783569       -21.3220
  33   2.0000      -0.770071       -20.9547
  34   2.0000      -0.711289       -19.3552
  35   2.0000      -0.695794       -18.9335
  36   2.0000      -0.679732       -18.4964
  37   2.0000      -0.664542       -18.0831
  38   2.0000      -0.641752       -17.4630
  39   2.0000      -0.619909       -16.8686
  40   2.0000      -0.587128       -15.9766
  41   2.0000      -0.573303       -15.6004
  42   2.0000      -0.566017       -15.4021
  43   2.0000      -0.552622       -15.0376
  44   2.0000      -0.541214       -14.7272
  45   2.0000      -0.524688       -14.2775
  46   2.0000      -0.516518       -14.0552
  47   2.0000      -0.508179       -13.8283
  48   2.0000      -0.506063       -13.7707
  49   2.0000      -0.495738       -13.4897
  50   2.0000      -0.483480       -13.1562
  51   2.0000      -0.476779       -12.9738
  52   2.0000      -0.472244       -12.8504
  53   2.0000      -0.465927       -12.6785
  54   2.0000      -0.461881       -12.5684
  55   2.0000      -0.455839       -12.4040
  56   2.0000      -0.442849       -12.0505
  57   2.0000      -0.439864       -11.9693
  58   2.0000      -0.431774       -11.7492
  59   2.0000      -0.424230       -11.5439
  60   2.0000      -0.415800       -11.3145
  61   2.0000      -0.406800       -11.0696
  62   2.0000      -0.403084       -10.9685
  63   2.0000      -0.340330        -9.2608
  64   2.0000      -0.332141        -9.0380
  65   2.0000      -0.326752        -8.8914
  66   2.0000      -0.297982        -8.1085
  67   0.0000       0.034786         0.9466
  68   0.0000       0.058425         1.5898
  69   0.0000       0.116598         3.1728
  70   0.0000       0.121516         3.3066
  71   0.0000       0.129125         3.5137

MULLIKEN ATOMIC CHARGES
-----------------------
   0 S :    0.131419
   1 C :   -0.132066
   2 C :   -0.081943
   3 C :    0.025240
   4 C :   -0.170656
   5 H :    0.018654
   6 C :    0.093429
   7 H :   -0.010673
   8 H :    0.030684
   9 C :   -0.079926
  10 H :    0.042306
  11 H :    0.027070
  12 C :   -0.045349
  13 H :    0.016435
  14 H :    0.031561
  15 H :    0.046263
  16 S :    0.118564
  17 C :   -0.117311
  18 C :   -0.035201
  19 C :   -0.064143
  20 C :   -0.139300
  21 H :    0.021390
  22 C :    0.098073
  23 H :    0.008965
  24 H :    0.029037
  25 C :   -0.075026
  26 H :    0.024674
  27 H :    0.037805
  28 C :   -0.085155
  29 H :    0.026461
  30 H :    0.038797
  31 H :    0.043381
  32 H :    0.046419
  33 H :    0.080121
Sum of atomic charges:    0.0000000

LOEWDIN ATOMIC CHARGES
----------------------
   0 S :    0.438295
   1 C :   -0.205712
   2 C :   -0.063563
   3 C :   -0.061835
   4 C :   -0.208200
   5 H :    0.032986
   6 C :   -0.031637
   7 H :    0.020280
   8 H :    0.035771
   9 C :   -0.040413
  10 H :    0.031250
  11 H :    0.018415
  12 C :   -0.065891
  13 H :    0.015719
  14 H :    0.031774
  15 H :    0.033969
  16 S :    0.431234
  17 C :   -0.195808
  18 C :   -0.072532
  19 C :   -0.059635
  20 C :   -0.219370
  21 H :    0.031354
  22 C :   -0.034474
  23 H :    0.026837
  24 H :    0.035522
  25 C :   -0.047119
  26 H :    0.025125
  27 H :    0.026869
  28 C :   -0.076405
  29 H :    0.024991
  30 H :    0.025947
  31 H :    0.027868
  32 H :    0.027647
  33 H :    0.040743

  Mayer bond orders larger than 0.100000
B(  0-S ,  1-C ) :   1.1554 B(  0-S ,  4-C ) :   1.1647 B(  1-C ,  2-C ) :   1.6050
B(  1-C , 32-H ) :   0.9633 B(  2-C ,  3-C ) :   1.2531 B(  2-C ,  6-C ) :   1.0266
B(  3-C ,  4-C ) :   1.5627 B(  3-C ,  5-H ) :   0.9927 B(  4-C , 20-C ) :   1.0341
B(  6-C ,  7-H ) :   0.9392 B(  6-C ,  8-H ) :   0.9298 B(  6-C ,  9-C ) :   1.0563
B(  9-C , 10-H ) :   0.9665 B(  9-C , 11-H ) :   0.9487 B(  9-C , 12-C ) :   1.0864
B( 12-C , 13-H ) :   0.9760 B( 12-C , 14-H ) :   0.9737 B( 12-C , 15-H ) :   0.9739
B( 16-S , 17-C ) :   1.1855 B( 16-S , 20-C ) :   1.1644 B( 17-C , 18-C ) :   1.5546
B( 17-C , 20-C ) :   0.1059 B( 17-C , 33-H ) :   0.9589 B( 18-C , 19-C ) :   1.3013
B( 18-C , 21-H ) :   0.9906 B( 19-C , 20-C ) :   1.5255 B( 19-C , 22-C ) :   1.0498
B( 22-C , 23-H ) :   0.9351 B( 22-C , 24-H ) :   0.9147 B( 22-C , 25-C ) :   1.0823
B( 25-C , 26-H ) :   0.9540 B( 25-C , 27-H ) :   0.9539 B( 25-C , 28-C ) :   1.0644
B( 28-C , 29-H ) :   0.9777 B( 28-C , 30-H ) :   0.9762 B( 28-C , 31-H ) :   0.9756

Dispersion correction           -0.014528514
FINAL SINGLE POINT ENERGY     -1339.880593250682

DIPOLE MOMENT
-------------
                                X             Y             Z
Electronic contribution:     20.73448      -8.58095       8.45282
Nuclear contribution   :    -20.99024       8.73838      -8.42386
                        -----------------------------------------
Total Dipole Moment    :     -0.25576       0.15743       0.02897
                        -----------------------------------------
Magnitude (a.u.)       :      0.30172
Magnitude (Debye)      :      0.76691

Rotational constants in cm-1:     0.020630     0.007613     0.007059
Rotational constants in MHz :   618.458555   228.238506   211.616822

                             ****ORCA TERMINATED NORMALLY****
TOTAL RUN TIME: 0 days 0 hours 0 minutes 33 seconds 635 msec
