                         Program Version 4.2.1 -  RELEASE  -
|  1> ! wB97X-D3 SP def2-SVP
|  2> %pal
|  3> nprocs 16
|  4> end
|  5>
|  6> * xyz 0 1
|  7> S 	 51.0445 	 6.71521 	 84.3836
|  8> C 	 52.63 	 6.643 	 85.0985
|  9> C 	 53.0359 	 5.34514 	 85.3754
| 10> C 	 52.2183 	 4.39561 	 84.7058
| 11> C 	 51.1579 	 4.97504 	 84.0249
| 12> H 	 52.3445 	 3.32307 	 84.7982
| 13> C 	 54.3896 	 5.05267 	 85.9912
| 14> H 	 54.3455 	 4.08458 	 86.3
| 15> H 	 54.4507 	 5.76091 	 86.8149
| 16> C 	 55.5792 	 5.15277 	 84.9669
| 17> H 	 56.3245 	 4.33218 	 85.2128
| 18> H 	 55.1474 	 4.90825 	 84.0305
| 19> C 	 56.2217 	 6.54049 	 84.9656
| 20> H 	 56.3627 	 6.89826 	 85.9949
| 21> H 	 57.2165 	 6.52904 	 84.5517
| 22> H 	 55.6118 	 7.22046 	 84.3447
| 23> S 	 48.5051 	 4.85168 	 83.47
| 24> C 	 47.8192 	 3.65443 	 82.3747
| 25> C 	 48.8176 	 2.75744 	 82.0344
| 26> C 	 50.0923 	 3.00804 	 82.6131
| 27> C 	 50.1443 	 4.22379 	 83.2803
| 28> H 	 48.5216 	 1.92947 	 81.3939
| 29> C 	 51.2928 	 2.14683 	 82.288
| 30> H 	 52.2117 	 2.70039 	 82.3663
| 31> H 	 51.2688 	 1.86478 	 81.2176
| 32> C 	 51.5571 	 0.952032 	 83.1921
| 33> H 	 50.7688 	 0.192251 	 83.1519
| 34> H 	 51.8483 	 1.20095 	 84.2215
| 35> C 	 52.7726 	 0.266343 	 82.6112
| 36> H 	 53.6357 	 0.938157 	 82.5047
| 37> H 	 52.619 	 -0.182075 	 81.6582
| 38> H 	 53.1904 	 -0.475938 	 83.308
| 39> H 	 53.1641 	 7.55507 	 85.304
| 40> H 	 46.8337 	 3.5726 	 81.9676
| 41> *
| 42>
| 43>                          ****END OF INPUT****

CARTESIAN COORDINATES (ANGSTROEM)
---------------------------------
  S     51.044500    6.715210   84.383600
  C     52.630000    6.643000   85.098500
  C     53.035900    5.345140   85.375400
  C     52.218300    4.395610   84.705800
  C     51.157900    4.975040   84.024900
  H     52.344500    3.323070   84.798200
  C     54.389600    5.052670   85.991200
  H     54.345500    4.084580   86.300000
  H     54.450700    5.760910   86.814900
  C     55.579200    5.152770   84.966900
  H     56.324500    4.332180   85.212800
  H     55.147400    4.908250   84.030500
  C     56.221700    6.540490   84.965600
  H     56.362700    6.898260   85.994900
  H     57.216500    6.529040   84.551700
  H     55.611800    7.220460   84.344700
  S     48.505100    4.851680   83.470000
  C     47.819200    3.654430   82.374700
  C     48.817600    2.757440   82.034400
  C     50.092300    3.008040   82.613100
  C     50.144300    4.223790   83.280300
  H     48.521600    1.929470   81.393900
  C     51.292800    2.146830   82.288000
  H     52.211700    2.700390   82.366300
  H     51.268800    1.864780   81.217600
  C     51.557100    0.952032   83.192100
  H     50.768800    0.192251   83.151900
  H     51.848300    1.200950   84.221500
  C     52.772600    0.266343   82.611200
  H     53.635700    0.938157   82.504700
  H     52.619000   -0.182075   81.658200
  H     53.190400   -0.475938   83.308000
  H     53.164100    7.555070   85.304000
  H     46.833700    3.572600   81.967600

 Total Charge           Charge          ....    0
 Multiplicity           Mult            ....    1
 Number of Electrons    NEL             ....  134
 Basis Dimension        Dim             ....  322

ORBITAL ENERGIES
----------------

  NO   OCC          E(Eh)            E(eV)
   0   2.0000     -88.969224     -2420.9757
   1   2.0000     -88.961426     -2420.7635
   2   2.0000     -10.334678      -281.2209
   3   2.0000     -10.329451      -281.0786
   4   2.0000     -10.314856      -280.6815
   5   2.0000     -10.313303      -280.6393
   6   2.0000     -10.302201      -280.3371
   7   2.0000     -10.299781      -280.2713
   8   2.0000     -10.296943      -280.1941
   9   2.0000     -10.292365      -280.0695
  10   2.0000     -10.290702      -280.0242
  11   2.0000     -10.290258      -280.0121
  12   2.0000     -10.288671      -279.9690
  13   2.0000     -10.285156      -279.8733
  14   2.0000     -10.280967      -279.7593
  15   2.0000     -10.274703      -279.5889
  16   2.0000      -8.083635      -219.9669
  17   2.0000      -8.075914      -219.7568
  18   2.0000      -6.042171      -164.4158
  19   2.0000      -6.038399      -164.3132
  20   2.0000      -6.034575      -164.2091
  21   2.0000      -6.034172      -164.1982
  22   2.0000      -6.030422      -164.0961
  23   2.0000      -6.026568      -163.9913
  24   2.0000      -1.005757       -27.3680
  25   2.0000      -0.983318       -26.7574
  26   2.0000      -0.917265       -24.9601
  27   2.0000      -0.911496       -24.8031
  28   2.0000      -0.867753       -23.6128
  29   2.0000      -0.855261       -23.2728
  30   2.0000      -0.847250       -23.0548
  31   2.0000      -0.814926       -22.1753
  32   2.0000      -0.781098       -21.2548
  33   2.0000      -0.770850       -20.9759
  34   2.0000      -0.708259       -19.2727
  35   2.0000      -0.700313       -19.0565
  36   2.0000      -0.696832       -18.9618
  37   2.0000      -0.664083       -18.0706
  38   2.0000      -0.640397       -17.4261
  39   2.0000      -0.622709       -16.9448
  40   2.0000      -0.597865       -16.2687
  41   2.0000      -0.576630       -15.6909
  42   2.0000      -0.572125       -15.5683
  43   2.0000      -0.551370       -15.0036
  44   2.0000      -0.539519       -14.6810
  45   2.0000      -0.526670       -14.3314
  46   2.0000      -0.517948       -14.0941
  47   2.0000      -0.513616       -13.9762
  48   2.0000      -0.508447       -13.8355
  49   2.0000      -0.497467       -13.5368
  50   2.0000      -0.485811       -13.2196
  51   2.0000      -0.483831       -13.1657
  52   2.0000      -0.475347       -12.9348
  53   2.0000      -0.460128       -12.5207
  54   2.0000      -0.458820       -12.4851
  55   2.0000      -0.447443       -12.1755
  56   2.0000      -0.444028       -12.0826
  57   2.0000      -0.441271       -12.0076
  58   2.0000      -0.436159       -11.8685
  59   2.0000      -0.430005       -11.7010
  60   2.0000      -0.426826       -11.6145
  61   2.0000      -0.416439       -11.3319
  62   2.0000      -0.408655       -11.1201
  63   2.0000      -0.355829        -9.6826
  64   2.0000      -0.333427        -9.0730
  65   2.0000      -0.327873        -8.9219
  66   2.0000      -0.282506        -7.6874
  67   0.0000       0.018042         0.4909
  68   0.0000       0.071917         1.9570
  69   0.0000       0.101459         2.7609
  70   0.0000       0.127847         3.4789
  71   0.0000       0.129020         3.5108

MULLIKEN ATOMIC CHARGES
-----------------------
   0 S :    0.117750
   1 C :   -0.135764
   2 C :   -0.096330
   3 C :    0.000954
   4 C :   -0.102928
   5 H :   -0.006534
   6 C :    0.113200
   7 H :   -0.008838
   8 H :    0.030467
   9 C :   -0.067780
  10 H :    0.036399
  11 H :    0.025307
  12 C :   -0.048971
  13 H :    0.031296
  14 H :    0.030998
  15 H :    0.042561
  16 S :    0.075380
  17 C :   -0.076621
  18 C :   -0.047021
  19 C :    0.002038
  20 C :   -0.121924
  21 H :    0.018811
  22 C :    0.006807
  23 H :    0.008878
  24 H :    0.032152
  25 C :   -0.047443
  26 H :    0.032646
  27 H :    0.040636
  28 C :   -0.057159
  29 H :    0.015821
  30 H :    0.027011
  31 H :    0.028538
  32 H :    0.050235
  33 H :    0.049430
Sum of atomic charges:   -0.0000000

LOEWDIN ATOMIC CHARGES
----------------------
   0 S :    0.397446
   1 C :   -0.192638
   2 C :   -0.062458
   3 C :   -0.061625
   4 C :   -0.181302
   5 H :    0.029364
   6 C :   -0.019841
   7 H :    0.014986
   8 H :    0.031009
   9 C :   -0.033210
  10 H :    0.028939
  11 H :    0.019585
  12 C :   -0.067380
  13 H :    0.025843
  14 H :    0.025307
  15 H :    0.029546
  16 S :    0.385967
  17 C :   -0.183637
  18 C :   -0.070644
  19 C :   -0.066694
  20 C :   -0.176838
  21 H :    0.032300
  22 C :   -0.034942
  23 H :    0.026205
  24 H :    0.035966
  25 C :   -0.035951
  26 H :    0.025972
  27 H :    0.025183
  28 C :   -0.065853
  29 H :    0.021711
  30 H :    0.018818
  31 H :    0.025816
  32 H :    0.023332
  33 H :    0.029719

  Mayer bond orders larger than 0.100000
B(  0-S ,  1-C ) :   1.1422 B(  0-S ,  4-C ) :   1.1419 B(  1-C ,  2-C ) :   1.5827
B(  1-C , 32-H ) :   0.9718 B(  2-C ,  3-C ) :   1.2465 B(  2-C ,  6-C ) :   1.0420
B(  3-C ,  4-C ) :   1.5494 B(  3-C ,  5-H ) :   0.9951 B(  4-C , 20-C ) :   1.0684
B(  6-C ,  7-H ) :   0.9278 B(  6-C ,  8-H ) :   0.9444 B(  6-C ,  9-C ) :   1.0482
B(  9-C , 10-H ) :   0.9608 B(  9-C , 11-H ) :   0.9588 B(  9-C , 12-C ) :   1.0775
B( 12-C , 13-H ) :   0.9782 B( 12-C , 14-H ) :   0.9723 B( 12-C , 15-H ) :   0.9726
B( 16-S , 17-C ) :   1.1359 B( 16-S , 20-C ) :   1.1335 B( 17-C , 18-C ) :   1.6220
B( 17-C , 20-C ) :   0.1021 B( 17-C , 33-H ) :   0.9707 B( 18-C , 19-C ) :   1.2311
B( 18-C , 21-H ) :   0.9898 B( 19-C , 20-C ) :   1.5920 B( 19-C , 22-C ) :   1.0349
B( 22-C , 23-H ) :   0.9377 B( 22-C , 24-H ) :   0.9468 B( 22-C , 25-C ) :   1.0666
B( 25-C , 26-H ) :   0.9507 B( 25-C , 27-H ) :   0.9481 B( 25-C , 28-C ) :   1.0854
B( 28-C , 29-H ) :   0.9692 B( 28-C , 30-H ) :   0.9748 B( 28-C , 31-H ) :   0.9722

Dispersion correction           -0.014243033
FINAL SINGLE POINT ENERGY     -1339.873584696333

DIPOLE MOMENT
-------------
                                X             Y             Z
Electronic contribution:    -26.62996      14.98128       0.11202
Nuclear contribution   :     27.22853     -15.47054      -0.16840
                        -----------------------------------------
Total Dipole Moment    :      0.59857      -0.48926      -0.05638
                        -----------------------------------------
Magnitude (a.u.)       :      0.77514
Magnitude (Debye)      :      1.97026

Rotational constants in cm-1:     0.018192     0.009296     0.006466
Rotational constants in MHz :   545.384611   278.695262   193.837702

                             ****ORCA TERMINATED NORMALLY****
TOTAL RUN TIME: 0 days 0 hours 0 minutes 30 seconds 681 msec
