                         Program Version 4.2.1 -  RELEASE  -
|  1> ! wB97X-D3 SP def2-SVP
|  2> %pal
|  3> nprocs 16
|  4> end
|  5>
|  6> * xyz 0 1
|  7> S 	 -2.15663 	 6.21446 	 83.9321
|  8> C 	 -0.974497 	 5.41032 	 82.9675
|  9> C 	 -1.3911 	 4.21393 	 82.426
| 10> C 	 -2.77848 	 4.01507 	 82.612
| 11> C 	 -3.36722 	 5.02478 	 83.4367
| 12> H 	 -3.35823 	 3.18656 	 82.316
| 13> C 	 -0.523337 	 3.17154 	 81.7503
| 14> H 	 -0.465484 	 2.29886 	 82.3415
| 15> H 	 0.479912 	 3.57363 	 81.5118
| 16> C 	 -1.12056 	 2.82494 	 80.4763
| 17> H 	 -2.00808 	 2.23565 	 80.609
| 18> H 	 -1.31207 	 3.70292 	 79.8755
| 19> C 	 -0.189414 	 1.89367 	 79.6576
| 20> H 	 0.333397 	 1.08189 	 80.2246
| 21> H 	 -0.661132 	 1.49651 	 78.7506
| 22> H 	 0.646592 	 2.52449 	 79.2968
| 23> S 	 -5.01935 	 5.60097 	 85.5889
| 24> C 	 -6.75505 	 5.4807 	 85.4014
| 25> C 	 -7.05869 	 5.12688 	 84.1085
| 26> C 	 -5.94939 	 4.76255 	 83.2968
| 27> C 	 -4.77368 	 5.15858 	 83.8773
| 28> H 	 -8.09851 	 5.03849 	 83.883
| 29> C 	 -6.05145 	 4.2206 	 81.932
| 30> H 	 -5.22022 	 4.54923 	 81.2625
| 31> H 	 -6.87414 	 4.80688 	 81.538
| 32> C 	 -6.20964 	 2.6563 	 81.9181
| 33> H 	 -7.06904 	 2.4459 	 82.5449
| 34> H 	 -5.3423 	 2.26441 	 82.4758
| 35> C 	 -6.26831 	 2.00297 	 80.5241
| 36> H 	 -6.43365 	 0.953573 	 80.6588
| 37> H 	 -5.40442 	 2.22524 	 79.9213
| 38> H 	 -7.00582 	 2.31649 	 79.9234
| 39> H 	 0.10681 	 5.67415 	 83.0252
| 40> H 	 -7.44284 	 5.69186 	 86.193
| 41> *
| 42>
| 43>                          ****END OF INPUT****

CARTESIAN COORDINATES (ANGSTROEM)
---------------------------------
  S     -2.156630    6.214460   83.932100
  C     -0.974497    5.410320   82.967500
  C     -1.391100    4.213930   82.426000
  C     -2.778480    4.015070   82.612000
  C     -3.367220    5.024780   83.436700
  H     -3.358230    3.186560   82.316000
  C     -0.523337    3.171540   81.750300
  H     -0.465484    2.298860   82.341500
  H      0.479912    3.573630   81.511800
  C     -1.120560    2.824940   80.476300
  H     -2.008080    2.235650   80.609000
  H     -1.312070    3.702920   79.875500
  C     -0.189414    1.893670   79.657600
  H      0.333397    1.081890   80.224600
  H     -0.661132    1.496510   78.750600
  H      0.646592    2.524490   79.296800
  S     -5.019350    5.600970   85.588900
  C     -6.755050    5.480700   85.401400
  C     -7.058690    5.126880   84.108500
  C     -5.949390    4.762550   83.296800
  C     -4.773680    5.158580   83.877300
  H     -8.098510    5.038490   83.883000
  C     -6.051450    4.220600   81.932000
  H     -5.220220    4.549230   81.262500
  H     -6.874140    4.806880   81.538000
  C     -6.209640    2.656300   81.918100
  H     -7.069040    2.445900   82.544900
  H     -5.342300    2.264410   82.475800
  C     -6.268310    2.002970   80.524100
  H     -6.433650    0.953573   80.658800
  H     -5.404420    2.225240   79.921300
  H     -7.005820    2.316490   79.923400
  H      0.106810    5.674150   83.025200
  H     -7.442840    5.691860   86.193000

 Total Charge           Charge          ....    0
 Multiplicity           Mult            ....    1
 Number of Electrons    NEL             ....  134
 Basis Dimension        Dim             ....  322

ORBITAL ENERGIES
----------------

  NO   OCC          E(Eh)            E(eV)
   0   2.0000     -88.968504     -2420.9561
   1   2.0000     -88.961160     -2420.7562
   2   2.0000     -10.335355      -281.2393
   3   2.0000     -10.326642      -281.0022
   4   2.0000     -10.315914      -280.7103
   5   2.0000     -10.311349      -280.5861
   6   2.0000     -10.298955      -280.2488
   7   2.0000     -10.298173      -280.2275
   8   2.0000     -10.294478      -280.1270
   9   2.0000     -10.294307      -280.1223
  10   2.0000     -10.291840      -280.0552
  11   2.0000     -10.290543      -280.0199
  12   2.0000     -10.286276      -279.9038
  13   2.0000     -10.282104      -279.7903
  14   2.0000     -10.278915      -279.7035
  15   2.0000     -10.269945      -279.4594
  16   2.0000      -8.083178      -219.9545
  17   2.0000      -8.075785      -219.7533
  18   2.0000      -6.041625      -164.4010
  19   2.0000      -6.037724      -164.2948
  20   2.0000      -6.034309      -164.2019
  21   2.0000      -6.033993      -164.1933
  22   2.0000      -6.030409      -164.0958
  23   2.0000      -6.026432      -163.9876
  24   2.0000      -1.004834       -27.3429
  25   2.0000      -0.985295       -26.8112
  26   2.0000      -0.927308       -25.2333
  27   2.0000      -0.909232       -24.7415
  28   2.0000      -0.866251       -23.5719
  29   2.0000      -0.856810       -23.3150
  30   2.0000      -0.846963       -23.0470
  31   2.0000      -0.811154       -22.0726
  32   2.0000      -0.785830       -21.3835
  33   2.0000      -0.774105       -21.0645
  34   2.0000      -0.713541       -19.4164
  35   2.0000      -0.703640       -19.1470
  36   2.0000      -0.688901       -18.7460
  37   2.0000      -0.665186       -18.1006
  38   2.0000      -0.639128       -17.3915
  39   2.0000      -0.624099       -16.9826
  40   2.0000      -0.597215       -16.2511
  41   2.0000      -0.587794       -15.9947
  42   2.0000      -0.564252       -15.3541
  43   2.0000      -0.556426       -15.1411
  44   2.0000      -0.536073       -14.5873
  45   2.0000      -0.523886       -14.2557
  46   2.0000      -0.520438       -14.1618
  47   2.0000      -0.515080       -14.0160
  48   2.0000      -0.508316       -13.8320
  49   2.0000      -0.492911       -13.4128
  50   2.0000      -0.489386       -13.3169
  51   2.0000      -0.482950       -13.1417
  52   2.0000      -0.469698       -12.7811
  53   2.0000      -0.467779       -12.7289
  54   2.0000      -0.457098       -12.4383
  55   2.0000      -0.450693       -12.2640
  56   2.0000      -0.444856       -12.1052
  57   2.0000      -0.443718       -12.0742
  58   2.0000      -0.439344       -11.9552
  59   2.0000      -0.428268       -11.6538
  60   2.0000      -0.424363       -11.5475
  61   2.0000      -0.417373       -11.3573
  62   2.0000      -0.410951       -11.1825
  63   2.0000      -0.351801        -9.5730
  64   2.0000      -0.333404        -9.0724
  65   2.0000      -0.329427        -8.9642
  66   2.0000      -0.284069        -7.7299
  67   0.0000       0.024856         0.6764
  68   0.0000       0.073712         2.0058
  69   0.0000       0.110913         3.0181
  70   0.0000       0.126170         3.4332
  71   0.0000       0.129691         3.5291

MULLIKEN ATOMIC CHARGES
-----------------------
   0 S :    0.117066
   1 C :   -0.134274
   2 C :   -0.084060
   3 C :    0.032801
   4 C :   -0.145411
   5 H :   -0.025280
   6 C :    0.135714
   7 H :    0.026402
   8 H :    0.013570
   9 C :   -0.114109
  10 H :    0.030755
  11 H :    0.037541
  12 C :   -0.062097
  13 H :    0.034225
  14 H :    0.037490
  15 H :    0.022402
  16 S :    0.081179
  17 C :   -0.089169
  18 C :   -0.013971
  19 C :   -0.055278
  20 C :   -0.110382
  21 H :    0.007789
  22 C :    0.021425
  23 H :    0.033952
  24 H :    0.022426
  25 C :   -0.085112
  26 H :    0.025675
  27 H :    0.034745
  28 C :    0.038500
  29 H :    0.032861
  30 H :    0.022100
  31 H :   -0.002664
  32 H :    0.058368
  33 H :    0.054820
Sum of atomic charges:   -0.0000000

LOEWDIN ATOMIC CHARGES
----------------------
   0 S :    0.414685
   1 C :   -0.216606
   2 C :   -0.061430
   3 C :   -0.057986
   4 C :   -0.180410
   5 H :    0.019344
   6 C :   -0.023769
   7 H :    0.029780
   8 H :    0.031942
   9 C :   -0.041484
  10 H :    0.019094
  11 H :    0.028050
  12 C :   -0.072023
  13 H :    0.027553
  14 H :    0.025516
  15 H :    0.023590
  16 S :    0.379383
  17 C :   -0.176478
  18 C :   -0.069108
  19 C :   -0.061499
  20 C :   -0.181913
  21 H :    0.027564
  22 C :   -0.040020
  23 H :    0.034079
  24 H :    0.030936
  25 C :   -0.031111
  26 H :    0.024308
  27 H :    0.024676
  28 C :   -0.054791
  29 H :    0.029948
  30 H :    0.027321
  31 H :    0.010054
  32 H :    0.033649
  33 H :    0.027155

  Mayer bond orders larger than 0.100000
B(  0-S ,  1-C ) :   1.1424 B(  0-S ,  4-C ) :   1.1682 B(  1-C ,  2-C ) :   1.6171
B(  1-C ,  4-C ) :   0.1006 B(  1-C , 32-H ) :   0.9561 B(  2-C ,  3-C ) :   1.2520
B(  2-C ,  6-C ) :   1.0238 B(  3-C ,  4-C ) :   1.5356 B(  3-C ,  5-H ) :   0.9962
B(  4-C , 20-C ) :   1.0387 B(  6-C ,  7-H ) :   0.9242 B(  6-C ,  8-H ) :   0.9415
B(  6-C ,  9-C ) :   1.0788 B(  9-C , 10-H ) :   0.9448 B(  9-C , 11-H ) :   0.9586
B(  9-C , 12-C ) :   1.0865 B( 12-C , 13-H ) :   0.9719 B( 12-C , 14-H ) :   0.9749
B( 12-C , 15-H ) :   0.9733 B( 16-S , 17-C ) :   1.1463 B( 16-S , 20-C ) :   1.1260
B( 17-C , 18-C ) :   1.6198 B( 17-C , 33-H ) :   0.9710 B( 18-C , 19-C ) :   1.2150
B( 18-C , 21-H ) :   0.9937 B( 19-C , 20-C ) :   1.6143 B( 19-C , 22-C ) :   1.0472
B( 22-C , 23-H ) :   0.9387 B( 22-C , 24-H ) :   0.9349 B( 22-C , 25-C ) :   1.0380
B( 25-C , 26-H ) :   0.9548 B( 25-C , 27-H ) :   0.9550 B( 25-C , 28-C ) :   1.0800
B( 28-C , 29-H ) :   0.9718 B( 28-C , 30-H ) :   0.9688 B( 28-C , 31-H ) :   0.9688

Dispersion correction           -0.014366925
FINAL SINGLE POINT ENERGY     -1339.875050208585

DIPOLE MOMENT
-------------
                                X             Y             Z
Electronic contribution:     -2.26901      21.62209      25.14781
Nuclear contribution   :      2.09130     -22.16997     -25.60712
                        -----------------------------------------
Total Dipole Moment    :     -0.17771      -0.54788      -0.45931
                        -----------------------------------------
Magnitude (a.u.)       :      0.73669
Magnitude (Debye)      :      1.87252

Rotational constants in cm-1:     0.017775     0.009639     0.006526
Rotational constants in MHz :   532.891473   288.958617   195.640770

                             ****ORCA TERMINATED NORMALLY****
TOTAL RUN TIME: 0 days 0 hours 0 minutes 35 seconds 803 msec
