                         Program Version 4.2.1 -  RELEASE  -
|  1> ! wB97X-D3 SP def2-SVP
|  2> %pal
|  3> nprocs 16
|  4> end
|  5>
|  6> * xyz 0 1
|  7> S 	 6.36353 	 21.2203 	 39.7582
|  8> C 	 6.47489 	 22.6452 	 38.6756
|  9> C 	 7.64269 	 23.3448 	 39.0186
| 10> C 	 8.53242 	 22.5385 	 39.7961
| 11> C 	 7.97576 	 21.329 	 40.219
| 12> H 	 9.5455 	 22.7098 	 40.125
| 13> C 	 8.04596 	 24.6158 	 38.3874
| 14> H 	 7.38652 	 24.858 	 37.5528
| 15> H 	 9.04429 	 24.3763 	 38.0521
| 16> C 	 7.87672 	 25.7902 	 39.3394
| 17> H 	 6.82337 	 25.878 	 39.653
| 18> H 	 8.51077 	 25.5782 	 40.2702
| 19> C 	 8.40097 	 27.1313 	 38.8768
| 20> H 	 8.21125 	 27.2067 	 37.7532
| 21> H 	 8.00885 	 28.0051 	 39.3946
| 22> H 	 9.45772 	 27.2634 	 39.0771
| 23> S 	 7.85841 	 19.9111 	 42.6205
| 24> C 	 9.23545 	 18.8527 	 43.0799
| 25> C 	 10.1793 	 18.9674 	 42.1441
| 26> C 	 9.80439 	 19.6308 	 40.959
| 27> C 	 8.6294 	 20.3352 	 41.1398
| 28> H 	 11.1219 	 18.4783 	 42.3727
| 29> C 	 10.7864 	 19.6331 	 39.8277
| 30> H 	 10.2057 	 19.8971 	 38.9254
| 31> H 	 11.0991 	 18.6836 	 39.6306
| 32> C 	 12.0332 	 20.5728 	 39.9469
| 33> H 	 12.7908 	 20.141 	 40.5973
| 34> H 	 11.6928 	 21.5585 	 40.3867
| 35> C 	 12.7482 	 20.7514 	 38.5556
| 36> H 	 13.4691 	 21.5153 	 38.6723
| 37> H 	 12.0402 	 20.9439 	 37.7334
| 38> H 	 13.2498 	 19.8091 	 38.4404
| 39> H 	 5.67698 	 22.9994 	 37.929
| 40> H 	 9.34478 	 18.2555 	 44.0133
| 41> *
| 42>
| 43>                          ****END OF INPUT****

CARTESIAN COORDINATES (ANGSTROEM)
---------------------------------
  S      6.363530   21.220300   39.758200
  C      6.474890   22.645200   38.675600
  C      7.642690   23.344800   39.018600
  C      8.532420   22.538500   39.796100
  C      7.975760   21.329000   40.219000
  H      9.545500   22.709800   40.125000
  C      8.045960   24.615800   38.387400
  H      7.386520   24.858000   37.552800
  H      9.044290   24.376300   38.052100
  C      7.876720   25.790200   39.339400
  H      6.823370   25.878000   39.653000
  H      8.510770   25.578200   40.270200
  C      8.400970   27.131300   38.876800
  H      8.211250   27.206700   37.753200
  H      8.008850   28.005100   39.394600
  H      9.457720   27.263400   39.077100
  S      7.858410   19.911100   42.620500
  C      9.235450   18.852700   43.079900
  C     10.179300   18.967400   42.144100
  C      9.804390   19.630800   40.959000
  C      8.629400   20.335200   41.139800
  H     11.121900   18.478300   42.372700
  C     10.786400   19.633100   39.827700
  H     10.205700   19.897100   38.925400
  H     11.099100   18.683600   39.630600
  C     12.033200   20.572800   39.946900
  H     12.790800   20.141000   40.597300
  H     11.692800   21.558500   40.386700
  C     12.748200   20.751400   38.555600
  H     13.469100   21.515300   38.672300
  H     12.040200   20.943900   37.733400
  H     13.249800   19.809100   38.440400
  H      5.676980   22.999400   37.929000
  H      9.344780   18.255500   44.013300

 Total Charge           Charge          ....    0
 Multiplicity           Mult            ....    1
 Number of Electrons    NEL             ....  134
 Basis Dimension        Dim             ....  322

ORBITAL ENERGIES
----------------

  NO   OCC          E(Eh)            E(eV)
   0   2.0000     -88.965190     -2420.8659
   1   2.0000     -88.963108     -2420.8092
   2   2.0000     -10.329379      -281.0767
   3   2.0000     -10.328304      -281.0475
   4   2.0000     -10.324265      -280.9375
   5   2.0000     -10.316001      -280.7126
   6   2.0000     -10.304259      -280.3931
   7   2.0000     -10.297101      -280.1984
   8   2.0000     -10.295082      -280.1434
   9   2.0000     -10.294040      -280.1151
  10   2.0000     -10.290647      -280.0227
  11   2.0000     -10.289558      -279.9931
  12   2.0000     -10.284914      -279.8667
  13   2.0000     -10.283815      -279.8368
  14   2.0000     -10.280209      -279.7387
  15   2.0000     -10.278378      -279.6889
  16   2.0000      -8.080433      -219.8798
  17   2.0000      -8.077821      -219.8087
  18   2.0000      -6.038874      -164.3261
  19   2.0000      -6.036400      -164.2588
  20   2.0000      -6.034797      -164.2152
  21   2.0000      -6.032400      -164.1500
  22   2.0000      -6.031286      -164.1196
  23   2.0000      -6.028428      -164.0419
  24   2.0000      -1.009825       -27.4787
  25   2.0000      -0.988681       -26.9034
  26   2.0000      -0.919969       -25.0336
  27   2.0000      -0.905117       -24.6295
  28   2.0000      -0.868628       -23.6366
  29   2.0000      -0.849118       -23.1057
  30   2.0000      -0.848060       -23.0769
  31   2.0000      -0.817026       -22.2324
  32   2.0000      -0.783227       -21.3127
  33   2.0000      -0.772045       -21.0084
  34   2.0000      -0.702008       -19.1026
  35   2.0000      -0.695677       -18.9303
  36   2.0000      -0.691686       -18.8217
  37   2.0000      -0.656919       -17.8757
  38   2.0000      -0.640538       -17.4299
  39   2.0000      -0.618922       -16.8417
  40   2.0000      -0.596483       -16.2311
  41   2.0000      -0.569898       -15.5077
  42   2.0000      -0.567786       -15.4502
  43   2.0000      -0.561870       -15.2893
  44   2.0000      -0.529849       -14.4179
  45   2.0000      -0.525006       -14.2861
  46   2.0000      -0.521801       -14.1989
  47   2.0000      -0.512290       -13.9401
  48   2.0000      -0.505533       -13.7563
  49   2.0000      -0.504386       -13.7250
  50   2.0000      -0.491526       -13.3751
  51   2.0000      -0.479727       -13.0540
  52   2.0000      -0.474247       -12.9049
  53   2.0000      -0.463021       -12.5995
  54   2.0000      -0.461214       -12.5503
  55   2.0000      -0.451738       -12.2924
  56   2.0000      -0.441956       -12.0262
  57   2.0000      -0.433454       -11.7949
  58   2.0000      -0.430007       -11.7011
  59   2.0000      -0.424890       -11.5619
  60   2.0000      -0.419447       -11.4137
  61   2.0000      -0.415416       -11.3041
  62   2.0000      -0.408315       -11.1108
  63   2.0000      -0.344541        -9.3754
  64   2.0000      -0.329664        -8.9706
  65   2.0000      -0.325823        -8.8661
  66   2.0000      -0.296480        -8.0676
  67   0.0000       0.035648         0.9700
  68   0.0000       0.068766         1.8712
  69   0.0000       0.106277         2.8919
  70   0.0000       0.124997         3.4013
  71   0.0000       0.132417         3.6032

MULLIKEN ATOMIC CHARGES
-----------------------
   0 S :    0.112766
   1 C :   -0.158778
   2 C :   -0.079590
   3 C :    0.035515
   4 C :   -0.153450
   5 H :   -0.002772
   6 C :    0.091139
   7 H :    0.013811
   8 H :    0.031573
   9 C :   -0.116557
  10 H :    0.038518
  11 H :    0.034914
  12 C :   -0.035549
  13 H :    0.032187
  14 H :    0.033080
  15 H :    0.027477
  16 S :    0.095491
  17 C :   -0.112879
  18 C :   -0.026740
  19 C :   -0.044356
  20 C :   -0.146147
  21 H :    0.018258
  22 C :    0.111612
  23 H :    0.021903
  24 H :   -0.004625
  25 C :   -0.113905
  26 H :    0.030644
  27 H :    0.038460
  28 C :   -0.027374
  29 H :    0.030853
  30 H :    0.043698
  31 H :    0.027679
  32 H :    0.082788
  33 H :    0.070356
Sum of atomic charges:    0.0000000

LOEWDIN ATOMIC CHARGES
----------------------
   0 S :    0.420670
   1 C :   -0.205036
   2 C :   -0.057592
   3 C :   -0.068223
   4 C :   -0.212798
   5 H :    0.027962
   6 C :   -0.031900
   7 H :    0.029351
   8 H :    0.033326
   9 C :   -0.048631
  10 H :    0.028997
  11 H :    0.030481
  12 C :   -0.074554
  13 H :    0.028866
  14 H :    0.027937
  15 H :    0.023759
  16 S :    0.389743
  17 C :   -0.178042
  18 C :   -0.071536
  19 C :   -0.064783
  20 C :   -0.198559
  21 H :    0.033438
  22 C :   -0.028866
  23 H :    0.034107
  24 H :    0.016601
  25 C :   -0.034614
  26 H :    0.021513
  27 H :    0.021650
  28 C :   -0.056593
  29 H :    0.021111
  30 H :    0.027913
  31 H :    0.024533
  32 H :    0.048019
  33 H :    0.041752

  Mayer bond orders larger than 0.100000
B(  0-S ,  1-C ) :   1.1361 B(  0-S ,  4-C ) :   1.1815 B(  1-C ,  2-C ) :   1.5790
B(  1-C ,  4-C ) :   0.1009 B(  1-C , 32-H ) :   0.9615 B(  2-C ,  3-C ) :   1.2328
B(  2-C ,  6-C ) :   1.0388 B(  3-C ,  4-C ) :   1.5598 B(  3-C ,  5-H ) :   0.9967
B(  4-C , 20-C ) :   0.9973 B(  6-C ,  7-H ) :   0.9317 B(  6-C ,  8-H ) :   0.9435
B(  6-C ,  9-C ) :   1.0600 B(  9-C , 10-H ) :   0.9548 B(  9-C , 11-H ) :   0.9606
B(  9-C , 12-C ) :   1.0780 B( 12-C , 13-H ) :   0.9709 B( 12-C , 14-H ) :   0.9729
B( 12-C , 15-H ) :   0.9766 B( 16-S , 17-C ) :   1.1199 B( 16-S , 20-C ) :   1.1492
B( 17-C , 18-C ) :   1.6596 B( 17-C , 33-H ) :   0.9620 B( 18-C , 19-C ) :   1.2111
B( 18-C , 21-H ) :   0.9862 B( 19-C , 20-C ) :   1.6103 B( 19-C , 22-C ) :   1.0656
B( 22-C , 23-H ) :   0.9282 B( 22-C , 24-H ) :   0.9222 B( 22-C , 25-C ) :   1.0520
B( 25-C , 26-H ) :   0.9548 B( 25-C , 27-H ) :   0.9607 B( 25-C , 28-C ) :   1.0700
B( 28-C , 29-H ) :   0.9761 B( 28-C , 30-H ) :   0.9793 B( 28-C , 31-H ) :   0.9778

Dispersion correction           -0.013912699
FINAL SINGLE POINT ENERGY     -1339.861406877195

DIPOLE MOMENT
-------------
                                X             Y             Z
Electronic contribution:    -19.34054     -18.09921      13.14692
Nuclear contribution   :     19.98780      18.34856     -13.36672
                        -----------------------------------------
Total Dipole Moment    :      0.64726       0.24935      -0.21980
                        -----------------------------------------
Magnitude (a.u.)       :      0.72762
Magnitude (Debye)      :      1.84948

Rotational constants in cm-1:     0.017152     0.008535     0.006644
Rotational constants in MHz :   514.211740   255.859965   199.180045

                             ****ORCA TERMINATED NORMALLY****
TOTAL RUN TIME: 0 days 0 hours 0 minutes 34 seconds 916 msec
