                         Program Version 4.2.1 -  RELEASE  -
|  1> ! wB97X-D3 SP def2-SVP
|  2> %pal
|  3> nprocs 16
|  4> end
|  5>
|  6> * xyz 0 1
|  7> S 	 -48.3785 	 65.9965 	 130.784
|  8> C 	 -48.9413 	 64.4447 	 130.123
|  9> C 	 -48.2938 	 63.3032 	 130.696
| 10> C 	 -47.3994 	 63.7183 	 131.693
| 11> C 	 -47.3916 	 65.0865 	 131.891
| 12> H 	 -46.8415 	 62.939 	 132.219
| 13> C 	 -48.4287 	 61.8921 	 130.292
| 14> H 	 -49.3778 	 61.6537 	 129.887
| 15> H 	 -48.4585 	 61.0834 	 131.005
| 16> C 	 -47.3893 	 61.6264 	 129.095
| 17> H 	 -47.6434 	 60.611 	 128.752
| 18> H 	 -47.5103 	 62.1842 	 128.179
| 19> C 	 -45.9356 	 61.4801 	 129.552
| 20> H 	 -45.9281 	 60.8224 	 130.422
| 21> H 	 -45.3245 	 61.0628 	 128.721
| 22> H 	 -45.5591 	 62.4483 	 129.728
| 23> S 	 -45.7794 	 67.168 	 132.613
| 24> C 	 -45.2443 	 67.425 	 134.199
| 25> C 	 -45.8007 	 66.4942 	 135.046
| 26> C 	 -46.5506 	 65.4761 	 134.359
| 27> C 	 -46.6215 	 65.6814 	 132.979
| 28> H 	 -45.4812 	 66.4593 	 136.135
| 29> C 	 -47.2963 	 64.4154 	 135.189
| 30> H 	 -46.7513 	 64.2631 	 136.144
| 31> H 	 -47.182 	 63.4129 	 134.866
| 32> C 	 -48.7947 	 64.6404 	 135.445
| 33> H 	 -49.2517 	 64.6626 	 134.482
| 34> H 	 -49.1322 	 65.6145 	 135.943
| 35> C 	 -49.4471 	 63.4243 	 136.128
| 36> H 	 -48.6505 	 62.8187 	 136.647
| 37> H 	 -49.9515 	 62.748 	 135.458
| 38> H 	 -50.275 	 63.6564 	 136.822
| 39> H 	 -49.6965 	 64.3425 	 129.429
| 40> H 	 -44.6945 	 68.2471 	 134.595
| 41> *
| 42>
| 43>                          ****END OF INPUT****

CARTESIAN COORDINATES (ANGSTROEM)
---------------------------------
  S    -48.378500   65.996500  130.784000
  C    -48.941300   64.444700  130.123000
  C    -48.293800   63.303200  130.696000
  C    -47.399400   63.718300  131.693000
  C    -47.391600   65.086500  131.891000
  H    -46.841500   62.939000  132.219000
  C    -48.428700   61.892100  130.292000
  H    -49.377800   61.653700  129.887000
  H    -48.458500   61.083400  131.005000
  C    -47.389300   61.626400  129.095000
  H    -47.643400   60.611000  128.752000
  H    -47.510300   62.184200  128.179000
  C    -45.935600   61.480100  129.552000
  H    -45.928100   60.822400  130.422000
  H    -45.324500   61.062800  128.721000
  H    -45.559100   62.448300  129.728000
  S    -45.779400   67.168000  132.613000
  C    -45.244300   67.425000  134.199000
  C    -45.800700   66.494200  135.046000
  C    -46.550600   65.476100  134.359000
  C    -46.621500   65.681400  132.979000
  H    -45.481200   66.459300  136.135000
  C    -47.296300   64.415400  135.189000
  H    -46.751300   64.263100  136.144000
  H    -47.182000   63.412900  134.866000
  C    -48.794700   64.640400  135.445000
  H    -49.251700   64.662600  134.482000
  H    -49.132200   65.614500  135.943000
  C    -49.447100   63.424300  136.128000
  H    -48.650500   62.818700  136.647000
  H    -49.951500   62.748000  135.458000
  H    -50.275000   63.656400  136.822000
  H    -49.696500   64.342500  129.429000
  H    -44.694500   68.247100  134.595000

 Total Charge           Charge          ....    0
 Multiplicity           Mult            ....    1
 Number of Electrons    NEL             ....  134
 Basis Dimension        Dim             ....  322

ORBITAL ENERGIES
----------------

  NO   OCC          E(Eh)            E(eV)
   0   2.0000     -88.977118     -2421.1905
   1   2.0000     -88.961864     -2420.7754
   2   2.0000     -10.330697      -281.1126
   3   2.0000     -10.326309      -280.9932
   4   2.0000     -10.313473      -280.6439
   5   2.0000     -10.309143      -280.5261
   6   2.0000     -10.305428      -280.4250
   7   2.0000     -10.302633      -280.3489
   8   2.0000     -10.294240      -280.1205
   9   2.0000     -10.294149      -280.1180
  10   2.0000     -10.290868      -280.0288
  11   2.0000     -10.290187      -280.0102
  12   2.0000     -10.288944      -279.9764
  13   2.0000     -10.284000      -279.8419
  14   2.0000     -10.277769      -279.6723
  15   2.0000     -10.274492      -279.5832
  16   2.0000      -8.090880      -220.1640
  17   2.0000      -8.077833      -219.8090
  18   2.0000      -6.049346      -164.6111
  19   2.0000      -6.045631      -164.5100
  20   2.0000      -6.041651      -164.4017
  21   2.0000      -6.036194      -164.2532
  22   2.0000      -6.032021      -164.1396
  23   2.0000      -6.028836      -164.0530
  24   2.0000      -1.008646       -27.4467
  25   2.0000      -0.985369       -26.8132
  26   2.0000      -0.912766       -24.8376
  27   2.0000      -0.903713       -24.5913
  28   2.0000      -0.865455       -23.5502
  29   2.0000      -0.854219       -23.2445
  30   2.0000      -0.844389       -22.9770
  31   2.0000      -0.814074       -22.1521
  32   2.0000      -0.783611       -21.3231
  33   2.0000      -0.770906       -20.9774
  34   2.0000      -0.707238       -19.2449
  35   2.0000      -0.700032       -19.0488
  36   2.0000      -0.692142       -18.8341
  37   2.0000      -0.658295       -17.9131
  38   2.0000      -0.641540       -17.4572
  39   2.0000      -0.628053       -17.0902
  40   2.0000      -0.600437       -16.3387
  41   2.0000      -0.573686       -15.6108
  42   2.0000      -0.550113       -14.9693
  43   2.0000      -0.546487       -14.8707
  44   2.0000      -0.542237       -14.7550
  45   2.0000      -0.519294       -14.1307
  46   2.0000      -0.516802       -14.0629
  47   2.0000      -0.507960       -13.8223
  48   2.0000      -0.505150       -13.7458
  49   2.0000      -0.495412       -13.4809
  50   2.0000      -0.491222       -13.3668
  51   2.0000      -0.478052       -13.0085
  52   2.0000      -0.465357       -12.6630
  53   2.0000      -0.463529       -12.6133
  54   2.0000      -0.456970       -12.4348
  55   2.0000      -0.455822       -12.4036
  56   2.0000      -0.444262       -12.0890
  57   2.0000      -0.440210       -11.9787
  58   2.0000      -0.433392       -11.7932
  59   2.0000      -0.424455       -11.5500
  60   2.0000      -0.415991       -11.3197
  61   2.0000      -0.413967       -11.2646
  62   2.0000      -0.400568       -10.9000
  63   2.0000      -0.347383        -9.4528
  64   2.0000      -0.334995        -9.1157
  65   2.0000      -0.329306        -8.9609
  66   2.0000      -0.284989        -7.7550
  67   0.0000       0.027412         0.7459
  68   0.0000       0.067780         1.8444
  69   0.0000       0.105533         2.8717
  70   0.0000       0.121926         3.3178
  71   0.0000       0.136872         3.7245

MULLIKEN ATOMIC CHARGES
-----------------------
   0 S :    0.138480
   1 C :   -0.092988
   2 C :   -0.060775
   3 C :    0.009214
   4 C :   -0.116017
   5 H :    0.017453
   6 C :    0.073704
   7 H :    0.000846
   8 H :    0.024805
   9 C :   -0.098559
  10 H :    0.013781
  11 H :    0.033904
  12 C :   -0.036620
  13 H :    0.030737
  14 H :    0.039428
  15 H :    0.038178
  16 S :    0.094613
  17 C :   -0.069010
  18 C :   -0.073260
  19 C :   -0.035303
  20 C :   -0.153693
  21 H :    0.045465
  22 C :    0.061629
  23 H :    0.011614
  24 H :    0.004440
  25 C :   -0.052268
  26 H :    0.028282
  27 H :    0.044352
  28 C :   -0.073970
  29 H :    0.031764
  30 H :    0.026232
  31 H :    0.035026
  32 H :    0.009728
  33 H :    0.048789
Sum of atomic charges:    0.0000000

LOEWDIN ATOMIC CHARGES
----------------------
   0 S :    0.414361
   1 C :   -0.184019
   2 C :   -0.050953
   3 C :   -0.060791
   4 C :   -0.200445
   5 H :    0.035930
   6 C :   -0.035842
   7 H :    0.028746
   8 H :    0.033224
   9 C :   -0.031861
  10 H :    0.019541
  11 H :    0.023312
  12 C :   -0.062957
  13 H :    0.024584
  14 H :    0.032615
  15 H :    0.018500
  16 S :    0.425677
  17 C :   -0.204280
  18 C :   -0.082459
  19 C :   -0.058995
  20 C :   -0.195559
  21 H :    0.042812
  22 C :   -0.036257
  23 H :    0.030156
  24 H :    0.022729
  25 C :   -0.044759
  26 H :    0.024327
  27 H :    0.032942
  28 C :   -0.074393
  29 H :    0.026747
  30 H :    0.022208
  31 H :    0.029693
  32 H :    0.006256
  33 H :    0.029211

  Mayer bond orders larger than 0.100000
B(  0-S ,  1-C ) :   1.1365 B(  0-S ,  4-C ) :   1.1555 B(  1-C ,  2-C ) :   1.5703
B(  1-C ,  4-C ) :   0.1046 B(  1-C , 32-H ) :   0.9749 B(  2-C ,  3-C ) :   1.2833
B(  2-C ,  6-C ) :   1.0418 B(  3-C ,  4-C ) :   1.5262 B(  3-C ,  5-H ) :   0.9941
B(  4-C , 20-C ) :   1.0533 B(  6-C ,  7-H ) :   0.9241 B(  6-C ,  8-H ) :   0.9446
B(  6-C ,  9-C ) :   1.0612 B(  9-C , 10-H ) :   0.9557 B(  9-C , 11-H ) :   0.9611
B(  9-C , 12-C ) :   1.0791 B( 12-C , 13-H ) :   0.9733 B( 12-C , 14-H ) :   0.9718
B( 12-C , 15-H ) :   0.9747 B( 16-S , 17-C ) :   1.1728 B( 16-S , 20-C ) :   1.1426
B( 17-C , 18-C ) :   1.5956 B( 17-C , 33-H ) :   0.9684 B( 18-C , 19-C ) :   1.2754
B( 18-C , 21-H ) :   0.9748 B( 19-C , 20-C ) :   1.5712 B( 19-C , 22-C ) :   1.0402
B( 22-C , 23-H ) :   0.9268 B( 22-C , 24-H ) :   0.9350 B( 22-C , 25-C ) :   1.0619
B( 25-C , 26-H ) :   0.9578 B( 25-C , 27-H ) :   0.9617 B( 25-C , 28-C ) :   1.0618
B( 28-C , 29-H ) :   0.9774 B( 28-C , 30-H ) :   0.9766 B( 28-C , 31-H ) :   0.9752

Dispersion correction           -0.014571484
FINAL SINGLE POINT ENERGY     -1339.855024141685

DIPOLE MOMENT
-------------
                                X             Y             Z
Electronic contribution:      5.17500      24.45872      -5.90407
Nuclear contribution   :     -5.37990     -25.07532       5.99797
                        -----------------------------------------
Total Dipole Moment    :     -0.20491      -0.61660       0.09390
                        -----------------------------------------
Magnitude (a.u.)       :      0.65650
Magnitude (Debye)      :      1.66870

Rotational constants in cm-1:     0.017232     0.009230     0.007592
Rotational constants in MHz :   516.607099   276.703040   227.609809

                             ****ORCA TERMINATED NORMALLY****
TOTAL RUN TIME: 0 days 0 hours 0 minutes 33 seconds 758 msec
