                         Program Version 4.2.1 -  RELEASE  -
|  1> ! wB97X-D3 SP def2-SVP
|  2> %pal
|  3> nprocs 16
|  4> end
|  5>
|  6> * xyz 0 1
|  7> S 	 -41.2505 	 19.0023 	 71.9916
|  8> C 	 -40.0372 	 20.1682 	 71.5034
|  9> C 	 -39.1342 	 19.4654 	 70.6762
| 10> C 	 -39.4119 	 18.0478 	 70.5857
| 11> C 	 -40.5053 	 17.6453 	 71.2173
| 12> H 	 -38.8368 	 17.3485 	 70.0066
| 13> C 	 -37.9882 	 20.1079 	 69.9225
| 14> H 	 -37.1219 	 19.4364 	 70.0068
| 15> H 	 -37.5534 	 20.9214 	 70.5046
| 16> C 	 -38.3195 	 20.5475 	 68.4558
| 17> H 	 -38.8717 	 21.4705 	 68.4564
| 18> H 	 -37.355 	 20.773 	 67.9292
| 19> C 	 -38.7731 	 19.4535 	 67.5413
| 20> H 	 -38.1902 	 18.5655 	 67.6925
| 21> H 	 -39.8503 	 19.225 	 67.7436
| 22> H 	 -38.6927 	 19.5618 	 66.4657
| 23> S 	 -42.8378 	 16.2044 	 70.6839
| 24> C 	 -42.7066 	 14.4429 	 70.9546
| 25> C 	 -41.495 	 14.0607 	 71.4806
| 26> C 	 -40.5599 	 15.099 	 71.4798
| 27> C 	 -41.1027 	 16.3194 	 71.1494
| 28> H 	 -41.3256 	 12.9766 	 71.6779
| 29> C 	 -39.2011 	 14.8414 	 72.0919
| 30> H 	 -38.4642 	 15.3035 	 71.4899
| 31> H 	 -38.9449 	 13.7461 	 71.9802
| 32> C 	 -38.9306 	 15.3591 	 73.5221
| 33> H 	 -39.1095 	 16.4469 	 73.5592
| 34> H 	 -37.915 	 15.2169 	 73.7144
| 35> C 	 -39.7968 	 14.6085 	 74.5982
| 36> H 	 -39.5009 	 14.7215 	 75.6299
| 37> H 	 -39.6258 	 13.5591 	 74.4492
| 38> H 	 -40.8571 	 14.8574 	 74.5734
| 39> H 	 -39.9104 	 21.2564 	 71.6899
| 40> H 	 -43.5465 	 13.7575 	 70.7786
| 41> *
| 42>
| 43>                          ****END OF INPUT****

CARTESIAN COORDINATES (ANGSTROEM)
---------------------------------
  S    -41.250500   19.002300   71.991600
  C    -40.037200   20.168200   71.503400
  C    -39.134200   19.465400   70.676200
  C    -39.411900   18.047800   70.585700
  C    -40.505300   17.645300   71.217300
  H    -38.836800   17.348500   70.006600
  C    -37.988200   20.107900   69.922500
  H    -37.121900   19.436400   70.006800
  H    -37.553400   20.921400   70.504600
  C    -38.319500   20.547500   68.455800
  H    -38.871700   21.470500   68.456400
  H    -37.355000   20.773000   67.929200
  C    -38.773100   19.453500   67.541300
  H    -38.190200   18.565500   67.692500
  H    -39.850300   19.225000   67.743600
  H    -38.692700   19.561800   66.465700
  S    -42.837800   16.204400   70.683900
  C    -42.706600   14.442900   70.954600
  C    -41.495000   14.060700   71.480600
  C    -40.559900   15.099000   71.479800
  C    -41.102700   16.319400   71.149400
  H    -41.325600   12.976600   71.677900
  C    -39.201100   14.841400   72.091900
  H    -38.464200   15.303500   71.489900
  H    -38.944900   13.746100   71.980200
  C    -38.930600   15.359100   73.522100
  H    -39.109500   16.446900   73.559200
  H    -37.915000   15.216900   73.714400
  C    -39.796800   14.608500   74.598200
  H    -39.500900   14.721500   75.629900
  H    -39.625800   13.559100   74.449200
  H    -40.857100   14.857400   74.573400
  H    -39.910400   21.256400   71.689900
  H    -43.546500   13.757500   70.778600

 Total Charge           Charge          ....    0
 Multiplicity           Mult            ....    1
 Number of Electrons    NEL             ....  134
 Basis Dimension        Dim             ....  322

ORBITAL ENERGIES
----------------

  NO   OCC          E(Eh)            E(eV)
   0   2.0000     -88.969002     -2420.9696
   1   2.0000     -88.963914     -2420.8312
   2   2.0000     -10.329766      -281.0872
   3   2.0000     -10.322314      -280.8845
   4   2.0000     -10.321175      -280.8535
   5   2.0000     -10.320170      -280.8261
   6   2.0000     -10.302664      -280.3497
   7   2.0000     -10.300774      -280.2983
   8   2.0000     -10.294655      -280.1318
   9   2.0000     -10.293834      -280.1095
  10   2.0000     -10.291175      -280.0371
  11   2.0000     -10.288948      -279.9765
  12   2.0000     -10.285922      -279.8942
  13   2.0000     -10.284489      -279.8552
  14   2.0000     -10.273454      -279.5549
  15   2.0000     -10.271098      -279.4908
  16   2.0000      -8.082433      -219.9342
  17   2.0000      -8.078794      -219.8352
  18   2.0000      -6.040933      -164.3821
  19   2.0000      -6.037465      -164.2878
  20   2.0000      -6.037351      -164.2847
  21   2.0000      -6.033162      -164.1707
  22   2.0000      -6.033051      -164.1677
  23   2.0000      -6.029440      -164.0694
  24   2.0000      -1.008760       -27.4498
  25   2.0000      -0.983815       -26.7710
  26   2.0000      -0.908917       -24.7329
  27   2.0000      -0.903699       -24.5909
  28   2.0000      -0.870576       -23.6896
  29   2.0000      -0.848536       -23.0898
  30   2.0000      -0.842742       -22.9322
  31   2.0000      -0.816833       -22.2271
  32   2.0000      -0.784107       -21.3366
  33   2.0000      -0.771758       -21.0006
  34   2.0000      -0.711755       -19.3678
  35   2.0000      -0.701069       -19.0771
  36   2.0000      -0.689834       -18.7713
  37   2.0000      -0.660530       -17.9739
  38   2.0000      -0.639616       -17.4048
  39   2.0000      -0.616448       -16.7744
  40   2.0000      -0.592831       -16.1318
  41   2.0000      -0.569801       -15.5051
  42   2.0000      -0.552405       -15.0317
  43   2.0000      -0.549358       -14.9488
  44   2.0000      -0.543300       -14.7840
  45   2.0000      -0.539283       -14.6746
  46   2.0000      -0.515056       -14.0154
  47   2.0000      -0.507981       -13.8229
  48   2.0000      -0.502984       -13.6869
  49   2.0000      -0.493057       -13.4168
  50   2.0000      -0.484673       -13.1886
  51   2.0000      -0.479026       -13.0350
  52   2.0000      -0.474049       -12.8995
  53   2.0000      -0.465533       -12.6678
  54   2.0000      -0.458344       -12.4722
  55   2.0000      -0.446425       -12.1478
  56   2.0000      -0.439312       -11.9543
  57   2.0000      -0.432802       -11.7771
  58   2.0000      -0.431978       -11.7547
  59   2.0000      -0.425011       -11.5652
  60   2.0000      -0.419794       -11.4232
  61   2.0000      -0.416895       -11.3443
  62   2.0000      -0.397504       -10.8166
  63   2.0000      -0.350464        -9.5366
  64   2.0000      -0.337308        -9.1786
  65   2.0000      -0.325184        -8.8487
  66   2.0000      -0.292824        -7.9682
  67   0.0000       0.030934         0.8418
  68   0.0000       0.064717         1.7610
  69   0.0000       0.107152         2.9157
  70   0.0000       0.121269         3.2999
  71   0.0000       0.134849         3.6694

MULLIKEN ATOMIC CHARGES
-----------------------
   0 S :    0.103111
   1 C :   -0.116287
   2 C :   -0.118808
   3 C :    0.031228
   4 C :   -0.133066
   5 H :    0.005490
   6 C :    0.047619
   7 H :    0.020346
   8 H :    0.016892
   9 C :   -0.043961
  10 H :    0.032627
  11 H :    0.026817
  12 C :   -0.064979
  13 H :    0.017894
  14 H :    0.046782
  15 H :    0.033419
  16 S :    0.105820
  17 C :   -0.108238
  18 C :   -0.040354
  19 C :   -0.017823
  20 C :   -0.160379
  21 H :    0.037162
  22 C :    0.060685
  23 H :    0.004045
  24 H :    0.024341
  25 C :   -0.033004
  26 H :    0.044210
  27 H :    0.016233
  28 C :   -0.052038
  29 H :    0.023886
  30 H :    0.012909
  31 H :    0.048831
  32 H :    0.065534
  33 H :    0.063056
Sum of atomic charges:    0.0000000

LOEWDIN ATOMIC CHARGES
----------------------
   0 S :    0.408106
   1 C :   -0.210440
   2 C :   -0.063330
   3 C :   -0.067497
   4 C :   -0.200683
   5 H :    0.028433
   6 C :   -0.040704
   7 H :    0.031112
   8 H :    0.030976
   9 C :   -0.040057
  10 H :    0.022092
  11 H :    0.032125
  12 C :   -0.072862
  13 H :    0.022510
  14 H :    0.029698
  15 H :    0.026741
  16 S :    0.372515
  17 C :   -0.169785
  18 C :   -0.073952
  19 C :   -0.058058
  20 C :   -0.175816
  21 H :    0.042399
  22 C :   -0.031217
  23 H :    0.023255
  24 H :    0.033995
  25 C :   -0.025596
  26 H :    0.029897
  27 H :    0.017012
  28 C :   -0.068799
  29 H :    0.023532
  30 H :    0.019625
  31 H :    0.029142
  32 H :    0.044610
  33 H :    0.031022

  Mayer bond orders larger than 0.100000
B(  0-S ,  1-C ) :   1.1272 B(  0-S ,  4-C ) :   1.1371 B(  1-C ,  2-C ) :   1.6044
B(  1-C , 32-H ) :   0.9672 B(  2-C ,  3-C ) :   1.2326 B(  2-C ,  6-C ) :   1.0269
B(  3-C ,  4-C ) :   1.5969 B(  3-C ,  5-H ) :   0.9983 B(  4-C , 20-C ) :   1.0357
B(  6-C ,  7-H ) :   0.9425 B(  6-C ,  8-H ) :   0.9403 B(  6-C ,  9-C ) :   1.0688
B(  9-C , 10-H ) :   0.9608 B(  9-C , 11-H ) :   0.9538 B(  9-C , 12-C ) :   1.0729
B( 12-C , 13-H ) :   0.9693 B( 12-C , 14-H ) :   0.9706 B( 12-C , 15-H ) :   0.9749
B( 16-S , 17-C ) :   1.1408 B( 16-S , 20-C ) :   1.1261 B( 17-C , 18-C ) :   1.6312
B( 17-C , 20-C ) :   0.1053 B( 17-C , 33-H ) :   0.9630 B( 18-C , 19-C ) :   1.2366
B( 18-C , 21-H ) :   0.9803 B( 19-C , 20-C ) :   1.6103 B( 19-C , 22-C ) :   1.0482
B( 22-C , 23-H ) :   0.9188 B( 22-C , 24-H ) :   0.9356 B( 22-C , 25-C ) :   1.0811
B( 25-C , 26-H ) :   0.9553 B( 25-C , 27-H ) :   0.9530 B( 25-C , 28-C ) :   1.0677
B( 28-C , 29-H ) :   0.9762 B( 28-C , 30-H ) :   0.9744 B( 28-C , 31-H ) :   0.9783

Dispersion correction           -0.015435013
FINAL SINGLE POINT ENERGY     -1339.872377673876

DIPOLE MOMENT
-------------
                                X             Y             Z
Electronic contribution:    -19.13690       1.44239       1.99054
Nuclear contribution   :     19.75362      -1.64710      -2.12359
                        -----------------------------------------
Total Dipole Moment    :      0.61672      -0.20470      -0.13304
                        -----------------------------------------
Magnitude (a.u.)       :      0.66329
Magnitude (Debye)      :      1.68595

Rotational constants in cm-1:     0.020391     0.008587     0.007832
Rotational constants in MHz :   611.309155   257.421647   234.791685

                             ****ORCA TERMINATED NORMALLY****
TOTAL RUN TIME: 0 days 0 hours 0 minutes 30 seconds 709 msec
