                         Program Version 4.2.1 -  RELEASE  -
|  1> ! wB97X-D3 SP def2-SVP
|  2> %pal
|  3> nprocs 16
|  4> end
|  5>
|  6> * xyz 0 1
|  7> S 	 -31.1838 	 58.3217 	 119.819
|  8> C 	 -32.8138 	 57.7034 	 119.566
|  9> C 	 -33.5681 	 58.4656 	 118.715
| 10> C 	 -32.843 	 59.587 	 118.309
| 11> C 	 -31.5603 	 59.724 	 118.874
| 12> H 	 -33.0825 	 60.4449 	 117.633
| 13> C 	 -35.0201 	 58.1796 	 118.243
| 14> H 	 -35.5859 	 58.6662 	 119.037
| 15> H 	 -35.2385 	 57.1228 	 118.265
| 16> C 	 -35.3757 	 58.5586 	 116.865
| 17> H 	 -36.4651 	 58.4575 	 116.692
| 18> H 	 -35.1807 	 59.6231 	 116.897
| 19> C 	 -34.5776 	 57.8275 	 115.853
| 20> H 	 -35.0064 	 58.0564 	 114.937
| 21> H 	 -33.5518 	 58.2137 	 115.824
| 22> H 	 -34.521 	 56.7581 	 115.962
| 23> S 	 -30.3577 	 61.1782 	 116.991
| 24> C 	 -28.966 	 62.0939 	 117.545
| 25> C 	 -28.6128 	 61.9 	 118.836
| 26> C 	 -29.5301 	 61.161 	 119.538
| 27> C 	 -30.5402 	 60.6902 	 118.665
| 28> H 	 -27.7229 	 62.4258 	 119.166
| 29> C 	 -29.3177 	 60.7743 	 121.002
| 30> H 	 -28.393 	 61.2937 	 121.36
| 31> H 	 -29.0087 	 59.687 	 121.062
| 32> C 	 -30.4842 	 61.0964 	 121.973
| 33> H 	 -31.4196 	 60.6342 	 121.676
| 34> H 	 -30.6841 	 62.1601 	 122.052
| 35> C 	 -30.1627 	 60.5712 	 123.322
| 36> H 	 -30.2399 	 59.4614 	 123.374
| 37> H 	 -30.8074 	 60.8611 	 124.191
| 38> H 	 -29.1176 	 60.8192 	 123.54
| 39> H 	 -33.2413 	 56.8714 	 120.085
| 40> H 	 -28.4265 	 62.7112 	 116.772
| 41> *
| 42>
| 43>                          ****END OF INPUT****

CARTESIAN COORDINATES (ANGSTROEM)
---------------------------------
  S    -31.183800   58.321700  119.819000
  C    -32.813800   57.703400  119.566000
  C    -33.568100   58.465600  118.715000
  C    -32.843000   59.587000  118.309000
  C    -31.560300   59.724000  118.874000
  H    -33.082500   60.444900  117.633000
  C    -35.020100   58.179600  118.243000
  H    -35.585900   58.666200  119.037000
  H    -35.238500   57.122800  118.265000
  C    -35.375700   58.558600  116.865000
  H    -36.465100   58.457500  116.692000
  H    -35.180700   59.623100  116.897000
  C    -34.577600   57.827500  115.853000
  H    -35.006400   58.056400  114.937000
  H    -33.551800   58.213700  115.824000
  H    -34.521000   56.758100  115.962000
  S    -30.357700   61.178200  116.991000
  C    -28.966000   62.093900  117.545000
  C    -28.612800   61.900000  118.836000
  C    -29.530100   61.161000  119.538000
  C    -30.540200   60.690200  118.665000
  H    -27.722900   62.425800  119.166000
  C    -29.317700   60.774300  121.002000
  H    -28.393000   61.293700  121.360000
  H    -29.008700   59.687000  121.062000
  C    -30.484200   61.096400  121.973000
  H    -31.419600   60.634200  121.676000
  H    -30.684100   62.160100  122.052000
  C    -30.162700   60.571200  123.322000
  H    -30.239900   59.461400  123.374000
  H    -30.807400   60.861100  124.191000
  H    -29.117600   60.819200  123.540000
  H    -33.241300   56.871400  120.085000
  H    -28.426500   62.711200  116.772000

 Total Charge           Charge          ....    0
 Multiplicity           Mult            ....    1
 Number of Electrons    NEL             ....  134
 Basis Dimension        Dim             ....  322

ORBITAL ENERGIES
----------------

  NO   OCC          E(Eh)            E(eV)
   0   2.0000     -88.969667     -2420.9877
   1   2.0000     -88.964827     -2420.8560
   2   2.0000     -10.324358      -280.9401
   3   2.0000     -10.322701      -280.8950
   4   2.0000     -10.316619      -280.7295
   5   2.0000     -10.306518      -280.4546
   6   2.0000     -10.304181      -280.3910
   7   2.0000     -10.302284      -280.3394
   8   2.0000     -10.299442      -280.2621
   9   2.0000     -10.293074      -280.0888
  10   2.0000     -10.289083      -279.9802
  11   2.0000     -10.286671      -279.9146
  12   2.0000     -10.279039      -279.7069
  13   2.0000     -10.278981      -279.7053
  14   2.0000     -10.274334      -279.5788
  15   2.0000     -10.265383      -279.3353
  16   2.0000      -8.084399      -219.9877
  17   2.0000      -8.079157      -219.8450
  18   2.0000      -6.042506      -164.4250
  19   2.0000      -6.039196      -164.3349
  20   2.0000      -6.037581      -164.2909
  21   2.0000      -6.035299      -164.2288
  22   2.0000      -6.033716      -164.1858
  23   2.0000      -6.030062      -164.0863
  24   2.0000      -1.012226       -27.5441
  25   2.0000      -0.986969       -26.8568
  26   2.0000      -0.924550       -25.1583
  27   2.0000      -0.909367       -24.7451
  28   2.0000      -0.877399       -23.8752
  29   2.0000      -0.860284       -23.4095
  30   2.0000      -0.842067       -22.9138
  31   2.0000      -0.810186       -22.0463
  32   2.0000      -0.789079       -21.4719
  33   2.0000      -0.768420       -20.9098
  34   2.0000      -0.709873       -19.3166
  35   2.0000      -0.694860       -18.9081
  36   2.0000      -0.687605       -18.7107
  37   2.0000      -0.665780       -18.1168
  38   2.0000      -0.631038       -17.1714
  39   2.0000      -0.620694       -16.8899
  40   2.0000      -0.600978       -16.3535
  41   2.0000      -0.570324       -15.5193
  42   2.0000      -0.565648       -15.3921
  43   2.0000      -0.559863       -15.2347
  44   2.0000      -0.540109       -14.6971
  45   2.0000      -0.522880       -14.2283
  46   2.0000      -0.515873       -14.0376
  47   2.0000      -0.512090       -13.9347
  48   2.0000      -0.508910       -13.8481
  49   2.0000      -0.492926       -13.4132
  50   2.0000      -0.488537       -13.2938
  51   2.0000      -0.476233       -12.9589
  52   2.0000      -0.472191       -12.8490
  53   2.0000      -0.462507       -12.5855
  54   2.0000      -0.457437       -12.4475
  55   2.0000      -0.452682       -12.3181
  56   2.0000      -0.442838       -12.0502
  57   2.0000      -0.434532       -11.8242
  58   2.0000      -0.432814       -11.7775
  59   2.0000      -0.426871       -11.6158
  60   2.0000      -0.422850       -11.5063
  61   2.0000      -0.412090       -11.2135
  62   2.0000      -0.408019       -11.1028
  63   2.0000      -0.350536        -9.5386
  64   2.0000      -0.335713        -9.1352
  65   2.0000      -0.333108        -9.0643
  66   2.0000      -0.279658        -7.6099
  67   0.0000       0.019113         0.5201
  68   0.0000       0.081220         2.2101
  69   0.0000       0.099457         2.7064
  70   0.0000       0.118549         3.2259
  71   0.0000       0.136231         3.7070

MULLIKEN ATOMIC CHARGES
-----------------------
   0 S :    0.103697
   1 C :   -0.120053
   2 C :   -0.075322
   3 C :   -0.021484
   4 C :   -0.179958
   5 H :    0.022953
   6 C :    0.088366
   7 H :    0.043581
   8 H :    0.010181
   9 C :   -0.084299
  10 H :    0.034119
  11 H :    0.021933
  12 C :    0.001279
  13 H :    0.014037
  14 H :    0.035505
  15 H :    0.027919
  16 S :    0.112291
  17 C :   -0.117112
  18 C :   -0.035265
  19 C :    0.010558
  20 C :   -0.140719
  21 H :    0.020051
  22 C :   -0.004104
  23 H :    0.022069
  24 H :    0.054929
  25 C :   -0.028268
  26 H :    0.037732
  27 H :    0.030763
  28 C :   -0.068021
  29 H :    0.027292
  30 H :    0.038269
  31 H :    0.018343
  32 H :    0.031061
  33 H :    0.067679
Sum of atomic charges:    0.0000000

LOEWDIN ATOMIC CHARGES
----------------------
   0 S :    0.422753
   1 C :   -0.196018
   2 C :   -0.061663
   3 C :   -0.086375
   4 C :   -0.199710
   5 H :    0.031746
   6 C :   -0.026960
   7 H :    0.035764
   8 H :    0.023326
   9 C :   -0.048197
  10 H :    0.030574
  11 H :    0.022554
  12 C :   -0.055181
  13 H :    0.019367
  14 H :    0.032799
  15 H :    0.025365
  16 S :    0.412301
  17 C :   -0.183321
  18 C :   -0.073213
  19 C :   -0.058003
  20 C :   -0.197473
  21 H :    0.038260
  22 C :   -0.037984
  23 H :    0.033237
  24 H :    0.034518
  25 C :   -0.043743
  26 H :    0.022279
  27 H :    0.026427
  28 C :   -0.073392
  29 H :    0.025897
  30 H :    0.029736
  31 H :    0.020187
  32 H :    0.021692
  33 H :    0.032452

  Mayer bond orders larger than 0.100000
B(  0-S ,  1-C ) :   1.1363 B(  0-S ,  4-C ) :   1.1597 B(  1-C ,  2-C ) :   1.6249
B(  1-C ,  4-C ) :   0.1065 B(  1-C , 32-H ) :   0.9675 B(  2-C ,  3-C ) :   1.2451
B(  2-C ,  6-C ) :   0.9839 B(  3-C ,  4-C ) :   1.5505 B(  3-C ,  5-H ) :   0.9807
B(  4-C , 20-C ) :   1.0889 B(  6-C ,  7-H ) :   0.9363 B(  6-C ,  8-H ) :   0.9444
B(  6-C ,  9-C ) :   1.0856 B(  9-C , 10-H ) :   0.9513 B(  9-C , 11-H ) :   0.9429
B(  9-C , 12-C ) :   1.0875 B( 12-C , 13-H ) :   0.9684 B( 12-C , 14-H ) :   0.9664
B( 12-C , 15-H ) :   0.9740 B( 16-S , 17-C ) :   1.1534 B( 16-S , 20-C ) :   1.1566
B( 17-C , 18-C ) :   1.6055 B( 17-C , 20-C ) :   0.1051 B( 17-C , 33-H ) :   0.9595
B( 18-C , 19-C ) :   1.2590 B( 18-C , 21-H ) :   0.9916 B( 19-C , 20-C ) :   1.5224
B( 19-C , 22-C ) :   1.0314 B( 22-C , 23-H ) :   0.9309 B( 22-C , 24-H ) :   0.9378
B( 22-C , 25-C ) :   1.0510 B( 25-C , 26-H ) :   0.9538 B( 25-C , 27-H ) :   0.9522
B( 25-C , 28-C ) :   1.0870 B( 28-C , 29-H ) :   0.9728 B( 28-C , 30-H ) :   0.9721
B( 28-C , 31-H ) :   0.9699

Dispersion correction           -0.014716855
FINAL SINGLE POINT ENERGY     -1339.871370682804

DIPOLE MOMENT
-------------
                                X             Y             Z
Electronic contribution:     10.46867       2.64441      -7.20125
Nuclear contribution   :    -10.57724      -2.55168       7.22379
                        -----------------------------------------
Total Dipole Moment    :     -0.10857       0.09273       0.02254
                        -----------------------------------------
Magnitude (a.u.)       :      0.14454
Magnitude (Debye)      :      0.36740

Rotational constants in cm-1:     0.019948     0.009528     0.007035
Rotational constants in MHz :   598.016899   285.652433   210.902211

                             ****ORCA TERMINATED NORMALLY****
TOTAL RUN TIME: 0 days 0 hours 0 minutes 29 seconds 322 msec
