                         Program Version 4.2.1 -  RELEASE  -
|  1> ! wB97X-D3 SP def2-SVP
|  2> %pal
|  3> nprocs 16
|  4> end
|  5>
|  6> * xyz 0 1
|  7> S 	 -20.7459 	 -5.77104 	 82.6801
|  8> C 	 -20.0407 	 -6.79026 	 81.407
|  9> C 	 -18.9351 	 -7.43848 	 81.874
| 10> C 	 -18.5093 	 -7.06384 	 83.2173
| 11> C 	 -19.439 	 -6.20533 	 83.7978
| 12> H 	 -17.5816 	 -7.44388 	 83.7056
| 13> C 	 -18.207 	 -8.32691 	 80.898
| 14> H 	 -17.7882 	 -7.7641 	 80.0568
| 15> H 	 -19.016 	 -8.96277 	 80.5196
| 16> C 	 -17.0815 	 -9.31849 	 81.3873
| 17> H 	 -16.3227 	 -8.76607 	 81.9244
| 18> H 	 -17.5739 	 -10.0476 	 82.0618
| 19> C 	 -16.5134 	 -10.2123 	 80.317
| 20> H 	 -16.0782 	 -9.61476 	 79.5035
| 21> H 	 -15.7882 	 -10.8129 	 80.7338
| 22> H 	 -17.302 	 -10.7739 	 79.8128
| 23> S 	 -20.9091 	 -5.46658 	 86.0236
| 24> C 	 -20.0968 	 -4.49915 	 87.1835
| 25> C 	 -18.8149 	 -4.26913 	 86.8293
| 26> C 	 -18.3463 	 -4.93095 	 85.698
| 27> C 	 -19.3946 	 -5.5978 	 85.0695
| 28> H 	 -18.2239 	 -3.50151 	 87.2756
| 29> C 	 -16.9906 	 -4.65957 	 85.0797
| 30> H 	 -16.8534 	 -3.63028 	 85.2349
| 31> H 	 -16.9922 	 -4.68085 	 84.0002
| 32> C 	 -15.8236 	 -5.61995 	 85.5394
| 33> H 	 -16.1653 	 -6.52461 	 86.0334
| 34> H 	 -15.2169 	 -5.13407 	 86.4104
| 35> C 	 -14.8863 	 -5.86717 	 84.3926
| 36> H 	 -14.1144 	 -6.56429 	 84.7305
| 37> H 	 -14.3069 	 -4.99856 	 84.0076
| 38> H 	 -15.3366 	 -6.18474 	 83.4622
| 39> H 	 -20.3927 	 -6.90497 	 80.4411
| 40> H 	 -20.6193 	 -3.83405 	 87.8013
| 41> *
| 42>
| 43>                          ****END OF INPUT****

CARTESIAN COORDINATES (ANGSTROEM)
---------------------------------
  S    -20.745900   -5.771040   82.680100
  C    -20.040700   -6.790260   81.407000
  C    -18.935100   -7.438480   81.874000
  C    -18.509300   -7.063840   83.217300
  C    -19.439000   -6.205330   83.797800
  H    -17.581600   -7.443880   83.705600
  C    -18.207000   -8.326910   80.898000
  H    -17.788200   -7.764100   80.056800
  H    -19.016000   -8.962770   80.519600
  C    -17.081500   -9.318490   81.387300
  H    -16.322700   -8.766070   81.924400
  H    -17.573900  -10.047600   82.061800
  C    -16.513400  -10.212300   80.317000
  H    -16.078200   -9.614760   79.503500
  H    -15.788200  -10.812900   80.733800
  H    -17.302000  -10.773900   79.812800
  S    -20.909100   -5.466580   86.023600
  C    -20.096800   -4.499150   87.183500
  C    -18.814900   -4.269130   86.829300
  C    -18.346300   -4.930950   85.698000
  C    -19.394600   -5.597800   85.069500
  H    -18.223900   -3.501510   87.275600
  C    -16.990600   -4.659570   85.079700
  H    -16.853400   -3.630280   85.234900
  H    -16.992200   -4.680850   84.000200
  C    -15.823600   -5.619950   85.539400
  H    -16.165300   -6.524610   86.033400
  H    -15.216900   -5.134070   86.410400
  C    -14.886300   -5.867170   84.392600
  H    -14.114400   -6.564290   84.730500
  H    -14.306900   -4.998560   84.007600
  H    -15.336600   -6.184740   83.462200
  H    -20.392700   -6.904970   80.441100
  H    -20.619300   -3.834050   87.801300

 Total Charge           Charge          ....    0
 Multiplicity           Mult            ....    1
 Number of Electrons    NEL             ....  134
 Basis Dimension        Dim             ....  322

ORBITAL ENERGIES
----------------

  NO   OCC          E(Eh)            E(eV)
   0   2.0000     -88.965498     -2420.8743
   1   2.0000     -88.963714     -2420.8257
   2   2.0000     -10.329600      -281.0827
   3   2.0000     -10.323875      -280.9269
   4   2.0000     -10.306396      -280.4513
   5   2.0000     -10.304806      -280.4080
   6   2.0000     -10.302817      -280.3539
   7   2.0000     -10.300935      -280.3027
   8   2.0000     -10.298345      -280.2322
   9   2.0000     -10.297759      -280.2163
  10   2.0000     -10.292267      -280.0668
  11   2.0000     -10.289034      -279.9789
  12   2.0000     -10.288121      -279.9540
  13   2.0000     -10.284051      -279.8433
  14   2.0000     -10.280565      -279.7484
  15   2.0000     -10.273606      -279.5590
  16   2.0000      -8.079415      -219.8521
  17   2.0000      -8.078663      -219.8316
  18   2.0000      -6.038070      -164.3042
  19   2.0000      -6.037150      -164.2792
  20   2.0000      -6.034093      -164.1960
  21   2.0000      -6.033166      -164.1708
  22   2.0000      -6.030009      -164.0849
  23   2.0000      -6.029407      -164.0685
  24   2.0000      -1.008232       -27.4354
  25   2.0000      -0.982348       -26.7310
  26   2.0000      -0.910527       -24.7767
  27   2.0000      -0.908934       -24.7334
  28   2.0000      -0.877206       -23.8700
  29   2.0000      -0.858508       -23.3612
  30   2.0000      -0.844557       -22.9816
  31   2.0000      -0.817581       -22.2475
  32   2.0000      -0.785257       -21.3679
  33   2.0000      -0.770100       -20.9555
  34   2.0000      -0.716547       -19.4982
  35   2.0000      -0.704326       -19.1657
  36   2.0000      -0.690878       -18.7997
  37   2.0000      -0.661257       -17.9937
  38   2.0000      -0.639899       -17.4125
  39   2.0000      -0.617816       -16.8116
  40   2.0000      -0.603912       -16.4333
  41   2.0000      -0.573057       -15.5937
  42   2.0000      -0.563738       -15.3401
  43   2.0000      -0.555877       -15.1262
  44   2.0000      -0.530275       -14.4295
  45   2.0000      -0.528106       -14.3705
  46   2.0000      -0.523483       -14.2447
  47   2.0000      -0.508846       -13.8464
  48   2.0000      -0.507362       -13.8060
  49   2.0000      -0.505488       -13.7550
  50   2.0000      -0.494199       -13.4478
  51   2.0000      -0.485791       -13.2191
  52   2.0000      -0.477595       -12.9960
  53   2.0000      -0.466968       -12.7068
  54   2.0000      -0.455739       -12.4013
  55   2.0000      -0.451851       -12.2955
  56   2.0000      -0.445671       -12.1273
  57   2.0000      -0.442845       -12.0504
  58   2.0000      -0.427110       -11.6223
  59   2.0000      -0.425188       -11.5699
  60   2.0000      -0.420186       -11.4338
  61   2.0000      -0.414557       -11.2807
  62   2.0000      -0.405601       -11.0370
  63   2.0000      -0.348553        -9.4846
  64   2.0000      -0.334667        -9.1067
  65   2.0000      -0.329133        -8.9562
  66   2.0000      -0.286171        -7.7871
  67   0.0000       0.021684         0.5900
  68   0.0000       0.071024         1.9327
  69   0.0000       0.113450         3.0871
  70   0.0000       0.121416         3.3039
  71   0.0000       0.131893         3.5890

MULLIKEN ATOMIC CHARGES
-----------------------
   0 S :    0.103199
   1 C :   -0.097868
   2 C :   -0.062707
   3 C :    0.004105
   4 C :   -0.124275
   5 H :    0.035577
   6 C :    0.004020
   7 H :    0.043726
   8 H :    0.032042
   9 C :   -0.103030
  10 H :    0.033286
  11 H :    0.032817
  12 C :   -0.002388
  13 H :    0.019101
  14 H :    0.025966
  15 H :    0.026577
  16 S :    0.099722
  17 C :   -0.048611
  18 C :   -0.039278
  19 C :   -0.019623
  20 C :   -0.176830
  21 H :    0.004257
  22 C :    0.077809
  23 H :    0.013274
  24 H :    0.024412
  25 C :   -0.074312
  26 H :    0.042894
  27 H :    0.040103
  28 C :   -0.071193
  29 H :    0.035646
  30 H :    0.031762
  31 H :    0.028072
  32 H :    0.016486
  33 H :    0.045261
Sum of atomic charges:   -0.0000000

LOEWDIN ATOMIC CHARGES
----------------------
   0 S :    0.384872
   1 C :   -0.179782
   2 C :   -0.060357
   3 C :   -0.066540
   4 C :   -0.179477
   5 H :    0.041290
   6 C :   -0.040501
   7 H :    0.031277
   8 H :    0.035028
   9 C :   -0.043322
  10 H :    0.017675
  11 H :    0.028334
  12 C :   -0.055460
  13 H :    0.023428
  14 H :    0.018509
  15 H :    0.027372
  16 S :    0.398635
  17 C :   -0.192688
  18 C :   -0.066518
  19 C :   -0.052949
  20 C :   -0.183770
  21 H :    0.027252
  22 C :   -0.025502
  23 H :    0.027464
  24 H :    0.030461
  25 C :   -0.044161
  26 H :    0.024895
  27 H :    0.036346
  28 C :   -0.076991
  29 H :    0.028941
  30 H :    0.031124
  31 H :    0.018912
  32 H :    0.015212
  33 H :    0.020991

  Mayer bond orders larger than 0.100000
B(  0-S ,  1-C ) :   1.1082 B(  0-S ,  4-C ) :   1.1406 B(  1-C ,  2-C ) :   1.6401
B(  1-C , 32-H ) :   0.9839 B(  2-C ,  3-C ) :   1.2207 B(  2-C ,  6-C ) :   1.0029
B(  3-C ,  4-C ) :   1.5536 B(  3-C ,  5-H ) :   0.9897 B(  4-C , 20-C ) :   1.0949
B(  6-C ,  7-H ) :   0.9468 B(  6-C ,  8-H ) :   0.9436 B(  6-C ,  9-C ) :   1.0708
B(  9-C , 10-H ) :   0.9516 B(  9-C , 11-H ) :   0.9570 B(  9-C , 12-C ) :   1.0946
B( 12-C , 13-H ) :   0.9718 B( 12-C , 14-H ) :   0.9715 B( 12-C , 15-H ) :   0.9727
B( 16-S , 17-C ) :   1.1452 B( 16-S , 20-C ) :   1.1405 B( 17-C , 18-C ) :   1.6105
B( 17-C , 33-H ) :   0.9640 B( 18-C , 19-C ) :   1.2709 B( 18-C , 21-H ) :   0.9864
B( 19-C , 20-C ) :   1.5522 B( 19-C , 22-C ) :   1.0405 B( 22-C , 23-H ) :   0.9293
B( 22-C , 24-H ) :   0.9499 B( 22-C , 25-C ) :   1.0172 B( 25-C , 26-H ) :   0.9678
B( 25-C , 27-H ) :   0.9497 B( 25-C , 28-C ) :   1.0838 B( 28-C , 29-H ) :   0.9719
B( 28-C , 30-H ) :   0.9693 B( 28-C , 31-H ) :   0.9735

Dispersion correction           -0.014410891
FINAL SINGLE POINT ENERGY     -1339.866161565822

DIPOLE MOMENT
-------------
                                X             Y             Z
Electronic contribution:    -28.46295      12.01782      10.99512
Nuclear contribution   :     29.17189     -11.96937     -11.29877
                        -----------------------------------------
Total Dipole Moment    :      0.70895       0.04846      -0.30365
                        -----------------------------------------
Magnitude (a.u.)       :      0.77276
Magnitude (Debye)      :      1.96420

Rotational constants in cm-1:     0.018666     0.009024     0.006606
Rotational constants in MHz :   559.592096   270.536652   198.047483

                             ****ORCA TERMINATED NORMALLY****
TOTAL RUN TIME: 0 days 0 hours 0 minutes 32 seconds 769 msec
