                         Program Version 4.2.1 -  RELEASE  -
|  1> ! wB97X-D3 SP def2-SVP
|  2> %pal
|  3> nprocs 16
|  4> end
|  5>
|  6> * xyz 0 1
|  7> S 	 -17.7649 	 47.1895 	 44.8293
|  8> C 	 -18.7999 	 46.4083 	 43.642
|  9> C 	 -18.0383 	 46.0092 	 42.5575
| 10> C 	 -16.601 	 46.1422 	 42.761
| 11> C 	 -16.3104 	 46.7369 	 43.9457
| 12> H 	 -15.8081 	 45.7281 	 42.0776
| 13> C 	 -18.6713 	 45.4462 	 41.2697
| 14> H 	 -19.1149 	 46.2307 	 40.7351
| 15> H 	 -19.5008 	 44.7855 	 41.6161
| 16> C 	 -17.8129 	 44.5345 	 40.3568
| 17> H 	 -16.8397 	 45.0442 	 40.137
| 18> H 	 -17.5084 	 43.6352 	 40.8565
| 19> C 	 -18.5909 	 43.9731 	 39.1665
| 20> H 	 -19.2099 	 43.0584 	 39.4728
| 21> H 	 -19.3194 	 44.6992 	 38.7042
| 22> H 	 -17.9109 	 43.6995 	 38.3628
| 23> S 	 -14.5694 	 46.1689 	 45.9998
| 24> C 	 -12.9739 	 46.6641 	 46.0215
| 25> C 	 -12.6754 	 47.1532 	 44.7683
| 26> C 	 -13.7941 	 47.3342 	 43.8751
| 27> C 	 -14.9764 	 46.9091 	 44.4316
| 28> H 	 -11.654 	 47.5434 	 44.6096
| 29> C 	 -13.8458 	 48.1855 	 42.6261
| 30> H 	 -13.236 	 49.0049 	 42.7957
| 31> H 	 -14.8214 	 48.681 	 42.4863
| 32> C 	 -13.3874 	 47.4522 	 41.318
| 33> H 	 -14.2446 	 46.8926 	 41.0653
| 34> H 	 -12.6609 	 46.7065 	 41.5298
| 35> C 	 -12.7507 	 48.3294 	 40.2226
| 36> H 	 -11.7442 	 48.6925 	 40.5577
| 37> H 	 -13.3423 	 49.1493 	 39.9069
| 38> H 	 -12.6428 	 47.753 	 39.28
| 39> H 	 -19.8951 	 46.3601 	 43.6433
| 40> H 	 -12.2909 	 46.6067 	 46.7824
| 41> *
| 42>
| 43>                          ****END OF INPUT****

CARTESIAN COORDINATES (ANGSTROEM)
---------------------------------
  S    -17.764900   47.189500   44.829300
  C    -18.799900   46.408300   43.642000
  C    -18.038300   46.009200   42.557500
  C    -16.601000   46.142200   42.761000
  C    -16.310400   46.736900   43.945700
  H    -15.808100   45.728100   42.077600
  C    -18.671300   45.446200   41.269700
  H    -19.114900   46.230700   40.735100
  H    -19.500800   44.785500   41.616100
  C    -17.812900   44.534500   40.356800
  H    -16.839700   45.044200   40.137000
  H    -17.508400   43.635200   40.856500
  C    -18.590900   43.973100   39.166500
  H    -19.209900   43.058400   39.472800
  H    -19.319400   44.699200   38.704200
  H    -17.910900   43.699500   38.362800
  S    -14.569400   46.168900   45.999800
  C    -12.973900   46.664100   46.021500
  C    -12.675400   47.153200   44.768300
  C    -13.794100   47.334200   43.875100
  C    -14.976400   46.909100   44.431600
  H    -11.654000   47.543400   44.609600
  C    -13.845800   48.185500   42.626100
  H    -13.236000   49.004900   42.795700
  H    -14.821400   48.681000   42.486300
  C    -13.387400   47.452200   41.318000
  H    -14.244600   46.892600   41.065300
  H    -12.660900   46.706500   41.529800
  C    -12.750700   48.329400   40.222600
  H    -11.744200   48.692500   40.557700
  H    -13.342300   49.149300   39.906900
  H    -12.642800   47.753000   39.280000
  H    -19.895100   46.360100   43.643300
  H    -12.290900   46.606700   46.782400

 Total Charge           Charge          ....    0
 Multiplicity           Mult            ....    1
 Number of Electrons    NEL             ....  134
 Basis Dimension        Dim             ....  322

ORBITAL ENERGIES
----------------

  NO   OCC          E(Eh)            E(eV)
   0   2.0000     -88.968086     -2420.9447
   1   2.0000     -88.956002     -2420.6159
   2   2.0000     -10.327862      -281.0354
   3   2.0000     -10.321989      -280.8756
   4   2.0000     -10.318005      -280.7672
   5   2.0000     -10.307520      -280.4819
   6   2.0000     -10.306208      -280.4462
   7   2.0000     -10.302917      -280.3566
   8   2.0000     -10.300344      -280.2866
   9   2.0000     -10.293764      -280.1076
  10   2.0000     -10.293361      -280.0966
  11   2.0000     -10.291329      -280.0413
  12   2.0000     -10.290174      -280.0099
  13   2.0000     -10.285116      -279.8722
  14   2.0000     -10.282158      -279.7917
  15   2.0000     -10.280971      -279.7594
  16   2.0000      -8.082345      -219.9318
  17   2.0000      -8.072271      -219.6577
  18   2.0000      -6.041036      -164.3850
  19   2.0000      -6.036910      -164.2727
  20   2.0000      -6.032929      -164.1643
  21   2.0000      -6.030593      -164.1008
  22   2.0000      -6.026439      -163.9877
  23   2.0000      -6.023208      -163.8998
  24   2.0000      -1.010723       -27.5032
  25   2.0000      -0.986806       -26.8524
  26   2.0000      -0.910124       -24.7657
  27   2.0000      -0.906814       -24.6757
  28   2.0000      -0.876174       -23.8419
  29   2.0000      -0.849902       -23.1270
  30   2.0000      -0.843107       -22.9421
  31   2.0000      -0.816127       -22.2079
  32   2.0000      -0.782147       -21.2833
  33   2.0000      -0.771762       -21.0007
  34   2.0000      -0.714337       -19.4381
  35   2.0000      -0.706698       -19.2302
  36   2.0000      -0.693174       -18.8622
  37   2.0000      -0.660166       -17.9640
  38   2.0000      -0.640276       -17.4228
  39   2.0000      -0.618282       -16.8243
  40   2.0000      -0.597627       -16.2623
  41   2.0000      -0.568936       -15.4815
  42   2.0000      -0.565815       -15.3966
  43   2.0000      -0.560915       -15.2633
  44   2.0000      -0.526882       -14.3372
  45   2.0000      -0.524408       -14.2699
  46   2.0000      -0.519983       -14.1495
  47   2.0000      -0.508970       -13.8498
  48   2.0000      -0.507623       -13.8131
  49   2.0000      -0.501043       -13.6341
  50   2.0000      -0.497828       -13.5466
  51   2.0000      -0.481424       -13.1002
  52   2.0000      -0.474788       -12.9196
  53   2.0000      -0.469693       -12.7810
  54   2.0000      -0.463153       -12.6030
  55   2.0000      -0.453545       -12.3416
  56   2.0000      -0.442674       -12.0458
  57   2.0000      -0.433537       -11.7971
  58   2.0000      -0.430984       -11.7277
  59   2.0000      -0.422651       -11.5009
  60   2.0000      -0.421236       -11.4624
  61   2.0000      -0.413270       -11.2456
  62   2.0000      -0.404805       -11.0153
  63   2.0000      -0.348785        -9.4909
  64   2.0000      -0.330924        -9.0049
  65   2.0000      -0.322111        -8.7651
  66   2.0000      -0.298259        -8.1161
  67   0.0000       0.027785         0.7561
  68   0.0000       0.076895         2.0924
  69   0.0000       0.115636         3.1466
  70   0.0000       0.122005         3.3199
  71   0.0000       0.133680         3.6376

MULLIKEN ATOMIC CHARGES
-----------------------
   0 S :    0.119562
   1 C :   -0.126074
   2 C :   -0.092076
   3 C :    0.000529
   4 C :   -0.136175
   5 H :    0.048075
   6 C :    0.058906
   7 H :    0.033573
   8 H :    0.030040
   9 C :   -0.096528
  10 H :    0.037721
  11 H :    0.030697
  12 C :   -0.075264
  13 H :    0.049331
  14 H :    0.034496
  15 H :    0.038854
  16 S :    0.097510
  17 C :   -0.041538
  18 C :   -0.061457
  19 C :   -0.021141
  20 C :   -0.165206
  21 H :    0.022496
  22 C :    0.066174
  23 H :   -0.002168
  24 H :    0.039545
  25 C :   -0.047352
  26 H :    0.001833
  27 H :    0.022528
  28 C :   -0.048544
  29 H :    0.042434
  30 H :    0.024268
  31 H :    0.034113
  32 H :    0.055561
  33 H :    0.025278
Sum of atomic charges:   -0.0000000

LOEWDIN ATOMIC CHARGES
----------------------
   0 S :    0.400360
   1 C :   -0.197990
   2 C :   -0.059859
   3 C :   -0.062836
   4 C :   -0.196762
   5 H :    0.042336
   6 C :   -0.031778
   7 H :    0.024121
   8 H :    0.036886
   9 C :   -0.050820
  10 H :    0.023033
  11 H :    0.025738
  12 C :   -0.071971
  13 H :    0.035405
  14 H :    0.026432
  15 H :    0.028314
  16 S :    0.419049
  17 C :   -0.191325
  18 C :   -0.081190
  19 C :   -0.056653
  20 C :   -0.187730
  21 H :    0.031177
  22 C :   -0.024464
  23 H :    0.017884
  24 H :    0.037234
  25 C :   -0.037092
  26 H :    0.012347
  27 H :    0.021831
  28 C :   -0.065126
  29 H :    0.031733
  30 H :    0.017196
  31 H :    0.031770
  32 H :    0.035436
  33 H :    0.017318

  Mayer bond orders larger than 0.100000
B(  0-S ,  1-C ) :   1.1201 B(  0-S ,  4-C ) :   1.1393 B(  1-C ,  2-C ) :   1.6410
B(  1-C , 32-H ) :   0.9698 B(  2-C ,  3-C ) :   1.2255 B(  2-C ,  6-C ) :   1.0006
B(  3-C ,  4-C ) :   1.5874 B(  3-C ,  5-H ) :   0.9746 B(  4-C , 20-C ) :   1.0481
B(  6-C ,  7-H ) :   0.9387 B(  6-C ,  8-H ) :   0.9477 B(  6-C ,  9-C ) :   1.0731
B(  9-C , 10-H ) :   0.9514 B(  9-C , 11-H ) :   0.9584 B(  9-C , 12-C ) :   1.0719
B( 12-C , 13-H ) :   0.9760 B( 12-C , 14-H ) :   0.9771 B( 12-C , 15-H ) :   0.9726
B( 16-S , 17-C ) :   1.1754 B( 16-S , 20-C ) :   1.1363 B( 17-C , 18-C ) :   1.5889
B( 17-C , 20-C ) :   0.1002 B( 17-C , 33-H ) :   0.9825 B( 18-C , 19-C ) :   1.2394
B( 18-C , 21-H ) :   0.9850 B( 19-C , 20-C ) :   1.5871 B( 19-C , 22-C ) :   1.0378
B( 22-C , 23-H ) :   0.9407 B( 22-C , 24-H ) :   0.9444 B( 22-C , 25-C ) :   1.0329
B( 25-C , 26-H ) :   0.9507 B( 25-C , 27-H ) :   0.9631 B( 25-C , 28-C ) :   1.0824
B( 28-C , 29-H ) :   0.9750 B( 28-C , 30-H ) :   0.9764 B( 28-C , 31-H ) :   0.9722

Dispersion correction           -0.014013694
FINAL SINGLE POINT ENERGY     -1339.867901966687

DIPOLE MOMENT
-------------
                                X             Y             Z
Electronic contribution:     -2.22780       3.35479      31.36137
Nuclear contribution   :      2.32351      -3.38265     -32.05230
                        -----------------------------------------
Total Dipole Moment    :      0.09572      -0.02786      -0.69094
                        -----------------------------------------
Magnitude (a.u.)       :      0.69809
Magnitude (Debye)      :      1.77441

Rotational constants in cm-1:     0.016029     0.009239     0.006674
Rotational constants in MHz :   480.537899   276.980520   200.068575

                             ****ORCA TERMINATED NORMALLY****
TOTAL RUN TIME: 0 days 0 hours 0 minutes 33 seconds 780 msec
