                         Program Version 4.2.1 -  RELEASE  -
|  1> ! wB97X-D3 SP def2-SVP
|  2> %pal
|  3> nprocs 16
|  4> end
|  5>
|  6> * xyz 0 1
|  7> S 	 18.9761 	 4.67273 	 73.8807
|  8> C 	 18.8696 	 4.92646 	 72.1357
|  9> C 	 19.3664 	 6.17433 	 71.7997
| 10> C 	 19.734 	 6.90592 	 72.9803
| 11> C 	 19.4439 	 6.28597 	 74.1815
| 12> H 	 20.1625 	 7.88653 	 72.968
| 13> C 	 19.4927 	 6.74835 	 70.3585
| 14> H 	 19.2621 	 7.81546 	 70.357
| 15> H 	 18.7085 	 6.40805 	 69.7408
| 16> C 	 20.8861 	 6.55891 	 69.7996
| 17> H 	 20.7302 	 6.77356 	 68.7109
| 18> H 	 21.6331 	 7.28046 	 70.1612
| 19> C 	 21.4898 	 5.12778 	 70.0114
| 20> H 	 22.4418 	 5.09665 	 69.4306
| 21> H 	 21.7552 	 4.98388 	 71.022
| 22> H 	 20.8239 	 4.26912 	 69.7451
| 23> S 	 17.9023 	 6.68712 	 76.3638
| 24> C 	 18.2922 	 7.93628 	 77.5345
| 25> C 	 19.4562 	 8.64492 	 77.2233
| 26> C 	 20.0418 	 8.1333 	 75.9677
| 27> C 	 19.3968 	 7.04644 	 75.4058
| 28> H 	 19.8555 	 9.45825 	 77.8659
| 29> C 	 21.3865 	 8.64405 	 75.4335
| 30> H 	 21.7894 	 8.00947 	 74.6946
| 31> H 	 22.1524 	 8.67151 	 76.2264
| 32> C 	 21.1238 	 10.0424 	 74.8249
| 33> H 	 20.3151 	 9.97626 	 74.0673
| 34> H 	 21.9932 	 10.3131 	 74.2363
| 35> C 	 20.8098 	 11.1559 	 75.7094
| 36> H 	 19.7263 	 11.1516 	 75.9622
| 37> H 	 21.003 	 12.1531 	 75.3121
| 38> H 	 21.548 	 10.9817 	 76.5745
| 39> H 	 18.5398 	 4.263 	 71.4198
| 40> H 	 17.5538 	 8.23368 	 78.209
| 41> *
| 42>
| 43>                          ****END OF INPUT****

CARTESIAN COORDINATES (ANGSTROEM)
---------------------------------
  S     18.976100    4.672730   73.880700
  C     18.869600    4.926460   72.135700
  C     19.366400    6.174330   71.799700
  C     19.734000    6.905920   72.980300
  C     19.443900    6.285970   74.181500
  H     20.162500    7.886530   72.968000
  C     19.492700    6.748350   70.358500
  H     19.262100    7.815460   70.357000
  H     18.708500    6.408050   69.740800
  C     20.886100    6.558910   69.799600
  H     20.730200    6.773560   68.710900
  H     21.633100    7.280460   70.161200
  C     21.489800    5.127780   70.011400
  H     22.441800    5.096650   69.430600
  H     21.755200    4.983880   71.022000
  H     20.823900    4.269120   69.745100
  S     17.902300    6.687120   76.363800
  C     18.292200    7.936280   77.534500
  C     19.456200    8.644920   77.223300
  C     20.041800    8.133300   75.967700
  C     19.396800    7.046440   75.405800
  H     19.855500    9.458250   77.865900
  C     21.386500    8.644050   75.433500
  H     21.789400    8.009470   74.694600
  H     22.152400    8.671510   76.226400
  C     21.123800   10.042400   74.824900
  H     20.315100    9.976260   74.067300
  H     21.993200   10.313100   74.236300
  C     20.809800   11.155900   75.709400
  H     19.726300   11.151600   75.962200
  H     21.003000   12.153100   75.312100
  H     21.548000   10.981700   76.574500
  H     18.539800    4.263000   71.419800
  H     17.553800    8.233680   78.209000

 Total Charge           Charge          ....    0
 Multiplicity           Mult            ....    1
 Number of Electrons    NEL             ....  134
 Basis Dimension        Dim             ....  322

ORBITAL ENERGIES
----------------

  NO   OCC          E(Eh)            E(eV)
   0   2.0000     -88.969573     -2420.9852
   1   2.0000     -88.959388     -2420.7080
   2   2.0000     -10.332558      -281.1632
   3   2.0000     -10.328203      -281.0447
   4   2.0000     -10.317338      -280.7490
   5   2.0000     -10.310577      -280.5651
   6   2.0000     -10.310456      -280.5618
   7   2.0000     -10.305725      -280.4330
   8   2.0000     -10.303220      -280.3649
   9   2.0000     -10.293164      -280.0912
  10   2.0000     -10.293150      -280.0909
  11   2.0000     -10.292527      -280.0739
  12   2.0000     -10.289594      -279.9941
  13   2.0000     -10.282774      -279.8085
  14   2.0000     -10.281996      -279.7873
  15   2.0000     -10.278631      -279.6958
  16   2.0000      -8.084395      -219.9876
  17   2.0000      -8.073777      -219.6986
  18   2.0000      -6.042983      -164.4379
  19   2.0000      -6.038897      -164.3267
  20   2.0000      -6.035034      -164.2216
  21   2.0000      -6.032314      -164.1476
  22   2.0000      -6.028378      -164.0405
  23   2.0000      -6.024468      -163.9341
  24   2.0000      -1.007612       -27.4185
  25   2.0000      -0.977584       -26.6014
  26   2.0000      -0.916232       -24.9319
  27   2.0000      -0.911086       -24.7919
  28   2.0000      -0.870405       -23.6849
  29   2.0000      -0.849392       -23.1131
  30   2.0000      -0.839085       -22.8327
  31   2.0000      -0.811349       -22.0779
  32   2.0000      -0.788727       -21.4624
  33   2.0000      -0.779767       -21.2186
  34   2.0000      -0.707118       -19.2417
  35   2.0000      -0.696402       -18.9501
  36   2.0000      -0.686479       -18.6800
  37   2.0000      -0.666025       -18.1235
  38   2.0000      -0.641672       -17.4608
  39   2.0000      -0.619798       -16.8656
  40   2.0000      -0.600400       -16.3377
  41   2.0000      -0.570735       -15.5305
  42   2.0000      -0.563842       -15.3429
  43   2.0000      -0.549508       -14.9529
  44   2.0000      -0.545455       -14.8426
  45   2.0000      -0.539817       -14.6892
  46   2.0000      -0.519352       -14.1323
  47   2.0000      -0.512474       -13.9451
  48   2.0000      -0.506445       -13.7811
  49   2.0000      -0.501143       -13.6368
  50   2.0000      -0.490603       -13.3500
  51   2.0000      -0.482621       -13.1328
  52   2.0000      -0.471964       -12.8428
  53   2.0000      -0.462241       -12.5782
  54   2.0000      -0.455884       -12.4052
  55   2.0000      -0.450974       -12.2716
  56   2.0000      -0.443522       -12.0688
  57   2.0000      -0.440683       -11.9916
  58   2.0000      -0.429610       -11.6903
  59   2.0000      -0.418742       -11.3946
  60   2.0000      -0.417532       -11.3616
  61   2.0000      -0.411223       -11.1900
  62   2.0000      -0.402092       -10.9415
  63   2.0000      -0.355254        -9.6670
  64   2.0000      -0.331160        -9.0113
  65   2.0000      -0.327217        -8.9040
  66   2.0000      -0.285836        -7.7780
  67   0.0000       0.024980         0.6798
  68   0.0000       0.070736         1.9248
  69   0.0000       0.112485         3.0609
  70   0.0000       0.119219         3.2441
  71   0.0000       0.130214         3.5433

MULLIKEN ATOMIC CHARGES
-----------------------
   0 S :    0.121731
   1 C :   -0.099800
   2 C :   -0.100810
   3 C :    0.014338
   4 C :   -0.111665
   5 H :   -0.013366
   6 C :    0.104158
   7 H :    0.022308
   8 H :    0.014367
   9 C :   -0.097463
  10 H :    0.036616
  11 H :    0.039430
  12 C :   -0.057731
  13 H :    0.038515
  14 H :    0.038375
  15 H :    0.035123
  16 S :    0.067966
  17 C :   -0.072776
  18 C :   -0.031996
  19 C :   -0.079690
  20 C :   -0.118901
  21 H :    0.046019
  22 C :    0.079007
  23 H :    0.014046
  24 H :    0.036386
  25 C :   -0.099820
  26 H :    0.030060
  27 H :    0.020408
  28 C :   -0.055088
  29 H :    0.049381
  30 H :    0.036001
  31 H :    0.030993
  32 H :    0.015217
  33 H :    0.048662
Sum of atomic charges:    0.0000000

LOEWDIN ATOMIC CHARGES
----------------------
   0 S :    0.418393
   1 C :   -0.183573
   2 C :   -0.053254
   3 C :   -0.062752
   4 C :   -0.214531
   5 H :    0.022134
   6 C :   -0.030511
   7 H :    0.034134
   8 H :    0.024987
   9 C :   -0.043611
  10 H :    0.029476
  11 H :    0.027011
  12 C :   -0.068817
  13 H :    0.031001
  14 H :    0.019834
  15 H :    0.027168
  16 S :    0.370033
  17 C :   -0.169757
  18 C :   -0.071968
  19 C :   -0.054061
  20 C :   -0.165400
  21 H :    0.042045
  22 C :   -0.023183
  23 H :    0.023659
  24 H :    0.032075
  25 C :   -0.052086
  26 H :    0.023437
  27 H :    0.020818
  28 C :   -0.072524
  29 H :    0.030983
  30 H :    0.027450
  31 H :    0.032258
  32 H :    0.012664
  33 H :    0.016470

  Mayer bond orders larger than 0.100000
B(  0-S ,  1-C ) :   1.1288 B(  0-S ,  4-C ) :   1.1505 B(  1-C ,  2-C ) :   1.5980
B(  1-C , 32-H ) :   0.9782 B(  2-C ,  3-C ) :   1.2635 B(  2-C ,  6-C ) :   1.0191
B(  3-C ,  4-C ) :   1.5343 B(  3-C ,  5-H ) :   0.9957 B(  4-C , 20-C ) :   1.0623
B(  6-C ,  7-H ) :   0.9390 B(  6-C ,  8-H ) :   0.9414 B(  6-C ,  9-C ) :   1.0682
B(  9-C , 10-H ) :   0.9575 B(  9-C , 11-H ) :   0.9563 B(  9-C , 12-C ) :   1.0769
B( 12-C , 13-H ) :   0.9736 B( 12-C , 14-H ) :   0.9695 B( 12-C , 15-H ) :   0.9768
B( 16-S , 17-C ) :   1.1579 B( 16-S , 20-C ) :   1.1053 B( 17-C , 18-C ) :   1.6140
B( 17-C , 33-H ) :   0.9714 B( 18-C , 19-C ) :   1.2062 B( 18-C , 21-H ) :   0.9815
B( 19-C , 20-C ) :   1.6450 B( 19-C , 22-C ) :   1.0284 B( 22-C , 23-H ) :   0.9372
B( 22-C , 24-H ) :   0.9443 B( 22-C , 25-C ) :   1.0663 B( 25-C , 26-H ) :   0.9438
B( 25-C , 27-H ) :   0.9526 B( 25-C , 28-C ) :   1.0981 B( 28-C , 29-H ) :   0.9653
B( 28-C , 30-H ) :   0.9675 B( 28-C , 31-H ) :   0.9683

Dispersion correction           -0.015094022
FINAL SINGLE POINT ENERGY     -1339.863313794006

DIPOLE MOMENT
-------------
                                X             Y             Z
Electronic contribution:    -15.37119     -15.45566      15.63473
Nuclear contribution   :     15.68490      16.08326     -16.08904
                        -----------------------------------------
Total Dipole Moment    :      0.31371       0.62760      -0.45431
                        -----------------------------------------
Magnitude (a.u.)       :      0.83588
Magnitude (Debye)      :      2.12464

Rotational constants in cm-1:     0.020212     0.009063     0.006766
Rotational constants in MHz :   605.945175   271.687574   202.844955

                             ****ORCA TERMINATED NORMALLY****
TOTAL RUN TIME: 0 days 0 hours 0 minutes 36 seconds 449 msec
