                         Program Version 4.2.1 -  RELEASE  -
|  1> ! wB97X-D3 SP def2-SVP
|  2> %pal
|  3> nprocs 16
|  4> end
|  5>
|  6> * xyz 0 1
|  7> S 	 -12.9851 	 32.6448 	 36.1405
|  8> C 	 -12.5558 	 33.9252 	 35.0304
|  9> C 	 -13.5667 	 34.4021 	 34.2618
| 10> C 	 -14.725 	 33.5876 	 34.4346
| 11> C 	 -14.4934 	 32.5513 	 35.3319
| 12> H 	 -15.6847 	 33.6171 	 33.8466
| 13> C 	 -13.4122 	 35.6849 	 33.4467
| 14> H 	 -14.14 	 35.7462 	 32.6305
| 15> H 	 -12.4647 	 35.6263 	 32.9693
| 16> C 	 -13.4138 	 36.9273 	 34.3016
| 17> H 	 -14.1811 	 36.8887 	 35.104
| 18> H 	 -12.4291 	 36.919 	 34.8622
| 19> C 	 -13.6537 	 38.1963 	 33.5144
| 20> H 	 -13.6937 	 39.0009 	 34.2281
| 21> H 	 -12.9051 	 38.3638 	 32.6775
| 22> H 	 -14.636 	 38.0962 	 33.0197
| 23> S 	 -15.7813 	 31.2647 	 37.497
| 24> C 	 -16.8229 	 29.9535 	 37.1609
| 25> C 	 -17.1751 	 29.8696 	 35.8376
| 26> C 	 -16.3454 	 30.6697 	 35.0304
| 27> C 	 -15.4943 	 31.543 	 35.7383
| 28> H 	 -17.9459 	 29.1338 	 35.6028
| 29> C 	 -16.3343 	 30.3445 	 33.5373
| 30> H 	 -15.88 	 29.344 	 33.5154
| 31> H 	 -15.6549 	 30.9865 	 32.8647
| 32> C 	 -17.7131 	 30.4333 	 32.882
| 33> H 	 -18.4307 	 29.9235 	 33.5288
| 34> H 	 -17.7578 	 29.9633 	 31.9344
| 35> C 	 -18.2496 	 31.8732 	 32.6476
| 36> H 	 -19.2708 	 31.9986 	 32.7729
| 37> H 	 -17.9417 	 32.199 	 31.6679
| 38> H 	 -17.7432 	 32.5934 	 33.2871
| 39> H 	 -11.6192 	 34.4594 	 34.9928
| 40> H 	 -17.1842 	 29.2716 	 37.9879
| 41> *
| 42>
| 43>                          ****END OF INPUT****

CARTESIAN COORDINATES (ANGSTROEM)
---------------------------------
  S    -12.985100   32.644800   36.140500
  C    -12.555800   33.925200   35.030400
  C    -13.566700   34.402100   34.261800
  C    -14.725000   33.587600   34.434600
  C    -14.493400   32.551300   35.331900
  H    -15.684700   33.617100   33.846600
  C    -13.412200   35.684900   33.446700
  H    -14.140000   35.746200   32.630500
  H    -12.464700   35.626300   32.969300
  C    -13.413800   36.927300   34.301600
  H    -14.181100   36.888700   35.104000
  H    -12.429100   36.919000   34.862200
  C    -13.653700   38.196300   33.514400
  H    -13.693700   39.000900   34.228100
  H    -12.905100   38.363800   32.677500
  H    -14.636000   38.096200   33.019700
  S    -15.781300   31.264700   37.497000
  C    -16.822900   29.953500   37.160900
  C    -17.175100   29.869600   35.837600
  C    -16.345400   30.669700   35.030400
  C    -15.494300   31.543000   35.738300
  H    -17.945900   29.133800   35.602800
  C    -16.334300   30.344500   33.537300
  H    -15.880000   29.344000   33.515400
  H    -15.654900   30.986500   32.864700
  C    -17.713100   30.433300   32.882000
  H    -18.430700   29.923500   33.528800
  H    -17.757800   29.963300   31.934400
  C    -18.249600   31.873200   32.647600
  H    -19.270800   31.998600   32.772900
  H    -17.941700   32.199000   31.667900
  H    -17.743200   32.593400   33.287100
  H    -11.619200   34.459400   34.992800
  H    -17.184200   29.271600   37.987900

 Total Charge           Charge          ....    0
 Multiplicity           Mult            ....    1
 Number of Electrons    NEL             ....  134
 Basis Dimension        Dim             ....  322

ORBITAL ENERGIES
----------------

  NO   OCC          E(Eh)            E(eV)
   0   2.0000     -88.969933     -2420.9950
   1   2.0000     -88.961500     -2420.7655
   2   2.0000     -10.329956      -281.0924
   3   2.0000     -10.327574      -281.0276
   4   2.0000     -10.317202      -280.7453
   5   2.0000     -10.306570      -280.4560
   6   2.0000     -10.306169      -280.4451
   7   2.0000     -10.298124      -280.2262
   8   2.0000     -10.297768      -280.2165
   9   2.0000     -10.297656      -280.2135
  10   2.0000     -10.290720      -280.0247
  11   2.0000     -10.290010      -280.0054
  12   2.0000     -10.289263      -279.9851
  13   2.0000     -10.283483      -279.8278
  14   2.0000     -10.282941      -279.8130
  15   2.0000     -10.269764      -279.4545
  16   2.0000      -8.085251      -220.0109
  17   2.0000      -8.076556      -219.7743
  18   2.0000      -6.043636      -164.4557
  19   2.0000      -6.039909      -164.3543
  20   2.0000      -6.035865      -164.2442
  21   2.0000      -6.034897      -164.2179
  22   2.0000      -6.031110      -164.1148
  23   2.0000      -6.027383      -164.0134
  24   2.0000      -1.008379       -27.4394
  25   2.0000      -0.987728       -26.8774
  26   2.0000      -0.918483       -24.9932
  27   2.0000      -0.907300       -24.6889
  28   2.0000      -0.867850       -23.6154
  29   2.0000      -0.850803       -23.1515
  30   2.0000      -0.846194       -23.0261
  31   2.0000      -0.812389       -22.1062
  32   2.0000      -0.785349       -21.3704
  33   2.0000      -0.772711       -21.0265
  34   2.0000      -0.706168       -19.2158
  35   2.0000      -0.695204       -18.9175
  36   2.0000      -0.689848       -18.7717
  37   2.0000      -0.652968       -17.7682
  38   2.0000      -0.637080       -17.3358
  39   2.0000      -0.617198       -16.7948
  40   2.0000      -0.598531       -16.2869
  41   2.0000      -0.573019       -15.5926
  42   2.0000      -0.560798       -15.2601
  43   2.0000      -0.554511       -15.0890
  44   2.0000      -0.539385       -14.6774
  45   2.0000      -0.531581       -14.4650
  46   2.0000      -0.519449       -14.1349
  47   2.0000      -0.509389       -13.8612
  48   2.0000      -0.496203       -13.5024
  49   2.0000      -0.491797       -13.3825
  50   2.0000      -0.485532       -13.2120
  51   2.0000      -0.478740       -13.0272
  52   2.0000      -0.468189       -12.7401
  53   2.0000      -0.466113       -12.6836
  54   2.0000      -0.456619       -12.4252
  55   2.0000      -0.455494       -12.3946
  56   2.0000      -0.444750       -12.1023
  57   2.0000      -0.442289       -12.0353
  58   2.0000      -0.440294       -11.9810
  59   2.0000      -0.430165       -11.7054
  60   2.0000      -0.416299       -11.3281
  61   2.0000      -0.412636       -11.2284
  62   2.0000      -0.410227       -11.1628
  63   2.0000      -0.342653        -9.3241
  64   2.0000      -0.335577        -9.1315
  65   2.0000      -0.329634        -8.9698
  66   2.0000      -0.287850        -7.8328
  67   0.0000       0.029410         0.8003
  68   0.0000       0.073267         1.9937
  69   0.0000       0.107783         2.9329
  70   0.0000       0.122940         3.3454
  71   0.0000       0.133837         3.6419

MULLIKEN ATOMIC CHARGES
-----------------------
   0 S :    0.130890
   1 C :   -0.109283
   2 C :   -0.086491
   3 C :    0.011129
   4 C :   -0.159080
   5 H :    0.026065
   6 C :    0.099061
   7 H :    0.013842
   8 H :    0.018200
   9 C :   -0.108247
  10 H :    0.037885
  11 H :    0.029771
  12 C :   -0.038802
  13 H :    0.037800
  14 H :    0.039229
  15 H :    0.032119
  16 S :    0.091510
  17 C :   -0.126582
  18 C :   -0.048044
  19 C :   -0.014628
  20 C :   -0.151852
  21 H :    0.033516
  22 C :    0.024161
  23 H :    0.049170
  24 H :    0.036296
  25 C :   -0.067993
  26 H :    0.021078
  27 H :    0.024977
  28 C :   -0.018835
  29 H :    0.025649
  30 H :    0.017835
  31 H :    0.018232
  32 H :    0.030925
  33 H :    0.080497
Sum of atomic charges:    0.0000000

LOEWDIN ATOMIC CHARGES
----------------------
   0 S :    0.425629
   1 C :   -0.195752
   2 C :   -0.060553
   3 C :   -0.064145
   4 C :   -0.204791
   5 H :    0.039217
   6 C :   -0.029373
   7 H :    0.026097
   8 H :    0.029080
   9 C :   -0.047931
  10 H :    0.027852
  11 H :    0.026314
  12 C :   -0.066237
  13 H :    0.025935
  14 H :    0.030208
  15 H :    0.027495
  16 S :    0.389085
  17 C :   -0.196814
  18 C :   -0.083715
  19 C :   -0.057764
  20 C :   -0.188207
  21 H :    0.037656
  22 C :   -0.034354
  23 H :    0.037947
  24 H :    0.034869
  25 C :   -0.038412
  26 H :    0.019196
  27 H :    0.020449
  28 C :   -0.056607
  29 H :    0.018703
  30 H :    0.022779
  31 H :    0.022499
  32 H :    0.022595
  33 H :    0.041050

  Mayer bond orders larger than 0.100000
B(  0-S ,  1-C ) :   1.1298 B(  0-S ,  4-C ) :   1.1622 B(  1-C ,  2-C ) :   1.6362
B(  1-C , 32-H ) :   0.9626 B(  2-C ,  3-C ) :   1.2385 B(  2-C ,  6-C ) :   1.0208
B(  3-C ,  4-C ) :   1.5689 B(  3-C ,  5-H ) :   0.9871 B(  4-C , 20-C ) :   1.0391
B(  6-C ,  7-H ) :   0.9446 B(  6-C ,  8-H ) :   0.9293 B(  6-C ,  9-C ) :   1.0579
B(  9-C , 10-H ) :   0.9590 B(  9-C , 11-H ) :   0.9487 B(  9-C , 12-C ) :   1.0870
B( 12-C , 13-H ) :   0.9733 B( 12-C , 14-H ) :   0.9723 B( 12-C , 15-H ) :   0.9723
B( 16-S , 17-C ) :   1.1759 B( 16-S , 20-C ) :   1.1247 B( 17-C , 18-C ) :   1.6100
B( 17-C , 33-H ) :   0.9561 B( 18-C , 19-C ) :   1.2288 B( 18-C , 21-H ) :   0.9895
B( 19-C , 20-C ) :   1.5980 B( 19-C , 22-C ) :   1.0247 B( 22-C , 23-H ) :   0.9414
B( 22-C , 24-H ) :   0.9461 B( 22-C , 25-C ) :   1.0670 B( 25-C , 26-H ) :   0.9617
B( 25-C , 27-H ) :   0.9586 B( 25-C , 28-C ) :   1.0605 B( 28-C , 29-H ) :   0.9735
B( 28-C , 30-H ) :   0.9761 B( 28-C , 31-H ) :   0.9779

Dispersion correction           -0.014054590
FINAL SINGLE POINT ENERGY     -1339.874206572265

DIPOLE MOMENT
-------------
                                X             Y             Z
Electronic contribution:      7.62568     -14.91159      21.52638
Nuclear contribution   :     -7.82469      15.02877     -22.00896
                        -----------------------------------------
Total Dipole Moment    :     -0.19901       0.11718      -0.48257
                        -----------------------------------------
Magnitude (a.u.)       :      0.53499
Magnitude (Debye)      :      1.35983

Rotational constants in cm-1:     0.019807     0.007986     0.006357
Rotational constants in MHz :   593.806295   239.415693   190.590045

                             ****ORCA TERMINATED NORMALLY****
TOTAL RUN TIME: 0 days 0 hours 0 minutes 33 seconds 458 msec
