                         Program Version 4.2.1 -  RELEASE  -
|  1> ! wB97X-D3 SP def2-SVP
|  2> %pal
|  3> nprocs 16
|  4> end
|  5>
|  6> * xyz 0 1
|  7> S 	 36.0824 	 21.8193 	 51.6566
|  8> C 	 35.4797 	 22.6148 	 53.1071
|  9> C 	 34.428 	 21.9823 	 53.7354
| 10> C 	 34.1507 	 20.7953 	 53.0509
| 11> C 	 34.9906 	 20.4875 	 51.9541
| 12> H 	 33.3817 	 20.0472 	 53.311
| 13> C 	 33.7015 	 22.3191 	 55.0374
| 14> H 	 34.2053 	 23.2011 	 55.5253
| 15> H 	 33.7524 	 21.6074 	 55.8017
| 16> C 	 32.1671 	 22.6609 	 55.024
| 17> H 	 31.8731 	 23.0204 	 56.0111
| 18> H 	 31.9384 	 23.563 	 54.4719
| 19> C 	 31.2879 	 21.5604 	 54.3725
| 20> H 	 31.6369 	 21.4989 	 53.348
| 21> H 	 31.4511 	 20.5716 	 54.7987
| 22> H 	 30.2794 	 21.7842 	 54.5591
| 23> S 	 33.718 	 19.1512 	 49.8922
| 24> C 	 34.2974 	 17.5828 	 49.4275
| 25> C 	 35.3017 	 17.1025 	 50.2342
| 26> C 	 35.66 	 18.0472 	 51.267
| 27> C 	 34.9235 	 19.2577 	 51.1739
| 28> H 	 35.8058 	 16.1775 	 50.1023
| 29> C 	 36.7471 	 17.7802 	 52.2383
| 30> H 	 36.7855 	 16.7773 	 52.6943
| 31> H 	 36.3924 	 18.4427 	 53.0477
| 32> C 	 38.0905 	 18.2167 	 51.7162
| 33> H 	 38.1757 	 19.2882 	 51.5495
| 34> H 	 38.2457 	 17.7706 	 50.7536
| 35> C 	 39.2384 	 17.7459 	 52.666
| 36> H 	 39.0806 	 18.2261 	 53.5868
| 37> H 	 40.1502 	 18.0486 	 52.154
| 38> H 	 39.1139 	 16.7105 	 52.9681
| 39> H 	 35.6182 	 23.6909 	 53.2571
| 40> H 	 33.9277 	 17.0504 	 48.5909
| 41> *
| 42>
| 43>                          ****END OF INPUT****

CARTESIAN COORDINATES (ANGSTROEM)
---------------------------------
  S     36.082400   21.819300   51.656600
  C     35.479700   22.614800   53.107100
  C     34.428000   21.982300   53.735400
  C     34.150700   20.795300   53.050900
  C     34.990600   20.487500   51.954100
  H     33.381700   20.047200   53.311000
  C     33.701500   22.319100   55.037400
  H     34.205300   23.201100   55.525300
  H     33.752400   21.607400   55.801700
  C     32.167100   22.660900   55.024000
  H     31.873100   23.020400   56.011100
  H     31.938400   23.563000   54.471900
  C     31.287900   21.560400   54.372500
  H     31.636900   21.498900   53.348000
  H     31.451100   20.571600   54.798700
  H     30.279400   21.784200   54.559100
  S     33.718000   19.151200   49.892200
  C     34.297400   17.582800   49.427500
  C     35.301700   17.102500   50.234200
  C     35.660000   18.047200   51.267000
  C     34.923500   19.257700   51.173900
  H     35.805800   16.177500   50.102300
  C     36.747100   17.780200   52.238300
  H     36.785500   16.777300   52.694300
  H     36.392400   18.442700   53.047700
  C     38.090500   18.216700   51.716200
  H     38.175700   19.288200   51.549500
  H     38.245700   17.770600   50.753600
  C     39.238400   17.745900   52.666000
  H     39.080600   18.226100   53.586800
  H     40.150200   18.048600   52.154000
  H     39.113900   16.710500   52.968100
  H     35.618200   23.690900   53.257100
  H     33.927700   17.050400   48.590900

 Total Charge           Charge          ....    0
 Multiplicity           Mult            ....    1
 Number of Electrons    NEL             ....  134
 Basis Dimension        Dim             ....  322

ORBITAL ENERGIES
----------------

  NO   OCC          E(Eh)            E(eV)
   0   2.0000     -88.973144     -2421.0823
   1   2.0000     -88.964954     -2420.8595
   2   2.0000     -10.330514      -281.1076
   3   2.0000     -10.325649      -280.9752
   4   2.0000     -10.317505      -280.7536
   5   2.0000     -10.313403      -280.6420
   6   2.0000     -10.304665      -280.4042
   7   2.0000     -10.303304      -280.3672
   8   2.0000     -10.297795      -280.2173
   9   2.0000     -10.295504      -280.1549
  10   2.0000     -10.289771      -279.9989
  11   2.0000     -10.288681      -279.9693
  12   2.0000     -10.284379      -279.8522
  13   2.0000     -10.277848      -279.6745
  14   2.0000     -10.274113      -279.5728
  15   2.0000     -10.270345      -279.4703
  16   2.0000      -8.087208      -220.0641
  17   2.0000      -8.079695      -219.8597
  18   2.0000      -6.045591      -164.5089
  19   2.0000      -6.041757      -164.4046
  20   2.0000      -6.038176      -164.3071
  21   2.0000      -6.038107      -164.3052
  22   2.0000      -6.034158      -164.1978
  23   2.0000      -6.030626      -164.1017
  24   2.0000      -1.003979       -27.3197
  25   2.0000      -0.983210       -26.7545
  26   2.0000      -0.912227       -24.8230
  27   2.0000      -0.907836       -24.7035
  28   2.0000      -0.867921       -23.6173
  29   2.0000      -0.848903       -23.0998
  30   2.0000      -0.847836       -23.0708
  31   2.0000      -0.811029       -22.0692
  32   2.0000      -0.788839       -21.4654
  33   2.0000      -0.768307       -20.9067
  34   2.0000      -0.704676       -19.1752
  35   2.0000      -0.703788       -19.1510
  36   2.0000      -0.694980       -18.9114
  37   2.0000      -0.662351       -18.0235
  38   2.0000      -0.640534       -17.4298
  39   2.0000      -0.616950       -16.7881
  40   2.0000      -0.597810       -16.2672
  41   2.0000      -0.574794       -15.6409
  42   2.0000      -0.560988       -15.2653
  43   2.0000      -0.548746       -14.9321
  44   2.0000      -0.536453       -14.5976
  45   2.0000      -0.533996       -14.5308
  46   2.0000      -0.513267       -13.9667
  47   2.0000      -0.507752       -13.8166
  48   2.0000      -0.505651       -13.7595
  49   2.0000      -0.496921       -13.5219
  50   2.0000      -0.491950       -13.3866
  51   2.0000      -0.481236       -13.0951
  52   2.0000      -0.473332       -12.8800
  53   2.0000      -0.462423       -12.5832
  54   2.0000      -0.451883       -12.2964
  55   2.0000      -0.449744       -12.2382
  56   2.0000      -0.444711       -12.1012
  57   2.0000      -0.440205       -11.9786
  58   2.0000      -0.437401       -11.9023
  59   2.0000      -0.421756       -11.4766
  60   2.0000      -0.418849       -11.3975
  61   2.0000      -0.417337       -11.3563
  62   2.0000      -0.406206       -11.0534
  63   2.0000      -0.339329        -9.2336
  64   2.0000      -0.330376        -8.9900
  65   2.0000      -0.319827        -8.7029
  66   2.0000      -0.305648        -8.3171
  67   0.0000       0.039023         1.0619
  68   0.0000       0.050073         1.3625
  69   0.0000       0.111900         3.0450
  70   0.0000       0.116337         3.1657
  71   0.0000       0.128255         3.4900

MULLIKEN ATOMIC CHARGES
-----------------------
   0 S :    0.133261
   1 C :   -0.127633
   2 C :   -0.048271
   3 C :    0.019008
   4 C :   -0.196537
   5 H :    0.022907
   6 C :    0.058267
   7 H :    0.021498
   8 H :    0.028194
   9 C :   -0.081494
  10 H :    0.020506
  11 H :    0.017575
  12 C :   -0.041157
  13 H :    0.051670
  14 H :    0.023668
  15 H :    0.032010
  16 S :    0.116314
  17 C :   -0.074130
  18 C :   -0.007567
  19 C :   -0.034814
  20 C :   -0.193256
  21 H :    0.006077
  22 C :    0.049287
  23 H :    0.027274
  24 H :    0.030631
  25 C :   -0.070211
  26 H :    0.024426
  27 H :    0.015358
  28 C :   -0.003126
  29 H :    0.012706
  30 H :    0.044312
  31 H :    0.020924
  32 H :    0.058338
  33 H :    0.043987
Sum of atomic charges:    0.0000000

LOEWDIN ATOMIC CHARGES
----------------------
   0 S :    0.417956
   1 C :   -0.194616
   2 C :   -0.067403
   3 C :   -0.058331
   4 C :   -0.211394
   5 H :    0.035284
   6 C :   -0.028252
   7 H :    0.036306
   8 H :    0.026035
   9 C :   -0.037968
  10 H :    0.021891
  11 H :    0.020299
  12 C :   -0.061778
  13 H :    0.030441
  14 H :    0.020189
  15 H :    0.022342
  16 S :    0.410719
  17 C :   -0.179140
  18 C :   -0.068631
  19 C :   -0.041808
  20 C :   -0.213768
  21 H :    0.027119
  22 C :   -0.044666
  23 H :    0.032480
  24 H :    0.037303
  25 C :   -0.033472
  26 H :    0.021749
  27 H :    0.016636
  28 C :   -0.058902
  29 H :    0.018489
  30 H :    0.030008
  31 H :    0.022891
  32 H :    0.030710
  33 H :    0.021282

  Mayer bond orders larger than 0.100000
B(  0-S ,  1-C ) :   1.1596 B(  0-S ,  4-C ) :   1.1543 B(  1-C ,  2-C ) :   1.6087
B(  1-C ,  4-C ) :   0.1052 B(  1-C , 32-H ) :   0.9507 B(  2-C ,  3-C ) :   1.2641
B(  2-C ,  6-C ) :   1.0138 B(  3-C ,  4-C ) :   1.5597 B(  3-C ,  5-H ) :   0.9835
B(  4-C , 20-C ) :   1.0306 B(  6-C ,  7-H ) :   0.9393 B(  6-C ,  8-H ) :   0.9503
B(  6-C ,  9-C ) :   1.0700 B(  9-C , 10-H ) :   0.9568 B(  9-C , 11-H ) :   0.9550
B(  9-C , 12-C ) :   1.0738 B( 12-C , 13-H ) :   0.9675 B( 12-C , 14-H ) :   0.9758
B( 12-C , 15-H ) :   0.9712 B( 16-S , 17-C ) :   1.1661 B( 16-S , 20-C ) :   1.1412
B( 17-C , 18-C ) :   1.5926 B( 17-C , 33-H ) :   0.9705 B( 18-C , 19-C ) :   1.2465
B( 18-C , 21-H ) :   0.9954 B( 19-C , 20-C ) :   1.5879 B( 19-C , 22-C ) :   1.0472
B( 22-C , 23-H ) :   0.9408 B( 22-C , 24-H ) :   0.9156 B( 22-C , 25-C ) :   1.0678
B( 25-C , 26-H ) :   0.9470 B( 25-C , 27-H ) :   0.9599 B( 25-C , 28-C ) :   1.0791
B( 28-C , 29-H ) :   0.9725 B( 28-C , 30-H ) :   0.9747 B( 28-C , 31-H ) :   0.9739

Dispersion correction           -0.014690700
FINAL SINGLE POINT ENERGY     -1339.868439890033

DIPOLE MOMENT
-------------
                                X             Y             Z
Electronic contribution:     -1.73299       2.71786     -17.18620
Nuclear contribution   :      1.64018      -2.82492      17.56924
                        -----------------------------------------
Total Dipole Moment    :     -0.09281      -0.10706       0.38304
                        -----------------------------------------
Magnitude (a.u.)       :      0.40841
Magnitude (Debye)      :      1.03810

Rotational constants in cm-1:     0.018388     0.008752     0.007174
Rotational constants in MHz :   551.269612   262.373804   215.077658

                             ****ORCA TERMINATED NORMALLY****
TOTAL RUN TIME: 0 days 0 hours 0 minutes 35 seconds 724 msec
