                         Program Version 4.2.1 -  RELEASE  -
|  1> ! wB97X-D3 SP def2-SVP
|  2> %pal
|  3> nprocs 16
|  4> end
|  5>
|  6> * xyz 0 1
|  7> S 	 42.1213 	 9.70323 	 78.0924
|  8> C 	 42.0086 	 8.51182 	 79.4228
|  9> C 	 40.8211 	 8.66671 	 80.1101
| 10> C 	 39.8752 	 9.43485 	 79.3666
| 11> C 	 40.4594 	 10.207 	 78.3943
| 12> H 	 38.7974 	 9.66929 	 79.654
| 13> C 	 40.436 	 7.88927 	 81.3823
| 14> H 	 41.2907 	 7.28896 	 81.6704
| 15> H 	 39.5398 	 7.25209 	 81.095
| 16> C 	 40.0129 	 8.84133 	 82.5423
| 17> H 	 39.1209 	 9.2759 	 82.3079
| 18> H 	 39.8425 	 8.24756 	 83.4223
| 19> C 	 41.0227 	 9.92917 	 82.9995
| 20> H 	 41.0553 	 9.93676 	 84.0855
| 21> H 	 41.9707 	 9.61555 	 82.7092
| 22> H 	 40.6884 	 10.8557 	 82.5561
| 23> S 	 39.5635 	 12.7798 	 78.5799
| 24> C 	 38.179 	 13.2431 	 77.6886
| 25> C 	 37.7286 	 12.2416 	 76.8732
| 26> C 	 38.6815 	 11.1454 	 76.738
| 27> C 	 39.7264 	 11.2663 	 77.6987
| 28> H 	 36.7827 	 12.4258 	 76.434
| 29> C 	 38.3699 	 9.87996 	 75.9484
| 30> H 	 39.2367 	 9.18975 	 75.9562
| 31> H 	 38.1585 	 10.3022 	 74.9546
| 32> C 	 37.1724 	 8.98761 	 76.3924
| 33> H 	 37.3902 	 8.69979 	 77.4071
| 34> H 	 37.2381 	 7.97855 	 76.0182
| 35> C 	 35.7554 	 9.47023 	 76.0475
| 36> H 	 35.7489 	 10.545 	 76.2224
| 37> H 	 34.9331 	 8.91892 	 76.5296
| 38> H 	 35.662 	 9.16134 	 74.9536
| 39> H 	 42.8667 	 7.88089 	 79.703
| 40> H 	 37.759 	 14.2283 	 77.7982
| 41> *
| 42>
| 43>                          ****END OF INPUT****

CARTESIAN COORDINATES (ANGSTROEM)
---------------------------------
  S     42.121300    9.703230   78.092400
  C     42.008600    8.511820   79.422800
  C     40.821100    8.666710   80.110100
  C     39.875200    9.434850   79.366600
  C     40.459400   10.207000   78.394300
  H     38.797400    9.669290   79.654000
  C     40.436000    7.889270   81.382300
  H     41.290700    7.288960   81.670400
  H     39.539800    7.252090   81.095000
  C     40.012900    8.841330   82.542300
  H     39.120900    9.275900   82.307900
  H     39.842500    8.247560   83.422300
  C     41.022700    9.929170   82.999500
  H     41.055300    9.936760   84.085500
  H     41.970700    9.615550   82.709200
  H     40.688400   10.855700   82.556100
  S     39.563500   12.779800   78.579900
  C     38.179000   13.243100   77.688600
  C     37.728600   12.241600   76.873200
  C     38.681500   11.145400   76.738000
  C     39.726400   11.266300   77.698700
  H     36.782700   12.425800   76.434000
  C     38.369900    9.879960   75.948400
  H     39.236700    9.189750   75.956200
  H     38.158500   10.302200   74.954600
  C     37.172400    8.987610   76.392400
  H     37.390200    8.699790   77.407100
  H     37.238100    7.978550   76.018200
  C     35.755400    9.470230   76.047500
  H     35.748900   10.545000   76.222400
  H     34.933100    8.918920   76.529600
  H     35.662000    9.161340   74.953600
  H     42.866700    7.880890   79.703000
  H     37.759000   14.228300   77.798200

 Total Charge           Charge          ....    0
 Multiplicity           Mult            ....    1
 Number of Electrons    NEL             ....  134
 Basis Dimension        Dim             ....  322

ORBITAL ENERGIES
----------------

  NO   OCC          E(Eh)            E(eV)
   0   2.0000     -88.964812     -2420.8556
   1   2.0000     -88.962759     -2420.7998
   2   2.0000     -10.329306      -281.0747
   3   2.0000     -10.327645      -281.0295
   4   2.0000     -10.318882      -280.7911
   5   2.0000     -10.314953      -280.6842
   6   2.0000     -10.314677      -280.6766
   7   2.0000     -10.303378      -280.3692
   8   2.0000     -10.299761      -280.2708
   9   2.0000     -10.297660      -280.2136
  10   2.0000     -10.296261      -280.1755
  11   2.0000     -10.294719      -280.1335
  12   2.0000     -10.285805      -279.8910
  13   2.0000     -10.282529      -279.8019
  14   2.0000     -10.276007      -279.6244
  15   2.0000     -10.268132      -279.4101
  16   2.0000      -8.078784      -219.8349
  17   2.0000      -8.078345      -219.8230
  18   2.0000      -6.037315      -164.2837
  19   2.0000      -6.036691      -164.2667
  20   2.0000      -6.033429      -164.1779
  21   2.0000      -6.032667      -164.1572
  22   2.0000      -6.029532      -164.0719
  23   2.0000      -6.029282      -164.0651
  24   2.0000      -1.004659       -27.3382
  25   2.0000      -0.982388       -26.7321
  26   2.0000      -0.906667       -24.6717
  27   2.0000      -0.905105       -24.6292
  28   2.0000      -0.869461       -23.6592
  29   2.0000      -0.846969       -23.0472
  30   2.0000      -0.843830       -22.9618
  31   2.0000      -0.813646       -22.1404
  32   2.0000      -0.783493       -21.3199
  33   2.0000      -0.771553       -20.9950
  34   2.0000      -0.710299       -19.3282
  35   2.0000      -0.699081       -19.0230
  36   2.0000      -0.688269       -18.7287
  37   2.0000      -0.658767       -17.9260
  38   2.0000      -0.637065       -17.3354
  39   2.0000      -0.616867       -16.7858
  40   2.0000      -0.589275       -16.0350
  41   2.0000      -0.568251       -15.4629
  42   2.0000      -0.552453       -15.0330
  43   2.0000      -0.548815       -14.9340
  44   2.0000      -0.546559       -14.8726
  45   2.0000      -0.542307       -14.7569
  46   2.0000      -0.518905       -14.1201
  47   2.0000      -0.514581       -14.0024
  48   2.0000      -0.506189       -13.7741
  49   2.0000      -0.491355       -13.3705
  50   2.0000      -0.483807       -13.1651
  51   2.0000      -0.475852       -12.9486
  52   2.0000      -0.472386       -12.8543
  53   2.0000      -0.467795       -12.7293
  54   2.0000      -0.458849       -12.4859
  55   2.0000      -0.445194       -12.1143
  56   2.0000      -0.438501       -11.9322
  57   2.0000      -0.436126       -11.8676
  58   2.0000      -0.434054       -11.8112
  59   2.0000      -0.432024       -11.7560
  60   2.0000      -0.424854       -11.5609
  61   2.0000      -0.408179       -11.1071
  62   2.0000      -0.398609       -10.8467
  63   2.0000      -0.336726        -9.1628
  64   2.0000      -0.326426        -8.8825
  65   2.0000      -0.316202        -8.6043
  66   2.0000      -0.312483        -8.5031
  67   0.0000       0.044585         1.2132
  68   0.0000       0.047788         1.3004
  69   0.0000       0.109441         2.9780
  70   0.0000       0.119305         3.2464
  71   0.0000       0.120174         3.2701

MULLIKEN ATOMIC CHARGES
-----------------------
   0 S :    0.101790
   1 C :   -0.141645
   2 C :   -0.086269
   3 C :    0.015779
   4 C :   -0.169557
   5 H :    0.051209
   6 C :    0.058301
   7 H :    0.017852
   8 H :    0.052141
   9 C :   -0.073357
  10 H :    0.004796
  11 H :    0.022183
  12 C :   -0.003633
  13 H :    0.027488
  14 H :    0.008821
  15 H :    0.043815
  16 S :    0.109022
  17 C :   -0.101648
  18 C :   -0.040650
  19 C :   -0.019035
  20 C :   -0.164987
  21 H :    0.019388
  22 C :    0.050057
  23 H :    0.041515
  24 H :    0.031707
  25 C :   -0.058750
  26 H :    0.006515
  27 H :    0.015313
  28 C :   -0.060639
  29 H :    0.035028
  30 H :    0.042745
  31 H :    0.042479
  32 H :    0.062647
  33 H :    0.059580
Sum of atomic charges:    0.0000000

LOEWDIN ATOMIC CHARGES
----------------------
   0 S :    0.379427
   1 C :   -0.189842
   2 C :   -0.066040
   3 C :   -0.067648
   4 C :   -0.199602
   5 H :    0.044364
   6 C :   -0.026211
   7 H :    0.024460
   8 H :    0.043270
   9 C :   -0.035416
  10 H :    0.007112
  11 H :    0.022690
  12 C :   -0.052042
  13 H :    0.027838
  14 H :    0.015206
  15 H :    0.029897
  16 S :    0.420878
  17 C :   -0.187844
  18 C :   -0.079593
  19 C :   -0.041028
  20 C :   -0.208279
  21 H :    0.025841
  22 C :   -0.031628
  23 H :    0.039587
  24 H :    0.033130
  25 C :   -0.050161
  26 H :    0.018567
  27 H :    0.024394
  28 C :   -0.070436
  29 H :    0.021787
  30 H :    0.030580
  31 H :    0.036639
  32 H :    0.032090
  33 H :    0.028015

  Mayer bond orders larger than 0.100000
B(  0-S ,  1-C ) :   1.1258 B(  0-S ,  4-C ) :   1.1306 B(  1-C ,  2-C ) :   1.6273
B(  1-C , 32-H ) :   0.9652 B(  2-C ,  3-C ) :   1.2066 B(  2-C ,  6-C ) :   1.0254
B(  3-C ,  4-C ) :   1.6199 B(  3-C ,  5-H ) :   0.9726 B(  4-C , 20-C ) :   1.0092
B(  6-C ,  7-H ) :   0.9428 B(  6-C ,  8-H ) :   0.9441 B(  6-C ,  9-C ) :   1.0727
B(  9-C , 10-H ) :   0.9618 B(  9-C , 11-H ) :   0.9618 B(  9-C , 12-C ) :   1.0644
B( 12-C , 13-H ) :   0.9793 B( 12-C , 14-H ) :   0.9782 B( 12-C , 15-H ) :   0.9783
B( 16-S , 17-C ) :   1.1789 B( 16-S , 20-C ) :   1.1546 B( 17-C , 18-C ) :   1.6054
B( 17-C , 33-H ) :   0.9672 B( 18-C , 19-C ) :   1.2267 B( 18-C , 21-H ) :   0.9910
B( 19-C , 20-C ) :   1.5688 B( 19-C , 22-C ) :   1.0520 B( 22-C , 23-H ) :   0.9342
B( 22-C , 24-H ) :   0.9345 B( 22-C , 25-C ) :   1.0642 B( 25-C , 26-H ) :   0.9503
B( 25-C , 27-H ) :   0.9547 B( 25-C , 28-C ) :   1.0599 B( 28-C , 29-H ) :   0.9786
B( 28-C , 30-H ) :   0.9711 B( 28-C , 31-H ) :   0.9762

Dispersion correction           -0.015259358
FINAL SINGLE POINT ENERGY     -1339.851440557371

DIPOLE MOMENT
-------------
                                X             Y             Z
Electronic contribution:     14.30376      12.26162      -7.41899
Nuclear contribution   :    -14.88645     -12.61396       7.73284
                        -----------------------------------------
Total Dipole Moment    :     -0.58269      -0.35234       0.31385
                        -----------------------------------------
Magnitude (a.u.)       :      0.74978
Magnitude (Debye)      :      1.90578

Rotational constants in cm-1:     0.018355     0.008614     0.008048
Rotational constants in MHz :   550.281204   258.237120   241.285488

                             ****ORCA TERMINATED NORMALLY****
TOTAL RUN TIME: 0 days 0 hours 0 minutes 31 seconds 315 msec
