                         Program Version 4.2.1 -  RELEASE  -
|  1> ! wB97X-D3 SP def2-SVP
|  2> %pal
|  3> nprocs 16
|  4> end
|  5>
|  6> * xyz 0 1
|  7> S 	 -27.7156 	 57.7262 	 106.994
|  8> C 	 -26.7145 	 59.1263 	 106.852
|  9> C 	 -27.4599 	 60.2599 	 106.601
| 10> C 	 -28.8619 	 59.9857 	 106.607
| 11> C 	 -29.1494 	 58.6618 	 106.924
| 12> H 	 -29.6786 	 60.594 	 106.326
| 13> C 	 -26.9023 	 61.6332 	 106.295
| 14> H 	 -26.0556 	 61.5469 	 105.626
| 15> H 	 -26.4021 	 61.9796 	 107.238
| 16> C 	 -27.858 	 62.644 	 105.731
| 17> H 	 -28.7499 	 62.7231 	 106.357
| 18> H 	 -27.3486 	 63.5722 	 105.595
| 19> C 	 -28.317 	 62.2127 	 104.264
| 20> H 	 -29.3071 	 62.6549 	 104.05
| 21> H 	 -27.5341 	 62.4105 	 103.555
| 22> H 	 -28.4914 	 61.076 	 104.208
| 23> S 	 -30.8241 	 57.1137 	 105.328
| 24> C 	 -32.4977 	 57.0455 	 105.69
| 25> C 	 -32.7988 	 57.5032 	 106.952
| 26> C 	 -31.6242 	 58.1095 	 107.584
| 27> C 	 -30.4596 	 58.0088 	 106.822
| 28> H 	 -33.7424 	 57.3397 	 107.355
| 29> C 	 -31.5547 	 58.8722 	 108.906
| 30> H 	 -32.6121 	 59.0749 	 109.237
| 31> H 	 -31.2995 	 59.9131 	 108.676
| 32> C 	 -30.7157 	 58.1801 	 110.019
| 33> H 	 -29.6313 	 58.2293 	 109.92
| 34> H 	 -30.9448 	 57.1153 	 109.987
| 35> C 	 -31.072 	 58.8183 	 111.393
| 36> H 	 -30.6823 	 59.8854 	 111.461
| 37> H 	 -30.5643 	 58.2543 	 112.179
| 38> H 	 -32.1284 	 58.9157 	 111.437
| 39> H 	 -25.6343 	 59.0177 	 106.86
| 40> H 	 -33.2934 	 56.5646 	 105.11
| 41> *
| 42>
| 43>                          ****END OF INPUT****

CARTESIAN COORDINATES (ANGSTROEM)
---------------------------------
  S    -27.715600   57.726200  106.994000
  C    -26.714500   59.126300  106.852000
  C    -27.459900   60.259900  106.601000
  C    -28.861900   59.985700  106.607000
  C    -29.149400   58.661800  106.924000
  H    -29.678600   60.594000  106.326000
  C    -26.902300   61.633200  106.295000
  H    -26.055600   61.546900  105.626000
  H    -26.402100   61.979600  107.238000
  C    -27.858000   62.644000  105.731000
  H    -28.749900   62.723100  106.357000
  H    -27.348600   63.572200  105.595000
  C    -28.317000   62.212700  104.264000
  H    -29.307100   62.654900  104.050000
  H    -27.534100   62.410500  103.555000
  H    -28.491400   61.076000  104.208000
  S    -30.824100   57.113700  105.328000
  C    -32.497700   57.045500  105.690000
  C    -32.798800   57.503200  106.952000
  C    -31.624200   58.109500  107.584000
  C    -30.459600   58.008800  106.822000
  H    -33.742400   57.339700  107.355000
  C    -31.554700   58.872200  108.906000
  H    -32.612100   59.074900  109.237000
  H    -31.299500   59.913100  108.676000
  C    -30.715700   58.180100  110.019000
  H    -29.631300   58.229300  109.920000
  H    -30.944800   57.115300  109.987000
  C    -31.072000   58.818300  111.393000
  H    -30.682300   59.885400  111.461000
  H    -30.564300   58.254300  112.179000
  H    -32.128400   58.915700  111.437000
  H    -25.634300   59.017700  106.860000
  H    -33.293400   56.564600  105.110000

 Total Charge           Charge          ....    0
 Multiplicity           Mult            ....    1
 Number of Electrons    NEL             ....  134
 Basis Dimension        Dim             ....  322

ORBITAL ENERGIES
----------------

  NO   OCC          E(Eh)            E(eV)
   0   2.0000     -88.965202     -2420.8662
   1   2.0000     -88.962377     -2420.7893
   2   2.0000     -10.325587      -280.9735
   3   2.0000     -10.323759      -280.9238
   4   2.0000     -10.315475      -280.6983
   5   2.0000     -10.311798      -280.5983
   6   2.0000     -10.306564      -280.4559
   7   2.0000     -10.302857      -280.3550
   8   2.0000     -10.294062      -280.1157
   9   2.0000     -10.292033      -280.0605
  10   2.0000     -10.292009      -280.0598
  11   2.0000     -10.291793      -280.0539
  12   2.0000     -10.288247      -279.9574
  13   2.0000     -10.284564      -279.8572
  14   2.0000     -10.283667      -279.8328
  15   2.0000     -10.277221      -279.6574
  16   2.0000      -8.080968      -219.8943
  17   2.0000      -8.077382      -219.7967
  18   2.0000      -6.039263      -164.3367
  19   2.0000      -6.035885      -164.2448
  20   2.0000      -6.035267      -164.2280
  21   2.0000      -6.031966      -164.1381
  22   2.0000      -6.031810      -164.1339
  23   2.0000      -6.028164      -164.0347
  24   2.0000      -1.008582       -27.4449
  25   2.0000      -0.984419       -26.7874
  26   2.0000      -0.914650       -24.8889
  27   2.0000      -0.900622       -24.5072
  28   2.0000      -0.867955       -23.6183
  29   2.0000      -0.845271       -23.0010
  30   2.0000      -0.841339       -22.8940
  31   2.0000      -0.815855       -22.2005
  32   2.0000      -0.780374       -21.2351
  33   2.0000      -0.764120       -20.7928
  34   2.0000      -0.708752       -19.2861
  35   2.0000      -0.697238       -18.9728
  36   2.0000      -0.687374       -18.7044
  37   2.0000      -0.657496       -17.8914
  38   2.0000      -0.647646       -17.6233
  39   2.0000      -0.626818       -17.0566
  40   2.0000      -0.590095       -16.0573
  41   2.0000      -0.572690       -15.5837
  42   2.0000      -0.557497       -15.1703
  43   2.0000      -0.548215       -14.9177
  44   2.0000      -0.534707       -14.5501
  45   2.0000      -0.526860       -14.3366
  46   2.0000      -0.519808       -14.1447
  47   2.0000      -0.505314       -13.7503
  48   2.0000      -0.503445       -13.6994
  49   2.0000      -0.494787       -13.4638
  50   2.0000      -0.487342       -13.2612
  51   2.0000      -0.482559       -13.1311
  52   2.0000      -0.472005       -12.8439
  53   2.0000      -0.466120       -12.6838
  54   2.0000      -0.452544       -12.3143
  55   2.0000      -0.446844       -12.1592
  56   2.0000      -0.442235       -12.0338
  57   2.0000      -0.435517       -11.8510
  58   2.0000      -0.431954       -11.7541
  59   2.0000      -0.425710       -11.5842
  60   2.0000      -0.420199       -11.4342
  61   2.0000      -0.417430       -11.3589
  62   2.0000      -0.406376       -11.0580
  63   2.0000      -0.338250        -9.2043
  64   2.0000      -0.326344        -8.8803
  65   2.0000      -0.324857        -8.8398
  66   2.0000      -0.300873        -8.1872
  67   0.0000       0.041044         1.1169
  68   0.0000       0.057612         1.5677
  69   0.0000       0.120317         3.2740
  70   0.0000       0.126173         3.4333
  71   0.0000       0.130951         3.5634

MULLIKEN ATOMIC CHARGES
-----------------------
   0 S :    0.117451
   1 C :   -0.133522
   2 C :   -0.080366
   3 C :    0.047256
   4 C :   -0.174399
   5 H :    0.003488
   6 C :    0.069957
   7 H :    0.018178
   8 H :    0.042912
   9 C :   -0.055333
  10 H :    0.036937
  11 H :    0.032812
  12 C :   -0.105662
  13 H :    0.044320
  14 H :    0.036176
  15 H :    0.052224
  16 S :    0.113341
  17 C :   -0.092789
  18 C :   -0.014038
  19 C :   -0.056815
  20 C :   -0.158187
  21 H :   -0.004464
  22 C :    0.052394
  23 H :    0.009478
  24 H :    0.027147
  25 C :   -0.060506
  26 H :    0.040893
  27 H :    0.034527
  28 C :   -0.051990
  29 H :    0.033813
  30 H :    0.041913
  31 H :    0.022117
  32 H :    0.048962
  33 H :    0.061775
Sum of atomic charges:   -0.0000000

LOEWDIN ATOMIC CHARGES
----------------------
   0 S :    0.435851
   1 C :   -0.204661
   2 C :   -0.061862
   3 C :   -0.057258
   4 C :   -0.210387
   5 H :    0.026827
   6 C :   -0.038559
   7 H :    0.028861
   8 H :    0.039554
   9 C :   -0.038308
  10 H :    0.023438
  11 H :    0.026296
  12 C :   -0.072757
  13 H :    0.028467
  14 H :    0.021320
  15 H :    0.034994
  16 S :    0.405731
  17 C :   -0.194262
  18 C :   -0.071462
  19 C :   -0.049454
  20 C :   -0.202370
  21 H :    0.021045
  22 C :   -0.040712
  23 H :    0.029792
  24 H :    0.032491
  25 C :   -0.036837
  26 H :    0.026147
  27 H :    0.025558
  28 C :   -0.064953
  29 H :    0.031627
  30 H :    0.027145
  31 H :    0.015588
  32 H :    0.027284
  33 H :    0.035826

  Mayer bond orders larger than 0.100000
B(  0-S ,  1-C ) :   1.1575 B(  0-S ,  4-C ) :   1.1786 B(  1-C ,  2-C ) :   1.5855
B(  1-C , 32-H ) :   0.9765 B(  2-C ,  3-C ) :   1.2544 B(  2-C ,  6-C ) :   1.0016
B(  3-C ,  4-C ) :   1.5595 B(  3-C ,  5-H ) :   0.9948 B(  4-C , 20-C ) :   1.0049
B(  6-C ,  7-H ) :   0.9387 B(  6-C ,  8-H ) :   0.9297 B(  6-C ,  9-C ) :   1.0946
B(  9-C , 10-H ) :   0.9514 B(  9-C , 11-H ) :   0.9528 B(  9-C , 12-C ) :   1.0582
B( 12-C , 13-H ) :   0.9769 B( 12-C , 14-H ) :   0.9759 B( 12-C , 15-H ) :   0.9786
B( 16-S , 17-C ) :   1.1716 B( 16-S , 20-C ) :   1.1233 B( 17-C , 18-C ) :   1.6171
B( 17-C , 33-H ) :   0.9586 B( 18-C , 19-C ) :   1.2252 B( 18-C , 21-H ) :   1.0031
B( 19-C , 20-C ) :   1.6180 B( 19-C , 22-C ) :   1.0471 B( 22-C , 23-H ) :   0.9390
B( 22-C , 24-H ) :   0.9274 B( 22-C , 25-C ) :   1.0447 B( 25-C , 26-H ) :   0.9537
B( 25-C , 27-H ) :   0.9592 B( 25-C , 28-C ) :   1.0820 B( 28-C , 29-H ) :   0.9746
B( 28-C , 30-H ) :   0.9747 B( 28-C , 31-H ) :   0.9781

Dispersion correction           -0.014794272
FINAL SINGLE POINT ENERGY     -1339.880049142232

DIPOLE MOMENT
-------------
                                X             Y             Z
Electronic contribution:      1.24096     -18.75862      -9.44683
Nuclear contribution   :     -1.29355      19.23746       9.52094
                        -----------------------------------------
Total Dipole Moment    :     -0.05259       0.47883       0.07412
                        -----------------------------------------
Magnitude (a.u.)       :      0.48738
Magnitude (Debye)      :      1.23882

Rotational constants in cm-1:     0.016790     0.009332     0.008039
Rotational constants in MHz :   503.346166   279.753379   241.013430

                             ****ORCA TERMINATED NORMALLY****
TOTAL RUN TIME: 0 days 0 hours 0 minutes 30 seconds 890 msec
