                         Program Version 4.2.1 -  RELEASE  -
|  1> ! wB97X-D3 SP def2-SVP
|  2> %pal
|  3> nprocs 16
|  4> end
|  5>
|  6> * xyz 0 1
|  7> S 	 -15.47 	 53.5652 	 63.0851
|  8> C 	 -14.6029 	 52.3083 	 62.262
|  9> C 	 -13.2103 	 52.4377 	 62.4975
| 10> C 	 -12.8646 	 53.5862 	 63.2723
| 11> C 	 -13.9625 	 54.4197 	 63.4845
| 12> H 	 -11.8237 	 53.8148 	 63.5598
| 13> C 	 -12.1655 	 51.4966 	 61.9923
| 14> H 	 -11.317 	 52.1187 	 61.6428
| 15> H 	 -12.7605 	 51.0418 	 61.1989
| 16> C 	 -11.7836 	 50.4445 	 63.0565
| 17> H 	 -11.5722 	 50.9223 	 64.0138
| 18> H 	 -12.6857 	 49.9445 	 63.231
| 19> C 	 -10.6115 	 49.6105 	 62.5717
| 20> H 	 -10.428 	 49.569 	 61.5627
| 21> H 	 -9.65364 	 50.0045 	 62.9591
| 22> H 	 -10.7074 	 48.5498 	 62.8866
| 23> S 	 -15.2355 	 56.8422 	 63.6831
| 24> C 	 -14.6205 	 58.0851 	 64.773
| 25> C 	 -13.4819 	 57.7401 	 65.4822
| 26> C 	 -13.1149 	 56.3783 	 65.0893
| 27> C 	 -13.959 	 55.7309 	 64.1665
| 28> H 	 -12.997 	 58.4522 	 66.1419
| 29> C 	 -11.8413 	 55.8109 	 65.7699
| 30> H 	 -11.5678 	 54.7681 	 65.5111
| 31> H 	 -11.9348 	 55.8911 	 66.8773
| 32> C 	 -10.5516 	 56.6241 	 65.5412
| 33> H 	 -10.6166 	 57.6039 	 65.8401
| 34> H 	 -10.235 	 56.6007 	 64.4522
| 35> C 	 -9.42562 	 56.0381 	 66.4823
| 36> H 	 -8.52537 	 56.5163 	 66.4192
| 37> H 	 -9.40461 	 54.9665 	 66.3132
| 38> H 	 -9.78897 	 56.1062 	 67.5399
| 39> H 	 -15.0091 	 51.4969 	 61.724
| 40> H 	 -14.965 	 59.1363 	 64.6792
| 41> *
| 42>
| 43>                          ****END OF INPUT****

CARTESIAN COORDINATES (ANGSTROEM)
---------------------------------
  S    -15.470000   53.565200   63.085100
  C    -14.602900   52.308300   62.262000
  C    -13.210300   52.437700   62.497500
  C    -12.864600   53.586200   63.272300
  C    -13.962500   54.419700   63.484500
  H    -11.823700   53.814800   63.559800
  C    -12.165500   51.496600   61.992300
  H    -11.317000   52.118700   61.642800
  H    -12.760500   51.041800   61.198900
  C    -11.783600   50.444500   63.056500
  H    -11.572200   50.922300   64.013800
  H    -12.685700   49.944500   63.231000
  C    -10.611500   49.610500   62.571700
  H    -10.428000   49.569000   61.562700
  H     -9.653640   50.004500   62.959100
  H    -10.707400   48.549800   62.886600
  S    -15.235500   56.842200   63.683100
  C    -14.620500   58.085100   64.773000
  C    -13.481900   57.740100   65.482200
  C    -13.114900   56.378300   65.089300
  C    -13.959000   55.730900   64.166500
  H    -12.997000   58.452200   66.141900
  C    -11.841300   55.810900   65.769900
  H    -11.567800   54.768100   65.511100
  H    -11.934800   55.891100   66.877300
  C    -10.551600   56.624100   65.541200
  H    -10.616600   57.603900   65.840100
  H    -10.235000   56.600700   64.452200
  C     -9.425620   56.038100   66.482300
  H     -8.525370   56.516300   66.419200
  H     -9.404610   54.966500   66.313200
  H     -9.788970   56.106200   67.539900
  H    -15.009100   51.496900   61.724000
  H    -14.965000   59.136300   64.679200

 Total Charge           Charge          ....    0
 Multiplicity           Mult            ....    1
 Number of Electrons    NEL             ....  134
 Basis Dimension        Dim             ....  322

ORBITAL ENERGIES
----------------

  NO   OCC          E(Eh)            E(eV)
   0   2.0000     -88.970191     -2421.0020
   1   2.0000     -88.965976     -2420.8873
   2   2.0000     -10.337639      -281.3015
   3   2.0000     -10.334775      -281.2235
   4   2.0000     -10.322894      -280.9002
   5   2.0000     -10.315769      -280.7063
   6   2.0000     -10.312593      -280.6199
   7   2.0000     -10.303198      -280.3643
   8   2.0000     -10.299355      -280.2597
   9   2.0000     -10.299139      -280.2538
  10   2.0000     -10.296610      -280.1850
  11   2.0000     -10.290515      -280.0192
  12   2.0000     -10.287142      -279.9274
  13   2.0000     -10.283280      -279.8223
  14   2.0000     -10.277714      -279.6708
  15   2.0000     -10.274594      -279.5859
  16   2.0000      -8.084247      -219.9835
  17   2.0000      -8.080506      -219.8817
  18   2.0000      -6.042881      -164.4352
  19   2.0000      -6.039063      -164.3313
  20   2.0000      -6.038882      -164.3263
  21   2.0000      -6.035079      -164.2228
  22   2.0000      -6.034887      -164.2176
  23   2.0000      -6.031187      -164.1169
  24   2.0000      -1.001384       -27.2491
  25   2.0000      -0.979999       -26.6671
  26   2.0000      -0.915543       -24.9132
  27   2.0000      -0.906942       -24.6792
  28   2.0000      -0.867602       -23.6086
  29   2.0000      -0.852126       -23.1875
  30   2.0000      -0.844414       -22.9777
  31   2.0000      -0.815582       -22.1931
  32   2.0000      -0.778270       -21.1778
  33   2.0000      -0.766880       -20.8679
  34   2.0000      -0.712124       -19.3779
  35   2.0000      -0.704346       -19.1662
  36   2.0000      -0.693973       -18.8840
  37   2.0000      -0.661723       -18.0064
  38   2.0000      -0.635583       -17.2951
  39   2.0000      -0.623919       -16.9777
  40   2.0000      -0.596691       -16.2368
  41   2.0000      -0.572410       -15.5761
  42   2.0000      -0.568298       -15.4642
  43   2.0000      -0.559592       -15.2273
  44   2.0000      -0.529735       -14.4148
  45   2.0000      -0.525233       -14.2923
  46   2.0000      -0.522672       -14.2226
  47   2.0000      -0.508909       -13.8481
  48   2.0000      -0.504943       -13.7402
  49   2.0000      -0.499682       -13.5970
  50   2.0000      -0.486704       -13.2439
  51   2.0000      -0.474501       -12.9118
  52   2.0000      -0.469581       -12.7780
  53   2.0000      -0.469270       -12.7695
  54   2.0000      -0.457045       -12.4368
  55   2.0000      -0.453081       -12.3290
  56   2.0000      -0.446515       -12.1503
  57   2.0000      -0.441365       -12.0101
  58   2.0000      -0.434714       -11.8292
  59   2.0000      -0.425789       -11.5863
  60   2.0000      -0.422886       -11.5073
  61   2.0000      -0.414913       -11.2904
  62   2.0000      -0.412868       -11.2347
  63   2.0000      -0.357526        -9.7288
  64   2.0000      -0.331485        -9.0202
  65   2.0000      -0.326708        -8.8902
  66   2.0000      -0.282823        -7.6960
  67   0.0000       0.021002         0.5715
  68   0.0000       0.073016         1.9869
  69   0.0000       0.103797         2.8244
  70   0.0000       0.113514         3.0889
  71   0.0000       0.122632         3.3370

MULLIKEN ATOMIC CHARGES
-----------------------
   0 S :    0.115967
   1 C :   -0.097329
   2 C :   -0.139834
   3 C :    0.001713
   4 C :   -0.104135
   5 H :    0.023166
   6 C :    0.048953
   7 H :    0.038746
   8 H :    0.020696
   9 C :   -0.035859
  10 H :    0.026412
  11 H :    0.008345
  12 C :   -0.011365
  13 H :    0.011613
  14 H :    0.029375
  15 H :    0.036074
  16 S :    0.090029
  17 C :   -0.102198
  18 C :   -0.030652
  19 C :   -0.024441
  20 C :   -0.124428
  21 H :    0.034795
  22 C :    0.010795
  23 H :    0.023439
  24 H :    0.032701
  25 C :   -0.082869
  26 H :    0.011605
  27 H :    0.042565
  28 C :   -0.030684
  29 H :    0.026811
  30 H :    0.021206
  31 H :    0.024146
  32 H :    0.031730
  33 H :    0.072912
Sum of atomic charges:   -0.0000000

LOEWDIN ATOMIC CHARGES
----------------------
   0 S :    0.405417
   1 C :   -0.211217
   2 C :   -0.058334
   3 C :   -0.068898
   4 C :   -0.179186
   5 H :    0.033973
   6 C :   -0.032396
   7 H :    0.032431
   8 H :    0.032648
   9 C :   -0.032974
  10 H :    0.025671
  11 H :    0.018077
  12 C :   -0.064884
  13 H :    0.012989
  14 H :    0.031438
  15 H :    0.032743
  16 S :    0.393396
  17 C :   -0.180068
  18 C :   -0.067429
  19 C :   -0.051260
  20 C :   -0.196906
  21 H :    0.038217
  22 C :   -0.036340
  23 H :    0.025690
  24 H :    0.035274
  25 C :   -0.034171
  26 H :    0.006032
  27 H :    0.028242
  28 C :   -0.055582
  29 H :    0.011815
  30 H :    0.022029
  31 H :    0.028785
  32 H :    0.020234
  33 H :    0.034545

  Mayer bond orders larger than 0.100000
B(  0-S ,  1-C ) :   1.1290 B(  0-S ,  4-C ) :   1.1565 B(  1-C ,  2-C ) :   1.5865
B(  1-C ,  4-C ) :   0.1047 B(  1-C , 32-H ) :   0.9706 B(  2-C ,  3-C ) :   1.2673
B(  2-C ,  6-C ) :   1.0215 B(  3-C ,  4-C ) :   1.5497 B(  3-C ,  5-H ) :   0.9837
B(  4-C , 20-C ) :   1.0562 B(  6-C ,  7-H ) :   0.9450 B(  6-C ,  8-H ) :   0.9354
B(  6-C ,  9-C ) :   1.0573 B(  9-C , 10-H ) :   0.9634 B(  9-C , 11-H ) :   0.9544
B(  9-C , 12-C ) :   1.0649 B( 12-C , 13-H ) :   0.9754 B( 12-C , 14-H ) :   0.9742
B( 12-C , 15-H ) :   0.9746 B( 16-S , 17-C ) :   1.1585 B( 16-S , 20-C ) :   1.1206
B( 17-C , 18-C ) :   1.6253 B( 17-C , 33-H ) :   0.9577 B( 18-C , 19-C ) :   1.2130
B( 18-C , 21-H ) :   0.9907 B( 19-C , 20-C ) :   1.6107 B( 19-C , 22-C ) :   1.0294
B( 22-C , 23-H ) :   0.9481 B( 22-C , 24-H ) :   0.9410 B( 22-C , 25-C ) :   1.0568
B( 25-C , 26-H ) :   0.9545 B( 25-C , 27-H ) :   0.9562 B( 25-C , 28-C ) :   1.0747
B( 28-C , 29-H ) :   0.9761 B( 28-C , 30-H ) :   0.9767 B( 28-C , 31-H ) :   0.9728

Dispersion correction           -0.013330501
FINAL SINGLE POINT ENERGY     -1339.857854750682

DIPOLE MOMENT
-------------
                                X             Y             Z
Electronic contribution:    -29.25043      12.90484      -6.13155
Nuclear contribution   :     29.96820     -12.97316       6.29645
                        -----------------------------------------
Total Dipole Moment    :      0.71777      -0.06832       0.16491
                        -----------------------------------------
Magnitude (a.u.)       :      0.73963
Magnitude (Debye)      :      1.88000

Rotational constants in cm-1:     0.016578     0.008862     0.005968
Rotational constants in MHz :   497.008871   265.679520   178.909642

                             ****ORCA TERMINATED NORMALLY****
TOTAL RUN TIME: 0 days 0 hours 0 minutes 31 seconds 833 msec
