                         Program Version 4.2.1 -  RELEASE  -
|  1> ! wB97X-D3 SP def2-SVP
|  2> %pal
|  3> nprocs 16
|  4> end
|  5>
|  6> * xyz 0 1
|  7> S 	 45.2845 	 11.6137 	 103.78
|  8> C 	 46.7109 	 11.1825 	 104.71
|  9> C 	 47.2961 	 9.97676 	 104.218
| 10> C 	 46.4904 	 9.36134 	 103.184
| 11> C 	 45.28 	 10.0943 	 103.002
| 12> H 	 46.6339 	 8.48315 	 102.576
| 13> C 	 48.5869 	 9.33304 	 104.692
| 14> H 	 49.1821 	 10.0974 	 104.966
| 15> H 	 49.1305 	 8.8375 	 103.941
| 16> C 	 48.4149 	 8.36368 	 105.874
| 17> H 	 47.7925 	 7.5697 	 105.609
| 18> H 	 49.3904 	 7.95588 	 106.091
| 19> C 	 47.8392 	 8.96035 	 107.133
| 20> H 	 46.7447 	 9.01805 	 107.149
| 21> H 	 48.1162 	 8.46521 	 108.08
| 22> H 	 48.1061 	 9.96287 	 107.183
| 23> S 	 42.915 	 8.88817 	 102.639
| 24> C 	 42.3382 	 8.61046 	 101.005
| 25> C 	 43.2436 	 9.08448 	 100.013
| 26> C 	 44.3385 	 9.78122 	 100.606
| 27> C 	 44.2863 	 9.78887 	 102.009
| 28> H 	 43.1674 	 8.86297 	 98.9467
| 29> C 	 45.3011 	 10.4227 	 99.6707
| 30> H 	 45.7957 	 9.54987 	 99.1798
| 31> H 	 46.1024 	 10.8749 	 100.3
| 32> C 	 44.7454 	 11.332 	 98.5795
| 33> H 	 43.8869 	 10.8704 	 98.1205
| 34> H 	 45.4579 	 11.3201 	 97.7263
| 35> C 	 44.337 	 12.7497 	 99.0205
| 36> H 	 45.0941 	 13.383 	 99.501
| 37> H 	 43.5554 	 12.6551 	 99.6711
| 38> H 	 44.0091 	 13.3474 	 98.2315
| 39> H 	 47.2329 	 11.8417 	 105.407
| 40> H 	 41.4912 	 8.00426 	 100.785
| 41> *
| 42>
| 43>                          ****END OF INPUT****

CARTESIAN COORDINATES (ANGSTROEM)
---------------------------------
  S     45.284500   11.613700  103.780000
  C     46.710900   11.182500  104.710000
  C     47.296100    9.976760  104.218000
  C     46.490400    9.361340  103.184000
  C     45.280000   10.094300  103.002000
  H     46.633900    8.483150  102.576000
  C     48.586900    9.333040  104.692000
  H     49.182100   10.097400  104.966000
  H     49.130500    8.837500  103.941000
  C     48.414900    8.363680  105.874000
  H     47.792500    7.569700  105.609000
  H     49.390400    7.955880  106.091000
  C     47.839200    8.960350  107.133000
  H     46.744700    9.018050  107.149000
  H     48.116200    8.465210  108.080000
  H     48.106100    9.962870  107.183000
  S     42.915000    8.888170  102.639000
  C     42.338200    8.610460  101.005000
  C     43.243600    9.084480  100.013000
  C     44.338500    9.781220  100.606000
  C     44.286300    9.788870  102.009000
  H     43.167400    8.862970   98.946700
  C     45.301100   10.422700   99.670700
  H     45.795700    9.549870   99.179800
  H     46.102400   10.874900  100.300000
  C     44.745400   11.332000   98.579500
  H     43.886900   10.870400   98.120500
  H     45.457900   11.320100   97.726300
  C     44.337000   12.749700   99.020500
  H     45.094100   13.383000   99.501000
  H     43.555400   12.655100   99.671100
  H     44.009100   13.347400   98.231500
  H     47.232900   11.841700  105.407000
  H     41.491200    8.004260  100.785000

 Total Charge           Charge          ....    0
 Multiplicity           Mult            ....    1
 Number of Electrons    NEL             ....  134
 Basis Dimension        Dim             ....  322

ORBITAL ENERGIES
----------------

  NO   OCC          E(Eh)            E(eV)
   0   2.0000     -88.969226     -2420.9757
   1   2.0000     -88.965953     -2420.8866
   2   2.0000     -10.323536      -280.9177
   3   2.0000     -10.321120      -280.8520
   4   2.0000     -10.319493      -280.8077
   5   2.0000     -10.317939      -280.7654
   6   2.0000     -10.308276      -280.5025
   7   2.0000     -10.302168      -280.3362
   8   2.0000     -10.297679      -280.2141
   9   2.0000     -10.296487      -280.1817
  10   2.0000     -10.292563      -280.0749
  11   2.0000     -10.289028      -279.9787
  12   2.0000     -10.279199      -279.7112
  13   2.0000     -10.275959      -279.6230
  14   2.0000     -10.266344      -279.3614
  15   2.0000     -10.263704      -279.2896
  16   2.0000      -8.084153      -219.9810
  17   2.0000      -8.080438      -219.8799
  18   2.0000      -6.042428      -164.4228
  19   2.0000      -6.038821      -164.3247
  20   2.0000      -6.038656      -164.3202
  21   2.0000      -6.035130      -164.2242
  22   2.0000      -6.034962      -164.2197
  23   2.0000      -6.031367      -164.1218
  24   2.0000      -1.003054       -27.2945
  25   2.0000      -0.977174       -26.5903
  26   2.0000      -0.916302       -24.9338
  27   2.0000      -0.910040       -24.7634
  28   2.0000      -0.863230       -23.4897
  29   2.0000      -0.850700       -23.1487
  30   2.0000      -0.847000       -23.0480
  31   2.0000      -0.805855       -21.9284
  32   2.0000      -0.788821       -21.4649
  33   2.0000      -0.774493       -21.0750
  34   2.0000      -0.711990       -19.3742
  35   2.0000      -0.703683       -19.1482
  36   2.0000      -0.689875       -18.7724
  37   2.0000      -0.660433       -17.9713
  38   2.0000      -0.644929       -17.5494
  39   2.0000      -0.612434       -16.6652
  40   2.0000      -0.594383       -16.1740
  41   2.0000      -0.566120       -15.4049
  42   2.0000      -0.555821       -15.1247
  43   2.0000      -0.551278       -15.0010
  44   2.0000      -0.541720       -14.7409
  45   2.0000      -0.533372       -14.5138
  46   2.0000      -0.521291       -14.1850
  47   2.0000      -0.516063       -14.0428
  48   2.0000      -0.497864       -13.5476
  49   2.0000      -0.492917       -13.4130
  50   2.0000      -0.489984       -13.3331
  51   2.0000      -0.480292       -13.0694
  52   2.0000      -0.469249       -12.7689
  53   2.0000      -0.456161       -12.4128
  54   2.0000      -0.454676       -12.3724
  55   2.0000      -0.450259       -12.2522
  56   2.0000      -0.447998       -12.1907
  57   2.0000      -0.439589       -11.9618
  58   2.0000      -0.436038       -11.8652
  59   2.0000      -0.427393       -11.6300
  60   2.0000      -0.426256       -11.5990
  61   2.0000      -0.416427       -11.3316
  62   2.0000      -0.412818       -11.2333
  63   2.0000      -0.334158        -9.0929
  64   2.0000      -0.326273        -8.8783
  65   2.0000      -0.313784        -8.5385
  66   2.0000      -0.304374        -8.2824
  67   0.0000       0.040841         1.1113
  68   0.0000       0.049833         1.3560
  69   0.0000       0.107168         2.9162
  70   0.0000       0.113673         3.0932
  71   0.0000       0.124760         3.3949

MULLIKEN ATOMIC CHARGES
-----------------------
   0 S :    0.137038
   1 C :   -0.120127
   2 C :   -0.124488
   3 C :    0.056221
   4 C :   -0.194471
   5 H :    0.016444
   6 C :    0.138244
   7 H :   -0.012859
   8 H :    0.010242
   9 C :   -0.032264
  10 H :    0.014604
  11 H :    0.022049
  12 C :   -0.037959
  13 H :    0.034597
  14 H :    0.035658
  15 H :   -0.006513
  16 S :    0.116853
  17 C :   -0.084074
  18 C :   -0.057915
  19 C :   -0.017395
  20 C :   -0.197485
  21 H :    0.032055
  22 C :    0.054596
  23 H :    0.035018
  24 H :    0.031313
  25 C :   -0.063159
  26 H :    0.014654
  27 H :    0.025010
  28 C :    0.012426
  29 H :    0.027742
  30 H :    0.015463
  31 H :    0.014812
  32 H :    0.053924
  33 H :    0.049743
Sum of atomic charges:   -0.0000000

LOEWDIN ATOMIC CHARGES
----------------------
   0 S :    0.438872
   1 C :   -0.212675
   2 C :   -0.049899
   3 C :   -0.054805
   4 C :   -0.224523
   5 H :    0.032753
   6 C :   -0.019613
   7 H :    0.013800
   8 H :    0.028624
   9 C :   -0.027805
  10 H :    0.016774
  11 H :    0.023543
  12 C :   -0.065199
  13 H :    0.029513
  14 H :    0.030391
  15 H :    0.010007
  16 S :    0.414199
  17 C :   -0.179066
  18 C :   -0.071372
  19 C :   -0.054519
  20 C :   -0.218960
  21 H :    0.033115
  22 C :   -0.039339
  23 H :    0.041473
  24 H :    0.033835
  25 C :   -0.037273
  26 H :    0.021352
  27 H :    0.026915
  28 C :   -0.053969
  29 H :    0.028875
  30 H :    0.016838
  31 H :    0.020460
  32 H :    0.027740
  33 H :    0.019939

  Mayer bond orders larger than 0.100000
B(  0-S ,  1-C ) :   1.1500 B(  0-S ,  4-C ) :   1.1919 B(  1-C ,  2-C ) :   1.5739
B(  1-C ,  4-C ) :   0.1057 B(  1-C , 32-H ) :   0.9670 B(  2-C ,  3-C ) :   1.2483
B(  2-C ,  6-C ) :   1.0308 B(  3-C ,  4-C ) :   1.5372 B(  3-C ,  5-H ) :   1.0015
B(  4-C , 20-C ) :   1.0086 B(  6-C ,  7-H ) :   0.9249 B(  6-C ,  8-H ) :   0.9380
B(  6-C ,  9-C ) :   1.0829 B(  9-C , 10-H ) :   0.9566 B(  9-C , 11-H ) :   0.9545
B(  9-C , 12-C ) :   1.0783 B( 12-C , 13-H ) :   0.9703 B( 12-C , 14-H ) :   0.9732
B( 12-C , 15-H ) :   0.9741 B( 16-S , 17-C ) :   1.1743 B( 16-S , 20-C ) :   1.1477
B( 17-C , 18-C ) :   1.5797 B( 17-C , 20-C ) :   0.1045 B( 17-C , 33-H ) :   0.9718
B( 18-C , 19-C ) :   1.2500 B( 18-C , 21-H ) :   0.9842 B( 19-C , 20-C ) :   1.5792
B( 19-C , 22-C ) :   1.0502 B( 22-C , 23-H ) :   0.9223 B( 22-C , 24-H ) :   0.9370
B( 22-C , 25-C ) :   1.0723 B( 25-C , 26-H ) :   0.9506 B( 25-C , 27-H ) :   0.9527
B( 25-C , 28-C ) :   1.0713 B( 28-C , 29-H ) :   0.9750 B( 28-C , 30-H ) :   0.9745
B( 28-C , 31-H ) :   0.9706

Dispersion correction           -0.014733865
FINAL SINGLE POINT ENERGY     -1339.860249474337

DIPOLE MOMENT
-------------
                                X             Y             Z
Electronic contribution:    -14.22280      -0.82867       3.00250
Nuclear contribution   :     14.68123       0.63494      -3.39963
                        -----------------------------------------
Total Dipole Moment    :      0.45843      -0.19373      -0.39713
                        -----------------------------------------
Magnitude (a.u.)       :      0.63671
Magnitude (Debye)      :      1.61840

Rotational constants in cm-1:     0.022972     0.007671     0.006836
Rotational constants in MHz :   688.697698   229.976144   204.931379

                             ****ORCA TERMINATED NORMALLY****
TOTAL RUN TIME: 0 days 0 hours 0 minutes 31 seconds 687 msec
