                         Program Version 4.2.1 -  RELEASE  -
|  1> ! wB97X-D3 SP def2-SVP
|  2> %pal
|  3> nprocs 16
|  4> end
|  5>
|  6> * xyz 0 1
|  7> S 	 -40.369 	 55.9987 	 103.96
|  8> C 	 -41.826 	 56.7015 	 103.438
|  9> C 	 -42.5101 	 55.9202 	 102.517
| 10> C 	 -41.7484 	 54.7779 	 102.199
| 11> C 	 -40.5337 	 54.672 	 102.811
| 12> H 	 -42.072 	 53.998 	 101.555
| 13> C 	 -43.8901 	 56.0821 	 102.039
| 14> H 	 -44.0457 	 55.7391 	 100.965
| 15> H 	 -44.03 	 57.1121 	 101.935
| 16> C 	 -44.9639 	 55.5058 	 103.047
| 17> H 	 -44.947 	 55.96 	 103.969
| 18> H 	 -45.9668 	 55.7634 	 102.566
| 19> C 	 -45.0334 	 53.9779 	 103.22
| 20> H 	 -44.2723 	 53.575 	 103.9
| 21> H 	 -46.0031 	 53.7284 	 103.618
| 22> H 	 -44.9552 	 53.3968 	 102.316
| 23> S 	 -38.788 	 53.8504 	 100.909
| 24> C 	 -37.9912 	 52.2747 	 101.104
| 25> C 	 -38.3963 	 51.6321 	 102.289
| 26> C 	 -39.3196 	 52.4255 	 102.979
| 27> C 	 -39.5323 	 53.7051 	 102.493
| 28> H 	 -38.0297 	 50.626 	 102.568
| 29> C 	 -40.0585 	 51.8066 	 104.215
| 30> H 	 -40.1967 	 50.7167 	 104.11
| 31> H 	 -41.0466 	 52.2389 	 104.245
| 32> C 	 -39.3439 	 52.0143 	 105.56
| 33> H 	 -39.3098 	 53.0192 	 105.868
| 34> H 	 -38.3334 	 51.532 	 105.561
| 35> C 	 -40.1681 	 51.3963 	 106.755
| 36> H 	 -39.715 	 51.6607 	 107.734
| 37> H 	 -40.1441 	 50.3649 	 106.69
| 38> H 	 -41.1822 	 51.8022 	 106.724
| 39> H 	 -42.2492 	 57.6773 	 103.654
| 40> H 	 -37.3316 	 51.7964 	 100.417
| 41> *
| 42>
| 43>                          ****END OF INPUT****

CARTESIAN COORDINATES (ANGSTROEM)
---------------------------------
  S    -40.369000   55.998700  103.960000
  C    -41.826000   56.701500  103.438000
  C    -42.510100   55.920200  102.517000
  C    -41.748400   54.777900  102.199000
  C    -40.533700   54.672000  102.811000
  H    -42.072000   53.998000  101.555000
  C    -43.890100   56.082100  102.039000
  H    -44.045700   55.739100  100.965000
  H    -44.030000   57.112100  101.935000
  C    -44.963900   55.505800  103.047000
  H    -44.947000   55.960000  103.969000
  H    -45.966800   55.763400  102.566000
  C    -45.033400   53.977900  103.220000
  H    -44.272300   53.575000  103.900000
  H    -46.003100   53.728400  103.618000
  H    -44.955200   53.396800  102.316000
  S    -38.788000   53.850400  100.909000
  C    -37.991200   52.274700  101.104000
  C    -38.396300   51.632100  102.289000
  C    -39.319600   52.425500  102.979000
  C    -39.532300   53.705100  102.493000
  H    -38.029700   50.626000  102.568000
  C    -40.058500   51.806600  104.215000
  H    -40.196700   50.716700  104.110000
  H    -41.046600   52.238900  104.245000
  C    -39.343900   52.014300  105.560000
  H    -39.309800   53.019200  105.868000
  H    -38.333400   51.532000  105.561000
  C    -40.168100   51.396300  106.755000
  H    -39.715000   51.660700  107.734000
  H    -40.144100   50.364900  106.690000
  H    -41.182200   51.802200  106.724000
  H    -42.249200   57.677300  103.654000
  H    -37.331600   51.796400  100.417000

 Total Charge           Charge          ....    0
 Multiplicity           Mult            ....    1
 Number of Electrons    NEL             ....  134
 Basis Dimension        Dim             ....  322

ORBITAL ENERGIES
----------------

  NO   OCC          E(Eh)            E(eV)
   0   2.0000     -88.967301     -2420.9233
   1   2.0000     -88.967253     -2420.9220
   2   2.0000     -10.321348      -280.8582
   3   2.0000     -10.321080      -280.8509
   4   2.0000     -10.320898      -280.8459
   5   2.0000     -10.310728      -280.5692
   6   2.0000     -10.302355      -280.3413
   7   2.0000     -10.296374      -280.1786
   8   2.0000     -10.292275      -280.0670
   9   2.0000     -10.291792      -280.0539
  10   2.0000     -10.291507      -280.0461
  11   2.0000     -10.291099      -280.0350
  12   2.0000     -10.283893      -279.8389
  13   2.0000     -10.282576      -279.8031
  14   2.0000     -10.275076      -279.5990
  15   2.0000     -10.272180      -279.5202
  16   2.0000      -8.082339      -219.9316
  17   2.0000      -8.081295      -219.9032
  18   2.0000      -6.040780      -164.3780
  19   2.0000      -6.039762      -164.3503
  20   2.0000      -6.036668      -164.2661
  21   2.0000      -6.035949      -164.2465
  22   2.0000      -6.033280      -164.1739
  23   2.0000      -6.032082      -164.1413
  24   2.0000      -1.009956       -27.4823
  25   2.0000      -0.985432       -26.8150
  26   2.0000      -0.910117       -24.7655
  27   2.0000      -0.899798       -24.4847
  28   2.0000      -0.872776       -23.7494
  29   2.0000      -0.851221       -23.1629
  30   2.0000      -0.845341       -23.0029
  31   2.0000      -0.814112       -22.1531
  32   2.0000      -0.782835       -21.3020
  33   2.0000      -0.768192       -20.9036
  34   2.0000      -0.705685       -19.2027
  35   2.0000      -0.704706       -19.1760
  36   2.0000      -0.690420       -18.7873
  37   2.0000      -0.664332       -18.0774
  38   2.0000      -0.642904       -17.4943
  39   2.0000      -0.616959       -16.7883
  40   2.0000      -0.591396       -16.0927
  41   2.0000      -0.575094       -15.6491
  42   2.0000      -0.569346       -15.4927
  43   2.0000      -0.546301       -14.8656
  44   2.0000      -0.543128       -14.7793
  45   2.0000      -0.519748       -14.1431
  46   2.0000      -0.516004       -14.0412
  47   2.0000      -0.508832       -13.8460
  48   2.0000      -0.500256       -13.6127
  49   2.0000      -0.497843       -13.5470
  50   2.0000      -0.488625       -13.2961
  51   2.0000      -0.479880       -13.0582
  52   2.0000      -0.471972       -12.8430
  53   2.0000      -0.468043       -12.7361
  54   2.0000      -0.461716       -12.5639
  55   2.0000      -0.443543       -12.0694
  56   2.0000      -0.440269       -11.9803
  57   2.0000      -0.438687       -11.9373
  58   2.0000      -0.431260       -11.7352
  59   2.0000      -0.427833       -11.6419
  60   2.0000      -0.424932       -11.5630
  61   2.0000      -0.415614       -11.3094
  62   2.0000      -0.408313       -11.1108
  63   2.0000      -0.339717        -9.2442
  64   2.0000      -0.330379        -8.9901
  65   2.0000      -0.320732        -8.7276
  66   2.0000      -0.302332        -8.2269
  67   0.0000       0.041827         1.1382
  68   0.0000       0.049311         1.3418
  69   0.0000       0.106256         2.8914
  70   0.0000       0.123446         3.3591
  71   0.0000       0.134092         3.6488

MULLIKEN ATOMIC CHARGES
-----------------------
   0 S :    0.132556
   1 C :   -0.104720
   2 C :   -0.101645
   3 C :    0.044454
   4 C :   -0.189649
   5 H :   -0.002905
   6 C :    0.079158
   7 H :    0.036306
   8 H :    0.001579
   9 C :   -0.051499
  10 H :    0.016146
  11 H :    0.032576
  12 C :   -0.047472
  13 H :    0.040797
  14 H :    0.026945
  15 H :    0.021128
  16 S :    0.114021
  17 C :   -0.088586
  18 C :   -0.035451
  19 C :   -0.020465
  20 C :   -0.150193
  21 H :    0.032581
  22 C :    0.063479
  23 H :    0.022562
  24 H :    0.021166
  25 C :   -0.073554
  26 H :    0.022591
  27 H :    0.035105
  28 C :   -0.048290
  29 H :    0.035391
  30 H :    0.016014
  31 H :    0.032794
  32 H :    0.039310
  33 H :    0.047771
Sum of atomic charges:    0.0000000

LOEWDIN ATOMIC CHARGES
----------------------
   0 S :    0.426625
   1 C :   -0.211719
   2 C :   -0.073179
   3 C :   -0.051300
   4 C :   -0.208042
   5 H :    0.026370
   6 C :   -0.035185
   7 H :    0.040201
   8 H :    0.022826
   9 C :   -0.025360
  10 H :    0.013381
  11 H :    0.031538
  12 C :   -0.067783
  13 H :    0.025876
  14 H :    0.026393
  15 H :    0.021709
  16 S :    0.409283
  17 C :   -0.170665
  18 C :   -0.074177
  19 C :   -0.048568
  20 C :   -0.209491
  21 H :    0.039018
  22 C :   -0.028095
  23 H :    0.030289
  24 H :    0.025958
  25 C :   -0.035350
  26 H :    0.015676
  27 H :    0.026882
  28 C :   -0.060163
  29 H :    0.029184
  30 H :    0.008777
  31 H :    0.025269
  32 H :    0.030519
  33 H :    0.023304

  Mayer bond orders larger than 0.100000
B(  0-S ,  1-C ) :   1.1643 B(  0-S ,  4-C ) :   1.1348 B(  1-C ,  2-C ) :   1.5864
B(  1-C , 32-H ) :   0.9611 B(  2-C ,  3-C ) :   1.2579 B(  2-C ,  6-C ) :   1.0381
B(  3-C ,  4-C ) :   1.5722 B(  3-C ,  5-H ) :   1.0068 B(  4-C , 20-C ) :   1.0293
B(  6-C ,  7-H ) :   0.9423 B(  6-C ,  8-H ) :   0.9227 B(  6-C ,  9-C ) :   1.0662
B(  9-C , 10-H ) :   0.9570 B(  9-C , 11-H ) :   0.9587 B(  9-C , 12-C ) :   1.0797
B( 12-C , 13-H ) :   0.9744 B( 12-C , 14-H ) :   0.9730 B( 12-C , 15-H ) :   0.9742
B( 16-S , 17-C ) :   1.1740 B( 16-S , 20-C ) :   1.1288 B( 17-C , 18-C ) :   1.5784
B( 17-C , 20-C ) :   0.1080 B( 17-C , 33-H ) :   0.9694 B( 18-C , 19-C ) :   1.2745
B( 18-C , 21-H ) :   0.9861 B( 19-C , 20-C ) :   1.5920 B( 19-C , 22-C ) :   1.0294
B( 22-C , 23-H ) :   0.9454 B( 22-C , 24-H ) :   0.9286 B( 22-C , 25-C ) :   1.0747
B( 25-C , 26-H ) :   0.9579 B( 25-C , 27-H ) :   0.9575 B( 25-C , 28-C ) :   1.0763
B( 28-C , 29-H ) :   0.9766 B( 28-C , 30-H ) :   0.9789 B( 28-C , 31-H ) :   0.9757

Dispersion correction           -0.014776234
FINAL SINGLE POINT ENERGY     -1339.869148233845

DIPOLE MOMENT
-------------
                                X             Y             Z
Electronic contribution:     18.40857      11.01162     -12.83094
Nuclear contribution   :    -18.92524     -11.35853      12.84749
                        -----------------------------------------
Total Dipole Moment    :     -0.51667      -0.34691       0.01655
                        -----------------------------------------
Magnitude (a.u.)       :      0.62255
Magnitude (Debye)      :      1.58239

Rotational constants in cm-1:     0.016733     0.009349     0.007685
Rotational constants in MHz :   501.645179   280.274870   230.398297

                             ****ORCA TERMINATED NORMALLY****
TOTAL RUN TIME: 0 days 0 hours 0 minutes 30 seconds 649 msec
