                         Program Version 4.2.1 -  RELEASE  -
|  1> ! wB97X-D3 SP def2-SVP
|  2> %pal
|  3> nprocs 16
|  4> end
|  5>
|  6> * xyz 0 1
|  7> S 	 3.0001 	 -25.4423 	 86.0571
|  8> C 	 1.68881 	 -25.8047 	 84.9373
|  9> C 	 0.683075 	 -26.4068 	 85.6334
| 10> C 	 0.901679 	 -26.629 	 87.0316
| 11> C 	 2.1543 	 -26.2165 	 87.3819
| 12> H 	 0.31387 	 -27.0747 	 87.7953
| 13> C 	 -0.642711 	 -26.8961 	 85.0966
| 14> H 	 -0.745111 	 -26.4067 	 84.1432
| 15> H 	 -1.44624 	 -26.4531 	 85.6081
| 16> C 	 -0.756174 	 -28.4286 	 84.8861
| 17> H 	 -1.78862 	 -28.583 	 84.4216
| 18> H 	 0.132537 	 -28.7409 	 84.3326
| 19> C 	 -0.831481 	 -29.209 	 86.2468
| 20> H 	 -1.12617 	 -30.2438 	 86.0206
| 21> H 	 0.101265 	 -29.2685 	 86.8161
| 22> H 	 -1.65005 	 -28.8044 	 86.8374
| 23> S 	 4.26081 	 -26.6923 	 89.0195
| 24> C 	 4.19943 	 -26.4119 	 90.7356
| 25> C 	 2.88044 	 -26.1521 	 91.1046
| 26> C 	 2.03545 	 -25.9015 	 90.019
| 27> C 	 2.63085 	 -26.1284 	 88.7561
| 28> H 	 2.61459 	 -25.9678 	 92.1662
| 29> C 	 0.560807 	 -25.5063 	 90.2811
| 30> H 	 0.131571 	 -26.3905 	 90.7899
| 31> H 	 0.0269297 	 -25.3517 	 89.4014
| 32> C 	 0.280879 	 -24.2869 	 91.2393
| 33> H 	 0.783748 	 -23.3953 	 90.7204
| 34> H 	 0.905637 	 -24.3889 	 92.2007
| 35> C 	 -1.17677 	 -23.987 	 91.441
| 36> H 	 -1.73458 	 -24.8569 	 91.7046
| 37> H 	 -1.68231 	 -23.6385 	 90.5116
| 38> H 	 -1.35983 	 -23.1623 	 92.0247
| 39> H 	 1.65046 	 -25.533 	 83.8617
| 40> H 	 4.96818 	 -26.5919 	 91.4268
| 41> *
| 42>
| 43>                          ****END OF INPUT****

CARTESIAN COORDINATES (ANGSTROEM)
---------------------------------
  S      3.000100  -25.442300   86.057100
  C      1.688810  -25.804700   84.937300
  C      0.683075  -26.406800   85.633400
  C      0.901679  -26.629000   87.031600
  C      2.154300  -26.216500   87.381900
  H      0.313870  -27.074700   87.795300
  C     -0.642711  -26.896100   85.096600
  H     -0.745111  -26.406700   84.143200
  H     -1.446240  -26.453100   85.608100
  C     -0.756174  -28.428600   84.886100
  H     -1.788620  -28.583000   84.421600
  H      0.132537  -28.740900   84.332600
  C     -0.831481  -29.209000   86.246800
  H     -1.126170  -30.243800   86.020600
  H      0.101265  -29.268500   86.816100
  H     -1.650050  -28.804400   86.837400
  S      4.260810  -26.692300   89.019500
  C      4.199430  -26.411900   90.735600
  C      2.880440  -26.152100   91.104600
  C      2.035450  -25.901500   90.019000
  C      2.630850  -26.128400   88.756100
  H      2.614590  -25.967800   92.166200
  C      0.560807  -25.506300   90.281100
  H      0.131571  -26.390500   90.789900
  H      0.026930  -25.351700   89.401400
  C      0.280879  -24.286900   91.239300
  H      0.783748  -23.395300   90.720400
  H      0.905637  -24.388900   92.200700
  C     -1.176770  -23.987000   91.441000
  H     -1.734580  -24.856900   91.704600
  H     -1.682310  -23.638500   90.511600
  H     -1.359830  -23.162300   92.024700
  H      1.650460  -25.533000   83.861700
  H      4.968180  -26.591900   91.426800

 Total Charge           Charge          ....    0
 Multiplicity           Mult            ....    1
 Number of Electrons    NEL             ....  134
 Basis Dimension        Dim             ....  322

ORBITAL ENERGIES
----------------

  NO   OCC          E(Eh)            E(eV)
   0   2.0000     -88.965220     -2420.8667
   1   2.0000     -88.964293     -2420.8415
   2   2.0000     -10.328123      -281.0425
   3   2.0000     -10.327406      -281.0230
   4   2.0000     -10.318261      -280.7742
   5   2.0000     -10.315483      -280.6986
   6   2.0000     -10.307175      -280.4725
   7   2.0000     -10.298910      -280.2476
   8   2.0000     -10.298553      -280.2379
   9   2.0000     -10.296890      -280.1926
  10   2.0000     -10.294754      -280.1345
  11   2.0000     -10.292678      -280.0780
  12   2.0000     -10.288355      -279.9604
  13   2.0000     -10.281729      -279.7801
  14   2.0000     -10.278702      -279.6977
  15   2.0000     -10.273462      -279.5551
  16   2.0000      -8.079867      -219.8644
  17   2.0000      -8.079289      -219.8486
  18   2.0000      -6.038493      -164.3157
  19   2.0000      -6.037647      -164.2927
  20   2.0000      -6.034435      -164.2053
  21   2.0000      -6.033638      -164.1836
  22   2.0000      -6.030433      -164.0964
  23   2.0000      -6.030307      -164.0930
  24   2.0000      -1.009016       -27.4567
  25   2.0000      -0.986603       -26.8468
  26   2.0000      -0.908602       -24.7243
  27   2.0000      -0.904373       -24.6093
  28   2.0000      -0.870942       -23.6996
  29   2.0000      -0.854294       -23.2465
  30   2.0000      -0.841942       -22.9104
  31   2.0000      -0.817168       -22.2363
  32   2.0000      -0.784183       -21.3387
  33   2.0000      -0.773821       -21.0567
  34   2.0000      -0.703963       -19.1558
  35   2.0000      -0.699064       -19.0225
  36   2.0000      -0.694780       -18.9059
  37   2.0000      -0.659656       -17.9501
  38   2.0000      -0.644742       -17.5443
  39   2.0000      -0.618140       -16.8204
  40   2.0000      -0.599064       -16.3013
  41   2.0000      -0.576535       -15.6883
  42   2.0000      -0.560613       -15.2551
  43   2.0000      -0.544922       -14.8281
  44   2.0000      -0.532338       -14.4857
  45   2.0000      -0.529815       -14.4170
  46   2.0000      -0.519393       -14.1334
  47   2.0000      -0.513978       -13.9860
  48   2.0000      -0.506003       -13.7690
  49   2.0000      -0.504087       -13.7169
  50   2.0000      -0.493767       -13.4361
  51   2.0000      -0.481112       -13.0917
  52   2.0000      -0.472944       -12.8695
  53   2.0000      -0.467782       -12.7290
  54   2.0000      -0.461867       -12.5680
  55   2.0000      -0.451609       -12.2889
  56   2.0000      -0.445478       -12.1221
  57   2.0000      -0.433639       -11.7999
  58   2.0000      -0.427468       -11.6320
  59   2.0000      -0.424538       -11.5523
  60   2.0000      -0.417112       -11.3502
  61   2.0000      -0.409311       -11.1379
  62   2.0000      -0.407569       -11.0905
  63   2.0000      -0.350704        -9.5431
  64   2.0000      -0.331440        -9.0190
  65   2.0000      -0.330011        -8.9800
  66   2.0000      -0.291824        -7.9409
  67   0.0000       0.026952         0.7334
  68   0.0000       0.074623         2.0306
  69   0.0000       0.113170         3.0795
  70   0.0000       0.115752         3.1498
  71   0.0000       0.136792         3.7223

MULLIKEN ATOMIC CHARGES
-----------------------
   0 S :    0.105533
   1 C :   -0.127455
   2 C :   -0.111473
   3 C :    0.015621
   4 C :   -0.104927
   5 H :    0.012582
   6 C :    0.098685
   7 H :   -0.005165
   8 H :    0.012717
   9 C :   -0.069024
  10 H :    0.047040
  11 H :    0.041928
  12 C :   -0.077857
  13 H :    0.032455
  14 H :    0.054760
  15 H :    0.025895
  16 S :    0.099502
  17 C :   -0.068701
  18 C :   -0.061841
  19 C :   -0.030908
  20 C :   -0.160773
  21 H :    0.035723
  22 C :    0.063611
  23 H :    0.035351
  24 H :    0.006743
  25 C :   -0.131001
  26 H :    0.040243
  27 H :    0.038645
  28 C :    0.012246
  29 H :    0.023869
  30 H :    0.020148
  31 H :    0.019227
  32 H :    0.063397
  33 H :    0.043206
Sum of atomic charges:    0.0000000

LOEWDIN ATOMIC CHARGES
----------------------
   0 S :    0.396951
   1 C :   -0.200681
   2 C :   -0.063314
   3 C :   -0.058654
   4 C :   -0.190297
   5 H :    0.031313
   6 C :   -0.036865
   7 H :    0.023780
   8 H :    0.022434
   9 C :   -0.032355
  10 H :    0.036250
  11 H :    0.028622
  12 C :   -0.074222
  13 H :    0.026761
  14 H :    0.026498
  15 H :    0.021626
  16 S :    0.419645
  17 C :   -0.180613
  18 C :   -0.075846
  19 C :   -0.057833
  20 C :   -0.203741
  21 H :    0.036753
  22 C :   -0.029044
  23 H :    0.034089
  24 H :    0.015928
  25 C :   -0.049426
  26 H :    0.032219
  27 H :    0.026217
  28 C :   -0.063684
  29 H :    0.022322
  30 H :    0.033288
  31 H :    0.019315
  32 H :    0.041814
  33 H :    0.020754

  Mayer bond orders larger than 0.100000
B(  0-S ,  1-C ) :   1.1112 B(  0-S ,  4-C ) :   1.1522 B(  1-C ,  2-C ) :   1.6417
B(  1-C , 32-H ) :   0.9647 B(  2-C ,  3-C ) :   1.1991 B(  2-C ,  6-C ) :   1.0255
B(  3-C ,  4-C ) :   1.5863 B(  3-C ,  5-H ) :   1.0025 B(  4-C , 20-C ) :   1.0212
B(  6-C ,  7-H ) :   0.9293 B(  6-C ,  8-H ) :   0.9369 B(  6-C ,  9-C ) :   1.0681
B(  9-C , 10-H ) :   0.9546 B(  9-C , 11-H ) :   0.9530 B(  9-C , 12-C ) :   1.0849
B( 12-C , 13-H ) :   0.9724 B( 12-C , 14-H ) :   0.9689 B( 12-C , 15-H ) :   0.9739
B( 16-S , 17-C ) :   1.1736 B( 16-S , 20-C ) :   1.1570 B( 17-C , 18-C ) :   1.5674
B( 17-C , 20-C ) :   0.1131 B( 17-C , 33-H ) :   0.9757 B( 18-C , 19-C ) :   1.2898
B( 18-C , 21-H ) :   0.9803 B( 19-C , 20-C ) :   1.5534 B( 19-C , 22-C ) :   1.0305
B( 22-C , 23-H ) :   0.9352 B( 22-C , 24-H ) :   0.9423 B( 22-C , 25-C ) :   1.0531
B( 25-C , 26-H ) :   0.9539 B( 25-C , 27-H ) :   0.9542 B( 25-C , 28-C ) :   1.0876
B( 28-C , 29-H ) :   0.9734 B( 28-C , 30-H ) :   0.9650 B( 28-C , 31-H ) :   0.9690

Dispersion correction           -0.014080461
FINAL SINGLE POINT ENERGY     -1339.869665235927

DIPOLE MOMENT
-------------
                                X             Y             Z
Electronic contribution:     26.82189       2.43100      -5.46724
Nuclear contribution   :    -27.56298      -2.46985       5.66794
                        -----------------------------------------
Total Dipole Moment    :     -0.74109      -0.03885       0.20070
                        -----------------------------------------
Magnitude (a.u.)       :      0.76876
Magnitude (Debye)      :      1.95404

Rotational constants in cm-1:     0.016086     0.009198     0.007208
Rotational constants in MHz :   482.242714   275.763364   216.087864

                             ****ORCA TERMINATED NORMALLY****
TOTAL RUN TIME: 0 days 0 hours 0 minutes 33 seconds 325 msec
