                         Program Version 4.2.1 -  RELEASE  -
|  1> ! wB97X-D3 SP def2-SVP
|  2> %pal
|  3> nprocs 16
|  4> end
|  5>
|  6> * xyz 0 1
|  7> S 	 8.97295 	 22.3049 	 37.5432
|  8> C 	 10.3161 	 21.9074 	 36.5367
|  9> C 	 11.476 	 21.5063 	 37.2773
| 10> C 	 11.2789 	 21.6485 	 38.6648
| 11> C 	 10.053 	 22.24 	 38.9773
| 12> H 	 11.9708 	 21.447 	 39.5221
| 13> C 	 12.8193 	 21.1786 	 36.605
| 14> H 	 12.7405 	 20.2124 	 36.1323
| 15> H 	 13.611 	 21.0431 	 37.2899
| 16> C 	 13.2844 	 22.1456 	 35.5093
| 17> H 	 12.5151 	 22.2184 	 34.8194
| 18> H 	 13.3591 	 23.2226 	 35.7758
| 19> C 	 14.6275 	 21.6857 	 34.7594
| 20> H 	 14.9143 	 22.3629 	 33.988
| 21> H 	 15.4019 	 21.6121 	 35.5722
| 22> H 	 14.4232 	 20.7086 	 34.3476
| 23> S 	 7.93036 	 21.9537 	 40.7084
| 24> C 	 8.13128 	 22.2319 	 42.3933
| 25> C 	 9.44138 	 22.5572 	 42.7125
| 26> C 	 10.3052 	 22.6749 	 41.555
| 27> C 	 9.60981 	 22.35 	 40.3494
| 28> H 	 9.70578 	 22.6605 	 43.7409
| 29> C 	 11.8008 	 23.1252 	 41.7573
| 30> H 	 12.3966 	 23.1047 	 40.8287
| 31> H 	 12.2375 	 22.4963 	 42.5499
| 32> C 	 11.9079 	 24.5776 	 42.275
| 33> H 	 11.2733 	 24.6178 	 43.164
| 34> H 	 11.4182 	 25.085 	 41.4459
| 35> C 	 13.2873 	 25.0869 	 42.4971
| 36> H 	 13.2518 	 26.1763 	 42.3997
| 37> H 	 13.8932 	 24.7777 	 41.6195
| 38> H 	 13.7728 	 24.6167 	 43.3002
| 39> H 	 10.2161 	 21.966 	 35.4584
| 40> H 	 7.28474 	 22.0661 	 43.0041
| 41> *
| 42>
| 43>                          ****END OF INPUT****

CARTESIAN COORDINATES (ANGSTROEM)
---------------------------------
  S      8.972950   22.304900   37.543200
  C     10.316100   21.907400   36.536700
  C     11.476000   21.506300   37.277300
  C     11.278900   21.648500   38.664800
  C     10.053000   22.240000   38.977300
  H     11.970800   21.447000   39.522100
  C     12.819300   21.178600   36.605000
  H     12.740500   20.212400   36.132300
  H     13.611000   21.043100   37.289900
  C     13.284400   22.145600   35.509300
  H     12.515100   22.218400   34.819400
  H     13.359100   23.222600   35.775800
  C     14.627500   21.685700   34.759400
  H     14.914300   22.362900   33.988000
  H     15.401900   21.612100   35.572200
  H     14.423200   20.708600   34.347600
  S      7.930360   21.953700   40.708400
  C      8.131280   22.231900   42.393300
  C      9.441380   22.557200   42.712500
  C     10.305200   22.674900   41.555000
  C      9.609810   22.350000   40.349400
  H      9.705780   22.660500   43.740900
  C     11.800800   23.125200   41.757300
  H     12.396600   23.104700   40.828700
  H     12.237500   22.496300   42.549900
  C     11.907900   24.577600   42.275000
  H     11.273300   24.617800   43.164000
  H     11.418200   25.085000   41.445900
  C     13.287300   25.086900   42.497100
  H     13.251800   26.176300   42.399700
  H     13.893200   24.777700   41.619500
  H     13.772800   24.616700   43.300200
  H     10.216100   21.966000   35.458400
  H      7.284740   22.066100   43.004100

 Total Charge           Charge          ....    0
 Multiplicity           Mult            ....    1
 Number of Electrons    NEL             ....  134
 Basis Dimension        Dim             ....  322

ORBITAL ENERGIES
----------------

  NO   OCC          E(Eh)            E(eV)
   0   2.0000     -88.973356     -2421.0881
   1   2.0000     -88.962751     -2420.7995
   2   2.0000     -10.331832      -281.1435
   3   2.0000     -10.331535      -281.1354
   4   2.0000     -10.319331      -280.8033
   5   2.0000     -10.313035      -280.6320
   6   2.0000     -10.312894      -280.6281
   7   2.0000     -10.310166      -280.5539
   8   2.0000     -10.299517      -280.2641
   9   2.0000     -10.298095      -280.2254
  10   2.0000     -10.296119      -280.1716
  11   2.0000     -10.290896      -280.0295
  12   2.0000     -10.285519      -279.8832
  13   2.0000     -10.285301      -279.8773
  14   2.0000     -10.278998      -279.7058
  15   2.0000     -10.275321      -279.6057
  16   2.0000      -8.087391      -220.0691
  17   2.0000      -8.078204      -219.8191
  18   2.0000      -6.045838      -164.5156
  19   2.0000      -6.042115      -164.4143
  20   2.0000      -6.038160      -164.3067
  21   2.0000      -6.036635      -164.2652
  22   2.0000      -6.032564      -164.1544
  23   2.0000      -6.029076      -164.0595
  24   2.0000      -1.002707       -27.2850
  25   2.0000      -0.979929       -26.6652
  26   2.0000      -0.911627       -24.8066
  27   2.0000      -0.906705       -24.6727
  28   2.0000      -0.868773       -23.6405
  29   2.0000      -0.854187       -23.2436
  30   2.0000      -0.846286       -23.0286
  31   2.0000      -0.808749       -22.0072
  32   2.0000      -0.783307       -21.3149
  33   2.0000      -0.768202       -20.9038
  34   2.0000      -0.711176       -19.3521
  35   2.0000      -0.697449       -18.9786
  36   2.0000      -0.689634       -18.7659
  37   2.0000      -0.662732       -18.0339
  38   2.0000      -0.640422       -17.4268
  39   2.0000      -0.616502       -16.7759
  40   2.0000      -0.598376       -16.2826
  41   2.0000      -0.576128       -15.6772
  42   2.0000      -0.568789       -15.4775
  43   2.0000      -0.555558       -15.1175
  44   2.0000      -0.527000       -14.3404
  45   2.0000      -0.522967       -14.2306
  46   2.0000      -0.520529       -14.1643
  47   2.0000      -0.511135       -13.9087
  48   2.0000      -0.507183       -13.8011
  49   2.0000      -0.494349       -13.4519
  50   2.0000      -0.486411       -13.2359
  51   2.0000      -0.484763       -13.1911
  52   2.0000      -0.480564       -13.0768
  53   2.0000      -0.460723       -12.5369
  54   2.0000      -0.459034       -12.4910
  55   2.0000      -0.453608       -12.3433
  56   2.0000      -0.446009       -12.1365
  57   2.0000      -0.440823       -11.9954
  58   2.0000      -0.426478       -11.6051
  59   2.0000      -0.424956       -11.5636
  60   2.0000      -0.418494       -11.3878
  61   2.0000      -0.416418       -11.3313
  62   2.0000      -0.414322       -11.2743
  63   2.0000      -0.358749        -9.7620
  64   2.0000      -0.333656        -9.0792
  65   2.0000      -0.328061        -8.9270
  66   2.0000      -0.276964        -7.5366
  67   0.0000       0.018798         0.5115
  68   0.0000       0.073918         2.0114
  69   0.0000       0.098851         2.6899
  70   0.0000       0.118232         3.2173
  71   0.0000       0.136306         3.7091

MULLIKEN ATOMIC CHARGES
-----------------------
   0 S :    0.118022
   1 C :   -0.140313
   2 C :   -0.051080
   3 C :   -0.025162
   4 C :   -0.131045
   5 H :    0.047896
   6 C :    0.111792
   7 H :    0.024457
   8 H :    0.003131
   9 C :   -0.091823
  10 H :    0.000205
  11 H :    0.032091
  12 C :   -0.055806
  13 H :    0.041042
  14 H :    0.041703
  15 H :    0.030907
  16 S :    0.090364
  17 C :   -0.090787
  18 C :   -0.020496
  19 C :   -0.046374
  20 C :   -0.152618
  21 H :    0.017039
  22 C :    0.035125
  23 H :    0.024930
  24 H :    0.029775
  25 C :   -0.111184
  26 H :    0.026980
  27 H :    0.032034
  28 C :    0.017211
  29 H :    0.045579
  30 H :    0.011105
  31 H :    0.025300
  32 H :    0.059420
  33 H :    0.050584
Sum of atomic charges:   -0.0000000

LOEWDIN ATOMIC CHARGES
----------------------
   0 S :    0.405735
   1 C :   -0.204163
   2 C :   -0.056738
   3 C :   -0.059997
   4 C :   -0.186298
   5 H :    0.044879
   6 C :   -0.026832
   7 H :    0.033369
   8 H :    0.020408
   9 C :   -0.039353
  10 H :    0.006668
  11 H :    0.026897
  12 C :   -0.058363
  13 H :    0.023696
  14 H :    0.030350
  15 H :    0.022071
  16 S :    0.407199
  17 C :   -0.187703
  18 C :   -0.068453
  19 C :   -0.057712
  20 C :   -0.192692
  21 H :    0.028089
  22 C :   -0.032933
  23 H :    0.025049
  24 H :    0.028147
  25 C :   -0.045918
  26 H :    0.019760
  27 H :    0.027432
  28 C :   -0.063010
  29 H :    0.036515
  30 H :    0.028649
  31 H :    0.019950
  32 H :    0.025199
  33 H :    0.020102

  Mayer bond orders larger than 0.100000
B(  0-S ,  1-C ) :   1.1617 B(  0-S ,  4-C ) :   1.1444 B(  1-C ,  2-C ) :   1.5460
B(  1-C ,  4-C ) :   0.1065 B(  1-C , 32-H ) :   0.9706 B(  2-C ,  3-C ) :   1.2832
B(  2-C ,  6-C ) :   1.0201 B(  3-C ,  4-C ) :   1.5371 B(  3-C ,  5-H ) :   0.9794
B(  4-C , 20-C ) :   1.0944 B(  6-C ,  7-H ) :   0.9279 B(  6-C ,  8-H ) :   0.9501
B(  6-C ,  9-C ) :   1.0575 B(  9-C , 10-H ) :   0.9517 B(  9-C , 11-H ) :   0.9590
B(  9-C , 12-C ) :   1.0737 B( 12-C , 13-H ) :   0.9765 B( 12-C , 14-H ) :   0.9803
B( 12-C , 15-H ) :   0.9775 B( 16-S , 17-C ) :   1.1670 B( 16-S , 20-C ) :   1.1454
B( 17-C , 18-C ) :   1.5816 B( 17-C , 33-H ) :   0.9770 B( 18-C , 19-C ) :   1.2452
B( 18-C , 21-H ) :   0.9956 B( 19-C , 20-C ) :   1.5671 B( 19-C , 22-C ) :   1.0369
B( 22-C , 23-H ) :   0.9379 B( 22-C , 24-H ) :   0.9377 B( 22-C , 25-C ) :   1.0594
B( 25-C , 26-H ) :   0.9551 B( 25-C , 27-H ) :   0.9559 B( 25-C , 28-C ) :   1.0905
B( 28-C , 29-H ) :   0.9702 B( 28-C , 30-H ) :   0.9644 B( 28-C , 31-H ) :   0.9711

Dispersion correction           -0.013186198
FINAL SINGLE POINT ENERGY     -1339.866528261625

DIPOLE MOMENT
-------------
                                X             Y             Z
Electronic contribution:    -30.00546      -6.39715       2.74879
Nuclear contribution   :     30.59368       6.38213      -2.71187
                        -----------------------------------------
Total Dipole Moment    :      0.58821      -0.01501       0.03692
                        -----------------------------------------
Magnitude (a.u.)       :      0.58956
Magnitude (Debye)      :      1.49855

Rotational constants in cm-1:     0.017556     0.008074     0.005883
Rotational constants in MHz :   526.312505   242.058614   176.376114

                             ****ORCA TERMINATED NORMALLY****
TOTAL RUN TIME: 0 days 0 hours 0 minutes 31 seconds 499 msec
