                         Program Version 4.2.1 -  RELEASE  -
|  1> ! wB97X-D3 SP def2-SVP
|  2> %pal
|  3> nprocs 16
|  4> end
|  5>
|  6> * xyz 0 1
|  7> S 	 7.20769 	 -5.55896 	 86.1652
|  8> C 	 7.28252 	 -3.82442 	 85.8247
|  9> C 	 6.21663 	 -3.22799 	 86.5384
| 10> C 	 5.40094 	 -4.04057 	 87.3956
| 11> C 	 5.86259 	 -5.36104 	 87.2777
| 12> H 	 4.48774 	 -3.76151 	 87.9325
| 13> C 	 5.82891 	 -1.77709 	 86.5694
| 14> H 	 4.76252 	 -1.68019 	 86.8117
| 15> H 	 6.05329 	 -1.3396 	 85.5768
| 16> C 	 6.50873 	 -1.04395 	 87.7944
| 17> H 	 6.04159 	 -0.0740897 	 87.784
| 18> H 	 6.10912 	 -1.48763 	 88.677
| 19> C 	 7.99853 	 -0.921289 	 87.7212
| 20> H 	 8.34466 	 -0.350615 	 88.5402
| 21> H 	 8.41697 	 -1.85992 	 87.8032
| 22> H 	 8.29853 	 -0.437375 	 86.7242
| 23> S 	 4.83784 	 -7.85123 	 86.8797
| 24> C 	 4.07731 	 -8.6676 	 88.2169
| 25> C 	 4.0217 	 -7.89895 	 89.3929
| 26> C 	 4.68149 	 -6.6359 	 89.2098
| 27> C 	 5.24691 	 -6.50452 	 87.9494
| 28> H 	 3.45974 	 -8.18675 	 90.3395
| 29> C 	 4.91802 	 -5.69464 	 90.3692
| 30> H 	 4.42167 	 -6.06735 	 91.2468
| 31> H 	 4.30221 	 -4.78642 	 90.1864
| 32> C 	 6.38432 	 -5.24756 	 90.5742
| 33> H 	 6.51927 	 -4.52506 	 89.8256
| 34> H 	 7.14424 	 -5.94866 	 90.2893
| 35> C 	 6.66522 	 -4.63574 	 91.9289
| 36> H 	 5.9861 	 -3.81571 	 92.0237
| 37> H 	 7.67252 	 -4.29219 	 92.0874
| 38> H 	 6.35039 	 -5.20099 	 92.8268
| 39> H 	 8.00313 	 -3.22421 	 85.2995
| 40> H 	 3.47624 	 -9.58168 	 88.0625
| 41> *
| 42>
| 43>                          ****END OF INPUT****

CARTESIAN COORDINATES (ANGSTROEM)
---------------------------------
  S      7.207690   -5.558960   86.165200
  C      7.282520   -3.824420   85.824700
  C      6.216630   -3.227990   86.538400
  C      5.400940   -4.040570   87.395600
  C      5.862590   -5.361040   87.277700
  H      4.487740   -3.761510   87.932500
  C      5.828910   -1.777090   86.569400
  H      4.762520   -1.680190   86.811700
  H      6.053290   -1.339600   85.576800
  C      6.508730   -1.043950   87.794400
  H      6.041590   -0.074090   87.784000
  H      6.109120   -1.487630   88.677000
  C      7.998530   -0.921289   87.721200
  H      8.344660   -0.350615   88.540200
  H      8.416970   -1.859920   87.803200
  H      8.298530   -0.437375   86.724200
  S      4.837840   -7.851230   86.879700
  C      4.077310   -8.667600   88.216900
  C      4.021700   -7.898950   89.392900
  C      4.681490   -6.635900   89.209800
  C      5.246910   -6.504520   87.949400
  H      3.459740   -8.186750   90.339500
  C      4.918020   -5.694640   90.369200
  H      4.421670   -6.067350   91.246800
  H      4.302210   -4.786420   90.186400
  C      6.384320   -5.247560   90.574200
  H      6.519270   -4.525060   89.825600
  H      7.144240   -5.948660   90.289300
  C      6.665220   -4.635740   91.928900
  H      5.986100   -3.815710   92.023700
  H      7.672520   -4.292190   92.087400
  H      6.350390   -5.200990   92.826800
  H      8.003130   -3.224210   85.299500
  H      3.476240   -9.581680   88.062500

 Total Charge           Charge          ....    0
 Multiplicity           Mult            ....    1
 Number of Electrons    NEL             ....  134
 Basis Dimension        Dim             ....  322

ORBITAL ENERGIES
----------------

  NO   OCC          E(Eh)            E(eV)
   0   2.0000     -88.972117     -2421.0544
   1   2.0000     -88.967956     -2420.9412
   2   2.0000     -10.335003      -281.2297
   3   2.0000     -10.325888      -280.9817
   4   2.0000     -10.321801      -280.8705
   5   2.0000     -10.317689      -280.7586
   6   2.0000     -10.305398      -280.4241
   7   2.0000     -10.304255      -280.3930
   8   2.0000     -10.302319      -280.3403
   9   2.0000     -10.297564      -280.2110
  10   2.0000     -10.294334      -280.1231
  11   2.0000     -10.290709      -280.0244
  12   2.0000     -10.281346      -279.7697
  13   2.0000     -10.275744      -279.6172
  14   2.0000     -10.272694      -279.5342
  15   2.0000     -10.271195      -279.4934
  16   2.0000      -8.085768      -220.0249
  17   2.0000      -8.082657      -219.9403
  18   2.0000      -6.044404      -164.4766
  19   2.0000      -6.041104      -164.3868
  20   2.0000      -6.040347      -164.3662
  21   2.0000      -6.037201      -164.2806
  22   2.0000      -6.036528      -164.2623
  23   2.0000      -6.033443      -164.1783
  24   2.0000      -1.004384       -27.3307
  25   2.0000      -0.979560       -26.6552
  26   2.0000      -0.911711       -24.8089
  27   2.0000      -0.909821       -24.7575
  28   2.0000      -0.864382       -23.5210
  29   2.0000      -0.855776       -23.2869
  30   2.0000      -0.849483       -23.1156
  31   2.0000      -0.808253       -21.9937
  32   2.0000      -0.782185       -21.2843
  33   2.0000      -0.772253       -21.0141
  34   2.0000      -0.714481       -19.4420
  35   2.0000      -0.700719       -19.0675
  36   2.0000      -0.692018       -18.8308
  37   2.0000      -0.661428       -17.9984
  38   2.0000      -0.636575       -17.3221
  39   2.0000      -0.615325       -16.7438
  40   2.0000      -0.594833       -16.1862
  41   2.0000      -0.563177       -15.3248
  42   2.0000      -0.556234       -15.1359
  43   2.0000      -0.547678       -14.9031
  44   2.0000      -0.541151       -14.7255
  45   2.0000      -0.529494       -14.4083
  46   2.0000      -0.522555       -14.2194
  47   2.0000      -0.517183       -14.0733
  48   2.0000      -0.502195       -13.6654
  49   2.0000      -0.496653       -13.5146
  50   2.0000      -0.490357       -13.3433
  51   2.0000      -0.486796       -13.2464
  52   2.0000      -0.467594       -12.7239
  53   2.0000      -0.461024       -12.5451
  54   2.0000      -0.456107       -12.4113
  55   2.0000      -0.452009       -12.2998
  56   2.0000      -0.447104       -12.1663
  57   2.0000      -0.442925       -12.0526
  58   2.0000      -0.436774       -11.8852
  59   2.0000      -0.432663       -11.7734
  60   2.0000      -0.420787       -11.4502
  61   2.0000      -0.407828       -11.0976
  62   2.0000      -0.403521       -10.9804
  63   2.0000      -0.348635        -9.4868
  64   2.0000      -0.332634        -9.0514
  65   2.0000      -0.327967        -8.9244
  66   2.0000      -0.285165        -7.7597
  67   0.0000       0.023021         0.6264
  68   0.0000       0.067444         1.8352
  69   0.0000       0.101128         2.7518
  70   0.0000       0.117538         3.1984
  71   0.0000       0.123879         3.3709

MULLIKEN ATOMIC CHARGES
-----------------------
   0 S :    0.114837
   1 C :   -0.099700
   2 C :   -0.104874
   3 C :    0.002529
   4 C :   -0.145502
   5 H :    0.036150
   6 C :    0.023716
   7 H :    0.025263
   8 H :    0.029704
   9 C :   -0.060341
  10 H :    0.018543
  11 H :    0.011117
  12 C :   -0.005693
  13 H :    0.027455
  14 H :    0.024066
  15 H :    0.035302
  16 S :    0.110114
  17 C :   -0.100353
  18 C :   -0.055861
  19 C :   -0.050311
  20 C :   -0.148323
  21 H :    0.047793
  22 C :    0.065241
  23 H :    0.000625
  24 H :    0.021921
  25 C :   -0.022635
  26 H :    0.018663
  27 H :    0.029734
  28 C :   -0.028473
  29 H :    0.004083
  30 H :    0.036072
  31 H :    0.025407
  32 H :    0.043635
  33 H :    0.070096
Sum of atomic charges:   -0.0000000

LOEWDIN ATOMIC CHARGES
----------------------
   0 S :    0.403418
   1 C :   -0.215603
   2 C :   -0.054825
   3 C :   -0.069337
   4 C :   -0.183242
   5 H :    0.039702
   6 C :   -0.034423
   7 H :    0.031574
   8 H :    0.027083
   9 C :   -0.033544
  10 H :    0.019763
  11 H :    0.017093
  12 C :   -0.057895
  13 H :    0.023835
  14 H :    0.014839
  15 H :    0.035037
  16 S :    0.408174
  17 C :   -0.193337
  18 C :   -0.076797
  19 C :   -0.056773
  20 C :   -0.197093
  21 H :    0.045570
  22 C :   -0.028829
  23 H :    0.022738
  24 H :    0.033534
  25 C :   -0.037087
  26 H :    0.020842
  27 H :    0.024310
  28 C :   -0.065078
  29 H :    0.019686
  30 H :    0.026293
  31 H :    0.026371
  32 H :    0.031028
  33 H :    0.032974

  Mayer bond orders larger than 0.100000
B(  0-S ,  1-C ) :   1.1013 B(  0-S ,  4-C ) :   1.1741 B(  1-C ,  2-C ) :   1.6006
B(  1-C , 32-H ) :   0.9728 B(  2-C ,  3-C ) :   1.2316 B(  2-C ,  6-C ) :   1.0413
B(  3-C ,  4-C ) :   1.5380 B(  3-C ,  5-H ) :   0.9887 B(  4-C , 20-C ) :   1.0382
B(  6-C ,  7-H ) :   0.9403 B(  6-C ,  8-H ) :   0.9448 B(  6-C ,  9-C ) :   1.0672
B(  9-C , 10-H ) :   0.9546 B(  9-C , 11-H ) :   0.9515 B(  9-C , 12-C ) :   1.0803
B( 12-C , 13-H ) :   0.9685 B( 12-C , 14-H ) :   0.9725 B( 12-C , 15-H ) :   0.9725
B( 16-S , 17-C ) :   1.1649 B( 16-S , 20-C ) :   1.1400 B( 17-C , 18-C ) :   1.5922
B( 17-C , 33-H ) :   0.9617 B( 18-C , 19-C ) :   1.2600 B( 18-C , 21-H ) :   0.9763
B( 19-C , 20-C ) :   1.5921 B( 19-C , 22-C ) :   1.0471 B( 22-C , 23-H ) :   0.9391
B( 22-C , 24-H ) :   0.9189 B( 22-C , 25-C ) :   1.0450 B( 25-C , 26-H ) :   0.9387
B( 25-C , 27-H ) :   0.9620 B( 25-C , 28-C ) :   1.0911 B( 28-C , 29-H ) :   0.9687
B( 28-C , 30-H ) :   0.9736 B( 28-C , 31-H ) :   0.9761

Dispersion correction           -0.015530188
FINAL SINGLE POINT ENERGY     -1339.866823001543

DIPOLE MOMENT
-------------
                                X             Y             Z
Electronic contribution:     -4.16145     -23.61832     -17.85579
Nuclear contribution   :      3.85668      24.14954      18.30823
                        -----------------------------------------
Total Dipole Moment    :     -0.30476       0.53122       0.45244
                        -----------------------------------------
Magnitude (a.u.)       :      0.76143
Magnitude (Debye)      :      1.93540

Rotational constants in cm-1:     0.019289     0.009875     0.007435
Rotational constants in MHz :   578.272361   296.052384   222.910414

                             ****ORCA TERMINATED NORMALLY****
TOTAL RUN TIME: 0 days 0 hours 0 minutes 36 seconds 86 msec
