                         Program Version 4.2.1 -  RELEASE  -
|  1> ! wB97X-D3 SP def2-SVP
|  2> %pal
|  3> nprocs 16
|  4> end
|  5>
|  6> * xyz 0 1
|  7> S 	 -42.8562 	 24.7161 	 83.1038
|  8> C 	 -43.502 	 23.4156 	 84.07
|  9> C 	 -43.0473 	 22.2104 	 83.6216
| 10> C 	 -42.2212 	 22.3451 	 82.4996
| 11> C 	 -42.0097 	 23.6126 	 82.0315
| 12> H 	 -41.7566 	 21.5356 	 81.9952
| 13> C 	 -43.3679 	 20.8989 	 84.3193
| 14> H 	 -44.2032 	 20.4496 	 83.7148
| 15> H 	 -43.7325 	 21.0852 	 85.362
| 16> C 	 -42.2381 	 19.8149 	 84.4204
| 17> H 	 -42.6612 	 19.0052 	 85.0629
| 18> H 	 -41.9185 	 19.2324 	 83.4909
| 19> C 	 -40.9735 	 20.2955 	 85.0596
| 20> H 	 -40.3593 	 19.5219 	 85.4605
| 21> H 	 -40.425 	 20.9671 	 84.4096
| 22> H 	 -41.19 	 20.8721 	 85.9598
| 23> S 	 -42.0121 	 25.4458 	 80.075
| 24> C 	 -40.7833 	 25.3777 	 78.7725
| 25> C 	 -39.7027 	 24.5747 	 79.1514
| 26> C 	 -39.993 	 23.7599 	 80.2798
| 27> C 	 -41.1854 	 24.1251 	 80.8991
| 28> H 	 -38.7904 	 24.619 	 78.6029
| 29> C 	 -38.9793 	 22.8188 	 80.8665
| 30> H 	 -39.3812 	 22.5974 	 81.8706
| 31> H 	 -38.0019 	 23.3646 	 81.0194
| 32> C 	 -38.8747 	 21.4704 	 80.0898
| 33> H 	 -38.2305 	 21.6188 	 79.1961
| 34> H 	 -39.9276 	 21.1666 	 79.9684
| 35> C 	 -38.1068 	 20.3903 	 80.9629
| 36> H 	 -38.1575 	 19.4634 	 80.4184
| 37> H 	 -38.3792 	 20.2739 	 82.0332
| 38> H 	 -37.1414 	 20.8351 	 81.0337
| 39> H 	 -44.0929 	 23.496 	 84.9747
| 40> H 	 -40.8264 	 25.919 	 77.8588
| 41> *
| 42>
| 43>                          ****END OF INPUT****

CARTESIAN COORDINATES (ANGSTROEM)
---------------------------------
  S    -42.856200   24.716100   83.103800
  C    -43.502000   23.415600   84.070000
  C    -43.047300   22.210400   83.621600
  C    -42.221200   22.345100   82.499600
  C    -42.009700   23.612600   82.031500
  H    -41.756600   21.535600   81.995200
  C    -43.367900   20.898900   84.319300
  H    -44.203200   20.449600   83.714800
  H    -43.732500   21.085200   85.362000
  C    -42.238100   19.814900   84.420400
  H    -42.661200   19.005200   85.062900
  H    -41.918500   19.232400   83.490900
  C    -40.973500   20.295500   85.059600
  H    -40.359300   19.521900   85.460500
  H    -40.425000   20.967100   84.409600
  H    -41.190000   20.872100   85.959800
  S    -42.012100   25.445800   80.075000
  C    -40.783300   25.377700   78.772500
  C    -39.702700   24.574700   79.151400
  C    -39.993000   23.759900   80.279800
  C    -41.185400   24.125100   80.899100
  H    -38.790400   24.619000   78.602900
  C    -38.979300   22.818800   80.866500
  H    -39.381200   22.597400   81.870600
  H    -38.001900   23.364600   81.019400
  C    -38.874700   21.470400   80.089800
  H    -38.230500   21.618800   79.196100
  H    -39.927600   21.166600   79.968400
  C    -38.106800   20.390300   80.962900
  H    -38.157500   19.463400   80.418400
  H    -38.379200   20.273900   82.033200
  H    -37.141400   20.835100   81.033700
  H    -44.092900   23.496000   84.974700
  H    -40.826400   25.919000   77.858800

 Total Charge           Charge          ....    0
 Multiplicity           Mult            ....    1
 Number of Electrons    NEL             ....  134
 Basis Dimension        Dim             ....  322

ORBITAL ENERGIES
----------------

  NO   OCC          E(Eh)            E(eV)
   0   2.0000     -88.966789     -2420.9094
   1   2.0000     -88.964797     -2420.8552
   2   2.0000     -10.333355      -281.1849
   3   2.0000     -10.332858      -281.1714
   4   2.0000     -10.320922      -280.8466
   5   2.0000     -10.310030      -280.5502
   6   2.0000     -10.305160      -280.4177
   7   2.0000     -10.304598      -280.4024
   8   2.0000     -10.297244      -280.2022
   9   2.0000     -10.296272      -280.1758
  10   2.0000     -10.296151      -280.1725
  11   2.0000     -10.296041      -280.1695
  12   2.0000     -10.296036      -280.1694
  13   2.0000     -10.287001      -279.9235
  14   2.0000     -10.279478      -279.7188
  15   2.0000     -10.270272      -279.4683
  16   2.0000      -8.080773      -219.8890
  17   2.0000      -8.079513      -219.8547
  18   2.0000      -6.039339      -164.3388
  19   2.0000      -6.038059      -164.3039
  20   2.0000      -6.035444      -164.2328
  21   2.0000      -6.034011      -164.1938
  22   2.0000      -6.031442      -164.1239
  23   2.0000      -6.030244      -164.0913
  24   2.0000      -1.008107       -27.4320
  25   2.0000      -0.984371       -26.7861
  26   2.0000      -0.909935       -24.7606
  27   2.0000      -0.904771       -24.6201
  28   2.0000      -0.870136       -23.6776
  29   2.0000      -0.850328       -23.1386
  30   2.0000      -0.844723       -22.9861
  31   2.0000      -0.819675       -22.3045
  32   2.0000      -0.781264       -21.2593
  33   2.0000      -0.770154       -20.9569
  34   2.0000      -0.706485       -19.2244
  35   2.0000      -0.694083       -18.8870
  36   2.0000      -0.691920       -18.8281
  37   2.0000      -0.665555       -18.1107
  38   2.0000      -0.640868       -17.4389
  39   2.0000      -0.624885       -17.0040
  40   2.0000      -0.590906       -16.0794
  41   2.0000      -0.573132       -15.5957
  42   2.0000      -0.564008       -15.3474
  43   2.0000      -0.554077       -15.0772
  44   2.0000      -0.541686       -14.7400
  45   2.0000      -0.531779       -14.4705
  46   2.0000      -0.524279       -14.2664
  47   2.0000      -0.508279       -13.8310
  48   2.0000      -0.502041       -13.6612
  49   2.0000      -0.496129       -13.5004
  50   2.0000      -0.487786       -13.2733
  51   2.0000      -0.483100       -13.1458
  52   2.0000      -0.472407       -12.8549
  53   2.0000      -0.465563       -12.6686
  54   2.0000      -0.457370       -12.4457
  55   2.0000      -0.446876       -12.1601
  56   2.0000      -0.439592       -11.9619
  57   2.0000      -0.437144       -11.8953
  58   2.0000      -0.433869       -11.8062
  59   2.0000      -0.427505       -11.6330
  60   2.0000      -0.420089       -11.4312
  61   2.0000      -0.413056       -11.2398
  62   2.0000      -0.411816       -11.2061
  63   2.0000      -0.352784        -9.5997
  64   2.0000      -0.333372        -9.0715
  65   2.0000      -0.329073        -8.9545
  66   2.0000      -0.286724        -7.8022
  67   0.0000       0.026678         0.7260
  68   0.0000       0.067274         1.8306
  69   0.0000       0.101884         2.7724
  70   0.0000       0.117037         3.1847
  71   0.0000       0.127044         3.4571

MULLIKEN ATOMIC CHARGES
-----------------------
   0 S :    0.098252
   1 C :   -0.123676
   2 C :   -0.080719
   3 C :    0.024147
   4 C :   -0.112498
   5 H :   -0.016675
   6 C :    0.055292
   7 H :    0.055528
   8 H :    0.033393
   9 C :   -0.122706
  10 H :    0.032606
  11 H :    0.041016
  12 C :   -0.025246
  13 H :    0.027018
  14 H :    0.036936
  15 H :    0.013253
  16 S :    0.093881
  17 C :   -0.085625
  18 C :   -0.018030
  19 C :   -0.038527
  20 C :   -0.130347
  21 H :    0.014069
  22 C :    0.010330
  23 H :    0.022339
  24 H :    0.046634
  25 C :   -0.092228
  26 H :    0.046503
  27 H :    0.045064
  28 C :   -0.047315
  29 H :    0.046197
  30 H :    0.036998
  31 H :    0.020326
  32 H :    0.044021
  33 H :    0.049792
Sum of atomic charges:    0.0000000

LOEWDIN ATOMIC CHARGES
----------------------
   0 S :    0.399527
   1 C :   -0.198501
   2 C :   -0.072382
   3 C :   -0.072558
   4 C :   -0.185857
   5 H :    0.023073
   6 C :   -0.031339
   7 H :    0.043363
   8 H :    0.035494
   9 C :   -0.055822
  10 H :    0.029957
  11 H :    0.029718
  12 C :   -0.069381
  13 H :    0.024177
  14 H :    0.023070
  15 H :    0.024665
  16 S :    0.387418
  17 C :   -0.163743
  18 C :   -0.060454
  19 C :   -0.061587
  20 C :   -0.185845
  21 H :    0.029069
  22 C :   -0.039806
  23 H :    0.029740
  24 H :    0.037095
  25 C :   -0.034526
  26 H :    0.030719
  27 H :    0.025705
  28 C :   -0.068727
  29 H :    0.025414
  30 H :    0.027509
  31 H :    0.021568
  32 H :    0.030742
  33 H :    0.022503

  Mayer bond orders larger than 0.100000
B(  0-S ,  1-C ) :   1.1339 B(  0-S ,  4-C ) :   1.1523 B(  1-C ,  2-C ) :   1.6150
B(  1-C , 32-H ) :   0.9672 B(  2-C ,  3-C ) :   1.2524 B(  2-C ,  6-C ) :   1.0128
B(  3-C ,  4-C ) :   1.5788 B(  3-C ,  5-H ) :   1.0054 B(  4-C , 20-C ) :   1.0024
B(  6-C ,  7-H ) :   0.9345 B(  6-C ,  8-H ) :   0.9455 B(  6-C ,  9-C ) :   1.0713
B(  9-C , 10-H ) :   0.9539 B(  9-C , 11-H ) :   0.9512 B(  9-C , 12-C ) :   1.0864
B( 12-C , 13-H ) :   0.9710 B( 12-C , 14-H ) :   0.9699 B( 12-C , 15-H ) :   0.9687
B( 16-S , 17-C ) :   1.1463 B( 16-S , 20-C ) :   1.1355 B( 17-C , 18-C ) :   1.6095
B( 17-C , 20-C ) :   0.1060 B( 17-C , 33-H ) :   0.9734 B( 18-C , 19-C ) :   1.2194
B( 18-C , 21-H ) :   0.9936 B( 19-C , 20-C ) :   1.6045 B( 19-C , 22-C ) :   1.0473
B( 22-C , 23-H ) :   0.9411 B( 22-C , 24-H ) :   0.9385 B( 22-C , 25-C ) :   1.0478
B( 25-C , 26-H ) :   0.9566 B( 25-C , 27-H ) :   0.9573 B( 25-C , 28-C ) :   1.0711
B( 28-C , 29-H ) :   0.9774 B( 28-C , 30-H ) :   0.9778 B( 28-C , 31-H ) :   0.9732

Dispersion correction           -0.014842195
FINAL SINGLE POINT ENERGY     -1339.873394122850

DIPOLE MOMENT
-------------
                                X             Y             Z
Electronic contribution:    -14.31439      27.30155      -8.10392
Nuclear contribution   :     14.73936     -27.87821       8.16334
                        -----------------------------------------
Total Dipole Moment    :      0.42496      -0.57666       0.05942
                        -----------------------------------------
Magnitude (a.u.)       :      0.71879
Magnitude (Debye)      :      1.82702

Rotational constants in cm-1:     0.016662     0.010646     0.006882
Rotational constants in MHz :   499.505595   319.153067   206.307097

                             ****ORCA TERMINATED NORMALLY****
TOTAL RUN TIME: 0 days 0 hours 0 minutes 30 seconds 868 msec
