                         Program Version 4.2.1 -  RELEASE  -
|  1> ! wB97X-D3 SP def2-SVP
|  2> %pal
|  3> nprocs 16
|  4> end
|  5>
|  6> * xyz 0 1
|  7> S 	 45.7914 	 13.9336 	 85.3642
|  8> C 	 46.4036 	 14.7097 	 83.8894
|  9> C 	 45.3474 	 15.2641 	 83.1424
| 10> C 	 44.0487 	 14.917 	 83.6735
| 11> C 	 44.1116 	 14.1104 	 84.7842
| 12> H 	 43.1348 	 15.3399 	 83.3748
| 13> C 	 45.4294 	 16.1296 	 81.922
| 14> H 	 46.4976 	 16.1464 	 81.7135
| 15> H 	 45.2631 	 17.1735 	 82.368
| 16> C 	 44.4703 	 16.1222 	 80.732
| 17> H 	 44.5728 	 15.162 	 80.3262
| 18> H 	 43.4545 	 16.3312 	 81.1604
| 19> C 	 44.988 	 17.0999 	 79.6567
| 20> H 	 44.8644 	 18.1053 	 80.0776
| 21> H 	 46.0512 	 16.8838 	 79.5202
| 22> H 	 44.5505 	 16.9233 	 78.7198
| 23> S 	 42.491 	 14.4632 	 86.9878
| 24> C 	 41.0923 	 13.3996 	 87.1986
| 25> C 	 40.991 	 12.4578 	 86.1783
| 26> C 	 42.0535 	 12.6261 	 85.1674
| 27> C 	 42.9876 	 13.5915 	 85.5143
| 28> H 	 40.0915 	 11.9444 	 86.1536
| 29> C 	 41.9532 	 11.8481 	 83.9079
| 30> H 	 41.5343 	 10.8258 	 84.2665
| 31> H 	 42.904 	 11.61 	 83.5569
| 32> C 	 41.0009 	 12.5613 	 82.8727
| 33> H 	 41.2604 	 13.6058 	 82.9045
| 34> H 	 39.9294 	 12.4857 	 83.0471
| 35> C 	 41.3305 	 12.126 	 81.4157
| 36> H 	 40.7248 	 12.5463 	 80.6145
| 37> H 	 41.3094 	 11.0774 	 81.303
| 38> H 	 42.351 	 12.3836 	 81.2121
| 39> H 	 47.5099 	 14.7862 	 83.7475
| 40> H 	 40.3356 	 13.5241 	 87.9253
| 41> *
| 42>
| 43>                          ****END OF INPUT****

CARTESIAN COORDINATES (ANGSTROEM)
---------------------------------
  S     45.791400   13.933600   85.364200
  C     46.403600   14.709700   83.889400
  C     45.347400   15.264100   83.142400
  C     44.048700   14.917000   83.673500
  C     44.111600   14.110400   84.784200
  H     43.134800   15.339900   83.374800
  C     45.429400   16.129600   81.922000
  H     46.497600   16.146400   81.713500
  H     45.263100   17.173500   82.368000
  C     44.470300   16.122200   80.732000
  H     44.572800   15.162000   80.326200
  H     43.454500   16.331200   81.160400
  C     44.988000   17.099900   79.656700
  H     44.864400   18.105300   80.077600
  H     46.051200   16.883800   79.520200
  H     44.550500   16.923300   78.719800
  S     42.491000   14.463200   86.987800
  C     41.092300   13.399600   87.198600
  C     40.991000   12.457800   86.178300
  C     42.053500   12.626100   85.167400
  C     42.987600   13.591500   85.514300
  H     40.091500   11.944400   86.153600
  C     41.953200   11.848100   83.907900
  H     41.534300   10.825800   84.266500
  H     42.904000   11.610000   83.556900
  C     41.000900   12.561300   82.872700
  H     41.260400   13.605800   82.904500
  H     39.929400   12.485700   83.047100
  C     41.330500   12.126000   81.415700
  H     40.724800   12.546300   80.614500
  H     41.309400   11.077400   81.303000
  H     42.351000   12.383600   81.212100
  H     47.509900   14.786200   83.747500
  H     40.335600   13.524100   87.925300

 Total Charge           Charge          ....    0
 Multiplicity           Mult            ....    1
 Number of Electrons    NEL             ....  134
 Basis Dimension        Dim             ....  322

ORBITAL ENERGIES
----------------

  NO   OCC          E(Eh)            E(eV)
   0   2.0000     -88.963964     -2420.8325
   1   2.0000     -88.962470     -2420.7919
   2   2.0000     -10.328680      -281.0577
   3   2.0000     -10.324003      -280.9304
   4   2.0000     -10.322775      -280.8970
   5   2.0000     -10.317055      -280.7413
   6   2.0000     -10.307810      -280.4898
   7   2.0000     -10.306652      -280.4583
   8   2.0000     -10.294432      -280.1257
   9   2.0000     -10.293297      -280.0949
  10   2.0000     -10.291947      -280.0581
  11   2.0000     -10.291745      -280.0526
  12   2.0000     -10.291594      -280.0485
  13   2.0000     -10.290512      -280.0191
  14   2.0000     -10.281057      -279.7618
  15   2.0000     -10.270644      -279.4784
  16   2.0000      -8.077913      -219.8112
  17   2.0000      -8.076522      -219.7733
  18   2.0000      -6.036495      -164.2614
  19   2.0000      -6.035154      -164.2249
  20   2.0000      -6.032645      -164.1566
  21   2.0000      -6.031159      -164.1162
  22   2.0000      -6.028533      -164.0447
  23   2.0000      -6.027167      -164.0075
  24   2.0000      -0.998322       -27.1657
  25   2.0000      -0.974068       -26.5057
  26   2.0000      -0.915465       -24.9111
  27   2.0000      -0.904396       -24.6099
  28   2.0000      -0.870779       -23.6951
  29   2.0000      -0.849935       -23.1279
  30   2.0000      -0.846266       -23.0281
  31   2.0000      -0.815378       -22.1876
  32   2.0000      -0.779630       -21.2148
  33   2.0000      -0.766236       -20.8503
  34   2.0000      -0.713885       -19.4258
  35   2.0000      -0.705471       -19.1968
  36   2.0000      -0.692063       -18.8320
  37   2.0000      -0.661730       -18.0066
  38   2.0000      -0.643662       -17.5149
  39   2.0000      -0.621220       -16.9042
  40   2.0000      -0.590655       -16.0725
  41   2.0000      -0.581588       -15.8258
  42   2.0000      -0.565180       -15.3793
  43   2.0000      -0.555591       -15.1184
  44   2.0000      -0.528612       -14.3843
  45   2.0000      -0.526803       -14.3350
  46   2.0000      -0.520133       -14.1535
  47   2.0000      -0.514259       -13.9937
  48   2.0000      -0.505085       -13.7441
  49   2.0000      -0.494389       -13.4530
  50   2.0000      -0.488333       -13.2882
  51   2.0000      -0.475805       -12.9473
  52   2.0000      -0.472120       -12.8470
  53   2.0000      -0.464884       -12.6501
  54   2.0000      -0.456258       -12.4154
  55   2.0000      -0.447438       -12.1754
  56   2.0000      -0.442438       -12.0393
  57   2.0000      -0.436923       -11.8893
  58   2.0000      -0.434078       -11.8119
  59   2.0000      -0.430756       -11.7215
  60   2.0000      -0.423289       -11.5183
  61   2.0000      -0.416859       -11.3433
  62   2.0000      -0.414013       -11.2659
  63   2.0000      -0.336545        -9.1579
  64   2.0000      -0.323126        -8.7927
  65   2.0000      -0.321670        -8.7531
  66   2.0000      -0.301135        -8.1943
  67   0.0000       0.038619         1.0509
  68   0.0000       0.053642         1.4597
  69   0.0000       0.108872         2.9626
  70   0.0000       0.116210         3.1622
  71   0.0000       0.123280         3.3546

MULLIKEN ATOMIC CHARGES
-----------------------
   0 S :    0.100935
   1 C :   -0.154358
   2 C :   -0.055340
   3 C :    0.043390
   4 C :   -0.164131
   5 H :    0.006804
   6 C :   -0.012606
   7 H :    0.008082
   8 H :    0.040106
   9 C :   -0.037125
  10 H :    0.023229
  11 H :    0.045928
  12 C :   -0.018784
  13 H :    0.036817
  14 H :    0.027413
  15 H :    0.030444
  16 S :    0.096103
  17 C :   -0.086814
  18 C :   -0.007980
  19 C :   -0.052664
  20 C :   -0.162072
  21 H :    0.002120
  22 C :    0.081974
  23 H :    0.035979
  24 H :    0.014089
  25 C :   -0.052511
  26 H :    0.023920
  27 H :    0.037600
  28 C :   -0.036179
  29 H :    0.033427
  30 H :    0.016386
  31 H :    0.020296
  32 H :    0.070147
  33 H :    0.045374
Sum of atomic charges:   -0.0000000

LOEWDIN ATOMIC CHARGES
----------------------
   0 S :    0.378913
   1 C :   -0.201646
   2 C :   -0.059767
   3 C :   -0.052857
   4 C :   -0.183797
   5 H :    0.023536
   6 C :   -0.049555
   7 H :    0.026120
   8 H :    0.043207
   9 C :   -0.035764
  10 H :    0.017113
  11 H :    0.030418
  12 C :   -0.051612
  13 H :    0.028741
  14 H :    0.029439
  15 H :    0.020371
  16 S :    0.379176
  17 C :   -0.165124
  18 C :   -0.065799
  19 C :   -0.043881
  20 C :   -0.201815
  21 H :    0.021410
  22 C :   -0.028268
  23 H :    0.042957
  24 H :    0.021852
  25 C :   -0.029111
  26 H :    0.021230
  27 H :    0.025248
  28 C :   -0.063403
  29 H :    0.025832
  30 H :    0.016738
  31 H :    0.022280
  32 H :    0.036410
  33 H :    0.021411

  Mayer bond orders larger than 0.100000
B(  0-S ,  1-C ) :   1.1273 B(  0-S ,  4-C ) :   1.1375 B(  1-C ,  2-C ) :   1.6052
B(  1-C , 32-H ) :   0.9640 B(  2-C ,  3-C ) :   1.2101 B(  2-C ,  6-C ) :   1.0332
B(  3-C ,  4-C ) :   1.6072 B(  3-C ,  5-H ) :   0.9955 B(  4-C , 20-C ) :   1.0326
B(  6-C ,  7-H ) :   0.9410 B(  6-C ,  8-H ) :   0.9268 B(  6-C ,  9-C ) :   1.0511
B(  9-C , 10-H ) :   0.9570 B(  9-C , 11-H ) :   0.9463 B(  9-C , 12-C ) :   1.0795
B( 12-C , 13-H ) :   0.9780 B( 12-C , 14-H ) :   0.9734 B( 12-C , 15-H ) :   0.9740
B( 16-S , 17-C ) :   1.1476 B( 16-S , 20-C ) :   1.1163 B( 17-C , 18-C ) :   1.6503
B( 17-C , 33-H ) :   0.9685 B( 18-C , 19-C ) :   1.1914 B( 18-C , 21-H ) :   0.9946
B( 19-C , 20-C ) :   1.6335 B( 19-C , 22-C ) :   1.0645 B( 22-C , 23-H ) :   0.9295
B( 22-C , 24-H ) :   0.9354 B( 22-C , 25-C ) :   1.0347 B( 25-C , 26-H ) :   0.9612
B( 25-C , 27-H ) :   0.9579 B( 25-C , 28-C ) :   1.0803 B( 28-C , 29-H ) :   0.9754
B( 28-C , 30-H ) :   0.9745 B( 28-C , 31-H ) :   0.9769

Dispersion correction           -0.014476943
FINAL SINGLE POINT ENERGY     -1339.856461001215

DIPOLE MOMENT
-------------
                                X             Y             Z
Electronic contribution:      6.00878      -2.41871      30.08873
Nuclear contribution   :     -6.34426       2.58170     -30.82446
                        -----------------------------------------
Total Dipole Moment    :     -0.33548       0.16299      -0.73573
                        -----------------------------------------
Magnitude (a.u.)       :      0.82487
Magnitude (Debye)      :      2.09664

Rotational constants in cm-1:     0.017242     0.009101     0.006939
Rotational constants in MHz :   516.889274   272.834275   208.032494

                             ****ORCA TERMINATED NORMALLY****
TOTAL RUN TIME: 0 days 0 hours 0 minutes 28 seconds 765 msec
