                         Program Version 4.2.1 -  RELEASE  -
|  1> ! wB97X-D3 SP def2-SVP
|  2> %pal
|  3> nprocs 16
|  4> end
|  5>
|  6> * xyz 0 1
|  7> S 	 -28.3562 	 63.4302 	 107.408
|  8> C 	 -28.2824 	 64.5513 	 106.051
|  9> C 	 -29.4584 	 64.6324 	 105.312
| 10> C 	 -30.461 	 63.8493 	 105.928
| 11> C 	 -30.0512 	 63.0749 	 107.02
| 12> H 	 -31.4611 	 63.8013 	 105.511
| 13> C 	 -29.7662 	 65.4465 	 104.084
| 14> H 	 -29.0254 	 66.1509 	 104.012
| 15> H 	 -30.6218 	 66.1181 	 104.148
| 16> C 	 -29.7871 	 64.6654 	 102.706
| 17> H 	 -29.9721 	 65.4238 	 101.927
| 18> H 	 -28.7554 	 64.383 	 102.533
| 19> C 	 -30.67 	 63.4306 	 102.673
| 20> H 	 -30.4362 	 62.7629 	 103.44
| 21> H 	 -31.6492 	 63.7925 	 102.852
| 22> H 	 -30.5654 	 63.0863 	 101.665
| 23> S 	 -31.3088 	 63.0055 	 109.484
| 24> C 	 -32.5273 	 61.7578 	 109.792
| 25> C 	 -32.6596 	 60.9137 	 108.727
| 26> C 	 -31.7668 	 61.2543 	 107.682
| 27> C 	 -30.9046 	 62.3205 	 107.876
| 28> H 	 -33.4489 	 60.1599 	 108.738
| 29> C 	 -31.9534 	 60.707 	 106.28
| 30> H 	 -31.2386 	 61.1885 	 105.592
| 31> H 	 -32.9362 	 61.0012 	 105.979
| 32> C 	 -31.9839 	 59.1704 	 106.183
| 33> H 	 -32.4002 	 58.6692 	 107.067
| 34> H 	 -30.866 	 58.9039 	 106.044
| 35> C 	 -32.8692 	 58.7164 	 105.042
| 36> H 	 -33.1073 	 57.6534 	 105.218
| 37> H 	 -32.4545 	 58.8397 	 104.035
| 38> H 	 -33.7662 	 59.2303 	 105.101
| 39> H 	 -27.407 	 65.1062 	 105.673
| 40> H 	 -33.1075 	 61.7173 	 110.711
| 41> *
| 42>
| 43>                          ****END OF INPUT****

CARTESIAN COORDINATES (ANGSTROEM)
---------------------------------
  S    -28.356200   63.430200  107.408000
  C    -28.282400   64.551300  106.051000
  C    -29.458400   64.632400  105.312000
  C    -30.461000   63.849300  105.928000
  C    -30.051200   63.074900  107.020000
  H    -31.461100   63.801300  105.511000
  C    -29.766200   65.446500  104.084000
  H    -29.025400   66.150900  104.012000
  H    -30.621800   66.118100  104.148000
  C    -29.787100   64.665400  102.706000
  H    -29.972100   65.423800  101.927000
  H    -28.755400   64.383000  102.533000
  C    -30.670000   63.430600  102.673000
  H    -30.436200   62.762900  103.440000
  H    -31.649200   63.792500  102.852000
  H    -30.565400   63.086300  101.665000
  S    -31.308800   63.005500  109.484000
  C    -32.527300   61.757800  109.792000
  C    -32.659600   60.913700  108.727000
  C    -31.766800   61.254300  107.682000
  C    -30.904600   62.320500  107.876000
  H    -33.448900   60.159900  108.738000
  C    -31.953400   60.707000  106.280000
  H    -31.238600   61.188500  105.592000
  H    -32.936200   61.001200  105.979000
  C    -31.983900   59.170400  106.183000
  H    -32.400200   58.669200  107.067000
  H    -30.866000   58.903900  106.044000
  C    -32.869200   58.716400  105.042000
  H    -33.107300   57.653400  105.218000
  H    -32.454500   58.839700  104.035000
  H    -33.766200   59.230300  105.101000
  H    -27.407000   65.106200  105.673000
  H    -33.107500   61.717300  110.711000

 Total Charge           Charge          ....    0
 Multiplicity           Mult            ....    1
 Number of Electrons    NEL             ....  134
 Basis Dimension        Dim             ....  322

ORBITAL ENERGIES
----------------

  NO   OCC          E(Eh)            E(eV)
   0   2.0000     -88.973189     -2421.0836
   1   2.0000     -88.958410     -2420.6814
   2   2.0000     -10.331173      -281.1255
   3   2.0000     -10.323698      -280.9221
   4   2.0000     -10.320962      -280.8477
   5   2.0000     -10.320359      -280.8313
   6   2.0000     -10.300966      -280.3035
   7   2.0000     -10.300453      -280.2896
   8   2.0000     -10.295285      -280.1489
   9   2.0000     -10.294125      -280.1174
  10   2.0000     -10.288803      -279.9726
  11   2.0000     -10.288037      -279.9517
  12   2.0000     -10.287344      -279.9329
  13   2.0000     -10.284119      -279.8451
  14   2.0000     -10.271302      -279.4963
  15   2.0000     -10.269389      -279.4443
  16   2.0000      -8.086914      -220.0561
  17   2.0000      -8.072675      -219.6687
  18   2.0000      -6.045435      -164.5047
  19   2.0000      -6.041566      -164.3994
  20   2.0000      -6.037706      -164.2943
  21   2.0000      -6.031225      -164.1180
  22   2.0000      -6.027263      -164.0102
  23   2.0000      -6.023375      -163.9044
  24   2.0000      -1.003778       -27.3142
  25   2.0000      -0.981521       -26.7086
  26   2.0000      -0.913023       -24.8446
  27   2.0000      -0.908329       -24.7169
  28   2.0000      -0.874145       -23.7867
  29   2.0000      -0.852407       -23.1952
  30   2.0000      -0.845875       -23.0174
  31   2.0000      -0.816578       -22.2202
  32   2.0000      -0.789979       -21.4964
  33   2.0000      -0.768640       -20.9158
  34   2.0000      -0.707254       -19.2453
  35   2.0000      -0.702798       -19.1241
  36   2.0000      -0.693170       -18.8621
  37   2.0000      -0.657605       -17.8943
  38   2.0000      -0.637576       -17.3493
  39   2.0000      -0.620793       -16.8926
  40   2.0000      -0.596864       -16.2415
  41   2.0000      -0.576929       -15.6990
  42   2.0000      -0.565733       -15.3944
  43   2.0000      -0.552473       -15.0335
  44   2.0000      -0.549948       -14.9648
  45   2.0000      -0.528659       -14.3855
  46   2.0000      -0.516178       -14.0459
  47   2.0000      -0.509347       -13.8600
  48   2.0000      -0.508872       -13.8471
  49   2.0000      -0.498638       -13.5686
  50   2.0000      -0.493607       -13.4317
  51   2.0000      -0.476605       -12.9691
  52   2.0000      -0.471840       -12.8394
  53   2.0000      -0.465584       -12.6692
  54   2.0000      -0.460763       -12.5380
  55   2.0000      -0.446512       -12.1502
  56   2.0000      -0.446363       -12.1462
  57   2.0000      -0.435919       -11.8620
  58   2.0000      -0.430135       -11.7046
  59   2.0000      -0.429825       -11.6961
  60   2.0000      -0.419736       -11.4216
  61   2.0000      -0.417609       -11.3637
  62   2.0000      -0.405089       -11.0230
  63   2.0000      -0.343440        -9.3455
  64   2.0000      -0.332135        -9.0378
  65   2.0000      -0.322308        -8.7704
  66   2.0000      -0.298096        -8.1116
  67   0.0000       0.030964         0.8426
  68   0.0000       0.059091         1.6079
  69   0.0000       0.114175         3.1069
  70   0.0000       0.117059         3.1853
  71   0.0000       0.121731         3.3125

MULLIKEN ATOMIC CHARGES
-----------------------
   0 S :    0.131661
   1 C :   -0.115238
   2 C :   -0.107214
   3 C :    0.032928
   4 C :   -0.185927
   5 H :    0.015663
   6 C :    0.098935
   7 H :   -0.020181
   8 H :    0.030711
   9 C :   -0.097330
  10 H :    0.031123
  11 H :    0.016351
  12 C :    0.004657
  13 H :    0.043627
  14 H :    0.016036
  15 H :    0.037466
  16 S :    0.081351
  17 C :   -0.098581
  18 C :   -0.026541
  19 C :   -0.018141
  20 C :   -0.135626
  21 H :    0.026030
  22 C :    0.055188
  23 H :    0.040255
  24 H :    0.012359
  25 C :   -0.116262
  26 H :    0.034545
  27 H :    0.047525
  28 C :   -0.028864
  29 H :    0.031565
  30 H :    0.038598
  31 H :    0.010154
  32 H :    0.050553
  33 H :    0.062626
Sum of atomic charges:    0.0000000

LOEWDIN ATOMIC CHARGES
----------------------
   0 S :    0.405671
   1 C :   -0.192629
   2 C :   -0.068249
   3 C :   -0.046750
   4 C :   -0.201549
   5 H :    0.030705
   6 C :   -0.032547
   7 H :    0.017818
   8 H :    0.032970
   9 C :   -0.031251
  10 H :    0.025537
  11 H :    0.018223
  12 C :   -0.053178
  13 H :    0.020020
  14 H :    0.019938
  15 H :    0.030513
  16 S :    0.372353
  17 C :   -0.164589
  18 C :   -0.078844
  19 C :   -0.051125
  20 C :   -0.195594
  21 H :    0.035839
  22 C :   -0.031617
  23 H :    0.031284
  24 H :    0.022555
  25 C :   -0.046778
  26 H :    0.023914
  27 H :    0.035923
  28 C :   -0.063155
  29 H :    0.029701
  30 H :    0.027069
  31 H :    0.012444
  32 H :    0.033969
  33 H :    0.031411

  Mayer bond orders larger than 0.100000
B(  0-S ,  1-C ) :   1.1482 B(  0-S ,  4-C ) :   1.1362 B(  1-C ,  2-C ) :   1.6146
B(  1-C ,  4-C ) :   0.1006 B(  1-C , 32-H ) :   0.9532 B(  2-C ,  3-C ) :   1.2613
B(  2-C ,  6-C ) :   1.0246 B(  3-C ,  4-C ) :   1.5475 B(  3-C ,  5-H ) :   0.9900
B(  4-C , 20-C ) :   1.0614 B(  6-C ,  7-H ) :   0.9202 B(  6-C ,  8-H ) :   0.9436
B(  6-C ,  9-C ) :   1.0668 B(  9-C , 10-H ) :   0.9570 B(  9-C , 11-H ) :   0.9549
B(  9-C , 12-C ) :   1.0833 B( 12-C , 13-H ) :   0.9680 B( 12-C , 14-H ) :   0.9727
B( 12-C , 15-H ) :   0.9690 B( 16-S , 17-C ) :   1.1624 B( 16-S , 20-C ) :   1.1069
B( 17-C , 18-C ) :   1.6160 B( 17-C , 33-H ) :   0.9649 B( 18-C , 19-C ) :   1.2224
B( 18-C , 21-H ) :   0.9914 B( 19-C , 20-C ) :   1.6131 B( 19-C , 22-C ) :   1.0456
B( 22-C , 23-H ) :   0.9339 B( 22-C , 24-H ) :   0.9414 B( 22-C , 25-C ) :   1.0453
B( 25-C , 26-H ) :   0.9652 B( 25-C , 27-H ) :   0.9537 B( 25-C , 28-C ) :   1.0783
B( 28-C , 29-H ) :   0.9752 B( 28-C , 30-H ) :   0.9747 B( 28-C , 31-H ) :   0.9726

Dispersion correction           -0.014632205
FINAL SINGLE POINT ENERGY     -1339.866413773316

DIPOLE MOMENT
-------------
                                X             Y             Z
Electronic contribution:      9.89287       8.85768      26.57155
Nuclear contribution   :    -10.33465      -8.82677     -27.23009
                        -----------------------------------------
Total Dipole Moment    :     -0.44177       0.03091      -0.65854
                        -----------------------------------------
Magnitude (a.u.)       :      0.79359
Magnitude (Debye)      :      2.01715

Rotational constants in cm-1:     0.016268     0.009957     0.007002
Rotational constants in MHz :   487.703917   298.495848   209.921066

                             ****ORCA TERMINATED NORMALLY****
TOTAL RUN TIME: 0 days 0 hours 0 minutes 30 seconds 853 msec
