                         Program Version 4.2.1 -  RELEASE  -
|  1> ! wB97X-D3 SP def2-SVP
|  2> %pal
|  3> nprocs 16
|  4> end
|  5>
|  6> * xyz 0 1
|  7> S 	 -100.043 	 42.15 	 127.856
|  8> C 	 -98.5579 	 41.6862 	 128.662
|  9> C 	 -97.6205 	 41.1868 	 127.836
| 10> C 	 -98.0556 	 41.0567 	 126.482
| 11> C 	 -99.3458 	 41.5678 	 126.26
| 12> H 	 -97.4391 	 40.6201 	 125.695
| 13> C 	 -96.1955 	 40.8401 	 128.219
| 14> H 	 -95.8082 	 40.0032 	 127.61
| 15> H 	 -96.1732 	 40.6135 	 129.294
| 16> C 	 -95.2622 	 42.1394 	 128.062
| 17> H 	 -95.2391 	 42.3307 	 126.982
| 18> H 	 -95.7521 	 43.0386 	 128.522
| 19> C 	 -93.8482 	 41.9625 	 128.642
| 20> H 	 -93.8749 	 41.5891 	 129.576
| 21> H 	 -93.1822 	 41.3709 	 128.013
| 22> H 	 -93.3128 	 42.8415 	 128.675
| 23> S 	 -101.469 	 42.8832 	 125.127
| 24> C 	 -101.962 	 42.5062 	 123.536
| 25> C 	 -101.163 	 41.5576 	 122.958
| 26> C 	 -100.067 	 41.112 	 123.791
| 27> C 	 -100.107 	 41.7393 	 125.011
| 28> H 	 -101.408 	 41.1641 	 122.034
| 29> C 	 -99.0498 	 40.1246 	 123.387
| 30> H 	 -98.0571 	 40.3432 	 123.74
| 31> H 	 -98.9655 	 40.0224 	 122.282
| 32> C 	 -99.4449 	 38.7413 	 123.774
| 33> H 	 -100.485 	 38.5735 	 123.553
| 34> H 	 -99.2804 	 38.6046 	 124.879
| 35> C 	 -98.5737 	 37.747 	 122.977
| 36> H 	 -98.9467 	 37.6449 	 121.877
| 37> H 	 -98.6843 	 36.7648 	 123.452
| 38> H 	 -97.5401 	 37.9312 	 123.084
| 39> H 	 -98.3481 	 41.9813 	 129.675
| 40> H 	 -102.852 	 42.9039 	 123.078
| 41> *
| 42>
| 43>                          ****END OF INPUT****

CARTESIAN COORDINATES (ANGSTROEM)
---------------------------------
  S    -100.043000   42.150000  127.856000
  C    -98.557900   41.686200  128.662000
  C    -97.620500   41.186800  127.836000
  C    -98.055600   41.056700  126.482000
  C    -99.345800   41.567800  126.260000
  H    -97.439100   40.620100  125.695000
  C    -96.195500   40.840100  128.219000
  H    -95.808200   40.003200  127.610000
  H    -96.173200   40.613500  129.294000
  C    -95.262200   42.139400  128.062000
  H    -95.239100   42.330700  126.982000
  H    -95.752100   43.038600  128.522000
  C    -93.848200   41.962500  128.642000
  H    -93.874900   41.589100  129.576000
  H    -93.182200   41.370900  128.013000
  H    -93.312800   42.841500  128.675000
  S    -101.469000   42.883200  125.127000
  C    -101.962000   42.506200  123.536000
  C    -101.163000   41.557600  122.958000
  C    -100.067000   41.112000  123.791000
  C    -100.107000   41.739300  125.011000
  H    -101.408000   41.164100  122.034000
  C    -99.049800   40.124600  123.387000
  H    -98.057100   40.343200  123.740000
  H    -98.965500   40.022400  122.282000
  C    -99.444900   38.741300  123.774000
  H    -100.485000   38.573500  123.553000
  H    -99.280400   38.604600  124.879000
  C    -98.573700   37.747000  122.977000
  H    -98.946700   37.644900  121.877000
  H    -98.684300   36.764800  123.452000
  H    -97.540100   37.931200  123.084000
  H    -98.348100   41.981300  129.675000
  H    -102.852000   42.903900  123.078000

 Total Charge           Charge          ....    0
 Multiplicity           Mult            ....    1
 Number of Electrons    NEL             ....  134
 Basis Dimension        Dim             ....  322

ORBITAL ENERGIES
----------------

  NO   OCC          E(Eh)            E(eV)
   0   2.0000     -88.965645     -2420.8783
   1   2.0000     -88.963361     -2420.8161
   2   2.0000     -10.341214      -281.3988
   3   2.0000     -10.328431      -281.0509
   4   2.0000     -10.314271      -280.6656
   5   2.0000     -10.307949      -280.4936
   6   2.0000     -10.303031      -280.3597
   7   2.0000     -10.298610      -280.2394
   8   2.0000     -10.297987      -280.2225
   9   2.0000     -10.296317      -280.1770
  10   2.0000     -10.293795      -280.1084
  11   2.0000     -10.289771      -279.9989
  12   2.0000     -10.288150      -279.9548
  13   2.0000     -10.284436      -279.8537
  14   2.0000     -10.283376      -279.8249
  15   2.0000     -10.264585      -279.3136
  16   2.0000      -8.079101      -219.8435
  17   2.0000      -8.078729      -219.8334
  18   2.0000      -6.037914      -164.3000
  19   2.0000      -6.037255      -164.2821
  20   2.0000      -6.033904      -164.1909
  21   2.0000      -6.033168      -164.1708
  22   2.0000      -6.029512      -164.0714
  23   2.0000      -6.029429      -164.0691
  24   2.0000      -1.005223       -27.3535
  25   2.0000      -0.981867       -26.7180
  26   2.0000      -0.923810       -25.1382
  27   2.0000      -0.902580       -24.5604
  28   2.0000      -0.868517       -23.6335
  29   2.0000      -0.855119       -23.2690
  30   2.0000      -0.844890       -22.9906
  31   2.0000      -0.815925       -22.2024
  32   2.0000      -0.783793       -21.3281
  33   2.0000      -0.772367       -21.0172
  34   2.0000      -0.706733       -19.2312
  35   2.0000      -0.701000       -19.0752
  36   2.0000      -0.693510       -18.8714
  37   2.0000      -0.669867       -18.2280
  38   2.0000      -0.636028       -17.3072
  39   2.0000      -0.625067       -17.0089
  40   2.0000      -0.606228       -16.4963
  41   2.0000      -0.575324       -15.6554
  42   2.0000      -0.565454       -15.3868
  43   2.0000      -0.555894       -15.1266
  44   2.0000      -0.526167       -14.3177
  45   2.0000      -0.524336       -14.2679
  46   2.0000      -0.518737       -14.1155
  47   2.0000      -0.511395       -13.9158
  48   2.0000      -0.509672       -13.8689
  49   2.0000      -0.498473       -13.5641
  50   2.0000      -0.494383       -13.4528
  51   2.0000      -0.479919       -13.0592
  52   2.0000      -0.476115       -12.9558
  53   2.0000      -0.466381       -12.6909
  54   2.0000      -0.458152       -12.4670
  55   2.0000      -0.450626       -12.2622
  56   2.0000      -0.442951       -12.0533
  57   2.0000      -0.441279       -12.0078
  58   2.0000      -0.428188       -11.6516
  59   2.0000      -0.426782       -11.6133
  60   2.0000      -0.424616       -11.5544
  61   2.0000      -0.420912       -11.4536
  62   2.0000      -0.413176       -11.2431
  63   2.0000      -0.361676        -9.8417
  64   2.0000      -0.333712        -9.0808
  65   2.0000      -0.327162        -8.9025
  66   2.0000      -0.281888        -7.6706
  67   0.0000       0.019866         0.5406
  68   0.0000       0.076234         2.0744
  69   0.0000       0.099145         2.6979
  70   0.0000       0.119606         3.2546
  71   0.0000       0.138091         3.7576

MULLIKEN ATOMIC CHARGES
-----------------------
   0 S :    0.083359
   1 C :   -0.112165
   2 C :   -0.071425
   3 C :   -0.006394
   4 C :   -0.100229
   5 H :    0.006443
   6 C :    0.050163
   7 H :    0.036826
   8 H :    0.023233
   9 C :   -0.113248
  10 H :    0.027447
  11 H :    0.039803
  12 C :    0.040600
  13 H :    0.005193
  14 H :    0.019230
  15 H :    0.010764
  16 S :    0.089760
  17 C :   -0.070169
  18 C :   -0.000320
  19 C :   -0.034033
  20 C :   -0.126072
  21 H :   -0.016579
  22 C :    0.046197
  23 H :    0.023821
  24 H :    0.016459
  25 C :   -0.084533
  26 H :    0.027919
  27 H :    0.041876
  28 C :   -0.053853
  29 H :    0.053885
  30 H :    0.028821
  31 H :    0.022528
  32 H :    0.040282
  33 H :    0.054411
Sum of atomic charges:   -0.0000000

LOEWDIN ATOMIC CHARGES
----------------------
   0 S :    0.360821
   1 C :   -0.192570
   2 C :   -0.067562
   3 C :   -0.069813
   4 C :   -0.153119
   5 H :    0.029197
   6 C :   -0.027824
   7 H :    0.031944
   8 H :    0.028277
   9 C :   -0.035615
  10 H :    0.022066
  11 H :    0.029189
  12 C :   -0.056079
  13 H :    0.009743
  14 H :    0.028468
  15 H :    0.020506
  16 S :    0.400727
  17 C :   -0.187015
  18 C :   -0.062118
  19 C :   -0.049811
  20 C :   -0.182008
  21 H :    0.017636
  22 C :   -0.037375
  23 H :    0.024894
  24 H :    0.035196
  25 C :   -0.037353
  26 H :    0.023320
  27 H :    0.029429
  28 C :   -0.070740
  29 H :    0.037818
  30 H :    0.027176
  31 H :    0.016917
  32 H :    0.025732
  33 H :    0.029946

  Mayer bond orders larger than 0.100000
B(  0-S ,  1-C ) :   1.1123 B(  0-S ,  4-C ) :   1.1279 B(  1-C ,  2-C ) :   1.6610
B(  1-C , 32-H ) :   0.9592 B(  2-C ,  3-C ) :   1.2290 B(  2-C ,  6-C ) :   1.0331
B(  3-C ,  4-C ) :   1.5741 B(  3-C ,  5-H ) :   0.9858 B(  4-C , 20-C ) :   1.0828
B(  6-C ,  7-H ) :   0.9442 B(  6-C ,  8-H ) :   0.9411 B(  6-C ,  9-C ) :   1.0458
B(  9-C , 10-H ) :   0.9592 B(  9-C , 11-H ) :   0.9614 B(  9-C , 12-C ) :   1.0802
B( 12-C , 13-H ) :   0.9730 B( 12-C , 14-H ) :   0.9702 B( 12-C , 15-H ) :   0.9684
B( 16-S , 17-C ) :   1.1584 B( 16-S , 20-C ) :   1.1203 B( 17-C , 18-C ) :   1.6131
B( 17-C , 33-H ) :   0.9682 B( 18-C , 19-C ) :   1.2227 B( 18-C , 21-H ) :   1.0031
B( 19-C , 20-C ) :   1.6084 B( 19-C , 22-C ) :   1.0547 B( 22-C , 23-H ) :   0.9285
B( 22-C , 24-H ) :   0.9303 B( 22-C , 25-C ) :   1.0651 B( 25-C , 26-H ) :   0.9545
B( 25-C , 27-H ) :   0.9500 B( 25-C , 28-C ) :   1.0865 B( 28-C , 29-H ) :   0.9716
B( 28-C , 30-H ) :   0.9724 B( 28-C , 31-H ) :   0.9704

Dispersion correction           -0.013873261
FINAL SINGLE POINT ENERGY     -1339.876610336897

DIPOLE MOMENT
-------------
                                X             Y             Z
Electronic contribution:    -24.91179      14.66672       3.50569
Nuclear contribution   :     25.42061     -15.00395      -3.79665
                        -----------------------------------------
Total Dipole Moment    :      0.50881      -0.33722      -0.29097
                        -----------------------------------------
Magnitude (a.u.)       :      0.67622
Magnitude (Debye)      :      1.71881

Rotational constants in cm-1:     0.018141     0.008434     0.006417
Rotational constants in MHz :   543.841448   252.841560   192.390224

                             ****ORCA TERMINATED NORMALLY****
TOTAL RUN TIME: 0 days 0 hours 0 minutes 34 seconds 212 msec
