                         Program Version 4.2.1 -  RELEASE  -
|  1> ! wB97X-D3 SP def2-SVP
|  2> %pal
|  3> nprocs 16
|  4> end
|  5>
|  6> * xyz 0 1
|  7> S 	 16.0912 	 24.959 	 63.2353
|  8> C 	 16.6823 	 23.3774 	 62.7009
|  9> C 	 15.6045 	 22.6626 	 62.0741
| 10> C 	 14.4182 	 23.4212 	 62.0114
| 11> C 	 14.433 	 24.6174 	 62.6051
| 12> H 	 13.4815 	 23.0298 	 61.6601
| 13> C 	 15.6201 	 21.1808 	 61.6428
| 14> H 	 16.5993 	 20.9316 	 61.2331
| 15> H 	 14.9434 	 21.075 	 60.7997
| 16> C 	 15.1224 	 20.0816 	 62.6001
| 17> H 	 15.4122 	 19.0734 	 62.3846
| 18> H 	 15.5078 	 20.3915 	 63.5878
| 19> C 	 13.6564 	 20.0707 	 62.7497
| 20> H 	 13.1222 	 21.028 	 62.961
| 21> H 	 13.2421 	 19.5924 	 61.8892
| 22> H 	 13.372 	 19.5027 	 63.602
| 23> S 	 12.9363 	 26.2565 	 64.264
| 24> C 	 11.4842 	 27.1285 	 63.6123
| 25> C 	 11.3319 	 26.7815 	 62.2865
| 26> C 	 12.2724 	 25.8567 	 61.7809
| 27> C 	 13.3012 	 25.5317 	 62.6595
| 28> H 	 10.6543 	 27.291 	 61.5996
| 29> C 	 12.1637 	 25.3783 	 60.3105
| 30> H 	 12.8996 	 24.5799 	 60.1336
| 31> H 	 12.2958 	 26.2218 	 59.6386
| 32> C 	 10.8475 	 24.6074 	 60.0472
| 33> H 	 10.7967 	 24.1981 	 59.0283
| 34> H 	 10.0527 	 25.3757 	 60.1541
| 35> C 	 10.5729 	 23.4389 	 61.0093
| 36> H 	 10.3361 	 23.8661 	 62.0057
| 37> H 	 11.3524 	 22.7817 	 61.1644
| 38> H 	 9.70981 	 22.8326 	 60.7346
| 39> H 	 17.6129 	 22.9912 	 62.9489
| 40> H 	 10.901 	 27.8232 	 64.2332
| 41> *
| 42>
| 43>                          ****END OF INPUT****

CARTESIAN COORDINATES (ANGSTROEM)
---------------------------------
  S     16.091200   24.959000   63.235300
  C     16.682300   23.377400   62.700900
  C     15.604500   22.662600   62.074100
  C     14.418200   23.421200   62.011400
  C     14.433000   24.617400   62.605100
  H     13.481500   23.029800   61.660100
  C     15.620100   21.180800   61.642800
  H     16.599300   20.931600   61.233100
  H     14.943400   21.075000   60.799700
  C     15.122400   20.081600   62.600100
  H     15.412200   19.073400   62.384600
  H     15.507800   20.391500   63.587800
  C     13.656400   20.070700   62.749700
  H     13.122200   21.028000   62.961000
  H     13.242100   19.592400   61.889200
  H     13.372000   19.502700   63.602000
  S     12.936300   26.256500   64.264000
  C     11.484200   27.128500   63.612300
  C     11.331900   26.781500   62.286500
  C     12.272400   25.856700   61.780900
  C     13.301200   25.531700   62.659500
  H     10.654300   27.291000   61.599600
  C     12.163700   25.378300   60.310500
  H     12.899600   24.579900   60.133600
  H     12.295800   26.221800   59.638600
  C     10.847500   24.607400   60.047200
  H     10.796700   24.198100   59.028300
  H     10.052700   25.375700   60.154100
  C     10.572900   23.438900   61.009300
  H     10.336100   23.866100   62.005700
  H     11.352400   22.781700   61.164400
  H      9.709810   22.832600   60.734600
  H     17.612900   22.991200   62.948900
  H     10.901000   27.823200   64.233200

 Total Charge           Charge          ....    0
 Multiplicity           Mult            ....    1
 Number of Electrons    NEL             ....  134
 Basis Dimension        Dim             ....  322

ORBITAL ENERGIES
----------------

  NO   OCC          E(Eh)            E(eV)
   0   2.0000     -88.970416     -2421.0081
   1   2.0000     -88.963791     -2420.8278
   2   2.0000     -10.334698      -281.2214
   3   2.0000     -10.331697      -281.1398
   4   2.0000     -10.329512      -281.0803
   5   2.0000     -10.322214      -280.8817
   6   2.0000     -10.309975      -280.5487
   7   2.0000     -10.307301      -280.4759
   8   2.0000     -10.298700      -280.2419
   9   2.0000     -10.295745      -280.1615
  10   2.0000     -10.292977      -280.0862
  11   2.0000     -10.291642      -280.0498
  12   2.0000     -10.288872      -279.9744
  13   2.0000     -10.282892      -279.8117
  14   2.0000     -10.273453      -279.5549
  15   2.0000     -10.269060      -279.4353
  16   2.0000      -8.083660      -219.9676
  17   2.0000      -8.077139      -219.7901
  18   2.0000      -6.042351      -164.4207
  19   2.0000      -6.038297      -164.3104
  20   2.0000      -6.035811      -164.2428
  21   2.0000      -6.034387      -164.2040
  22   2.0000      -6.031810      -164.1339
  23   2.0000      -6.027826      -164.0255
  24   2.0000      -1.001634       -27.2558
  25   2.0000      -0.978292       -26.6207
  26   2.0000      -0.915079       -24.9006
  27   2.0000      -0.906073       -24.6555
  28   2.0000      -0.872911       -23.7531
  29   2.0000      -0.852172       -23.1888
  30   2.0000      -0.841607       -22.9013
  31   2.0000      -0.817497       -22.2452
  32   2.0000      -0.783791       -21.3280
  33   2.0000      -0.773939       -21.0600
  34   2.0000      -0.708078       -19.2678
  35   2.0000      -0.699886       -19.0449
  36   2.0000      -0.693685       -18.8761
  37   2.0000      -0.661816       -18.0089
  38   2.0000      -0.648216       -17.6389
  39   2.0000      -0.620624       -16.8880
  40   2.0000      -0.597352       -16.2548
  41   2.0000      -0.577167       -15.7055
  42   2.0000      -0.558268       -15.1912
  43   2.0000      -0.552832       -15.0433
  44   2.0000      -0.550353       -14.9759
  45   2.0000      -0.541958       -14.7474
  46   2.0000      -0.519069       -14.1246
  47   2.0000      -0.513983       -13.9862
  48   2.0000      -0.504531       -13.7290
  49   2.0000      -0.496009       -13.4971
  50   2.0000      -0.494048       -13.4437
  51   2.0000      -0.478362       -13.0169
  52   2.0000      -0.470088       -12.7917
  53   2.0000      -0.467640       -12.7251
  54   2.0000      -0.459284       -12.4978
  55   2.0000      -0.448941       -12.2163
  56   2.0000      -0.437881       -11.9154
  57   2.0000      -0.434826       -11.8322
  58   2.0000      -0.433020       -11.7831
  59   2.0000      -0.428536       -11.6610
  60   2.0000      -0.411622       -11.2008
  61   2.0000      -0.410662       -11.1747
  62   2.0000      -0.409310       -11.1379
  63   2.0000      -0.354807        -9.6548
  64   2.0000      -0.334316        -9.0972
  65   2.0000      -0.330687        -8.9984
  66   2.0000      -0.291490        -7.9318
  67   0.0000       0.019589         0.5330
  68   0.0000       0.065113         1.7718
  69   0.0000       0.105947         2.8830
  70   0.0000       0.118904         3.2356
  71   0.0000       0.121939         3.3181

MULLIKEN ATOMIC CHARGES
-----------------------
   0 S :    0.106173
   1 C :   -0.094353
   2 C :   -0.088106
   3 C :    0.032963
   4 C :   -0.104769
   5 H :   -0.022486
   6 C :    0.066475
   7 H :    0.022995
   8 H :    0.007544
   9 C :   -0.023489
  10 H :    0.029849
  11 H :    0.022506
  12 C :   -0.069866
  13 H :    0.040846
  14 H :    0.021091
  15 H :    0.021027
  16 S :    0.068596
  17 C :   -0.102087
  18 C :   -0.020059
  19 C :   -0.064419
  20 C :   -0.147338
  21 H :    0.031063
  22 C :    0.071556
  23 H :    0.022846
  24 H :    0.046792
  25 C :   -0.096058
  26 H :    0.038984
  27 H :    0.025422
  28 C :   -0.041068
  29 H :    0.042302
  30 H :    0.016277
  31 H :    0.033332
  32 H :    0.030335
  33 H :    0.075123
Sum of atomic charges:   -0.0000000

LOEWDIN ATOMIC CHARGES
----------------------
   0 S :    0.381538
   1 C :   -0.174591
   2 C :   -0.054548
   3 C :   -0.064003
   4 C :   -0.176842
   5 H :    0.025387
   6 C :   -0.032406
   7 H :    0.029300
   8 H :    0.025272
   9 C :   -0.038725
  10 H :    0.026371
  11 H :    0.025622
  12 C :   -0.069431
  13 H :    0.030386
  14 H :    0.018540
  15 H :    0.024546
  16 S :    0.356384
  17 C :   -0.160237
  18 C :   -0.074717
  19 C :   -0.059360
  20 C :   -0.174307
  21 H :    0.035390
  22 C :   -0.026901
  23 H :    0.029727
  24 H :    0.033303
  25 C :   -0.040605
  26 H :    0.025323
  27 H :    0.020210
  28 C :   -0.064598
  29 H :    0.033987
  30 H :    0.008391
  31 H :    0.030281
  32 H :    0.015132
  33 H :    0.036180

  Mayer bond orders larger than 0.100000
B(  0-S ,  1-C ) :   1.1454 B(  0-S ,  4-C ) :   1.1212 B(  1-C ,  2-C ) :   1.5723
B(  1-C ,  4-C ) :   0.1044 B(  1-C , 32-H ) :   0.9818 B(  2-C ,  3-C ) :   1.2566
B(  2-C ,  6-C ) :   1.0338 B(  3-C ,  4-C ) :   1.5903 B(  3-C ,  5-H ) :   0.9884
B(  4-C , 20-C ) :   1.0416 B(  6-C ,  7-H ) :   0.9403 B(  6-C ,  8-H ) :   0.9407
B(  6-C ,  9-C ) :   1.0561 B(  9-C , 10-H ) :   0.9543 B(  9-C , 11-H ) :   0.9536
B(  9-C , 12-C ) :   1.0928 B( 12-C , 13-H ) :   0.9698 B( 12-C , 14-H ) :   0.9727
B( 12-C , 15-H ) :   0.9668 B( 16-S , 17-C ) :   1.1391 B( 16-S , 20-C ) :   1.1236
B( 17-C , 18-C ) :   1.5972 B( 17-C , 20-C ) :   0.1067 B( 17-C , 33-H ) :   0.9697
B( 18-C , 19-C ) :   1.2417 B( 18-C , 21-H ) :   0.9818 B( 19-C , 20-C ) :   1.6133
B( 19-C , 22-C ) :   1.0286 B( 22-C , 23-H ) :   0.9403 B( 22-C , 24-H ) :   0.9441
B( 22-C , 25-C ) :   1.0614 B( 25-C , 26-H ) :   0.9619 B( 25-C , 27-H ) :   0.9551
B( 25-C , 28-C ) :   1.0733 B( 28-C , 29-H ) :   0.9688 B( 28-C , 30-H ) :   0.9737
B( 28-C , 31-H ) :   0.9687

Dispersion correction           -0.015617295
FINAL SINGLE POINT ENERGY     -1339.870599017825

DIPOLE MOMENT
-------------
                                X             Y             Z
Electronic contribution:     12.17357      21.96654      12.76049
Nuclear contribution   :    -12.54573     -22.41436     -13.14654
                        -----------------------------------------
Total Dipole Moment    :     -0.37216      -0.44781      -0.38605
                        -----------------------------------------
Magnitude (a.u.)       :      0.69862
Magnitude (Debye)      :      1.77575

Rotational constants in cm-1:     0.017820     0.010002     0.007589
Rotational constants in MHz :   534.242990   299.865893   227.503634

                             ****ORCA TERMINATED NORMALLY****
TOTAL RUN TIME: 0 days 0 hours 0 minutes 35 seconds 241 msec
