                         Program Version 4.2.1 -  RELEASE  -
|  1> ! wB97X-D3 SP def2-SVP
|  2> %pal
|  3> nprocs 16
|  4> end
|  5>
|  6> * xyz 0 1
|  7> S 	 -10.5484 	 -6.23805 	 86.526
|  8> C 	 -10.4137 	 -6.84356 	 88.1941
|  9> C 	 -11.6033 	 -6.64504 	 88.8592
| 10> C 	 -12.5885 	 -6.01493 	 88.0367
| 11> C 	 -12.2381 	 -5.75145 	 86.7639
| 12> H 	 -13.5503 	 -5.61614 	 88.4058
| 13> C 	 -11.8703 	 -7.03463 	 90.2963
| 14> H 	 -12.0032 	 -6.25446 	 91.0087
| 15> H 	 -10.9874 	 -7.57349 	 90.6081
| 16> C 	 -12.9465 	 -8.0721 	 90.4314
| 17> H 	 -13.2097 	 -8.06679 	 91.4819
| 18> H 	 -13.8631 	 -7.79828 	 89.8711
| 19> C 	 -12.5987 	 -9.54023 	 89.9646
| 20> H 	 -11.9927 	 -10.0104 	 90.7036
| 21> H 	 -13.5492 	 -10.1103 	 89.8217
| 22> H 	 -12.0007 	 -9.49945 	 89.0707
| 23> S 	 -12.1249 	 -3.90865 	 84.7068
| 24> C 	 -13.6435 	 -3.27799 	 83.9315
| 25> C 	 -14.7643 	 -4.03343 	 84.3289
| 26> C 	 -14.43 	 -5.00816 	 85.3504
| 27> C 	 -13.0174 	 -5.00109 	 85.7553
| 28> H 	 -15.7509 	 -3.82753 	 83.9267
| 29> C 	 -15.578 	 -5.75566 	 85.9739
| 30> H 	 -16.5309 	 -5.16077 	 85.8826
| 31> H 	 -15.4388 	 -5.85822 	 87.0723
| 32> C 	 -15.9415 	 -7.05153 	 85.2704
| 33> H 	 -15.8004 	 -6.79194 	 84.1548
| 34> H 	 -17.0227 	 -7.34323 	 85.3795
| 35> C 	 -14.9993 	 -8.18964 	 85.5692
| 36> H 	 -14.034 	 -7.89298 	 85.1647
| 37> H 	 -15.2741 	 -9.12188 	 85.0334
| 38> H 	 -14.7976 	 -8.44342 	 86.6161
| 39> H 	 -9.51944 	 -7.19667 	 88.6371
| 40> H 	 -13.6918 	 -2.50384 	 83.1622
| 41> *
| 42>
| 43>                          ****END OF INPUT****

CARTESIAN COORDINATES (ANGSTROEM)
---------------------------------
  S    -10.548400   -6.238050   86.526000
  C    -10.413700   -6.843560   88.194100
  C    -11.603300   -6.645040   88.859200
  C    -12.588500   -6.014930   88.036700
  C    -12.238100   -5.751450   86.763900
  H    -13.550300   -5.616140   88.405800
  C    -11.870300   -7.034630   90.296300
  H    -12.003200   -6.254460   91.008700
  H    -10.987400   -7.573490   90.608100
  C    -12.946500   -8.072100   90.431400
  H    -13.209700   -8.066790   91.481900
  H    -13.863100   -7.798280   89.871100
  C    -12.598700   -9.540230   89.964600
  H    -11.992700  -10.010400   90.703600
  H    -13.549200  -10.110300   89.821700
  H    -12.000700   -9.499450   89.070700
  S    -12.124900   -3.908650   84.706800
  C    -13.643500   -3.277990   83.931500
  C    -14.764300   -4.033430   84.328900
  C    -14.430000   -5.008160   85.350400
  C    -13.017400   -5.001090   85.755300
  H    -15.750900   -3.827530   83.926700
  C    -15.578000   -5.755660   85.973900
  H    -16.530900   -5.160770   85.882600
  H    -15.438800   -5.858220   87.072300
  C    -15.941500   -7.051530   85.270400
  H    -15.800400   -6.791940   84.154800
  H    -17.022700   -7.343230   85.379500
  C    -14.999300   -8.189640   85.569200
  H    -14.034000   -7.892980   85.164700
  H    -15.274100   -9.121880   85.033400
  H    -14.797600   -8.443420   86.616100
  H     -9.519440   -7.196670   88.637100
  H    -13.691800   -2.503840   83.162200

 Total Charge           Charge          ....    0
 Multiplicity           Mult            ....    1
 Number of Electrons    NEL             ....  134
 Basis Dimension        Dim             ....  322

ORBITAL ENERGIES
----------------

  NO   OCC          E(Eh)            E(eV)
   0   2.0000     -88.971982     -2421.0507
   1   2.0000     -88.966517     -2420.9020
   2   2.0000     -10.344292      -281.4825
   3   2.0000     -10.335018      -281.2301
   4   2.0000     -10.329992      -281.0934
   5   2.0000     -10.318159      -280.7714
   6   2.0000     -10.318060      -280.7687
   7   2.0000     -10.305406      -280.4244
   8   2.0000     -10.303521      -280.3731
   9   2.0000     -10.295749      -280.1616
  10   2.0000     -10.293250      -280.0936
  11   2.0000     -10.291476      -280.0453
  12   2.0000     -10.288312      -279.9592
  13   2.0000     -10.285853      -279.8923
  14   2.0000     -10.277152      -279.6555
  15   2.0000     -10.270018      -279.4614
  16   2.0000      -8.085173      -220.0087
  17   2.0000      -8.080566      -219.8834
  18   2.0000      -6.043856      -164.4617
  19   2.0000      -6.039766      -164.3504
  20   2.0000      -6.039304      -164.3378
  21   2.0000      -6.035963      -164.2469
  22   2.0000      -6.035227      -164.2269
  23   2.0000      -6.031052      -164.1133
  24   2.0000      -1.002487       -27.2791
  25   2.0000      -0.975858       -26.5544
  26   2.0000      -0.916186       -24.9307
  27   2.0000      -0.909056       -24.7367
  28   2.0000      -0.868736       -23.6395
  29   2.0000      -0.845889       -23.0178
  30   2.0000      -0.839053       -22.8318
  31   2.0000      -0.816327       -22.2134
  32   2.0000      -0.784561       -21.3490
  33   2.0000      -0.770454       -20.9651
  34   2.0000      -0.709193       -19.2981
  35   2.0000      -0.693872       -18.8812
  36   2.0000      -0.685378       -18.6501
  37   2.0000      -0.657708       -17.8971
  38   2.0000      -0.645686       -17.5700
  39   2.0000      -0.624617       -16.9967
  40   2.0000      -0.595524       -16.2050
  41   2.0000      -0.574663       -15.6374
  42   2.0000      -0.555532       -15.1168
  43   2.0000      -0.549873       -14.9628
  44   2.0000      -0.536982       -14.6120
  45   2.0000      -0.530849       -14.4451
  46   2.0000      -0.517427       -14.0799
  47   2.0000      -0.510471       -13.8906
  48   2.0000      -0.507432       -13.8079
  49   2.0000      -0.502123       -13.6635
  50   2.0000      -0.487114       -13.2551
  51   2.0000      -0.477411       -12.9910
  52   2.0000      -0.472720       -12.8634
  53   2.0000      -0.464243       -12.6327
  54   2.0000      -0.459650       -12.5077
  55   2.0000      -0.445800       -12.1308
  56   2.0000      -0.443156       -12.0589
  57   2.0000      -0.439780       -11.9670
  58   2.0000      -0.424816       -11.5598
  59   2.0000      -0.419269       -11.4089
  60   2.0000      -0.414840       -11.2884
  61   2.0000      -0.413313       -11.2468
  62   2.0000      -0.406616       -11.0646
  63   2.0000      -0.357358        -9.7242
  64   2.0000      -0.334719        -9.1082
  65   2.0000      -0.328753        -8.9458
  66   2.0000      -0.288319        -7.8456
  67   0.0000       0.017127         0.4660
  68   0.0000       0.070155         1.9090
  69   0.0000       0.098110         2.6697
  70   0.0000       0.111021         3.0210
  71   0.0000       0.130732         3.5574

MULLIKEN ATOMIC CHARGES
-----------------------
   0 S :    0.086926
   1 C :   -0.107284
   2 C :   -0.093576
   3 C :   -0.002005
   4 C :   -0.103024
   5 H :    0.026433
   6 C :    0.119673
   7 H :    0.034620
   8 H :   -0.002070
   9 C :   -0.109210
  10 H :    0.024189
  11 H :    0.028956
  12 C :   -0.049063
  13 H :    0.023781
  14 H :    0.047501
  15 H :    0.036443
  16 S :    0.094497
  17 C :   -0.098795
  18 C :   -0.027089
  19 C :   -0.041870
  20 C :   -0.139832
  21 H :    0.031901
  22 C :    0.026638
  23 H :    0.031561
  24 H :    0.028507
  25 C :   -0.099552
  26 H :    0.035003
  27 H :    0.038879
  28 C :   -0.041420
  29 H :    0.029843
  30 H :    0.034760
  31 H :    0.030515
  32 H :    0.038611
  33 H :    0.065554
Sum of atomic charges:    0.0000000

LOEWDIN ATOMIC CHARGES
----------------------
   0 S :    0.373697
   1 C :   -0.176556
   2 C :   -0.060083
   3 C :   -0.068635
   4 C :   -0.182632
   5 H :    0.035223
   6 C :   -0.029474
   7 H :    0.030485
   8 H :    0.029159
   9 C :   -0.041414
  10 H :    0.022113
  11 H :    0.020421
  12 C :   -0.062777
  13 H :    0.018208
  14 H :    0.034625
  15 H :    0.023840
  16 S :    0.387016
  17 C :   -0.169747
  18 C :   -0.063865
  19 C :   -0.053642
  20 C :   -0.193952
  21 H :    0.035757
  22 C :   -0.044647
  23 H :    0.038722
  24 H :    0.027751
  25 C :   -0.050579
  26 H :    0.034457
  27 H :    0.024484
  28 C :   -0.072993
  29 H :    0.027821
  30 H :    0.028526
  31 H :    0.022996
  32 H :    0.023499
  33 H :    0.032194

  Mayer bond orders larger than 0.100000
B(  0-S ,  1-C ) :   1.1200 B(  0-S ,  4-C ) :   1.1209 B(  1-C ,  2-C ) :   1.6286
B(  1-C , 32-H ) :   0.9721 B(  2-C ,  3-C ) :   1.2185 B(  2-C ,  6-C ) :   1.0286
B(  3-C ,  4-C ) :   1.6185 B(  3-C ,  5-H ) :   0.9851 B(  4-C , 20-C ) :   1.0601
B(  6-C ,  7-H ) :   0.9394 B(  6-C ,  8-H ) :   0.9337 B(  6-C ,  9-C ) :   1.0689
B(  9-C , 10-H ) :   0.9557 B(  9-C , 11-H ) :   0.9628 B(  9-C , 12-C ) :   1.0670
B( 12-C , 13-H ) :   0.9748 B( 12-C , 14-H ) :   0.9767 B( 12-C , 15-H ) :   0.9793
B( 16-S , 17-C ) :   1.1458 B( 16-S , 20-C ) :   1.1424 B( 17-C , 18-C ) :   1.5996
B( 17-C , 20-C ) :   0.1070 B( 17-C , 33-H ) :   0.9665 B( 18-C , 19-C ) :   1.2609
B( 18-C , 21-H ) :   0.9837 B( 19-C , 20-C ) :   1.5293 B( 19-C , 22-C ) :   1.0428
B( 22-C , 23-H ) :   0.9370 B( 22-C , 24-H ) :   0.9439 B( 22-C , 25-C ) :   1.0555
B( 25-C , 26-H ) :   0.9519 B( 25-C , 27-H ) :   0.9582 B( 25-C , 28-C ) :   1.0775
B( 28-C , 29-H ) :   0.9706 B( 28-C , 30-H ) :   0.9721 B( 28-C , 31-H ) :   0.9763

Dispersion correction           -0.015223225
FINAL SINGLE POINT ENERGY     -1339.874854449440

DIPOLE MOMENT
-------------
                                X             Y             Z
Electronic contribution:     16.10120      18.93272     -13.76461
Nuclear contribution   :    -16.59540     -18.98069      14.16162
                        -----------------------------------------
Total Dipole Moment    :     -0.49420      -0.04797       0.39701
                        -----------------------------------------
Magnitude (a.u.)       :      0.63573
Magnitude (Debye)      :      1.61590

Rotational constants in cm-1:     0.019805     0.009442     0.007240
Rotational constants in MHz :   593.750193   283.058991   217.064522

                             ****ORCA TERMINATED NORMALLY****
TOTAL RUN TIME: 0 days 0 hours 0 minutes 36 seconds 916 msec
