                         Program Version 4.2.1 -  RELEASE  -
|  1> ! wB97X-D3 SP def2-SVP
|  2> %pal
|  3> nprocs 16
|  4> end
|  5>
|  6> * xyz 0 1
|  7> S 	 -105.083 	 42.3961 	 126.977
|  8> C 	 -103.998 	 41.1379 	 127.369
|  9> C 	 -102.74 	 41.6223 	 127.646
| 10> C 	 -102.74 	 43.0611 	 127.587
| 11> C 	 -103.884 	 43.6309 	 127.141
| 12> H 	 -101.823 	 43.5368 	 127.838
| 13> C 	 -101.553 	 40.8359 	 128.125
| 14> H 	 -100.662 	 41.3434 	 127.867
| 15> H 	 -101.433 	 40.0207 	 127.45
| 16> C 	 -101.56 	 40.4969 	 129.612
| 17> H 	 -102.329 	 39.7621 	 129.697
| 18> H 	 -100.562 	 39.9635 	 129.771
| 19> C 	 -101.709 	 41.7033 	 130.602
| 20> H 	 -100.916 	 42.4427 	 130.471
| 21> H 	 -102.688 	 42.2749 	 130.333
| 22> H 	 -101.89 	 41.4024 	 131.586
| 23> S 	 -105.249 	 45.715 	 128.187
| 24> C 	 -104.76 	 47.3623 	 127.871
| 25> C 	 -103.794 	 47.3659 	 126.914
| 26> C 	 -103.364 	 46.0537 	 126.438
| 27> C 	 -104.156 	 45.082 	 127.004
| 28> H 	 -103.439 	 48.3145 	 126.558
| 29> C 	 -102.195 	 45.9164 	 125.489
| 30> H 	 -101.683 	 45.0495 	 125.786
| 31> H 	 -101.53 	 46.7683 	 125.688
| 32> C 	 -102.623 	 45.8749 	 124.057
| 33> H 	 -103.34 	 46.6262 	 123.952
| 34> H 	 -103.216 	 44.9668 	 123.814
| 35> C 	 -101.562 	 46.2017 	 122.986
| 36> H 	 -100.568 	 45.804 	 123.193
| 37> H 	 -101.526 	 47.2843 	 122.831
| 38> H 	 -102.011 	 45.6606 	 122.116
| 39> H 	 -104.394 	 40.179 	 127.628
| 40> H 	 -105.02 	 48.2759 	 128.403
| 41> *
| 42>
| 43>                          ****END OF INPUT****

CARTESIAN COORDINATES (ANGSTROEM)
---------------------------------
  S    -105.083000   42.396100  126.977000
  C    -103.998000   41.137900  127.369000
  C    -102.740000   41.622300  127.646000
  C    -102.740000   43.061100  127.587000
  C    -103.884000   43.630900  127.141000
  H    -101.823000   43.536800  127.838000
  C    -101.553000   40.835900  128.125000
  H    -100.662000   41.343400  127.867000
  H    -101.433000   40.020700  127.450000
  C    -101.560000   40.496900  129.612000
  H    -102.329000   39.762100  129.697000
  H    -100.562000   39.963500  129.771000
  C    -101.709000   41.703300  130.602000
  H    -100.916000   42.442700  130.471000
  H    -102.688000   42.274900  130.333000
  H    -101.890000   41.402400  131.586000
  S    -105.249000   45.715000  128.187000
  C    -104.760000   47.362300  127.871000
  C    -103.794000   47.365900  126.914000
  C    -103.364000   46.053700  126.438000
  C    -104.156000   45.082000  127.004000
  H    -103.439000   48.314500  126.558000
  C    -102.195000   45.916400  125.489000
  H    -101.683000   45.049500  125.786000
  H    -101.530000   46.768300  125.688000
  C    -102.623000   45.874900  124.057000
  H    -103.340000   46.626200  123.952000
  H    -103.216000   44.966800  123.814000
  C    -101.562000   46.201700  122.986000
  H    -100.568000   45.804000  123.193000
  H    -101.526000   47.284300  122.831000
  H    -102.011000   45.660600  122.116000
  H    -104.394000   40.179000  127.628000
  H    -105.020000   48.275900  128.403000

 Total Charge           Charge          ....    0
 Multiplicity           Mult            ....    1
 Number of Electrons    NEL             ....  134
 Basis Dimension        Dim             ....  322

ORBITAL ENERGIES
----------------

  NO   OCC          E(Eh)            E(eV)
   0   2.0000     -88.962550     -2420.7941
   1   2.0000     -88.960676     -2420.7431
   2   2.0000     -10.325221      -280.9636
   3   2.0000     -10.324260      -280.9374
   4   2.0000     -10.315438      -280.6974
   5   2.0000     -10.307038      -280.4688
   6   2.0000     -10.303642      -280.3763
   7   2.0000     -10.295121      -280.1445
   8   2.0000     -10.292585      -280.0755
   9   2.0000     -10.290885      -280.0292
  10   2.0000     -10.286170      -279.9009
  11   2.0000     -10.285184      -279.8741
  12   2.0000     -10.283045      -279.8159
  13   2.0000     -10.282777      -279.8086
  14   2.0000     -10.280481      -279.7461
  15   2.0000     -10.276995      -279.6513
  16   2.0000      -8.077864      -219.8099
  17   2.0000      -8.076909      -219.7839
  18   2.0000      -6.036534      -164.2624
  19   2.0000      -6.035396      -164.2315
  20   2.0000      -6.032221      -164.1451
  21   2.0000      -6.031041      -164.1130
  22   2.0000      -6.028469      -164.0430
  23   2.0000      -6.027785      -164.0244
  24   2.0000      -1.012005       -27.5380
  25   2.0000      -0.989669       -26.9303
  26   2.0000      -0.914650       -24.8889
  27   2.0000      -0.912266       -24.8240
  28   2.0000      -0.869564       -23.6620
  29   2.0000      -0.849442       -23.1145
  30   2.0000      -0.842102       -22.9148
  31   2.0000      -0.817750       -22.2521
  32   2.0000      -0.786486       -21.4014
  33   2.0000      -0.776111       -21.1191
  34   2.0000      -0.704303       -19.1651
  35   2.0000      -0.702010       -19.1027
  36   2.0000      -0.692129       -18.8338
  37   2.0000      -0.662799       -18.0357
  38   2.0000      -0.643790       -17.5184
  39   2.0000      -0.622780       -16.9467
  40   2.0000      -0.595570       -16.2063
  41   2.0000      -0.575319       -15.6552
  42   2.0000      -0.565713       -15.3938
  43   2.0000      -0.552707       -15.0399
  44   2.0000      -0.536026       -14.5860
  45   2.0000      -0.529783       -14.4161
  46   2.0000      -0.519331       -14.1317
  47   2.0000      -0.510361       -13.8876
  48   2.0000      -0.506225       -13.7751
  49   2.0000      -0.499806       -13.6004
  50   2.0000      -0.490373       -13.3437
  51   2.0000      -0.479022       -13.0349
  52   2.0000      -0.471375       -12.8268
  53   2.0000      -0.467667       -12.7259
  54   2.0000      -0.455603       -12.3976
  55   2.0000      -0.450854       -12.2684
  56   2.0000      -0.443857       -12.0780
  57   2.0000      -0.437912       -11.9162
  58   2.0000      -0.433373       -11.7927
  59   2.0000      -0.420761       -11.4495
  60   2.0000      -0.418933       -11.3997
  61   2.0000      -0.411462       -11.1964
  62   2.0000      -0.409192       -11.1347
  63   2.0000      -0.347037        -9.4434
  64   2.0000      -0.327236        -8.9045
  65   2.0000      -0.325089        -8.8461
  66   2.0000      -0.302083        -8.2201
  67   0.0000       0.040953         1.1144
  68   0.0000       0.070646         1.9224
  69   0.0000       0.119611         3.2548
  70   0.0000       0.123833         3.3697
  71   0.0000       0.133165         3.6236

MULLIKEN ATOMIC CHARGES
-----------------------
   0 S :    0.103849
   1 C :   -0.117456
   2 C :   -0.141170
   3 C :    0.045333
   4 C :   -0.152265
   5 H :   -0.005777
   6 C :    0.104579
   7 H :   -0.004895
   8 H :    0.017656
   9 C :   -0.063326
  10 H :    0.021381
  11 H :    0.038218
  12 C :   -0.056595
  13 H :    0.038166
  14 H :    0.051866
  15 H :    0.032509
  16 S :    0.102309
  17 C :   -0.085479
  18 C :   -0.040747
  19 C :   -0.091584
  20 C :   -0.116418
  21 H :    0.009583
  22 C :    0.145029
  23 H :    0.003710
  24 H :    0.016937
  25 C :   -0.073503
  26 H :    0.004272
  27 H :    0.035984
  28 C :   -0.046049
  29 H :    0.034998
  30 H :    0.039967
  31 H :    0.042175
  32 H :    0.046674
  33 H :    0.060066
Sum of atomic charges:    0.0000000

LOEWDIN ATOMIC CHARGES
----------------------
   0 S :    0.425974
   1 C :   -0.205945
   2 C :   -0.064224
   3 C :   -0.060426
   4 C :   -0.207333
   5 H :    0.022808
   6 C :   -0.037293
   7 H :    0.021938
   8 H :    0.032254
   9 C :   -0.035295
  10 H :    0.017515
  11 H :    0.031082
  12 C :   -0.066541
  13 H :    0.025790
  14 H :    0.041511
  15 H :    0.019108
  16 S :    0.413114
  17 C :   -0.189021
  18 C :   -0.071525
  19 C :   -0.046911
  20 C :   -0.206372
  21 H :    0.025296
  22 C :   -0.026522
  23 H :    0.021692
  24 H :    0.033393
  25 C :   -0.043567
  26 H :    0.017385
  27 H :    0.030338
  28 C :   -0.064754
  29 H :    0.021834
  30 H :    0.026402
  31 H :    0.038146
  32 H :    0.022890
  33 H :    0.037260

  Mayer bond orders larger than 0.100000
B(  0-S ,  1-C ) :   1.1611 B(  0-S ,  4-C ) :   1.1593 B(  1-C ,  2-C ) :   1.5879
B(  1-C , 32-H ) :   0.9727 B(  2-C ,  3-C ) :   1.2749 B(  2-C ,  6-C ) :   1.0218
B(  3-C ,  4-C ) :   1.5552 B(  3-C ,  5-H ) :   1.0000 B(  4-C , 20-C ) :   0.9827
B(  6-C ,  7-H ) :   0.9303 B(  6-C ,  8-H ) :   0.9327 B(  6-C ,  9-C ) :   1.0618
B(  9-C , 10-H ) :   0.9607 B(  9-C , 11-H ) :   0.9546 B(  9-C , 12-C ) :   1.0714
B( 12-C , 13-H ) :   0.9761 B( 12-C , 14-H ) :   0.9680 B( 12-C , 15-H ) :   0.9753
B( 16-S , 17-C ) :   1.1428 B( 16-S , 20-C ) :   1.1490 B( 17-C , 18-C ) :   1.6438
B( 17-C , 33-H ) :   0.9653 B( 18-C , 19-C ) :   1.2165 B( 18-C , 21-H ) :   0.9889
B( 19-C , 20-C ) :   1.6250 B( 19-C , 22-C ) :   1.0413 B( 22-C , 23-H ) :   0.9145
B( 22-C , 24-H ) :   0.9306 B( 22-C , 25-C ) :   1.0731 B( 25-C , 26-H ) :   0.9522
B( 25-C , 27-H ) :   0.9580 B( 25-C , 28-C ) :   1.0675 B( 28-C , 29-H ) :   0.9790
B( 28-C , 30-H ) :   0.9789 B( 28-C , 31-H ) :   0.9759

Dispersion correction           -0.014538741
FINAL SINGLE POINT ENERGY     -1339.872397302050

DIPOLE MOMENT
-------------
                                X             Y             Z
Electronic contribution:    -20.74292       2.65982       4.19238
Nuclear contribution   :     21.39006      -2.54447      -4.10659
                        -----------------------------------------
Total Dipole Moment    :      0.64714       0.11535       0.08579
                        -----------------------------------------
Magnitude (a.u.)       :      0.66292
Magnitude (Debye)      :      1.68501

Rotational constants in cm-1:     0.017937     0.008610     0.007384
Rotational constants in MHz :   537.751373   258.130021   221.356490

                             ****ORCA TERMINATED NORMALLY****
TOTAL RUN TIME: 0 days 0 hours 0 minutes 33 seconds 950 msec
