                         Program Version 4.2.1 -  RELEASE  -
|  1> ! wB97X-D3 SP def2-SVP
|  2> %pal
|  3> nprocs 16
|  4> end
|  5>
|  6> * xyz 0 1
|  7> S 	 -69.5021 	 60.7517 	 128.262
|  8> C 	 -68.695 	 62.337 	 128.161
|  9> C 	 -69.1194 	 63.0019 	 127.089
| 10> C 	 -69.977 	 62.2642 	 126.209
| 11> C 	 -70.2148 	 60.9633 	 126.655
| 12> H 	 -70.3882 	 62.6095 	 125.281
| 13> C 	 -68.655 	 64.4619 	 126.839
| 14> H 	 -67.5994 	 64.5153 	 126.535
| 15> H 	 -68.658 	 64.9959 	 127.754
| 16> C 	 -69.3226 	 65.1579 	 125.629
| 17> H 	 -68.6376 	 66.0364 	 125.451
| 18> H 	 -69.3172 	 64.5497 	 124.737
| 19> C 	 -70.7349 	 65.6949 	 125.928
| 20> H 	 -70.7403 	 66.4911 	 126.693
| 21> H 	 -71.0645 	 66.0894 	 124.965
| 22> H 	 -71.5145 	 65.0679 	 126.171
| 23> S 	 -71.8592 	 58.795 	 126.706
| 24> C 	 -72.1992 	 57.8546 	 125.302
| 25> C 	 -71.6244 	 58.4691 	 124.236
| 26> C 	 -70.7256 	 59.5792 	 124.485
| 27> C 	 -70.7841 	 59.8544 	 125.855
| 28> H 	 -71.885 	 57.9285 	 123.335
| 29> C 	 -69.9561 	 60.1542 	 123.321
| 30> H 	 -69.771 	 59.2821 	 122.697
| 31> H 	 -69.0324 	 60.6271 	 123.641
| 32> C 	 -70.8227 	 61.2442 	 122.593
| 33> H 	 -71.1751 	 62.0656 	 123.308
| 34> H 	 -71.6535 	 60.6945 	 122.1
| 35> C 	 -70.0434 	 62.1079 	 121.626
| 36> H 	 -69.1031 	 62.4616 	 122.113
| 37> H 	 -70.6348 	 62.9552 	 121.264
| 38> H 	 -69.6148 	 61.6586 	 120.713
| 39> H 	 -68.0557 	 62.786 	 128.877
| 40> H 	 -72.9982 	 57.1598 	 125.2
| 41> *
| 42>
| 43>                          ****END OF INPUT****

CARTESIAN COORDINATES (ANGSTROEM)
---------------------------------
  S    -69.502100   60.751700  128.262000
  C    -68.695000   62.337000  128.161000
  C    -69.119400   63.001900  127.089000
  C    -69.977000   62.264200  126.209000
  C    -70.214800   60.963300  126.655000
  H    -70.388200   62.609500  125.281000
  C    -68.655000   64.461900  126.839000
  H    -67.599400   64.515300  126.535000
  H    -68.658000   64.995900  127.754000
  C    -69.322600   65.157900  125.629000
  H    -68.637600   66.036400  125.451000
  H    -69.317200   64.549700  124.737000
  C    -70.734900   65.694900  125.928000
  H    -70.740300   66.491100  126.693000
  H    -71.064500   66.089400  124.965000
  H    -71.514500   65.067900  126.171000
  S    -71.859200   58.795000  126.706000
  C    -72.199200   57.854600  125.302000
  C    -71.624400   58.469100  124.236000
  C    -70.725600   59.579200  124.485000
  C    -70.784100   59.854400  125.855000
  H    -71.885000   57.928500  123.335000
  C    -69.956100   60.154200  123.321000
  H    -69.771000   59.282100  122.697000
  H    -69.032400   60.627100  123.641000
  C    -70.822700   61.244200  122.593000
  H    -71.175100   62.065600  123.308000
  H    -71.653500   60.694500  122.100000
  C    -70.043400   62.107900  121.626000
  H    -69.103100   62.461600  122.113000
  H    -70.634800   62.955200  121.264000
  H    -69.614800   61.658600  120.713000
  H    -68.055700   62.786000  128.877000
  H    -72.998200   57.159800  125.200000

 Total Charge           Charge          ....    0
 Multiplicity           Mult            ....    1
 Number of Electrons    NEL             ....  134
 Basis Dimension        Dim             ....  322

ORBITAL ENERGIES
----------------

  NO   OCC          E(Eh)            E(eV)
   0   2.0000     -88.963428     -2420.8180
   1   2.0000     -88.961483     -2420.7650
   2   2.0000     -10.334399      -281.2133
   3   2.0000     -10.332096      -281.1506
   4   2.0000     -10.309967      -280.5485
   5   2.0000     -10.308958      -280.5210
   6   2.0000     -10.306631      -280.4577
   7   2.0000     -10.300712      -280.2966
   8   2.0000     -10.298735      -280.2428
   9   2.0000     -10.296285      -280.1762
  10   2.0000     -10.295380      -280.1515
  11   2.0000     -10.294771      -280.1350
  12   2.0000     -10.290896      -280.0295
  13   2.0000     -10.290744      -280.0254
  14   2.0000     -10.283523      -279.8289
  15   2.0000     -10.272198      -279.5207
  16   2.0000      -8.077476      -219.7993
  17   2.0000      -8.077307      -219.7947
  18   2.0000      -6.036160      -164.2523
  19   2.0000      -6.035816      -164.2429
  20   2.0000      -6.032189      -164.1442
  21   2.0000      -6.031553      -164.1269
  22   2.0000      -6.028118      -164.0334
  23   2.0000      -6.027963      -164.0292
  24   2.0000      -1.007523       -27.4161
  25   2.0000      -0.985526       -26.8175
  26   2.0000      -0.912096       -24.8194
  27   2.0000      -0.907739       -24.7008
  28   2.0000      -0.872035       -23.7293
  29   2.0000      -0.853909       -23.2360
  30   2.0000      -0.838587       -22.8191
  31   2.0000      -0.820975       -22.3399
  32   2.0000      -0.786106       -21.3910
  33   2.0000      -0.778017       -21.1709
  34   2.0000      -0.712901       -19.3990
  35   2.0000      -0.696612       -18.9558
  36   2.0000      -0.690746       -18.7961
  37   2.0000      -0.660160       -17.9639
  38   2.0000      -0.638207       -17.3665
  39   2.0000      -0.626042       -17.0355
  40   2.0000      -0.598524       -16.2867
  41   2.0000      -0.569847       -15.5063
  42   2.0000      -0.567017       -15.4293
  43   2.0000      -0.545889       -14.8544
  44   2.0000      -0.532099       -14.4792
  45   2.0000      -0.528544       -14.3824
  46   2.0000      -0.522653       -14.2221
  47   2.0000      -0.516322       -14.0498
  48   2.0000      -0.511791       -13.9265
  49   2.0000      -0.504378       -13.7248
  50   2.0000      -0.490582       -13.3494
  51   2.0000      -0.489069       -13.3082
  52   2.0000      -0.471037       -12.8176
  53   2.0000      -0.466961       -12.7067
  54   2.0000      -0.457860       -12.4590
  55   2.0000      -0.446779       -12.1575
  56   2.0000      -0.443997       -12.0818
  57   2.0000      -0.438809       -11.9406
  58   2.0000      -0.433033       -11.7834
  59   2.0000      -0.425293       -11.5728
  60   2.0000      -0.421092       -11.4585
  61   2.0000      -0.417165       -11.3516
  62   2.0000      -0.402121       -10.9423
  63   2.0000      -0.354156        -9.6371
  64   2.0000      -0.329827        -8.9751
  65   2.0000      -0.327224        -8.9042
  66   2.0000      -0.291701        -7.9376
  67   0.0000       0.026255         0.7144
  68   0.0000       0.077097         2.0979
  69   0.0000       0.107338         2.9208
  70   0.0000       0.115754         3.1498
  71   0.0000       0.128493         3.4965

MULLIKEN ATOMIC CHARGES
-----------------------
   0 S :    0.098649
   1 C :   -0.114494
   2 C :   -0.062367
   3 C :    0.026541
   4 C :   -0.104864
   5 H :   -0.026184
   6 C :    0.072218
   7 H :    0.034129
   8 H :    0.018971
   9 C :   -0.102810
  10 H :    0.036600
  11 H :    0.032011
  12 C :   -0.025337
  13 H :    0.032265
  14 H :    0.021626
  15 H :    0.021236
  16 S :    0.093186
  17 C :   -0.074328
  18 C :   -0.075277
  19 C :   -0.026976
  20 C :   -0.155157
  21 H :    0.016219
  22 C :    0.097932
  23 H :    0.037770
  24 H :    0.023631
  25 C :   -0.107100
  26 H :    0.053332
  27 H :    0.041531
  28 C :   -0.056930
  29 H :    0.026375
  30 H :    0.041728
  31 H :    0.025126
  32 H :    0.028546
  33 H :    0.052200
Sum of atomic charges:   -0.0000000

LOEWDIN ATOMIC CHARGES
----------------------
   0 S :    0.378095
   1 C :   -0.178853
   2 C :   -0.064664
   3 C :   -0.065058
   4 C :   -0.179940
   5 H :    0.022078
   6 C :   -0.031148
   7 H :    0.035457
   8 H :    0.024259
   9 C :   -0.039641
  10 H :    0.034636
  11 H :    0.021159
  12 C :   -0.066383
  13 H :    0.028642
  14 H :    0.027934
  15 H :    0.013454
  16 S :    0.416020
  17 C :   -0.194970
  18 C :   -0.074827
  19 C :   -0.054002
  20 C :   -0.195949
  21 H :    0.029848
  22 C :   -0.024801
  23 H :    0.037025
  24 H :    0.029174
  25 C :   -0.042936
  26 H :    0.035396
  27 H :    0.028718
  28 C :   -0.079427
  29 H :    0.026803
  30 H :    0.028238
  31 H :    0.022524
  32 H :    0.025100
  33 H :    0.028039

  Mayer bond orders larger than 0.100000
B(  0-S ,  1-C ) :   1.1067 B(  0-S ,  4-C ) :   1.1462 B(  1-C ,  2-C ) :   1.6668
B(  1-C , 32-H ) :   0.9751 B(  2-C ,  3-C ) :   1.2254 B(  2-C ,  6-C ) :   0.9947
B(  3-C ,  4-C ) :   1.5727 B(  3-C ,  5-H ) :   0.9998 B(  4-C , 20-C ) :   1.0243
B(  6-C ,  7-H ) :   0.9417 B(  6-C ,  8-H ) :   0.9448 B(  6-C ,  9-C ) :   1.0809
B(  9-C , 10-H ) :   0.9557 B(  9-C , 11-H ) :   0.9522 B(  9-C , 12-C ) :   1.0755
B( 12-C , 13-H ) :   0.9751 B( 12-C , 14-H ) :   0.9728 B( 12-C , 15-H ) :   0.9785
B( 16-S , 17-C ) :   1.1399 B( 16-S , 20-C ) :   1.1632 B( 17-C , 18-C ) :   1.6547
B( 17-C , 33-H ) :   0.9663 B( 18-C , 19-C ) :   1.2081 B( 18-C , 21-H ) :   0.9817
B( 19-C , 20-C ) :   1.5861 B( 19-C , 22-C ) :   1.0441 B( 22-C , 23-H ) :   0.9316
B( 22-C , 24-H ) :   0.9322 B( 22-C , 25-C ) :   1.0609 B( 25-C , 26-H ) :   0.9548
B( 25-C , 27-H ) :   0.9521 B( 25-C , 28-C ) :   1.0774 B( 28-C , 29-H ) :   0.9696
B( 28-C , 30-H ) :   0.9762 B( 28-C , 31-H ) :   0.9709

Dispersion correction           -0.014677751
FINAL SINGLE POINT ENERGY     -1339.865019812066

DIPOLE MOMENT
-------------
                                X             Y             Z
Electronic contribution:     -3.59951     -23.58137      21.29153
Nuclear contribution   :      3.68802      24.06586     -21.99599
                        -----------------------------------------
Total Dipole Moment    :      0.08851       0.48449      -0.70446
                        -----------------------------------------
Magnitude (a.u.)       :      0.85955
Magnitude (Debye)      :      2.18480

Rotational constants in cm-1:     0.016383     0.010456     0.007117
Rotational constants in MHz :   491.161051   313.467326   213.349192

                             ****ORCA TERMINATED NORMALLY****
TOTAL RUN TIME: 0 days 0 hours 0 minutes 35 seconds 474 msec
