                         Program Version 4.2.1 -  RELEASE  -
|  1> ! wB97X-D3 SP def2-SVP
|  2> %pal
|  3> nprocs 16
|  4> end
|  5>
|  6> * xyz 0 1
|  7> S 	 6.98126 	 -13.7354 	 63.3323
|  8> C 	 8.69602 	 -13.9087 	 63.0669
|  9> C 	 9.51053 	 -13.1281 	 63.8861
| 10> C 	 8.6419 	 -12.4158 	 64.7943
| 11> C 	 7.26598 	 -12.6233 	 64.6062
| 12> H 	 8.99882 	 -11.7876 	 65.5696
| 13> C 	 10.9831 	 -13.1502 	 63.8326
| 14> H 	 11.2009 	 -12.0195 	 63.9554
| 15> H 	 11.291 	 -13.2924 	 62.8284
| 16> C 	 11.775 	 -14.0437 	 64.7759
| 17> H 	 11.8533 	 -15.104 	 64.5462
| 18> H 	 12.75 	 -13.7595 	 64.6277
| 19> C 	 11.4695 	 -13.885 	 66.2738
| 20> H 	 11.2281 	 -12.8148 	 66.4496
| 21> H 	 10.672 	 -14.5386 	 66.4305
| 22> H 	 12.1939 	 -14.3068 	 66.912
| 23> S 	 5.24725 	 -10.7581 	 64.5791
| 24> C 	 4.19799 	 -10.6372 	 65.9605
| 25> C 	 4.64156 	 -11.4757 	 66.9536
| 26> C 	 5.70925 	 -12.3681 	 66.6537
| 27> C 	 6.18379 	 -12.0655 	 65.359
| 28> H 	 3.95561 	 -11.4052 	 67.7363
| 29> C 	 6.22571 	 -13.4155 	 67.6576
| 30> H 	 6.48064 	 -12.7278 	 68.4981
| 31> H 	 7.04041 	 -14.0788 	 67.2422
| 32> C 	 5.06768 	 -14.479 	 67.9088
| 33> H 	 4.165 	 -13.868 	 68.1875
| 34> H 	 5.18139 	 -15.1188 	 68.7804
| 35> C 	 4.67742 	 -15.3583 	 66.6701
| 36> H 	 4.40331 	 -14.778 	 65.821
| 37> H 	 3.7776 	 -15.9514 	 66.8664
| 38> H 	 5.38249 	 -16.07 	 66.1679
| 39> H 	 9.13484 	 -14.4521 	 62.3256
| 40> H 	 3.26559 	 -10.0856 	 66.0661
| 41> *
| 42>
| 43>                          ****END OF INPUT****

CARTESIAN COORDINATES (ANGSTROEM)
---------------------------------
  S      6.981260  -13.735400   63.332300
  C      8.696020  -13.908700   63.066900
  C      9.510530  -13.128100   63.886100
  C      8.641900  -12.415800   64.794300
  C      7.265980  -12.623300   64.606200
  H      8.998820  -11.787600   65.569600
  C     10.983100  -13.150200   63.832600
  H     11.200900  -12.019500   63.955400
  H     11.291000  -13.292400   62.828400
  C     11.775000  -14.043700   64.775900
  H     11.853300  -15.104000   64.546200
  H     12.750000  -13.759500   64.627700
  C     11.469500  -13.885000   66.273800
  H     11.228100  -12.814800   66.449600
  H     10.672000  -14.538600   66.430500
  H     12.193900  -14.306800   66.912000
  S      5.247250  -10.758100   64.579100
  C      4.197990  -10.637200   65.960500
  C      4.641560  -11.475700   66.953600
  C      5.709250  -12.368100   66.653700
  C      6.183790  -12.065500   65.359000
  H      3.955610  -11.405200   67.736300
  C      6.225710  -13.415500   67.657600
  H      6.480640  -12.727800   68.498100
  H      7.040410  -14.078800   67.242200
  C      5.067680  -14.479000   67.908800
  H      4.165000  -13.868000   68.187500
  H      5.181390  -15.118800   68.780400
  C      4.677420  -15.358300   66.670100
  H      4.403310  -14.778000   65.821000
  H      3.777600  -15.951400   66.866400
  H      5.382490  -16.070000   66.167900
  H      9.134840  -14.452100   62.325600
  H      3.265590  -10.085600   66.066100

 Total Charge           Charge          ....    0
 Multiplicity           Mult            ....    1
 Number of Electrons    NEL             ....  134
 Basis Dimension        Dim             ....  322

ORBITAL ENERGIES
----------------

  NO   OCC          E(Eh)            E(eV)
   0   2.0000     -88.966577     -2420.9036
   1   2.0000     -88.961951     -2420.7778
   2   2.0000     -10.325555      -280.9726
   3   2.0000     -10.321713      -280.8681
   4   2.0000     -10.313783      -280.6523
   5   2.0000     -10.310077      -280.5515
   6   2.0000     -10.307074      -280.4697
   7   2.0000     -10.303570      -280.3744
   8   2.0000     -10.297638      -280.2130
   9   2.0000     -10.297277      -280.2031
  10   2.0000     -10.296261      -280.1755
  11   2.0000     -10.292708      -280.0788
  12   2.0000     -10.285165      -279.8736
  13   2.0000     -10.280004      -279.7331
  14   2.0000     -10.276309      -279.6326
  15   2.0000     -10.270486      -279.4741
  16   2.0000      -8.081786      -219.9166
  17   2.0000      -8.076362      -219.7690
  18   2.0000      -6.040058      -164.3583
  19   2.0000      -6.036214      -164.2537
  20   2.0000      -6.034841      -164.2164
  21   2.0000      -6.032782      -164.1603
  22   2.0000      -6.030838      -164.1074
  23   2.0000      -6.027245      -164.0097
  24   2.0000      -1.004101       -27.3230
  25   2.0000      -0.981096       -26.6970
  26   2.0000      -0.918733       -25.0000
  27   2.0000      -0.897901       -24.4331
  28   2.0000      -0.871395       -23.7119
  29   2.0000      -0.848812       -23.0974
  30   2.0000      -0.840074       -22.8596
  31   2.0000      -0.814127       -22.1535
  32   2.0000      -0.788684       -21.4612
  33   2.0000      -0.772874       -21.0310
  34   2.0000      -0.714519       -19.4431
  35   2.0000      -0.707718       -19.2580
  36   2.0000      -0.695144       -18.9158
  37   2.0000      -0.650294       -17.6954
  38   2.0000      -0.642005       -17.4698
  39   2.0000      -0.616516       -16.7762
  40   2.0000      -0.589943       -16.0532
  41   2.0000      -0.571902       -15.5623
  42   2.0000      -0.560894       -15.2627
  43   2.0000      -0.553170       -15.0525
  44   2.0000      -0.547968       -14.9110
  45   2.0000      -0.527760       -14.3611
  46   2.0000      -0.514097       -13.9893
  47   2.0000      -0.511899       -13.9295
  48   2.0000      -0.498439       -13.5632
  49   2.0000      -0.493163       -13.4196
  50   2.0000      -0.488270       -13.2865
  51   2.0000      -0.476101       -12.9554
  52   2.0000      -0.468418       -12.7463
  53   2.0000      -0.461509       -12.5583
  54   2.0000      -0.456650       -12.4261
  55   2.0000      -0.452254       -12.3065
  56   2.0000      -0.443863       -12.0781
  57   2.0000      -0.441652       -12.0180
  58   2.0000      -0.433833       -11.8052
  59   2.0000      -0.426041       -11.5932
  60   2.0000      -0.416452       -11.3322
  61   2.0000      -0.409347       -11.1389
  62   2.0000      -0.407272       -11.0824
  63   2.0000      -0.334437        -9.1005
  64   2.0000      -0.326469        -8.8837
  65   2.0000      -0.321491        -8.7482
  66   2.0000      -0.303287        -8.2529
  67   0.0000       0.040784         1.1098
  68   0.0000       0.060893         1.6570
  69   0.0000       0.117327         3.1926
  70   0.0000       0.122508         3.3336
  71   0.0000       0.128791         3.5046

MULLIKEN ATOMIC CHARGES
-----------------------
   0 S :    0.135750
   1 C :   -0.071888
   2 C :   -0.106182
   3 C :    0.064168
   4 C :   -0.187210
   5 H :   -0.009249
   6 C :    0.048435
   7 H :    0.038553
   8 H :    0.012088
   9 C :   -0.014763
  10 H :    0.020674
  11 H :    0.002453
  12 C :   -0.024874
  13 H :    0.038680
  14 H :    0.023239
  15 H :    0.021405
  16 S :    0.109708
  17 C :   -0.107312
  18 C :   -0.041786
  19 C :    0.013949
  20 C :   -0.207925
  21 H :   -0.004829
  22 C :    0.069513
  23 H :    0.059110
  24 H :    0.053494
  25 C :   -0.085535
  26 H :    0.030015
  27 H :    0.035862
  28 C :   -0.068719
  29 H :    0.025158
  30 H :    0.032512
  31 H :    0.037817
  32 H :   -0.002660
  33 H :    0.060347
Sum of atomic charges:    0.0000000

LOEWDIN ATOMIC CHARGES
----------------------
   0 S :    0.432135
   1 C :   -0.184305
   2 C :   -0.064356
   3 C :   -0.049338
   4 C :   -0.222297
   5 H :    0.021586
   6 C :   -0.036389
   7 H :    0.046229
   8 H :    0.029259
   9 C :   -0.033952
  10 H :    0.026183
  11 H :    0.014251
  12 C :   -0.056582
  13 H :    0.029452
  14 H :    0.021302
  15 H :    0.022627
  16 S :    0.393284
  17 C :   -0.189556
  18 C :   -0.077833
  19 C :   -0.047035
  20 C :   -0.199474
  21 H :    0.020238
  22 C :   -0.030901
  23 H :    0.044693
  24 H :    0.041116
  25 C :   -0.041552
  26 H :    0.027323
  27 H :    0.021996
  28 C :   -0.078814
  29 H :    0.021157
  30 H :    0.029865
  31 H :    0.030606
  32 H :    0.003892
  33 H :    0.035188

  Mayer bond orders larger than 0.100000
B(  0-S ,  1-C ) :   1.1554 B(  0-S ,  4-C ) :   1.1649 B(  1-C ,  2-C ) :   1.5968
B(  1-C , 32-H ) :   0.9725 B(  2-C ,  3-C ) :   1.2460 B(  2-C ,  6-C ) :   1.0246
B(  3-C ,  4-C ) :   1.5649 B(  3-C ,  5-H ) :   1.0019 B(  4-C , 20-C ) :   1.0369
B(  6-C ,  7-H ) :   0.9364 B(  6-C ,  8-H ) :   0.9310 B(  6-C ,  9-C ) :   1.0739
B(  9-C , 10-H ) :   0.9536 B(  9-C , 11-H ) :   0.9459 B(  9-C , 12-C ) :   1.0800
B( 12-C , 13-H ) :   0.9757 B( 12-C , 14-H ) :   0.9726 B( 12-C , 15-H ) :   0.9694
B( 16-S , 17-C ) :   1.1418 B( 16-S , 20-C ) :   1.1515 B( 17-C , 18-C ) :   1.6504
B( 17-C , 20-C ) :   0.1034 B( 17-C , 33-H ) :   0.9634 B( 18-C , 19-C ) :   1.1978
B( 18-C , 21-H ) :   0.9890 B( 19-C , 20-C ) :   1.5820 B( 19-C , 22-C ) :   1.0206
B( 22-C , 23-H ) :   0.9407 B( 22-C , 24-H ) :   0.9419 B( 22-C , 25-C ) :   1.0486
B( 25-C , 26-H ) :   0.9583 B( 25-C , 27-H ) :   0.9638 B( 25-C , 28-C ) :   1.0593
B( 28-C , 29-H ) :   0.9738 B( 28-C , 30-H ) :   0.9737 B( 28-C , 31-H ) :   0.9759

Dispersion correction           -0.015270034
FINAL SINGLE POINT ENERGY     -1339.847579932940

DIPOLE MOMENT
-------------
                                X             Y             Z
Electronic contribution:    -12.63979      12.84837     -13.95858
Nuclear contribution   :     12.95659     -13.10287      14.32854
                        -----------------------------------------
Total Dipole Moment    :      0.31680      -0.25450       0.36996
                        -----------------------------------------
Magnitude (a.u.)       :      0.54955
Magnitude (Debye)      :      1.39683

Rotational constants in cm-1:     0.019827     0.008649     0.007628
Rotational constants in MHz :   594.400009   259.305053   228.680411

                             ****ORCA TERMINATED NORMALLY****
TOTAL RUN TIME: 0 days 0 hours 0 minutes 35 seconds 857 msec
