                         Program Version 4.2.1 -  RELEASE  -
|  1> ! wB97X-D3 SP def2-SVP
|  2> %pal
|  3> nprocs 16
|  4> end
|  5>
|  6> * xyz 0 1
|  7> S 	 -46.3815 	 54.7333 	 98.7578
|  8> C 	 -47.2094 	 53.2365 	 98.484
|  9> C 	 -46.6038 	 52.5027 	 97.5123
| 10> C 	 -45.4392 	 53.1461 	 97.0113
| 11> C 	 -45.0766 	 54.287 	 97.6851
| 12> H 	 -44.8032 	 52.8136 	 96.2237
| 13> C 	 -47.0203 	 51.1305 	 97.0105
| 14> H 	 -47.1794 	 51.1907 	 95.9567
| 15> H 	 -47.8984 	 50.7122 	 97.4503
| 16> C 	 -46.0556 	 49.9709 	 97.1422
| 17> H 	 -46.3433 	 49.0994 	 96.5
| 18> H 	 -45.1311 	 50.2686 	 96.5954
| 19> C 	 -45.4846 	 49.558 	 98.5622
| 20> H 	 -46.3249 	 49.0763 	 99.1175
| 21> H 	 -44.6902 	 48.8294 	 98.4349
| 22> H 	 -45.0861 	 50.4141 	 99.1624
| 23> S 	 -44.116 	 56.8193 	 97.2148
| 24> C 	 -42.3436 	 57.0326 	 97.0054
| 25> C 	 -41.6902 	 55.8549 	 97.1165
| 26> C 	 -42.6423 	 54.7868 	 97.4097
| 27> C 	 -43.9513 	 55.165 	 97.5008
| 28> H 	 -40.6399 	 55.7555 	 96.9898
| 29> C 	 -42.0416 	 53.3634 	 97.5295
| 30> H 	 -41.2835 	 53.2514 	 96.7791
| 31> H 	 -42.7339 	 52.5856 	 97.2777
| 32> C 	 -41.49 	 52.9845 	 98.9284
| 33> H 	 -40.6205 	 53.6722 	 99.1476
| 34> H 	 -41.1265 	 51.9457 	 98.8905
| 35> C 	 -42.4864 	 53.0551 	 100.149
| 36> H 	 -42.0862 	 52.7585 	 101.079
| 37> H 	 -43.3683 	 52.4635 	 99.8587
| 38> H 	 -42.9414 	 54.0488 	 100.309
| 39> H 	 -48.0739 	 53.0562 	 99.1335
| 40> H 	 -41.8113 	 57.945 	 96.8451
| 41> *
| 42>
| 43>                          ****END OF INPUT****

CARTESIAN COORDINATES (ANGSTROEM)
---------------------------------
  S    -46.381500   54.733300   98.757800
  C    -47.209400   53.236500   98.484000
  C    -46.603800   52.502700   97.512300
  C    -45.439200   53.146100   97.011300
  C    -45.076600   54.287000   97.685100
  H    -44.803200   52.813600   96.223700
  C    -47.020300   51.130500   97.010500
  H    -47.179400   51.190700   95.956700
  H    -47.898400   50.712200   97.450300
  C    -46.055600   49.970900   97.142200
  H    -46.343300   49.099400   96.500000
  H    -45.131100   50.268600   96.595400
  C    -45.484600   49.558000   98.562200
  H    -46.324900   49.076300   99.117500
  H    -44.690200   48.829400   98.434900
  H    -45.086100   50.414100   99.162400
  S    -44.116000   56.819300   97.214800
  C    -42.343600   57.032600   97.005400
  C    -41.690200   55.854900   97.116500
  C    -42.642300   54.786800   97.409700
  C    -43.951300   55.165000   97.500800
  H    -40.639900   55.755500   96.989800
  C    -42.041600   53.363400   97.529500
  H    -41.283500   53.251400   96.779100
  H    -42.733900   52.585600   97.277700
  C    -41.490000   52.984500   98.928400
  H    -40.620500   53.672200   99.147600
  H    -41.126500   51.945700   98.890500
  C    -42.486400   53.055100  100.149000
  H    -42.086200   52.758500  101.079000
  H    -43.368300   52.463500   99.858700
  H    -42.941400   54.048800  100.309000
  H    -48.073900   53.056200   99.133500
  H    -41.811300   57.945000   96.845100

 Total Charge           Charge          ....    0
 Multiplicity           Mult            ....    1
 Number of Electrons    NEL             ....  134
 Basis Dimension        Dim             ....  322

ORBITAL ENERGIES
----------------

  NO   OCC          E(Eh)            E(eV)
   0   2.0000     -88.966230     -2420.8942
   1   2.0000     -88.961958     -2420.7779
   2   2.0000     -10.328460      -281.0517
   3   2.0000     -10.321813      -280.8708
   4   2.0000     -10.318027      -280.7678
   5   2.0000     -10.315534      -280.7000
   6   2.0000     -10.304128      -280.3896
   7   2.0000     -10.302392      -280.3423
   8   2.0000     -10.293735      -280.1068
   9   2.0000     -10.292975      -280.0861
  10   2.0000     -10.292782      -280.0808
  11   2.0000     -10.291889      -280.0565
  12   2.0000     -10.288902      -279.9753
  13   2.0000     -10.288526      -279.9650
  14   2.0000     -10.285420      -279.8805
  15   2.0000     -10.271823      -279.5105
  16   2.0000      -8.081535      -219.9098
  17   2.0000      -8.077707      -219.8056
  18   2.0000      -6.040242      -164.3633
  19   2.0000      -6.036087      -164.2503
  20   2.0000      -6.036004      -164.2480
  21   2.0000      -6.032077      -164.1412
  22   2.0000      -6.031981      -164.1386
  23   2.0000      -6.028543      -164.0450
  24   2.0000      -1.015436       -27.6314
  25   2.0000      -0.991060       -26.9681
  26   2.0000      -0.911721       -24.8092
  27   2.0000      -0.897810       -24.4307
  28   2.0000      -0.877506       -23.8782
  29   2.0000      -0.846715       -23.0403
  30   2.0000      -0.839112       -22.8334
  31   2.0000      -0.818785       -22.2803
  32   2.0000      -0.787907       -21.4400
  33   2.0000      -0.776048       -21.1174
  34   2.0000      -0.709385       -19.3034
  35   2.0000      -0.692042       -18.8314
  36   2.0000      -0.688022       -18.7220
  37   2.0000      -0.665481       -18.1087
  38   2.0000      -0.648942       -17.6586
  39   2.0000      -0.628306       -17.0971
  40   2.0000      -0.595615       -16.2075
  41   2.0000      -0.570935       -15.5359
  42   2.0000      -0.554759       -15.0957
  43   2.0000      -0.547173       -14.8893
  44   2.0000      -0.540413       -14.7054
  45   2.0000      -0.536039       -14.5864
  46   2.0000      -0.515548       -14.0288
  47   2.0000      -0.510429       -13.8895
  48   2.0000      -0.508316       -13.8320
  49   2.0000      -0.498568       -13.5667
  50   2.0000      -0.492093       -13.3905
  51   2.0000      -0.482225       -13.1220
  52   2.0000      -0.472863       -12.8673
  53   2.0000      -0.465581       -12.6691
  54   2.0000      -0.455653       -12.3990
  55   2.0000      -0.446569       -12.1518
  56   2.0000      -0.442763       -12.0482
  57   2.0000      -0.442102       -12.0302
  58   2.0000      -0.438478       -11.9316
  59   2.0000      -0.420048       -11.4301
  60   2.0000      -0.411774       -11.2049
  61   2.0000      -0.408926       -11.1274
  62   2.0000      -0.401753       -10.9322
  63   2.0000      -0.357198        -9.7199
  64   2.0000      -0.332378        -9.0445
  65   2.0000      -0.330019        -8.9803
  66   2.0000      -0.296387        -8.0651
  67   0.0000       0.032916         0.8957
  68   0.0000       0.075958         2.0669
  69   0.0000       0.107424         2.9232
  70   0.0000       0.118610         3.2275
  71   0.0000       0.128729         3.5029

MULLIKEN ATOMIC CHARGES
-----------------------
   0 S :    0.091881
   1 C :   -0.145223
   2 C :   -0.049508
   3 C :    0.037384
   4 C :   -0.178880
   5 H :    0.010536
   6 C :    0.139545
   7 H :    0.024031
   8 H :    0.010724
   9 C :   -0.142854
  10 H :    0.036754
  11 H :    0.012488
  12 C :   -0.068731
  13 H :    0.034512
  14 H :    0.037013
  15 H :    0.058072
  16 S :    0.106424
  17 C :   -0.079652
  18 C :   -0.006732
  19 C :   -0.078724
  20 C :   -0.104905
  21 H :    0.016559
  22 C :    0.094873
  23 H :    0.018561
  24 H :   -0.001094
  25 C :   -0.094942
  26 H :    0.029519
  27 H :    0.035631
  28 C :   -0.047242
  29 H :    0.031921
  30 H :    0.028341
  31 H :    0.034695
  32 H :    0.062062
  33 H :    0.046960
Sum of atomic charges:    0.0000000

LOEWDIN ATOMIC CHARGES
----------------------
   0 S :    0.404947
   1 C :   -0.191936
   2 C :   -0.066240
   3 C :   -0.055010
   4 C :   -0.183827
   5 H :    0.027671
   6 C :   -0.028562
   7 H :    0.035390
   8 H :    0.025595
   9 C :   -0.053615
  10 H :    0.031109
  11 H :    0.016903
  12 C :   -0.071458
  13 H :    0.024981
  14 H :    0.025788
  15 H :    0.032377
  16 S :    0.408907
  17 C :   -0.163576
  18 C :   -0.059286
  19 C :   -0.054504
  20 C :   -0.226739
  21 H :    0.030802
  22 C :   -0.032117
  23 H :    0.028342
  24 H :    0.020397
  25 C :   -0.038618
  26 H :    0.021857
  27 H :    0.025247
  28 C :   -0.068052
  29 H :    0.019477
  30 H :    0.025934
  31 H :    0.028181
  32 H :    0.032107
  33 H :    0.027528

  Mayer bond orders larger than 0.100000
B(  0-S ,  1-C ) :   1.1472 B(  0-S ,  4-C ) :   1.1504 B(  1-C ,  2-C ) :   1.5991
B(  1-C , 32-H ) :   0.9733 B(  2-C ,  3-C ) :   1.2207 B(  2-C ,  6-C ) :   1.0250
B(  3-C ,  4-C ) :   1.5897 B(  3-C ,  5-H ) :   0.9974 B(  4-C , 20-C ) :   1.0328
B(  6-C ,  7-H ) :   0.9255 B(  6-C ,  8-H ) :   0.9467 B(  6-C ,  9-C ) :   1.0772
B(  9-C , 10-H ) :   0.9545 B(  9-C , 11-H ) :   0.9530 B(  9-C , 12-C ) :   1.0622
B( 12-C , 13-H ) :   0.9763 B( 12-C , 14-H ) :   0.9753 B( 12-C , 15-H ) :   0.9735
B( 16-S , 17-C ) :   1.1297 B( 16-S , 20-C ) :   1.1295 B( 17-C , 18-C ) :   1.6426
B( 17-C , 33-H ) :   0.9689 B( 18-C , 19-C ) :   1.2149 B( 18-C , 21-H ) :   0.9951
B( 19-C , 20-C ) :   1.6267 B( 19-C , 22-C ) :   1.0373 B( 22-C , 23-H ) :   0.9357
B( 22-C , 24-H ) :   0.9308 B( 22-C , 25-C ) :   1.0750 B( 25-C , 26-H ) :   0.9581
B( 25-C , 27-H ) :   0.9565 B( 25-C , 28-C ) :   1.0685 B( 28-C , 29-H ) :   0.9764
B( 28-C , 30-H ) :   0.9744 B( 28-C , 31-H ) :   0.9719

Dispersion correction           -0.016148358
FINAL SINGLE POINT ENERGY     -1339.883219351744

DIPOLE MOMENT
-------------
                                X             Y             Z
Electronic contribution:     -7.87179      27.14570      -4.17884
Nuclear contribution   :      8.18313     -27.69750       3.96760
                        -----------------------------------------
Total Dipole Moment    :      0.31134      -0.55180      -0.21124
                        -----------------------------------------
Magnitude (a.u.)       :      0.66787
Magnitude (Debye)      :      1.69758

Rotational constants in cm-1:     0.020040     0.009924     0.007872
Rotational constants in MHz :   600.790196   297.520006   235.983753

                             ****ORCA TERMINATED NORMALLY****
TOTAL RUN TIME: 0 days 0 hours 0 minutes 32 seconds 588 msec
