                         Program Version 4.2.1 -  RELEASE  -
|  1> ! wB97X-D3 SP def2-SVP
|  2> %pal
|  3> nprocs 16
|  4> end
|  5>
|  6> * xyz 0 1
|  7> S 	 41.3311 	 20.0563 	 81.6133
|  8> C 	 40.3938 	 21.3574 	 82.4027
|  9> C 	 39.0435 	 21.0597 	 82.2016
| 10> C 	 38.8103 	 19.7137 	 81.7096
| 11> C 	 39.9225 	 18.9516 	 81.5054
| 12> H 	 37.8746 	 19.2542 	 81.4663
| 13> C 	 37.9108 	 21.9319 	 82.5858
| 14> H 	 38.1196 	 22.8987 	 82.157
| 15> H 	 38.0192 	 22.1498 	 83.604
| 16> C 	 36.4889 	 21.6536 	 82.07
| 17> H 	 36.532 	 21.7465 	 80.9707
| 18> H 	 36.1108 	 20.6282 	 82.3397
| 19> C 	 35.4418 	 22.7034 	 82.6579
| 20> H 	 35.8522 	 23.6893 	 82.8032
| 21> H 	 34.496 	 22.8049 	 82.1108
| 22> H 	 35.2487 	 22.3181 	 83.687
| 23> S 	 41.0452 	 17.545 	 79.5284
| 24> C 	 41.1412 	 15.8373 	 79.6683
| 25> C 	 40.1127 	 15.3451 	 80.4082
| 26> C 	 39.4472 	 16.3683 	 81.1706
| 27> C 	 39.9935 	 17.586 	 80.9077
| 28> H 	 40.0174 	 14.26 	 80.5826
| 29> C 	 38.6105 	 16.0579 	 82.3645
| 30> H 	 37.7342 	 15.3772 	 82.1647
| 31> H 	 38.241 	 17.0765 	 82.5196
| 32> C 	 39.2483 	 15.7694 	 83.6962
| 33> H 	 39.9489 	 16.5688 	 83.8834
| 34> H 	 39.7861 	 14.7847 	 83.6448
| 35> C 	 38.1492 	 15.7753 	 84.7688
| 36> H 	 37.4867 	 14.9279 	 84.7938
| 37> H 	 37.4742 	 16.656 	 84.7992
| 38> H 	 38.7373 	 15.7123 	 85.6954
| 39> H 	 40.8767 	 22.2178 	 82.9014
| 40> H 	 41.7969 	 15.115 	 79.1518
| 41> *
| 42>
| 43>                          ****END OF INPUT****

CARTESIAN COORDINATES (ANGSTROEM)
---------------------------------
  S     41.331100   20.056300   81.613300
  C     40.393800   21.357400   82.402700
  C     39.043500   21.059700   82.201600
  C     38.810300   19.713700   81.709600
  C     39.922500   18.951600   81.505400
  H     37.874600   19.254200   81.466300
  C     37.910800   21.931900   82.585800
  H     38.119600   22.898700   82.157000
  H     38.019200   22.149800   83.604000
  C     36.488900   21.653600   82.070000
  H     36.532000   21.746500   80.970700
  H     36.110800   20.628200   82.339700
  C     35.441800   22.703400   82.657900
  H     35.852200   23.689300   82.803200
  H     34.496000   22.804900   82.110800
  H     35.248700   22.318100   83.687000
  S     41.045200   17.545000   79.528400
  C     41.141200   15.837300   79.668300
  C     40.112700   15.345100   80.408200
  C     39.447200   16.368300   81.170600
  C     39.993500   17.586000   80.907700
  H     40.017400   14.260000   80.582600
  C     38.610500   16.057900   82.364500
  H     37.734200   15.377200   82.164700
  H     38.241000   17.076500   82.519600
  C     39.248300   15.769400   83.696200
  H     39.948900   16.568800   83.883400
  H     39.786100   14.784700   83.644800
  C     38.149200   15.775300   84.768800
  H     37.486700   14.927900   84.793800
  H     37.474200   16.656000   84.799200
  H     38.737300   15.712300   85.695400
  H     40.876700   22.217800   82.901400
  H     41.796900   15.115000   79.151800

 Total Charge           Charge          ....    0
 Multiplicity           Mult            ....    1
 Number of Electrons    NEL             ....  134
 Basis Dimension        Dim             ....  322

ORBITAL ENERGIES
----------------

  NO   OCC          E(Eh)            E(eV)
   0   2.0000     -88.961957     -2420.7779
   1   2.0000     -88.960968     -2420.7510
   2   2.0000     -10.333779      -281.1964
   3   2.0000     -10.324785      -280.9517
   4   2.0000     -10.323548      -280.9180
   5   2.0000     -10.310722      -280.5690
   6   2.0000     -10.308373      -280.5051
   7   2.0000     -10.301171      -280.3091
   8   2.0000     -10.298327      -280.2317
   9   2.0000     -10.293532      -280.1012
  10   2.0000     -10.289261      -279.9850
  11   2.0000     -10.287019      -279.9240
  12   2.0000     -10.286562      -279.9116
  13   2.0000     -10.285462      -279.8816
  14   2.0000     -10.285406      -279.8801
  15   2.0000     -10.277952      -279.6773
  16   2.0000      -8.077070      -219.7883
  17   2.0000      -8.075498      -219.7455
  18   2.0000      -6.035571      -164.2362
  19   2.0000      -6.034291      -164.2014
  20   2.0000      -6.031581      -164.1277
  21   2.0000      -6.030220      -164.0906
  22   2.0000      -6.027535      -164.0176
  23   2.0000      -6.025939      -163.9741
  24   2.0000      -1.011181       -27.5156
  25   2.0000      -0.983700       -26.7678
  26   2.0000      -0.915318       -24.9071
  27   2.0000      -0.911390       -24.8002
  28   2.0000      -0.868075       -23.6215
  29   2.0000      -0.852994       -23.2112
  30   2.0000      -0.838785       -22.8245
  31   2.0000      -0.819880       -22.3101
  32   2.0000      -0.777967       -21.1696
  33   2.0000      -0.769624       -20.9425
  34   2.0000      -0.713166       -19.4062
  35   2.0000      -0.697388       -18.9769
  36   2.0000      -0.689258       -18.7557
  37   2.0000      -0.658578       -17.9208
  38   2.0000      -0.644567       -17.5396
  39   2.0000      -0.619298       -16.8520
  40   2.0000      -0.593163       -16.1408
  41   2.0000      -0.571114       -15.5408
  42   2.0000      -0.569017       -15.4837
  43   2.0000      -0.560760       -15.2591
  44   2.0000      -0.531750       -14.4696
  45   2.0000      -0.521208       -14.1828
  46   2.0000      -0.516136       -14.0448
  47   2.0000      -0.508902       -13.8479
  48   2.0000      -0.502923       -13.6852
  49   2.0000      -0.501032       -13.6338
  50   2.0000      -0.491847       -13.3838
  51   2.0000      -0.484675       -13.1887
  52   2.0000      -0.467900       -12.7322
  53   2.0000      -0.463594       -12.6150
  54   2.0000      -0.453726       -12.3465
  55   2.0000      -0.450498       -12.2587
  56   2.0000      -0.444228       -12.0881
  57   2.0000      -0.434603       -11.8262
  58   2.0000      -0.432123       -11.7587
  59   2.0000      -0.426159       -11.5964
  60   2.0000      -0.423051       -11.5118
  61   2.0000      -0.410931       -11.1820
  62   2.0000      -0.407730       -11.0949
  63   2.0000      -0.347893        -9.4666
  64   2.0000      -0.328360        -8.9351
  65   2.0000      -0.321022        -8.7355
  66   2.0000      -0.292665        -7.9638
  67   0.0000       0.023928         0.6511
  68   0.0000       0.065149         1.7728
  69   0.0000       0.102980         2.8022
  70   0.0000       0.126887         3.4528
  71   0.0000       0.138610         3.7718

MULLIKEN ATOMIC CHARGES
-----------------------
   0 S :    0.085419
   1 C :   -0.148582
   2 C :   -0.056628
   3 C :    0.028520
   4 C :   -0.129095
   5 H :    0.018544
   6 C :    0.069672
   7 H :    0.017890
   8 H :    0.021089
   9 C :   -0.105741
  10 H :    0.043496
  11 H :    0.046232
  12 C :   -0.056163
  13 H :    0.025764
  14 H :    0.047549
  15 H :    0.036102
  16 S :    0.108911
  17 C :   -0.089077
  18 C :   -0.049209
  19 C :   -0.012836
  20 C :   -0.177624
  21 H :    0.028124
  22 C :    0.008251
  23 H :    0.038559
  24 H :    0.000839
  25 C :   -0.036462
  26 H :    0.033421
  27 H :    0.033418
  28 C :   -0.055401
  29 H :    0.025755
  30 H :    0.037005
  31 H :    0.033400
  32 H :    0.070538
  33 H :    0.058321
Sum of atomic charges:   -0.0000000

LOEWDIN ATOMIC CHARGES
----------------------
   0 S :    0.366494
   1 C :   -0.188923
   2 C :   -0.056099
   3 C :   -0.065948
   4 C :   -0.182297
   5 H :    0.028845
   6 C :   -0.043191
   7 H :    0.036006
   8 H :    0.027447
   9 C :   -0.038802
  10 H :    0.027153
  11 H :    0.024725
  12 C :   -0.066626
  13 H :    0.019972
  14 H :    0.029326
  15 H :    0.031158
  16 S :    0.413996
  17 C :   -0.195435
  18 C :   -0.074398
  19 C :   -0.065190
  20 C :   -0.189650
  21 H :    0.034733
  22 C :   -0.048730
  23 H :    0.034846
  24 H :    0.030618
  25 C :   -0.033646
  26 H :    0.027796
  27 H :    0.027107
  28 C :   -0.066742
  29 H :    0.020879
  30 H :    0.028834
  31 H :    0.030567
  32 H :    0.039395
  33 H :    0.035781

  Mayer bond orders larger than 0.100000
B(  0-S ,  1-C ) :   1.1225 B(  0-S ,  4-C ) :   1.1338 B(  1-C ,  2-C ) :   1.5901
B(  1-C ,  4-C ) :   0.1019 B(  1-C , 32-H ) :   0.9778 B(  2-C ,  3-C ) :   1.2231
B(  2-C ,  6-C ) :   1.0153 B(  3-C ,  4-C ) :   1.5812 B(  3-C ,  5-H ) :   0.9883
B(  4-C , 20-C ) :   1.0177 B(  6-C ,  7-H ) :   0.9260 B(  6-C ,  8-H ) :   0.9375
B(  6-C ,  9-C ) :   1.0662 B(  9-C , 10-H ) :   0.9592 B(  9-C , 11-H ) :   0.9545
B(  9-C , 12-C ) :   1.0648 B( 12-C , 13-H ) :   0.9780 B( 12-C , 14-H ) :   0.9770
B( 12-C , 15-H ) :   0.9788 B( 16-S , 17-C ) :   1.1323 B( 16-S , 20-C ) :   1.1431
B( 17-C , 18-C ) :   1.6646 B( 17-C , 33-H ) :   0.9622 B( 18-C , 19-C ) :   1.1935
B( 18-C , 21-H ) :   0.9846 B( 19-C , 20-C ) :   1.6396 B( 19-C , 22-C ) :   1.0553
B( 22-C , 23-H ) :   0.9343 B( 22-C , 24-H ) :   0.9289 B( 22-C , 25-C ) :   1.0739
B( 25-C , 26-H ) :   0.9522 B( 25-C , 27-H ) :   0.9501 B( 25-C , 28-C ) :   1.0751
B( 28-C , 29-H ) :   0.9756 B( 28-C , 30-H ) :   0.9755 B( 28-C , 31-H ) :   0.9741

Dispersion correction           -0.013680878
FINAL SINGLE POINT ENERGY     -1339.847316787145

DIPOLE MOMENT
-------------
                                X             Y             Z
Electronic contribution:     23.34854      -2.24240     -17.29492
Nuclear contribution   :    -23.87889       2.30455      17.70187
                        -----------------------------------------
Total Dipole Moment    :     -0.53034       0.06215       0.40695
                        -----------------------------------------
Magnitude (a.u.)       :      0.67137
Magnitude (Debye)      :      1.70649

Rotational constants in cm-1:     0.017232     0.008584     0.006810
Rotational constants in MHz :   516.609042   257.332695   204.171322

                             ****ORCA TERMINATED NORMALLY****
TOTAL RUN TIME: 0 days 0 hours 0 minutes 30 seconds 679 msec
