                         Program Version 4.2.1 -  RELEASE  -
|  1> ! wB97X-D3 SP def2-SVP
|  2> %pal
|  3> nprocs 16
|  4> end
|  5>
|  6> * xyz 0 1
|  7> S 	 -31.964 	 62.4555 	 121.901
|  8> C 	 -33.6396 	 61.9659 	 121.858
|  9> C 	 -34.2408 	 62.5391 	 120.748
| 10> C 	 -33.3432 	 63.3536 	 119.938
| 11> C 	 -32.0308 	 63.306 	 120.396
| 12> H 	 -33.7182 	 63.8773 	 119.042
| 13> C 	 -35.7686 	 62.5397 	 120.51
| 14> H 	 -36.1825 	 63.4973 	 120.801
| 15> H 	 -36.127 	 61.8827 	 121.318
| 16> C 	 -36.2331 	 61.8675 	 119.156
| 17> H 	 -37.2946 	 61.7167 	 119.24
| 18> H 	 -36.1069 	 62.4994 	 118.218
| 19> C 	 -35.6397 	 60.462 	 119.038
| 20> H 	 -36.1628 	 59.8554 	 118.293
| 21> H 	 -34.6329 	 60.442 	 118.642
| 22> H 	 -35.7209 	 59.8649 	 119.903
| 23> S 	 -29.7427 	 62.6031 	 119.074
| 24> C 	 -28.7759 	 63.8371 	 118.355
| 25> C 	 -29.213 	 65.0764 	 118.717
| 26> C 	 -30.3669 	 65.1043 	 119.561
| 27> C 	 -30.8065 	 63.8076 	 119.801
| 28> H 	 -28.6182 	 65.897 	 118.234
| 29> C 	 -31.1201 	 66.3475 	 119.962
| 30> H 	 -30.2524 	 66.994 	 120.339
| 31> H 	 -31.6937 	 66.1672 	 120.832
| 32> C 	 -32.0124 	 67.0781 	 118.917
| 33> H 	 -32.893 	 66.4771 	 118.676
| 34> H 	 -31.5027 	 67.0525 	 117.917
| 35> C 	 -32.4102 	 68.556 	 119.226
| 36> H 	 -33.0123 	 68.9059 	 118.43
| 37> H 	 -31.5248 	 69.1069 	 119.326
| 38> H 	 -32.9196 	 68.7773 	 120.174
| 39> H 	 -34.1849 	 61.4313 	 122.642
| 40> H 	 -27.8314 	 63.6748 	 117.801
| 41> *
| 42>
| 43>                          ****END OF INPUT****

CARTESIAN COORDINATES (ANGSTROEM)
---------------------------------
  S    -31.964000   62.455500  121.901000
  C    -33.639600   61.965900  121.858000
  C    -34.240800   62.539100  120.748000
  C    -33.343200   63.353600  119.938000
  C    -32.030800   63.306000  120.396000
  H    -33.718200   63.877300  119.042000
  C    -35.768600   62.539700  120.510000
  H    -36.182500   63.497300  120.801000
  H    -36.127000   61.882700  121.318000
  C    -36.233100   61.867500  119.156000
  H    -37.294600   61.716700  119.240000
  H    -36.106900   62.499400  118.218000
  C    -35.639700   60.462000  119.038000
  H    -36.162800   59.855400  118.293000
  H    -34.632900   60.442000  118.642000
  H    -35.720900   59.864900  119.903000
  S    -29.742700   62.603100  119.074000
  C    -28.775900   63.837100  118.355000
  C    -29.213000   65.076400  118.717000
  C    -30.366900   65.104300  119.561000
  C    -30.806500   63.807600  119.801000
  H    -28.618200   65.897000  118.234000
  C    -31.120100   66.347500  119.962000
  H    -30.252400   66.994000  120.339000
  H    -31.693700   66.167200  120.832000
  C    -32.012400   67.078100  118.917000
  H    -32.893000   66.477100  118.676000
  H    -31.502700   67.052500  117.917000
  C    -32.410200   68.556000  119.226000
  H    -33.012300   68.905900  118.430000
  H    -31.524800   69.106900  119.326000
  H    -32.919600   68.777300  120.174000
  H    -34.184900   61.431300  122.642000
  H    -27.831400   63.674800  117.801000

 Total Charge           Charge          ....    0
 Multiplicity           Mult            ....    1
 Number of Electrons    NEL             ....  134
 Basis Dimension        Dim             ....  322

ORBITAL ENERGIES
----------------

  NO   OCC          E(Eh)            E(eV)
   0   2.0000     -88.962905     -2420.8037
   1   2.0000     -88.962793     -2420.8007
   2   2.0000     -10.328899      -281.0636
   3   2.0000     -10.324723      -280.9500
   4   2.0000     -10.314865      -280.6817
   5   2.0000     -10.314575      -280.6739
   6   2.0000     -10.306394      -280.4512
   7   2.0000     -10.301587      -280.3204
   8   2.0000     -10.298431      -280.2346
   9   2.0000     -10.296539      -280.1831
  10   2.0000     -10.294960      -280.1401
  11   2.0000     -10.294374      -280.1242
  12   2.0000     -10.294322      -280.1227
  13   2.0000     -10.293969      -280.1131
  14   2.0000     -10.275142      -279.6008
  15   2.0000     -10.269752      -279.4542
  16   2.0000      -8.078076      -219.8156
  17   2.0000      -8.077985      -219.8131
  18   2.0000      -6.036494      -164.2613
  19   2.0000      -6.036462      -164.2605
  20   2.0000      -6.032507      -164.1529
  21   2.0000      -6.032329      -164.1480
  22   2.0000      -6.028927      -164.0555
  23   2.0000      -6.028805      -164.0521
  24   2.0000      -1.006970       -27.4010
  25   2.0000      -0.983749       -26.7692
  26   2.0000      -0.904651       -24.6168
  27   2.0000      -0.902573       -24.5603
  28   2.0000      -0.868166       -23.6240
  29   2.0000      -0.850966       -23.1560
  30   2.0000      -0.839783       -22.8517
  31   2.0000      -0.814066       -22.1519
  32   2.0000      -0.784091       -21.3362
  33   2.0000      -0.771647       -20.9976
  34   2.0000      -0.711675       -19.3657
  35   2.0000      -0.702116       -19.1055
  36   2.0000      -0.691872       -18.8268
  37   2.0000      -0.651874       -17.7384
  38   2.0000      -0.635595       -17.2954
  39   2.0000      -0.619513       -16.8578
  40   2.0000      -0.594340       -16.1728
  41   2.0000      -0.562513       -15.3068
  42   2.0000      -0.552719       -15.0402
  43   2.0000      -0.551506       -15.0072
  44   2.0000      -0.539490       -14.6803
  45   2.0000      -0.526812       -14.3353
  46   2.0000      -0.515041       -14.0150
  47   2.0000      -0.512178       -13.9371
  48   2.0000      -0.503047       -13.6886
  49   2.0000      -0.495796       -13.4913
  50   2.0000      -0.485935       -13.2230
  51   2.0000      -0.475217       -12.9313
  52   2.0000      -0.467886       -12.7318
  53   2.0000      -0.461924       -12.5696
  54   2.0000      -0.460259       -12.5243
  55   2.0000      -0.448170       -12.1953
  56   2.0000      -0.443962       -12.0808
  57   2.0000      -0.441825       -12.0227
  58   2.0000      -0.433736       -11.8026
  59   2.0000      -0.425740       -11.5850
  60   2.0000      -0.421390       -11.4666
  61   2.0000      -0.408655       -11.1201
  62   2.0000      -0.408034       -11.1032
  63   2.0000      -0.337864        -9.1938
  64   2.0000      -0.327837        -8.9209
  65   2.0000      -0.323916        -8.8142
  66   2.0000      -0.306542        -8.3414
  67   0.0000       0.041654         1.1335
  68   0.0000       0.061581         1.6757
  69   0.0000       0.117556         3.1989
  70   0.0000       0.126672         3.4469
  71   0.0000       0.130112         3.5405

MULLIKEN ATOMIC CHARGES
-----------------------
   0 S :    0.112094
   1 C :   -0.120966
   2 C :   -0.135793
   3 C :    0.059049
   4 C :   -0.173679
   5 H :    0.023898
   6 C :    0.054735
   7 H :    0.043209
   8 H :    0.005323
   9 C :   -0.074483
  10 H :    0.028665
  11 H :    0.046381
  12 C :   -0.037639
  13 H :    0.019415
  14 H :    0.041325
  15 H :    0.018649
  16 S :    0.119935
  17 C :   -0.109617
  18 C :   -0.070373
  19 C :    0.001092
  20 C :   -0.180333
  21 H :    0.033859
  22 C :    0.077668
  23 H :    0.032369
  24 H :    0.020677
  25 C :   -0.077903
  26 H :    0.022869
  27 H :    0.027270
  28 C :   -0.017734
  29 H :    0.032982
  30 H :    0.018307
  31 H :    0.032107
  32 H :    0.058108
  33 H :    0.068530
Sum of atomic charges:   -0.0000000

LOEWDIN ATOMIC CHARGES
----------------------
   0 S :    0.417870
   1 C :   -0.207475
   2 C :   -0.066255
   3 C :   -0.061922
   4 C :   -0.205535
   5 H :    0.035013
   6 C :   -0.033154
   7 H :    0.030552
   8 H :    0.028594
   9 C :   -0.042906
  10 H :    0.023085
  11 H :    0.030452
  12 C :   -0.065351
  13 H :    0.026962
  14 H :    0.028491
  15 H :    0.019682
  16 S :    0.412834
  17 C :   -0.199430
  18 C :   -0.084774
  19 C :   -0.053739
  20 C :   -0.201550
  21 H :    0.040661
  22 C :   -0.034683
  23 H :    0.041394
  24 H :    0.025636
  25 C :   -0.040519
  26 H :    0.021450
  27 H :    0.028603
  28 C :   -0.058769
  29 H :    0.025025
  30 H :    0.018858
  31 H :    0.028128
  32 H :    0.034102
  33 H :    0.038670

  Mayer bond orders larger than 0.100000
B(  0-S ,  1-C ) :   1.1356 B(  0-S ,  4-C ) :   1.1715 B(  1-C ,  2-C ) :   1.6150
B(  1-C , 32-H ) :   0.9637 B(  2-C ,  3-C ) :   1.2413 B(  2-C ,  6-C ) :   1.0186
B(  3-C ,  4-C ) :   1.5647 B(  3-C ,  5-H ) :   0.9932 B(  4-C , 20-C ) :   1.0088
B(  6-C ,  7-H ) :   0.9493 B(  6-C ,  8-H ) :   0.9403 B(  6-C ,  9-C ) :   1.0565
B(  9-C , 10-H ) :   0.9596 B(  9-C , 11-H ) :   0.9585 B(  9-C , 12-C ) :   1.0772
B( 12-C , 13-H ) :   0.9719 B( 12-C , 14-H ) :   0.9709 B( 12-C , 15-H ) :   0.9750
B( 16-S , 17-C ) :   1.1527 B( 16-S , 20-C ) :   1.1539 B( 17-C , 18-C ) :   1.6406
B( 17-C , 33-H ) :   0.9602 B( 18-C , 19-C ) :   1.2119 B( 18-C , 21-H ) :   0.9822
B( 19-C , 20-C ) :   1.5959 B( 19-C , 22-C ) :   1.0561 B( 22-C , 23-H ) :   0.9331
B( 22-C , 24-H ) :   0.9240 B( 22-C , 25-C ) :   1.0529 B( 25-C , 26-H ) :   0.9528
B( 25-C , 27-H ) :   0.9577 B( 25-C , 28-C ) :   1.0737 B( 28-C , 29-H ) :   0.9742
B( 28-C , 30-H ) :   0.9755 B( 28-C , 31-H ) :   0.9771

Dispersion correction           -0.014409985
FINAL SINGLE POINT ENERGY     -1339.880268639852

DIPOLE MOMENT
-------------
                                X             Y             Z
Electronic contribution:     19.65033     -11.48149       7.65064
Nuclear contribution   :    -20.09230      11.87795      -7.90193
                        -----------------------------------------
Total Dipole Moment    :     -0.44197       0.39645      -0.25130
                        -----------------------------------------
Magnitude (a.u.)       :      0.64472
Magnitude (Debye)      :      1.63874

Rotational constants in cm-1:     0.017055     0.008761     0.007135
Rotational constants in MHz :   511.299027   262.639242   213.900878

                             ****ORCA TERMINATED NORMALLY****
TOTAL RUN TIME: 0 days 0 hours 0 minutes 29 seconds 754 msec
