                         Program Version 4.2.1 -  RELEASE  -
|  1> ! wB97X-D3 SP def2-SVP
|  2> %pal
|  3> nprocs 16
|  4> end
|  5>
|  6> * xyz 0 1
|  7> S 	 -33.8335 	 74.4002 	 162.839
|  8> C 	 -33.0201 	 74.8533 	 161.34
|  9> C 	 -33.842 	 75.5515 	 160.45
| 10> C 	 -35.1753 	 75.6353 	 160.999
| 11> C 	 -35.3253 	 75.2059 	 162.245
| 12> H 	 -36.0288 	 76.0959 	 160.527
| 13> C 	 -33.547 	 76.062 	 158.998
| 14> H 	 -32.5482 	 75.7959 	 158.882
| 15> H 	 -33.7131 	 77.1944 	 158.958
| 16> C 	 -34.4683 	 75.4102 	 157.919
| 17> H 	 -34.5304 	 74.3647 	 158.129
| 18> H 	 -35.5156 	 75.7997 	 158.024
| 19> C 	 -34.0597 	 75.7644 	 156.492
| 20> H 	 -33.1057 	 75.2084 	 156.363
| 21> H 	 -34.6441 	 75.198 	 155.819
| 22> H 	 -33.8818 	 76.8036 	 156.252
| 23> S 	 -36.3194 	 76.1292 	 164.527
| 24> C 	 -38.0269 	 76.2689 	 164.745
| 25> C 	 -38.7578 	 75.6279 	 163.725
| 26> C 	 -37.9032 	 75.0367 	 162.733
| 27> C 	 -36.5397 	 75.3545 	 162.976
| 28> H 	 -39.8518 	 75.5099 	 163.652
| 29> C 	 -38.3509 	 74.2236 	 161.485
| 30> H 	 -37.8453 	 73.2978 	 161.4
| 31> H 	 -38.101 	 74.9024 	 160.675
| 32> C 	 -39.8687 	 73.953 	 161.224
| 33> H 	 -39.9694 	 73.4346 	 160.23
| 34> H 	 -40.425 	 74.8864 	 161.111
| 35> C 	 -40.5259 	 72.99 	 162.257
| 36> H 	 -41.5501 	 72.7526 	 162.041
| 37> H 	 -40.4864 	 73.4627 	 163.238
| 38> H 	 -39.9966 	 72.0437 	 162.489
| 39> H 	 -32.0134 	 74.6559 	 161.005
| 40> H 	 -38.5218 	 76.9339 	 165.441
| 41> *
| 42>
| 43>                          ****END OF INPUT****

CARTESIAN COORDINATES (ANGSTROEM)
---------------------------------
  S    -33.833500   74.400200  162.839000
  C    -33.020100   74.853300  161.340000
  C    -33.842000   75.551500  160.450000
  C    -35.175300   75.635300  160.999000
  C    -35.325300   75.205900  162.245000
  H    -36.028800   76.095900  160.527000
  C    -33.547000   76.062000  158.998000
  H    -32.548200   75.795900  158.882000
  H    -33.713100   77.194400  158.958000
  C    -34.468300   75.410200  157.919000
  H    -34.530400   74.364700  158.129000
  H    -35.515600   75.799700  158.024000
  C    -34.059700   75.764400  156.492000
  H    -33.105700   75.208400  156.363000
  H    -34.644100   75.198000  155.819000
  H    -33.881800   76.803600  156.252000
  S    -36.319400   76.129200  164.527000
  C    -38.026900   76.268900  164.745000
  C    -38.757800   75.627900  163.725000
  C    -37.903200   75.036700  162.733000
  C    -36.539700   75.354500  162.976000
  H    -39.851800   75.509900  163.652000
  C    -38.350900   74.223600  161.485000
  H    -37.845300   73.297800  161.400000
  H    -38.101000   74.902400  160.675000
  C    -39.868700   73.953000  161.224000
  H    -39.969400   73.434600  160.230000
  H    -40.425000   74.886400  161.111000
  C    -40.525900   72.990000  162.257000
  H    -41.550100   72.752600  162.041000
  H    -40.486400   73.462700  163.238000
  H    -39.996600   72.043700  162.489000
  H    -32.013400   74.655900  161.005000
  H    -38.521800   76.933900  165.441000

 Total Charge           Charge          ....    0
 Multiplicity           Mult            ....    1
 Number of Electrons    NEL             ....  134
 Basis Dimension        Dim             ....  322

ORBITAL ENERGIES
----------------

  NO   OCC          E(Eh)            E(eV)
   0   2.0000     -88.968190     -2420.9475
   1   2.0000     -88.967410     -2420.9263
   2   2.0000     -10.324153      -280.9345
   3   2.0000     -10.321893      -280.8730
   4   2.0000     -10.317629      -280.7570
   5   2.0000     -10.316435      -280.7245
   6   2.0000     -10.310858      -280.5727
   7   2.0000     -10.303748      -280.3792
   8   2.0000     -10.300289      -280.2851
   9   2.0000     -10.300115      -280.2804
  10   2.0000     -10.297461      -280.2082
  11   2.0000     -10.294817      -280.1362
  12   2.0000     -10.291423      -280.0439
  13   2.0000     -10.283735      -279.8347
  14   2.0000     -10.278507      -279.6924
  15   2.0000     -10.277931      -279.6767
  16   2.0000      -8.082502      -219.9361
  17   2.0000      -8.081771      -219.9162
  18   2.0000      -6.040857      -164.3801
  19   2.0000      -6.040599      -164.3731
  20   2.0000      -6.036906      -164.2726
  21   2.0000      -6.036609      -164.2645
  22   2.0000      -6.033458      -164.1787
  23   2.0000      -6.032090      -164.1415
  24   2.0000      -1.005357       -27.3572
  25   2.0000      -0.978216       -26.6186
  26   2.0000      -0.907740       -24.7009
  27   2.0000      -0.903087       -24.5742
  28   2.0000      -0.872345       -23.7377
  29   2.0000      -0.849521       -23.1167
  30   2.0000      -0.842942       -22.9376
  31   2.0000      -0.813520       -22.1370
  32   2.0000      -0.785515       -21.3750
  33   2.0000      -0.771288       -20.9878
  34   2.0000      -0.709239       -19.2994
  35   2.0000      -0.698171       -18.9982
  36   2.0000      -0.693383       -18.8679
  37   2.0000      -0.657154       -17.8821
  38   2.0000      -0.639671       -17.4063
  39   2.0000      -0.616960       -16.7883
  40   2.0000      -0.595115       -16.1939
  41   2.0000      -0.574816       -15.6415
  42   2.0000      -0.556097       -15.1322
  43   2.0000      -0.550539       -14.9809
  44   2.0000      -0.533049       -14.5050
  45   2.0000      -0.528358       -14.3773
  46   2.0000      -0.517170       -14.0729
  47   2.0000      -0.507751       -13.8166
  48   2.0000      -0.503546       -13.7022
  49   2.0000      -0.498514       -13.5652
  50   2.0000      -0.495701       -13.4887
  51   2.0000      -0.476970       -12.9790
  52   2.0000      -0.471829       -12.8391
  53   2.0000      -0.466356       -12.6902
  54   2.0000      -0.461010       -12.5447
  55   2.0000      -0.449678       -12.2364
  56   2.0000      -0.443844       -12.0776
  57   2.0000      -0.439482       -11.9589
  58   2.0000      -0.437256       -11.8983
  59   2.0000      -0.425021       -11.5654
  60   2.0000      -0.422205       -11.4888
  61   2.0000      -0.412558       -11.2263
  62   2.0000      -0.409785       -11.1508
  63   2.0000      -0.349036        -9.4978
  64   2.0000      -0.331874        -9.0308
  65   2.0000      -0.327318        -8.9068
  66   2.0000      -0.286365        -7.7924
  67   0.0000       0.032670         0.8890
  68   0.0000       0.062589         1.7031
  69   0.0000       0.111058         3.0220
  70   0.0000       0.123995         3.3741
  71   0.0000       0.125886         3.4255

MULLIKEN ATOMIC CHARGES
-----------------------
   0 S :    0.113088
   1 C :   -0.108871
   2 C :   -0.111102
   3 C :    0.004678
   4 C :   -0.112412
   5 H :    0.009456
   6 C :    0.095492
   7 H :   -0.000601
   8 H :    0.053668
   9 C :   -0.114651
  10 H :    0.034011
  11 H :    0.033280
  12 C :   -0.010981
  13 H :    0.015943
  14 H :    0.023994
  15 H :    0.045677
  16 S :    0.121743
  17 C :   -0.077763
  18 C :   -0.064351
  19 C :   -0.041466
  20 C :   -0.201970
  21 H :    0.035606
  22 C :    0.082815
  23 H :    0.042266
  24 H :    0.036784
  25 C :   -0.105401
  26 H :    0.039306
  27 H :    0.034329
  28 C :   -0.053051
  29 H :    0.035711
  30 H :    0.015158
  31 H :    0.033375
  32 H :    0.036432
  33 H :    0.059808
Sum of atomic charges:    0.0000000

LOEWDIN ATOMIC CHARGES
----------------------
   0 S :    0.371523
   1 C :   -0.196612
   2 C :   -0.059139
   3 C :   -0.060979
   4 C :   -0.187449
   5 H :    0.029374
   6 C :   -0.023695
   7 H :    0.015777
   8 H :    0.042719
   9 C :   -0.041330
  10 H :    0.023060
  11 H :    0.024335
  12 C :   -0.065403
  13 H :    0.029499
  14 H :    0.023868
  15 H :    0.028096
  16 S :    0.430674
  17 C :   -0.200185
  18 C :   -0.077356
  19 C :   -0.051908
  20 C :   -0.199258
  21 H :    0.034897
  22 C :   -0.026240
  23 H :    0.030387
  24 H :    0.036302
  25 C :   -0.043978
  26 H :    0.032974
  27 H :    0.023273
  28 C :   -0.075119
  29 H :    0.022793
  30 H :    0.021059
  31 H :    0.030956
  32 H :    0.027126
  33 H :    0.029958

  Mayer bond orders larger than 0.100000
B(  0-S ,  1-C ) :   1.1141 B(  0-S ,  4-C ) :   1.0914 B(  1-C ,  2-C ) :   1.6679
B(  1-C , 32-H ) :   0.9581 B(  2-C ,  3-C ) :   1.1853 B(  2-C ,  6-C ) :   1.0219
B(  3-C ,  4-C ) :   1.6516 B(  3-C ,  5-H ) :   0.9915 B(  4-C , 20-C ) :   1.0625
B(  6-C ,  7-H ) :   0.9395 B(  6-C ,  8-H ) :   0.9381 B(  6-C ,  9-C ) :   1.0593
B(  9-C , 10-H ) :   0.9590 B(  9-C , 11-H ) :   0.9503 B(  9-C , 12-C ) :   1.0890
B( 12-C , 13-H ) :   0.9701 B( 12-C , 14-H ) :   0.9692 B( 12-C , 15-H ) :   0.9747
B( 16-S , 17-C ) :   1.1727 B( 16-S , 20-C ) :   1.1592 B( 17-C , 18-C ) :   1.5703
B( 17-C , 20-C ) :   0.1111 B( 17-C , 33-H ) :   0.9655 B( 18-C , 19-C ) :   1.2840
B( 18-C , 21-H ) :   0.9731 B( 19-C , 20-C ) :   1.5603 B( 19-C , 22-C ) :   1.0071
B( 22-C , 23-H ) :   0.9411 B( 22-C , 24-H ) :   0.9339 B( 22-C , 25-C ) :   1.0872
B( 25-C , 26-H ) :   0.9550 B( 25-C , 27-H ) :   0.9536 B( 25-C , 28-C ) :   1.0685
B( 28-C , 29-H ) :   0.9762 B( 28-C , 30-H ) :   0.9748 B( 28-C , 31-H ) :   0.9724

Dispersion correction           -0.013916330
FINAL SINGLE POINT ENERGY     -1339.861565432990

DIPOLE MOMENT
-------------
                                X             Y             Z
Electronic contribution:     12.12038       4.20698      25.83441
Nuclear contribution   :    -12.48582      -4.16415     -26.59371
                        -----------------------------------------
Total Dipole Moment    :     -0.36544       0.04283      -0.75930
                        -----------------------------------------
Magnitude (a.u.)       :      0.84375
Magnitude (Debye)      :      2.14464

Rotational constants in cm-1:     0.017172     0.008411     0.006358
Rotational constants in MHz :   514.812775   252.152907   190.595000

                             ****ORCA TERMINATED NORMALLY****
TOTAL RUN TIME: 0 days 0 hours 0 minutes 31 seconds 802 msec
