                         Program Version 4.2.1 -  RELEASE  -
|  1> ! wB97X-D3 SP def2-SVP
|  2> %pal
|  3> nprocs 16
|  4> end
|  5>
|  6> * xyz 0 1
|  7> S 	 -12.9672 	 -11.0952 	 84.9468
|  8> C 	 -14.4077 	 -11.4686 	 85.7089
|  9> C 	 -14.6027 	 -10.5948 	 86.7886
| 10> C 	 -13.5102 	 -9.67143 	 86.8812
| 11> C 	 -12.5159 	 -9.81695 	 85.9835
| 12> H 	 -13.4127 	 -8.97982 	 87.6653
| 13> C 	 -15.7869 	 -10.7314 	 87.7606
| 14> H 	 -15.9631 	 -9.75711 	 88.199
| 15> H 	 -15.3843 	 -11.3517 	 88.6813
| 16> C 	 -16.9584 	 -11.6198 	 87.2696
| 17> H 	 -17.447 	 -11.2307 	 86.3632
| 18> H 	 -16.5303 	 -12.6531 	 87.1261
| 19> C 	 -18.0365 	 -11.7868 	 88.2979
| 20> H 	 -17.7039 	 -12.3462 	 89.2123
| 21> H 	 -18.418 	 -10.7618 	 88.5989
| 22> H 	 -18.8812 	 -12.2836 	 87.8652
| 23> S 	 -9.84636 	 -9.94711 	 85.3789
| 24> C 	 -8.74244 	 -8.72554 	 86.0157
| 25> C 	 -9.43357 	 -7.66598 	 86.5745
| 26> C 	 -10.8808 	 -7.81494 	 86.4094
| 27> C 	 -11.2449 	 -9.0782 	 85.9159
| 28> H 	 -8.90275 	 -6.85069 	 86.9742
| 29> C 	 -11.798 	 -6.69044 	 86.9154
| 30> H 	 -11.1396 	 -5.95834 	 87.4798
| 31> H 	 -12.5142 	 -7.01384 	 87.6978
| 32> C 	 -12.5799 	 -5.90812 	 85.8881
| 33> H 	 -13.132 	 -6.36144 	 85.0455
| 34> H 	 -11.8364 	 -5.28762 	 85.3767
| 35> C 	 -13.6796 	 -5.0605 	 86.6295
| 36> H 	 -14.1342 	 -4.41427 	 85.9424
| 37> H 	 -13.3438 	 -4.42214 	 87.4854
| 38> H 	 -14.4426 	 -5.71004 	 87.0042
| 39> H 	 -15.072 	 -12.2136 	 85.3522
| 40> H 	 -7.745 	 -8.81822 	 86.0923
| 41> *
| 42>
| 43>                          ****END OF INPUT****

CARTESIAN COORDINATES (ANGSTROEM)
---------------------------------
  S    -12.967200  -11.095200   84.946800
  C    -14.407700  -11.468600   85.708900
  C    -14.602700  -10.594800   86.788600
  C    -13.510200   -9.671430   86.881200
  C    -12.515900   -9.816950   85.983500
  H    -13.412700   -8.979820   87.665300
  C    -15.786900  -10.731400   87.760600
  H    -15.963100   -9.757110   88.199000
  H    -15.384300  -11.351700   88.681300
  C    -16.958400  -11.619800   87.269600
  H    -17.447000  -11.230700   86.363200
  H    -16.530300  -12.653100   87.126100
  C    -18.036500  -11.786800   88.297900
  H    -17.703900  -12.346200   89.212300
  H    -18.418000  -10.761800   88.598900
  H    -18.881200  -12.283600   87.865200
  S     -9.846360   -9.947110   85.378900
  C     -8.742440   -8.725540   86.015700
  C     -9.433570   -7.665980   86.574500
  C    -10.880800   -7.814940   86.409400
  C    -11.244900   -9.078200   85.915900
  H     -8.902750   -6.850690   86.974200
  C    -11.798000   -6.690440   86.915400
  H    -11.139600   -5.958340   87.479800
  H    -12.514200   -7.013840   87.697800
  C    -12.579900   -5.908120   85.888100
  H    -13.132000   -6.361440   85.045500
  H    -11.836400   -5.287620   85.376700
  C    -13.679600   -5.060500   86.629500
  H    -14.134200   -4.414270   85.942400
  H    -13.343800   -4.422140   87.485400
  H    -14.442600   -5.710040   87.004200
  H    -15.072000  -12.213600   85.352200
  H     -7.745000   -8.818220   86.092300

 Total Charge           Charge          ....    0
 Multiplicity           Mult            ....    1
 Number of Electrons    NEL             ....  134
 Basis Dimension        Dim             ....  322

ORBITAL ENERGIES
----------------

  NO   OCC          E(Eh)            E(eV)
   0   2.0000     -88.966062     -2420.8896
   1   2.0000     -88.960987     -2420.7515
   2   2.0000     -10.332268      -281.1553
   3   2.0000     -10.324693      -280.9492
   4   2.0000     -10.311938      -280.6021
   5   2.0000     -10.309666      -280.5403
   6   2.0000     -10.306531      -280.4550
   7   2.0000     -10.304118      -280.3893
   8   2.0000     -10.302582      -280.3475
   9   2.0000     -10.298959      -280.2489
  10   2.0000     -10.296002      -280.1685
  11   2.0000     -10.295993      -280.1682
  12   2.0000     -10.287440      -279.9355
  13   2.0000     -10.285294      -279.8771
  14   2.0000     -10.283678      -279.8331
  15   2.0000     -10.274827      -279.5923
  16   2.0000      -8.080964      -219.8942
  17   2.0000      -8.078078      -219.8157
  18   2.0000      -6.039565      -164.3449
  19   2.0000      -6.036391      -164.2585
  20   2.0000      -6.035385      -164.2312
  21   2.0000      -6.032072      -164.1410
  22   2.0000      -6.031680      -164.1304
  23   2.0000      -6.029082      -164.0597
  24   2.0000      -1.016312       -27.6553
  25   2.0000      -0.987392       -26.8683
  26   2.0000      -0.911902       -24.8141
  27   2.0000      -0.906052       -24.6549
  28   2.0000      -0.873975       -23.7821
  29   2.0000      -0.854682       -23.2571
  30   2.0000      -0.844486       -22.9796
  31   2.0000      -0.821287       -22.3484
  32   2.0000      -0.778675       -21.1888
  33   2.0000      -0.769555       -20.9407
  34   2.0000      -0.708880       -19.2896
  35   2.0000      -0.699573       -19.0363
  36   2.0000      -0.688289       -18.7293
  37   2.0000      -0.671061       -18.2605
  38   2.0000      -0.648032       -17.6338
  39   2.0000      -0.618124       -16.8200
  40   2.0000      -0.597903       -16.2698
  41   2.0000      -0.574045       -15.6206
  42   2.0000      -0.573264       -15.5993
  43   2.0000      -0.558718       -15.2035
  44   2.0000      -0.528267       -14.3749
  45   2.0000      -0.523584       -14.2474
  46   2.0000      -0.521401       -14.1881
  47   2.0000      -0.514640       -14.0041
  48   2.0000      -0.507734       -13.8162
  49   2.0000      -0.502653       -13.6779
  50   2.0000      -0.489485       -13.3196
  51   2.0000      -0.481735       -13.1087
  52   2.0000      -0.476606       -12.9691
  53   2.0000      -0.462944       -12.5973
  54   2.0000      -0.460558       -12.5324
  55   2.0000      -0.449464       -12.2305
  56   2.0000      -0.446388       -12.1468
  57   2.0000      -0.438319       -11.9273
  58   2.0000      -0.428089       -11.6489
  59   2.0000      -0.425271       -11.5722
  60   2.0000      -0.419127       -11.4050
  61   2.0000      -0.416089       -11.3224
  62   2.0000      -0.405290       -11.0285
  63   2.0000      -0.361470        -9.8361
  64   2.0000      -0.332800        -9.0560
  65   2.0000      -0.322054        -8.7635
  66   2.0000      -0.286318        -7.7911
  67   0.0000       0.026184         0.7125
  68   0.0000       0.083366         2.2685
  69   0.0000       0.112136         3.0514
  70   0.0000       0.115206         3.1349
  71   0.0000       0.135834         3.6962

MULLIKEN ATOMIC CHARGES
-----------------------
   0 S :    0.113815
   1 C :   -0.123864
   2 C :   -0.084196
   3 C :    0.007551
   4 C :   -0.092304
   5 H :   -0.026552
   6 C :    0.036700
   7 H :    0.022227
   8 H :    0.047507
   9 C :   -0.110774
  10 H :    0.043162
  11 H :    0.046327
  12 C :   -0.041754
  13 H :    0.040102
  14 H :    0.029835
  15 H :    0.031074
  16 S :    0.099373
  17 C :   -0.040281
  18 C :   -0.023191
  19 C :   -0.044331
  20 C :   -0.106135
  21 H :    0.009111
  22 C :    0.016729
  23 H :    0.026555
  24 H :    0.032034
  25 C :   -0.067687
  26 H :    0.046480
  27 H :    0.025116
  28 C :   -0.052204
  29 H :    0.019788
  30 H :    0.032074
  31 H :    0.029537
  32 H :    0.044647
  33 H :    0.013531
Sum of atomic charges:    0.0000000

LOEWDIN ATOMIC CHARGES
----------------------
   0 S :    0.451009
   1 C :   -0.220523
   2 C :   -0.065443
   3 C :   -0.067517
   4 C :   -0.206939
   5 H :    0.018855
   6 C :   -0.038822
   7 H :    0.024788
   8 H :    0.047004
   9 C :   -0.049678
  10 H :    0.026723
  11 H :    0.033689
  12 C :   -0.067562
  13 H :    0.028663
  14 H :    0.028690
  15 H :    0.023366
  16 S :    0.408134
  17 C :   -0.161428
  18 C :   -0.058034
  19 C :   -0.056868
  20 C :   -0.194423
  21 H :    0.025646
  22 C :   -0.039735
  23 H :    0.037959
  24 H :    0.026306
  25 C :   -0.041633
  26 H :    0.032424
  27 H :    0.023647
  28 C :   -0.063110
  29 H :    0.017549
  30 H :    0.026948
  31 H :    0.021870
  32 H :    0.022790
  33 H :    0.005654

  Mayer bond orders larger than 0.100000
B(  0-S ,  1-C ) :   1.1714 B(  0-S ,  4-C ) :   1.1664 B(  1-C ,  2-C ) :   1.5530
B(  1-C , 32-H ) :   0.9722 B(  2-C ,  3-C ) :   1.2844 B(  2-C ,  6-C ) :   1.0212
B(  3-C ,  4-C ) :   1.5529 B(  3-C ,  5-H ) :   1.0090 B(  4-C , 20-C ) :   1.0391
B(  6-C ,  7-H ) :   0.9453 B(  6-C ,  8-H ) :   0.9352 B(  6-C ,  9-C ) :   1.0613
B(  9-C , 10-H ) :   0.9566 B(  9-C , 11-H ) :   0.9411 B(  9-C , 12-C ) :   1.0985
B( 12-C , 13-H ) :   0.9723 B( 12-C , 14-H ) :   0.9714 B( 12-C , 15-H ) :   0.9712
B( 16-S , 17-C ) :   1.1468 B( 16-S , 20-C ) :   1.1413 B( 17-C , 18-C ) :   1.6219
B( 17-C , 33-H ) :   0.9801 B( 18-C , 19-C ) :   1.2377 B( 18-C , 21-H ) :   0.9944
B( 19-C , 20-C ) :   1.5842 B( 19-C , 22-C ) :   1.0298 B( 22-C , 23-H ) :   0.9339
B( 22-C , 24-H ) :   0.9472 B( 22-C , 25-C ) :   1.0505 B( 25-C , 26-H ) :   0.9626
B( 25-C , 27-H ) :   0.9540 B( 25-C , 28-C ) :   1.0723 B( 28-C , 29-H ) :   0.9744
B( 28-C , 30-H ) :   0.9755 B( 28-C , 31-H ) :   0.9755

Dispersion correction           -0.013407056
FINAL SINGLE POINT ENERGY     -1339.866859841235

DIPOLE MOMENT
-------------
                                X             Y             Z
Electronic contribution:     23.98831     -11.71566     -13.42248
Nuclear contribution   :    -24.35222      12.01639      13.90932
                        -----------------------------------------
Total Dipole Moment    :     -0.36392       0.30073       0.48684
                        -----------------------------------------
Magnitude (a.u.)       :      0.67815
Magnitude (Debye)      :      1.72371

Rotational constants in cm-1:     0.019469     0.007906     0.006102
Rotational constants in MHz :   583.662154   237.006302   182.942205

                             ****ORCA TERMINATED NORMALLY****
TOTAL RUN TIME: 0 days 0 hours 0 minutes 32 seconds 835 msec
