                         Program Version 4.2.1 -  RELEASE  -
|  1> ! wB97X-D3 SP def2-SVP
|  2> %pal
|  3> nprocs 16
|  4> end
|  5>
|  6> * xyz 0 1
|  7> S 	 -47.8284 	 65.3576 	 135.383
|  8> C 	 -47.4612 	 63.7674 	 134.726
|  9> C 	 -48.1904 	 62.7466 	 135.319
| 10> C 	 -48.8998 	 63.2909 	 136.432
| 11> C 	 -48.6292 	 64.6192 	 136.684
| 12> H 	 -49.5795 	 62.767 	 137.1
| 13> C 	 -48.1621 	 61.2604 	 135.028
| 14> H 	 -47.5044 	 61.0877 	 134.119
| 15> H 	 -49.1185 	 60.8867 	 134.69
| 16> C 	 -47.4395 	 60.3938 	 136.121
| 17> H 	 -46.6367 	 61.0397 	 136.369
| 18> H 	 -47.9343 	 60.2762 	 137.078
| 19> C 	 -47.1063 	 59.0314 	 135.563
| 20> H 	 -46.6598 	 58.9566 	 134.59
| 21> H 	 -46.4799 	 58.4255 	 136.22
| 22> H 	 -47.9938 	 58.3876 	 135.439
| 23> S 	 -50.0172 	 66.8876 	 137.312
| 24> C 	 -50.4875 	 67.2017 	 138.963
| 25> C 	 -49.8889 	 66.3042 	 139.785
| 26> C 	 -49.1652 	 65.2255 	 139.13
| 27> C 	 -49.2166 	 65.3946 	 137.749
| 28> H 	 -50.0926 	 66.2827 	 140.805
| 29> C 	 -48.487 	 64.0643 	 139.845
| 30> H 	 -48.8614 	 63.1373 	 139.352
| 31> H 	 -48.727 	 64.1658 	 140.851
| 32> C 	 -46.9149 	 63.9306 	 139.746
| 33> H 	 -46.3825 	 64.7661 	 140.244
| 34> H 	 -46.5793 	 64.1762 	 138.702
| 35> C 	 -46.4058 	 62.6034 	 140.164
| 36> H 	 -46.9114 	 62.2436 	 141.049
| 37> H 	 -45.3511 	 62.6239 	 140.566
| 38> H 	 -46.519 	 61.8694 	 139.308
| 39> H 	 -46.7344 	 63.6468 	 133.917
| 40> H 	 -51.2512 	 67.9554 	 139.104
| 41> *
| 42>
| 43>                          ****END OF INPUT****

CARTESIAN COORDINATES (ANGSTROEM)
---------------------------------
  S    -47.828400   65.357600  135.383000
  C    -47.461200   63.767400  134.726000
  C    -48.190400   62.746600  135.319000
  C    -48.899800   63.290900  136.432000
  C    -48.629200   64.619200  136.684000
  H    -49.579500   62.767000  137.100000
  C    -48.162100   61.260400  135.028000
  H    -47.504400   61.087700  134.119000
  H    -49.118500   60.886700  134.690000
  C    -47.439500   60.393800  136.121000
  H    -46.636700   61.039700  136.369000
  H    -47.934300   60.276200  137.078000
  C    -47.106300   59.031400  135.563000
  H    -46.659800   58.956600  134.590000
  H    -46.479900   58.425500  136.220000
  H    -47.993800   58.387600  135.439000
  S    -50.017200   66.887600  137.312000
  C    -50.487500   67.201700  138.963000
  C    -49.888900   66.304200  139.785000
  C    -49.165200   65.225500  139.130000
  C    -49.216600   65.394600  137.749000
  H    -50.092600   66.282700  140.805000
  C    -48.487000   64.064300  139.845000
  H    -48.861400   63.137300  139.352000
  H    -48.727000   64.165800  140.851000
  C    -46.914900   63.930600  139.746000
  H    -46.382500   64.766100  140.244000
  H    -46.579300   64.176200  138.702000
  C    -46.405800   62.603400  140.164000
  H    -46.911400   62.243600  141.049000
  H    -45.351100   62.623900  140.566000
  H    -46.519000   61.869400  139.308000
  H    -46.734400   63.646800  133.917000
  H    -51.251200   67.955400  139.104000

 Total Charge           Charge          ....    0
 Multiplicity           Mult            ....    1
 Number of Electrons    NEL             ....  134
 Basis Dimension        Dim             ....  322

ORBITAL ENERGIES
----------------

  NO   OCC          E(Eh)            E(eV)
   0   2.0000     -88.967263     -2420.9223
   1   2.0000     -88.959348     -2420.7069
   2   2.0000     -10.322737      -280.8959
   3   2.0000     -10.322091      -280.8784
   4   2.0000     -10.316163      -280.7171
   5   2.0000     -10.316107      -280.7155
   6   2.0000     -10.304629      -280.4032
   7   2.0000     -10.304420      -280.3975
   8   2.0000     -10.300036      -280.2782
   9   2.0000     -10.293931      -280.1121
  10   2.0000     -10.291554      -280.0474
  11   2.0000     -10.290885      -280.0292
  12   2.0000     -10.288638      -279.9681
  13   2.0000     -10.285653      -279.8868
  14   2.0000     -10.281592      -279.7764
  15   2.0000     -10.279336      -279.7150
  16   2.0000      -8.082966      -219.9487
  17   2.0000      -8.074932      -219.7301
  18   2.0000      -6.041322      -164.3927
  19   2.0000      -6.037546      -164.2900
  20   2.0000      -6.033623      -164.1832
  21   2.0000      -6.033391      -164.1769
  22   2.0000      -6.029310      -164.0659
  23   2.0000      -6.025717      -163.9681
  24   2.0000      -1.012751       -27.5584
  25   2.0000      -0.985964       -26.8295
  26   2.0000      -0.913815       -24.8662
  27   2.0000      -0.905639       -24.6437
  28   2.0000      -0.872628       -23.7454
  29   2.0000      -0.854940       -23.2641
  30   2.0000      -0.847450       -23.0603
  31   2.0000      -0.813269       -22.1302
  32   2.0000      -0.783310       -21.3150
  33   2.0000      -0.771266       -20.9872
  34   2.0000      -0.713866       -19.4253
  35   2.0000      -0.700539       -19.0626
  36   2.0000      -0.688541       -18.7362
  37   2.0000      -0.667813       -18.1721
  38   2.0000      -0.643413       -17.5082
  39   2.0000      -0.620307       -16.8794
  40   2.0000      -0.598617       -16.2892
  41   2.0000      -0.570183       -15.5155
  42   2.0000      -0.568041       -15.4572
  43   2.0000      -0.556993       -15.1566
  44   2.0000      -0.526698       -14.3322
  45   2.0000      -0.521665       -14.1952
  46   2.0000      -0.520464       -14.1626
  47   2.0000      -0.512272       -13.9396
  48   2.0000      -0.506266       -13.7762
  49   2.0000      -0.495504       -13.4834
  50   2.0000      -0.488971       -13.3056
  51   2.0000      -0.487787       -13.2734
  52   2.0000      -0.474785       -12.9196
  53   2.0000      -0.467025       -12.7084
  54   2.0000      -0.460552       -12.5323
  55   2.0000      -0.450377       -12.2554
  56   2.0000      -0.444139       -12.0856
  57   2.0000      -0.437373       -11.9015
  58   2.0000      -0.432008       -11.7555
  59   2.0000      -0.424457       -11.5501
  60   2.0000      -0.420638       -11.4461
  61   2.0000      -0.416649       -11.3376
  62   2.0000      -0.407281       -11.0827
  63   2.0000      -0.349671        -9.5150
  64   2.0000      -0.332839        -9.0570
  65   2.0000      -0.327467        -8.9108
  66   2.0000      -0.287879        -7.8336
  67   0.0000       0.031745         0.8638
  68   0.0000       0.066016         1.7964
  69   0.0000       0.105082         2.8594
  70   0.0000       0.119869         3.2618
  71   0.0000       0.129522         3.5245

MULLIKEN ATOMIC CHARGES
-----------------------
   0 S :    0.116458
   1 C :   -0.136043
   2 C :   -0.054882
   3 C :    0.000354
   4 C :   -0.140647
   5 H :    0.017184
   6 C :    0.045304
   7 H :    0.019427
   8 H :    0.035316
   9 C :   -0.044590
  10 H :    0.029137
  11 H :    0.032393
  12 C :   -0.049441
  13 H :    0.023984
  14 H :    0.030354
  15 H :    0.025743
  16 S :    0.081459
  17 C :   -0.095194
  18 C :    0.009877
  19 C :   -0.064190
  20 C :   -0.160590
  21 H :   -0.005019
  22 C :    0.112558
  23 H :    0.030014
  24 H :    0.003305
  25 C :   -0.089478
  26 H :    0.023961
  27 H :    0.038572
  28 C :   -0.061738
  29 H :    0.022907
  30 H :    0.039215
  31 H :    0.049384
  32 H :    0.048697
  33 H :    0.066212
Sum of atomic charges:   -0.0000000

LOEWDIN ATOMIC CHARGES
----------------------
   0 S :    0.421713
   1 C :   -0.193418
   2 C :   -0.062592
   3 C :   -0.064671
   4 C :   -0.209611
   5 H :    0.029736
   6 C :   -0.030236
   7 H :    0.036094
   8 H :    0.028237
   9 C :   -0.037067
  10 H :    0.022511
  11 H :    0.024226
  12 C :   -0.070530
  13 H :    0.021596
  14 H :    0.027597
  15 H :    0.030225
  16 S :    0.393010
  17 C :   -0.178689
  18 C :   -0.064549
  19 C :   -0.056558
  20 C :   -0.193764
  21 H :    0.019735
  22 C :   -0.023357
  23 H :    0.036972
  24 H :    0.019886
  25 C :   -0.052592
  26 H :    0.024419
  27 H :    0.029872
  28 C :   -0.076390
  29 H :    0.021519
  30 H :    0.036222
  31 H :    0.033601
  32 H :    0.026471
  33 H :    0.030379

  Mayer bond orders larger than 0.100000
B(  0-S ,  1-C ) :   1.1386 B(  0-S ,  4-C ) :   1.1551 B(  1-C ,  2-C ) :   1.6017
B(  1-C , 32-H ) :   0.9677 B(  2-C ,  3-C ) :   1.2274 B(  2-C ,  6-C ) :   1.0395
B(  3-C ,  4-C ) :   1.5696 B(  3-C ,  5-H ) :   0.9957 B(  4-C , 20-C ) :   1.0456
B(  6-C ,  7-H ) :   0.9451 B(  6-C ,  8-H ) :   0.9370 B(  6-C ,  9-C ) :   1.0386
B(  9-C , 10-H ) :   0.9569 B(  9-C , 11-H ) :   0.9521 B(  9-C , 12-C ) :   1.0848
B( 12-C , 13-H ) :   0.9756 B( 12-C , 14-H ) :   0.9730 B( 12-C , 15-H ) :   0.9708
B( 16-S , 17-C ) :   1.1461 B( 16-S , 20-C ) :   1.1464 B( 17-C , 18-C ) :   1.5945
B( 17-C , 33-H ) :   0.9749 B( 18-C , 19-C ) :   1.2412 B( 18-C , 21-H ) :   0.9969
B( 19-C , 20-C ) :   1.5968 B( 19-C , 22-C ) :   1.0458 B( 22-C , 23-H ) :   0.9365
B( 22-C , 24-H ) :   0.9222 B( 22-C , 25-C ) :   1.0506 B( 25-C , 26-H ) :   0.9522
B( 25-C , 27-H ) :   0.9585 B( 25-C , 28-C ) :   1.0823 B( 28-C , 29-H ) :   0.9714
B( 28-C , 30-H ) :   0.9697 B( 28-C , 31-H ) :   0.9718

Dispersion correction           -0.014923004
FINAL SINGLE POINT ENERGY     -1339.873759267426

DIPOLE MOMENT
-------------
                                X             Y             Z
Electronic contribution:    -11.64941      29.18658      -8.44896
Nuclear contribution   :     11.70192     -29.80113       8.74677
                        -----------------------------------------
Total Dipole Moment    :      0.05251      -0.61455       0.29782
                        -----------------------------------------
Magnitude (a.u.)       :      0.68493
Magnitude (Debye)      :      1.74095

Rotational constants in cm-1:     0.019551     0.009149     0.007017
Rotational constants in MHz :   586.116626   274.286397   210.355012

                             ****ORCA TERMINATED NORMALLY****
TOTAL RUN TIME: 0 days 0 hours 0 minutes 36 seconds 378 msec
