                         Program Version 4.2.1 -  RELEASE  -
|  1> ! wB97X-D3 SP def2-SVP
|  2> %pal
|  3> nprocs 16
|  4> end
|  5>
|  6> * xyz 0 1
|  7> S 	 -105.508 	 45.6592 	 124.847
|  8> C 	 -103.92 	 46.3387 	 124.99
|  9> C 	 -102.947 	 45.6648 	 124.243
| 10> C 	 -103.578 	 44.6149 	 123.455
| 11> C 	 -104.936 	 44.5664 	 123.666
| 12> H 	 -103.095 	 43.9195 	 122.76
| 13> C 	 -101.457 	 45.9422 	 124.328
| 14> H 	 -100.954 	 45.2535 	 125.009
| 15> H 	 -101.313 	 46.8989 	 124.827
| 16> C 	 -100.656 	 45.8641 	 123.042
| 17> H 	 -100.818 	 44.7838 	 122.665
| 18> H 	 -100.911 	 46.6362 	 122.32
| 19> C 	 -99.227 	 46.2776 	 123.298
| 20> H 	 -98.6112 	 45.4512 	 123.604
| 21> H 	 -98.8887 	 46.596 	 122.304
| 22> H 	 -99.0471 	 47.2097 	 123.857
| 23> S 	 -106.615 	 42.3873 	 124.119
| 24> C 	 -107.559 	 41.7157 	 122.752
| 25> C 	 -107.03 	 42.2431 	 121.589
| 26> C 	 -105.996 	 43.2052 	 121.774
| 27> C 	 -105.81 	 43.565 	 123.112
| 28> H 	 -107.405 	 41.9437 	 120.602
| 29> C 	 -105.304 	 43.9376 	 120.597
| 30> H 	 -104.789 	 44.7668 	 121.042
| 31> H 	 -106.095 	 44.2716 	 119.89
| 32> C 	 -104.262 	 43.0568 	 119.815
| 33> H 	 -104.66 	 42.0639 	 119.715
| 34> H 	 -103.433 	 42.9524 	 120.547
| 35> C 	 -103.734 	 43.5681 	 118.44
| 36> H 	 -103.111 	 42.8745 	 117.924
| 37> H 	 -103.115 	 44.4269 	 118.635
| 38> H 	 -104.51 	 44.1075 	 117.814
| 39> H 	 -103.669 	 47.1185 	 125.694
| 40> H 	 -108.486 	 41.0659 	 122.89
| 41> *
| 42>
| 43>                          ****END OF INPUT****

CARTESIAN COORDINATES (ANGSTROEM)
---------------------------------
  S    -105.508000   45.659200  124.847000
  C    -103.920000   46.338700  124.990000
  C    -102.947000   45.664800  124.243000
  C    -103.578000   44.614900  123.455000
  C    -104.936000   44.566400  123.666000
  H    -103.095000   43.919500  122.760000
  C    -101.457000   45.942200  124.328000
  H    -100.954000   45.253500  125.009000
  H    -101.313000   46.898900  124.827000
  C    -100.656000   45.864100  123.042000
  H    -100.818000   44.783800  122.665000
  H    -100.911000   46.636200  122.320000
  C    -99.227000   46.277600  123.298000
  H    -98.611200   45.451200  123.604000
  H    -98.888700   46.596000  122.304000
  H    -99.047100   47.209700  123.857000
  S    -106.615000   42.387300  124.119000
  C    -107.559000   41.715700  122.752000
  C    -107.030000   42.243100  121.589000
  C    -105.996000   43.205200  121.774000
  C    -105.810000   43.565000  123.112000
  H    -107.405000   41.943700  120.602000
  C    -105.304000   43.937600  120.597000
  H    -104.789000   44.766800  121.042000
  H    -106.095000   44.271600  119.890000
  C    -104.262000   43.056800  119.815000
  H    -104.660000   42.063900  119.715000
  H    -103.433000   42.952400  120.547000
  C    -103.734000   43.568100  118.440000
  H    -103.111000   42.874500  117.924000
  H    -103.115000   44.426900  118.635000
  H    -104.510000   44.107500  117.814000
  H    -103.669000   47.118500  125.694000
  H    -108.486000   41.065900  122.890000

 Total Charge           Charge          ....    0
 Multiplicity           Mult            ....    1
 Number of Electrons    NEL             ....  134
 Basis Dimension        Dim             ....  322

ORBITAL ENERGIES
----------------

  NO   OCC          E(Eh)            E(eV)
   0   2.0000     -88.970384     -2421.0072
   1   2.0000     -88.961261     -2420.7590
   2   2.0000     -10.324782      -280.9516
   3   2.0000     -10.324074      -280.9323
   4   2.0000     -10.323762      -280.9238
   5   2.0000     -10.313822      -280.6534
   6   2.0000     -10.306858      -280.4639
   7   2.0000     -10.301605      -280.3209
   8   2.0000     -10.299552      -280.2650
   9   2.0000     -10.296059      -280.1700
  10   2.0000     -10.292973      -280.0860
  11   2.0000     -10.292323      -280.0683
  12   2.0000     -10.291577      -280.0480
  13   2.0000     -10.289882      -280.0019
  14   2.0000     -10.281509      -279.7741
  15   2.0000     -10.279085      -279.7081
  16   2.0000      -8.086028      -220.0320
  17   2.0000      -8.075550      -219.7469
  18   2.0000      -6.044323      -164.4744
  19   2.0000      -6.040496      -164.3703
  20   2.0000      -6.036865      -164.2715
  21   2.0000      -6.034144      -164.1974
  22   2.0000      -6.030129      -164.0881
  23   2.0000      -6.026230      -163.9821
  24   2.0000      -1.010201       -27.4890
  25   2.0000      -0.981889       -26.7186
  26   2.0000      -0.919114       -25.0104
  27   2.0000      -0.896845       -24.4044
  28   2.0000      -0.872600       -23.7447
  29   2.0000      -0.854352       -23.2481
  30   2.0000      -0.841974       -22.9113
  31   2.0000      -0.814218       -22.1560
  32   2.0000      -0.783649       -21.3242
  33   2.0000      -0.769807       -20.9475
  34   2.0000      -0.706544       -19.2260
  35   2.0000      -0.695597       -18.9281
  36   2.0000      -0.687673       -18.7125
  37   2.0000      -0.656506       -17.8644
  38   2.0000      -0.644294       -17.5321
  39   2.0000      -0.620323       -16.8798
  40   2.0000      -0.589452       -16.0398
  41   2.0000      -0.582007       -15.8372
  42   2.0000      -0.562297       -15.3009
  43   2.0000      -0.555284       -15.1100
  44   2.0000      -0.527608       -14.3570
  45   2.0000      -0.523007       -14.2318
  46   2.0000      -0.516090       -14.0435
  47   2.0000      -0.511748       -13.9254
  48   2.0000      -0.507955       -13.8222
  49   2.0000      -0.499323       -13.5873
  50   2.0000      -0.491946       -13.3865
  51   2.0000      -0.479297       -13.0423
  52   2.0000      -0.475947       -12.9512
  53   2.0000      -0.462784       -12.5930
  54   2.0000      -0.459765       -12.5108
  55   2.0000      -0.451388       -12.2829
  56   2.0000      -0.446289       -12.1441
  57   2.0000      -0.435638       -11.8543
  58   2.0000      -0.427941       -11.6449
  59   2.0000      -0.424066       -11.5394
  60   2.0000      -0.417727       -11.3669
  61   2.0000      -0.415934       -11.3181
  62   2.0000      -0.411978       -11.2105
  63   2.0000      -0.343962        -9.3597
  64   2.0000      -0.330449        -8.9920
  65   2.0000      -0.325435        -8.8555
  66   2.0000      -0.294623        -8.0171
  67   0.0000       0.029408         0.8002
  68   0.0000       0.070668         1.9230
  69   0.0000       0.116475         3.1695
  70   0.0000       0.118002         3.2110
  71   0.0000       0.124096         3.3768

MULLIKEN ATOMIC CHARGES
-----------------------
   0 S :    0.138168
   1 C :   -0.119085
   2 C :   -0.065432
   3 C :    0.025411
   4 C :   -0.185355
   5 H :    0.018187
   6 C :    0.071308
   7 H :    0.036845
   8 H :    0.005065
   9 C :   -0.118431
  10 H :    0.052223
  11 H :    0.033912
  12 C :   -0.041942
  13 H :    0.037812
  14 H :    0.019995
  15 H :    0.038620
  16 S :    0.092273
  17 C :   -0.134013
  18 C :   -0.018028
  19 C :   -0.047979
  20 C :   -0.142788
  21 H :    0.024454
  22 C :    0.056943
  23 H :    0.029703
  24 H :    0.033158
  25 C :   -0.087415
  26 H :    0.025158
  27 H :    0.020175
  28 C :   -0.027293
  29 H :    0.041551
  30 H :    0.015319
  31 H :    0.035743
  32 H :    0.042967
  33 H :    0.092774
Sum of atomic charges:   -0.0000000

LOEWDIN ATOMIC CHARGES
----------------------
   0 S :    0.441981
   1 C :   -0.203323
   2 C :   -0.056186
   3 C :   -0.057546
   4 C :   -0.213230
   5 H :    0.032237
   6 C :   -0.039781
   7 H :    0.035321
   8 H :    0.026511
   9 C :   -0.047424
  10 H :    0.036313
  11 H :    0.026467
  12 C :   -0.068213
  13 H :    0.022578
  14 H :    0.028467
  15 H :    0.031576
  16 S :    0.382778
  17 C :   -0.189454
  18 C :   -0.072005
  19 C :   -0.061584
  20 C :   -0.201419
  21 H :    0.033708
  22 C :   -0.027072
  23 H :    0.024690
  24 H :    0.030679
  25 C :   -0.041647
  26 H :    0.017262
  27 H :    0.022521
  28 C :   -0.072002
  29 H :    0.025576
  30 H :    0.023966
  31 H :    0.034444
  32 H :    0.024692
  33 H :    0.049120

  Mayer bond orders larger than 0.100000
B(  0-S ,  1-C ) :   1.1462 B(  0-S ,  4-C ) :   1.1682 B(  1-C ,  2-C ) :   1.6155
B(  1-C , 32-H ) :   0.9671 B(  2-C ,  3-C ) :   1.2296 B(  2-C ,  6-C ) :   1.0255
B(  3-C ,  4-C ) :   1.5685 B(  3-C ,  5-H ) :   0.9886 B(  4-C , 20-C ) :   1.0341
B(  6-C ,  7-H ) :   0.9343 B(  6-C ,  8-H ) :   0.9369 B(  6-C ,  9-C ) :   1.0673
B(  9-C , 10-H ) :   0.9472 B(  9-C , 11-H ) :   0.9657 B(  9-C , 12-C ) :   1.0806
B( 12-C , 13-H ) :   0.9730 B( 12-C , 14-H ) :   0.9787 B( 12-C , 15-H ) :   0.9699
B( 16-S , 17-C ) :   1.1365 B( 16-S , 20-C ) :   1.1505 B( 17-C , 18-C ) :   1.5969
B( 17-C , 20-C ) :   0.1071 B( 17-C , 33-H ) :   0.9613 B( 18-C , 19-C ) :   1.2494
B( 18-C , 21-H ) :   0.9865 B( 19-C , 20-C ) :   1.5754 B( 19-C , 22-C ) :   1.0478
B( 22-C , 23-H ) :   0.9343 B( 22-C , 24-H ) :   0.9417 B( 22-C , 25-C ) :   1.0489
B( 25-C , 26-H ) :   0.9646 B( 25-C , 27-H ) :   0.9520 B( 25-C , 28-C ) :   1.0725
B( 28-C , 29-H ) :   0.9754 B( 28-C , 30-H ) :   0.9712 B( 28-C , 31-H ) :   0.9737

Dispersion correction           -0.013914206
FINAL SINGLE POINT ENERGY     -1339.871371541554

DIPOLE MOMENT
-------------
                                X             Y             Z
Electronic contribution:    -25.39619      -5.04988      19.61353
Nuclear contribution   :     25.95422       5.21821     -19.97089
                        -----------------------------------------
Total Dipole Moment    :      0.55803       0.16833      -0.35736
                        -----------------------------------------
Magnitude (a.u.)       :      0.68370
Magnitude (Debye)      :      1.73782

Rotational constants in cm-1:     0.016483     0.009205     0.006459
Rotational constants in MHz :   494.137868   275.955120   193.634172

                             ****ORCA TERMINATED NORMALLY****
TOTAL RUN TIME: 0 days 0 hours 0 minutes 30 seconds 799 msec
