                         Program Version 4.2.1 -  RELEASE  -
|  1> ! wB97X-D3 SP def2-SVP
|  2> %pal
|  3> nprocs 16
|  4> end
|  5>
|  6> * xyz 0 1
|  7> S 	 -40.9149 	 -7.56554 	 101.257
|  8> C 	 -41.785 	 -8.38873 	 99.893
|  9> C 	 -42.2701 	 -7.37333 	 99.0689
| 10> C 	 -41.9371 	 -6.08508 	 99.508
| 11> C 	 -41.1495 	 -5.99769 	 100.627
| 12> H 	 -42.2082 	 -5.15643 	 98.9022
| 13> C 	 -43.0764 	 -7.65295 	 97.7702
| 14> H 	 -44.072 	 -7.41573 	 98.071
| 15> H 	 -42.9797 	 -8.73399 	 97.5895
| 16> C 	 -42.8648 	 -6.6991 	 96.5979
| 17> H 	 -43.6098 	 -6.80816 	 95.8736
| 18> H 	 -42.8001 	 -5.63056 	 96.8849
| 19> C 	 -41.5334 	 -6.88851 	 95.8968
| 20> H 	 -41.0815 	 -7.85318 	 96.2278
| 21> H 	 -41.668 	 -6.84092 	 94.8941
| 22> H 	 -40.8392 	 -6.15925 	 96.2704
| 23> S 	 -38.7924 	 -4.74326 	 101.364
| 24> C 	 -38.8999 	 -3.17853 	 102.11
| 25> C 	 -40.1452 	 -2.60696 	 102.125
| 26> C 	 -41.1282 	 -3.48608 	 101.602
| 27> C 	 -40.5792 	 -4.78852 	 101.293
| 28> H 	 -40.2835 	 -1.60573 	 102.579
| 29> C 	 -42.5617 	 -3.0916 	 101.756
| 30> H 	 -43.1475 	 -3.67488 	 101.008
| 31> H 	 -42.6125 	 -2.02587 	 101.609
| 32> C 	 -43.1012 	 -3.39178 	 103.139
| 33> H 	 -42.5035 	 -2.86973 	 103.865
| 34> H 	 -42.9265 	 -4.48922 	 103.227
| 35> C 	 -44.6032 	 -3.04229 	 103.25
| 36> H 	 -44.6966 	 -1.9968 	 103.27
| 37> H 	 -44.8863 	 -3.2275 	 104.303
| 38> H 	 -45.3188 	 -3.53562 	 102.612
| 39> H 	 -41.7809 	 -9.49133 	 99.7178
| 40> H 	 -38.097 	 -2.55197 	 102.442
| 41> *
| 42>
| 43>                          ****END OF INPUT****

CARTESIAN COORDINATES (ANGSTROEM)
---------------------------------
  S    -40.914900   -7.565540  101.257000
  C    -41.785000   -8.388730   99.893000
  C    -42.270100   -7.373330   99.068900
  C    -41.937100   -6.085080   99.508000
  C    -41.149500   -5.997690  100.627000
  H    -42.208200   -5.156430   98.902200
  C    -43.076400   -7.652950   97.770200
  H    -44.072000   -7.415730   98.071000
  H    -42.979700   -8.733990   97.589500
  C    -42.864800   -6.699100   96.597900
  H    -43.609800   -6.808160   95.873600
  H    -42.800100   -5.630560   96.884900
  C    -41.533400   -6.888510   95.896800
  H    -41.081500   -7.853180   96.227800
  H    -41.668000   -6.840920   94.894100
  H    -40.839200   -6.159250   96.270400
  S    -38.792400   -4.743260  101.364000
  C    -38.899900   -3.178530  102.110000
  C    -40.145200   -2.606960  102.125000
  C    -41.128200   -3.486080  101.602000
  C    -40.579200   -4.788520  101.293000
  H    -40.283500   -1.605730  102.579000
  C    -42.561700   -3.091600  101.756000
  H    -43.147500   -3.674880  101.008000
  H    -42.612500   -2.025870  101.609000
  C    -43.101200   -3.391780  103.139000
  H    -42.503500   -2.869730  103.865000
  H    -42.926500   -4.489220  103.227000
  C    -44.603200   -3.042290  103.250000
  H    -44.696600   -1.996800  103.270000
  H    -44.886300   -3.227500  104.303000
  H    -45.318800   -3.535620  102.612000
  H    -41.780900   -9.491330   99.717800
  H    -38.097000   -2.551970  102.442000

 Total Charge           Charge          ....    0
 Multiplicity           Mult            ....    1
 Number of Electrons    NEL             ....  134
 Basis Dimension        Dim             ....  322

ORBITAL ENERGIES
----------------

  NO   OCC          E(Eh)            E(eV)
   0   2.0000     -88.970978     -2421.0234
   1   2.0000     -88.963006     -2420.8065
   2   2.0000     -10.337034      -281.2850
   3   2.0000     -10.330237      -281.1000
   4   2.0000     -10.321614      -280.8654
   5   2.0000     -10.314167      -280.6627
   6   2.0000     -10.309511      -280.5361
   7   2.0000     -10.303395      -280.3696
   8   2.0000     -10.293795      -280.1084
   9   2.0000     -10.293697      -280.1057
  10   2.0000     -10.292966      -280.0858
  11   2.0000     -10.286918      -279.9213
  12   2.0000     -10.285148      -279.8731
  13   2.0000     -10.280971      -279.7594
  14   2.0000     -10.274675      -279.5881
  15   2.0000     -10.262076      -279.2453
  16   2.0000      -8.085064      -220.0058
  17   2.0000      -8.077564      -219.8017
  18   2.0000      -6.043481      -164.4515
  19   2.0000      -6.039775      -164.3506
  20   2.0000      -6.036111      -164.2509
  21   2.0000      -6.035842      -164.2436
  22   2.0000      -6.031921      -164.1369
  23   2.0000      -6.028444      -164.0423
  24   2.0000      -1.003785       -27.3144
  25   2.0000      -0.983285       -26.7566
  26   2.0000      -0.915740       -24.9186
  27   2.0000      -0.913489       -24.8573
  28   2.0000      -0.868001       -23.6195
  29   2.0000      -0.850894       -23.1540
  30   2.0000      -0.840558       -22.8727
  31   2.0000      -0.813819       -22.1451
  32   2.0000      -0.786735       -21.4082
  33   2.0000      -0.771912       -21.0048
  34   2.0000      -0.709282       -19.3005
  35   2.0000      -0.695584       -18.9278
  36   2.0000      -0.687828       -18.7168
  37   2.0000      -0.656226       -17.8568
  38   2.0000      -0.636206       -17.3121
  39   2.0000      -0.619574       -16.8595
  40   2.0000      -0.592681       -16.1277
  41   2.0000      -0.574645       -15.6369
  42   2.0000      -0.568135       -15.4597
  43   2.0000      -0.557348       -15.1662
  44   2.0000      -0.544772       -14.8240
  45   2.0000      -0.524401       -14.2697
  46   2.0000      -0.513271       -13.9668
  47   2.0000      -0.511520       -13.9192
  48   2.0000      -0.504159       -13.7189
  49   2.0000      -0.500539       -13.6204
  50   2.0000      -0.486581       -13.2405
  51   2.0000      -0.480997       -13.0886
  52   2.0000      -0.468333       -12.7440
  53   2.0000      -0.466282       -12.6882
  54   2.0000      -0.463743       -12.6191
  55   2.0000      -0.447369       -12.1735
  56   2.0000      -0.446059       -12.1379
  57   2.0000      -0.434479       -11.8228
  58   2.0000      -0.427540       -11.6340
  59   2.0000      -0.422021       -11.4838
  60   2.0000      -0.420398       -11.4396
  61   2.0000      -0.416709       -11.3392
  62   2.0000      -0.407926       -11.1002
  63   2.0000      -0.341986        -9.3059
  64   2.0000      -0.332507        -9.0480
  65   2.0000      -0.328194        -8.9306
  66   2.0000      -0.293413        -7.9842
  67   0.0000       0.026578         0.7232
  68   0.0000       0.067791         1.8447
  69   0.0000       0.108005         2.9390
  70   0.0000       0.120449         3.2776
  71   0.0000       0.132748         3.6122

MULLIKEN ATOMIC CHARGES
-----------------------
   0 S :    0.093267
   1 C :   -0.164945
   2 C :   -0.104048
   3 C :    0.002096
   4 C :   -0.143505
   5 H :    0.032765
   6 C :    0.101746
   7 H :    0.030864
   8 H :    0.029184
   9 C :   -0.088143
  10 H :    0.017064
  11 H :    0.033171
  12 C :   -0.017231
  13 H :    0.024456
  14 H :    0.017096
  15 H :    0.029344
  16 S :    0.119764
  17 C :   -0.059913
  18 C :   -0.075713
  19 C :   -0.016700
  20 C :   -0.160356
  21 H :    0.035165
  22 C :    0.059754
  23 H :    0.024554
  24 H :    0.014887
  25 C :   -0.079994
  26 H :    0.019341
  27 H :    0.037990
  28 C :   -0.003686
  29 H :    0.010524
  30 H :    0.022614
  31 H :    0.044309
  32 H :    0.071979
  33 H :    0.042299
Sum of atomic charges:    0.0000000

LOEWDIN ATOMIC CHARGES
----------------------
   0 S :    0.400718
   1 C :   -0.198419
   2 C :   -0.062730
   3 C :   -0.089098
   4 C :   -0.211989
   5 H :    0.039983
   6 C :   -0.024559
   7 H :    0.033630
   8 H :    0.032007
   9 C :   -0.040686
  10 H :    0.017101
  11 H :    0.030147
  12 C :   -0.055768
  13 H :    0.028439
  14 H :    0.010596
  15 H :    0.025423
  16 S :    0.409142
  17 C :   -0.183023
  18 C :   -0.079694
  19 C :   -0.043341
  20 C :   -0.197255
  21 H :    0.040412
  22 C :   -0.036442
  23 H :    0.031877
  24 H :    0.025248
  25 C :   -0.032877
  26 H :    0.020840
  27 H :    0.030670
  28 C :   -0.063679
  29 H :    0.018335
  30 H :    0.032247
  31 H :    0.026912
  32 H :    0.039897
  33 H :    0.025936

  Mayer bond orders larger than 0.100000
B(  0-S ,  1-C ) :   1.1252 B(  0-S ,  4-C ) :   1.1789 B(  1-C ,  2-C ) :   1.5840
B(  1-C ,  4-C ) :   0.1068 B(  1-C , 32-H ) :   0.9680 B(  2-C ,  3-C ) :   1.2770
B(  2-C ,  6-C ) :   0.9995 B(  3-C ,  4-C ) :   1.5610 B(  3-C ,  5-H ) :   0.9774
B(  4-C , 20-C ) :   1.0032 B(  6-C ,  7-H ) :   0.9279 B(  6-C ,  8-H ) :   0.9495
B(  6-C ,  9-C ) :   1.0873 B(  9-C , 10-H ) :   0.9590 B(  9-C , 11-H ) :   0.9564
B(  9-C , 12-C ) :   1.0626 B( 12-C , 13-H ) :   0.9804 B( 12-C , 14-H ) :   0.9781
B( 12-C , 15-H ) :   0.9788 B( 16-S , 17-C ) :   1.1607 B( 16-S , 20-C ) :   1.1443
B( 17-C , 18-C ) :   1.6269 B( 17-C , 20-C ) :   0.1038 B( 17-C , 33-H ) :   0.9606
B( 18-C , 19-C ) :   1.2408 B( 18-C , 21-H ) :   0.9818 B( 19-C , 20-C ) :   1.5591
B( 19-C , 22-C ) :   1.0682 B( 22-C , 23-H ) :   0.9300 B( 22-C , 24-H ) :   0.9262
B( 22-C , 25-C ) :   1.0729 B( 25-C , 26-H ) :   0.9523 B( 25-C , 27-H ) :   0.9550
B( 25-C , 28-C ) :   1.0847 B( 28-C , 29-H ) :   0.9693 B( 28-C , 30-H ) :   0.9685
B( 28-C , 31-H ) :   0.9763

Dispersion correction           -0.014037600
FINAL SINGLE POINT ENERGY     -1339.856004692321

DIPOLE MOMENT
-------------
                                X             Y             Z
Electronic contribution:     19.12376      -6.69264       9.78681
Nuclear contribution   :    -19.56157       7.13928     -10.03485
                        -----------------------------------------
Total Dipole Moment    :     -0.43782       0.44664      -0.24804
                        -----------------------------------------
Magnitude (a.u.)       :      0.67283
Magnitude (Debye)      :      1.71019

Rotational constants in cm-1:     0.017348     0.008399     0.007313
Rotational constants in MHz :   520.074676   251.784143   219.223976

                             ****ORCA TERMINATED NORMALLY****
TOTAL RUN TIME: 0 days 0 hours 0 minutes 29 seconds 881 msec
