                         Program Version 4.2.1 -  RELEASE  -
|  1> ! wB97X-D3 SP def2-SVP
|  2> %pal
|  3> nprocs 16
|  4> end
|  5>
|  6> * xyz 0 1
|  7> S 	 -99.0667 	 40.839 	 118.377
|  8> C 	 -97.5438 	 40.0682 	 118.178
|  9> C 	 -96.7511 	 40.376 	 119.237
| 10> C 	 -97.3438 	 41.3389 	 120.215
| 11> C 	 -98.5936 	 41.7387 	 119.818
| 12> H 	 -96.9033 	 41.7057 	 121.085
| 13> C 	 -95.3515 	 39.9829 	 119.343
| 14> H 	 -94.8593 	 40.7279 	 118.712
| 15> H 	 -95.122 	 39.0721 	 118.852
| 16> C 	 -94.676 	 40.067 	 120.743
| 17> H 	 -94.9808 	 41.0037 	 121.195
| 18> H 	 -95.0668 	 39.1855 	 121.311
| 19> C 	 -93.117 	 39.9005 	 120.57
| 20> H 	 -92.7034 	 39.5219 	 121.499
| 21> H 	 -92.772 	 39.1335 	 119.756
| 22> H 	 -92.6184 	 40.8269 	 120.322
| 23> S 	 -98.9627 	 44.5201 	 119.659
| 24> C 	 -100.294 	 45.1226 	 120.591
| 25> C 	 -100.917 	 44.1882 	 121.424
| 26> C 	 -100.334 	 42.9175 	 121.236
| 27> C 	 -99.2979 	 42.901 	 120.304
| 28> H 	 -101.869 	 44.4583 	 121.958
| 29> C 	 -100.872 	 41.6435 	 121.866
| 30> H 	 -101.013 	 40.9468 	 121.002
| 31> H 	 -101.889 	 41.9481 	 122.267
| 32> C 	 -100.081 	 40.9688 	 123.009
| 33> H 	 -99.6442 	 41.8146 	 123.549
| 34> H 	 -99.1507 	 40.4983 	 122.666
| 35> C 	 -100.895 	 40.0111 	 123.96
| 36> H 	 -101.814 	 40.5166 	 124.238
| 37> H 	 -100.385 	 39.8469 	 124.919
| 38> H 	 -101.09 	 39.0154 	 123.54
| 39> H 	 -97.1452 	 39.4401 	 117.334
| 40> H 	 -100.716 	 46.193 	 120.552
| 41> *
| 42>
| 43>                          ****END OF INPUT****

CARTESIAN COORDINATES (ANGSTROEM)
---------------------------------
  S    -99.066700   40.839000  118.377000
  C    -97.543800   40.068200  118.178000
  C    -96.751100   40.376000  119.237000
  C    -97.343800   41.338900  120.215000
  C    -98.593600   41.738700  119.818000
  H    -96.903300   41.705700  121.085000
  C    -95.351500   39.982900  119.343000
  H    -94.859300   40.727900  118.712000
  H    -95.122000   39.072100  118.852000
  C    -94.676000   40.067000  120.743000
  H    -94.980800   41.003700  121.195000
  H    -95.066800   39.185500  121.311000
  C    -93.117000   39.900500  120.570000
  H    -92.703400   39.521900  121.499000
  H    -92.772000   39.133500  119.756000
  H    -92.618400   40.826900  120.322000
  S    -98.962700   44.520100  119.659000
  C    -100.294000   45.122600  120.591000
  C    -100.917000   44.188200  121.424000
  C    -100.334000   42.917500  121.236000
  C    -99.297900   42.901000  120.304000
  H    -101.869000   44.458300  121.958000
  C    -100.872000   41.643500  121.866000
  H    -101.013000   40.946800  121.002000
  H    -101.889000   41.948100  122.267000
  C    -100.081000   40.968800  123.009000
  H    -99.644200   41.814600  123.549000
  H    -99.150700   40.498300  122.666000
  C    -100.895000   40.011100  123.960000
  H    -101.814000   40.516600  124.238000
  H    -100.385000   39.846900  124.919000
  H    -101.090000   39.015400  123.540000
  H    -97.145200   39.440100  117.334000
  H    -100.716000   46.193000  120.552000

 Total Charge           Charge          ....    0
 Multiplicity           Mult            ....    1
 Number of Electrons    NEL             ....  134
 Basis Dimension        Dim             ....  322

ORBITAL ENERGIES
----------------

  NO   OCC          E(Eh)            E(eV)
   0   2.0000     -88.972311     -2421.0597
   1   2.0000     -88.959774     -2420.7185
   2   2.0000     -10.325520      -280.9717
   3   2.0000     -10.324631      -280.9475
   4   2.0000     -10.322082      -280.8781
   5   2.0000     -10.310843      -280.5723
   6   2.0000     -10.302345      -280.3411
   7   2.0000     -10.297900      -280.2201
   8   2.0000     -10.297192      -280.2008
   9   2.0000     -10.296141      -280.1722
  10   2.0000     -10.295340      -280.1504
  11   2.0000     -10.293767      -280.1076
  12   2.0000     -10.289073      -279.9799
  13   2.0000     -10.286719      -279.9159
  14   2.0000     -10.282043      -279.7886
  15   2.0000     -10.281263      -279.7674
  16   2.0000      -8.086520      -220.0454
  17   2.0000      -8.074865      -219.7282
  18   2.0000      -6.044911      -164.4904
  19   2.0000      -6.041154      -164.3882
  20   2.0000      -6.037383      -164.2855
  21   2.0000      -6.033541      -164.1810
  22   2.0000      -6.029208      -164.0631
  23   2.0000      -6.025509      -163.9624
  24   2.0000      -1.005717       -27.3670
  25   2.0000      -0.984339       -26.7852
  26   2.0000      -0.911549       -24.8045
  27   2.0000      -0.899265       -24.4702
  28   2.0000      -0.871135       -23.7048
  29   2.0000      -0.848927       -23.1005
  30   2.0000      -0.840397       -22.8684
  31   2.0000      -0.814636       -22.1674
  32   2.0000      -0.778129       -21.1740
  33   2.0000      -0.764551       -20.8045
  34   2.0000      -0.714651       -19.4466
  35   2.0000      -0.699123       -19.0241
  36   2.0000      -0.683065       -18.5871
  37   2.0000      -0.655316       -17.8320
  38   2.0000      -0.641637       -17.4598
  39   2.0000      -0.619555       -16.8590
  40   2.0000      -0.587127       -15.9765
  41   2.0000      -0.566907       -15.4263
  42   2.0000      -0.565522       -15.3886
  43   2.0000      -0.554790       -15.0966
  44   2.0000      -0.516182       -14.0460
  45   2.0000      -0.515933       -14.0392
  46   2.0000      -0.514141       -13.9905
  47   2.0000      -0.509954       -13.8766
  48   2.0000      -0.505970       -13.7682
  49   2.0000      -0.496302       -13.5051
  50   2.0000      -0.492164       -13.3925
  51   2.0000      -0.471567       -12.8320
  52   2.0000      -0.470642       -12.8068
  53   2.0000      -0.464364       -12.6360
  54   2.0000      -0.459028       -12.4908
  55   2.0000      -0.453681       -12.3453
  56   2.0000      -0.449590       -12.2340
  57   2.0000      -0.436145       -11.8681
  58   2.0000      -0.431172       -11.7328
  59   2.0000      -0.425848       -11.5879
  60   2.0000      -0.419568       -11.4170
  61   2.0000      -0.410697       -11.1756
  62   2.0000      -0.409042       -11.1306
  63   2.0000      -0.338650        -9.2151
  64   2.0000      -0.329338        -8.9617
  65   2.0000      -0.314935        -8.5698
  66   2.0000      -0.305612        -8.3161
  67   0.0000       0.041566         1.1311
  68   0.0000       0.050841         1.3835
  69   0.0000       0.113203         3.0804
  70   0.0000       0.119118         3.2414
  71   0.0000       0.132512         3.6058

MULLIKEN ATOMIC CHARGES
-----------------------
   0 S :    0.110857
   1 C :   -0.135655
   2 C :   -0.075608
   3 C :    0.056262
   4 C :   -0.173110
   5 H :   -0.005525
   6 C :    0.032247
   7 H :    0.036974
   8 H :    0.009436
   9 C :   -0.087817
  10 H :    0.043889
  11 H :    0.046466
  12 C :   -0.070876
  13 H :    0.033871
  14 H :    0.042084
  15 H :    0.038760
  16 S :    0.144888
  17 C :   -0.131300
  18 C :   -0.056406
  19 C :   -0.042197
  20 C :   -0.174686
  21 H :    0.044944
  22 C :    0.068159
  23 H :    0.041326
  24 H :    0.018362
  25 C :   -0.069693
  26 H :    0.018962
  27 H :    0.030281
  28 C :   -0.044598
  29 H :    0.024562
  30 H :    0.033567
  31 H :    0.045046
  32 H :    0.065288
  33 H :    0.081241
Sum of atomic charges:    0.0000000

LOEWDIN ATOMIC CHARGES
----------------------
   0 S :    0.403466
   1 C :   -0.220606
   2 C :   -0.065883
   3 C :   -0.048792
   4 C :   -0.191708
   5 H :    0.019677
   6 C :   -0.043121
   7 H :    0.038467
   8 H :    0.021832
   9 C :   -0.035136
  10 H :    0.022980
  11 H :    0.030947
  12 C :   -0.071253
  13 H :    0.023722
  14 H :    0.036451
  15 H :    0.023114
  16 S :    0.416792
  17 C :   -0.200014
  18 C :   -0.086552
  19 C :   -0.051230
  20 C :   -0.208693
  21 H :    0.044896
  22 C :   -0.036521
  23 H :    0.034523
  24 H :    0.032219
  25 C :   -0.047408
  26 H :    0.024127
  27 H :    0.024539
  28 C :   -0.065205
  29 H :    0.022640
  30 H :    0.029605
  31 H :    0.028479
  32 H :    0.048006
  33 H :    0.045644

  Mayer bond orders larger than 0.100000
B(  0-S ,  1-C ) :   1.1168 B(  0-S ,  4-C ) :   1.1397 B(  1-C ,  2-C ) :   1.6468
B(  1-C , 32-H ) :   0.9637 B(  2-C ,  3-C ) :   1.1813 B(  2-C ,  6-C ) :   1.0347
B(  3-C ,  4-C ) :   1.6060 B(  3-C ,  5-H ) :   1.0009 B(  4-C , 20-C ) :   1.0444
B(  6-C ,  7-H ) :   0.9334 B(  6-C ,  8-H ) :   0.9389 B(  6-C ,  9-C ) :   1.0608
B(  9-C , 10-H ) :   0.9498 B(  9-C , 11-H ) :   0.9632 B(  9-C , 12-C ) :   1.0699
B( 12-C , 13-H ) :   0.9761 B( 12-C , 14-H ) :   0.9759 B( 12-C , 15-H ) :   0.9775
B( 16-S , 17-C ) :   1.1777 B( 16-S , 20-C ) :   1.1283 B( 17-C , 18-C ) :   1.6052
B( 17-C , 33-H ) :   0.9506 B( 18-C , 19-C ) :   1.2675 B( 18-C , 21-H ) :   0.9774
B( 19-C , 20-C ) :   1.5855 B( 19-C , 22-C ) :   1.0435 B( 22-C , 23-H ) :   0.9221
B( 22-C , 24-H ) :   0.9355 B( 22-C , 25-C ) :   1.0578 B( 25-C , 26-H ) :   0.9552
B( 25-C , 27-H ) :   0.9512 B( 25-C , 28-C ) :   1.0772 B( 28-C , 29-H ) :   0.9752
B( 28-C , 30-H ) :   0.9755 B( 28-C , 31-H ) :   0.9781

Dispersion correction           -0.014228461
FINAL SINGLE POINT ENERGY     -1339.867273712897

DIPOLE MOMENT
-------------
                                X             Y             Z
Electronic contribution:    -11.11855      14.95365     -17.07400
Nuclear contribution   :     11.42092     -15.03344      17.36708
                        -----------------------------------------
Total Dipole Moment    :      0.30236      -0.07979       0.29308
                        -----------------------------------------
Magnitude (a.u.)       :      0.42858
Magnitude (Debye)      :      1.08938

Rotational constants in cm-1:     0.016761     0.008413     0.007216
Rotational constants in MHz :   502.481266   252.202393   216.317678

                             ****ORCA TERMINATED NORMALLY****
TOTAL RUN TIME: 0 days 0 hours 0 minutes 32 seconds 877 msec
