                         Program Version 4.2.1 -  RELEASE  -
|  1> ! wB97X-D3 SP def2-SVP
|  2> %pal
|  3> nprocs 16
|  4> end
|  5>
|  6> * xyz 0 1
|  7> S 	 3.02198 	 -5.35436 	 73.9418
|  8> C 	 3.56498 	 -6.67598 	 74.9483
|  9> C 	 3.41476 	 -6.33786 	 76.2971
| 10> C 	 3.19911 	 -4.86412 	 76.4076
| 11> C 	 2.96258 	 -4.20185 	 75.2077
| 12> H 	 3.00202 	 -4.25021 	 77.3112
| 13> C 	 3.62207 	 -7.31164 	 77.466
| 14> H 	 4.74944 	 -7.51117 	 77.4137
| 15> H 	 3.11439 	 -8.26669 	 77.409
| 16> C 	 3.27628 	 -6.81785 	 78.907
| 17> H 	 3.96239 	 -7.35658 	 79.5221
| 18> H 	 3.62413 	 -5.7882 	 79.1213
| 19> C 	 1.85919 	 -7.03606 	 79.3774
| 20> H 	 1.77964 	 -6.96434 	 80.4659
| 21> H 	 1.11861 	 -6.32778 	 78.8812
| 22> H 	 1.57685 	 -8.07929 	 79.1703
| 23> S 	 3.43628 	 -2.0537 	 73.6479
| 24> C 	 2.83376 	 -0.50249 	 74.0456
| 25> C 	 1.98785 	 -0.575866 	 75.2127
| 26> C 	 1.86755 	 -1.91498 	 75.6684
| 27> C 	 2.68821 	 -2.82561 	 75.0181
| 28> H 	 1.67509 	 0.376066 	 75.6698
| 29> C 	 0.994183 	 -2.18527 	 76.9165
| 30> H 	 0.840988 	 -1.21811 	 77.4128
| 31> H 	 1.56914 	 -2.73846 	 77.6323
| 32> C 	 -0.300527 	 -2.99396 	 76.6679
| 33> H 	 -0.82413 	 -3.26518 	 77.5253
| 34> H 	 -0.294055 	 -3.96926 	 76.1393
| 35> C 	 -1.42974 	 -2.18349 	 75.8953
| 36> H 	 -1.10798 	 -1.74454 	 74.9569
| 37> H 	 -1.88862 	 -1.43738 	 76.4729
| 38> H 	 -2.24721 	 -2.84532 	 75.5921
| 39> H 	 3.64643 	 -7.67026 	 74.6094
| 40> H 	 3.10079 	 0.325175 	 73.4488
| 41> *
| 42>
| 43>                          ****END OF INPUT****

CARTESIAN COORDINATES (ANGSTROEM)
---------------------------------
  S      3.021980   -5.354360   73.941800
  C      3.564980   -6.675980   74.948300
  C      3.414760   -6.337860   76.297100
  C      3.199110   -4.864120   76.407600
  C      2.962580   -4.201850   75.207700
  H      3.002020   -4.250210   77.311200
  C      3.622070   -7.311640   77.466000
  H      4.749440   -7.511170   77.413700
  H      3.114390   -8.266690   77.409000
  C      3.276280   -6.817850   78.907000
  H      3.962390   -7.356580   79.522100
  H      3.624130   -5.788200   79.121300
  C      1.859190   -7.036060   79.377400
  H      1.779640   -6.964340   80.465900
  H      1.118610   -6.327780   78.881200
  H      1.576850   -8.079290   79.170300
  S      3.436280   -2.053700   73.647900
  C      2.833760   -0.502490   74.045600
  C      1.987850   -0.575866   75.212700
  C      1.867550   -1.914980   75.668400
  C      2.688210   -2.825610   75.018100
  H      1.675090    0.376066   75.669800
  C      0.994183   -2.185270   76.916500
  H      0.840988   -1.218110   77.412800
  H      1.569140   -2.738460   77.632300
  C     -0.300527   -2.993960   76.667900
  H     -0.824130   -3.265180   77.525300
  H     -0.294055   -3.969260   76.139300
  C     -1.429740   -2.183490   75.895300
  H     -1.107980   -1.744540   74.956900
  H     -1.888620   -1.437380   76.472900
  H     -2.247210   -2.845320   75.592100
  H      3.646430   -7.670260   74.609400
  H      3.100790    0.325175   73.448800

 Total Charge           Charge          ....    0
 Multiplicity           Mult            ....    1
 Number of Electrons    NEL             ....  134
 Basis Dimension        Dim             ....  322

ORBITAL ENERGIES
----------------

  NO   OCC          E(Eh)            E(eV)
   0   2.0000     -88.966793     -2420.9095
   1   2.0000     -88.962118     -2420.7823
   2   2.0000     -10.325308      -280.9659
   3   2.0000     -10.324645      -280.9479
   4   2.0000     -10.319968      -280.8206
   5   2.0000     -10.313419      -280.6424
   6   2.0000     -10.310365      -280.5593
   7   2.0000     -10.308008      -280.4952
   8   2.0000     -10.303428      -280.3705
   9   2.0000     -10.303184      -280.3639
  10   2.0000     -10.298936      -280.2483
  11   2.0000     -10.298051      -280.2242
  12   2.0000     -10.287250      -279.9303
  13   2.0000     -10.285892      -279.8933
  14   2.0000     -10.285359      -279.8788
  15   2.0000     -10.267533      -279.3938
  16   2.0000      -8.082414      -219.9337
  17   2.0000      -8.077526      -219.8006
  18   2.0000      -6.040678      -164.3752
  19   2.0000      -6.036489      -164.2612
  20   2.0000      -6.036099      -164.2506
  21   2.0000      -6.033676      -164.1847
  22   2.0000      -6.031855      -164.1351
  23   2.0000      -6.028255      -164.0372
  24   2.0000      -1.010919       -27.5085
  25   2.0000      -0.983003       -26.7489
  26   2.0000      -0.909308       -24.7435
  27   2.0000      -0.902215       -24.5505
  28   2.0000      -0.874191       -23.7879
  29   2.0000      -0.849475       -23.1154
  30   2.0000      -0.838599       -22.8194
  31   2.0000      -0.810406       -22.0523
  32   2.0000      -0.784641       -21.3512
  33   2.0000      -0.775159       -21.0931
  34   2.0000      -0.711948       -19.3731
  35   2.0000      -0.700812       -19.0701
  36   2.0000      -0.692601       -18.8466
  37   2.0000      -0.667916       -18.1749
  38   2.0000      -0.641558       -17.4577
  39   2.0000      -0.613509       -16.6944
  40   2.0000      -0.592530       -16.1235
  41   2.0000      -0.569469       -15.4960
  42   2.0000      -0.552662       -15.0387
  43   2.0000      -0.547415       -14.8959
  44   2.0000      -0.543740       -14.7959
  45   2.0000      -0.531244       -14.4559
  46   2.0000      -0.520660       -14.1679
  47   2.0000      -0.512082       -13.9345
  48   2.0000      -0.505216       -13.7476
  49   2.0000      -0.493964       -13.4414
  50   2.0000      -0.493111       -13.4182
  51   2.0000      -0.478820       -13.0294
  52   2.0000      -0.472225       -12.8499
  53   2.0000      -0.468108       -12.7379
  54   2.0000      -0.459469       -12.5028
  55   2.0000      -0.444150       -12.0859
  56   2.0000      -0.441006       -12.0004
  57   2.0000      -0.439636       -11.9631
  58   2.0000      -0.431795       -11.7497
  59   2.0000      -0.422863       -11.5067
  60   2.0000      -0.416144       -11.3238
  61   2.0000      -0.415873       -11.3165
  62   2.0000      -0.407606       -11.0915
  63   2.0000      -0.348815        -9.4917
  64   2.0000      -0.334512        -9.1025
  65   2.0000      -0.320768        -8.7285
  66   2.0000      -0.287947        -7.8354
  67   0.0000       0.024205         0.6586
  68   0.0000       0.071121         1.9353
  69   0.0000       0.105477         2.8702
  70   0.0000       0.118924         3.2361
  71   0.0000       0.130798         3.5592

MULLIKEN ATOMIC CHARGES
-----------------------
   0 S :    0.109262
   1 C :   -0.102914
   2 C :   -0.081445
   3 C :   -0.000785
   4 C :   -0.132969
   5 H :    0.015005
   6 C :    0.011543
   7 H :    0.060779
   8 H :    0.032063
   9 C :   -0.069459
  10 H :    0.012989
  11 H :    0.025673
  12 C :   -0.048975
  13 H :    0.037603
  14 H :    0.050297
  15 H :    0.023648
  16 S :    0.121893
  17 C :   -0.101405
  18 C :   -0.055453
  19 C :   -0.022072
  20 C :   -0.157708
  21 H :    0.039327
  22 C :    0.094598
  23 H :    0.023223
  24 H :    0.016366
  25 C :   -0.050146
  26 H :    0.010719
  27 H :    0.044223
  28 C :   -0.070199
  29 H :    0.032911
  30 H :    0.016089
  31 H :    0.022513
  32 H :    0.040220
  33 H :    0.052583
Sum of atomic charges:   -0.0000000

LOEWDIN ATOMIC CHARGES
----------------------
   0 S :    0.417315
   1 C :   -0.200044
   2 C :   -0.054539
   3 C :   -0.076989
   4 C :   -0.210287
   5 H :    0.030307
   6 C :   -0.036870
   7 H :    0.049459
   8 H :    0.029894
   9 C :   -0.050518
  10 H :    0.023240
  11 H :    0.024804
  12 C :   -0.069518
  13 H :    0.028617
  14 H :    0.033757
  15 H :    0.024100
  16 S :    0.442860
  17 C :   -0.190566
  18 C :   -0.075616
  19 C :   -0.051744
  20 C :   -0.208057
  21 H :    0.037884
  22 C :   -0.023282
  23 H :    0.034713
  24 H :    0.023924
  25 C :   -0.037528
  26 H :    0.016308
  27 H :    0.035622
  28 C :   -0.066859
  29 H :    0.022130
  30 H :    0.012056
  31 H :    0.025969
  32 H :    0.020224
  33 H :    0.019234

  Mayer bond orders larger than 0.100000
B(  0-S ,  1-C ) :   1.1382 B(  0-S ,  4-C ) :   1.1539 B(  1-C ,  2-C ) :   1.6029
B(  1-C , 32-H ) :   0.9764 B(  2-C ,  3-C ) :   1.2239 B(  2-C ,  6-C ) :   1.0125
B(  3-C ,  4-C ) :   1.5756 B(  3-C ,  5-H ) :   0.9821 B(  4-C , 20-C ) :   1.0809
B(  6-C ,  7-H ) :   0.9438 B(  6-C ,  8-H ) :   0.9465 B(  6-C ,  9-C ) :   1.0792
B(  9-C , 10-H ) :   0.9485 B(  9-C , 11-H ) :   0.9478 B(  9-C , 12-C ) :   1.0845
B( 12-C , 13-H ) :   0.9723 B( 12-C , 14-H ) :   0.9753 B( 12-C , 15-H ) :   0.9703
B( 16-S , 17-C ) :   1.2087 B( 16-S , 20-C ) :   1.1549 B( 17-C , 18-C ) :   1.5259
B( 17-C , 20-C ) :   0.1177 B( 17-C , 33-H ) :   0.9779 B( 18-C , 19-C ) :   1.2807
B( 18-C , 21-H ) :   0.9907 B( 19-C , 20-C ) :   1.5452 B( 19-C , 22-C ) :   1.0291
B( 22-C , 23-H ) :   0.9397 B( 22-C , 24-H ) :   0.9389 B( 22-C , 25-C ) :   1.0553
B( 25-C , 26-H ) :   0.9561 B( 25-C , 27-H ) :   0.9638 B( 25-C , 28-C ) :   1.0683
B( 28-C , 29-H ) :   0.9801 B( 28-C , 30-H ) :   0.9799 B( 28-C , 31-H ) :   0.9758

Dispersion correction           -0.014519736
FINAL SINGLE POINT ENERGY     -1339.861852341897

DIPOLE MOMENT
-------------
                                X             Y             Z
Electronic contribution:     14.70503       6.73178     -23.74572
Nuclear contribution   :    -14.90573      -6.80718      24.43777
                        -----------------------------------------
Total Dipole Moment    :     -0.20070      -0.07539       0.69205
                        -----------------------------------------
Magnitude (a.u.)       :      0.72449
Magnitude (Debye)      :      1.84151

Rotational constants in cm-1:     0.018167     0.009414     0.007214
Rotational constants in MHz :   544.629756   282.231753   216.267598

                             ****ORCA TERMINATED NORMALLY****
TOTAL RUN TIME: 0 days 0 hours 0 minutes 34 seconds 817 msec
