                         Program Version 4.2.1 -  RELEASE  -
|  1> ! wB97X-D3 SP def2-SVP
|  2> %pal
|  3> nprocs 16
|  4> end
|  5>
|  6> * xyz 0 1
|  7> S 	 -107.587 	 40.0469 	 126.978
|  8> C 	 -106.489 	 39.9348 	 128.339
|  9> C 	 -106.832 	 40.802 	 129.375
| 10> C 	 -107.981 	 41.5758 	 129.025
| 11> C 	 -108.575 	 41.2576 	 127.804
| 12> H 	 -108.425 	 42.418 	 129.537
| 13> C 	 -106.148 	 40.9158 	 130.74
| 14> H 	 -106.014 	 41.9342 	 131.012
| 15> H 	 -105.216 	 40.3882 	 130.665
| 16> C 	 -107.054 	 40.3294 	 131.867
| 17> H 	 -106.804 	 40.6582 	 132.902
| 18> H 	 -108.025 	 40.7496 	 131.588
| 19> C 	 -107.253 	 38.8536 	 131.775
| 20> H 	 -108.037 	 38.5617 	 132.53
| 21> H 	 -107.369 	 38.5234 	 130.762
| 22> H 	 -106.397 	 38.327 	 132.178
| 23> S 	 -109.297 	 42.8953 	 125.681
| 24> C 	 -110.752 	 43.7737 	 125.774
| 25> C 	 -111.395 	 43.5232 	 127.003
| 26> C 	 -110.857 	 42.5078 	 127.817
| 27> C 	 -109.639 	 42.1256 	 127.204
| 28> H 	 -112.238 	 44.1516 	 127.223
| 29> C 	 -111.422 	 41.9151 	 129.086
| 30> H 	 -110.797 	 41.0684 	 129.325
| 31> H 	 -112.432 	 41.5602 	 128.874
| 32> C 	 -111.355 	 42.8735 	 130.303
| 33> H 	 -111.883 	 43.7555 	 129.995
| 34> H 	 -110.345 	 43.2519 	 130.397
| 35> C 	 -111.722 	 42.0925 	 131.574
| 36> H 	 -112.768 	 41.9067 	 131.65
| 37> H 	 -111.356 	 42.6588 	 132.433
| 38> H 	 -111.121 	 41.2206 	 131.723
| 39> H 	 -105.578 	 39.3193 	 128.388
| 40> H 	 -111.085 	 44.6131 	 125.164
| 41> *
| 42>
| 43>                          ****END OF INPUT****

CARTESIAN COORDINATES (ANGSTROEM)
---------------------------------
  S    -107.587000   40.046900  126.978000
  C    -106.489000   39.934800  128.339000
  C    -106.832000   40.802000  129.375000
  C    -107.981000   41.575800  129.025000
  C    -108.575000   41.257600  127.804000
  H    -108.425000   42.418000  129.537000
  C    -106.148000   40.915800  130.740000
  H    -106.014000   41.934200  131.012000
  H    -105.216000   40.388200  130.665000
  C    -107.054000   40.329400  131.867000
  H    -106.804000   40.658200  132.902000
  H    -108.025000   40.749600  131.588000
  C    -107.253000   38.853600  131.775000
  H    -108.037000   38.561700  132.530000
  H    -107.369000   38.523400  130.762000
  H    -106.397000   38.327000  132.178000
  S    -109.297000   42.895300  125.681000
  C    -110.752000   43.773700  125.774000
  C    -111.395000   43.523200  127.003000
  C    -110.857000   42.507800  127.817000
  C    -109.639000   42.125600  127.204000
  H    -112.238000   44.151600  127.223000
  C    -111.422000   41.915100  129.086000
  H    -110.797000   41.068400  129.325000
  H    -112.432000   41.560200  128.874000
  C    -111.355000   42.873500  130.303000
  H    -111.883000   43.755500  129.995000
  H    -110.345000   43.251900  130.397000
  C    -111.722000   42.092500  131.574000
  H    -112.768000   41.906700  131.650000
  H    -111.356000   42.658800  132.433000
  H    -111.121000   41.220600  131.723000
  H    -105.578000   39.319300  128.388000
  H    -111.085000   44.613100  125.164000

 Total Charge           Charge          ....    0
 Multiplicity           Mult            ....    1
 Number of Electrons    NEL             ....  134
 Basis Dimension        Dim             ....  322

ORBITAL ENERGIES
----------------

  NO   OCC          E(Eh)            E(eV)
   0   2.0000     -88.970511     -2421.0107
   1   2.0000     -88.970320     -2421.0055
   2   2.0000     -10.331928      -281.1461
   3   2.0000     -10.329443      -281.0784
   4   2.0000     -10.320190      -280.8266
   5   2.0000     -10.313684      -280.6496
   6   2.0000     -10.305439      -280.4253
   7   2.0000     -10.304007      -280.3863
   8   2.0000     -10.294342      -280.1233
   9   2.0000     -10.291893      -280.0567
  10   2.0000     -10.291128      -280.0358
  11   2.0000     -10.289927      -280.0032
  12   2.0000     -10.287500      -279.9371
  13   2.0000     -10.287162      -279.9279
  14   2.0000     -10.277508      -279.6652
  15   2.0000     -10.271898      -279.5126
  16   2.0000      -8.085777      -220.0252
  17   2.0000      -8.084307      -219.9852
  18   2.0000      -6.044024      -164.4663
  19   2.0000      -6.042889      -164.4354
  20   2.0000      -6.040183      -164.3617
  21   2.0000      -6.038828      -164.3249
  22   2.0000      -6.036812      -164.2700
  23   2.0000      -6.035131      -164.2243
  24   2.0000      -1.005966       -27.3737
  25   2.0000      -0.984657       -26.7939
  26   2.0000      -0.913864       -24.8675
  27   2.0000      -0.913569       -24.8595
  28   2.0000      -0.863687       -23.5021
  29   2.0000      -0.856669       -23.3112
  30   2.0000      -0.846246       -23.0275
  31   2.0000      -0.810060       -22.0429
  32   2.0000      -0.785998       -21.3881
  33   2.0000      -0.774852       -21.0848
  34   2.0000      -0.710680       -19.3386
  35   2.0000      -0.699509       -19.0346
  36   2.0000      -0.688660       -18.7394
  37   2.0000      -0.655908       -17.8482
  38   2.0000      -0.639752       -17.4085
  39   2.0000      -0.618812       -16.8387
  40   2.0000      -0.596021       -16.2186
  41   2.0000      -0.573487       -15.6054
  42   2.0000      -0.571094       -15.5403
  43   2.0000      -0.550478       -14.9793
  44   2.0000      -0.542588       -14.7646
  45   2.0000      -0.525115       -14.2891
  46   2.0000      -0.516746       -14.0614
  47   2.0000      -0.512054       -13.9337
  48   2.0000      -0.506258       -13.7760
  49   2.0000      -0.494451       -13.4547
  50   2.0000      -0.488165       -13.2836
  51   2.0000      -0.483724       -13.1628
  52   2.0000      -0.475276       -12.9329
  53   2.0000      -0.467073       -12.7097
  54   2.0000      -0.458420       -12.4742
  55   2.0000      -0.448864       -12.2142
  56   2.0000      -0.443518       -12.0687
  57   2.0000      -0.439408       -11.9569
  58   2.0000      -0.435517       -11.8510
  59   2.0000      -0.433925       -11.8077
  60   2.0000      -0.426926       -11.6172
  61   2.0000      -0.415427       -11.3044
  62   2.0000      -0.408199       -11.1076
  63   2.0000      -0.343351        -9.3430
  64   2.0000      -0.333969        -9.0877
  65   2.0000      -0.329758        -8.9732
  66   2.0000      -0.290572        -7.9069
  67   0.0000       0.030011         0.8167
  68   0.0000       0.069003         1.8777
  69   0.0000       0.115817         3.1516
  70   0.0000       0.120257         3.2724
  71   0.0000       0.124546         3.3891

MULLIKEN ATOMIC CHARGES
-----------------------
   0 S :    0.112388
   1 C :   -0.127329
   2 C :   -0.114382
   3 C :    0.022420
   4 C :   -0.160645
   5 H :    0.008188
   6 C :    0.129842
   7 H :    0.024297
   8 H :    0.010590
   9 C :   -0.097148
  10 H :    0.037617
  11 H :    0.020155
  12 C :   -0.040806
  13 H :    0.036556
  14 H :    0.041635
  15 H :    0.013253
  16 S :    0.139728
  17 C :   -0.098766
  18 C :   -0.066775
  19 C :   -0.029953
  20 C :   -0.178782
  21 H :    0.008401
  22 C :    0.090048
  23 H :    0.018470
  24 H :    0.037275
  25 C :   -0.078027
  26 H :    0.021653
  27 H :    0.013690
  28 C :   -0.000423
  29 H :    0.039193
  30 H :    0.023341
  31 H :    0.025692
  32 H :    0.057378
  33 H :    0.061226
Sum of atomic charges:    0.0000000

LOEWDIN ATOMIC CHARGES
----------------------
   0 S :    0.398519
   1 C :   -0.202192
   2 C :   -0.063893
   3 C :   -0.061904
   4 C :   -0.196582
   5 H :    0.027900
   6 C :   -0.019381
   7 H :    0.029206
   8 H :    0.022786
   9 C :   -0.044179
  10 H :    0.026613
  11 H :    0.021417
  12 C :   -0.069010
  13 H :    0.034400
  14 H :    0.024747
  15 H :    0.019095
  16 S :    0.441746
  17 C :   -0.217738
  18 C :   -0.071959
  19 C :   -0.055338
  20 C :   -0.199928
  21 H :    0.024147
  22 C :   -0.026457
  23 H :    0.027672
  24 H :    0.033923
  25 C :   -0.034663
  26 H :    0.020938
  27 H :    0.019699
  28 C :   -0.058892
  29 H :    0.024384
  30 H :    0.029661
  31 H :    0.026697
  32 H :    0.034258
  33 H :    0.034308

  Mayer bond orders larger than 0.100000
B(  0-S ,  1-C ) :   1.1415 B(  0-S ,  4-C ) :   1.1440 B(  1-C ,  2-C ) :   1.6029
B(  1-C , 32-H ) :   0.9604 B(  2-C ,  3-C ) :   1.2407 B(  2-C ,  6-C ) :   1.0335
B(  3-C ,  4-C ) :   1.5696 B(  3-C ,  5-H ) :   0.9850 B(  4-C , 20-C ) :   1.0239
B(  6-C ,  7-H ) :   0.9359 B(  6-C ,  8-H ) :   0.9408 B(  6-C ,  9-C ) :   1.0580
B(  9-C , 10-H ) :   0.9570 B(  9-C , 11-H ) :   0.9564 B(  9-C , 12-C ) :   1.0829
B( 12-C , 13-H ) :   0.9697 B( 12-C , 14-H ) :   0.9726 B( 12-C , 15-H ) :   0.9714
B( 16-S , 17-C ) :   1.1639 B( 16-S , 20-C ) :   1.1831 B( 17-C , 18-C ) :   1.5898
B( 17-C , 20-C ) :   0.1017 B( 17-C , 33-H ) :   0.9647 B( 18-C , 19-C ) :   1.2670
B( 18-C , 21-H ) :   0.9884 B( 19-C , 20-C ) :   1.5412 B( 19-C , 22-C ) :   1.0428
B( 22-C , 23-H ) :   0.9250 B( 22-C , 24-H ) :   0.9333 B( 22-C , 25-C ) :   1.0558
B( 25-C , 26-H ) :   0.9578 B( 25-C , 27-H ) :   0.9529 B( 25-C , 28-C ) :   1.0791
B( 28-C , 29-H ) :   0.9758 B( 28-C , 30-H ) :   0.9715 B( 28-C , 31-H ) :   0.9689

Dispersion correction           -0.015281844
FINAL SINGLE POINT ENERGY     -1339.877966278069

DIPOLE MOMENT
-------------
                                X             Y             Z
Electronic contribution:      4.58609       3.03751     -30.80220
Nuclear contribution   :     -4.63300      -2.75184      31.49291
                        -----------------------------------------
Total Dipole Moment    :     -0.04692       0.28568       0.69070
                        -----------------------------------------
Magnitude (a.u.)       :      0.74892
Magnitude (Debye)      :      1.90361

Rotational constants in cm-1:     0.017594     0.010335     0.007103
Rotational constants in MHz :   527.444747   309.832651   212.955020

                             ****ORCA TERMINATED NORMALLY****
TOTAL RUN TIME: 0 days 0 hours 0 minutes 35 seconds 175 msec
