                         Program Version 4.2.1 -  RELEASE  -
|  1> ! wB97X-D3 SP def2-SVP
|  2> %pal
|  3> nprocs 16
|  4> end
|  5>
|  6> * xyz 0 1
|  7> S 	 -1.98898 	 -13.7576 	 71.2459
|  8> C 	 -1.58431 	 -14.46 	 69.673
|  9> C 	 -0.307868 	 -15.0124 	 69.7226
| 10> C 	 0.271655 	 -14.7878 	 71.0273
| 11> C 	 -0.551573 	 -14.3051 	 72.0153
| 12> H 	 1.20135 	 -15.2078 	 71.3734
| 13> C 	 0.479544 	 -15.6596 	 68.6114
| 14> H 	 1.43906 	 -15.234 	 68.4076
| 15> H 	 -0.0964619 	 -15.4839 	 67.6907
| 16> C 	 0.648162 	 -17.1914 	 68.7334
| 17> H 	 1.33962 	 -17.3626 	 69.5731
| 18> H 	 -0.265877 	 -17.5848 	 69.054
| 19> C 	 0.932804 	 -17.9626 	 67.4716
| 20> H 	 1.34428 	 -17.4303 	 66.7184
| 21> H 	 1.6065 	 -18.7907 	 67.8341
| 22> H 	 0.0900808 	 -18.5427 	 67.0977
| 23> S 	 -1.7558 	 -13.6892 	 74.4517
| 24> C 	 -0.8474 	 -13.5726 	 75.9267
| 25> C 	 0.455794 	 -13.9437 	 75.7049
| 26> C 	 0.774197 	 -14.2174 	 74.3391
| 27> C 	 -0.343405 	 -14.1149 	 73.5064
| 28> H 	 1.1546 	 -14.0227 	 76.5494
| 29> C 	 2.15556 	 -14.6685 	 73.8497
| 30> H 	 1.94789 	 -15.6047 	 73.3396
| 31> H 	 2.81453 	 -15.0665 	 74.7653
| 32> C 	 2.94159 	 -13.6697 	 73.0044
| 33> H 	 3.36992 	 -12.828 	 73.6202
| 34> H 	 2.27262 	 -13.2305 	 72.2344
| 35> C 	 4.22117 	 -14.1324 	 72.3792
| 36> H 	 4.09468 	 -14.6109 	 71.4254
| 37> H 	 4.73789 	 -14.7277 	 73.1645
| 38> H 	 4.79702 	 -13.2362 	 72.1601
| 39> H 	 -2.25561 	 -14.7233 	 68.8629
| 40> H 	 -1.22677 	 -13.277 	 76.8603
| 41> *
| 42>
| 43>                          ****END OF INPUT****

CARTESIAN COORDINATES (ANGSTROEM)
---------------------------------
  S     -1.988980  -13.757600   71.245900
  C     -1.584310  -14.460000   69.673000
  C     -0.307868  -15.012400   69.722600
  C      0.271655  -14.787800   71.027300
  C     -0.551573  -14.305100   72.015300
  H      1.201350  -15.207800   71.373400
  C      0.479544  -15.659600   68.611400
  H      1.439060  -15.234000   68.407600
  H     -0.096462  -15.483900   67.690700
  C      0.648162  -17.191400   68.733400
  H      1.339620  -17.362600   69.573100
  H     -0.265877  -17.584800   69.054000
  C      0.932804  -17.962600   67.471600
  H      1.344280  -17.430300   66.718400
  H      1.606500  -18.790700   67.834100
  H      0.090081  -18.542700   67.097700
  S     -1.755800  -13.689200   74.451700
  C     -0.847400  -13.572600   75.926700
  C      0.455794  -13.943700   75.704900
  C      0.774197  -14.217400   74.339100
  C     -0.343405  -14.114900   73.506400
  H      1.154600  -14.022700   76.549400
  C      2.155560  -14.668500   73.849700
  H      1.947890  -15.604700   73.339600
  H      2.814530  -15.066500   74.765300
  C      2.941590  -13.669700   73.004400
  H      3.369920  -12.828000   73.620200
  H      2.272620  -13.230500   72.234400
  C      4.221170  -14.132400   72.379200
  H      4.094680  -14.610900   71.425400
  H      4.737890  -14.727700   73.164500
  H      4.797020  -13.236200   72.160100
  H     -2.255610  -14.723300   68.862900
  H     -1.226770  -13.277000   76.860300

 Total Charge           Charge          ....    0
 Multiplicity           Mult            ....    1
 Number of Electrons    NEL             ....  134
 Basis Dimension        Dim             ....  322

ORBITAL ENERGIES
----------------

  NO   OCC          E(Eh)            E(eV)
   0   2.0000     -88.968579     -2420.9581
   1   2.0000     -88.964676     -2420.8519
   2   2.0000     -10.337418      -281.2954
   3   2.0000     -10.336063      -281.2586
   4   2.0000     -10.317294      -280.7478
   5   2.0000     -10.316443      -280.7247
   6   2.0000     -10.309744      -280.5424
   7   2.0000     -10.306526      -280.4548
   8   2.0000     -10.306072      -280.4425
   9   2.0000     -10.297548      -280.2105
  10   2.0000     -10.292053      -280.0610
  11   2.0000     -10.290889      -280.0293
  12   2.0000     -10.287838      -279.9463
  13   2.0000     -10.280036      -279.7340
  14   2.0000     -10.277124      -279.6548
  15   2.0000     -10.273539      -279.5572
  16   2.0000      -8.083414      -219.9609
  17   2.0000      -8.079653      -219.8585
  18   2.0000      -6.041980      -164.4106
  19   2.0000      -6.038410      -164.3135
  20   2.0000      -6.037830      -164.2977
  21   2.0000      -6.034186      -164.1985
  22   2.0000      -6.033987      -164.1931
  23   2.0000      -6.030259      -164.0917
  24   2.0000      -1.009012       -27.4566
  25   2.0000      -0.987968       -26.8840
  26   2.0000      -0.915253       -24.9053
  27   2.0000      -0.911445       -24.8017
  28   2.0000      -0.870687       -23.6926
  29   2.0000      -0.858038       -23.3484
  30   2.0000      -0.844460       -22.9789
  31   2.0000      -0.820133       -22.3170
  32   2.0000      -0.785845       -21.3839
  33   2.0000      -0.776609       -21.1326
  34   2.0000      -0.706732       -19.2312
  35   2.0000      -0.699407       -19.0318
  36   2.0000      -0.686561       -18.6823
  37   2.0000      -0.664454       -18.0807
  38   2.0000      -0.642740       -17.4898
  39   2.0000      -0.621134       -16.9019
  40   2.0000      -0.597243       -16.2518
  41   2.0000      -0.578977       -15.7548
  42   2.0000      -0.568735       -15.4761
  43   2.0000      -0.556996       -15.1566
  44   2.0000      -0.536332       -14.5943
  45   2.0000      -0.531405       -14.4603
  46   2.0000      -0.517167       -14.0728
  47   2.0000      -0.514599       -14.0029
  48   2.0000      -0.510305       -13.8861
  49   2.0000      -0.504220       -13.7205
  50   2.0000      -0.493154       -13.4194
  51   2.0000      -0.491777       -13.3819
  52   2.0000      -0.476392       -12.9633
  53   2.0000      -0.468258       -12.7419
  54   2.0000      -0.458494       -12.4763
  55   2.0000      -0.448284       -12.1984
  56   2.0000      -0.441426       -12.0118
  57   2.0000      -0.437045       -11.8926
  58   2.0000      -0.430333       -11.7100
  59   2.0000      -0.423867       -11.5340
  60   2.0000      -0.415263       -11.2999
  61   2.0000      -0.408884       -11.1263
  62   2.0000      -0.406088       -11.0502
  63   2.0000      -0.358724        -9.7614
  64   2.0000      -0.335401        -9.1267
  65   2.0000      -0.327599        -8.9144
  66   2.0000      -0.289730        -7.8840
  67   0.0000       0.019093         0.5195
  68   0.0000       0.086539         2.3548
  69   0.0000       0.099240         2.7005
  70   0.0000       0.113942         3.1005
  71   0.0000       0.130687         3.5562

MULLIKEN ATOMIC CHARGES
-----------------------
   0 S :    0.088275
   1 C :   -0.101868
   2 C :   -0.105438
   3 C :   -0.006002
   4 C :   -0.093062
   5 H :   -0.005403
   6 C :    0.073679
   7 H :    0.032150
   8 H :    0.007522
   9 C :   -0.076184
  10 H :    0.030954
  11 H :    0.010062
  12 C :   -0.012760
  13 H :    0.013840
  14 H :    0.033580
  15 H :    0.032682
  16 S :    0.101038
  17 C :   -0.065508
  18 C :   -0.036535
  19 C :   -0.049893
  20 C :   -0.116990
  21 H :    0.024314
  22 C :    0.003637
  23 H :    0.042218
  24 H :    0.034657
  25 C :   -0.104206
  26 H :    0.035635
  27 H :    0.047085
  28 C :   -0.025700
  29 H :    0.027736
  30 H :    0.034395
  31 H :    0.031136
  32 H :    0.054266
  33 H :    0.040688
Sum of atomic charges:   -0.0000000

LOEWDIN ATOMIC CHARGES
----------------------
   0 S :    0.403202
   1 C :   -0.197378
   2 C :   -0.054162
   3 C :   -0.081544
   4 C :   -0.188465
   5 H :    0.021945
   6 C :   -0.030653
   7 H :    0.028797
   8 H :    0.028940
   9 C :   -0.041603
  10 H :    0.022637
  11 H :    0.019357
  12 C :   -0.059160
  13 H :    0.006984
  14 H :    0.041416
  15 H :    0.029944
  16 S :    0.413048
  17 C :   -0.179619
  18 C :   -0.071419
  19 C :   -0.058456
  20 C :   -0.191363
  21 H :    0.035597
  22 C :   -0.044239
  23 H :    0.028424
  24 H :    0.040553
  25 C :   -0.056391
  26 H :    0.034620
  27 H :    0.029166
  28 C :   -0.063967
  29 H :    0.017932
  30 H :    0.030025
  31 H :    0.029232
  32 H :    0.033686
  33 H :    0.022918

  Mayer bond orders larger than 0.100000
B(  0-S ,  1-C ) :   1.1277 B(  0-S ,  4-C ) :   1.1536 B(  1-C ,  2-C ) :   1.6267
B(  1-C , 32-H ) :   0.9592 B(  2-C ,  3-C ) :   1.2343 B(  2-C ,  6-C ) :   1.0400
B(  3-C ,  4-C ) :   1.5939 B(  3-C ,  5-H ) :   0.9829 B(  4-C , 20-C ) :   1.0311
B(  6-C ,  7-H ) :   0.9400 B(  6-C ,  8-H ) :   0.9391 B(  6-C ,  9-C ) :   1.0609
B(  9-C , 10-H ) :   0.9636 B(  9-C , 11-H ) :   0.9544 B(  9-C , 12-C ) :   1.0743
B( 12-C , 13-H ) :   0.9785 B( 12-C , 14-H ) :   0.9713 B( 12-C , 15-H ) :   0.9783
B( 16-S , 17-C ) :   1.1591 B( 16-S , 20-C ) :   1.1497 B( 17-C , 18-C ) :   1.5900
B( 17-C , 33-H ) :   0.9758 B( 18-C , 19-C ) :   1.2744 B( 18-C , 21-H ) :   0.9878
B( 19-C , 20-C ) :   1.5761 B( 19-C , 22-C ) :   1.0212 B( 22-C , 23-H ) :   0.9399
B( 22-C , 24-H ) :   0.9314 B( 22-C , 25-C ) :   1.0588 B( 25-C , 26-H ) :   0.9574
B( 25-C , 27-H ) :   0.9534 B( 25-C , 28-C ) :   1.0825 B( 28-C , 29-H ) :   0.9731
B( 28-C , 30-H ) :   0.9697 B( 28-C , 31-H ) :   0.9761

Dispersion correction           -0.013924599
FINAL SINGLE POINT ENERGY     -1339.860459461014

DIPOLE MOMENT
-------------
                                X             Y             Z
Electronic contribution:    -24.82416      13.09905      15.29360
Nuclear contribution   :     25.40372     -13.49505     -15.35469
                        -----------------------------------------
Total Dipole Moment    :      0.57956      -0.39599      -0.06109
                        -----------------------------------------
Magnitude (a.u.)       :      0.70458
Magnitude (Debye)      :      1.79090

Rotational constants in cm-1:     0.018312     0.008769     0.006523
Rotational constants in MHz :   548.966005   262.887592   195.565880

                             ****ORCA TERMINATED NORMALLY****
TOTAL RUN TIME: 0 days 0 hours 0 minutes 35 seconds 385 msec
