                         Program Version 4.2.1 -  RELEASE  -
|  1> ! wB97X-D3 SP def2-SVP
|  2> %pal
|  3> nprocs 16
|  4> end
|  5>
|  6> * xyz 0 1
|  7> S 	 -2.79839 	 -11.2184 	 69.9889
|  8> C 	 -3.46913 	 -12.167 	 68.6352
|  9> C 	 -3.77771 	 -11.2825 	 67.6243
| 10> C 	 -3.46801 	 -9.91904 	 68.0005
| 11> C 	 -2.78674 	 -9.76808 	 69.1832
| 12> H 	 -3.78689 	 -9.09487 	 67.4169
| 13> C 	 -4.66754 	 -11.568 	 66.4824
| 14> H 	 -4.80793 	 -10.6437 	 65.8902
| 15> H 	 -5.64236 	 -11.7133 	 66.9933
| 16> C 	 -4.1872 	 -12.7074 	 65.6121
| 17> H 	 -3.21408 	 -12.4778 	 65.1677
| 18> H 	 -3.94395 	 -13.5615 	 66.328
| 19> C 	 -5.17784 	 -13.0267 	 64.5329
| 20> H 	 -6.23674 	 -12.9788 	 65.0059
| 21> H 	 -5.13827 	 -12.2238 	 63.7615
| 22> H 	 -4.9541 	 -13.9626 	 64.1307
| 23> S 	 -2.63688 	 -8.49908 	 71.5674
| 24> C 	 -2.53587 	 -6.79746 	 71.6228
| 25> C 	 -2.4373 	 -6.23865 	 70.3812
| 26> C 	 -2.30567 	 -7.21174 	 69.3383
| 27> C 	 -2.41131 	 -8.49438 	 69.8699
| 28> H 	 -2.54192 	 -5.2039 	 70.2802
| 29> C 	 -2.41019 	 -6.89685 	 67.8059
| 30> H 	 -3.47966 	 -7.02261 	 67.4363
| 31> H 	 -1.84776 	 -7.59165 	 67.1981
| 32> C 	 -1.82563 	 -5.51091 	 67.462
| 33> H 	 -0.97001 	 -5.19232 	 68.1298
| 34> H 	 -2.61656 	 -4.7555 	 67.6785
| 35> C 	 -1.51672 	 -5.27725 	 65.9774
| 36> H 	 -2.57792 	 -5.33843 	 65.5981
| 37> H 	 -0.971423 	 -6.11926 	 65.483
| 38> H 	 -1.10016 	 -4.27162 	 65.812
| 39> H 	 -3.87664 	 -13.1177 	 68.839
| 40> H 	 -2.7181 	 -6.21969 	 72.4933
| 41> *
| 42>
| 43>                          ****END OF INPUT****

CARTESIAN COORDINATES (ANGSTROEM)
---------------------------------
  S     -2.798390  -11.218400   69.988900
  C     -3.469130  -12.167000   68.635200
  C     -3.777710  -11.282500   67.624300
  C     -3.468010   -9.919040   68.000500
  C     -2.786740   -9.768080   69.183200
  H     -3.786890   -9.094870   67.416900
  C     -4.667540  -11.568000   66.482400
  H     -4.807930  -10.643700   65.890200
  H     -5.642360  -11.713300   66.993300
  C     -4.187200  -12.707400   65.612100
  H     -3.214080  -12.477800   65.167700
  H     -3.943950  -13.561500   66.328000
  C     -5.177840  -13.026700   64.532900
  H     -6.236740  -12.978800   65.005900
  H     -5.138270  -12.223800   63.761500
  H     -4.954100  -13.962600   64.130700
  S     -2.636880   -8.499080   71.567400
  C     -2.535870   -6.797460   71.622800
  C     -2.437300   -6.238650   70.381200
  C     -2.305670   -7.211740   69.338300
  C     -2.411310   -8.494380   69.869900
  H     -2.541920   -5.203900   70.280200
  C     -2.410190   -6.896850   67.805900
  H     -3.479660   -7.022610   67.436300
  H     -1.847760   -7.591650   67.198100
  C     -1.825630   -5.510910   67.462000
  H     -0.970010   -5.192320   68.129800
  H     -2.616560   -4.755500   67.678500
  C     -1.516720   -5.277250   65.977400
  H     -2.577920   -5.338430   65.598100
  H     -0.971423   -6.119260   65.483000
  H     -1.100160   -4.271620   65.812000
  H     -3.876640  -13.117700   68.839000
  H     -2.718100   -6.219690   72.493300

 Total Charge           Charge          ....    0
 Multiplicity           Mult            ....    1
 Number of Electrons    NEL             ....  134
 Basis Dimension        Dim             ....  322

ORBITAL ENERGIES
----------------

  NO   OCC          E(Eh)            E(eV)
   0   2.0000     -88.967113     -2420.9182
   1   2.0000     -88.957902     -2420.6676
   2   2.0000     -10.327244      -281.0186
   3   2.0000     -10.325425      -280.9691
   4   2.0000     -10.311157      -280.5808
   5   2.0000     -10.309834      -280.5448
   6   2.0000     -10.309558      -280.5373
   7   2.0000     -10.304904      -280.4107
   8   2.0000     -10.299009      -280.2503
   9   2.0000     -10.293017      -280.0872
  10   2.0000     -10.291142      -280.0362
  11   2.0000     -10.290472      -280.0180
  12   2.0000     -10.288393      -279.9614
  13   2.0000     -10.288351      -279.9603
  14   2.0000     -10.285501      -279.8827
  15   2.0000     -10.282267      -279.7947
  16   2.0000      -8.083575      -219.9653
  17   2.0000      -8.074491      -219.7181
  18   2.0000      -6.041888      -164.4081
  19   2.0000      -6.037884      -164.2992
  20   2.0000      -6.034384      -164.2039
  21   2.0000      -6.033009      -164.1665
  22   2.0000      -6.028708      -164.0495
  23   2.0000      -6.025157      -163.9529
  24   2.0000      -1.018104       -27.7040
  25   2.0000      -0.993375       -27.0311
  26   2.0000      -0.922836       -25.1117
  27   2.0000      -0.908348       -24.7174
  28   2.0000      -0.873167       -23.7601
  29   2.0000      -0.855378       -23.2760
  30   2.0000      -0.845967       -23.0199
  31   2.0000      -0.816083       -22.2068
  32   2.0000      -0.783140       -21.3103
  33   2.0000      -0.773954       -21.0604
  34   2.0000      -0.704810       -19.1789
  35   2.0000      -0.696088       -18.9415
  36   2.0000      -0.692378       -18.8406
  37   2.0000      -0.657687       -17.8966
  38   2.0000      -0.643162       -17.5013
  39   2.0000      -0.621435       -16.9101
  40   2.0000      -0.603247       -16.4152
  41   2.0000      -0.576930       -15.6990
  42   2.0000      -0.564277       -15.3547
  43   2.0000      -0.560139       -15.2422
  44   2.0000      -0.533912       -14.5285
  45   2.0000      -0.530318       -14.4307
  46   2.0000      -0.525070       -14.2879
  47   2.0000      -0.513586       -13.9754
  48   2.0000      -0.504424       -13.7261
  49   2.0000      -0.501223       -13.6390
  50   2.0000      -0.489835       -13.3291
  51   2.0000      -0.485128       -13.2010
  52   2.0000      -0.478652       -13.0248
  53   2.0000      -0.468292       -12.7429
  54   2.0000      -0.458302       -12.4710
  55   2.0000      -0.455301       -12.3894
  56   2.0000      -0.449947       -12.2437
  57   2.0000      -0.436691       -11.8830
  58   2.0000      -0.430917       -11.7258
  59   2.0000      -0.427337       -11.6284
  60   2.0000      -0.412507       -11.2249
  61   2.0000      -0.410541       -11.1714
  62   2.0000      -0.407384       -11.0855
  63   2.0000      -0.355684        -9.6786
  64   2.0000      -0.335444        -9.1279
  65   2.0000      -0.321935        -8.7603
  66   2.0000      -0.289528        -7.8785
  67   0.0000       0.025296         0.6884
  68   0.0000       0.083767         2.2794
  69   0.0000       0.100217         2.7270
  70   0.0000       0.119773         3.2592
  71   0.0000       0.129414         3.5215

MULLIKEN ATOMIC CHARGES
-----------------------
   0 S :    0.067871
   1 C :   -0.118594
   2 C :   -0.070373
   3 C :   -0.014042
   4 C :   -0.084193
   5 H :   -0.025057
   6 C :    0.027655
   7 H :    0.018261
   8 H :    0.049039
   9 C :   -0.107717
  10 H :    0.032132
  11 H :    0.033243
  12 C :   -0.009370
  13 H :    0.035132
  14 H :    0.036201
  15 H :    0.028952
  16 S :    0.110343
  17 C :   -0.067258
  18 C :   -0.033805
  19 C :   -0.053328
  20 C :   -0.093117
  21 H :    0.003059
  22 C :    0.020182
  23 H :    0.066509
  24 H :    0.031474
  25 C :   -0.124253
  26 H :    0.046535
  27 H :    0.029693
  28 C :   -0.056080
  29 H :    0.028254
  30 H :    0.047415
  31 H :    0.051449
  32 H :    0.048911
  33 H :    0.044876
Sum of atomic charges:    0.0000000

LOEWDIN ATOMIC CHARGES
----------------------
   0 S :    0.418682
   1 C :   -0.192100
   2 C :   -0.055610
   3 C :   -0.077649
   4 C :   -0.210745
   5 H :    0.017596
   6 C :   -0.039727
   7 H :    0.027655
   8 H :    0.040634
   9 C :   -0.047594
  10 H :    0.027613
  11 H :    0.028310
  12 C :   -0.062107
  13 H :    0.034537
  14 H :    0.029978
  15 H :    0.017620
  16 S :    0.441237
  17 C :   -0.190739
  18 C :   -0.063941
  19 C :   -0.052374
  20 C :   -0.203315
  21 H :    0.023652
  22 C :   -0.034630
  23 H :    0.038625
  24 H :    0.028350
  25 C :   -0.056932
  26 H :    0.026747
  27 H :    0.024432
  28 C :   -0.072175
  29 H :    0.031622
  30 H :    0.027225
  31 H :    0.031852
  32 H :    0.019057
  33 H :    0.024213

  Mayer bond orders larger than 0.100000
B(  0-S ,  1-C ) :   1.1289 B(  0-S ,  4-C ) :   1.1858 B(  1-C ,  2-C ) :   1.5770
B(  1-C , 32-H ) :   0.9773 B(  2-C ,  3-C ) :   1.2707 B(  2-C ,  6-C ) :   1.0259
B(  3-C ,  4-C ) :   1.5241 B(  3-C ,  5-H ) :   0.9977 B(  4-C , 20-C ) :   1.0230
B(  6-C ,  7-H ) :   0.9430 B(  6-C ,  8-H ) :   0.9331 B(  6-C ,  9-C ) :   1.0585
B(  9-C , 10-H ) :   0.9524 B(  9-C , 11-H ) :   0.9560 B(  9-C , 12-C ) :   1.0801
B( 12-C , 13-H ) :   0.9737 B( 12-C , 14-H ) :   0.9705 B( 12-C , 15-H ) :   0.9715
B( 16-S , 17-C ) :   1.1686 B( 16-S , 20-C ) :   1.1667 B( 17-C , 18-C ) :   1.6023
B( 17-C , 33-H ) :   0.9697 B( 18-C , 19-C ) :   1.2494 B( 18-C , 21-H ) :   1.0027
B( 19-C , 20-C ) :   1.5917 B( 19-C , 22-C ) :   1.0371 B( 22-C , 23-H ) :   0.9260
B( 22-C , 24-H ) :   0.9427 B( 22-C , 25-C ) :   1.0497 B( 25-C , 26-H ) :   0.9620
B( 25-C , 27-H ) :   0.9504 B( 25-C , 28-C ) :   1.0702 B( 28-C , 29-H ) :   0.9754
B( 28-C , 30-H ) :   0.9769 B( 28-C , 31-H ) :   0.9718

Dispersion correction           -0.013173237
FINAL SINGLE POINT ENERGY     -1339.861543883755

DIPOLE MOMENT
-------------
                                X             Y             Z
Electronic contribution:      5.46991      -4.48123      29.78646
Nuclear contribution   :     -6.03667       4.89392     -30.27851
                        -----------------------------------------
Total Dipole Moment    :     -0.56676       0.41269      -0.49205
                        -----------------------------------------
Magnitude (a.u.)       :      0.85653
Magnitude (Debye)      :      2.17712

Rotational constants in cm-1:     0.017836     0.008248     0.005852
Rotational constants in MHz :   534.718507   247.259409   175.434427

                             ****ORCA TERMINATED NORMALLY****
TOTAL RUN TIME: 0 days 0 hours 0 minutes 36 seconds 648 msec
