                         Program Version 4.2.1 -  RELEASE  -
|  1> ! wB97X-D3 SP def2-SVP
|  2> %pal
|  3> nprocs 16
|  4> end
|  5>
|  6> * xyz 0 1
|  7> S 	 54.0818 	 4.2124 	 84.3801
|  8> C 	 55.7548 	 4.1412 	 83.9654
|  9> C 	 56.1018 	 3.02459 	 83.1562
| 10> C 	 54.9994 	 2.15349 	 83.125
| 11> C 	 53.8485 	 2.61848 	 83.7643
| 12> H 	 54.8412 	 1.27712 	 82.5412
| 13> C 	 57.4129 	 2.63292 	 82.4689
| 14> H 	 57.7868 	 1.74272 	 83.0133
| 15> H 	 58.1758 	 3.42559 	 82.5969
| 16> C 	 57.2095 	 2.25308 	 80.9697
| 17> H 	 56.6366 	 1.34258 	 81.0279
| 18> H 	 56.5879 	 3.01884 	 80.4954
| 19> C 	 58.4641 	 2.04108 	 80.1238
| 20> H 	 59.1412 	 1.24334 	 80.5321
| 21> H 	 58.3412 	 1.72463 	 79.1189
| 22> H 	 58.977 	 3.04551 	 80.0024
| 23> S 	 52.139 	 1.25117 	 82.1538
| 24> C 	 50.5918 	 0.789221 	 82.8797
| 25> C 	 50.494 	 1.06298 	 84.2189
| 26> C 	 51.6233 	 1.80069 	 84.7315
| 27> C 	 52.5642 	 1.98327 	 83.7383
| 28> H 	 49.6618 	 0.957414 	 84.8405
| 29> C 	 51.7359 	 2.33897 	 86.157
| 30> H 	 50.8348 	 2.06715 	 86.662
| 31> H 	 51.743 	 3.40592 	 86.1262
| 32> C 	 52.8872 	 1.78993 	 86.924
| 33> H 	 53.8304 	 2.16619 	 86.5584
| 34> H 	 52.9261 	 0.682226 	 86.7872
| 35> C 	 52.9977 	 2.20008 	 88.5173
| 36> H 	 53.1731 	 3.26576 	 88.7333
| 37> H 	 53.8977 	 1.76842 	 89.0117
| 38> H 	 52.1085 	 1.95017 	 89.0952
| 39> H 	 56.5531 	 4.85531 	 84.1434
| 40> H 	 49.9114 	 0.220806 	 82.2785
| 41> *
| 42>
| 43>                          ****END OF INPUT****

CARTESIAN COORDINATES (ANGSTROEM)
---------------------------------
  S     54.081800    4.212400   84.380100
  C     55.754800    4.141200   83.965400
  C     56.101800    3.024590   83.156200
  C     54.999400    2.153490   83.125000
  C     53.848500    2.618480   83.764300
  H     54.841200    1.277120   82.541200
  C     57.412900    2.632920   82.468900
  H     57.786800    1.742720   83.013300
  H     58.175800    3.425590   82.596900
  C     57.209500    2.253080   80.969700
  H     56.636600    1.342580   81.027900
  H     56.587900    3.018840   80.495400
  C     58.464100    2.041080   80.123800
  H     59.141200    1.243340   80.532100
  H     58.341200    1.724630   79.118900
  H     58.977000    3.045510   80.002400
  S     52.139000    1.251170   82.153800
  C     50.591800    0.789221   82.879700
  C     50.494000    1.062980   84.218900
  C     51.623300    1.800690   84.731500
  C     52.564200    1.983270   83.738300
  H     49.661800    0.957414   84.840500
  C     51.735900    2.338970   86.157000
  H     50.834800    2.067150   86.662000
  H     51.743000    3.405920   86.126200
  C     52.887200    1.789930   86.924000
  H     53.830400    2.166190   86.558400
  H     52.926100    0.682226   86.787200
  C     52.997700    2.200080   88.517300
  H     53.173100    3.265760   88.733300
  H     53.897700    1.768420   89.011700
  H     52.108500    1.950170   89.095200
  H     56.553100    4.855310   84.143400
  H     49.911400    0.220806   82.278500

 Total Charge           Charge          ....    0
 Multiplicity           Mult            ....    1
 Number of Electrons    NEL             ....  134
 Basis Dimension        Dim             ....  322

ORBITAL ENERGIES
----------------

  NO   OCC          E(Eh)            E(eV)
   0   2.0000     -88.972828     -2421.0737
   1   2.0000     -88.966975     -2420.9145
   2   2.0000     -10.324737      -280.9504
   3   2.0000     -10.321426      -280.8603
   4   2.0000     -10.319852      -280.8174
   5   2.0000     -10.313979      -280.6576
   6   2.0000     -10.303577      -280.3746
   7   2.0000     -10.303563      -280.3742
   8   2.0000     -10.300610      -280.2939
   9   2.0000     -10.294034      -280.1149
  10   2.0000     -10.289219      -279.9839
  11   2.0000     -10.288965      -279.9770
  12   2.0000     -10.288746      -279.9710
  13   2.0000     -10.285601      -279.8854
  14   2.0000     -10.284668      -279.8600
  15   2.0000     -10.284118      -279.8451
  16   2.0000      -8.087347      -220.0679
  17   2.0000      -8.080895      -219.8923
  18   2.0000      -6.045724      -164.5125
  19   2.0000      -6.041943      -164.4096
  20   2.0000      -6.039328      -164.3385
  21   2.0000      -6.038227      -164.3085
  22   2.0000      -6.035789      -164.2422
  23   2.0000      -6.031527      -164.1262
  24   2.0000      -1.008278       -27.4366
  25   2.0000      -0.981519       -26.7085
  26   2.0000      -0.909883       -24.7592
  27   2.0000      -0.905862       -24.6498
  28   2.0000      -0.869598       -23.6630
  29   2.0000      -0.853188       -23.2164
  30   2.0000      -0.840318       -22.8662
  31   2.0000      -0.806819       -21.9547
  32   2.0000      -0.785672       -21.3792
  33   2.0000      -0.772399       -21.0181
  34   2.0000      -0.710846       -19.3431
  35   2.0000      -0.698720       -19.0131
  36   2.0000      -0.687365       -18.7042
  37   2.0000      -0.675275       -18.3752
  38   2.0000      -0.636374       -17.3166
  39   2.0000      -0.615922       -16.7601
  40   2.0000      -0.601933       -16.3794
  41   2.0000      -0.569865       -15.5068
  42   2.0000      -0.565352       -15.3840
  43   2.0000      -0.557189       -15.1619
  44   2.0000      -0.519452       -14.1350
  45   2.0000      -0.516680       -14.0596
  46   2.0000      -0.514347       -13.9961
  47   2.0000      -0.508524       -13.8376
  48   2.0000      -0.501958       -13.6590
  49   2.0000      -0.497959       -13.5501
  50   2.0000      -0.485861       -13.2209
  51   2.0000      -0.477993       -13.0068
  52   2.0000      -0.471519       -12.8307
  53   2.0000      -0.468363       -12.7448
  54   2.0000      -0.457247       -12.4423
  55   2.0000      -0.453392       -12.3374
  56   2.0000      -0.445330       -12.1180
  57   2.0000      -0.438990       -11.9455
  58   2.0000      -0.433408       -11.7936
  59   2.0000      -0.427608       -11.6358
  60   2.0000      -0.424174       -11.5424
  61   2.0000      -0.416914       -11.3448
  62   2.0000      -0.409553       -11.1445
  63   2.0000      -0.345108        -9.3909
  64   2.0000      -0.335764        -9.1366
  65   2.0000      -0.333485        -9.0746
  66   2.0000      -0.284772        -7.7490
  67   0.0000       0.024782         0.6743
  68   0.0000       0.072043         1.9604
  69   0.0000       0.094846         2.5809
  70   0.0000       0.118694         3.2298
  71   0.0000       0.129309         3.5187

MULLIKEN ATOMIC CHARGES
-----------------------
   0 S :    0.136823
   1 C :   -0.112275
   2 C :   -0.093264
   3 C :    0.005718
   4 C :   -0.167481
   5 H :    0.000346
   6 C :    0.066533
   7 H :    0.045929
   8 H :    0.018649
   9 C :   -0.096132
  10 H :    0.033107
  11 H :    0.041331
  12 C :   -0.052849
  13 H :    0.036419
  14 H :    0.028064
  15 H :    0.038635
  16 S :    0.091526
  17 C :   -0.076520
  18 C :    0.020942
  19 C :   -0.094632
  20 C :   -0.141841
  21 H :   -0.004305
  22 C :    0.152601
  23 H :   -0.002227
  24 H :    0.028277
  25 C :   -0.096980
  26 H :    0.042201
  27 H :    0.042040
  28 C :   -0.081279
  29 H :    0.029765
  30 H :    0.039038
  31 H :    0.031361
  32 H :    0.038591
  33 H :    0.051889
Sum of atomic charges:    0.0000000

LOEWDIN ATOMIC CHARGES
----------------------
   0 S :    0.443673
   1 C :   -0.217389
   2 C :   -0.058242
   3 C :   -0.070555
   4 C :   -0.205321
   5 H :    0.016426
   6 C :   -0.029612
   7 H :    0.037842
   8 H :    0.025982
   9 C :   -0.041666
  10 H :    0.021382
  11 H :    0.028694
  12 C :   -0.073054
  13 H :    0.030661
  14 H :    0.022083
  15 H :    0.033180
  16 S :    0.380333
  17 C :   -0.165063
  18 C :   -0.058944
  19 C :   -0.049909
  20 C :   -0.177300
  21 H :    0.022622
  22 C :   -0.030409
  23 H :    0.026408
  24 H :    0.026937
  25 C :   -0.037059
  26 H :    0.020144
  27 H :    0.031122
  28 C :   -0.077861
  29 H :    0.025610
  30 H :    0.031556
  31 H :    0.018971
  32 H :    0.027198
  33 H :    0.021563

  Mayer bond orders larger than 0.100000
B(  0-S ,  1-C ) :   1.1542 B(  0-S ,  4-C ) :   1.1612 B(  1-C ,  2-C ) :   1.5844
B(  1-C ,  4-C ) :   0.1042 B(  1-C , 32-H ) :   0.9617 B(  2-C ,  3-C ) :   1.2596
B(  2-C ,  6-C ) :   1.0275 B(  3-C ,  4-C ) :   1.5532 B(  3-C ,  5-H ) :   0.9889
B(  4-C , 20-C ) :   1.0670 B(  6-C ,  7-H ) :   0.9401 B(  6-C ,  8-H ) :   0.9439
B(  6-C ,  9-C ) :   1.0450 B(  9-C , 10-H ) :   0.9524 B(  9-C , 11-H ) :   0.9618
B(  9-C , 12-C ) :   1.0925 B( 12-C , 13-H ) :   0.9719 B( 12-C , 14-H ) :   0.9737
B( 12-C , 15-H ) :   0.9731 B( 16-S , 17-C ) :   1.1393 B( 16-S , 20-C ) :   1.1223
B( 17-C , 18-C ) :   1.6139 B( 17-C , 33-H ) :   0.9710 B( 18-C , 19-C ) :   1.2361
B( 18-C , 21-H ) :   0.9910 B( 19-C , 20-C ) :   1.6077 B( 19-C , 22-C ) :   1.0369
B( 22-C , 23-H ) :   0.9195 B( 22-C , 24-H ) :   0.9268 B( 22-C , 25-C ) :   1.0635
B( 25-C , 26-H ) :   0.9525 B( 25-C , 27-H ) :   0.9598 B( 25-C , 28-C ) :   1.0627
B( 28-C , 29-H ) :   0.9771 B( 28-C , 30-H ) :   0.9783 B( 28-C , 31-H ) :   0.9797

Dispersion correction           -0.014333223
FINAL SINGLE POINT ENERGY     -1339.874578905624

DIPOLE MOMENT
-------------
                                X             Y             Z
Electronic contribution:    -14.63682       3.48480      -5.57128
Nuclear contribution   :     14.75864      -3.60023       5.58014
                        -----------------------------------------
Total Dipole Moment    :      0.12182      -0.11543       0.00886
                        -----------------------------------------
Magnitude (a.u.)       :      0.16806
Magnitude (Debye)      :      0.42716

Rotational constants in cm-1:     0.019195     0.008632     0.006634
Rotational constants in MHz :   575.445071   258.774752   198.893405

                             ****ORCA TERMINATED NORMALLY****
TOTAL RUN TIME: 0 days 0 hours 0 minutes 29 seconds 566 msec
