                         Program Version 4.2.1 -  RELEASE  -
|  1> ! wB97X-D3 SP def2-SVP
|  2> %pal
|  3> nprocs 16
|  4> end
|  5>
|  6> * xyz 0 1
|  7> S 	 -90.0243 	 39.9934 	 114.742
|  8> C 	 -88.52 	 40.2905 	 113.831
|  9> C 	 -88.3754 	 41.6394 	 113.54
| 10> C 	 -89.539 	 42.3696 	 113.805
| 11> C 	 -90.4639 	 41.7048 	 114.536
| 12> H 	 -89.791 	 43.3499 	 113.59
| 13> C 	 -87.2184 	 42.2662 	 112.729
| 14> H 	 -86.3569 	 41.8861 	 113.203
| 15> H 	 -87.1212 	 43.3373 	 112.947
| 16> C 	 -87.2961 	 42.0523 	 111.225
| 17> H 	 -88.1289 	 42.6431 	 110.947
| 18> H 	 -86.3902 	 42.3779 	 110.718
| 19> C 	 -87.4109 	 40.5372 	 110.75
| 20> H 	 -87.8292 	 40.5626 	 109.719
| 21> H 	 -86.382 	 40.0365 	 110.772
| 22> H 	 -88.1307 	 39.9764 	 111.339
| 23> S 	 -93.109 	 41.4272 	 114.665
| 24> C 	 -94.0965 	 42.6428 	 115.437
| 25> C 	 -93.3129 	 43.6235 	 115.986
| 26> C 	 -91.9358 	 43.4512 	 115.685
| 27> C 	 -91.6872 	 42.258 	 115.037
| 28> H 	 -93.8456 	 44.4585 	 116.421
| 29> C 	 -90.7958 	 44.3617 	 116.145
| 30> H 	 -90.679 	 45.2268 	 115.463
| 31> H 	 -89.9243 	 43.7294 	 115.999
| 32> C 	 -90.9296 	 44.9298 	 117.571
| 33> H 	 -90.781 	 44.1125 	 118.277
| 34> H 	 -91.9499 	 45.2623 	 117.811
| 35> C 	 -89.8066 	 45.9576 	 117.847
| 36> H 	 -88.8354 	 45.5297 	 118.067
| 37> H 	 -90.0666 	 46.5833 	 118.643
| 38> H 	 -89.5866 	 46.6281 	 117.023
| 39> H 	 -87.6543 	 39.6273 	 113.571
| 40> H 	 -95.1417 	 42.6832 	 115.541
| 41> *
| 42>
| 43>                          ****END OF INPUT****

CARTESIAN COORDINATES (ANGSTROEM)
---------------------------------
  S    -90.024300   39.993400  114.742000
  C    -88.520000   40.290500  113.831000
  C    -88.375400   41.639400  113.540000
  C    -89.539000   42.369600  113.805000
  C    -90.463900   41.704800  114.536000
  H    -89.791000   43.349900  113.590000
  C    -87.218400   42.266200  112.729000
  H    -86.356900   41.886100  113.203000
  H    -87.121200   43.337300  112.947000
  C    -87.296100   42.052300  111.225000
  H    -88.128900   42.643100  110.947000
  H    -86.390200   42.377900  110.718000
  C    -87.410900   40.537200  110.750000
  H    -87.829200   40.562600  109.719000
  H    -86.382000   40.036500  110.772000
  H    -88.130700   39.976400  111.339000
  S    -93.109000   41.427200  114.665000
  C    -94.096500   42.642800  115.437000
  C    -93.312900   43.623500  115.986000
  C    -91.935800   43.451200  115.685000
  C    -91.687200   42.258000  115.037000
  H    -93.845600   44.458500  116.421000
  C    -90.795800   44.361700  116.145000
  H    -90.679000   45.226800  115.463000
  H    -89.924300   43.729400  115.999000
  C    -90.929600   44.929800  117.571000
  H    -90.781000   44.112500  118.277000
  H    -91.949900   45.262300  117.811000
  C    -89.806600   45.957600  117.847000
  H    -88.835400   45.529700  118.067000
  H    -90.066600   46.583300  118.643000
  H    -89.586600   46.628100  117.023000
  H    -87.654300   39.627300  113.571000
  H    -95.141700   42.683200  115.541000

 Total Charge           Charge          ....    0
 Multiplicity           Mult            ....    1
 Number of Electrons    NEL             ....  134
 Basis Dimension        Dim             ....  322

ORBITAL ENERGIES
----------------

  NO   OCC          E(Eh)            E(eV)
   0   2.0000     -88.970729     -2421.0166
   1   2.0000     -88.964661     -2420.8515
   2   2.0000     -10.324816      -280.9525
   3   2.0000     -10.320182      -280.8264
   4   2.0000     -10.317092      -280.7423
   5   2.0000     -10.310884      -280.5734
   6   2.0000     -10.300646      -280.2948
   7   2.0000     -10.299501      -280.2637
   8   2.0000     -10.291144      -280.0363
   9   2.0000     -10.289824      -280.0003
  10   2.0000     -10.288986      -279.9775
  11   2.0000     -10.287755      -279.9441
  12   2.0000     -10.286984      -279.9231
  13   2.0000     -10.284755      -279.8624
  14   2.0000     -10.283053      -279.8161
  15   2.0000     -10.271654      -279.5059
  16   2.0000      -8.084141      -219.9807
  17   2.0000      -8.080636      -219.8853
  18   2.0000      -6.042817      -164.4334
  19   2.0000      -6.039052      -164.3310
  20   2.0000      -6.038899      -164.3268
  21   2.0000      -6.034861      -164.2169
  22   2.0000      -6.034730      -164.2134
  23   2.0000      -6.031521      -164.1260
  24   2.0000      -1.015843       -27.6425
  25   2.0000      -0.987149       -26.8617
  26   2.0000      -0.909198       -24.7405
  27   2.0000      -0.905632       -24.6435
  28   2.0000      -0.873046       -23.7568
  29   2.0000      -0.853506       -23.2251
  30   2.0000      -0.843178       -22.9440
  31   2.0000      -0.816077       -22.2066
  32   2.0000      -0.783631       -21.3237
  33   2.0000      -0.773175       -21.0392
  34   2.0000      -0.711687       -19.3660
  35   2.0000      -0.705927       -19.2092
  36   2.0000      -0.695213       -18.9177
  37   2.0000      -0.658905       -17.9297
  38   2.0000      -0.642370       -17.4798
  39   2.0000      -0.621786       -16.9196
  40   2.0000      -0.594928       -16.1888
  41   2.0000      -0.572250       -15.5717
  42   2.0000      -0.559800       -15.2329
  43   2.0000      -0.553017       -15.0484
  44   2.0000      -0.538046       -14.6410
  45   2.0000      -0.529012       -14.3952
  46   2.0000      -0.516648       -14.0587
  47   2.0000      -0.511752       -13.9255
  48   2.0000      -0.502550       -13.6751
  49   2.0000      -0.498151       -13.5554
  50   2.0000      -0.485452       -13.2098
  51   2.0000      -0.477121       -12.9831
  52   2.0000      -0.472758       -12.8644
  53   2.0000      -0.465907       -12.6780
  54   2.0000      -0.462014       -12.5720
  55   2.0000      -0.448406       -12.2017
  56   2.0000      -0.443753       -12.0751
  57   2.0000      -0.438217       -11.9245
  58   2.0000      -0.435678       -11.8554
  59   2.0000      -0.424453       -11.5499
  60   2.0000      -0.417917       -11.3721
  61   2.0000      -0.417856       -11.3704
  62   2.0000      -0.413911       -11.2631
  63   2.0000      -0.351345        -9.5606
  64   2.0000      -0.336148        -9.1471
  65   2.0000      -0.329387        -8.9631
  66   2.0000      -0.292091        -7.9482
  67   0.0000       0.029670         0.8074
  68   0.0000       0.073591         2.0025
  69   0.0000       0.107460         2.9241
  70   0.0000       0.125208         3.4071
  71   0.0000       0.137519         3.7421

MULLIKEN ATOMIC CHARGES
-----------------------
   0 S :    0.117588
   1 C :   -0.128833
   2 C :   -0.112900
   3 C :    0.049240
   4 C :   -0.156458
   5 H :   -0.014331
   6 C :    0.082278
   7 H :    0.006430
   8 H :    0.021461
   9 C :   -0.031899
  10 H :    0.024054
  11 H :    0.036161
  12 C :   -0.108983
  13 H :    0.043471
  14 H :    0.047840
  15 H :    0.045624
  16 S :    0.119211
  17 C :   -0.070993
  18 C :   -0.055288
  19 C :   -0.021800
  20 C :   -0.161986
  21 H :    0.021459
  22 C :    0.047877
  23 H :    0.033000
  24 H :    0.038933
  25 C :   -0.080902
  26 H :    0.031151
  27 H :    0.032833
  28 C :   -0.018916
  29 H :    0.030088
  30 H :    0.019114
  31 H :    0.016738
  32 H :    0.065658
  33 H :    0.033080
Sum of atomic charges:   -0.0000000

LOEWDIN ATOMIC CHARGES
----------------------
   0 S :    0.382884
   1 C :   -0.198808
   2 C :   -0.061153
   3 C :   -0.055608
   4 C :   -0.181662
   5 H :    0.022752
   6 C :   -0.031811
   7 H :    0.020301
   8 H :    0.032652
   9 C :   -0.033201
  10 H :    0.020178
  11 H :    0.027714
  12 C :   -0.075731
  13 H :    0.032287
  14 H :    0.032436
  15 H :    0.020520
  16 S :    0.436577
  17 C :   -0.180471
  18 C :   -0.072640
  19 C :   -0.057724
  20 C :   -0.222909
  21 H :    0.033163
  22 C :   -0.034434
  23 H :    0.029344
  24 H :    0.032044
  25 C :   -0.039294
  26 H :    0.028559
  27 H :    0.023358
  28 C :   -0.062185
  29 H :    0.027499
  30 H :    0.019642
  31 H :    0.022065
  32 H :    0.042245
  33 H :    0.021411

  Mayer bond orders larger than 0.100000
B(  0-S ,  1-C ) :   1.1214 B(  0-S ,  4-C ) :   1.1247 B(  1-C ,  2-C ) :   1.6316
B(  1-C , 32-H ) :   0.9531 B(  2-C ,  3-C ) :   1.2103 B(  2-C ,  6-C ) :   1.0236
B(  3-C ,  4-C ) :   1.5950 B(  3-C ,  5-H ) :   1.0072 B(  4-C , 20-C ) :   1.0406
B(  6-C ,  7-H ) :   0.9331 B(  6-C ,  8-H ) :   0.9429 B(  6-C ,  9-C ) :   1.0644
B(  9-C , 10-H ) :   0.9578 B(  9-C , 11-H ) :   0.9564 B(  9-C , 12-C ) :   1.0703
B( 12-C , 13-H ) :   0.9734 B( 12-C , 14-H ) :   0.9769 B( 12-C , 15-H ) :   0.9721
B( 16-S , 17-C ) :   1.1549 B( 16-S , 20-C ) :   1.1609 B( 17-C , 18-C ) :   1.6221
B( 17-C , 33-H ) :   0.9702 B( 18-C , 19-C ) :   1.2361 B( 18-C , 21-H ) :   0.9892
B( 19-C , 20-C ) :   1.5826 B( 19-C , 22-C ) :   1.0340 B( 22-C , 23-H ) :   0.9303
B( 22-C , 24-H ) :   0.9363 B( 22-C , 25-C ) :   1.0614 B( 25-C , 26-H ) :   0.9533
B( 25-C , 27-H ) :   0.9601 B( 25-C , 28-C ) :   1.0753 B( 28-C , 29-H ) :   0.9756
B( 28-C , 30-H ) :   0.9734 B( 28-C , 31-H ) :   0.9761

Dispersion correction           -0.014149810
FINAL SINGLE POINT ENERGY     -1339.871731603236

DIPOLE MOMENT
-------------
                                X             Y             Z
Electronic contribution:    -17.61831     -16.03609       2.56833
Nuclear contribution   :     17.88987      16.65099      -2.62203
                        -----------------------------------------
Total Dipole Moment    :      0.27156       0.61490      -0.05370
                        -----------------------------------------
Magnitude (a.u.)       :      0.67434
Magnitude (Debye)      :      1.71402

Rotational constants in cm-1:     0.018884     0.008470     0.006685
Rotational constants in MHz :   566.136509   253.935789   200.415003

                             ****ORCA TERMINATED NORMALLY****
TOTAL RUN TIME: 0 days 0 hours 0 minutes 32 seconds 52 msec
