                         Program Version 4.2.1 -  RELEASE  -
|  1> ! wB97X-D3 SP def2-SVP
|  2> %pal
|  3> nprocs 16
|  4> end
|  5>
|  6> * xyz 0 1
|  7> S 	 0.344364 	 -14.144 	 76.607
|  8> C 	 -0.522802 	 -14.0987 	 78.1344
|  9> C 	 0.34742 	 -14.207 	 79.1954
| 10> C 	 1.65227 	 -14.5417 	 78.7248
| 11> C 	 1.81094 	 -14.6197 	 77.3804
| 12> H 	 2.47516 	 -14.5456 	 79.4477
| 13> C 	 0.085687 	 -13.8527 	 80.6811
| 14> H 	 0.869309 	 -13.0652 	 80.8939
| 15> H 	 0.319293 	 -14.699 	 81.2939
| 16> C 	 -1.33198 	 -13.3778 	 81.0666
| 17> H 	 -1.53521 	 -12.4987 	 80.4556
| 18> H 	 -2.09984 	 -14.0392 	 80.7955
| 19> C 	 -1.4317 	 -12.9707 	 82.5757
| 20> H 	 -0.473176 	 -12.4989 	 82.9177
| 21> H 	 -2.25167 	 -12.3427 	 82.7799
| 22> H 	 -1.384 	 -13.9412 	 83.0911
| 23> S 	 3.00435 	 -13.6037 	 75.1761
| 24> C 	 4.65188 	 -14.0418 	 74.753
| 25> C 	 5.17664 	 -14.9813 	 75.5863
| 26> C 	 4.20397 	 -15.3235 	 76.606
| 27> C 	 2.98726 	 -14.642 	 76.5636
| 28> H 	 6.21186 	 -15.2842 	 75.4884
| 29> C 	 4.48664 	 -16.3681 	 77.6368
| 30> H 	 4.96111 	 -17.2282 	 77.1943
| 31> H 	 3.53143 	 -16.8463 	 77.9219
| 32> C 	 5.32771 	 -15.8518 	 78.9398
| 33> H 	 4.76473 	 -15.0709 	 79.3763
| 34> H 	 6.27072 	 -15.5533 	 78.5304
| 35> C 	 5.58292 	 -16.9819 	 79.9598
| 36> H 	 6.635 	 -16.8129 	 80.3276
| 37> H 	 5.54637 	 -17.9216 	 79.5925
| 38> H 	 4.91503 	 -16.9499 	 80.7476
| 39> H 	 -1.52631 	 -13.6457 	 78.2408
| 40> H 	 5.14911 	 -13.8108 	 73.9092
| 41> *
| 42>
| 43>                          ****END OF INPUT****

CARTESIAN COORDINATES (ANGSTROEM)
---------------------------------
  S      0.344364  -14.144000   76.607000
  C     -0.522802  -14.098700   78.134400
  C      0.347420  -14.207000   79.195400
  C      1.652270  -14.541700   78.724800
  C      1.810940  -14.619700   77.380400
  H      2.475160  -14.545600   79.447700
  C      0.085687  -13.852700   80.681100
  H      0.869309  -13.065200   80.893900
  H      0.319293  -14.699000   81.293900
  C     -1.331980  -13.377800   81.066600
  H     -1.535210  -12.498700   80.455600
  H     -2.099840  -14.039200   80.795500
  C     -1.431700  -12.970700   82.575700
  H     -0.473176  -12.498900   82.917700
  H     -2.251670  -12.342700   82.779900
  H     -1.384000  -13.941200   83.091100
  S      3.004350  -13.603700   75.176100
  C      4.651880  -14.041800   74.753000
  C      5.176640  -14.981300   75.586300
  C      4.203970  -15.323500   76.606000
  C      2.987260  -14.642000   76.563600
  H      6.211860  -15.284200   75.488400
  C      4.486640  -16.368100   77.636800
  H      4.961110  -17.228200   77.194300
  H      3.531430  -16.846300   77.921900
  C      5.327710  -15.851800   78.939800
  H      4.764730  -15.070900   79.376300
  H      6.270720  -15.553300   78.530400
  C      5.582920  -16.981900   79.959800
  H      6.635000  -16.812900   80.327600
  H      5.546370  -17.921600   79.592500
  H      4.915030  -16.949900   80.747600
  H     -1.526310  -13.645700   78.240800
  H      5.149110  -13.810800   73.909200

 Total Charge           Charge          ....    0
 Multiplicity           Mult            ....    1
 Number of Electrons    NEL             ....  134
 Basis Dimension        Dim             ....  322

ORBITAL ENERGIES
----------------

  NO   OCC          E(Eh)            E(eV)
   0   2.0000     -88.963425     -2420.8179
   1   2.0000     -88.963076     -2420.8084
   2   2.0000     -10.327787      -281.0334
   3   2.0000     -10.324783      -280.9516
   4   2.0000     -10.314639      -280.6756
   5   2.0000     -10.308008      -280.4952
   6   2.0000     -10.303950      -280.3847
   7   2.0000     -10.302867      -280.3553
   8   2.0000     -10.301800      -280.3262
   9   2.0000     -10.294262      -280.1211
  10   2.0000     -10.293445      -280.0989
  11   2.0000     -10.288387      -279.9612
  12   2.0000     -10.287147      -279.9275
  13   2.0000     -10.286625      -279.9133
  14   2.0000     -10.284939      -279.8674
  15   2.0000     -10.267256      -279.3862
  16   2.0000      -8.078927      -219.8388
  17   2.0000      -8.078175      -219.8183
  18   2.0000      -6.037517      -164.2892
  19   2.0000      -6.036792      -164.2695
  20   2.0000      -6.033477      -164.1792
  21   2.0000      -6.032577      -164.1548
  22   2.0000      -6.029373      -164.0676
  23   2.0000      -6.028839      -164.0531
  24   2.0000      -1.015114       -27.6227
  25   2.0000      -0.986710       -26.8497
  26   2.0000      -0.912208       -24.8224
  27   2.0000      -0.898525       -24.4501
  28   2.0000      -0.876754       -23.8577
  29   2.0000      -0.853451       -23.2236
  30   2.0000      -0.845433       -23.0054
  31   2.0000      -0.820707       -22.3326
  32   2.0000      -0.782340       -21.2885
  33   2.0000      -0.768395       -20.9091
  34   2.0000      -0.716686       -19.5020
  35   2.0000      -0.708752       -19.2861
  36   2.0000      -0.699887       -19.0449
  37   2.0000      -0.667057       -18.1515
  38   2.0000      -0.635844       -17.3022
  39   2.0000      -0.622247       -16.9322
  40   2.0000      -0.591204       -16.0875
  41   2.0000      -0.575335       -15.6557
  42   2.0000      -0.568210       -15.4618
  43   2.0000      -0.566362       -15.4115
  44   2.0000      -0.534869       -14.5545
  45   2.0000      -0.524551       -14.2738
  46   2.0000      -0.519095       -14.1253
  47   2.0000      -0.513632       -13.9766
  48   2.0000      -0.509021       -13.8512
  49   2.0000      -0.498523       -13.5655
  50   2.0000      -0.494652       -13.4602
  51   2.0000      -0.480031       -13.0623
  52   2.0000      -0.473809       -12.8930
  53   2.0000      -0.464458       -12.6385
  54   2.0000      -0.458209       -12.4685
  55   2.0000      -0.455990       -12.4081
  56   2.0000      -0.446208       -12.1419
  57   2.0000      -0.440726       -11.9928
  58   2.0000      -0.429184       -11.6787
  59   2.0000      -0.425367       -11.5748
  60   2.0000      -0.423436       -11.5223
  61   2.0000      -0.419421       -11.4130
  62   2.0000      -0.408632       -11.1194
  63   2.0000      -0.359708        -9.7881
  64   2.0000      -0.331901        -9.0315
  65   2.0000      -0.324932        -8.8418
  66   2.0000      -0.288313        -7.8454
  67   0.0000       0.024388         0.6636
  68   0.0000       0.075979         2.0675
  69   0.0000       0.105935         2.8826
  70   0.0000       0.125489         3.4147
  71   0.0000       0.135697         3.6925

MULLIKEN ATOMIC CHARGES
-----------------------
   0 S :    0.083185
   1 C :   -0.130235
   2 C :   -0.097045
   3 C :    0.000859
   4 C :   -0.079488
   5 H :    0.004033
   6 C :    0.031668
   7 H :    0.050587
   8 H :    0.030671
   9 C :   -0.086776
  10 H :    0.023905
  11 H :    0.030284
  12 C :   -0.031912
  13 H :    0.028644
  14 H :    0.043036
  15 H :    0.033181
  16 S :    0.087009
  17 C :   -0.029028
  18 C :   -0.031613
  19 C :   -0.055484
  20 C :   -0.117754
  21 H :    0.026799
  22 C :    0.010966
  23 H :    0.013114
  24 H :    0.024031
  25 C :   -0.053658
  26 H :    0.025276
  27 H :    0.024598
  28 C :    0.014021
  29 H :    0.032810
  30 H :    0.004112
  31 H :    0.016898
  32 H :    0.063135
  33 H :    0.010169
Sum of atomic charges:    0.0000000

LOEWDIN ATOMIC CHARGES
----------------------
   0 S :    0.407271
   1 C :   -0.205550
   2 C :   -0.061331
   3 C :   -0.065870
   4 C :   -0.192589
   5 H :    0.029846
   6 C :   -0.029279
   7 H :    0.043364
   8 H :    0.026382
   9 C :   -0.041287
  10 H :    0.020733
  11 H :    0.017624
  12 C :   -0.058883
  13 H :    0.029928
  14 H :    0.021913
  15 H :    0.029362
  16 S :    0.401955
  17 C :   -0.162110
  18 C :   -0.064684
  19 C :   -0.059272
  20 C :   -0.201679
  21 H :    0.036545
  22 C :   -0.041851
  23 H :    0.024037
  24 H :    0.029011
  25 C :   -0.019701
  26 H :    0.015361
  27 H :    0.019868
  28 C :   -0.052528
  29 H :    0.036582
  30 H :    0.009515
  31 H :    0.016634
  32 H :    0.033390
  33 H :    0.007292

  Mayer bond orders larger than 0.100000
B(  0-S ,  1-C ) :   1.1271 B(  0-S ,  4-C ) :   1.1397 B(  1-C ,  2-C ) :   1.6363
B(  1-C , 32-H ) :   0.9547 B(  2-C ,  3-C ) :   1.2687 B(  2-C ,  6-C ) :   0.9958
B(  3-C ,  4-C ) :   1.5558 B(  3-C ,  5-H ) :   0.9954 B(  4-C , 20-C ) :   1.0685
B(  6-C ,  7-H ) :   0.9413 B(  6-C ,  8-H ) :   0.9420 B(  6-C ,  9-C ) :   1.0747
B(  9-C , 10-H ) :   0.9521 B(  9-C , 11-H ) :   0.9568 B(  9-C , 12-C ) :   1.0751
B( 12-C , 13-H ) :   0.9763 B( 12-C , 14-H ) :   0.9757 B( 12-C , 15-H ) :   0.9762
B( 16-S , 17-C ) :   1.1485 B( 16-S , 20-C ) :   1.1195 B( 17-C , 18-C ) :   1.6306
B( 17-C , 33-H ) :   0.9733 B( 18-C , 19-C ) :   1.2230 B( 18-C , 21-H ) :   0.9926
B( 19-C , 20-C ) :   1.5982 B( 19-C , 22-C ) :   1.0667 B( 22-C , 23-H ) :   0.9356
B( 22-C , 24-H ) :   0.9374 B( 22-C , 25-C ) :   1.0425 B( 25-C , 26-H ) :   0.9627
B( 25-C , 27-H ) :   0.9650 B( 25-C , 28-C ) :   1.0719 B( 28-C , 29-H ) :   0.9778
B( 28-C , 30-H ) :   0.9744 B( 28-C , 31-H ) :   0.9767

Dispersion correction           -0.013617261
FINAL SINGLE POINT ENERGY     -1339.856500526892

DIPOLE MOMENT
-------------
                                X             Y             Z
Electronic contribution:     -2.62721       5.43121     -29.13071
Nuclear contribution   :      2.91687      -5.43565      29.76935
                        -----------------------------------------
Total Dipole Moment    :      0.28967      -0.00444       0.63864
                        -----------------------------------------
Magnitude (a.u.)       :      0.70127
Magnitude (Debye)      :      1.78250

Rotational constants in cm-1:     0.018869     0.008067     0.005974
Rotational constants in MHz :   565.672617   241.839295   179.081851

                             ****ORCA TERMINATED NORMALLY****
TOTAL RUN TIME: 0 days 0 hours 0 minutes 33 seconds 676 msec
