                         Program Version 4.2.1 -  RELEASE  -
|  1> ! wB97X-D3 SP def2-SVP
|  2> %pal
|  3> nprocs 16
|  4> end
|  5>
|  6> * xyz 0 1
|  7> S 	 2.82204 	 77.8344 	 47.9721
|  8> C 	 2.24731 	 76.81 	 49.3423
|  9> C 	 3.10471 	 76.7731 	 50.4079
| 10> C 	 4.1869 	 77.7051 	 50.1195
| 11> C 	 4.201 	 78.3382 	 48.878
| 12> H 	 5.06419 	 77.912 	 50.7697
| 13> C 	 2.9592 	 75.9291 	 51.6907
| 14> H 	 3.36996 	 74.8743 	 51.4326
| 15> H 	 1.87799 	 75.7415 	 51.9573
| 16> C 	 3.71123 	 76.4049 	 52.9834
| 17> H 	 3.59681 	 75.6342 	 53.773
| 18> H 	 4.75897 	 76.6216 	 52.8473
| 19> C 	 2.88757 	 77.5863 	 53.5557
| 20> H 	 2.87934 	 77.6202 	 54.5996
| 21> H 	 3.31698 	 78.5804 	 53.2517
| 22> H 	 1.88917 	 77.6021 	 53.2075
| 23> S 	 6.64014 	 79.0237 	 47.8341
| 24> C 	 7.0322 	 80.6557 	 47.4688
| 25> C 	 6.03872 	 81.5165 	 47.771
| 26> C 	 4.87808 	 80.8047 	 48.268
| 27> C 	 5.07912 	 79.431 	 48.4057
| 28> H 	 6.0474 	 82.5889 	 47.6783
| 29> C 	 3.54481 	 81.3889 	 48.7066
| 30> H 	 2.68876 	 80.6733 	 48.7812
| 31> H 	 3.3113 	 82.103 	 47.8969
| 32> C 	 3.60947 	 82.2664 	 50.0278
| 33> H 	 2.62069 	 82.7691 	 50.162
| 34> H 	 4.38805 	 82.9834 	 49.937
| 35> C 	 3.86927 	 81.3307 	 51.2198
| 36> H 	 4.78664 	 80.7284 	 51.1204
| 37> H 	 3.0413 	 80.844 	 51.7056
| 38> H 	 4.05619 	 82.0053 	 52.035
| 39> H 	 1.38269 	 76.1194 	 49.3763
| 40> H 	 8.01237 	 80.9981 	 47.1413
| 41> *
| 42>
| 43>                          ****END OF INPUT****

CARTESIAN COORDINATES (ANGSTROEM)
---------------------------------
  S      2.822040   77.834400   47.972100
  C      2.247310   76.810000   49.342300
  C      3.104710   76.773100   50.407900
  C      4.186900   77.705100   50.119500
  C      4.201000   78.338200   48.878000
  H      5.064190   77.912000   50.769700
  C      2.959200   75.929100   51.690700
  H      3.369960   74.874300   51.432600
  H      1.877990   75.741500   51.957300
  C      3.711230   76.404900   52.983400
  H      3.596810   75.634200   53.773000
  H      4.758970   76.621600   52.847300
  C      2.887570   77.586300   53.555700
  H      2.879340   77.620200   54.599600
  H      3.316980   78.580400   53.251700
  H      1.889170   77.602100   53.207500
  S      6.640140   79.023700   47.834100
  C      7.032200   80.655700   47.468800
  C      6.038720   81.516500   47.771000
  C      4.878080   80.804700   48.268000
  C      5.079120   79.431000   48.405700
  H      6.047400   82.588900   47.678300
  C      3.544810   81.388900   48.706600
  H      2.688760   80.673300   48.781200
  H      3.311300   82.103000   47.896900
  C      3.609470   82.266400   50.027800
  H      2.620690   82.769100   50.162000
  H      4.388050   82.983400   49.937000
  C      3.869270   81.330700   51.219800
  H      4.786640   80.728400   51.120400
  H      3.041300   80.844000   51.705600
  H      4.056190   82.005300   52.035000
  H      1.382690   76.119400   49.376300
  H      8.012370   80.998100   47.141300

 Total Charge           Charge          ....    0
 Multiplicity           Mult            ....    1
 Number of Electrons    NEL             ....  134
 Basis Dimension        Dim             ....  322

ORBITAL ENERGIES
----------------

  NO   OCC          E(Eh)            E(eV)
   0   2.0000     -88.968099     -2420.9450
   1   2.0000     -88.962278     -2420.7867
   2   2.0000     -10.329567      -281.0818
   3   2.0000     -10.322643      -280.8934
   4   2.0000     -10.318242      -280.7736
   5   2.0000     -10.314785      -280.6796
   6   2.0000     -10.313327      -280.6399
   7   2.0000     -10.308676      -280.5133
   8   2.0000     -10.303406      -280.3699
   9   2.0000     -10.299626      -280.2671
  10   2.0000     -10.295829      -280.1638
  11   2.0000     -10.294873      -280.1377
  12   2.0000     -10.289626      -279.9950
  13   2.0000     -10.287781      -279.9447
  14   2.0000     -10.271407      -279.4992
  15   2.0000     -10.266690      -279.3708
  16   2.0000      -8.081842      -219.9181
  17   2.0000      -8.078459      -219.8260
  18   2.0000      -6.040486      -164.3700
  19   2.0000      -6.036848      -164.2710
  20   2.0000      -6.036461      -164.2604
  21   2.0000      -6.032623      -164.1560
  22   2.0000      -6.032520      -164.1532
  23   2.0000      -6.029400      -164.0683
  24   2.0000      -1.009023       -27.4569
  25   2.0000      -0.984240       -26.7825
  26   2.0000      -0.908122       -24.7113
  27   2.0000      -0.899657       -24.4809
  28   2.0000      -0.871132       -23.7047
  29   2.0000      -0.846349       -23.0303
  30   2.0000      -0.838869       -22.8268
  31   2.0000      -0.813257       -22.1298
  32   2.0000      -0.780218       -21.2308
  33   2.0000      -0.769848       -20.9486
  34   2.0000      -0.709312       -19.3014
  35   2.0000      -0.697072       -18.9683
  36   2.0000      -0.688585       -18.7373
  37   2.0000      -0.658876       -17.9289
  38   2.0000      -0.634015       -17.2524
  39   2.0000      -0.615037       -16.7360
  40   2.0000      -0.596681       -16.2365
  41   2.0000      -0.572174       -15.5696
  42   2.0000      -0.550736       -14.9863
  43   2.0000      -0.547285       -14.8924
  44   2.0000      -0.541776       -14.7425
  45   2.0000      -0.536102       -14.5881
  46   2.0000      -0.509036       -13.8516
  47   2.0000      -0.505772       -13.7628
  48   2.0000      -0.499934       -13.6039
  49   2.0000      -0.487333       -13.2610
  50   2.0000      -0.485688       -13.2162
  51   2.0000      -0.478881       -13.0310
  52   2.0000      -0.471615       -12.8333
  53   2.0000      -0.464587       -12.6421
  54   2.0000      -0.461838       -12.5672
  55   2.0000      -0.447796       -12.1851
  56   2.0000      -0.442070       -12.0293
  57   2.0000      -0.438159       -11.9229
  58   2.0000      -0.433106       -11.7854
  59   2.0000      -0.425627       -11.5819
  60   2.0000      -0.415130       -11.2963
  61   2.0000      -0.410734       -11.1767
  62   2.0000      -0.406532       -11.0623
  63   2.0000      -0.338013        -9.1978
  64   2.0000      -0.329809        -8.9746
  65   2.0000      -0.323956        -8.8153
  66   2.0000      -0.305929        -8.3248
  67   0.0000       0.044348         1.2068
  68   0.0000       0.064729         1.7614
  69   0.0000       0.115381         3.1397
  70   0.0000       0.120736         3.2854
  71   0.0000       0.127723         3.4755

MULLIKEN ATOMIC CHARGES
-----------------------
   0 S :    0.118781
   1 C :   -0.137950
   2 C :   -0.049760
   3 C :    0.029273
   4 C :   -0.168765
   5 H :    0.017734
   6 C :   -0.014630
   7 H :    0.058064
   8 H :    0.043966
   9 C :   -0.071469
  10 H :    0.037845
  11 H :    0.045147
  12 C :   -0.037158
  13 H :    0.019079
  14 H :    0.034394
  15 H :    0.022057
  16 S :    0.118440
  17 C :   -0.078001
  18 C :   -0.016584
  19 C :   -0.049367
  20 C :   -0.181994
  21 H :    0.015169
  22 C :    0.042102
  23 H :    0.042407
  24 H :    0.022839
  25 C :   -0.060984
  26 H :    0.037012
  27 H :    0.020188
  28 C :   -0.047148
  29 H :    0.046153
  30 H :    0.032636
  31 H :    0.004398
  32 H :    0.048974
  33 H :    0.057150
Sum of atomic charges:   -0.0000000

LOEWDIN ATOMIC CHARGES
----------------------
   0 S :    0.403574
   1 C :   -0.187109
   2 C :   -0.067010
   3 C :   -0.062190
   4 C :   -0.210240
   5 H :    0.031156
   6 C :   -0.038204
   7 H :    0.042972
   8 H :    0.036149
   9 C :   -0.039193
  10 H :    0.032202
  11 H :    0.024080
  12 C :   -0.063143
  13 H :    0.015463
  14 H :    0.031473
  15 H :    0.019934
  16 S :    0.434828
  17 C :   -0.190582
  18 C :   -0.071850
  19 C :   -0.054003
  20 C :   -0.223753
  21 H :    0.031978
  22 C :   -0.039125
  23 H :    0.030931
  24 H :    0.028664
  25 C :   -0.029957
  26 H :    0.030399
  27 H :    0.015392
  28 C :   -0.077231
  29 H :    0.029159
  30 H :    0.025834
  31 H :    0.023281
  32 H :    0.033940
  33 H :    0.032182

  Mayer bond orders larger than 0.100000
B(  0-S ,  1-C ) :   1.1308 B(  0-S ,  4-C ) :   1.1376 B(  1-C ,  2-C ) :   1.6528
B(  1-C , 32-H ) :   0.9576 B(  2-C ,  3-C ) :   1.2186 B(  2-C ,  6-C ) :   0.9992
B(  3-C ,  4-C ) :   1.6301 B(  3-C ,  5-H ) :   0.9773 B(  4-C , 20-C ) :   0.9829
B(  6-C ,  7-H ) :   0.9362 B(  6-C ,  8-H ) :   0.9516 B(  6-C ,  9-C ) :   1.0851
B(  9-C , 10-H ) :   0.9587 B(  9-C , 11-H ) :   0.9561 B(  9-C , 12-C ) :   1.0606
B( 12-C , 13-H ) :   0.9781 B( 12-C , 14-H ) :   0.9735 B( 12-C , 15-H ) :   0.9788
B( 16-S , 17-C ) :   1.1693 B( 16-S , 20-C ) :   1.1593 B( 17-C , 18-C ) :   1.5947
B( 17-C , 33-H ) :   0.9646 B( 18-C , 19-C ) :   1.2498 B( 18-C , 21-H ) :   0.9942
B( 19-C , 20-C ) :   1.5944 B( 19-C , 22-C ) :   1.0411 B( 22-C , 23-H ) :   0.9403
B( 22-C , 24-H ) :   0.9295 B( 22-C , 25-C ) :   1.0715 B( 25-C , 26-H ) :   0.9547
B( 25-C , 27-H ) :   0.9598 B( 25-C , 28-C ) :   1.0823 B( 28-C , 29-H ) :   0.9736
B( 28-C , 30-H ) :   0.9708 B( 28-C , 31-H ) :   0.9635

Dispersion correction           -0.016072719
FINAL SINGLE POINT ENERGY     -1339.872370520642

DIPOLE MOMENT
-------------
                                X             Y             Z
Electronic contribution:      8.47288      -5.39085     -24.84809
Nuclear contribution   :     -8.55698       5.56334      25.47237
                        -----------------------------------------
Total Dipole Moment    :     -0.08410       0.17249       0.62428
                        -----------------------------------------
Magnitude (a.u.)       :      0.65311
Magnitude (Debye)      :      1.66008

Rotational constants in cm-1:     0.019398     0.009223     0.008133
Rotational constants in MHz :   581.536387   276.489578   243.831330

                             ****ORCA TERMINATED NORMALLY****
TOTAL RUN TIME: 0 days 0 hours 0 minutes 35 seconds 819 msec
