                         Program Version 4.2.1 -  RELEASE  -
|  1> ! wB97X-D3 SP def2-SVP
|  2> %pal
|  3> nprocs 16
|  4> end
|  5>
|  6> * xyz 0 1
|  7> S 	 56.124 	 13.874 	 77.7017
|  8> C 	 57.0989 	 15.2431 	 77.3105
|  9> C 	 58.3604 	 14.8697 	 76.8868
| 10> C 	 58.677 	 13.499 	 77.1395
| 11> C 	 57.5643 	 12.8089 	 77.5223
| 12> H 	 59.6406 	 13.0419 	 77.1809
| 13> C 	 59.3684 	 15.8569 	 76.3329
| 14> H 	 58.8572 	 16.7196 	 76.0511
| 15> H 	 59.7013 	 15.4263 	 75.4056
| 16> C 	 60.5695 	 16.1255 	 77.1968
| 17> H 	 60.9723 	 15.1613 	 77.4645
| 18> H 	 61.3488 	 16.6758 	 76.7777
| 19> C 	 60.2697 	 17.0449 	 78.379
| 20> H 	 59.7152 	 16.5404 	 79.1311
| 21> H 	 61.2147 	 17.3959 	 78.8656
| 22> H 	 59.6986 	 17.9104 	 78.0815
| 23> S 	 57.0596 	 11.0056 	 79.5537
| 24> C 	 57.1295 	 9.25053 	 79.2464
| 25> C 	 57.5896 	 8.98933 	 77.9749
| 26> C 	 57.8661 	 10.228 	 77.2497
| 27> C 	 57.5035 	 11.3862 	 77.9491
| 28> H 	 57.7124 	 7.92643 	 77.6504
| 29> C 	 58.2933 	 10.0739 	 75.7983
| 30> H 	 58.9974 	 9.20768 	 75.6547
| 31> H 	 58.9082 	 10.9343 	 75.5627
| 32> C 	 57.2888 	 9.74603 	 74.7006
| 33> H 	 56.4684 	 10.4252 	 74.7763
| 34> H 	 56.841 	 8.75672 	 74.9648
| 35> C 	 57.9956 	 9.64322 	 73.3913
| 36> H 	 58.7152 	 10.434 	 73.1849
| 37> H 	 57.3493 	 9.71147 	 72.5004
| 38> H 	 58.5434 	 8.65088 	 73.2966
| 39> H 	 56.7621 	 16.2713 	 77.2507
| 40> H 	 56.8652 	 8.4105 	 79.8573
| 41> *
| 42>
| 43>                          ****END OF INPUT****

CARTESIAN COORDINATES (ANGSTROEM)
---------------------------------
  S     56.124000   13.874000   77.701700
  C     57.098900   15.243100   77.310500
  C     58.360400   14.869700   76.886800
  C     58.677000   13.499000   77.139500
  C     57.564300   12.808900   77.522300
  H     59.640600   13.041900   77.180900
  C     59.368400   15.856900   76.332900
  H     58.857200   16.719600   76.051100
  H     59.701300   15.426300   75.405600
  C     60.569500   16.125500   77.196800
  H     60.972300   15.161300   77.464500
  H     61.348800   16.675800   76.777700
  C     60.269700   17.044900   78.379000
  H     59.715200   16.540400   79.131100
  H     61.214700   17.395900   78.865600
  H     59.698600   17.910400   78.081500
  S     57.059600   11.005600   79.553700
  C     57.129500    9.250530   79.246400
  C     57.589600    8.989330   77.974900
  C     57.866100   10.228000   77.249700
  C     57.503500   11.386200   77.949100
  H     57.712400    7.926430   77.650400
  C     58.293300   10.073900   75.798300
  H     58.997400    9.207680   75.654700
  H     58.908200   10.934300   75.562700
  C     57.288800    9.746030   74.700600
  H     56.468400   10.425200   74.776300
  H     56.841000    8.756720   74.964800
  C     57.995600    9.643220   73.391300
  H     58.715200   10.434000   73.184900
  H     57.349300    9.711470   72.500400
  H     58.543400    8.650880   73.296600
  H     56.762100   16.271300   77.250700
  H     56.865200    8.410500   79.857300

 Total Charge           Charge          ....    0
 Multiplicity           Mult            ....    1
 Number of Electrons    NEL             ....  134
 Basis Dimension        Dim             ....  322

ORBITAL ENERGIES
----------------

  NO   OCC          E(Eh)            E(eV)
   0   2.0000     -88.967753     -2420.9356
   1   2.0000     -88.966971     -2420.9144
   2   2.0000     -10.334337      -281.2116
   3   2.0000     -10.328701      -281.0582
   4   2.0000     -10.316503      -280.7263
   5   2.0000     -10.313405      -280.6420
   6   2.0000     -10.306413      -280.4518
   7   2.0000     -10.300207      -280.2829
   8   2.0000     -10.297927      -280.2208
   9   2.0000     -10.295427      -280.1528
  10   2.0000     -10.287523      -279.9377
  11   2.0000     -10.282262      -279.7946
  12   2.0000     -10.282257      -279.7944
  13   2.0000     -10.281238      -279.7667
  14   2.0000     -10.277325      -279.6602
  15   2.0000     -10.271751      -279.5086
  16   2.0000      -8.082154      -219.9266
  17   2.0000      -8.081663      -219.9132
  18   2.0000      -6.040717      -164.3763
  19   2.0000      -6.040306      -164.3651
  20   2.0000      -6.036817      -164.2701
  21   2.0000      -6.036105      -164.2508
  22   2.0000      -6.032756      -164.1596
  23   2.0000      -6.032327      -164.1480
  24   2.0000      -1.005460       -27.3600
  25   2.0000      -0.984113       -26.7791
  26   2.0000      -0.916947       -24.9514
  27   2.0000      -0.911093       -24.7921
  28   2.0000      -0.869691       -23.6655
  29   2.0000      -0.852647       -23.2017
  30   2.0000      -0.845538       -23.0083
  31   2.0000      -0.820572       -22.3289
  32   2.0000      -0.781119       -21.2553
  33   2.0000      -0.766360       -20.8537
  34   2.0000      -0.711177       -19.3521
  35   2.0000      -0.697881       -18.9903
  36   2.0000      -0.691383       -18.8135
  37   2.0000      -0.657134       -17.8815
  38   2.0000      -0.644947       -17.5499
  39   2.0000      -0.626264       -17.0415
  40   2.0000      -0.593321       -16.1451
  41   2.0000      -0.571385       -15.5482
  42   2.0000      -0.563844       -15.3430
  43   2.0000      -0.554000       -15.0751
  44   2.0000      -0.550781       -14.9875
  45   2.0000      -0.521502       -14.1908
  46   2.0000      -0.514956       -14.0127
  47   2.0000      -0.511261       -13.9121
  48   2.0000      -0.502166       -13.6646
  49   2.0000      -0.501204       -13.6384
  50   2.0000      -0.488435       -13.2910
  51   2.0000      -0.478392       -13.0177
  52   2.0000      -0.474125       -12.9016
  53   2.0000      -0.464170       -12.6307
  54   2.0000      -0.461533       -12.5589
  55   2.0000      -0.446322       -12.1450
  56   2.0000      -0.440349       -11.9825
  57   2.0000      -0.436078       -11.8663
  58   2.0000      -0.435461       -11.8495
  59   2.0000      -0.429815       -11.6959
  60   2.0000      -0.422548       -11.4981
  61   2.0000      -0.409064       -11.1312
  62   2.0000      -0.406182       -11.0528
  63   2.0000      -0.349610        -9.5134
  64   2.0000      -0.329987        -8.9794
  65   2.0000      -0.325989        -8.8706
  66   2.0000      -0.297921        -8.1068
  67   0.0000       0.031992         0.8706
  68   0.0000       0.071571         1.9475
  69   0.0000       0.112815         3.0698
  70   0.0000       0.115049         3.1306
  71   0.0000       0.131106         3.5676

MULLIKEN ATOMIC CHARGES
-----------------------
   0 S :    0.113046
   1 C :   -0.109246
   2 C :   -0.122605
   3 C :    0.049319
   4 C :   -0.168303
   5 H :    0.024779
   6 C :    0.125897
   7 H :   -0.010827
   8 H :    0.020893
   9 C :   -0.031868
  10 H :    0.016480
  11 H :    0.014592
  12 C :   -0.056777
  13 H :    0.028471
  14 H :    0.034153
  15 H :    0.021515
  16 S :    0.118273
  17 C :   -0.086831
  18 C :   -0.054785
  19 C :   -0.024777
  20 C :   -0.146443
  21 H :    0.041767
  22 C :    0.015359
  23 H :    0.016442
  24 H :    0.008164
  25 C :   -0.016617
  26 H :    0.024473
  27 H :    0.023065
  28 C :   -0.065674
  29 H :    0.028939
  30 H :    0.033811
  31 H :    0.040033
  32 H :    0.047734
  33 H :    0.047548
Sum of atomic charges:    0.0000000

LOEWDIN ATOMIC CHARGES
----------------------
   0 S :    0.392309
   1 C :   -0.201783
   2 C :   -0.059917
   3 C :   -0.053469
   4 C :   -0.172436
   5 H :    0.034194
   6 C :   -0.023893
   7 H :    0.017496
   8 H :    0.032504
   9 C :   -0.036139
  10 H :    0.021398
  11 H :    0.018813
  12 C :   -0.060114
  13 H :    0.018192
  14 H :    0.029888
  15 H :    0.021556
  16 S :    0.414634
  17 C :   -0.181901
  18 C :   -0.071602
  19 C :   -0.058335
  20 C :   -0.218331
  21 H :    0.041912
  22 C :   -0.041563
  23 H :    0.033289
  24 H :    0.021382
  25 C :   -0.040485
  26 H :    0.019182
  27 H :    0.028044
  28 C :   -0.071884
  29 H :    0.024341
  30 H :    0.029437
  31 H :    0.033962
  32 H :    0.029646
  33 H :    0.029672

  Mayer bond orders larger than 0.100000
B(  0-S ,  1-C ) :   1.1301 B(  0-S ,  4-C ) :   1.1387 B(  1-C ,  2-C ) :   1.6358
B(  1-C , 32-H ) :   0.9653 B(  2-C ,  3-C ) :   1.2011 B(  2-C ,  6-C ) :   1.0299
B(  3-C ,  4-C ) :   1.6253 B(  3-C ,  5-H ) :   0.9888 B(  4-C , 20-C ) :   1.0127
B(  6-C ,  7-H ) :   0.9367 B(  6-C ,  8-H ) :   0.9285 B(  6-C ,  9-C ) :   1.0791
B(  9-C , 10-H ) :   0.9540 B(  9-C , 11-H ) :   0.9560 B(  9-C , 12-C ) :   1.0691
B( 12-C , 13-H ) :   0.9784 B( 12-C , 14-H ) :   0.9770 B( 12-C , 15-H ) :   0.9734
B( 16-S , 17-C ) :   1.1377 B( 16-S , 20-C ) :   1.1488 B( 17-C , 18-C ) :   1.6430
B( 17-C , 33-H ) :   0.9659 B( 18-C , 19-C ) :   1.2216 B( 18-C , 21-H ) :   0.9810
B( 19-C , 20-C ) :   1.5949 B( 19-C , 22-C ) :   1.0540 B( 22-C , 23-H ) :   0.9391
B( 22-C , 24-H ) :   0.9309 B( 22-C , 25-C ) :   1.0594 B( 25-C , 26-H ) :   0.9549
B( 25-C , 27-H ) :   0.9504 B( 25-C , 28-C ) :   1.0760 B( 28-C , 29-H ) :   0.9752
B( 28-C , 30-H ) :   0.9717 B( 28-C , 31-H ) :   0.9718

Dispersion correction           -0.013936112
FINAL SINGLE POINT ENERGY     -1339.872817570197

DIPOLE MOMENT
-------------
                                X             Y             Z
Electronic contribution:    -15.29342      -4.48136      16.69305
Nuclear contribution   :     15.72134       4.45649     -17.10806
                        -----------------------------------------
Total Dipole Moment    :      0.42792      -0.02487      -0.41501
                        -----------------------------------------
Magnitude (a.u.)       :      0.59663
Magnitude (Debye)      :      1.51652

Rotational constants in cm-1:     0.018351     0.008220     0.006827
Rotational constants in MHz :   550.152526   246.435000   204.667159

                             ****ORCA TERMINATED NORMALLY****
TOTAL RUN TIME: 0 days 0 hours 0 minutes 29 seconds 642 msec
