                         Program Version 4.2.1 -  RELEASE  -
|  1> ! wB97X-D3 SP def2-SVP
|  2> %pal
|  3> nprocs 16
|  4> end
|  5>
|  6> * xyz 0 1
|  7> S 	 -54.1611 	 28.3799 	 94.2767
|  8> C 	 -52.3921 	 28.1432 	 94.2634
|  9> C 	 -51.9954 	 27.8936 	 92.935
| 10> C 	 -53.0403 	 28.1 	 91.9517
| 11> C 	 -54.2249 	 28.5162 	 92.5527
| 12> H 	 -52.9024 	 28.1017 	 90.8718
| 13> C 	 -50.56 	 27.5625 	 92.5615
| 14> H 	 -49.9713 	 27.8012 	 93.469
| 15> H 	 -50.1994 	 28.2861 	 91.8027
| 16> C 	 -50.3149 	 26.1457 	 92.0711
| 17> H 	 -51.0976 	 26.0042 	 91.2893
| 18> H 	 -49.3729 	 26.0254 	 91.5992
| 19> C 	 -50.521 	 24.9835 	 93.0839
| 20> H 	 -50.1427 	 24.0178 	 92.7281
| 21> H 	 -49.9056 	 25.1495 	 93.9575
| 22> H 	 -51.5717 	 24.9039 	 93.4062
| 23> S 	 -56.1 	 30.4623 	 92.3562
| 24> C 	 -57.1933 	 30.4343 	 90.9825
| 25> C 	 -57.1168 	 29.2143 	 90.3117
| 26> C 	 -56.0982 	 28.3375 	 90.7974
| 27> C 	 -55.4074 	 28.9285 	 91.8278
| 28> H 	 -57.6984 	 29.1194 	 89.4575
| 29> C 	 -55.8346 	 26.9567 	 90.2408
| 30> H 	 -55.6807 	 26.3448 	 91.0731
| 31> H 	 -54.9137 	 27.0415 	 89.621
| 32> C 	 -56.9815 	 26.3424 	 89.4399
| 33> H 	 -57.0486 	 26.9672 	 88.5093
| 34> H 	 -57.9393 	 26.2663 	 89.9832
| 35> C 	 -56.4196 	 24.9489 	 89.029
| 36> H 	 -56.1994 	 24.2761 	 89.8989
| 37> H 	 -55.4869 	 25.0746 	 88.4254
| 38> H 	 -57.2085 	 24.4637 	 88.4864
| 39> H 	 -51.7488 	 28.2395 	 95.1435
| 40> H 	 -57.7444 	 31.2842 	 90.634
| 41> *
| 42>
| 43>                          ****END OF INPUT****

CARTESIAN COORDINATES (ANGSTROEM)
---------------------------------
  S    -54.161100   28.379900   94.276700
  C    -52.392100   28.143200   94.263400
  C    -51.995400   27.893600   92.935000
  C    -53.040300   28.100000   91.951700
  C    -54.224900   28.516200   92.552700
  H    -52.902400   28.101700   90.871800
  C    -50.560000   27.562500   92.561500
  H    -49.971300   27.801200   93.469000
  H    -50.199400   28.286100   91.802700
  C    -50.314900   26.145700   92.071100
  H    -51.097600   26.004200   91.289300
  H    -49.372900   26.025400   91.599200
  C    -50.521000   24.983500   93.083900
  H    -50.142700   24.017800   92.728100
  H    -49.905600   25.149500   93.957500
  H    -51.571700   24.903900   93.406200
  S    -56.100000   30.462300   92.356200
  C    -57.193300   30.434300   90.982500
  C    -57.116800   29.214300   90.311700
  C    -56.098200   28.337500   90.797400
  C    -55.407400   28.928500   91.827800
  H    -57.698400   29.119400   89.457500
  C    -55.834600   26.956700   90.240800
  H    -55.680700   26.344800   91.073100
  H    -54.913700   27.041500   89.621000
  C    -56.981500   26.342400   89.439900
  H    -57.048600   26.967200   88.509300
  H    -57.939300   26.266300   89.983200
  C    -56.419600   24.948900   89.029000
  H    -56.199400   24.276100   89.898900
  H    -55.486900   25.074600   88.425400
  H    -57.208500   24.463700   88.486400
  H    -51.748800   28.239500   95.143500
  H    -57.744400   31.284200   90.634000

 Total Charge           Charge          ....    0
 Multiplicity           Mult            ....    1
 Number of Electrons    NEL             ....  134
 Basis Dimension        Dim             ....  322

ORBITAL ENERGIES
----------------

  NO   OCC          E(Eh)            E(eV)
   0   2.0000     -88.964871     -2420.8572
   1   2.0000     -88.963657     -2420.8242
   2   2.0000     -10.328091      -281.0416
   3   2.0000     -10.321624      -280.8657
   4   2.0000     -10.318386      -280.7776
   5   2.0000     -10.316530      -280.7270
   6   2.0000     -10.306316      -280.4491
   7   2.0000     -10.301449      -280.3167
   8   2.0000     -10.295790      -280.1627
   9   2.0000     -10.295086      -280.1435
  10   2.0000     -10.293332      -280.0958
  11   2.0000     -10.289837      -280.0007
  12   2.0000     -10.289031      -279.9788
  13   2.0000     -10.286164      -279.9008
  14   2.0000     -10.284545      -279.8567
  15   2.0000     -10.275934      -279.6224
  16   2.0000      -8.079370      -219.8508
  17   2.0000      -8.078240      -219.8201
  18   2.0000      -6.037964      -164.3013
  19   2.0000      -6.036684      -164.2665
  20   2.0000      -6.033965      -164.1925
  21   2.0000      -6.032758      -164.1597
  22   2.0000      -6.030013      -164.0850
  23   2.0000      -6.029089      -164.0599
  24   2.0000      -1.004809       -27.3423
  25   2.0000      -0.978838       -26.6355
  26   2.0000      -0.914655       -24.8890
  27   2.0000      -0.908418       -24.7193
  28   2.0000      -0.865731       -23.5577
  29   2.0000      -0.850937       -23.1552
  30   2.0000      -0.839953       -22.8563
  31   2.0000      -0.811388       -22.0790
  32   2.0000      -0.780332       -21.2339
  33   2.0000      -0.769760       -20.9462
  34   2.0000      -0.707128       -19.2419
  35   2.0000      -0.701224       -19.0813
  36   2.0000      -0.691199       -18.8085
  37   2.0000      -0.654926       -17.8214
  38   2.0000      -0.637413       -17.3449
  39   2.0000      -0.617621       -16.8063
  40   2.0000      -0.597099       -16.2479
  41   2.0000      -0.582247       -15.8437
  42   2.0000      -0.565994       -15.4015
  43   2.0000      -0.548160       -14.9162
  44   2.0000      -0.538840       -14.6626
  45   2.0000      -0.526508       -14.3270
  46   2.0000      -0.517097       -14.0709
  47   2.0000      -0.513079       -13.9616
  48   2.0000      -0.501012       -13.6332
  49   2.0000      -0.495212       -13.4754
  50   2.0000      -0.484980       -13.1970
  51   2.0000      -0.476996       -12.9797
  52   2.0000      -0.469403       -12.7731
  53   2.0000      -0.464705       -12.6453
  54   2.0000      -0.456767       -12.4293
  55   2.0000      -0.448697       -12.2097
  56   2.0000      -0.448310       -12.1991
  57   2.0000      -0.441625       -12.0172
  58   2.0000      -0.435145       -11.8409
  59   2.0000      -0.426932       -11.6174
  60   2.0000      -0.416594       -11.3361
  61   2.0000      -0.412674       -11.2294
  62   2.0000      -0.409693       -11.1483
  63   2.0000      -0.341592        -9.2952
  64   2.0000      -0.331215        -9.0128
  65   2.0000      -0.327189        -8.9033
  66   2.0000      -0.289957        -7.8901
  67   0.0000       0.027567         0.7501
  68   0.0000       0.066773         1.8170
  69   0.0000       0.110944         3.0189
  70   0.0000       0.119557         3.2533
  71   0.0000       0.131512         3.5786

MULLIKEN ATOMIC CHARGES
-----------------------
   0 S :    0.106856
   1 C :   -0.141498
   2 C :   -0.098113
   3 C :    0.021277
   4 C :   -0.143603
   5 H :    0.021387
   6 C :    0.057289
   7 H :    0.015033
   8 H :    0.038004
   9 C :   -0.062033
  10 H :    0.023817
  11 H :    0.025722
  12 C :   -0.053135
  13 H :    0.031217
  14 H :    0.016831
  15 H :    0.048038
  16 S :    0.108239
  17 C :   -0.086739
  18 C :   -0.032190
  19 C :   -0.006855
  20 C :   -0.182920
  21 H :   -0.006286
  22 C :    0.076670
  23 H :    0.022250
  24 H :    0.041752
  25 C :   -0.117927
  26 H :    0.041122
  27 H :    0.052961
  28 C :   -0.042973
  29 H :    0.039291
  30 H :    0.039678
  31 H :    0.029381
  32 H :    0.063880
  33 H :    0.053576
Sum of atomic charges:   -0.0000000

LOEWDIN ATOMIC CHARGES
----------------------
   0 S :    0.394338
   1 C :   -0.199738
   2 C :   -0.056131
   3 C :   -0.070366
   4 C :   -0.195116
   5 H :    0.032850
   6 C :   -0.036757
   7 H :    0.027497
   8 H :    0.035802
   9 C :   -0.041573
  10 H :    0.026334
  11 H :    0.019653
  12 C :   -0.067088
  13 H :    0.027269
  14 H :    0.019603
  15 H :    0.030116
  16 S :    0.398478
  17 C :   -0.176732
  18 C :   -0.065677
  19 C :   -0.052831
  20 C :   -0.197661
  21 H :    0.018841
  22 C :   -0.029474
  23 H :    0.026007
  24 H :    0.038359
  25 C :   -0.040980
  26 H :    0.029309
  27 H :    0.031005
  28 C :   -0.065873
  29 H :    0.029649
  30 H :    0.030656
  31 H :    0.020364
  32 H :    0.033512
  33 H :    0.026353

  Mayer bond orders larger than 0.100000
B(  0-S ,  1-C ) :   1.1141 B(  0-S ,  4-C ) :   1.1650 B(  1-C ,  2-C ) :   1.6019
B(  1-C , 32-H ) :   0.9704 B(  2-C ,  3-C ) :   1.2270 B(  2-C ,  6-C ) :   1.0302
B(  3-C ,  4-C ) :   1.5617 B(  3-C ,  5-H ) :   0.9930 B(  4-C , 20-C ) :   1.0521
B(  6-C ,  7-H ) :   0.9427 B(  6-C ,  8-H ) :   0.9412 B(  6-C ,  9-C ) :   1.0648
B(  9-C , 10-H ) :   0.9570 B(  9-C , 11-H ) :   0.9574 B(  9-C , 12-C ) :   1.0726
B( 12-C , 13-H ) :   0.9751 B( 12-C , 14-H ) :   0.9753 B( 12-C , 15-H ) :   0.9764
B( 16-S , 17-C ) :   1.1550 B( 16-S , 20-C ) :   1.1347 B( 17-C , 18-C ) :   1.6082
B( 17-C , 20-C ) :   0.1009 B( 17-C , 33-H ) :   0.9678 B( 18-C , 19-C ) :   1.2218
B( 18-C , 21-H ) :   0.9989 B( 19-C , 20-C ) :   1.6102 B( 19-C , 22-C ) :   1.0142
B( 22-C , 23-H ) :   0.9315 B( 22-C , 24-H ) :   0.9267 B( 22-C , 25-C ) :   1.0938
B( 25-C , 26-H ) :   0.9424 B( 25-C , 27-H ) :   0.9564 B( 25-C , 28-C ) :   1.0831
B( 28-C , 29-H ) :   0.9742 B( 28-C , 30-H ) :   0.9723 B( 28-C , 31-H ) :   0.9727

Dispersion correction           -0.013977573
FINAL SINGLE POINT ENERGY     -1339.881242125363

DIPOLE MOMENT
-------------
                                X             Y             Z
Electronic contribution:    -10.92292      22.90705      13.95998
Nuclear contribution   :     11.13044     -23.21367     -14.56190
                        -----------------------------------------
Total Dipole Moment    :      0.20752      -0.30662      -0.60192
                        -----------------------------------------
Magnitude (a.u.)       :      0.70668
Magnitude (Debye)      :      1.79623

Rotational constants in cm-1:     0.017310     0.009034     0.006558
Rotational constants in MHz :   518.947741   270.830193   196.590370

                             ****ORCA TERMINATED NORMALLY****
TOTAL RUN TIME: 0 days 0 hours 0 minutes 28 seconds 139 msec
