                         Program Version 4.2.1 -  RELEASE  -
|  1> ! wB97X-D3 SP def2-SVP
|  2> %pal
|  3> nprocs 16
|  4> end
|  5>
|  6> * xyz 0 1
|  7> S 	 -68.6336 	 40.6438 	 137.187
|  8> C 	 -67.1642 	 41.5852 	 137.326
|  9> C 	 -66.1621 	 41.0087 	 138.082
| 10> C 	 -66.5635 	 39.6848 	 138.589
| 11> C 	 -67.8897 	 39.3699 	 138.277
| 12> H 	 -65.9668 	 38.9202 	 139.118
| 13> C 	 -64.8455 	 41.7044 	 138.446
| 14> H 	 -64.4877 	 42.4548 	 137.757
| 15> H 	 -64.1576 	 40.8596 	 138.465
| 16> C 	 -64.8324 	 42.4436 	 139.836
| 17> H 	 -63.9249 	 43.0522 	 139.951
| 18> H 	 -65.8226 	 43.0556 	 139.926
| 19> C 	 -64.672 	 41.4361 	 141.02
| 20> H 	 -63.6422 	 41.0151 	 140.92
| 21> H 	 -64.8014 	 41.911 	 141.981
| 22> H 	 -65.4323 	 40.6124 	 140.896
| 23> S 	 -68.6401 	 37.9313 	 140.49
| 24> C 	 -69.8986 	 36.7286 	 140.299
| 25> C 	 -70.2362 	 36.5018 	 138.978
| 26> C 	 -69.5196 	 37.2791 	 138.067
| 27> C 	 -68.7015 	 38.2205 	 138.702
| 28> H 	 -70.9351 	 35.7669 	 138.732
| 29> C 	 -69.7041 	 37.113 	 136.588
| 30> H 	 -69.5713 	 38.0794 	 136.039
| 31> H 	 -70.7835 	 36.9271 	 136.497
| 32> C 	 -68.8008 	 36.0838 	 135.881
| 33> H 	 -67.857 	 36.5185 	 135.727
| 34> H 	 -69.2295 	 35.8152 	 134.939
| 35> C 	 -68.6087 	 34.8856 	 136.737
| 36> H 	 -67.9771 	 34.9356 	 137.562
| 37> H 	 -68.1248 	 34.0656 	 136.223
| 38> H 	 -69.5521 	 34.4555 	 137.138
| 39> H 	 -66.9956 	 42.5719 	 136.901
| 40> H 	 -70.419 	 36.1999 	 141.08
| 41> *
| 42>
| 43>                          ****END OF INPUT****

CARTESIAN COORDINATES (ANGSTROEM)
---------------------------------
  S    -68.633600   40.643800  137.187000
  C    -67.164200   41.585200  137.326000
  C    -66.162100   41.008700  138.082000
  C    -66.563500   39.684800  138.589000
  C    -67.889700   39.369900  138.277000
  H    -65.966800   38.920200  139.118000
  C    -64.845500   41.704400  138.446000
  H    -64.487700   42.454800  137.757000
  H    -64.157600   40.859600  138.465000
  C    -64.832400   42.443600  139.836000
  H    -63.924900   43.052200  139.951000
  H    -65.822600   43.055600  139.926000
  C    -64.672000   41.436100  141.020000
  H    -63.642200   41.015100  140.920000
  H    -64.801400   41.911000  141.981000
  H    -65.432300   40.612400  140.896000
  S    -68.640100   37.931300  140.490000
  C    -69.898600   36.728600  140.299000
  C    -70.236200   36.501800  138.978000
  C    -69.519600   37.279100  138.067000
  C    -68.701500   38.220500  138.702000
  H    -70.935100   35.766900  138.732000
  C    -69.704100   37.113000  136.588000
  H    -69.571300   38.079400  136.039000
  H    -70.783500   36.927100  136.497000
  C    -68.800800   36.083800  135.881000
  H    -67.857000   36.518500  135.727000
  H    -69.229500   35.815200  134.939000
  C    -68.608700   34.885600  136.737000
  H    -67.977100   34.935600  137.562000
  H    -68.124800   34.065600  136.223000
  H    -69.552100   34.455500  137.138000
  H    -66.995600   42.571900  136.901000
  H    -70.419000   36.199900  141.080000

 Total Charge           Charge          ....    0
 Multiplicity           Mult            ....    1
 Number of Electrons    NEL             ....  134
 Basis Dimension        Dim             ....  322

ORBITAL ENERGIES
----------------

  NO   OCC          E(Eh)            E(eV)
   0   2.0000     -88.968690     -2420.9611
   1   2.0000     -88.967779     -2420.9363
   2   2.0000     -10.339740      -281.3586
   3   2.0000     -10.332377      -281.1583
   4   2.0000     -10.317489      -280.7532
   5   2.0000     -10.314226      -280.6644
   6   2.0000     -10.307544      -280.4825
   7   2.0000     -10.305896      -280.4377
   8   2.0000     -10.303254      -280.3658
   9   2.0000     -10.297009      -280.1959
  10   2.0000     -10.295695      -280.1601
  11   2.0000     -10.290941      -280.0307
  12   2.0000     -10.287308      -279.9319
  13   2.0000     -10.280670      -279.7513
  14   2.0000     -10.278835      -279.7013
  15   2.0000     -10.264650      -279.3153
  16   2.0000      -8.082348      -219.9319
  17   2.0000      -8.080975      -219.8945
  18   2.0000      -6.040816      -164.3790
  19   2.0000      -6.039605      -164.3460
  20   2.0000      -6.037091      -164.2776
  21   2.0000      -6.035857      -164.2440
  22   2.0000      -6.033128      -164.1698
  23   2.0000      -6.031548      -164.1268
  24   2.0000      -0.998035       -27.1579
  25   2.0000      -0.975369       -26.5411
  26   2.0000      -0.914304       -24.8795
  27   2.0000      -0.901453       -24.5298
  28   2.0000      -0.865756       -23.5584
  29   2.0000      -0.853212       -23.2171
  30   2.0000      -0.839088       -22.8328
  31   2.0000      -0.812131       -22.0992
  32   2.0000      -0.784425       -21.3453
  33   2.0000      -0.768076       -20.9004
  34   2.0000      -0.713286       -19.4095
  35   2.0000      -0.692042       -18.8314
  36   2.0000      -0.689969       -18.7750
  37   2.0000      -0.666799       -18.1445
  38   2.0000      -0.635853       -17.3024
  39   2.0000      -0.608532       -16.5590
  40   2.0000      -0.588917       -16.0252
  41   2.0000      -0.569296       -15.4913
  42   2.0000      -0.563133       -15.3236
  43   2.0000      -0.548268       -14.9191
  44   2.0000      -0.542037       -14.7496
  45   2.0000      -0.540306       -14.7025
  46   2.0000      -0.518846       -14.1185
  47   2.0000      -0.510030       -13.8786
  48   2.0000      -0.494971       -13.4688
  49   2.0000      -0.493384       -13.4257
  50   2.0000      -0.487446       -13.2641
  51   2.0000      -0.474856       -12.9215
  52   2.0000      -0.470430       -12.8011
  53   2.0000      -0.462955       -12.5977
  54   2.0000      -0.456193       -12.4136
  55   2.0000      -0.446626       -12.1533
  56   2.0000      -0.438268       -11.9259
  57   2.0000      -0.432950       -11.7812
  58   2.0000      -0.430329       -11.7099
  59   2.0000      -0.427096       -11.6219
  60   2.0000      -0.419481       -11.4147
  61   2.0000      -0.417658       -11.3650
  62   2.0000      -0.409733       -11.1494
  63   2.0000      -0.346462        -9.4277
  64   2.0000      -0.335933        -9.1412
  65   2.0000      -0.328361        -8.9352
  66   2.0000      -0.286972        -7.8089
  67   0.0000       0.023861         0.6493
  68   0.0000       0.063296         1.7224
  69   0.0000       0.100523         2.7354
  70   0.0000       0.105011         2.8575
  71   0.0000       0.130518         3.5516

MULLIKEN ATOMIC CHARGES
-----------------------
   0 S :    0.102319
   1 C :   -0.107536
   2 C :   -0.093016
   3 C :    0.006491
   4 C :   -0.145777
   5 H :    0.038915
   6 C :    0.067281
   7 H :    0.027525
   8 H :    0.023024
   9 C :   -0.104528
  10 H :    0.039107
  11 H :    0.053459
  12 C :   -0.083043
  13 H :    0.034538
  14 H :    0.040870
  15 H :    0.040633
  16 S :    0.105089
  17 C :   -0.075855
  18 C :   -0.029861
  19 C :   -0.024012
  20 C :   -0.174420
  21 H :   -0.000712
  22 C :    0.026364
  23 H :    0.026221
  24 H :    0.028584
  25 C :    0.027663
  26 H :    0.022401
  27 H :    0.026932
  28 C :   -0.047232
  29 H :    0.021825
  30 H :    0.016231
  31 H :    0.014962
  32 H :    0.045340
  33 H :    0.050217
Sum of atomic charges:    0.0000000

LOEWDIN ATOMIC CHARGES
----------------------
   0 S :    0.371404
   1 C :   -0.195701
   2 C :   -0.062441
   3 C :   -0.071063
   4 C :   -0.166567
   5 H :    0.037847
   6 C :   -0.031743
   7 H :    0.029741
   8 H :    0.029483
   9 C :   -0.045326
  10 H :    0.024412
  11 H :    0.034808
  12 C :   -0.073745
  13 H :    0.026917
  14 H :    0.023052
  15 H :    0.026912
  16 S :    0.388762
  17 C :   -0.177419
  18 C :   -0.064462
  19 C :   -0.053904
  20 C :   -0.181351
  21 H :    0.022236
  22 C :   -0.037050
  23 H :    0.029078
  24 H :    0.032062
  25 C :   -0.025355
  26 H :    0.024183
  27 H :    0.026508
  28 C :   -0.068487
  29 H :    0.019889
  30 H :    0.024994
  31 H :    0.023966
  32 H :    0.029956
  33 H :    0.028404

  Mayer bond orders larger than 0.100000
B(  0-S ,  1-C ) :   1.1244 B(  0-S ,  4-C ) :   1.1122 B(  1-C ,  2-C ) :   1.6661
B(  1-C , 32-H ) :   0.9599 B(  2-C ,  3-C ) :   1.1834 B(  2-C ,  6-C ) :   1.0273
B(  3-C ,  4-C ) :   1.6171 B(  3-C ,  5-H ) :   0.9768 B(  4-C , 20-C ) :   1.0581
B(  6-C ,  7-H ) :   0.9462 B(  6-C ,  8-H ) :   0.9404 B(  6-C ,  9-C ) :   1.0499
B(  9-C , 10-H ) :   0.9602 B(  9-C , 11-H ) :   0.9555 B(  9-C , 12-C ) :   1.0680
B( 12-C , 13-H ) :   0.9759 B( 12-C , 14-H ) :   0.9748 B( 12-C , 15-H ) :   0.9750
B( 16-S , 17-C ) :   1.1523 B( 16-S , 20-C ) :   1.1263 B( 17-C , 18-C ) :   1.6116
B( 17-C , 20-C ) :   0.1034 B( 17-C , 33-H ) :   0.9647 B( 18-C , 19-C ) :   1.2428
B( 18-C , 21-H ) :   0.9950 B( 19-C , 20-C ) :   1.5682 B( 19-C , 22-C ) :   1.0389
B( 22-C , 23-H ) :   0.9348 B( 22-C , 24-H ) :   0.9349 B( 22-C , 25-C ) :   1.0692
B( 25-C , 26-H ) :   0.9475 B( 25-C , 27-H ) :   0.9524 B( 25-C , 28-C ) :   1.1049
B( 28-C , 29-H ) :   0.9612 B( 28-C , 30-H ) :   0.9663 B( 28-C , 31-H ) :   0.9712

Dispersion correction           -0.015036733
FINAL SINGLE POINT ENERGY     -1339.871856388253

DIPOLE MOMENT
-------------
                                X             Y             Z
Electronic contribution:    -11.48448       3.63583       2.35701
Nuclear contribution   :     11.69280      -3.84148      -2.46515
                        -----------------------------------------
Total Dipole Moment    :      0.20831      -0.20565      -0.10814
                        -----------------------------------------
Magnitude (a.u.)       :      0.31206
Magnitude (Debye)      :      0.79320

Rotational constants in cm-1:     0.022326     0.008105     0.006983
Rotational constants in MHz :   669.327682   242.984130   209.331063

                             ****ORCA TERMINATED NORMALLY****
TOTAL RUN TIME: 0 days 0 hours 0 minutes 34 seconds 620 msec
