                         Program Version 4.2.1 -  RELEASE  -
|  1> ! wB97X-D3 SP def2-SVP
|  2> %pal
|  3> nprocs 16
|  4> end
|  5>
|  6> * xyz 0 1
|  7> S 	 6.67441 	 24.7205 	 67.3922
|  8> C 	 7.26137 	 23.2179 	 66.7664
|  9> C 	 6.75552 	 22.9545 	 65.5287
| 10> C 	 6.14935 	 24.1468 	 64.9957
| 11> C 	 6.27391 	 25.2741 	 65.7892
| 12> H 	 5.75806 	 24.2382 	 63.9521
| 13> C 	 6.98385 	 21.6986 	 64.7728
| 14> H 	 5.97041 	 21.329 	 64.4819
| 15> H 	 7.36864 	 20.9632 	 65.4958
| 16> C 	 8.03432 	 21.7615 	 63.6458
| 17> H 	 8.15789 	 20.71 	 63.3404
| 18> H 	 7.72689 	 22.3584 	 62.7461
| 19> C 	 9.38187 	 22.3163 	 64.1009
| 20> H 	 9.74022 	 21.8203 	 64.971
| 21> H 	 10.1255 	 22.2052 	 63.275
| 22> H 	 9.23163 	 23.3882 	 64.263
| 23> S 	 4.95341 	 27.633 	 66.592
| 24> C 	 4.7566 	 28.9486 	 65.4616
| 25> C 	 5.45176 	 28.6397 	 64.267
| 26> C 	 5.98513 	 27.3498 	 64.2312
| 27> C 	 5.85996 	 26.6462 	 65.4545
| 28> H 	 5.54596 	 29.3698 	 63.4868
| 29> C 	 6.63211 	 26.834 	 62.9629
| 30> H 	 7.21099 	 26.0345 	 63.095
| 31> H 	 7.33644 	 27.5142 	 62.6106
| 32> C 	 5.55083 	 26.5898 	 61.8046
| 33> H 	 5.05758 	 27.4982 	 61.5359
| 34> H 	 4.67186 	 25.9024 	 62.0313
| 35> C 	 6.13042 	 26.0003 	 60.5236
| 36> H 	 6.88309 	 26.7033 	 60.1301
| 37> H 	 5.43089 	 25.7837 	 59.773
| 38> H 	 6.62194 	 25.0606 	 60.888
| 39> H 	 7.78028 	 22.4009 	 67.2586
| 40> H 	 4.23675 	 29.8753 	 65.765
| 41> *
| 42>
| 43>                          ****END OF INPUT****

CARTESIAN COORDINATES (ANGSTROEM)
---------------------------------
  S      6.674410   24.720500   67.392200
  C      7.261370   23.217900   66.766400
  C      6.755520   22.954500   65.528700
  C      6.149350   24.146800   64.995700
  C      6.273910   25.274100   65.789200
  H      5.758060   24.238200   63.952100
  C      6.983850   21.698600   64.772800
  H      5.970410   21.329000   64.481900
  H      7.368640   20.963200   65.495800
  C      8.034320   21.761500   63.645800
  H      8.157890   20.710000   63.340400
  H      7.726890   22.358400   62.746100
  C      9.381870   22.316300   64.100900
  H      9.740220   21.820300   64.971000
  H     10.125500   22.205200   63.275000
  H      9.231630   23.388200   64.263000
  S      4.953410   27.633000   66.592000
  C      4.756600   28.948600   65.461600
  C      5.451760   28.639700   64.267000
  C      5.985130   27.349800   64.231200
  C      5.859960   26.646200   65.454500
  H      5.545960   29.369800   63.486800
  C      6.632110   26.834000   62.962900
  H      7.210990   26.034500   63.095000
  H      7.336440   27.514200   62.610600
  C      5.550830   26.589800   61.804600
  H      5.057580   27.498200   61.535900
  H      4.671860   25.902400   62.031300
  C      6.130420   26.000300   60.523600
  H      6.883090   26.703300   60.130100
  H      5.430890   25.783700   59.773000
  H      6.621940   25.060600   60.888000
  H      7.780280   22.400900   67.258600
  H      4.236750   29.875300   65.765000

 Total Charge           Charge          ....    0
 Multiplicity           Mult            ....    1
 Number of Electrons    NEL             ....  134
 Basis Dimension        Dim             ....  322

ORBITAL ENERGIES
----------------

  NO   OCC          E(Eh)            E(eV)
   0   2.0000     -88.968234     -2420.9487
   1   2.0000     -88.963734     -2420.8263
   2   2.0000     -10.333192      -281.1805
   3   2.0000     -10.331758      -281.1414
   4   2.0000     -10.325458      -280.9700
   5   2.0000     -10.308511      -280.5089
   6   2.0000     -10.305298      -280.4214
   7   2.0000     -10.296429      -280.1801
   8   2.0000     -10.296260      -280.1755
   9   2.0000     -10.296195      -280.1737
  10   2.0000     -10.294821      -280.1363
  11   2.0000     -10.292599      -280.0758
  12   2.0000     -10.291731      -280.0522
  13   2.0000     -10.285326      -279.8779
  14   2.0000     -10.278690      -279.6974
  15   2.0000     -10.277105      -279.6542
  16   2.0000      -8.082766      -219.9432
  17   2.0000      -8.079096      -219.8434
  18   2.0000      -6.041185      -164.3890
  19   2.0000      -6.037698      -164.2941
  20   2.0000      -6.037114      -164.2782
  21   2.0000      -6.033840      -164.1891
  22   2.0000      -6.033821      -164.1886
  23   2.0000      -6.029410      -164.0686
  24   2.0000      -1.008722       -27.4487
  25   2.0000      -0.987504       -26.8714
  26   2.0000      -0.915742       -24.9186
  27   2.0000      -0.908186       -24.7130
  28   2.0000      -0.867882       -23.6163
  29   2.0000      -0.856233       -23.2993
  30   2.0000      -0.844002       -22.9665
  31   2.0000      -0.813228       -22.1290
  32   2.0000      -0.787007       -21.4156
  33   2.0000      -0.775297       -21.0969
  34   2.0000      -0.705025       -19.1847
  35   2.0000      -0.700769       -19.0689
  36   2.0000      -0.692363       -18.8401
  37   2.0000      -0.661664       -18.0048
  38   2.0000      -0.633379       -17.2351
  39   2.0000      -0.621207       -16.9039
  40   2.0000      -0.603179       -16.4133
  41   2.0000      -0.569895       -15.5076
  42   2.0000      -0.561982       -15.2923
  43   2.0000      -0.553733       -15.0679
  44   2.0000      -0.544514       -14.8170
  45   2.0000      -0.534428       -14.5425
  46   2.0000      -0.518191       -14.1007
  47   2.0000      -0.513791       -13.9810
  48   2.0000      -0.510378       -13.8881
  49   2.0000      -0.499666       -13.5966
  50   2.0000      -0.488841       -13.3021
  51   2.0000      -0.479260       -13.0413
  52   2.0000      -0.471184       -12.8216
  53   2.0000      -0.463783       -12.6202
  54   2.0000      -0.460200       -12.5227
  55   2.0000      -0.451245       -12.2790
  56   2.0000      -0.443063       -12.0564
  57   2.0000      -0.438443       -11.9306
  58   2.0000      -0.431445       -11.7402
  59   2.0000      -0.425756       -11.5854
  60   2.0000      -0.423849       -11.5335
  61   2.0000      -0.417703       -11.3663
  62   2.0000      -0.413333       -11.2474
  63   2.0000      -0.353757        -9.6262
  64   2.0000      -0.334124        -9.0920
  65   2.0000      -0.324796        -8.8382
  66   2.0000      -0.284543        -7.7428
  67   0.0000       0.021384         0.5819
  68   0.0000       0.071872         1.9557
  69   0.0000       0.105480         2.8703
  70   0.0000       0.115358         3.1390
  71   0.0000       0.124991         3.4012

MULLIKEN ATOMIC CHARGES
-----------------------
   0 S :    0.108541
   1 C :   -0.098284
   2 C :   -0.117586
   3 C :    0.004135
   4 C :   -0.143544
   5 H :    0.022732
   6 C :    0.062963
   7 H :    0.045553
   8 H :    0.013923
   9 C :   -0.086453
  10 H :    0.033316
  11 H :    0.037467
  12 C :   -0.052534
  13 H :    0.022607
  14 H :    0.040679
  15 H :    0.049986
  16 S :    0.104622
  17 C :   -0.120254
  18 C :   -0.024096
  19 C :   -0.043993
  20 C :   -0.131715
  21 H :    0.016568
  22 C :    0.167743
  23 H :   -0.029567
  24 H :    0.005450
  25 C :   -0.116285
  26 H :    0.018362
  27 H :    0.038900
  28 C :   -0.038992
  29 H :    0.030278
  30 H :    0.033721
  31 H :    0.029667
  32 H :    0.037473
  33 H :    0.078618
Sum of atomic charges:    0.0000000

LOEWDIN ATOMIC CHARGES
----------------------
   0 S :    0.403559
   1 C :   -0.200200
   2 C :   -0.072169
   3 C :   -0.066797
   4 C :   -0.190042
   5 H :    0.034589
   6 C :   -0.037900
   7 H :    0.040273
   8 H :    0.030505
   9 C :   -0.043124
  10 H :    0.025199
  11 H :    0.025651
  12 C :   -0.063121
  13 H :    0.017061
  14 H :    0.032137
  15 H :    0.029936
  16 S :    0.411423
  17 C :   -0.192150
  18 C :   -0.067048
  19 C :   -0.051457
  20 C :   -0.197486
  21 H :    0.029445
  22 C :   -0.011903
  23 H :    0.007904
  24 H :    0.028529
  25 C :   -0.040288
  26 H :    0.014441
  27 H :    0.029814
  28 C :   -0.064288
  29 H :    0.024292
  30 H :    0.019147
  31 H :    0.027833
  32 H :    0.029389
  33 H :    0.036845

  Mayer bond orders larger than 0.100000
B(  0-S ,  1-C ) :   1.1300 B(  0-S ,  4-C ) :   1.1369 B(  1-C ,  2-C ) :   1.6266
B(  1-C , 32-H ) :   0.9617 B(  2-C ,  3-C ) :   1.2158 B(  2-C ,  6-C ) :   1.0418
B(  3-C ,  4-C ) :   1.5653 B(  3-C ,  5-H ) :   0.9907 B(  4-C , 20-C ) :   1.0689
B(  6-C ,  7-H ) :   0.9345 B(  6-C ,  8-H ) :   0.9350 B(  6-C ,  9-C ) :   1.0621
B(  9-C , 10-H ) :   0.9565 B(  9-C , 11-H ) :   0.9570 B(  9-C , 12-C ) :   1.0775
B( 12-C , 13-H ) :   0.9761 B( 12-C , 14-H ) :   0.9728 B( 12-C , 15-H ) :   0.9703
B( 16-S , 17-C ) :   1.1810 B( 16-S , 20-C ) :   1.1510 B( 17-C , 18-C ) :   1.5331
B( 17-C , 20-C ) :   0.1138 B( 17-C , 33-H ) :   0.9684 B( 18-C , 19-C ) :   1.2954
B( 18-C , 21-H ) :   0.9955 B( 19-C , 20-C ) :   1.5424 B( 19-C , 22-C ) :   1.0560
B( 22-C , 23-H ) :   0.9255 B( 22-C , 24-H ) :   0.9222 B( 22-C , 25-C ) :   1.0355
B( 25-C , 26-H ) :   0.9564 B( 25-C , 27-H ) :   0.9600 B( 25-C , 28-C ) :   1.0862
B( 28-C , 29-H ) :   0.9740 B( 28-C , 30-H ) :   0.9747 B( 28-C , 31-H ) :   0.9760

Dispersion correction           -0.014974404
FINAL SINGLE POINT ENERGY     -1339.867460284136

DIPOLE MOMENT
-------------
                                X             Y             Z
Electronic contribution:     -9.56218      12.84766      27.04347
Nuclear contribution   :      9.66639     -13.01631     -27.77055
                        -----------------------------------------
Total Dipole Moment    :      0.10421      -0.16865      -0.72708
                        -----------------------------------------
Magnitude (a.u.)       :      0.75362
Magnitude (Debye)      :      1.91555

Rotational constants in cm-1:     0.017062     0.010320     0.006888
Rotational constants in MHz :   511.518201   309.375963   206.508758

                             ****ORCA TERMINATED NORMALLY****
TOTAL RUN TIME: 0 days 0 hours 0 minutes 36 seconds 712 msec
