                         Program Version 4.2.1 -  RELEASE  -
|  1> ! wB97X-D3 SP def2-SVP
|  2> %pal
|  3> nprocs 16
|  4> end
|  5>
|  6> * xyz 0 1
|  7> S 	 -34.4166 	 69.2469 	 109.531
|  8> C 	 -34.5983 	 67.9588 	 108.322
|  9> C 	 -33.5798 	 68.0463 	 107.353
| 10> C 	 -32.7378 	 69.1803 	 107.57
| 11> C 	 -33.0703 	 69.9908 	 108.629
| 12> H 	 -31.8717 	 69.3179 	 106.898
| 13> C 	 -33.4367 	 67.1103 	 106.229
| 14> H 	 -34.2892 	 66.3694 	 106.311
| 15> H 	 -32.5332 	 66.5212 	 106.309
| 16> C 	 -33.5584 	 67.626 	 104.772
| 17> H 	 -34.6263 	 67.8534 	 104.538
| 18> H 	 -32.9095 	 68.5077 	 104.52
| 19> C 	 -33.238 	 66.4334 	 103.861
| 20> H 	 -33.7837 	 65.6155 	 104.276
| 21> H 	 -33.5631 	 66.5 	 102.807
| 22> H 	 -32.1615 	 66.1665 	 103.7
| 23> S 	 -32.4223 	 71.1684 	 110.987
| 24> C 	 -31.2082 	 72.369 	 111.099
| 25> C 	 -30.9505 	 72.831 	 109.813
| 26> C 	 -31.3689 	 71.9373 	 108.75
| 27> C 	 -32.2392 	 70.9796 	 109.242
| 28> H 	 -30.1466 	 73.6171 	 109.679
| 29> C 	 -30.977 	 72.2284 	 107.288
| 30> H 	 -31.0085 	 71.2756 	 106.71
| 31> H 	 -29.9005 	 72.3819 	 107.345
| 32> C 	 -31.7698 	 73.3514 	 106.651
| 33> H 	 -31.3936 	 73.5681 	 105.644
| 34> H 	 -31.6515 	 74.2814 	 107.228
| 35> C 	 -33.2523 	 73.0098 	 106.616
| 36> H 	 -33.7341 	 73.1337 	 107.578
| 37> H 	 -33.3114 	 72.006 	 106.266
| 38> H 	 -33.68 	 73.6884 	 105.927
| 39> H 	 -35.2052 	 67.107 	 108.361
| 40> H 	 -30.8387 	 72.8706 	 111.995
| 41> *
| 42>
| 43>                          ****END OF INPUT****

CARTESIAN COORDINATES (ANGSTROEM)
---------------------------------
  S    -34.416600   69.246900  109.531000
  C    -34.598300   67.958800  108.322000
  C    -33.579800   68.046300  107.353000
  C    -32.737800   69.180300  107.570000
  C    -33.070300   69.990800  108.629000
  H    -31.871700   69.317900  106.898000
  C    -33.436700   67.110300  106.229000
  H    -34.289200   66.369400  106.311000
  H    -32.533200   66.521200  106.309000
  C    -33.558400   67.626000  104.772000
  H    -34.626300   67.853400  104.538000
  H    -32.909500   68.507700  104.520000
  C    -33.238000   66.433400  103.861000
  H    -33.783700   65.615500  104.276000
  H    -33.563100   66.500000  102.807000
  H    -32.161500   66.166500  103.700000
  S    -32.422300   71.168400  110.987000
  C    -31.208200   72.369000  111.099000
  C    -30.950500   72.831000  109.813000
  C    -31.368900   71.937300  108.750000
  C    -32.239200   70.979600  109.242000
  H    -30.146600   73.617100  109.679000
  C    -30.977000   72.228400  107.288000
  H    -31.008500   71.275600  106.710000
  H    -29.900500   72.381900  107.345000
  C    -31.769800   73.351400  106.651000
  H    -31.393600   73.568100  105.644000
  H    -31.651500   74.281400  107.228000
  C    -33.252300   73.009800  106.616000
  H    -33.734100   73.133700  107.578000
  H    -33.311400   72.006000  106.266000
  H    -33.680000   73.688400  105.927000
  H    -35.205200   67.107000  108.361000
  H    -30.838700   72.870600  111.995000

 Total Charge           Charge          ....    0
 Multiplicity           Mult            ....    1
 Number of Electrons    NEL             ....  134
 Basis Dimension        Dim             ....  322

ORBITAL ENERGIES
----------------

  NO   OCC          E(Eh)            E(eV)
   0   2.0000     -88.969068     -2420.9714
   1   2.0000     -88.963166     -2420.8108
   2   2.0000     -10.332804      -281.1699
   3   2.0000     -10.328017      -281.0396
   4   2.0000     -10.318374      -280.7772
   5   2.0000     -10.315567      -280.7008
   6   2.0000     -10.306339      -280.4497
   7   2.0000     -10.300683      -280.2958
   8   2.0000     -10.298910      -280.2476
   9   2.0000     -10.297844      -280.2186
  10   2.0000     -10.296610      -280.1850
  11   2.0000     -10.295572      -280.1568
  12   2.0000     -10.295261      -280.1483
  13   2.0000     -10.284581      -279.8577
  14   2.0000     -10.280840      -279.7559
  15   2.0000     -10.262533      -279.2577
  16   2.0000      -8.082596      -219.9386
  17   2.0000      -8.078628      -219.8306
  18   2.0000      -6.041322      -164.3927
  19   2.0000      -6.037324      -164.2839
  20   2.0000      -6.037182      -164.2801
  21   2.0000      -6.033134      -164.1699
  22   2.0000      -6.033030      -164.1671
  23   2.0000      -6.029281      -164.0651
  24   2.0000      -1.008713       -27.4485
  25   2.0000      -0.981971       -26.7208
  26   2.0000      -0.916146       -24.9296
  27   2.0000      -0.912804       -24.8387
  28   2.0000      -0.873205       -23.7611
  29   2.0000      -0.852301       -23.1923
  30   2.0000      -0.841779       -22.9060
  31   2.0000      -0.814361       -22.1599
  32   2.0000      -0.782637       -21.2966
  33   2.0000      -0.769470       -20.9383
  34   2.0000      -0.711364       -19.3572
  35   2.0000      -0.698377       -19.0038
  36   2.0000      -0.694785       -18.9061
  37   2.0000      -0.656971       -17.8771
  38   2.0000      -0.638220       -17.3668
  39   2.0000      -0.623961       -16.9788
  40   2.0000      -0.596351       -16.2275
  41   2.0000      -0.569362       -15.4931
  42   2.0000      -0.565346       -15.3839
  43   2.0000      -0.558926       -15.2091
  44   2.0000      -0.544302       -14.8112
  45   2.0000      -0.522909       -14.2291
  46   2.0000      -0.515313       -14.0224
  47   2.0000      -0.512067       -13.9341
  48   2.0000      -0.504801       -13.7363
  49   2.0000      -0.495608       -13.4862
  50   2.0000      -0.494648       -13.4600
  51   2.0000      -0.478983       -13.0338
  52   2.0000      -0.465519       -12.6674
  53   2.0000      -0.461640       -12.5619
  54   2.0000      -0.458610       -12.4794
  55   2.0000      -0.448464       -12.2033
  56   2.0000      -0.443405       -12.0657
  57   2.0000      -0.438023       -11.9192
  58   2.0000      -0.430675       -11.7193
  59   2.0000      -0.425899       -11.5893
  60   2.0000      -0.423539       -11.5251
  61   2.0000      -0.413734       -11.2583
  62   2.0000      -0.407785       -11.0964
  63   2.0000      -0.363604        -9.8942
  64   2.0000      -0.333197        -9.0668
  65   2.0000      -0.325122        -8.8470
  66   2.0000      -0.281267        -7.6537
  67   0.0000       0.018374         0.5000
  68   0.0000       0.072049         1.9605
  69   0.0000       0.102928         2.8008
  70   0.0000       0.112883         3.0717
  71   0.0000       0.129993         3.5373

MULLIKEN ATOMIC CHARGES
-----------------------
   0 S :    0.086967
   1 C :   -0.080057
   2 C :   -0.092495
   3 C :    0.000380
   4 C :   -0.082134
   5 H :    0.018983
   6 C :    0.018818
   7 H :    0.021701
   8 H :    0.040804
   9 C :   -0.073297
  10 H :    0.042693
  11 H :    0.043225
  12 C :   -0.072637
  13 H :    0.020468
  14 H :    0.030748
  15 H :    0.039411
  16 S :    0.090846
  17 C :   -0.088962
  18 C :   -0.055615
  19 C :   -0.103507
  20 C :   -0.119820
  21 H :    0.038912
  22 C :    0.062092
  23 H :    0.017649
  24 H :    0.023339
  25 C :   -0.063907
  26 H :    0.029943
  27 H :    0.027367
  28 C :   -0.010823
  29 H :    0.049244
  30 H :    0.022084
  31 H :    0.020929
  32 H :    0.027426
  33 H :    0.069224
Sum of atomic charges:   -0.0000000

LOEWDIN ATOMIC CHARGES
----------------------
   0 S :    0.382057
   1 C :   -0.182731
   2 C :   -0.062737
   3 C :   -0.065181
   4 C :   -0.177338
   5 H :    0.031538
   6 C :   -0.040944
   7 H :    0.036929
   8 H :    0.032894
   9 C :   -0.040008
  10 H :    0.032781
  11 H :    0.025292
  12 C :   -0.074727
  13 H :    0.019725
  14 H :    0.026886
  15 H :    0.028389
  16 S :    0.407929
  17 C :   -0.198480
  18 C :   -0.080967
  19 C :   -0.058852
  20 C :   -0.188157
  21 H :    0.035737
  22 C :   -0.035736
  23 H :    0.028793
  24 H :    0.030514
  25 C :   -0.037981
  26 H :    0.024257
  27 H :    0.024988
  28 C :   -0.052870
  29 H :    0.030136
  30 H :    0.020817
  31 H :    0.021401
  32 H :    0.018351
  33 H :    0.037296

  Mayer bond orders larger than 0.100000
B(  0-S ,  1-C ) :   1.1239 B(  0-S ,  4-C ) :   1.1254 B(  1-C ,  2-C ) :   1.6065
B(  1-C , 32-H ) :   0.9674 B(  2-C ,  3-C ) :   1.2672 B(  2-C ,  6-C ) :   1.0436
B(  3-C ,  4-C ) :   1.5484 B(  3-C ,  5-H ) :   0.9827 B(  4-C , 20-C ) :   1.1031
B(  6-C ,  7-H ) :   0.9359 B(  6-C ,  8-H ) :   0.9382 B(  6-C ,  9-C ) :   1.0518
B(  9-C , 10-H ) :   0.9562 B(  9-C , 11-H ) :   0.9588 B(  9-C , 12-C ) :   1.0694
B( 12-C , 13-H ) :   0.9719 B( 12-C , 14-H ) :   0.9745 B( 12-C , 15-H ) :   0.9752
B( 16-S , 17-C ) :   1.1581 B( 16-S , 20-C ) :   1.1281 B( 17-C , 18-C ) :   1.6108
B( 17-C , 33-H ) :   0.9673 B( 18-C , 19-C ) :   1.2525 B( 18-C , 21-H ) :   0.9687
B( 19-C , 20-C ) :   1.5816 B( 19-C , 22-C ) :   1.0304 B( 22-C , 23-H ) :   0.9400
B( 22-C , 24-H ) :   0.9265 B( 22-C , 25-C ) :   1.0759 B( 25-C , 26-H ) :   0.9556
B( 25-C , 27-H ) :   0.9527 B( 25-C , 28-C ) :   1.0734 B( 28-C , 29-H ) :   0.9722
B( 28-C , 30-H ) :   0.9768 B( 28-C , 31-H ) :   0.9706

Dispersion correction           -0.014701476
FINAL SINGLE POINT ENERGY     -1339.873307506446

DIPOLE MOMENT
-------------
                                X             Y             Z
Electronic contribution:     -3.03671       2.64312      28.87048
Nuclear contribution   :      3.41063      -2.69055     -29.47150
                        -----------------------------------------
Total Dipole Moment    :      0.37392      -0.04743      -0.60103
                        -----------------------------------------
Magnitude (a.u.)       :      0.70944
Magnitude (Debye)      :      1.80324

Rotational constants in cm-1:     0.020492     0.008726     0.006817
Rotational constants in MHz :   614.337328   261.589789   204.371761

                             ****ORCA TERMINATED NORMALLY****
TOTAL RUN TIME: 0 days 0 hours 0 minutes 30 seconds 834 msec
