                         Program Version 4.2.1 -  RELEASE  -
|  1> ! wB97X-D3 SP def2-SVP
|  2> %pal
|  3> nprocs 16
|  4> end
|  5>
|  6> * xyz 0 1
|  7> S 	 50.1105 	 14.0516 	 79.7541
|  8> C 	 50.314 	 12.8258 	 80.9626
|  9> C 	 50.2032 	 13.3711 	 82.1974
| 10> C 	 49.9802 	 14.7805 	 82.1727
| 11> C 	 49.7475 	 15.2808 	 80.895
| 12> H 	 49.9968 	 15.4793 	 82.9055
| 13> C 	 50.4585 	 12.5383 	 83.4009
| 14> H 	 51.3973 	 11.9639 	 83.2421
| 15> H 	 49.6128 	 11.8294 	 83.6361
| 16> C 	 50.7273 	 13.2834 	 84.6624
| 17> H 	 51.6362 	 13.9165 	 84.513
| 18> H 	 50.0268 	 13.8524 	 85.0948
| 19> C 	 51.0039 	 12.2668 	 85.766
| 20> H 	 51.7553 	 11.5283 	 85.6392
| 21> H 	 51.2448 	 12.8171 	 86.6835
| 22> H 	 50.0421 	 11.7981 	 86.0645
| 23> S 	 47.6723 	 16.9744 	 80.3454
| 24> C 	 47.8422 	 18.6826 	 80.6012
| 25> C 	 49.2029 	 18.9574 	 80.6703
| 26> C 	 50.0795 	 17.8287 	 80.6946
| 27> C 	 49.4097 	 16.6223 	 80.5264
| 28> H 	 49.5807 	 19.9823 	 80.7621
| 29> C 	 51.604 	 17.97 	 80.9773
| 30> H 	 51.9443 	 16.9752 	 81.3037
| 31> H 	 51.7617 	 18.5475 	 81.8754
| 32> C 	 52.308 	 18.6749 	 79.8686
| 33> H 	 51.977 	 19.7172 	 79.7185
| 34> H 	 52.2784 	 18.0935 	 79.0067
| 35> C 	 53.8674 	 18.897 	 80.1197
| 36> H 	 54.4547 	 18.0507 	 80.4674
| 37> H 	 53.804 	 19.6863 	 80.9071
| 38> H 	 54.4164 	 19.2731 	 79.1165
| 39> H 	 50.5722 	 11.7629 	 80.7859
| 40> H 	 47.0957 	 19.4432 	 80.6723
| 41> *
| 42>
| 43>                          ****END OF INPUT****

CARTESIAN COORDINATES (ANGSTROEM)
---------------------------------
  S     50.110500   14.051600   79.754100
  C     50.314000   12.825800   80.962600
  C     50.203200   13.371100   82.197400
  C     49.980200   14.780500   82.172700
  C     49.747500   15.280800   80.895000
  H     49.996800   15.479300   82.905500
  C     50.458500   12.538300   83.400900
  H     51.397300   11.963900   83.242100
  H     49.612800   11.829400   83.636100
  C     50.727300   13.283400   84.662400
  H     51.636200   13.916500   84.513000
  H     50.026800   13.852400   85.094800
  C     51.003900   12.266800   85.766000
  H     51.755300   11.528300   85.639200
  H     51.244800   12.817100   86.683500
  H     50.042100   11.798100   86.064500
  S     47.672300   16.974400   80.345400
  C     47.842200   18.682600   80.601200
  C     49.202900   18.957400   80.670300
  C     50.079500   17.828700   80.694600
  C     49.409700   16.622300   80.526400
  H     49.580700   19.982300   80.762100
  C     51.604000   17.970000   80.977300
  H     51.944300   16.975200   81.303700
  H     51.761700   18.547500   81.875400
  C     52.308000   18.674900   79.868600
  H     51.977000   19.717200   79.718500
  H     52.278400   18.093500   79.006700
  C     53.867400   18.897000   80.119700
  H     54.454700   18.050700   80.467400
  H     53.804000   19.686300   80.907100
  H     54.416400   19.273100   79.116500
  H     50.572200   11.762900   80.785900
  H     47.095700   19.443200   80.672300

 Total Charge           Charge          ....    0
 Multiplicity           Mult            ....    1
 Number of Electrons    NEL             ....  134
 Basis Dimension        Dim             ....  322

ORBITAL ENERGIES
----------------

  NO   OCC          E(Eh)            E(eV)
   0   2.0000     -88.962588     -2420.7951
   1   2.0000     -88.961847     -2420.7749
   2   2.0000     -10.325855      -280.9808
   3   2.0000     -10.323998      -280.9303
   4   2.0000     -10.321062      -280.8504
   5   2.0000     -10.309815      -280.5443
   6   2.0000     -10.307741      -280.4879
   7   2.0000     -10.295111      -280.1442
   8   2.0000     -10.294529      -280.1284
   9   2.0000     -10.293508      -280.1006
  10   2.0000     -10.292705      -280.0787
  11   2.0000     -10.291588      -280.0484
  12   2.0000     -10.287854      -279.9468
  13   2.0000     -10.284792      -279.8634
  14   2.0000     -10.276344      -279.6335
  15   2.0000     -10.275284      -279.6047
  16   2.0000      -8.077597      -219.8026
  17   2.0000      -8.077258      -219.7934
  18   2.0000      -6.036000      -164.2479
  19   2.0000      -6.035872      -164.2444
  20   2.0000      -6.031773      -164.1329
  21   2.0000      -6.031589      -164.1279
  22   2.0000      -6.028591      -164.0463
  23   2.0000      -6.028036      -164.0312
  24   2.0000      -1.011073       -27.5127
  25   2.0000      -0.987085       -26.8599
  26   2.0000      -0.923577       -25.1318
  27   2.0000      -0.909658       -24.7531
  28   2.0000      -0.877739       -23.8845
  29   2.0000      -0.849579       -23.1182
  30   2.0000      -0.841887       -22.9089
  31   2.0000      -0.816532       -22.2190
  32   2.0000      -0.779770       -21.2186
  33   2.0000      -0.770521       -20.9670
  34   2.0000      -0.715690       -19.4749
  35   2.0000      -0.696145       -18.9431
  36   2.0000      -0.690809       -18.7979
  37   2.0000      -0.658700       -17.9241
  38   2.0000      -0.651321       -17.7234
  39   2.0000      -0.618480       -16.8297
  40   2.0000      -0.595482       -16.2039
  41   2.0000      -0.584085       -15.8938
  42   2.0000      -0.575285       -15.6543
  43   2.0000      -0.574641       -15.6368
  44   2.0000      -0.529103       -14.3976
  45   2.0000      -0.522830       -14.2269
  46   2.0000      -0.518220       -14.1015
  47   2.0000      -0.511298       -13.9131
  48   2.0000      -0.503619       -13.7042
  49   2.0000      -0.500485       -13.6189
  50   2.0000      -0.494638       -13.4598
  51   2.0000      -0.477110       -12.9828
  52   2.0000      -0.475869       -12.9490
  53   2.0000      -0.466142       -12.6844
  54   2.0000      -0.459166       -12.4945
  55   2.0000      -0.446542       -12.1510
  56   2.0000      -0.442103       -12.0302
  57   2.0000      -0.438568       -11.9340
  58   2.0000      -0.430711       -11.7203
  59   2.0000      -0.422813       -11.5053
  60   2.0000      -0.422556       -11.4983
  61   2.0000      -0.411322       -11.1926
  62   2.0000      -0.403507       -10.9800
  63   2.0000      -0.334865        -9.1121
  64   2.0000      -0.327667        -8.9163
  65   2.0000      -0.324389        -8.8271
  66   2.0000      -0.308673        -8.3994
  67   0.0000       0.043689         1.1888
  68   0.0000       0.049759         1.3540
  69   0.0000       0.120301         3.2736
  70   0.0000       0.126696         3.4476
  71   0.0000       0.128203         3.4886

MULLIKEN ATOMIC CHARGES
-----------------------
   0 S :    0.117639
   1 C :   -0.132222
   2 C :   -0.047105
   3 C :    0.083372
   4 C :   -0.179823
   5 H :   -0.034671
   6 C :    0.034071
   7 H :    0.036600
   8 H :    0.045691
   9 C :   -0.063308
  10 H :    0.028613
  11 H :    0.007857
  12 C :   -0.045484
  13 H :    0.026997
  14 H :    0.020291
  15 H :    0.025657
  16 S :    0.103899
  17 C :   -0.073715
  18 C :   -0.047312
  19 C :   -0.038145
  20 C :   -0.167172
  21 H :    0.020341
  22 C :    0.107150
  23 H :    0.026273
  24 H :    0.010327
  25 C :   -0.060936
  26 H :    0.041558
  27 H :    0.025508
  28 C :   -0.116698
  29 H :    0.042397
  30 H :    0.034085
  31 H :    0.056994
  32 H :    0.057550
  33 H :    0.053724
Sum of atomic charges:    0.0000000

LOEWDIN ATOMIC CHARGES
----------------------
   0 S :    0.430170
   1 C :   -0.202734
   2 C :   -0.073177
   3 C :   -0.045425
   4 C :   -0.213301
   5 H :    0.012897
   6 C :   -0.038411
   7 H :    0.039465
   8 H :    0.039325
   9 C :   -0.038309
  10 H :    0.027609
  11 H :    0.008087
  12 C :   -0.059463
  13 H :    0.015879
  14 H :    0.026451
  15 H :    0.027403
  16 S :    0.406575
  17 C :   -0.180975
  18 C :   -0.079546
  19 C :   -0.044861
  20 C :   -0.205270
  21 H :    0.029234
  22 C :   -0.029202
  23 H :    0.033168
  24 H :    0.026551
  25 C :   -0.035452
  26 H :    0.031025
  27 H :    0.016129
  28 C :   -0.078047
  29 H :    0.019216
  30 H :    0.024126
  31 H :    0.041182
  32 H :    0.038618
  33 H :    0.031062

  Mayer bond orders larger than 0.100000
B(  0-S ,  1-C ) :   1.1504 B(  0-S ,  4-C ) :   1.1723 B(  1-C ,  2-C ) :   1.5988
B(  1-C , 32-H ) :   0.9728 B(  2-C ,  3-C ) :   1.2442 B(  2-C ,  6-C ) :   1.0094
B(  3-C ,  4-C ) :   1.5446 B(  3-C ,  5-H ) :   1.0218 B(  4-C , 20-C ) :   1.0058
B(  6-C ,  7-H ) :   0.9452 B(  6-C ,  8-H ) :   0.9329 B(  6-C ,  9-C ) :   1.1007
B(  9-C , 10-H ) :   0.9492 B(  9-C , 11-H ) :   0.9434 B(  9-C , 12-C ) :   1.0920
B( 12-C , 13-H ) :   0.9767 B( 12-C , 14-H ) :   0.9701 B( 12-C , 15-H ) :   0.9720
B( 16-S , 17-C ) :   1.1691 B( 16-S , 20-C ) :   1.1350 B( 17-C , 18-C ) :   1.5879
B( 17-C , 20-C ) :   0.1001 B( 17-C , 33-H ) :   0.9728 B( 18-C , 19-C ) :   1.2583
B( 18-C , 21-H ) :   0.9841 B( 19-C , 20-C ) :   1.5970 B( 19-C , 22-C ) :   1.0291
B( 22-C , 23-H ) :   0.9332 B( 22-C , 24-H ) :   0.9330 B( 22-C , 25-C ) :   1.0657
B( 25-C , 26-H ) :   0.9598 B( 25-C , 27-H ) :   0.9577 B( 25-C , 28-C ) :   1.0580
B( 28-C , 29-H ) :   0.9778 B( 28-C , 30-H ) :   0.9812 B( 28-C , 31-H ) :   0.9762

Dispersion correction           -0.013572203
FINAL SINGLE POINT ENERGY     -1339.848931712022

DIPOLE MOMENT
-------------
                                X             Y             Z
Electronic contribution:    -19.54430      -0.72611     -17.08973
Nuclear contribution   :     19.93393       0.89990      17.70288
                        -----------------------------------------
Total Dipole Moment    :      0.38963       0.17378       0.61316
                        -----------------------------------------
Magnitude (a.u.)       :      0.74698
Magnitude (Debye)      :      1.89867

Rotational constants in cm-1:     0.016948     0.007829     0.006897
Rotational constants in MHz :   508.078346   234.716591   206.753782

                             ****ORCA TERMINATED NORMALLY****
TOTAL RUN TIME: 0 days 0 hours 0 minutes 29 seconds 656 msec
