                         Program Version 4.2.1 -  RELEASE  -
|  1> ! wB97X-D3 SP def2-SVP
|  2> %pal
|  3> nprocs 16
|  4> end
|  5>
|  6> * xyz 0 1
|  7> S 	 34.1972 	 17.1833 	 50.5426
|  8> C 	 35.295 	 18.6108 	 50.7258
|  9> C 	 36.4953 	 18.1941 	 51.1872
| 10> C 	 36.665 	 16.7478 	 51.0402
| 11> C 	 35.5401 	 16.1012 	 50.5842
| 12> H 	 37.4693 	 16.1201 	 51.2382
| 13> C 	 37.5948 	 19.1238 	 51.6344
| 14> H 	 38.0343 	 19.6531 	 50.7748
| 15> H 	 38.4772 	 18.5387 	 52.028
| 16> C 	 37.051 	 20.2279 	 52.5991
| 17> H 	 36.3428 	 20.8893 	 52.02
| 18> H 	 36.4432 	 19.7574 	 53.3266
| 19> C 	 38.2009 	 20.8963 	 53.3662
| 20> H 	 38.69 	 21.5367 	 52.6916
| 21> H 	 37.8409 	 21.4434 	 54.2947
| 22> H 	 38.8829 	 20.1707 	 53.7936
| 23> S 	 34.0538 	 13.8382 	 51.001
| 24> C 	 34.6364 	 12.3153 	 50.3697
| 25> C 	 35.7762 	 12.4414 	 49.6087
| 26> C 	 36.4091 	 13.7265 	 49.7524
| 27> C 	 35.5481 	 14.6401 	 50.4569
| 28> H 	 36.201 	 11.5912 	 49.1495
| 29> C 	 37.7752 	 14.0628 	 49.1209
| 30> H 	 38.5529 	 13.3448 	 49.3621
| 31> H 	 38.2222 	 15.0052 	 49.4539
| 32> C 	 37.6474 	 14.0748 	 47.5647
| 33> H 	 37.4085 	 13.0732 	 47.2476
| 34> H 	 38.5126 	 14.3858 	 47.07
| 35> C 	 36.5337 	 14.9195 	 47.066
| 36> H 	 36.6334 	 14.9737 	 45.938
| 37> H 	 36.7451 	 15.9084 	 47.4971
| 38> H 	 35.54 	 14.5639 	 47.4399
| 39> H 	 34.951 	 19.5979 	 50.5372
| 40> H 	 34.1378 	 11.3078 	 50.4484
| 41> *
| 42>
| 43>                          ****END OF INPUT****

CARTESIAN COORDINATES (ANGSTROEM)
---------------------------------
  S     34.197200   17.183300   50.542600
  C     35.295000   18.610800   50.725800
  C     36.495300   18.194100   51.187200
  C     36.665000   16.747800   51.040200
  C     35.540100   16.101200   50.584200
  H     37.469300   16.120100   51.238200
  C     37.594800   19.123800   51.634400
  H     38.034300   19.653100   50.774800
  H     38.477200   18.538700   52.028000
  C     37.051000   20.227900   52.599100
  H     36.342800   20.889300   52.020000
  H     36.443200   19.757400   53.326600
  C     38.200900   20.896300   53.366200
  H     38.690000   21.536700   52.691600
  H     37.840900   21.443400   54.294700
  H     38.882900   20.170700   53.793600
  S     34.053800   13.838200   51.001000
  C     34.636400   12.315300   50.369700
  C     35.776200   12.441400   49.608700
  C     36.409100   13.726500   49.752400
  C     35.548100   14.640100   50.456900
  H     36.201000   11.591200   49.149500
  C     37.775200   14.062800   49.120900
  H     38.552900   13.344800   49.362100
  H     38.222200   15.005200   49.453900
  C     37.647400   14.074800   47.564700
  H     37.408500   13.073200   47.247600
  H     38.512600   14.385800   47.070000
  C     36.533700   14.919500   47.066000
  H     36.633400   14.973700   45.938000
  H     36.745100   15.908400   47.497100
  H     35.540000   14.563900   47.439900
  H     34.951000   19.597900   50.537200
  H     34.137800   11.307800   50.448400

 Total Charge           Charge          ....    0
 Multiplicity           Mult            ....    1
 Number of Electrons    NEL             ....  134
 Basis Dimension        Dim             ....  322

ORBITAL ENERGIES
----------------

  NO   OCC          E(Eh)            E(eV)
   0   2.0000     -88.968713     -2420.9617
   1   2.0000     -88.963259     -2420.8134
   2   2.0000     -10.336026      -281.2576
   3   2.0000     -10.327289      -281.0198
   4   2.0000     -10.322321      -280.8846
   5   2.0000     -10.316521      -280.7268
   6   2.0000     -10.313371      -280.6411
   7   2.0000     -10.304368      -280.3961
   8   2.0000     -10.297645      -280.2132
   9   2.0000     -10.296345      -280.1778
  10   2.0000     -10.294387      -280.1245
  11   2.0000     -10.289488      -279.9912
  12   2.0000     -10.287289      -279.9314
  13   2.0000     -10.279830      -279.7284
  14   2.0000     -10.273751      -279.5630
  15   2.0000     -10.271343      -279.4974
  16   2.0000      -8.082969      -219.9488
  17   2.0000      -8.077743      -219.8066
  18   2.0000      -6.041545      -164.3988
  19   2.0000      -6.037561      -164.2904
  20   2.0000      -6.036522      -164.2621
  21   2.0000      -6.033680      -164.1848
  22   2.0000      -6.032503      -164.1528
  23   2.0000      -6.028015      -164.0306
  24   2.0000      -1.003699       -27.3120
  25   2.0000      -0.980265       -26.6744
  26   2.0000      -0.912112       -24.8198
  27   2.0000      -0.910317       -24.7710
  28   2.0000      -0.869556       -23.6618
  29   2.0000      -0.848926       -23.1005
  30   2.0000      -0.842767       -22.9329
  31   2.0000      -0.812907       -22.1203
  32   2.0000      -0.780888       -21.2490
  33   2.0000      -0.770447       -20.9649
  34   2.0000      -0.710031       -19.3209
  35   2.0000      -0.696993       -18.9661
  36   2.0000      -0.684254       -18.6195
  37   2.0000      -0.658216       -17.9110
  38   2.0000      -0.644540       -17.5388
  39   2.0000      -0.614401       -16.7187
  40   2.0000      -0.596512       -16.2319
  41   2.0000      -0.567565       -15.4442
  42   2.0000      -0.564854       -15.3705
  43   2.0000      -0.553146       -15.0519
  44   2.0000      -0.547401       -14.8955
  45   2.0000      -0.527263       -14.3476
  46   2.0000      -0.517730       -14.0881
  47   2.0000      -0.505647       -13.7593
  48   2.0000      -0.504335       -13.7236
  49   2.0000      -0.497547       -13.5389
  50   2.0000      -0.494567       -13.4578
  51   2.0000      -0.475887       -12.9496
  52   2.0000      -0.469788       -12.7836
  53   2.0000      -0.460317       -12.5259
  54   2.0000      -0.454231       -12.3603
  55   2.0000      -0.453418       -12.3381
  56   2.0000      -0.446721       -12.1559
  57   2.0000      -0.432400       -11.7662
  58   2.0000      -0.430891       -11.7251
  59   2.0000      -0.424981       -11.5643
  60   2.0000      -0.416458       -11.3324
  61   2.0000      -0.414249       -11.2723
  62   2.0000      -0.409752       -11.1499
  63   2.0000      -0.353453        -9.6180
  64   2.0000      -0.333388        -9.0720
  65   2.0000      -0.325559        -8.8589
  66   2.0000      -0.283899        -7.7253
  67   0.0000       0.025106         0.6832
  68   0.0000       0.065584         1.7846
  69   0.0000       0.101303         2.7566
  70   0.0000       0.114677         3.1205
  71   0.0000       0.134217         3.6522

MULLIKEN ATOMIC CHARGES
-----------------------
   0 S :    0.089147
   1 C :   -0.136285
   2 C :   -0.018785
   3 C :    0.007510
   4 C :   -0.086875
   5 H :   -0.009481
   6 C :    0.031843
   7 H :    0.042669
   8 H :    0.028993
   9 C :   -0.098825
  10 H :    0.039690
  11 H :    0.026496
  12 C :   -0.032653
  13 H :    0.026791
  14 H :    0.041578
  15 H :    0.029727
  16 S :    0.101387
  17 C :   -0.101944
  18 C :   -0.021517
  19 C :   -0.066908
  20 C :   -0.178067
  21 H :    0.011530
  22 C :    0.081172
  23 H :    0.031092
  24 H :    0.018090
  25 C :   -0.062988
  26 H :    0.015336
  27 H :    0.015085
  28 C :   -0.072317
  29 H :    0.042137
  30 H :    0.028903
  31 H :    0.059058
  32 H :    0.043196
  33 H :    0.075215
Sum of atomic charges:    0.0000000

LOEWDIN ATOMIC CHARGES
----------------------
   0 S :    0.375919
   1 C :   -0.168718
   2 C :   -0.054014
   3 C :   -0.062983
   4 C :   -0.196105
   5 H :    0.017779
   6 C :   -0.038483
   7 H :    0.035119
   8 H :    0.033473
   9 C :   -0.040005
  10 H :    0.028391
  11 H :    0.017904
  12 C :   -0.062963
  13 H :    0.017369
  14 H :    0.034674
  15 H :    0.025989
  16 S :    0.393587
  17 C :   -0.191552
  18 C :   -0.068905
  19 C :   -0.047254
  20 C :   -0.181643
  21 H :    0.026371
  22 C :   -0.030074
  23 H :    0.032140
  24 H :    0.026552
  25 C :   -0.038615
  26 H :    0.016292
  27 H :    0.015649
  28 C :   -0.068873
  29 H :    0.032265
  30 H :    0.024434
  31 H :    0.031410
  32 H :    0.021765
  33 H :    0.043104

  Mayer bond orders larger than 0.100000
B(  0-S ,  1-C ) :   1.1007 B(  0-S ,  4-C ) :   1.1345 B(  1-C ,  2-C ) :   1.6249
B(  1-C , 32-H ) :   0.9845 B(  2-C ,  3-C ) :   1.1820 B(  2-C ,  6-C ) :   1.0277
B(  3-C ,  4-C ) :   1.5821 B(  3-C ,  5-H ) :   1.0089 B(  4-C , 20-C ) :   1.0686
B(  6-C ,  7-H ) :   0.9367 B(  6-C ,  8-H ) :   0.9500 B(  6-C ,  9-C ) :   1.0412
B(  9-C , 10-H ) :   0.9532 B(  9-C , 11-H ) :   0.9665 B(  9-C , 12-C ) :   1.0791
B( 12-C , 13-H ) :   0.9768 B( 12-C , 14-H ) :   0.9755 B( 12-C , 15-H ) :   0.9740
B( 16-S , 17-C ) :   1.1463 B( 16-S , 20-C ) :   1.1375 B( 17-C , 18-C ) :   1.6310
B( 17-C , 33-H ) :   0.9582 B( 18-C , 19-C ) :   1.2421 B( 18-C , 21-H ) :   0.9876
B( 19-C , 20-C ) :   1.5654 B( 19-C , 22-C ) :   1.0370 B( 22-C , 23-H ) :   0.9377
B( 22-C , 24-H ) :   0.9398 B( 22-C , 25-C ) :   1.0659 B( 25-C , 26-H ) :   0.9543
B( 25-C , 27-H ) :   0.9566 B( 25-C , 28-C ) :   1.0820 B( 28-C , 29-H ) :   0.9716
B( 28-C , 30-H ) :   0.9758 B( 28-C , 31-H ) :   0.9665

Dispersion correction           -0.014723405
FINAL SINGLE POINT ENERGY     -1339.859408456869

DIPOLE MOMENT
-------------
                                X             Y             Z
Electronic contribution:    -20.06647     -12.46762       3.63720
Nuclear contribution   :     20.75311      12.52111      -3.71554
                        -----------------------------------------
Total Dipole Moment    :      0.68664       0.05349      -0.07834
                        -----------------------------------------
Magnitude (a.u.)       :      0.69316
Magnitude (Debye)      :      1.76187

Rotational constants in cm-1:     0.022860     0.007548     0.006615
Rotational constants in MHz :   685.313371   226.285051   198.321168

                             ****ORCA TERMINATED NORMALLY****
TOTAL RUN TIME: 0 days 0 hours 0 minutes 36 seconds 140 msec
