                         Program Version 4.2.1 -  RELEASE  -
|  1> ! wB97X-D3 SP def2-SVP
|  2> %pal
|  3> nprocs 16
|  4> end
|  5>
|  6> * xyz 0 1
|  7> S 	 50.552 	 4.97805 	 89.5967
|  8> C 	 52.1971 	 4.74726 	 89.2805
|  9> C 	 52.7268 	 3.52932 	 89.6442
| 10> C 	 51.7131 	 2.8479 	 90.3454
| 11> C 	 50.4796 	 3.38288 	 90.408
| 12> H 	 51.7773 	 1.94682 	 90.9064
| 13> C 	 54.1355 	 3.05258 	 89.5362
| 14> H 	 54.3037 	 2.25228 	 90.2834
| 15> H 	 54.7574 	 3.88767 	 89.8123
| 16> C 	 54.5893 	 2.52818 	 88.1501
| 17> H 	 53.8572 	 1.82664 	 87.7629
| 18> H 	 54.5273 	 3.39678 	 87.5337
| 19> C 	 56.0125 	 2.03966 	 88.1299
| 20> H 	 55.9502 	 1.04879 	 88.5066
| 21> H 	 56.3439 	 1.80993 	 87.0903
| 22> H 	 56.7135 	 2.61017 	 88.705
| 23> S 	 48.0083 	 4.00711 	 91.5245
| 24> C 	 46.8632 	 2.76218 	 92.0573
| 25> C 	 47.4547 	 1.55565 	 91.8229
| 26> C 	 48.7294 	 1.57411 	 91.1208
| 27> C 	 49.2175 	 2.8755 	 90.9555
| 28> H 	 47.0493 	 0.604411 	 92.1778
| 29> C 	 49.6314 	 0.328998 	 91.0836
| 30> H 	 49.101 	 -0.419071 	 91.682
| 31> H 	 50.6424 	 0.489522 	 91.4048
| 32> C 	 49.6672 	 -0.410851 	 89.6761
| 33> H 	 48.69 	 -0.425478 	 89.2015
| 34> H 	 49.9567 	 -1.39388 	 89.8502
| 35> C 	 50.7421 	 0.117914 	 88.7538
| 36> H 	 51.6849 	 0.307285 	 89.2698
| 37> H 	 50.5837 	 1.16148 	 88.3755
| 38> H 	 50.8856 	 -0.462081 	 87.846
| 39> H 	 52.7227 	 5.56527 	 88.8846
| 40> H 	 45.7904 	 2.8758 	 92.3369
| 41> *
| 42>
| 43>                          ****END OF INPUT****

CARTESIAN COORDINATES (ANGSTROEM)
---------------------------------
  S     50.552000    4.978050   89.596700
  C     52.197100    4.747260   89.280500
  C     52.726800    3.529320   89.644200
  C     51.713100    2.847900   90.345400
  C     50.479600    3.382880   90.408000
  H     51.777300    1.946820   90.906400
  C     54.135500    3.052580   89.536200
  H     54.303700    2.252280   90.283400
  H     54.757400    3.887670   89.812300
  C     54.589300    2.528180   88.150100
  H     53.857200    1.826640   87.762900
  H     54.527300    3.396780   87.533700
  C     56.012500    2.039660   88.129900
  H     55.950200    1.048790   88.506600
  H     56.343900    1.809930   87.090300
  H     56.713500    2.610170   88.705000
  S     48.008300    4.007110   91.524500
  C     46.863200    2.762180   92.057300
  C     47.454700    1.555650   91.822900
  C     48.729400    1.574110   91.120800
  C     49.217500    2.875500   90.955500
  H     47.049300    0.604411   92.177800
  C     49.631400    0.328998   91.083600
  H     49.101000   -0.419071   91.682000
  H     50.642400    0.489522   91.404800
  C     49.667200   -0.410851   89.676100
  H     48.690000   -0.425478   89.201500
  H     49.956700   -1.393880   89.850200
  C     50.742100    0.117914   88.753800
  H     51.684900    0.307285   89.269800
  H     50.583700    1.161480   88.375500
  H     50.885600   -0.462081   87.846000
  H     52.722700    5.565270   88.884600
  H     45.790400    2.875800   92.336900

 Total Charge           Charge          ....    0
 Multiplicity           Mult            ....    1
 Number of Electrons    NEL             ....  134
 Basis Dimension        Dim             ....  322

ORBITAL ENERGIES
----------------

  NO   OCC          E(Eh)            E(eV)
   0   2.0000     -88.964240     -2420.8400
   1   2.0000     -88.963616     -2420.8231
   2   2.0000     -10.333206      -281.1808
   3   2.0000     -10.327809      -281.0340
   4   2.0000     -10.322690      -280.8947
   5   2.0000     -10.310223      -280.5554
   6   2.0000     -10.305148      -280.4173
   7   2.0000     -10.300690      -280.2960
   8   2.0000     -10.297124      -280.1990
   9   2.0000     -10.296998      -280.1956
  10   2.0000     -10.294013      -280.1143
  11   2.0000     -10.288240      -279.9572
  12   2.0000     -10.283528      -279.8290
  13   2.0000     -10.280321      -279.7417
  14   2.0000     -10.276944      -279.6499
  15   2.0000     -10.271186      -279.4932
  16   2.0000      -8.079353      -219.8504
  17   2.0000      -8.078655      -219.8314
  18   2.0000      -6.037707      -164.2944
  19   2.0000      -6.037389      -164.2857
  20   2.0000      -6.033745      -164.1865
  21   2.0000      -6.033049      -164.1676
  22   2.0000      -6.030184      -164.0896
  23   2.0000      -6.029323      -164.0662
  24   2.0000      -1.011418       -27.5221
  25   2.0000      -0.987132       -26.8612
  26   2.0000      -0.916693       -24.9445
  27   2.0000      -0.904513       -24.6130
  28   2.0000      -0.874523       -23.7970
  29   2.0000      -0.859414       -23.3858
  30   2.0000      -0.844235       -22.9728
  31   2.0000      -0.822750       -22.3882
  32   2.0000      -0.781992       -21.2791
  33   2.0000      -0.770917       -20.9777
  34   2.0000      -0.707830       -19.2610
  35   2.0000      -0.704803       -19.1787
  36   2.0000      -0.693982       -18.8842
  37   2.0000      -0.665758       -18.1162
  38   2.0000      -0.649935       -17.6856
  39   2.0000      -0.625603       -17.0235
  40   2.0000      -0.596086       -16.2203
  41   2.0000      -0.572328       -15.5738
  42   2.0000      -0.566915       -15.4265
  43   2.0000      -0.545103       -14.8330
  44   2.0000      -0.542784       -14.7699
  45   2.0000      -0.528998       -14.3948
  46   2.0000      -0.521495       -14.1906
  47   2.0000      -0.515268       -14.0212
  48   2.0000      -0.508443       -13.8355
  49   2.0000      -0.504139       -13.7183
  50   2.0000      -0.493353       -13.4248
  51   2.0000      -0.479472       -13.0471
  52   2.0000      -0.471392       -12.8272
  53   2.0000      -0.469008       -12.7623
  54   2.0000      -0.464888       -12.6502
  55   2.0000      -0.451020       -12.2729
  56   2.0000      -0.443483       -12.0678
  57   2.0000      -0.438683       -11.9372
  58   2.0000      -0.433902       -11.8071
  59   2.0000      -0.423144       -11.5143
  60   2.0000      -0.420082       -11.4310
  61   2.0000      -0.412967       -11.2374
  62   2.0000      -0.403706       -10.9854
  63   2.0000      -0.359187        -9.7740
  64   2.0000      -0.334580        -9.1044
  65   2.0000      -0.325600        -8.8600
  66   2.0000      -0.288052        -7.8383
  67   0.0000       0.020895         0.5686
  68   0.0000       0.081431         2.2158
  69   0.0000       0.100710         2.7405
  70   0.0000       0.117217         3.1896
  71   0.0000       0.131281         3.5723

MULLIKEN ATOMIC CHARGES
-----------------------
   0 S :    0.105661
   1 C :   -0.110385
   2 C :   -0.028807
   3 C :   -0.014477
   4 C :   -0.112204
   5 H :   -0.024340
   6 C :    0.054529
   7 H :    0.021536
   8 H :    0.024438
   9 C :   -0.070448
  10 H :    0.034098
  11 H :    0.013723
  12 C :   -0.009610
  13 H :    0.014478
  14 H :    0.036158
  15 H :    0.034907
  16 S :    0.087491
  17 C :   -0.099476
  18 C :   -0.041189
  19 C :   -0.015152
  20 C :   -0.137779
  21 H :    0.023893
  22 C :    0.002865
  23 H :    0.022755
  24 H :    0.035374
  25 C :   -0.016380
  26 H :    0.030833
  27 H :    0.011713
  28 C :   -0.067318
  29 H :    0.008432
  30 H :    0.038448
  31 H :    0.033505
  32 H :    0.030041
  33 H :    0.082684
Sum of atomic charges:    0.0000000

LOEWDIN ATOMIC CHARGES
----------------------
   0 S :    0.408594
   1 C :   -0.186870
   2 C :   -0.067744
   3 C :   -0.056122
   4 C :   -0.182143
   5 H :    0.022659
   6 C :   -0.029431
   7 H :    0.029625
   8 H :    0.030931
   9 C :   -0.036924
  10 H :    0.025958
  11 H :    0.016670
  12 C :   -0.063241
  13 H :    0.022739
  14 H :    0.034885
  15 H :    0.024295
  16 S :    0.392544
  17 C :   -0.193414
  18 C :   -0.071630
  19 C :   -0.067023
  20 C :   -0.188029
  21 H :    0.029947
  22 C :   -0.021678
  23 H :    0.033586
  24 H :    0.022741
  25 C :   -0.029434
  26 H :    0.026202
  27 H :    0.014075
  28 C :   -0.076405
  29 H :    0.017801
  30 H :    0.030065
  31 H :    0.023550
  32 H :    0.015080
  33 H :    0.048143

  Mayer bond orders larger than 0.100000
B(  0-S ,  1-C ) :   1.1816 B(  0-S ,  4-C ) :   1.1190 B(  1-C ,  2-C ) :   1.5766
B(  1-C , 32-H ) :   0.9727 B(  2-C ,  3-C ) :   1.2352 B(  2-C ,  6-C ) :   1.0214
B(  3-C ,  4-C ) :   1.6165 B(  3-C ,  5-H ) :   0.9950 B(  4-C , 20-C ) :   1.0547
B(  6-C ,  7-H ) :   0.9453 B(  6-C ,  8-H ) :   0.9328 B(  6-C ,  9-C ) :   1.0594
B(  9-C , 10-H ) :   0.9565 B(  9-C , 11-H ) :   0.9541 B(  9-C , 12-C ) :   1.0865
B( 12-C , 13-H ) :   0.9705 B( 12-C , 14-H ) :   0.9694 B( 12-C , 15-H ) :   0.9724
B( 16-S , 17-C ) :   1.1308 B( 16-S , 20-C ) :   1.1459 B( 17-C , 18-C ) :   1.6178
B( 17-C , 33-H ) :   0.9624 B( 18-C , 19-C ) :   1.2606 B( 18-C , 21-H ) :   0.9760
B( 19-C , 20-C ) :   1.5652 B( 19-C , 22-C ) :   1.0282 B( 22-C , 23-H ) :   0.9377
B( 22-C , 24-H ) :   0.9551 B( 22-C , 25-C ) :   1.0637 B( 25-C , 26-H ) :   0.9549
B( 25-C , 27-H ) :   0.9539 B( 25-C , 28-C ) :   1.0870 B( 28-C , 29-H ) :   0.9664
B( 28-C , 30-H ) :   0.9710 B( 28-C , 31-H ) :   0.9714

Dispersion correction           -0.015237960
FINAL SINGLE POINT ENERGY     -1339.868212099193

DIPOLE MOMENT
-------------
                                X             Y             Z
Electronic contribution:    -22.04896      20.44116      10.48349
Nuclear contribution   :     22.47292     -21.01362     -10.51235
                        -----------------------------------------
Total Dipole Moment    :      0.42396      -0.57246      -0.02886
                        -----------------------------------------
Magnitude (a.u.)       :      0.71294
Magnitude (Debye)      :      1.81216

Rotational constants in cm-1:     0.022589     0.008608     0.006616
Rotational constants in MHz :   677.210352   258.070128   198.338366

                             ****ORCA TERMINATED NORMALLY****
TOTAL RUN TIME: 0 days 0 hours 0 minutes 32 seconds 309 msec
