                         Program Version 4.2.1 -  RELEASE  -
|  1> ! wB97X-D3 SP def2-SVP
|  2> %pal
|  3> nprocs 16
|  4> end
|  5>
|  6> * xyz 0 1
|  7> S 	 43.144 	 12.2542 	 88.5775
|  8> C 	 44.4071 	 12.451 	 89.7644
|  9> C 	 45.7096 	 12.477 	 89.2161
| 10> C 	 45.6842 	 12.5711 	 87.7822
| 11> C 	 44.4008 	 12.4616 	 87.2717
| 12> H 	 46.5036 	 12.7245 	 87.1762
| 13> C 	 47.0482 	 12.5294 	 89.9443
| 14> H 	 47.8054 	 12.7456 	 89.1755
| 15> H 	 47.3072 	 11.5806 	 90.3781
| 16> C 	 47.1322 	 13.6979 	 90.8782
| 17> H 	 48.1087 	 14.3132 	 90.7733
| 18> H 	 46.3158 	 14.4746 	 90.7511
| 19> C 	 47.286 	 13.2397 	 92.3537
| 20> H 	 47.5029 	 14.0967 	 93.0136
| 21> H 	 46.3724 	 12.8677 	 92.8345
| 22> H 	 48.0345 	 12.4177 	 92.3875
| 23> S 	 43.7221 	 10.9474 	 85.1675
| 24> C 	 43.129 	 11.6854 	 83.7017
| 25> C 	 43.5856 	 12.9695 	 83.6524
| 26> C 	 44.087 	 13.3922 	 84.89
| 27> C 	 43.9435 	 12.4386 	 85.8696
| 28> H 	 43.6696 	 13.4748 	 82.6753
| 29> C 	 44.6839 	 14.7754 	 85.0262
| 30> H 	 45.6413 	 14.7937 	 84.4002
| 31> H 	 45.1164 	 14.831 	 86.1057
| 32> C 	 43.7605 	 15.9905 	 84.7412
| 33> H 	 43.4404 	 16.0019 	 83.7749
| 34> H 	 44.2931 	 16.8977 	 84.9752
| 35> C 	 42.4794 	 15.8979 	 85.6706
| 36> H 	 41.7098 	 16.6071 	 85.445
| 37> H 	 42.7067 	 16.1136 	 86.6776
| 38> H 	 42.0851 	 14.8596 	 85.573
| 39> H 	 44.4285 	 12.4304 	 90.8563
| 40> H 	 42.984 	 11.1576 	 82.7688
| 41> *
| 42>
| 43>                          ****END OF INPUT****

CARTESIAN COORDINATES (ANGSTROEM)
---------------------------------
  S     43.144000   12.254200   88.577500
  C     44.407100   12.451000   89.764400
  C     45.709600   12.477000   89.216100
  C     45.684200   12.571100   87.782200
  C     44.400800   12.461600   87.271700
  H     46.503600   12.724500   87.176200
  C     47.048200   12.529400   89.944300
  H     47.805400   12.745600   89.175500
  H     47.307200   11.580600   90.378100
  C     47.132200   13.697900   90.878200
  H     48.108700   14.313200   90.773300
  H     46.315800   14.474600   90.751100
  C     47.286000   13.239700   92.353700
  H     47.502900   14.096700   93.013600
  H     46.372400   12.867700   92.834500
  H     48.034500   12.417700   92.387500
  S     43.722100   10.947400   85.167500
  C     43.129000   11.685400   83.701700
  C     43.585600   12.969500   83.652400
  C     44.087000   13.392200   84.890000
  C     43.943500   12.438600   85.869600
  H     43.669600   13.474800   82.675300
  C     44.683900   14.775400   85.026200
  H     45.641300   14.793700   84.400200
  H     45.116400   14.831000   86.105700
  C     43.760500   15.990500   84.741200
  H     43.440400   16.001900   83.774900
  H     44.293100   16.897700   84.975200
  C     42.479400   15.897900   85.670600
  H     41.709800   16.607100   85.445000
  H     42.706700   16.113600   86.677600
  H     42.085100   14.859600   85.573000
  H     44.428500   12.430400   90.856300
  H     42.984000   11.157600   82.768800

 Total Charge           Charge          ....    0
 Multiplicity           Mult            ....    1
 Number of Electrons    NEL             ....  134
 Basis Dimension        Dim             ....  322

ORBITAL ENERGIES
----------------

  NO   OCC          E(Eh)            E(eV)
   0   2.0000     -88.972097     -2421.0538
   1   2.0000     -88.961612     -2420.7685
   2   2.0000     -10.334132      -281.2060
   3   2.0000     -10.317565      -280.7552
   4   2.0000     -10.316856      -280.7359
   5   2.0000     -10.309177      -280.5270
   6   2.0000     -10.302509      -280.3455
   7   2.0000     -10.299255      -280.2570
   8   2.0000     -10.296330      -280.1774
   9   2.0000     -10.296202      -280.1739
  10   2.0000     -10.293993      -280.1138
  11   2.0000     -10.292704      -280.0787
  12   2.0000     -10.289463      -279.9905
  13   2.0000     -10.284077      -279.8439
  14   2.0000     -10.280324      -279.7418
  15   2.0000     -10.266870      -279.3757
  16   2.0000      -8.085222      -220.0101
  17   2.0000      -8.078394      -219.8243
  18   2.0000      -6.043865      -164.4619
  19   2.0000      -6.040005      -164.3569
  20   2.0000      -6.036660      -164.2659
  21   2.0000      -6.035878      -164.2446
  22   2.0000      -6.032983      -164.1658
  23   2.0000      -6.028871      -164.0539
  24   2.0000      -1.018190       -27.7064
  25   2.0000      -0.981567       -26.7098
  26   2.0000      -0.913566       -24.8594
  27   2.0000      -0.901795       -24.5391
  28   2.0000      -0.869826       -23.6692
  29   2.0000      -0.850411       -23.1409
  30   2.0000      -0.842491       -22.9254
  31   2.0000      -0.813301       -22.1310
  32   2.0000      -0.779196       -21.2030
  33   2.0000      -0.767607       -20.8876
  34   2.0000      -0.706834       -19.2339
  35   2.0000      -0.698315       -19.0021
  36   2.0000      -0.693273       -18.8649
  37   2.0000      -0.658682       -17.9236
  38   2.0000      -0.639902       -17.4126
  39   2.0000      -0.621279       -16.9059
  40   2.0000      -0.593338       -16.1455
  41   2.0000      -0.574545       -15.6342
  42   2.0000      -0.549987       -14.9659
  43   2.0000      -0.544874       -14.8268
  44   2.0000      -0.540394       -14.7049
  45   2.0000      -0.534278       -14.5385
  46   2.0000      -0.524831       -14.2814
  47   2.0000      -0.510594       -13.8940
  48   2.0000      -0.495170       -13.4743
  49   2.0000      -0.490488       -13.3468
  50   2.0000      -0.483001       -13.1431
  51   2.0000      -0.479523       -13.0485
  52   2.0000      -0.470085       -12.7917
  53   2.0000      -0.459263       -12.4972
  54   2.0000      -0.458036       -12.4638
  55   2.0000      -0.449416       -12.2292
  56   2.0000      -0.443686       -12.0733
  57   2.0000      -0.438893       -11.9429
  58   2.0000      -0.437423       -11.9029
  59   2.0000      -0.421980       -11.4827
  60   2.0000      -0.416834       -11.3426
  61   2.0000      -0.412775       -11.2322
  62   2.0000      -0.405013       -11.0210
  63   2.0000      -0.342996        -9.3334
  64   2.0000      -0.330312        -8.9883
  65   2.0000      -0.320210        -8.7134
  66   2.0000      -0.300260        -8.1705
  67   0.0000       0.034765         0.9460
  68   0.0000       0.052618         1.4318
  69   0.0000       0.103513         2.8167
  70   0.0000       0.106527         2.8987
  71   0.0000       0.127972         3.4823

MULLIKEN ATOMIC CHARGES
-----------------------
   0 S :    0.128640
   1 C :   -0.083776
   2 C :   -0.154609
   3 C :    0.091761
   4 C :   -0.188617
   5 H :   -0.014101
   6 C :    0.119485
   7 H :    0.022027
   8 H :    0.041165
   9 C :   -0.137515
  10 H :    0.042334
  11 H :    0.055593
  12 C :   -0.078962
  13 H :    0.036280
  14 H :    0.023970
  15 H :    0.039918
  16 S :    0.120551
  17 C :   -0.072687
  18 C :   -0.064884
  19 C :   -0.043238
  20 C :   -0.157467
  21 H :    0.033921
  22 C :   -0.001893
  23 H :    0.046173
  24 H :    0.034223
  25 C :   -0.006219
  26 H :    0.011844
  27 H :    0.028882
  28 C :   -0.063206
  29 H :    0.024322
  30 H :    0.020559
  31 H :    0.050841
  32 H :    0.039985
  33 H :    0.054700
Sum of atomic charges:   -0.0000000

LOEWDIN ATOMIC CHARGES
----------------------
   0 S :    0.393238
   1 C :   -0.207468
   2 C :   -0.058346
   3 C :   -0.045261
   4 C :   -0.171186
   5 H :    0.020119
   6 C :   -0.033870
   7 H :    0.037433
   8 H :    0.031903
   9 C :   -0.055446
  10 H :    0.033435
  11 H :    0.032684
  12 C :   -0.073922
  13 H :    0.027205
  14 H :    0.017875
  15 H :    0.026767
  16 S :    0.449845
  17 C :   -0.193331
  18 C :   -0.071461
  19 C :   -0.068149
  20 C :   -0.236645
  21 H :    0.038473
  22 C :   -0.044074
  23 H :    0.038254
  24 H :    0.036459
  25 C :   -0.025299
  26 H :    0.007316
  27 H :    0.024955
  28 C :   -0.061664
  29 H :    0.020171
  30 H :    0.017867
  31 H :    0.032223
  32 H :    0.031991
  33 H :    0.027908

  Mayer bond orders larger than 0.100000
B(  0-S ,  1-C ) :   1.1378 B(  0-S ,  4-C ) :   1.1340 B(  1-C ,  2-C ) :   1.6326
B(  1-C ,  4-C ) :   0.1027 B(  1-C , 32-H ) :   0.9594 B(  2-C ,  3-C ) :   1.2301
B(  2-C ,  6-C ) :   1.0219 B(  3-C ,  4-C ) :   1.5995 B(  3-C ,  5-H ) :   1.0023
B(  4-C , 20-C ) :   1.0013 B(  6-C ,  7-H ) :   0.9399 B(  6-C ,  8-H ) :   0.9416
B(  6-C ,  9-C ) :   1.0333 B(  9-C , 10-H ) :   0.9642 B(  9-C , 11-H ) :   0.9636
B(  9-C , 12-C ) :   1.0641 B( 12-C , 13-H ) :   0.9736 B( 12-C , 14-H ) :   0.9770
B( 12-C , 15-H ) :   0.9773 B( 16-S , 17-C ) :   1.1608 B( 16-S , 20-C ) :   1.1987
B( 17-C , 18-C ) :   1.5915 B( 17-C , 20-C ) :   0.1006 B( 17-C , 33-H ) :   0.9640
B( 18-C , 19-C ) :   1.2670 B( 18-C , 21-H ) :   0.9878 B( 19-C , 20-C ) :   1.5440
B( 19-C , 22-C ) :   1.0467 B( 22-C , 23-H ) :   0.9361 B( 22-C , 24-H ) :   0.9344
B( 22-C , 25-C ) :   1.0644 B( 25-C , 26-H ) :   0.9589 B( 25-C , 27-H ) :   0.9568
B( 25-C , 28-C ) :   1.0689 B( 28-C , 29-H ) :   0.9767 B( 28-C , 30-H ) :   0.9780
B( 28-C , 31-H ) :   0.9742

Dispersion correction           -0.014804600
FINAL SINGLE POINT ENERGY     -1339.840110798065

DIPOLE MOMENT
-------------
                                X             Y             Z
Electronic contribution:    -11.78677     -18.08412     -10.37340
Nuclear contribution   :     12.49638      18.42124      10.28841
                        -----------------------------------------
Total Dipole Moment    :      0.70961       0.33712      -0.08499
                        -----------------------------------------
Magnitude (a.u.)       :      0.79020
Magnitude (Debye)      :      2.00854

Rotational constants in cm-1:     0.022597     0.007645     0.006768
Rotational constants in MHz :   677.441555   229.192036   202.890428

                             ****ORCA TERMINATED NORMALLY****
TOTAL RUN TIME: 0 days 0 hours 0 minutes 30 seconds 633 msec
