                         Program Version 4.2.1 -  RELEASE  -
|  1> ! wB97X-D3 SP def2-SVP
|  2> %pal
|  3> nprocs 16
|  4> end
|  5>
|  6> * xyz 0 1
|  7> S 	 -7.89237 	 61.997 	 57.3793
|  8> C 	 -6.47861 	 61.2784 	 58.1966
|  9> C 	 -6.63493 	 59.9382 	 58.3474
| 10> C 	 -7.91976 	 59.4819 	 57.8249
| 11> C 	 -8.72506 	 60.4539 	 57.2046
| 12> H 	 -8.31102 	 58.5203 	 58.0111
| 13> C 	 -5.66321 	 59.0974 	 59.1912
| 14> H 	 -5.98616 	 59.1253 	 60.2512
| 15> H 	 -4.76659 	 59.6318 	 59.2545
| 16> C 	 -5.46184 	 57.6654 	 58.592
| 17> H 	 -4.87448 	 57.0385 	 59.2824
| 18> H 	 -6.38707 	 57.1285 	 58.5175
| 19> C 	 -4.76316 	 57.7192 	 57.1945
| 20> H 	 -5.41496 	 58.1588 	 56.4936
| 21> H 	 -3.83783 	 58.2809 	 57.2102
| 22> H 	 -4.61072 	 56.7565 	 56.7667
| 23> S 	 -10.3223 	 58.7538 	 55.7993
| 24> C 	 -11.9384 	 59.2836 	 55.388
| 25> C 	 -12.321 	 60.3142 	 56.2139
| 26> C 	 -11.2732 	 60.9214 	 56.9591
| 27> C 	 -10.0638 	 60.2161 	 56.7864
| 28> H 	 -13.3666 	 60.742 	 56.1999
| 29> C 	 -11.5259 	 62.0354 	 57.926
| 30> H 	 -11.5455 	 62.9168 	 57.2593
| 31> H 	 -10.5673 	 62.1703 	 58.5166
| 32> C 	 -12.7359 	 61.8844 	 58.8715
| 33> H 	 -13.6494 	 61.7556 	 58.3659
| 34> H 	 -12.7289 	 62.719 	 59.5103
| 35> C 	 -12.6474 	 60.6918 	 59.8284
| 36> H 	 -13.0717 	 60.8759 	 60.9141
| 37> H 	 -11.5849 	 60.3815 	 60.045
| 38> H 	 -13.0607 	 59.8907 	 59.3687
| 39> H 	 -5.67986 	 61.8155 	 58.5544
| 40> H 	 -12.7139 	 58.7063 	 54.8791
| 41> *
| 42>
| 43>                          ****END OF INPUT****

CARTESIAN COORDINATES (ANGSTROEM)
---------------------------------
  S     -7.892370   61.997000   57.379300
  C     -6.478610   61.278400   58.196600
  C     -6.634930   59.938200   58.347400
  C     -7.919760   59.481900   57.824900
  C     -8.725060   60.453900   57.204600
  H     -8.311020   58.520300   58.011100
  C     -5.663210   59.097400   59.191200
  H     -5.986160   59.125300   60.251200
  H     -4.766590   59.631800   59.254500
  C     -5.461840   57.665400   58.592000
  H     -4.874480   57.038500   59.282400
  H     -6.387070   57.128500   58.517500
  C     -4.763160   57.719200   57.194500
  H     -5.414960   58.158800   56.493600
  H     -3.837830   58.280900   57.210200
  H     -4.610720   56.756500   56.766700
  S    -10.322300   58.753800   55.799300
  C    -11.938400   59.283600   55.388000
  C    -12.321000   60.314200   56.213900
  C    -11.273200   60.921400   56.959100
  C    -10.063800   60.216100   56.786400
  H    -13.366600   60.742000   56.199900
  C    -11.525900   62.035400   57.926000
  H    -11.545500   62.916800   57.259300
  H    -10.567300   62.170300   58.516600
  C    -12.735900   61.884400   58.871500
  H    -13.649400   61.755600   58.365900
  H    -12.728900   62.719000   59.510300
  C    -12.647400   60.691800   59.828400
  H    -13.071700   60.875900   60.914100
  H    -11.584900   60.381500   60.045000
  H    -13.060700   59.890700   59.368700
  H     -5.679860   61.815500   58.554400
  H    -12.713900   58.706300   54.879100

 Total Charge           Charge          ....    0
 Multiplicity           Mult            ....    1
 Number of Electrons    NEL             ....  134
 Basis Dimension        Dim             ....  322

ORBITAL ENERGIES
----------------

  NO   OCC          E(Eh)            E(eV)
   0   2.0000     -88.967279     -2420.9227
   1   2.0000     -88.966778     -2420.9091
   2   2.0000     -10.333147      -281.1792
   3   2.0000     -10.330218      -281.0995
   4   2.0000     -10.318712      -280.7864
   5   2.0000     -10.309526      -280.5365
   6   2.0000     -10.304514      -280.4001
   7   2.0000     -10.302804      -280.3536
   8   2.0000     -10.297286      -280.2034
   9   2.0000     -10.296213      -280.1742
  10   2.0000     -10.295276      -280.1487
  11   2.0000     -10.294049      -280.1153
  12   2.0000     -10.290780      -280.0264
  13   2.0000     -10.282482      -279.8006
  14   2.0000     -10.276704      -279.6433
  15   2.0000     -10.268686      -279.4251
  16   2.0000      -8.081399      -219.9060
  17   2.0000      -8.080392      -219.8786
  18   2.0000      -6.040005      -164.3569
  19   2.0000      -6.039117      -164.3327
  20   2.0000      -6.036127      -164.2514
  21   2.0000      -6.034988      -164.2204
  22   2.0000      -6.031944      -164.1375
  23   2.0000      -6.031034      -164.1128
  24   2.0000      -1.003988       -27.3199
  25   2.0000      -0.980410       -26.6783
  26   2.0000      -0.911338       -24.7988
  27   2.0000      -0.907291       -24.6886
  28   2.0000      -0.873339       -23.7648
  29   2.0000      -0.851176       -23.1617
  30   2.0000      -0.837827       -22.7984
  31   2.0000      -0.812338       -22.1048
  32   2.0000      -0.784710       -21.3530
  33   2.0000      -0.773385       -21.0449
  34   2.0000      -0.717870       -19.5342
  35   2.0000      -0.704320       -19.1655
  36   2.0000      -0.695199       -18.9173
  37   2.0000      -0.663952       -18.0670
  38   2.0000      -0.636704       -17.3256
  39   2.0000      -0.614680       -16.7263
  40   2.0000      -0.597893       -16.2695
  41   2.0000      -0.567858       -15.4522
  42   2.0000      -0.553257       -15.0549
  43   2.0000      -0.551121       -14.9968
  44   2.0000      -0.546841       -14.8803
  45   2.0000      -0.533869       -14.5273
  46   2.0000      -0.518592       -14.1116
  47   2.0000      -0.515892       -14.0381
  48   2.0000      -0.503148       -13.6914
  49   2.0000      -0.493177       -13.4200
  50   2.0000      -0.486198       -13.2301
  51   2.0000      -0.478174       -13.0118
  52   2.0000      -0.469295       -12.7702
  53   2.0000      -0.464036       -12.6271
  54   2.0000      -0.457138       -12.4394
  55   2.0000      -0.445955       -12.1351
  56   2.0000      -0.440643       -11.9905
  57   2.0000      -0.437347       -11.9008
  58   2.0000      -0.434012       -11.8101
  59   2.0000      -0.432668       -11.7735
  60   2.0000      -0.425478       -11.5779
  61   2.0000      -0.415332       -11.3018
  62   2.0000      -0.409170       -11.1341
  63   2.0000      -0.355133        -9.6637
  64   2.0000      -0.330312        -8.9882
  65   2.0000      -0.327031        -8.8990
  66   2.0000      -0.285820        -7.7775
  67   0.0000       0.019443         0.5291
  68   0.0000       0.072665         1.9773
  69   0.0000       0.100763         2.7419
  70   0.0000       0.122553         3.3348
  71   0.0000       0.133145         3.6231

MULLIKEN ATOMIC CHARGES
-----------------------
   0 S :    0.098826
   1 C :   -0.107388
   2 C :   -0.078782
   3 C :   -0.001931
   4 C :   -0.102191
   5 H :   -0.000177
   6 C :    0.095542
   7 H :    0.048931
   8 H :   -0.002432
   9 C :   -0.083806
  10 H :    0.028207
  11 H :    0.028985
  12 C :   -0.024441
  13 H :    0.028033
  14 H :    0.031405
  15 H :    0.023318
  16 S :    0.104557
  17 C :   -0.076223
  18 C :   -0.077264
  19 C :   -0.052894
  20 C :   -0.177005
  21 H :    0.040083
  22 C :    0.040554
  23 H :    0.043679
  24 H :    0.033802
  25 C :   -0.011161
  26 H :    0.023362
  27 H :    0.024633
  28 C :   -0.079233
  29 H :    0.051041
  30 H :    0.032711
  31 H :    0.016197
  32 H :    0.016255
  33 H :    0.064806
Sum of atomic charges:   -0.0000000

LOEWDIN ATOMIC CHARGES
----------------------
   0 S :    0.388455
   1 C :   -0.173671
   2 C :   -0.057628
   3 C :   -0.064578
   4 C :   -0.190854
   5 H :    0.016286
   6 C :   -0.025177
   7 H :    0.039585
   8 H :    0.020191
   9 C :   -0.036912
  10 H :    0.023978
  11 H :    0.020204
  12 C :   -0.057839
  13 H :    0.022211
  14 H :    0.025229
  15 H :    0.023271
  16 S :    0.400107
  17 C :   -0.190890
  18 C :   -0.079307
  19 C :   -0.059188
  20 C :   -0.186175
  21 H :    0.039314
  22 C :   -0.038665
  23 H :    0.038695
  24 H :    0.031893
  25 C :   -0.030565
  26 H :    0.018094
  27 H :    0.024499
  28 C :   -0.066649
  29 H :    0.040223
  30 H :    0.030704
  31 H :    0.007567
  32 H :    0.012345
  33 H :    0.035248

  Mayer bond orders larger than 0.100000
B(  0-S ,  1-C ) :   1.1226 B(  0-S ,  4-C ) :   1.1254 B(  1-C ,  2-C ) :   1.6286
B(  1-C , 32-H ) :   0.9784 B(  2-C ,  3-C ) :   1.2278 B(  2-C ,  6-C ) :   1.0169
B(  3-C ,  4-C ) :   1.5491 B(  3-C ,  5-H ) :   0.9943 B(  4-C , 20-C ) :   1.0892
B(  6-C ,  7-H ) :   0.9407 B(  6-C ,  8-H ) :   0.9379 B(  6-C ,  9-C ) :   1.0618
B(  9-C , 10-H ) :   0.9591 B(  9-C , 11-H ) :   0.9583 B(  9-C , 12-C ) :   1.0722
B( 12-C , 13-H ) :   0.9730 B( 12-C , 14-H ) :   0.9775 B( 12-C , 15-H ) :   0.9734
B( 16-S , 17-C ) :   1.1472 B( 16-S , 20-C ) :   1.1331 B( 17-C , 18-C ) :   1.6162
B( 17-C , 20-C ) :   0.1017 B( 17-C , 33-H ) :   0.9592 B( 18-C , 19-C ) :   1.2538
B( 18-C , 21-H ) :   0.9723 B( 19-C , 20-C ) :   1.5554 B( 19-C , 22-C ) :   1.0306
B( 22-C , 23-H ) :   0.9266 B( 22-C , 24-H ) :   0.9334 B( 22-C , 25-C ) :   1.0806
B( 25-C , 26-H ) :   0.9585 B( 25-C , 27-H ) :   0.9548 B( 25-C , 28-C ) :   1.0616
B( 28-C , 29-H ) :   0.9773 B( 28-C , 30-H ) :   0.9756 B( 28-C , 31-H ) :   0.9771

Dispersion correction           -0.014798467
FINAL SINGLE POINT ENERGY     -1339.861160226179

DIPOLE MOMENT
-------------
                                X             Y             Z
Electronic contribution:     -2.20675       5.26609     -13.15471
Nuclear contribution   :      2.06879      -5.37861      13.66681
                        -----------------------------------------
Total Dipole Moment    :     -0.13796      -0.11253       0.51210
                        -----------------------------------------
Magnitude (a.u.)       :      0.54216
Magnitude (Debye)      :      1.37806

Rotational constants in cm-1:     0.021373     0.008147     0.007120
Rotational constants in MHz :   640.740068   244.232417   213.463744

                             ****ORCA TERMINATED NORMALLY****
TOTAL RUN TIME: 0 days 0 hours 0 minutes 36 seconds 638 msec
