                         Program Version 4.2.1 -  RELEASE  -
|  1> ! wB97X-D3 SP def2-SVP
|  2> %pal
|  3> nprocs 16
|  4> end
|  5>
|  6> * xyz 0 1
|  7> S 	 -104.622 	 57.0097 	 118.872
|  8> C 	 -104.248 	 58.0023 	 117.464
|  9> C 	 -103.757 	 59.2347 	 117.813
| 10> C 	 -103.459 	 59.2496 	 119.215
| 11> C 	 -104.04 	 58.2492 	 119.948
| 12> H 	 -102.931 	 60.055 	 119.765
| 13> C 	 -103.36 	 60.2575 	 116.868
| 14> H 	 -103.037 	 59.7448 	 115.957
| 15> H 	 -102.422 	 60.6299 	 117.312
| 16> C 	 -104.286 	 61.3739 	 116.56
| 17> H 	 -104.743 	 61.7219 	 117.512
| 18> H 	 -103.719 	 62.2015 	 116.135
| 19> C 	 -105.317 	 60.9365 	 115.511
| 20> H 	 -105.623 	 59.8252 	 115.551
| 21> H 	 -106.24 	 61.4556 	 115.754
| 22> H 	 -104.981 	 61.1652 	 114.499
| 23> S 	 -102.568 	 58.16 	 122.225
| 24> C 	 -103.335 	 58.0077 	 123.749
| 25> C 	 -104.783 	 57.9843 	 123.639
| 26> C 	 -105.184 	 57.9877 	 122.275
| 27> C 	 -104.121 	 58.1018 	 121.41
| 28> H 	 -105.329 	 57.9619 	 124.557
| 29> C 	 -106.614 	 57.9889 	 121.806
| 30> H 	 -107.183 	 57.4875 	 122.588
| 31> H 	 -106.64 	 57.4853 	 120.884
| 32> C 	 -107.232 	 59.3993 	 121.624
| 33> H 	 -106.576 	 60.0196 	 120.979
| 34> H 	 -107.442 	 59.8485 	 122.594
| 35> C 	 -108.472 	 59.2125 	 120.712
| 36> H 	 -108.727 	 60.1622 	 120.247
| 37> H 	 -109.414 	 58.8829 	 121.208
| 38> H 	 -108.349 	 58.5051 	 119.92
| 39> H 	 -104.31 	 57.8375 	 116.385
| 40> H 	 -102.798 	 58.0126 	 124.722
| 41> *
| 42>
| 43>                          ****END OF INPUT****

CARTESIAN COORDINATES (ANGSTROEM)
---------------------------------
  S    -104.622000   57.009700  118.872000
  C    -104.248000   58.002300  117.464000
  C    -103.757000   59.234700  117.813000
  C    -103.459000   59.249600  119.215000
  C    -104.040000   58.249200  119.948000
  H    -102.931000   60.055000  119.765000
  C    -103.360000   60.257500  116.868000
  H    -103.037000   59.744800  115.957000
  H    -102.422000   60.629900  117.312000
  C    -104.286000   61.373900  116.560000
  H    -104.743000   61.721900  117.512000
  H    -103.719000   62.201500  116.135000
  C    -105.317000   60.936500  115.511000
  H    -105.623000   59.825200  115.551000
  H    -106.240000   61.455600  115.754000
  H    -104.981000   61.165200  114.499000
  S    -102.568000   58.160000  122.225000
  C    -103.335000   58.007700  123.749000
  C    -104.783000   57.984300  123.639000
  C    -105.184000   57.987700  122.275000
  C    -104.121000   58.101800  121.410000
  H    -105.329000   57.961900  124.557000
  C    -106.614000   57.988900  121.806000
  H    -107.183000   57.487500  122.588000
  H    -106.640000   57.485300  120.884000
  C    -107.232000   59.399300  121.624000
  H    -106.576000   60.019600  120.979000
  H    -107.442000   59.848500  122.594000
  C    -108.472000   59.212500  120.712000
  H    -108.727000   60.162200  120.247000
  H    -109.414000   58.882900  121.208000
  H    -108.349000   58.505100  119.920000
  H    -104.310000   57.837500  116.385000
  H    -102.798000   58.012600  124.722000

 Total Charge           Charge          ....    0
 Multiplicity           Mult            ....    1
 Number of Electrons    NEL             ....  134
 Basis Dimension        Dim             ....  322

ORBITAL ENERGIES
----------------

  NO   OCC          E(Eh)            E(eV)
   0   2.0000     -88.968943     -2420.9680
   1   2.0000     -88.968018     -2420.9428
   2   2.0000     -10.328296      -281.0472
   3   2.0000     -10.323120      -280.9064
   4   2.0000     -10.321992      -280.8757
   5   2.0000     -10.311433      -280.5884
   6   2.0000     -10.301539      -280.3191
   7   2.0000     -10.298290      -280.2307
   8   2.0000     -10.294393      -280.1247
   9   2.0000     -10.294040      -280.1151
  10   2.0000     -10.288084      -279.9530
  11   2.0000     -10.287387      -279.9340
  12   2.0000     -10.284122      -279.8452
  13   2.0000     -10.283213      -279.8204
  14   2.0000     -10.282903      -279.8120
  15   2.0000     -10.273037      -279.5435
  16   2.0000      -8.083830      -219.9722
  17   2.0000      -8.082093      -219.9249
  18   2.0000      -6.042136      -164.4149
  19   2.0000      -6.040783      -164.3781
  20   2.0000      -6.038241      -164.3089
  21   2.0000      -6.036674      -164.2662
  22   2.0000      -6.034887      -164.2176
  23   2.0000      -6.032708      -164.1583
  24   2.0000      -1.008566       -27.4445
  25   2.0000      -0.986138       -26.8342
  26   2.0000      -0.924252       -25.1502
  27   2.0000      -0.909184       -24.7402
  28   2.0000      -0.866286       -23.5728
  29   2.0000      -0.852700       -23.2031
  30   2.0000      -0.846080       -23.0230
  31   2.0000      -0.809320       -22.0227
  32   2.0000      -0.782752       -21.2998
  33   2.0000      -0.771811       -21.0020
  34   2.0000      -0.706630       -19.2284
  35   2.0000      -0.699833       -19.0434
  36   2.0000      -0.689567       -18.7641
  37   2.0000      -0.667451       -18.1623
  38   2.0000      -0.632691       -17.2164
  39   2.0000      -0.618684       -16.8352
  40   2.0000      -0.592101       -16.1119
  41   2.0000      -0.576324       -15.6826
  42   2.0000      -0.570075       -15.5125
  43   2.0000      -0.551060       -14.9951
  44   2.0000      -0.541766       -14.7422
  45   2.0000      -0.518566       -14.1109
  46   2.0000      -0.517483       -14.0814
  47   2.0000      -0.515639       -14.0313
  48   2.0000      -0.504905       -13.7392
  49   2.0000      -0.489873       -13.3301
  50   2.0000      -0.489019       -13.3069
  51   2.0000      -0.476349       -12.9621
  52   2.0000      -0.471993       -12.8436
  53   2.0000      -0.466513       -12.6945
  54   2.0000      -0.462523       -12.5859
  55   2.0000      -0.446090       -12.1387
  56   2.0000      -0.442566       -12.0428
  57   2.0000      -0.437789       -11.9129
  58   2.0000      -0.432444       -11.7674
  59   2.0000      -0.426293       -11.6000
  60   2.0000      -0.423256       -11.5174
  61   2.0000      -0.414682       -11.2841
  62   2.0000      -0.412348       -11.2206
  63   2.0000      -0.339230        -9.2309
  64   2.0000      -0.332487        -9.0474
  65   2.0000      -0.329687        -8.9712
  66   2.0000      -0.291352        -7.9281
  67   0.0000       0.034906         0.9498
  68   0.0000       0.065310         1.7772
  69   0.0000       0.107052         2.9130
  70   0.0000       0.119973         3.2646
  71   0.0000       0.125086         3.4038

MULLIKEN ATOMIC CHARGES
-----------------------
   0 S :    0.118222
   1 C :   -0.104810
   2 C :   -0.108601
   3 C :    0.013169
   4 C :   -0.147757
   5 H :    0.021047
   6 C :    0.037030
   7 H :    0.017716
   8 H :    0.019752
   9 C :   -0.021982
  10 H :    0.032662
  11 H :    0.032999
  12 C :   -0.082293
  13 H :    0.037280
  14 H :    0.034015
  15 H :    0.041493
  16 S :    0.130898
  17 C :   -0.122887
  18 C :   -0.056076
  19 C :   -0.012821
  20 C :   -0.176839
  21 H :    0.013836
  22 C :    0.109532
  23 H :    0.022634
  24 H :   -0.001973
  25 C :   -0.061121
  26 H :    0.039592
  27 H :    0.037154
  28 C :   -0.055037
  29 H :    0.025766
  30 H :    0.027226
  31 H :    0.027477
  32 H :    0.041038
  33 H :    0.071662
Sum of atomic charges:   -0.0000000

LOEWDIN ATOMIC CHARGES
----------------------
   0 S :    0.407563
   1 C :   -0.200237
   2 C :   -0.066540
   3 C :   -0.070179
   4 C :   -0.199259
   5 H :    0.032402
   6 C :   -0.042100
   7 H :    0.030855
   8 H :    0.035167
   9 C :   -0.039313
  10 H :    0.028580
  11 H :    0.028927
  12 C :   -0.071931
  13 H :    0.031266
  14 H :    0.027318
  15 H :    0.025923
  16 S :    0.434704
  17 C :   -0.206353
  18 C :   -0.070418
  19 C :   -0.054886
  20 C :   -0.204912
  21 H :    0.028479
  22 C :   -0.024744
  23 H :    0.032059
  24 H :    0.014378
  25 C :   -0.029946
  26 H :    0.030705
  27 H :    0.025438
  28 C :   -0.069098
  29 H :    0.023183
  30 H :    0.025227
  31 H :    0.021731
  32 H :    0.031507
  33 H :    0.034505

  Mayer bond orders larger than 0.100000
B(  0-S ,  1-C ) :   1.1209 B(  0-S ,  4-C ) :   1.1412 B(  1-C ,  2-C ) :   1.6367
B(  1-C , 32-H ) :   0.9578 B(  2-C ,  3-C ) :   1.2263 B(  2-C ,  6-C ) :   1.0329
B(  3-C ,  4-C ) :   1.6056 B(  3-C ,  5-H ) :   0.9814 B(  4-C , 20-C ) :   1.0072
B(  6-C ,  7-H ) :   0.9374 B(  6-C ,  8-H ) :   0.9301 B(  6-C ,  9-C ) :   1.0714
B(  9-C , 10-H ) :   0.9576 B(  9-C , 11-H ) :   0.9522 B(  9-C , 12-C ) :   1.0603
B( 12-C , 13-H ) :   0.9771 B( 12-C , 14-H ) :   0.9752 B( 12-C , 15-H ) :   0.9760
B( 16-S , 17-C ) :   1.1918 B( 16-S , 20-C ) :   1.1534 B( 17-C , 18-C ) :   1.5639
B( 17-C , 20-C ) :   0.1078 B( 17-C , 33-H ) :   0.9634 B( 18-C , 19-C ) :   1.2481
B( 18-C , 21-H ) :   1.0001 B( 19-C , 20-C ) :   1.5773 B( 19-C , 22-C ) :   1.0552
B( 22-C , 23-H ) :   0.9257 B( 22-C , 24-H ) :   0.9247 B( 22-C , 25-C ) :   1.0739
B( 25-C , 26-H ) :   0.9604 B( 25-C , 27-H ) :   0.9559 B( 25-C , 28-C ) :   1.0694
B( 28-C , 29-H ) :   0.9776 B( 28-C , 30-H ) :   0.9747 B( 28-C , 31-H ) :   0.9767

Dispersion correction           -0.014689408
FINAL SINGLE POINT ENERGY     -1339.873426072669

DIPOLE MOMENT
-------------
                                X             Y             Z
Electronic contribution:     16.55579     -15.26727      12.86954
Nuclear contribution   :    -16.69045      15.76813     -12.95122
                        -----------------------------------------
Total Dipole Moment    :     -0.13465       0.50086      -0.08167
                        -----------------------------------------
Magnitude (a.u.)       :      0.52503
Magnitude (Debye)      :      1.33453

Rotational constants in cm-1:     0.019438     0.008897     0.007361
Rotational constants in MHz :   582.737867   266.716294   220.678459

                             ****ORCA TERMINATED NORMALLY****
TOTAL RUN TIME: 0 days 0 hours 0 minutes 34 seconds 73 msec
