                         Program Version 4.2.1 -  RELEASE  -
|  1> ! wB97X-D3 SP def2-SVP
|  2> %pal
|  3> nprocs 16
|  4> end
|  5>
|  6> * xyz 0 1
|  7> S 	 -11.161 	 -2.61278 	 79.9183
|  8> C 	 -10.2917 	 -2.35051 	 81.4452
|  9> C 	 -11.0765 	 -1.83823 	 82.4722
| 10> C 	 -12.3808 	 -1.59258 	 81.9186
| 11> C 	 -12.6014 	 -1.84918 	 80.5897
| 12> H 	 -13.1541 	 -1.14787 	 82.4942
| 13> C 	 -10.5503 	 -1.47222 	 83.8534
| 14> H 	 -10.2863 	 -0.401497 	 83.8974
| 15> H 	 -9.56629 	 -1.9231 	 83.9487
| 16> C 	 -11.4255 	 -1.97677 	 84.9823
| 17> H 	 -12.4241 	 -1.5613 	 84.8329
| 18> H 	 -11.5232 	 -3.08829 	 84.9695
| 19> C 	 -10.8713 	 -1.67252 	 86.4259
| 20> H 	 -9.93954 	 -2.28217 	 86.5421
| 21> H 	 -10.6295 	 -0.633676 	 86.5489
| 22> H 	 -11.6369 	 -1.88502 	 87.0872
| 23> S 	 -13.5242 	 -1.05321 	 78.1543
| 24> C 	 -15.1928 	 -0.634637 	 77.8299
| 25> C 	 -15.8964 	 -0.925971 	 78.9447
| 26> C 	 -15.1255 	 -1.42757 	 80.0877
| 27> C 	 -13.7748 	 -1.55261 	 79.7951
| 28> H 	 -16.9632 	 -0.860913 	 78.9427
| 29> C 	 -15.8964 	 -1.97603 	 81.3087
| 30> H 	 -15.1732 	 -2.4028 	 82.0373
| 31> H 	 -16.4775 	 -2.80261 	 80.9962
| 32> C 	 -16.8749 	 -1.08196 	 82.1127
| 33> H 	 -17.4856 	 -1.71822 	 82.7863
| 34> H 	 -17.6623 	 -0.633336 	 81.4594
| 35> C 	 -16.1369 	 -0.0317628 	 82.8792
| 36> H 	 -16.8349 	 0.649644 	 83.3982
| 37> H 	 -15.598 	 0.607221 	 82.2225
| 38> H 	 -15.4511 	 -0.591843 	 83.5085
| 39> H 	 -9.23035 	 -2.49092 	 81.6729
| 40> H 	 -15.6526 	 -0.196927 	 76.9753
| 41> *
| 42>
| 43>                          ****END OF INPUT****

CARTESIAN COORDINATES (ANGSTROEM)
---------------------------------
  S    -11.161000   -2.612780   79.918300
  C    -10.291700   -2.350510   81.445200
  C    -11.076500   -1.838230   82.472200
  C    -12.380800   -1.592580   81.918600
  C    -12.601400   -1.849180   80.589700
  H    -13.154100   -1.147870   82.494200
  C    -10.550300   -1.472220   83.853400
  H    -10.286300   -0.401497   83.897400
  H     -9.566290   -1.923100   83.948700
  C    -11.425500   -1.976770   84.982300
  H    -12.424100   -1.561300   84.832900
  H    -11.523200   -3.088290   84.969500
  C    -10.871300   -1.672520   86.425900
  H     -9.939540   -2.282170   86.542100
  H    -10.629500   -0.633676   86.548900
  H    -11.636900   -1.885020   87.087200
  S    -13.524200   -1.053210   78.154300
  C    -15.192800   -0.634637   77.829900
  C    -15.896400   -0.925971   78.944700
  C    -15.125500   -1.427570   80.087700
  C    -13.774800   -1.552610   79.795100
  H    -16.963200   -0.860913   78.942700
  C    -15.896400   -1.976030   81.308700
  H    -15.173200   -2.402800   82.037300
  H    -16.477500   -2.802610   80.996200
  C    -16.874900   -1.081960   82.112700
  H    -17.485600   -1.718220   82.786300
  H    -17.662300   -0.633336   81.459400
  C    -16.136900   -0.031763   82.879200
  H    -16.834900    0.649644   83.398200
  H    -15.598000    0.607221   82.222500
  H    -15.451100   -0.591843   83.508500
  H     -9.230350   -2.490920   81.672900
  H    -15.652600   -0.196927   76.975300

 Total Charge           Charge          ....    0
 Multiplicity           Mult            ....    1
 Number of Electrons    NEL             ....  134
 Basis Dimension        Dim             ....  322

ORBITAL ENERGIES
----------------

  NO   OCC          E(Eh)            E(eV)
   0   2.0000     -88.969061     -2420.9712
   1   2.0000     -88.962051     -2420.7805
   2   2.0000     -10.332239      -281.1545
   3   2.0000     -10.331386      -281.1313
   4   2.0000     -10.316689      -280.7314
   5   2.0000     -10.315519      -280.6995
   6   2.0000     -10.308751      -280.5154
   7   2.0000     -10.303561      -280.3742
   8   2.0000     -10.297773      -280.2166
   9   2.0000     -10.293150      -280.0909
  10   2.0000     -10.292467      -280.0723
  11   2.0000     -10.292129      -280.0631
  12   2.0000     -10.291637      -280.0497
  13   2.0000     -10.289573      -279.9935
  14   2.0000     -10.279455      -279.7182
  15   2.0000     -10.273463      -279.5551
  16   2.0000      -8.082930      -219.9477
  17   2.0000      -8.077366      -219.7963
  18   2.0000      -6.041623      -164.4009
  19   2.0000      -6.037665      -164.2932
  20   2.0000      -6.036084      -164.2502
  21   2.0000      -6.033430      -164.1780
  22   2.0000      -6.031651      -164.1296
  23   2.0000      -6.027962      -164.0292
  24   2.0000      -1.008387       -27.4396
  25   2.0000      -0.983659       -26.7667
  26   2.0000      -0.913775       -24.8651
  27   2.0000      -0.909986       -24.7620
  28   2.0000      -0.874649       -23.8004
  29   2.0000      -0.850097       -23.1323
  30   2.0000      -0.841913       -22.9096
  31   2.0000      -0.820657       -22.3312
  32   2.0000      -0.784983       -21.3605
  33   2.0000      -0.776080       -21.1182
  34   2.0000      -0.715398       -19.4670
  35   2.0000      -0.695225       -18.9180
  36   2.0000      -0.692135       -18.8339
  37   2.0000      -0.659445       -17.9444
  38   2.0000      -0.641066       -17.4443
  39   2.0000      -0.622522       -16.9397
  40   2.0000      -0.597917       -16.2702
  41   2.0000      -0.571512       -15.5516
  42   2.0000      -0.566322       -15.4104
  43   2.0000      -0.556707       -15.1488
  44   2.0000      -0.545115       -14.8333
  45   2.0000      -0.531822       -14.4716
  46   2.0000      -0.522645       -14.2219
  47   2.0000      -0.512763       -13.9530
  48   2.0000      -0.507209       -13.8019
  49   2.0000      -0.499412       -13.5897
  50   2.0000      -0.493137       -13.4189
  51   2.0000      -0.485861       -13.2210
  52   2.0000      -0.468936       -12.7604
  53   2.0000      -0.463417       -12.6102
  54   2.0000      -0.457982       -12.4623
  55   2.0000      -0.449260       -12.2250
  56   2.0000      -0.442270       -12.0348
  57   2.0000      -0.439815       -11.9680
  58   2.0000      -0.431663       -11.7462
  59   2.0000      -0.427804       -11.6411
  60   2.0000      -0.420012       -11.4291
  61   2.0000      -0.417311       -11.3556
  62   2.0000      -0.408069       -11.1041
  63   2.0000      -0.360746        -9.8164
  64   2.0000      -0.333069        -9.0633
  65   2.0000      -0.324948        -8.8423
  66   2.0000      -0.289997        -7.8912
  67   0.0000       0.024515         0.6671
  68   0.0000       0.080993         2.2039
  69   0.0000       0.107776         2.9327
  70   0.0000       0.119770         3.2591
  71   0.0000       0.126821         3.4510

MULLIKEN ATOMIC CHARGES
-----------------------
   0 S :    0.112647
   1 C :   -0.118590
   2 C :   -0.096305
   3 C :    0.024072
   4 C :   -0.113954
   5 H :   -0.030936
   6 C :    0.099737
   7 H :    0.047553
   8 H :    0.002953
   9 C :   -0.141097
  10 H :    0.033637
  11 H :    0.043775
  12 C :   -0.011035
  13 H :    0.042801
  14 H :    0.023392
  15 H :    0.026821
  16 S :    0.086454
  17 C :   -0.063206
  18 C :   -0.031932
  19 C :   -0.040554
  20 C :   -0.121962
  21 H :    0.010541
  22 C :    0.035905
  23 H :    0.020418
  24 H :    0.030525
  25 C :   -0.095489
  26 H :    0.028450
  27 H :    0.024112
  28 C :   -0.020282
  29 H :    0.035758
  30 H :    0.031612
  31 H :    0.028994
  32 H :    0.044792
  33 H :    0.050389
Sum of atomic charges:   -0.0000000

LOEWDIN ATOMIC CHARGES
----------------------
   0 S :    0.388236
   1 C :   -0.188929
   2 C :   -0.060283
   3 C :   -0.059111
   4 C :   -0.186366
   5 H :    0.017919
   6 C :   -0.033835
   7 H :    0.038102
   8 H :    0.027985
   9 C :   -0.042157
  10 H :    0.019560
  11 H :    0.032234
  12 C :   -0.055358
  13 H :    0.032792
  14 H :    0.020513
  15 H :    0.018193
  16 S :    0.406711
  17 C :   -0.180624
  18 C :   -0.067618
  19 C :   -0.061139
  20 C :   -0.197137
  21 H :    0.024919
  22 C :   -0.032491
  23 H :    0.030619
  24 H :    0.029627
  25 C :   -0.045054
  26 H :    0.026295
  27 H :    0.020807
  28 C :   -0.062949
  29 H :    0.029829
  30 H :    0.022494
  31 H :    0.022565
  32 H :    0.030440
  33 H :    0.033211

  Mayer bond orders larger than 0.100000
B(  0-S ,  1-C ) :   1.1312 B(  0-S ,  4-C ) :   1.1193 B(  1-C ,  2-C ) :   1.6417
B(  1-C , 32-H ) :   0.9564 B(  2-C ,  3-C ) :   1.2318 B(  2-C ,  6-C ) :   1.0246
B(  3-C ,  4-C ) :   1.6042 B(  3-C ,  5-H ) :   0.9929 B(  4-C , 20-C ) :   1.0552
B(  6-C ,  7-H ) :   0.9356 B(  6-C ,  8-H ) :   0.9308 B(  6-C ,  9-C ) :   1.0550
B(  9-C , 10-H ) :   0.9593 B(  9-C , 11-H ) :   0.9582 B(  9-C , 12-C ) :   1.0810
B( 12-C , 13-H ) :   0.9763 B( 12-C , 14-H ) :   0.9759 B( 12-C , 15-H ) :   0.9746
B( 16-S , 17-C ) :   1.1314 B( 16-S , 20-C ) :   1.1367 B( 17-C , 18-C ) :   1.6304
B( 17-C , 33-H ) :   0.9732 B( 18-C , 19-C ) :   1.2252 B( 18-C , 21-H ) :   0.9904
B( 19-C , 20-C ) :   1.5937 B( 19-C , 22-C ) :   1.0283 B( 22-C , 23-H ) :   0.9421
B( 22-C , 24-H ) :   0.9383 B( 22-C , 25-C ) :   1.0764 B( 25-C , 26-H ) :   0.9534
B( 25-C , 27-H ) :   0.9520 B( 25-C , 28-C ) :   1.0770 B( 28-C , 29-H ) :   0.9697
B( 28-C , 30-H ) :   0.9743 B( 28-C , 31-H ) :   0.9694

Dispersion correction           -0.014084763
FINAL SINGLE POINT ENERGY     -1339.880389233630

DIPOLE MOMENT
-------------
                                X             Y             Z
Electronic contribution:      7.76121      -3.94900     -30.93472
Nuclear contribution   :     -8.12511       4.12103      31.59710
                        -----------------------------------------
Total Dipole Moment    :     -0.36390       0.17203       0.66238
                        -----------------------------------------
Magnitude (a.u.)       :      0.77509
Magnitude (Debye)      :      1.97012

Rotational constants in cm-1:     0.017983     0.009045     0.006325
Rotational constants in MHz :   539.123005   271.165620   189.603888

                             ****ORCA TERMINATED NORMALLY****
TOTAL RUN TIME: 0 days 0 hours 0 minutes 34 seconds 374 msec
