                         Program Version 4.2.1 -  RELEASE  -
|  1> ! wB97X-D3 SP def2-SVP
|  2> %pal
|  3> nprocs 16
|  4> end
|  5>
|  6> * xyz 0 1
|  7> S 	 -37.9792 	 69.5329 	 172.356
|  8> C 	 -37.1467 	 69.8697 	 170.817
|  9> C 	 -35.8682 	 69.3753 	 170.849
| 10> C 	 -35.5573 	 68.7332 	 172.101
| 11> C 	 -36.5973 	 68.6 	 172.99
| 12> H 	 -34.6214 	 68.2574 	 172.401
| 13> C 	 -34.8263 	 69.6326 	 169.83
| 14> H 	 -34.6014 	 68.736 	 169.178
| 15> H 	 -33.8827 	 69.8502 	 170.365
| 16> C 	 -35.0933 	 70.7892 	 168.901
| 17> H 	 -36.0729 	 70.8984 	 168.45
| 18> H 	 -34.9779 	 71.7169 	 169.432
| 19> C 	 -34.027 	 70.771 	 167.823
| 20> H 	 -34.2955 	 71.3544 	 166.99
| 21> H 	 -33.0548 	 71.1467 	 168.197
| 22> H 	 -33.8992 	 69.8177 	 167.356
| 23> S 	 -37.1651 	 68.8338 	 175.743
| 24> C 	 -36.6981 	 67.485 	 176.744
| 25> C 	 -36.2585 	 66.4219 	 176.006
| 26> C 	 -36.2251 	 66.6871 	 174.599
| 27> C 	 -36.6132 	 67.9738 	 174.258
| 28> H 	 -35.8979 	 65.547 	 176.421
| 29> C 	 -35.7801 	 65.6196 	 173.594
| 30> H 	 -35.7822 	 65.9936 	 172.511
| 31> H 	 -36.6816 	 64.9443 	 173.479
| 32> C 	 -34.4161 	 64.786 	 173.838
| 33> H 	 -34.4831 	 63.8758 	 173.226
| 34> H 	 -34.3386 	 64.4946 	 174.892
| 35> C 	 -33.2216 	 65.6174 	 173.464
| 36> H 	 -33.323 	 66.6397 	 173.964
| 37> H 	 -33.2047 	 65.7829 	 172.428
| 38> H 	 -32.2575 	 65.1817 	 173.711
| 39> H 	 -37.406 	 70.6142 	 170.15
| 40> H 	 -36.7232 	 67.4223 	 177.828
| 41> *
| 42>
| 43>                          ****END OF INPUT****

CARTESIAN COORDINATES (ANGSTROEM)
---------------------------------
  S    -37.979200   69.532900  172.356000
  C    -37.146700   69.869700  170.817000
  C    -35.868200   69.375300  170.849000
  C    -35.557300   68.733200  172.101000
  C    -36.597300   68.600000  172.990000
  H    -34.621400   68.257400  172.401000
  C    -34.826300   69.632600  169.830000
  H    -34.601400   68.736000  169.178000
  H    -33.882700   69.850200  170.365000
  C    -35.093300   70.789200  168.901000
  H    -36.072900   70.898400  168.450000
  H    -34.977900   71.716900  169.432000
  C    -34.027000   70.771000  167.823000
  H    -34.295500   71.354400  166.990000
  H    -33.054800   71.146700  168.197000
  H    -33.899200   69.817700  167.356000
  S    -37.165100   68.833800  175.743000
  C    -36.698100   67.485000  176.744000
  C    -36.258500   66.421900  176.006000
  C    -36.225100   66.687100  174.599000
  C    -36.613200   67.973800  174.258000
  H    -35.897900   65.547000  176.421000
  C    -35.780100   65.619600  173.594000
  H    -35.782200   65.993600  172.511000
  H    -36.681600   64.944300  173.479000
  C    -34.416100   64.786000  173.838000
  H    -34.483100   63.875800  173.226000
  H    -34.338600   64.494600  174.892000
  C    -33.221600   65.617400  173.464000
  H    -33.323000   66.639700  173.964000
  H    -33.204700   65.782900  172.428000
  H    -32.257500   65.181700  173.711000
  H    -37.406000   70.614200  170.150000
  H    -36.723200   67.422300  177.828000

 Total Charge           Charge          ....    0
 Multiplicity           Mult            ....    1
 Number of Electrons    NEL             ....  134
 Basis Dimension        Dim             ....  322

ORBITAL ENERGIES
----------------

  NO   OCC          E(Eh)            E(eV)
   0   2.0000     -88.967830     -2420.9377
   1   2.0000     -88.960200     -2420.7301
   2   2.0000     -10.328124      -281.0425
   3   2.0000     -10.327687      -281.0307
   4   2.0000     -10.321342      -280.8580
   5   2.0000     -10.308700      -280.5140
   6   2.0000     -10.308261      -280.5020
   7   2.0000     -10.304464      -280.3987
   8   2.0000     -10.299053      -280.2515
   9   2.0000     -10.296557      -280.1836
  10   2.0000     -10.294054      -280.1155
  11   2.0000     -10.292997      -280.0867
  12   2.0000     -10.289550      -279.9929
  13   2.0000     -10.282616      -279.8042
  14   2.0000     -10.277966      -279.6777
  15   2.0000     -10.272063      -279.5170
  16   2.0000      -8.081912      -219.9200
  17   2.0000      -8.074176      -219.7095
  18   2.0000      -6.040576      -164.3724
  19   2.0000      -6.036565      -164.2633
  20   2.0000      -6.032886      -164.1632
  21   2.0000      -6.032471      -164.1519
  22   2.0000      -6.028827      -164.0527
  23   2.0000      -6.024732      -163.9413
  24   2.0000      -1.003771       -27.3140
  25   2.0000      -0.981153       -26.6985
  26   2.0000      -0.921286       -25.0695
  27   2.0000      -0.901680       -24.5360
  28   2.0000      -0.876742       -23.8574
  29   2.0000      -0.853138       -23.2151
  30   2.0000      -0.844442       -22.9784
  31   2.0000      -0.817133       -22.2353
  32   2.0000      -0.780233       -21.2312
  33   2.0000      -0.768913       -20.9232
  34   2.0000      -0.719057       -19.5665
  35   2.0000      -0.706483       -19.2244
  36   2.0000      -0.696802       -18.9609
  37   2.0000      -0.660609       -17.9761
  38   2.0000      -0.642544       -17.4845
  39   2.0000      -0.612704       -16.6725
  40   2.0000      -0.598518       -16.2865
  41   2.0000      -0.579537       -15.7700
  42   2.0000      -0.570758       -15.5311
  43   2.0000      -0.551194       -14.9988
  44   2.0000      -0.541191       -14.7266
  45   2.0000      -0.522897       -14.2287
  46   2.0000      -0.521344       -14.1865
  47   2.0000      -0.516735       -14.0611
  48   2.0000      -0.507135       -13.7998
  49   2.0000      -0.498096       -13.5539
  50   2.0000      -0.485995       -13.2246
  51   2.0000      -0.479451       -13.0465
  52   2.0000      -0.469975       -12.7887
  53   2.0000      -0.465939       -12.6788
  54   2.0000      -0.458711       -12.4822
  55   2.0000      -0.447647       -12.1811
  56   2.0000      -0.444426       -12.0934
  57   2.0000      -0.436648       -11.8818
  58   2.0000      -0.431535       -11.7427
  59   2.0000      -0.426505       -11.6058
  60   2.0000      -0.423990       -11.5374
  61   2.0000      -0.420176       -11.4336
  62   2.0000      -0.410568       -11.1721
  63   2.0000      -0.347993        -9.4694
  64   2.0000      -0.332279        -9.0418
  65   2.0000      -0.325010        -8.8440
  66   2.0000      -0.293596        -7.9891
  67   0.0000       0.025407         0.6913
  68   0.0000       0.068469         1.8631
  69   0.0000       0.111488         3.0337
  70   0.0000       0.122072         3.3217
  71   0.0000       0.127029         3.4566

MULLIKEN ATOMIC CHARGES
-----------------------
   0 S :    0.082990
   1 C :   -0.079372
   2 C :   -0.078729
   3 C :    0.032891
   4 C :   -0.164709
   5 H :    0.001420
   6 C :    0.048026
   7 H :    0.045352
   8 H :    0.034817
   9 C :   -0.101153
  10 H :    0.033574
  11 H :    0.026876
  12 C :   -0.019244
  13 H :    0.011213
  14 H :    0.033618
  15 H :    0.016559
  16 S :    0.110642
  17 C :   -0.073676
  18 C :   -0.004286
  19 C :   -0.013834
  20 C :   -0.149238
  21 H :   -0.011512
  22 C :   -0.030261
  23 H :    0.041369
  24 H :    0.048660
  25 C :   -0.056477
  26 H :    0.036662
  27 H :    0.033468
  28 C :   -0.049090
  29 H :    0.050491
  30 H :    0.019173
  31 H :    0.035886
  32 H :    0.028421
  33 H :    0.059472
Sum of atomic charges:    0.0000000

LOEWDIN ATOMIC CHARGES
----------------------
   0 S :    0.368487
   1 C :   -0.178381
   2 C :   -0.063055
   3 C :   -0.060640
   4 C :   -0.178308
   5 H :    0.030279
   6 C :   -0.036888
   7 H :    0.039004
   8 H :    0.039125
   9 C :   -0.044730
  10 H :    0.021999
  11 H :    0.025799
  12 C :   -0.058826
  13 H :    0.019471
  14 H :    0.029093
  15 H :    0.020022
  16 S :    0.387654
  17 C :   -0.173965
  18 C :   -0.066015
  19 C :   -0.047306
  20 C :   -0.192888
  21 H :    0.018463
  22 C :   -0.048518
  23 H :    0.038683
  24 H :    0.041349
  25 C :   -0.036487
  26 H :    0.028027
  27 H :    0.021671
  28 C :   -0.068427
  29 H :    0.035286
  30 H :    0.015830
  31 H :    0.025776
  32 H :    0.013592
  33 H :    0.034823

  Mayer bond orders larger than 0.100000
B(  0-S ,  1-C ) :   1.1146 B(  0-S ,  4-C ) :   1.1189 B(  1-C ,  2-C ) :   1.6456
B(  1-C , 32-H ) :   0.9617 B(  2-C ,  3-C ) :   1.2149 B(  2-C ,  6-C ) :   1.0168
B(  3-C ,  4-C ) :   1.5987 B(  3-C ,  5-H ) :   0.9916 B(  4-C , 20-C ) :   1.0887
B(  6-C ,  7-H ) :   0.9327 B(  6-C ,  8-H ) :   0.9429 B(  6-C ,  9-C ) :   1.0739
B(  9-C , 10-H ) :   0.9512 B(  9-C , 11-H ) :   0.9520 B(  9-C , 12-C ) :   1.0936
B( 12-C , 13-H ) :   0.9695 B( 12-C , 14-H ) :   0.9745 B( 12-C , 15-H ) :   0.9735
B( 16-S , 17-C ) :   1.1511 B( 16-S , 20-C ) :   1.1051 B( 17-C , 18-C ) :   1.6196
B( 17-C , 33-H ) :   0.9635 B( 18-C , 19-C ) :   1.2302 B( 18-C , 21-H ) :   1.0008
B( 19-C , 20-C ) :   1.5942 B( 19-C , 22-C ) :   1.0388 B( 22-C , 23-H ) :   0.9388
B( 22-C , 24-H ) :   0.9340 B( 22-C , 25-C ) :   1.0492 B( 25-C , 26-H ) :   0.9536
B( 25-C , 27-H ) :   0.9609 B( 25-C , 28-C ) :   1.0785 B( 28-C , 29-H ) :   0.9707
B( 28-C , 30-H ) :   0.9719 B( 28-C , 31-H ) :   0.9709

Dispersion correction           -0.014253825
FINAL SINGLE POINT ENERGY     -1339.875715999652

DIPOLE MOMENT
-------------
                                X             Y             Z
Electronic contribution:    -21.17987       6.61465      19.39657
Nuclear contribution   :     21.86955      -6.96236     -19.62818
                        -----------------------------------------
Total Dipole Moment    :      0.68968      -0.34770      -0.23161
                        -----------------------------------------
Magnitude (a.u.)       :      0.80635
Magnitude (Debye)      :      2.04958

Rotational constants in cm-1:     0.020275     0.008034     0.006211
Rotational constants in MHz :   607.837049   240.866017   186.205004

                             ****ORCA TERMINATED NORMALLY****
TOTAL RUN TIME: 0 days 0 hours 0 minutes 29 seconds 931 msec
