                         Program Version 4.2.1 -  RELEASE  -
|  1> ! wB97X-D3 SP def2-SVP
|  2> %pal
|  3> nprocs 16
|  4> end
|  5>
|  6> * xyz 0 1
|  7> S 	 1.95541 	 77.5309 	 47.8166
|  8> C 	 2.91864 	 76.0714 	 47.9453
|  9> C 	 4.25767 	 76.4066 	 47.8051
| 10> C 	 4.49596 	 77.8064 	 47.5717
| 11> C 	 3.30527 	 78.6128 	 47.5246
| 12> H 	 5.40714 	 78.2865 	 47.4607
| 13> C 	 5.42441 	 75.3785 	 47.8965
| 14> H 	 6.05004 	 75.471 	 47.0181
| 15> H 	 5.02661 	 74.398 	 47.7574
| 16> C 	 6.18698 	 75.3707 	 49.1627
| 17> H 	 6.99862 	 74.6537 	 48.9892
| 18> H 	 6.63464 	 76.351 	 49.3325
| 19> C 	 5.33401 	 75.1552 	 50.3881
| 20> H 	 5.92342 	 75.2983 	 51.3033
| 21> H 	 4.60348 	 75.9604 	 50.3639
| 22> H 	 4.80965 	 74.212 	 50.531
| 23> S 	 3.11259 	 80.4656 	 45.6207
| 24> C 	 3.04019 	 82.1783 	 46.0366
| 25> C 	 3.19013 	 82.2784 	 47.3972
| 26> C 	 3.38612 	 81.033 	 48.1275
| 27> C 	 3.33153 	 79.9901 	 47.2444
| 28> H 	 3.05946 	 83.3067 	 47.8243
| 29> C 	 3.68228 	 81.0639 	 49.5905
| 30> H 	 3.61414 	 80.0518 	 49.9518
| 31> H 	 2.90746 	 81.6321 	 50.1778
| 32> C 	 5.00515 	 81.6245 	 49.9168
| 33> H 	 5.19649 	 81.3693 	 50.9406
| 34> H 	 5.059 	 82.7635 	 49.9228
| 35> C 	 6.2559 	 81.0436 	 49.1645
| 36> H 	 6.11822 	 79.9901 	 49.2935
| 37> H 	 7.20396 	 81.2827 	 49.6713
| 38> H 	 6.26188 	 81.3623 	 48.1756
| 39> H 	 2.58694 	 75.0826 	 48.1104
| 40> H 	 2.8163 	 83.0204 	 45.4262
| 41> *
| 42>
| 43>                          ****END OF INPUT****

CARTESIAN COORDINATES (ANGSTROEM)
---------------------------------
  S      1.955410   77.530900   47.816600
  C      2.918640   76.071400   47.945300
  C      4.257670   76.406600   47.805100
  C      4.495960   77.806400   47.571700
  C      3.305270   78.612800   47.524600
  H      5.407140   78.286500   47.460700
  C      5.424410   75.378500   47.896500
  H      6.050040   75.471000   47.018100
  H      5.026610   74.398000   47.757400
  C      6.186980   75.370700   49.162700
  H      6.998620   74.653700   48.989200
  H      6.634640   76.351000   49.332500
  C      5.334010   75.155200   50.388100
  H      5.923420   75.298300   51.303300
  H      4.603480   75.960400   50.363900
  H      4.809650   74.212000   50.531000
  S      3.112590   80.465600   45.620700
  C      3.040190   82.178300   46.036600
  C      3.190130   82.278400   47.397200
  C      3.386120   81.033000   48.127500
  C      3.331530   79.990100   47.244400
  H      3.059460   83.306700   47.824300
  C      3.682280   81.063900   49.590500
  H      3.614140   80.051800   49.951800
  H      2.907460   81.632100   50.177800
  C      5.005150   81.624500   49.916800
  H      5.196490   81.369300   50.940600
  H      5.059000   82.763500   49.922800
  C      6.255900   81.043600   49.164500
  H      6.118220   79.990100   49.293500
  H      7.203960   81.282700   49.671300
  H      6.261880   81.362300   48.175600
  H      2.586940   75.082600   48.110400
  H      2.816300   83.020400   45.426200

 Total Charge           Charge          ....    0
 Multiplicity           Mult            ....    1
 Number of Electrons    NEL             ....  134
 Basis Dimension        Dim             ....  322

ORBITAL ENERGIES
----------------

  NO   OCC          E(Eh)            E(eV)
   0   2.0000     -88.969479     -2420.9826
   1   2.0000     -88.963778     -2420.8275
   2   2.0000     -10.329805      -281.0883
   3   2.0000     -10.320157      -280.8257
   4   2.0000     -10.315403      -280.6964
   5   2.0000     -10.315357      -280.6951
   6   2.0000     -10.303322      -280.3677
   7   2.0000     -10.302699      -280.3507
   8   2.0000     -10.295709      -280.1605
   9   2.0000     -10.293907      -280.1115
  10   2.0000     -10.290922      -280.0302
  11   2.0000     -10.285467      -279.8818
  12   2.0000     -10.285311      -279.8775
  13   2.0000     -10.281986      -279.7871
  14   2.0000     -10.272916      -279.5403
  15   2.0000     -10.271132      -279.4917
  16   2.0000      -8.083343      -219.9590
  17   2.0000      -8.079223      -219.8468
  18   2.0000      -6.041900      -164.4085
  19   2.0000      -6.037862      -164.2986
  20   2.0000      -6.037708      -164.2944
  21   2.0000      -6.034338      -164.2027
  22   2.0000      -6.033544      -164.1811
  23   2.0000      -6.029849      -164.0805
  24   2.0000      -1.010987       -27.5104
  25   2.0000      -0.982093       -26.7241
  26   2.0000      -0.918627       -24.9971
  27   2.0000      -0.917240       -24.9594
  28   2.0000      -0.877101       -23.8671
  29   2.0000      -0.844393       -22.9771
  30   2.0000      -0.841761       -22.9055
  31   2.0000      -0.813255       -22.1298
  32   2.0000      -0.788323       -21.4513
  33   2.0000      -0.781805       -21.2740
  34   2.0000      -0.715372       -19.4663
  35   2.0000      -0.694039       -18.8858
  36   2.0000      -0.692552       -18.8453
  37   2.0000      -0.657644       -17.8954
  38   2.0000      -0.645892       -17.5756
  39   2.0000      -0.616601       -16.7786
  40   2.0000      -0.597677       -16.2636
  41   2.0000      -0.576280       -15.6814
  42   2.0000      -0.556683       -15.1481
  43   2.0000      -0.551556       -15.0086
  44   2.0000      -0.551071       -14.9954
  45   2.0000      -0.541163       -14.7258
  46   2.0000      -0.522633       -14.2216
  47   2.0000      -0.517477       -14.0813
  48   2.0000      -0.511560       -13.9203
  49   2.0000      -0.497501       -13.5377
  50   2.0000      -0.488491       -13.2925
  51   2.0000      -0.483652       -13.1608
  52   2.0000      -0.473108       -12.8739
  53   2.0000      -0.462350       -12.5812
  54   2.0000      -0.460688       -12.5360
  55   2.0000      -0.449462       -12.2305
  56   2.0000      -0.439704       -11.9650
  57   2.0000      -0.437203       -11.8969
  58   2.0000      -0.432656       -11.7732
  59   2.0000      -0.418118       -11.3776
  60   2.0000      -0.413703       -11.2574
  61   2.0000      -0.411599       -11.2002
  62   2.0000      -0.409066       -11.1312
  63   2.0000      -0.334659        -9.1065
  64   2.0000      -0.327439        -8.9101
  65   2.0000      -0.319630        -8.6976
  66   2.0000      -0.316044        -8.6000
  67   0.0000       0.042397         1.1537
  68   0.0000       0.052411         1.4262
  69   0.0000       0.113787         3.0963
  70   0.0000       0.126141         3.4325
  71   0.0000       0.132675         3.6103

MULLIKEN ATOMIC CHARGES
-----------------------
   0 S :    0.128789
   1 C :   -0.101233
   2 C :   -0.113246
   3 C :    0.054990
   4 C :   -0.175084
   5 H :   -0.011140
   6 C :    0.099960
   7 H :    0.026424
   8 H :   -0.002930
   9 C :   -0.046527
  10 H :    0.031178
  11 H :    0.021785
  12 C :   -0.059620
  13 H :    0.030428
  14 H :    0.039839
  15 H :    0.027597
  16 S :    0.122341
  17 C :   -0.086276
  18 C :   -0.062171
  19 C :   -0.018418
  20 C :   -0.206789
  21 H :    0.033467
  22 C :    0.116910
  23 H :    0.017293
  24 H :    0.040775
  25 C :   -0.116529
  26 H :    0.020160
  27 H :    0.035037
  28 C :   -0.023745
  29 H :    0.018719
  30 H :    0.034956
  31 H :    0.039124
  32 H :    0.035464
  33 H :    0.048472
Sum of atomic charges:   -0.0000000

LOEWDIN ATOMIC CHARGES
----------------------
   0 S :    0.415696
   1 C :   -0.193004
   2 C :   -0.064120
   3 C :   -0.049254
   4 C :   -0.205761
   5 H :    0.016578
   6 C :   -0.029662
   7 H :    0.031127
   8 H :    0.022751
   9 C :   -0.043135
  10 H :    0.026188
  11 H :    0.024808
  12 C :   -0.067022
  13 H :    0.027958
  14 H :    0.028624
  15 H :    0.021044
  16 S :    0.422751
  17 C :   -0.184137
  18 C :   -0.073075
  19 C :   -0.050673
  20 C :   -0.221843
  21 H :    0.036690
  22 C :   -0.035956
  23 H :    0.029299
  24 H :    0.044830
  25 C :   -0.045157
  26 H :    0.022803
  27 H :    0.024876
  28 C :   -0.055069
  29 H :    0.020968
  30 H :    0.030457
  31 H :    0.016438
  32 H :    0.024852
  33 H :    0.029131

  Mayer bond orders larger than 0.100000
B(  0-S ,  1-C ) :   1.1509 B(  0-S ,  4-C ) :   1.1508 B(  1-C ,  2-C ) :   1.5773
B(  1-C ,  4-C ) :   0.1047 B(  1-C , 32-H ) :   0.9750 B(  2-C ,  3-C ) :   1.2581
B(  2-C ,  6-C ) :   1.0141 B(  3-C ,  4-C ) :   1.5327 B(  3-C ,  5-H ) :   1.0015
B(  4-C , 20-C ) :   1.0602 B(  6-C ,  7-H ) :   0.9408 B(  6-C ,  8-H ) :   0.9356
B(  6-C ,  9-C ) :   1.0824 B(  9-C , 10-H ) :   0.9521 B(  9-C , 11-H ) :   0.9536
B(  9-C , 12-C ) :   1.0729 B( 12-C , 13-H ) :   0.9730 B( 12-C , 14-H ) :   0.9700
B( 12-C , 15-H ) :   0.9768 B( 16-S , 17-C ) :   1.1312 B( 16-S , 20-C ) :   1.1540
B( 17-C , 18-C ) :   1.6483 B( 17-C , 33-H ) :   0.9719 B( 18-C , 19-C ) :   1.2002
B( 18-C , 21-H ) :   0.9791 B( 19-C , 20-C ) :   1.6038 B( 19-C , 22-C ) :   1.0621
B( 22-C , 23-H ) :   0.9157 B( 22-C , 24-H ) :   0.9252 B( 22-C , 25-C ) :   1.0893
B( 25-C , 26-H ) :   0.9532 B( 25-C , 27-H ) :   0.9522 B( 25-C , 28-C ) :   1.0687
B( 28-C , 29-H ) :   0.9734 B( 28-C , 30-H ) :   0.9734 B( 28-C , 31-H ) :   0.9753

Dispersion correction           -0.015809433
FINAL SINGLE POINT ENERGY     -1339.873087723927

DIPOLE MOMENT
-------------
                                X             Y             Z
Electronic contribution:    -18.86011       4.97852     -18.04162
Nuclear contribution   :     19.23259      -4.92365      18.43717
                        -----------------------------------------
Total Dipole Moment    :      0.37248       0.05486       0.39555
                        -----------------------------------------
Magnitude (a.u.)       :      0.54609
Magnitude (Debye)      :      1.38804

Rotational constants in cm-1:     0.020545     0.009222     0.007522
Rotational constants in MHz :   615.918625   276.467545   225.502681

                             ****ORCA TERMINATED NORMALLY****
TOTAL RUN TIME: 0 days 0 hours 0 minutes 34 seconds 881 msec
