                         Program Version 4.2.1 -  RELEASE  -
|  1> ! wB97X-D3 SP def2-SVP
|  2> %pal
|  3> nprocs 16
|  4> end
|  5>
|  6> * xyz 0 1
|  7> S 	 -68.6871 	 38.7961 	 124.588
|  8> C 	 -69.1698 	 40.1176 	 125.603
|  9> C 	 -68.2836 	 41.1571 	 125.679
| 10> C 	 -67.1594 	 40.8302 	 124.861
| 11> C 	 -67.1737 	 39.6256 	 124.195
| 12> H 	 -66.2783 	 41.4323 	 124.773
| 13> C 	 -68.4167 	 42.2775 	 126.663
| 14> H 	 -67.5702 	 42.4147 	 127.293
| 15> H 	 -69.2073 	 41.9427 	 127.306
| 16> C 	 -68.8228 	 43.6686 	 126.084
| 17> H 	 -69.701 	 43.4544 	 125.47
| 18> H 	 -69.1801 	 44.3452 	 126.871
| 19> C 	 -67.7332 	 44.4785 	 125.388
| 20> H 	 -68.0785 	 45.3844 	 124.858
| 21> H 	 -66.9446 	 44.8054 	 126.068
| 22> H 	 -67.2389 	 43.8335 	 124.659
| 23> S 	 -66.7162 	 37.9822 	 122.144
| 24> C 	 -65.1718 	 37.7741 	 121.433
| 25> C 	 -64.2087 	 38.4719 	 122.088
| 26> C 	 -64.7996 	 39.3644 	 123.039
| 27> C 	 -66.1514 	 39.0547 	 123.357
| 28> H 	 -63.1654 	 38.4445 	 121.808
| 29> C 	 -63.868 	 40.349 	 123.785
| 30> H 	 -62.9146 	 39.8163 	 124.036
| 31> H 	 -64.3094 	 40.5726 	 124.714
| 32> C 	 -63.4947 	 41.6854 	 122.979
| 33> H 	 -63.0639 	 41.4274 	 122.083
| 34> H 	 -62.734 	 42.2661 	 123.56
| 35> C 	 -64.6933 	 42.5747 	 122.611
| 36> H 	 -64.3244 	 43.4244 	 122.122
| 37> H 	 -65.2135 	 43.0534 	 123.432
| 38> H 	 -65.3875 	 42.0962 	 121.972
| 39> H 	 -70.0614 	 40.2428 	 126.224
| 40> H 	 -65.0964 	 37.1941 	 120.464
| 41> *
| 42>
| 43>                          ****END OF INPUT****

CARTESIAN COORDINATES (ANGSTROEM)
---------------------------------
  S    -68.687100   38.796100  124.588000
  C    -69.169800   40.117600  125.603000
  C    -68.283600   41.157100  125.679000
  C    -67.159400   40.830200  124.861000
  C    -67.173700   39.625600  124.195000
  H    -66.278300   41.432300  124.773000
  C    -68.416700   42.277500  126.663000
  H    -67.570200   42.414700  127.293000
  H    -69.207300   41.942700  127.306000
  C    -68.822800   43.668600  126.084000
  H    -69.701000   43.454400  125.470000
  H    -69.180100   44.345200  126.871000
  C    -67.733200   44.478500  125.388000
  H    -68.078500   45.384400  124.858000
  H    -66.944600   44.805400  126.068000
  H    -67.238900   43.833500  124.659000
  S    -66.716200   37.982200  122.144000
  C    -65.171800   37.774100  121.433000
  C    -64.208700   38.471900  122.088000
  C    -64.799600   39.364400  123.039000
  C    -66.151400   39.054700  123.357000
  H    -63.165400   38.444500  121.808000
  C    -63.868000   40.349000  123.785000
  H    -62.914600   39.816300  124.036000
  H    -64.309400   40.572600  124.714000
  C    -63.494700   41.685400  122.979000
  H    -63.063900   41.427400  122.083000
  H    -62.734000   42.266100  123.560000
  C    -64.693300   42.574700  122.611000
  H    -64.324400   43.424400  122.122000
  H    -65.213500   43.053400  123.432000
  H    -65.387500   42.096200  121.972000
  H    -70.061400   40.242800  126.224000
  H    -65.096400   37.194100  120.464000

 Total Charge           Charge          ....    0
 Multiplicity           Mult            ....    1
 Number of Electrons    NEL             ....  134
 Basis Dimension        Dim             ....  322

ORBITAL ENERGIES
----------------

  NO   OCC          E(Eh)            E(eV)
   0   2.0000     -88.970019     -2420.9973
   1   2.0000     -88.962690     -2420.7979
   2   2.0000     -10.330628      -281.1107
   3   2.0000     -10.328919      -281.0642
   4   2.0000     -10.318353      -280.7766
   5   2.0000     -10.311998      -280.6037
   6   2.0000     -10.309491      -280.5355
   7   2.0000     -10.297250      -280.2024
   8   2.0000     -10.294930      -280.1393
   9   2.0000     -10.294100      -280.1167
  10   2.0000     -10.291580      -280.0481
  11   2.0000     -10.289313      -279.9865
  12   2.0000     -10.288636      -279.9680
  13   2.0000     -10.288315      -279.9593
  14   2.0000     -10.279603      -279.7222
  15   2.0000     -10.267304      -279.3876
  16   2.0000      -8.084384      -219.9873
  17   2.0000      -8.079226      -219.8469
  18   2.0000      -6.043027      -164.4391
  19   2.0000      -6.039028      -164.3303
  20   2.0000      -6.037587      -164.2911
  21   2.0000      -6.034936      -164.2189
  22   2.0000      -6.033405      -164.1773
  23   2.0000      -6.030105      -164.0875
  24   2.0000      -1.013908       -27.5898
  25   2.0000      -0.990367       -26.9493
  26   2.0000      -0.913611       -24.8606
  27   2.0000      -0.900658       -24.5081
  28   2.0000      -0.875654       -23.8277
  29   2.0000      -0.851621       -23.1738
  30   2.0000      -0.846286       -23.0286
  31   2.0000      -0.819777       -22.3073
  32   2.0000      -0.786267       -21.3954
  33   2.0000      -0.774502       -21.0753
  34   2.0000      -0.712830       -19.3971
  35   2.0000      -0.700278       -19.0555
  36   2.0000      -0.695671       -18.9302
  37   2.0000      -0.663895       -18.0655
  38   2.0000      -0.633695       -17.2437
  39   2.0000      -0.622497       -16.9390
  40   2.0000      -0.596821       -16.2403
  41   2.0000      -0.579150       -15.7595
  42   2.0000      -0.550899       -14.9907
  43   2.0000      -0.547416       -14.8960
  44   2.0000      -0.545953       -14.8561
  45   2.0000      -0.533531       -14.5181
  46   2.0000      -0.519124       -14.1261
  47   2.0000      -0.510738       -13.8979
  48   2.0000      -0.501050       -13.6343
  49   2.0000      -0.499622       -13.5954
  50   2.0000      -0.495162       -13.4740
  51   2.0000      -0.480707       -13.0807
  52   2.0000      -0.471688       -12.8353
  53   2.0000      -0.468849       -12.7580
  54   2.0000      -0.463426       -12.6105
  55   2.0000      -0.449413       -12.2292
  56   2.0000      -0.446178       -12.1411
  57   2.0000      -0.436506       -11.8779
  58   2.0000      -0.432182       -11.7603
  59   2.0000      -0.427161       -11.6236
  60   2.0000      -0.424944       -11.5633
  61   2.0000      -0.415202       -11.2982
  62   2.0000      -0.412337       -11.2203
  63   2.0000      -0.365566        -9.9476
  64   2.0000      -0.335068        -9.1177
  65   2.0000      -0.327434        -8.9099
  66   2.0000      -0.281068        -7.6482
  67   0.0000       0.022846         0.6217
  68   0.0000       0.082388         2.2419
  69   0.0000       0.105504         2.8709
  70   0.0000       0.111595         3.0367
  71   0.0000       0.134347         3.6558

MULLIKEN ATOMIC CHARGES
-----------------------
   0 S :    0.119629
   1 C :   -0.107810
   2 C :   -0.087057
   3 C :    0.000115
   4 C :   -0.098625
   5 H :   -0.033212
   6 C :    0.089549
   7 H :    0.024627
   8 H :    0.006959
   9 C :   -0.072268
  10 H :    0.027176
  11 H :    0.029744
  12 C :   -0.055001
  13 H :    0.042906
  14 H :    0.027072
  15 H :    0.026712
  16 S :    0.087651
  17 C :   -0.107241
  18 C :   -0.009625
  19 C :   -0.096749
  20 C :   -0.099424
  21 H :    0.023892
  22 C :    0.033372
  23 H :    0.035577
  24 H :    0.015324
  25 C :   -0.040139
  26 H :    0.007669
  27 H :    0.035779
  28 C :   -0.028924
  29 H :    0.011561
  30 H :    0.024220
  31 H :    0.041665
  32 H :    0.041364
  33 H :    0.083510
Sum of atomic charges:   -0.0000000

LOEWDIN ATOMIC CHARGES
----------------------
   0 S :    0.400681
   1 C :   -0.198784
   2 C :   -0.066590
   3 C :   -0.063391
   4 C :   -0.186670
   5 H :    0.019369
   6 C :   -0.023781
   7 H :    0.027344
   8 H :    0.031279
   9 C :   -0.041385
  10 H :    0.024410
  11 H :    0.024877
  12 C :   -0.071271
  13 H :    0.032116
  14 H :    0.024649
  15 H :    0.021236
  16 S :    0.432773
  17 C :   -0.200516
  18 C :   -0.073798
  19 C :   -0.056313
  20 C :   -0.208384
  21 H :    0.034604
  22 C :   -0.031024
  23 H :    0.036409
  24 H :    0.016862
  25 C :   -0.025626
  26 H :    0.010881
  27 H :    0.029440
  28 C :   -0.062086
  29 H :    0.022585
  30 H :    0.020981
  31 H :    0.025222
  32 H :    0.031698
  33 H :    0.042202

  Mayer bond orders larger than 0.100000
B(  0-S ,  1-C ) :   1.1384 B(  0-S ,  4-C ) :   1.1162 B(  1-C ,  2-C ) :   1.6425
B(  1-C , 32-H ) :   0.9483 B(  2-C ,  3-C ) :   1.2289 B(  2-C ,  6-C ) :   1.0264
B(  3-C ,  4-C ) :   1.5964 B(  3-C ,  5-H ) :   0.9915 B(  4-C , 20-C ) :   1.0795
B(  6-C ,  7-H ) :   0.9443 B(  6-C ,  8-H ) :   0.9296 B(  6-C ,  9-C ) :   1.0669
B(  9-C , 10-H ) :   0.9539 B(  9-C , 11-H ) :   0.9565 B(  9-C , 12-C ) :   1.0783
B( 12-C , 13-H ) :   0.9701 B( 12-C , 14-H ) :   0.9734 B( 12-C , 15-H ) :   0.9751
B( 16-S , 17-C ) :   1.1832 B( 16-S , 20-C ) :   1.1509 B( 17-C , 18-C ) :   1.5699
B( 17-C , 33-H ) :   0.9597 B( 18-C , 19-C ) :   1.2646 B( 18-C , 21-H ) :   0.9926
B( 19-C , 20-C ) :   1.5408 B( 19-C , 22-C ) :   1.0366 B( 22-C , 23-H ) :   0.9453
B( 22-C , 24-H ) :   0.9443 B( 22-C , 25-C ) :   1.0531 B( 25-C , 26-H ) :   0.9559
B( 25-C , 27-H ) :   0.9584 B( 25-C , 28-C ) :   1.0886 B( 28-C , 29-H ) :   0.9626
B( 28-C , 30-H ) :   0.9670 B( 28-C , 31-H ) :   0.9744

Dispersion correction           -0.015231303
FINAL SINGLE POINT ENERGY     -1339.875527927624

DIPOLE MOMENT
-------------
                                X             Y             Z
Electronic contribution:     -9.00931     -28.69646      -6.22671
Nuclear contribution   :      9.43617      29.27554       6.31681
                        -----------------------------------------
Total Dipole Moment    :      0.42685       0.57908       0.09010
                        -----------------------------------------
Magnitude (a.u.)       :      0.72503
Magnitude (Debye)      :      1.84287

Rotational constants in cm-1:     0.018630     0.010050     0.007029
Rotational constants in MHz :   558.516819   301.305038   210.733114

                             ****ORCA TERMINATED NORMALLY****
TOTAL RUN TIME: 0 days 0 hours 0 minutes 36 seconds 5 msec
