                         Program Version 4.2.1 -  RELEASE  -
|  1> ! wB97X-D3 SP def2-SVP
|  2> %pal
|  3> nprocs 16
|  4> end
|  5>
|  6> * xyz 0 1
|  7> S 	 45.7442 	 18.2986 	 86.636
|  8> C 	 46.1122 	 20.047 	 86.5201
|  9> C 	 45.033 	 20.7914 	 86.9513
| 10> C 	 43.9149 	 19.9655 	 87.2611
| 11> C 	 44.0918 	 18.6186 	 87.0924
| 12> H 	 43.0654 	 20.3989 	 87.6596
| 13> C 	 45.0728 	 22.2489 	 87.0419
| 14> H 	 44.1298 	 22.6124 	 86.6977
| 15> H 	 45.6272 	 22.6494 	 86.2469
| 16> C 	 45.618 	 22.7578 	 88.3882
| 17> H 	 45.0646 	 22.4997 	 89.2779
| 18> H 	 46.6123 	 22.3363 	 88.4649
| 19> C 	 45.826 	 24.2818 	 88.5063
| 20> H 	 44.8869 	 24.852 	 88.3536
| 21> H 	 46.3921 	 24.5993 	 89.3558
| 22> H 	 46.5483 	 24.6616 	 87.7068
| 23> S 	 42.2217 	 16.7289 	 86.2414
| 24> C 	 41.3769 	 15.7584 	 87.4168
| 25> C 	 41.8956 	 15.9364 	 88.6762
| 26> C 	 42.8163 	 17.0295 	 88.754
| 27> C 	 43.1172 	 17.5878 	 87.5266
| 28> H 	 41.286 	 15.3718 	 89.4514
| 29> C 	 43.3033 	 17.5448 	 90.0771
| 30> H 	 42.6023 	 17.721 	 90.9175
| 31> H 	 43.4125 	 18.6093 	 89.8526
| 32> C 	 44.6321 	 16.9529 	 90.4708
| 33> H 	 45.3229 	 17.0136 	 89.7042
| 34> H 	 44.4662 	 15.8691 	 90.6884
| 35> C 	 45.2046 	 17.6215 	 91.7164
| 36> H 	 44.834 	 18.5677 	 91.9384
| 37> H 	 46.2972 	 17.7001 	 91.7775
| 38> H 	 44.7532 	 17.0757 	 92.6341
| 39> H 	 46.9846 	 20.5657 	 86.1418
| 40> H 	 40.5747 	 15.0685 	 87.2044
| 41> *
| 42>
| 43>                          ****END OF INPUT****

CARTESIAN COORDINATES (ANGSTROEM)
---------------------------------
  S     45.744200   18.298600   86.636000
  C     46.112200   20.047000   86.520100
  C     45.033000   20.791400   86.951300
  C     43.914900   19.965500   87.261100
  C     44.091800   18.618600   87.092400
  H     43.065400   20.398900   87.659600
  C     45.072800   22.248900   87.041900
  H     44.129800   22.612400   86.697700
  H     45.627200   22.649400   86.246900
  C     45.618000   22.757800   88.388200
  H     45.064600   22.499700   89.277900
  H     46.612300   22.336300   88.464900
  C     45.826000   24.281800   88.506300
  H     44.886900   24.852000   88.353600
  H     46.392100   24.599300   89.355800
  H     46.548300   24.661600   87.706800
  S     42.221700   16.728900   86.241400
  C     41.376900   15.758400   87.416800
  C     41.895600   15.936400   88.676200
  C     42.816300   17.029500   88.754000
  C     43.117200   17.587800   87.526600
  H     41.286000   15.371800   89.451400
  C     43.303300   17.544800   90.077100
  H     42.602300   17.721000   90.917500
  H     43.412500   18.609300   89.852600
  C     44.632100   16.952900   90.470800
  H     45.322900   17.013600   89.704200
  H     44.466200   15.869100   90.688400
  C     45.204600   17.621500   91.716400
  H     44.834000   18.567700   91.938400
  H     46.297200   17.700100   91.777500
  H     44.753200   17.075700   92.634100
  H     46.984600   20.565700   86.141800
  H     40.574700   15.068500   87.204400

 Total Charge           Charge          ....    0
 Multiplicity           Mult            ....    1
 Number of Electrons    NEL             ....  134
 Basis Dimension        Dim             ....  322

ORBITAL ENERGIES
----------------

  NO   OCC          E(Eh)            E(eV)
   0   2.0000     -88.969577     -2420.9853
   1   2.0000     -88.962169     -2420.7837
   2   2.0000     -10.331300      -281.1290
   3   2.0000     -10.330296      -281.1016
   4   2.0000     -10.316308      -280.7210
   5   2.0000     -10.315939      -280.7110
   6   2.0000     -10.307393      -280.4784
   7   2.0000     -10.295345      -280.1506
   8   2.0000     -10.295289      -280.1491
   9   2.0000     -10.290218      -280.0111
  10   2.0000     -10.288034      -279.9516
  11   2.0000     -10.286416      -279.9076
  12   2.0000     -10.285633      -279.8863
  13   2.0000     -10.284182      -279.8468
  14   2.0000     -10.277085      -279.6537
  15   2.0000     -10.273998      -279.5697
  16   2.0000      -8.083207      -219.9552
  17   2.0000      -8.076749      -219.7795
  18   2.0000      -6.041901      -164.4085
  19   2.0000      -6.037818      -164.2974
  20   2.0000      -6.035158      -164.2250
  21   2.0000      -6.033861      -164.1897
  22   2.0000      -6.031281      -164.1195
  23   2.0000      -6.027613      -164.0197
  24   2.0000      -1.004852       -27.3434
  25   2.0000      -0.984943       -26.8017
  26   2.0000      -0.918556       -24.9952
  27   2.0000      -0.911943       -24.8152
  28   2.0000      -0.867387       -23.6028
  29   2.0000      -0.850237       -23.1361
  30   2.0000      -0.846389       -23.0314
  31   2.0000      -0.818245       -22.2656
  32   2.0000      -0.784263       -21.3409
  33   2.0000      -0.770786       -20.9741
  34   2.0000      -0.709410       -19.3040
  35   2.0000      -0.707154       -19.2426
  36   2.0000      -0.699748       -19.0411
  37   2.0000      -0.655613       -17.8401
  38   2.0000      -0.641824       -17.4649
  39   2.0000      -0.627308       -17.0699
  40   2.0000      -0.597558       -16.2604
  41   2.0000      -0.575008       -15.6468
  42   2.0000      -0.563517       -15.3341
  43   2.0000      -0.558031       -15.1848
  44   2.0000      -0.534581       -14.5467
  45   2.0000      -0.528763       -14.3884
  46   2.0000      -0.519702       -14.1418
  47   2.0000      -0.507604       -13.8126
  48   2.0000      -0.506730       -13.7888
  49   2.0000      -0.503899       -13.7118
  50   2.0000      -0.495181       -13.4746
  51   2.0000      -0.480562       -13.0768
  52   2.0000      -0.464349       -12.6356
  53   2.0000      -0.463056       -12.6004
  54   2.0000      -0.453129       -12.3303
  55   2.0000      -0.446684       -12.1549
  56   2.0000      -0.445774       -12.1301
  57   2.0000      -0.436975       -11.8907
  58   2.0000      -0.428420       -11.6579
  59   2.0000      -0.427917       -11.6442
  60   2.0000      -0.416355       -11.3296
  61   2.0000      -0.414501       -11.2791
  62   2.0000      -0.402044       -10.9402
  63   2.0000      -0.334897        -9.1130
  64   2.0000      -0.329437        -8.9644
  65   2.0000      -0.325031        -8.8445
  66   2.0000      -0.313890        -8.5414
  67   0.0000       0.043374         1.1803
  68   0.0000       0.050393         1.3713
  69   0.0000       0.117792         3.2053
  70   0.0000       0.123537         3.3616
  71   0.0000       0.124874         3.3980

MULLIKEN ATOMIC CHARGES
-----------------------
   0 S :    0.118777
   1 C :   -0.113413
   2 C :   -0.123571
   3 C :    0.082274
   4 C :   -0.127472
   5 H :   -0.021611
   6 C :    0.124597
   7 H :    0.003506
   8 H :   -0.005570
   9 C :   -0.046001
  10 H :    0.034163
  11 H :    0.022445
  12 C :   -0.067711
  13 H :    0.041413
  14 H :    0.033674
  15 H :    0.019737
  16 S :    0.098378
  17 C :   -0.101237
  18 C :   -0.049728
  19 C :   -0.014488
  20 C :   -0.186317
  21 H :    0.045931
  22 C :    0.039764
  23 H :    0.031531
  24 H :    0.005926
  25 C :   -0.022466
  26 H :    0.007658
  27 H :    0.034373
  28 C :   -0.035526
  29 H :    0.002962
  30 H :    0.043100
  31 H :    0.025736
  32 H :    0.042292
  33 H :    0.056872
Sum of atomic charges:   -0.0000000

LOEWDIN ATOMIC CHARGES
----------------------
   0 S :    0.399641
   1 C :   -0.184011
   2 C :   -0.062446
   3 C :   -0.046691
   4 C :   -0.200814
   5 H :    0.018754
   6 C :   -0.033419
   7 H :    0.028185
   8 H :    0.027946
   9 C :   -0.032637
  10 H :    0.024942
  11 H :    0.026808
  12 C :   -0.074785
  13 H :    0.026764
  14 H :    0.023690
  15 H :    0.027214
  16 S :    0.392035
  17 C :   -0.180359
  18 C :   -0.087292
  19 C :   -0.047139
  20 C :   -0.191051
  21 H :    0.046698
  22 C :   -0.043800
  23 H :    0.034623
  24 H :    0.031381
  25 C :   -0.033153
  26 H :    0.011568
  27 H :    0.029982
  28 C :   -0.068756
  29 H :    0.011486
  30 H :    0.029143
  31 H :    0.035285
  32 H :    0.030809
  33 H :    0.029400

  Mayer bond orders larger than 0.100000
B(  0-S ,  1-C ) :   1.1308 B(  0-S ,  4-C ) :   1.1430 B(  1-C ,  2-C ) :   1.6099
B(  1-C , 32-H ) :   0.9638 B(  2-C ,  3-C ) :   1.2573 B(  2-C ,  6-C ) :   1.0409
B(  3-C ,  4-C ) :   1.5678 B(  3-C ,  5-H ) :   1.0056 B(  4-C , 20-C ) :   1.0032
B(  6-C ,  7-H ) :   0.9266 B(  6-C ,  8-H ) :   0.9245 B(  6-C ,  9-C ) :   1.0459
B(  9-C , 10-H ) :   0.9607 B(  9-C , 11-H ) :   0.9532 B(  9-C , 12-C ) :   1.0865
B( 12-C , 13-H ) :   0.9754 B( 12-C , 14-H ) :   0.9741 B( 12-C , 15-H ) :   0.9717
B( 16-S , 17-C ) :   1.1619 B( 16-S , 20-C ) :   1.1320 B( 17-C , 18-C ) :   1.6357
B( 17-C , 33-H ) :   0.9651 B( 18-C , 19-C ) :   1.2162 B( 18-C , 21-H ) :   0.9787
B( 19-C , 20-C ) :   1.6325 B( 19-C , 22-C ) :   1.0267 B( 22-C , 23-H ) :   0.9451
B( 22-C , 24-H ) :   0.9229 B( 22-C , 25-C ) :   1.0623 B( 25-C , 26-H ) :   0.9545
B( 25-C , 27-H ) :   0.9597 B( 25-C , 28-C ) :   1.0711 B( 28-C , 29-H ) :   0.9735
B( 28-C , 30-H ) :   0.9773 B( 28-C , 31-H ) :   0.9728

Dispersion correction           -0.014379146
FINAL SINGLE POINT ENERGY     -1339.854690663618

DIPOLE MOMENT
-------------
                                X             Y             Z
Electronic contribution:     -7.98099     -19.09620     -20.28438
Nuclear contribution   :      7.90129      19.64524      20.73994
                        -----------------------------------------
Total Dipole Moment    :     -0.07970       0.54904       0.45556
                        -----------------------------------------
Magnitude (a.u.)       :      0.71787
Magnitude (Debye)      :      1.82468

Rotational constants in cm-1:     0.019187     0.008191     0.006851
Rotational constants in MHz :   575.221102   245.573588   205.396987

                             ****ORCA TERMINATED NORMALLY****
TOTAL RUN TIME: 0 days 0 hours 0 minutes 30 seconds 332 msec
