                         Program Version 4.2.1 -  RELEASE  -
|  1> ! wB97X-D3 SP def2-SVP
|  2> %pal
|  3> nprocs 16
|  4> end
|  5>
|  6> * xyz 0 1
|  7> S 	 4.58211 	 -11.893 	 91.273
|  8> C 	 2.96782 	 -11.4166 	 91.0313
|  9> C 	 2.22497 	 -12.2464 	 90.2709
| 10> C 	 3.11044 	 -13.0685 	 89.4131
| 11> C 	 4.40555 	 -12.9404 	 89.8371
| 12> H 	 2.75624 	 -13.6515 	 88.5485
| 13> C 	 0.733153 	 -12.3522 	 90.1871
| 14> H 	 0.451391 	 -12.5046 	 89.1746
| 15> H 	 0.392763 	 -11.4204 	 90.6096
| 16> C 	 0.285461 	 -13.4027 	 91.1089
| 17> H 	 0.835746 	 -14.2657 	 90.8516
| 18> H 	 0.61673 	 -13.0835 	 92.137
| 19> C 	 -1.2078 	 -13.6625 	 91.2578
| 20> H 	 -1.81668 	 -12.8558 	 91.6836
| 21> H 	 -1.81575 	 -13.8693 	 90.3301
| 22> H 	 -1.46887 	 -14.5214 	 91.8731
| 23> S 	 6.49417 	 -12.4694 	 88.1346
| 24> C 	 7.44203 	 -13.8094 	 87.4408
| 25> C 	 6.93548 	 -15.0338 	 87.915
| 26> C 	 5.86051 	 -14.9343 	 88.8517
| 27> C 	 5.50583 	 -13.5475 	 89.1457
| 28> H 	 7.41062 	 -15.981 	 87.6399
| 29> C 	 5.39569 	 -16.1207 	 89.6553
| 30> H 	 4.6705 	 -15.7996 	 90.4354
| 31> H 	 6.20313 	 -16.5343 	 90.2168
| 32> C 	 4.60053 	 -17.217 	 88.8692
| 33> H 	 5.06196 	 -17.7692 	 88.0437
| 34> H 	 3.83571 	 -16.5901 	 88.3434
| 35> C 	 3.78066 	 -18.2318 	 89.6447
| 36> H 	 3.40453 	 -19.0877 	 89.0755
| 37> H 	 2.9664 	 -17.7497 	 90.0657
| 38> H 	 4.38765 	 -18.6515 	 90.5165
| 39> H 	 2.41172 	 -10.7228 	 91.7142
| 40> H 	 8.23835 	 -13.7663 	 86.7664
| 41> *
| 42>
| 43>                          ****END OF INPUT****

CARTESIAN COORDINATES (ANGSTROEM)
---------------------------------
  S      4.582110  -11.893000   91.273000
  C      2.967820  -11.416600   91.031300
  C      2.224970  -12.246400   90.270900
  C      3.110440  -13.068500   89.413100
  C      4.405550  -12.940400   89.837100
  H      2.756240  -13.651500   88.548500
  C      0.733153  -12.352200   90.187100
  H      0.451391  -12.504600   89.174600
  H      0.392763  -11.420400   90.609600
  C      0.285461  -13.402700   91.108900
  H      0.835746  -14.265700   90.851600
  H      0.616730  -13.083500   92.137000
  C     -1.207800  -13.662500   91.257800
  H     -1.816680  -12.855800   91.683600
  H     -1.815750  -13.869300   90.330100
  H     -1.468870  -14.521400   91.873100
  S      6.494170  -12.469400   88.134600
  C      7.442030  -13.809400   87.440800
  C      6.935480  -15.033800   87.915000
  C      5.860510  -14.934300   88.851700
  C      5.505830  -13.547500   89.145700
  H      7.410620  -15.981000   87.639900
  C      5.395690  -16.120700   89.655300
  H      4.670500  -15.799600   90.435400
  H      6.203130  -16.534300   90.216800
  C      4.600530  -17.217000   88.869200
  H      5.061960  -17.769200   88.043700
  H      3.835710  -16.590100   88.343400
  C      3.780660  -18.231800   89.644700
  H      3.404530  -19.087700   89.075500
  H      2.966400  -17.749700   90.065700
  H      4.387650  -18.651500   90.516500
  H      2.411720  -10.722800   91.714200
  H      8.238350  -13.766300   86.766400

 Total Charge           Charge          ....    0
 Multiplicity           Mult            ....    1
 Number of Electrons    NEL             ....  134
 Basis Dimension        Dim             ....  322

ORBITAL ENERGIES
----------------

  NO   OCC          E(Eh)            E(eV)
   0   2.0000     -88.967828     -2420.9377
   1   2.0000     -88.966247     -2420.8947
   2   2.0000     -10.331821      -281.1431
   3   2.0000     -10.328810      -281.0612
   4   2.0000     -10.319563      -280.8096
   5   2.0000     -10.311264      -280.5838
   6   2.0000     -10.310827      -280.5719
   7   2.0000     -10.301387      -280.3150
   8   2.0000     -10.298519      -280.2369
   9   2.0000     -10.297187      -280.2007
  10   2.0000     -10.294367      -280.1240
  11   2.0000     -10.287995      -279.9506
  12   2.0000     -10.286019      -279.8968
  13   2.0000     -10.285336      -279.8782
  14   2.0000     -10.282777      -279.8086
  15   2.0000     -10.276239      -279.6307
  16   2.0000      -8.083132      -219.9532
  17   2.0000      -8.079720      -219.8604
  18   2.0000      -6.041661      -164.4019
  19   2.0000      -6.038220      -164.3083
  20   2.0000      -6.037985      -164.3019
  21   2.0000      -6.034187      -164.1986
  22   2.0000      -6.033392      -164.1770
  23   2.0000      -6.030756      -164.1052
  24   2.0000      -1.006300       -27.3828
  25   2.0000      -0.976332       -26.5674
  26   2.0000      -0.926437       -25.2096
  27   2.0000      -0.903711       -24.5912
  28   2.0000      -0.872309       -23.7367
  29   2.0000      -0.851056       -23.1584
  30   2.0000      -0.848079       -23.0774
  31   2.0000      -0.813903       -22.1474
  32   2.0000      -0.785666       -21.3791
  33   2.0000      -0.768895       -20.9227
  34   2.0000      -0.707665       -19.2566
  35   2.0000      -0.700976       -19.0745
  36   2.0000      -0.694071       -18.8866
  37   2.0000      -0.655525       -17.8377
  38   2.0000      -0.639249       -17.3948
  39   2.0000      -0.620680       -16.8896
  40   2.0000      -0.595035       -16.1917
  41   2.0000      -0.580181       -15.7875
  42   2.0000      -0.564467       -15.3599
  43   2.0000      -0.560687       -15.2571
  44   2.0000      -0.532456       -14.4889
  45   2.0000      -0.522703       -14.2235
  46   2.0000      -0.518832       -14.1181
  47   2.0000      -0.510945       -13.9035
  48   2.0000      -0.504818       -13.7368
  49   2.0000      -0.500057       -13.6072
  50   2.0000      -0.489879       -13.3303
  51   2.0000      -0.474838       -12.9210
  52   2.0000      -0.473889       -12.8952
  53   2.0000      -0.467577       -12.7234
  54   2.0000      -0.459881       -12.5140
  55   2.0000      -0.452647       -12.3172
  56   2.0000      -0.445708       -12.1283
  57   2.0000      -0.435463       -11.8495
  58   2.0000      -0.427759       -11.6399
  59   2.0000      -0.424096       -11.5402
  60   2.0000      -0.420720       -11.4484
  61   2.0000      -0.417793       -11.3687
  62   2.0000      -0.407195       -11.0803
  63   2.0000      -0.341943        -9.3048
  64   2.0000      -0.326988        -8.8978
  65   2.0000      -0.320290        -8.7155
  66   2.0000      -0.300637        -8.1808
  67   0.0000       0.029355         0.7988
  68   0.0000       0.059825         1.6279
  69   0.0000       0.101938         2.7739
  70   0.0000       0.118521         3.2251
  71   0.0000       0.125616         3.4182

MULLIKEN ATOMIC CHARGES
-----------------------
   0 S :    0.127471
   1 C :   -0.112968
   2 C :   -0.158895
   3 C :    0.035368
   4 C :   -0.166030
   5 H :    0.036245
   6 C :    0.152283
   7 H :    0.018146
   8 H :    0.001936
   9 C :   -0.062129
  10 H :    0.013896
  11 H :    0.029386
  12 C :   -0.043900
  13 H :    0.025212
  14 H :    0.022706
  15 H :    0.032228
  16 S :    0.108006
  17 C :   -0.073420
  18 C :   -0.037125
  19 C :   -0.013274
  20 C :   -0.168244
  21 H :    0.027251
  22 C :    0.068156
  23 H :    0.024502
  24 H :    0.034379
  25 C :   -0.110171
  26 H :    0.030503
  27 H :    0.020995
  28 C :   -0.039997
  29 H :    0.038795
  30 H :    0.015646
  31 H :    0.030697
  32 H :    0.053059
  33 H :    0.039287
Sum of atomic charges:    0.0000000

LOEWDIN ATOMIC CHARGES
----------------------
   0 S :    0.402418
   1 C :   -0.214858
   2 C :   -0.058217
   3 C :   -0.044571
   4 C :   -0.197805
   5 H :    0.039761
   6 C :   -0.023962
   7 H :    0.025233
   8 H :    0.028610
   9 C :   -0.040165
  10 H :    0.018026
  11 H :    0.034511
  12 C :   -0.078999
  13 H :    0.025611
  14 H :    0.026915
  15 H :    0.028436
  16 S :    0.398392
  17 C :   -0.172598
  18 C :   -0.069519
  19 C :   -0.052221
  20 C :   -0.196165
  21 H :    0.033752
  22 C :   -0.030995
  23 H :    0.036872
  24 H :    0.027165
  25 C :   -0.052567
  26 H :    0.020924
  27 H :    0.026638
  28 C :   -0.066913
  29 H :    0.030464
  30 H :    0.012759
  31 H :    0.029947
  32 H :    0.033505
  33 H :    0.019613

  Mayer bond orders larger than 0.100000
B(  0-S ,  1-C ) :   1.1244 B(  0-S ,  4-C ) :   1.1194 B(  1-C ,  2-C ) :   1.6919
B(  1-C , 32-H ) :   0.9474 B(  2-C ,  3-C ) :   1.1702 B(  2-C ,  6-C ) :   1.0380
B(  3-C ,  4-C ) :   1.6206 B(  3-C ,  5-H ) :   0.9901 B(  4-C , 20-C ) :   1.0460
B(  6-C ,  7-H ) :   0.9330 B(  6-C ,  8-H ) :   0.9242 B(  6-C ,  9-C ) :   1.0713
B(  9-C , 10-H ) :   0.9555 B(  9-C , 11-H ) :   0.9507 B(  9-C , 12-C ) :   1.0792
B( 12-C , 13-H ) :   0.9725 B( 12-C , 14-H ) :   0.9718 B( 12-C , 15-H ) :   0.9738
B( 16-S , 17-C ) :   1.1583 B( 16-S , 20-C ) :   1.1543 B( 17-C , 18-C ) :   1.5818
B( 17-C , 20-C ) :   0.1161 B( 17-C , 33-H ) :   0.9768 B( 18-C , 19-C ) :   1.2718
B( 18-C , 21-H ) :   0.9833 B( 19-C , 20-C ) :   1.5293 B( 19-C , 22-C ) :   1.0589
B( 22-C , 23-H ) :   0.9367 B( 22-C , 24-H ) :   0.9402 B( 22-C , 25-C ) :   1.0295
B( 25-C , 26-H ) :   0.9637 B( 25-C , 27-H ) :   0.9582 B( 25-C , 28-C ) :   1.0865
B( 28-C , 29-H ) :   0.9745 B( 28-C , 30-H ) :   0.9760 B( 28-C , 31-H ) :   0.9728

Dispersion correction           -0.013972661
FINAL SINGLE POINT ENERGY     -1339.852150165144

DIPOLE MOMENT
-------------
                                X             Y             Z
Electronic contribution:     23.42253      20.51191      -3.91074
Nuclear contribution   :    -23.93944     -20.98604       3.91071
                        -----------------------------------------
Total Dipole Moment    :     -0.51692      -0.47412      -0.00003
                        -----------------------------------------
Magnitude (a.u.)       :      0.70143
Magnitude (Debye)      :      1.78288

Rotational constants in cm-1:     0.016677     0.009024     0.006506
Rotational constants in MHz :   499.950272   270.528247   195.037247

                             ****ORCA TERMINATED NORMALLY****
TOTAL RUN TIME: 0 days 0 hours 0 minutes 33 seconds 925 msec
