                         Program Version 4.2.1 -  RELEASE  -
|  1> ! wB97X-D3 SP def2-SVP
|  2> %pal
|  3> nprocs 16
|  4> end
|  5>
|  6> * xyz 0 1
|  7> S 	 -23.9365 	 57.1839 	 106.521
|  8> C 	 -25.3425 	 56.0902 	 106.583
|  9> C 	 -25.6047 	 55.7685 	 107.887
| 10> C 	 -24.7026 	 56.2764 	 108.804
| 11> C 	 -23.6484 	 56.9654 	 108.252
| 12> H 	 -24.7862 	 55.9243 	 109.815
| 13> C 	 -26.7113 	 54.8858 	 108.362
| 14> H 	 -26.3883 	 54.6526 	 109.37
| 15> H 	 -26.7215 	 53.9061 	 107.891
| 16> C 	 -28.075 	 55.5731 	 108.474
| 17> H 	 -28.7061 	 55.1634 	 109.247
| 18> H 	 -27.9118 	 56.6405 	 108.757
| 19> C 	 -28.7647 	 55.4354 	 107.171
| 20> H 	 -28.1074 	 55.6251 	 106.32
| 21> H 	 -29.2849 	 54.4631 	 107.016
| 22> H 	 -29.2865 	 56.3351 	 107.034
| 23> S 	 -21.691 	 58.7928 	 108.193
| 24> C 	 -20.3561 	 58.762 	 109.296
| 25> C 	 -20.5351 	 57.7091 	 110.176
| 26> C 	 -21.6673 	 56.94 	 109.888
| 27> C 	 -22.3542 	 57.3507 	 108.805
| 28> H 	 -19.7847 	 57.5159 	 110.947
| 29> C 	 -21.9588 	 55.8989 	 110.876
| 30> H 	 -21.1088 	 55.1687 	 110.918
| 31> H 	 -22.6999 	 55.1907 	 110.604
| 32> C 	 -22.1262 	 56.4452 	 112.316
| 33> H 	 -21.2233 	 56.9188 	 112.579
| 34> H 	 -22.2058 	 55.6199 	 113.073
| 35> C 	 -23.3678 	 57.3035 	 112.378
| 36> H 	 -24.3017 	 56.7215 	 112.071
| 37> H 	 -23.3789 	 58.1097 	 111.662
| 38> H 	 -23.5591 	 57.7095 	 113.365
| 39> H 	 -25.9455 	 55.7189 	 105.761
| 40> H 	 -19.533 	 59.491 	 109.295
| 41> *
| 42>
| 43>                          ****END OF INPUT****

CARTESIAN COORDINATES (ANGSTROEM)
---------------------------------
  S    -23.936500   57.183900  106.521000
  C    -25.342500   56.090200  106.583000
  C    -25.604700   55.768500  107.887000
  C    -24.702600   56.276400  108.804000
  C    -23.648400   56.965400  108.252000
  H    -24.786200   55.924300  109.815000
  C    -26.711300   54.885800  108.362000
  H    -26.388300   54.652600  109.370000
  H    -26.721500   53.906100  107.891000
  C    -28.075000   55.573100  108.474000
  H    -28.706100   55.163400  109.247000
  H    -27.911800   56.640500  108.757000
  C    -28.764700   55.435400  107.171000
  H    -28.107400   55.625100  106.320000
  H    -29.284900   54.463100  107.016000
  H    -29.286500   56.335100  107.034000
  S    -21.691000   58.792800  108.193000
  C    -20.356100   58.762000  109.296000
  C    -20.535100   57.709100  110.176000
  C    -21.667300   56.940000  109.888000
  C    -22.354200   57.350700  108.805000
  H    -19.784700   57.515900  110.947000
  C    -21.958800   55.898900  110.876000
  H    -21.108800   55.168700  110.918000
  H    -22.699900   55.190700  110.604000
  C    -22.126200   56.445200  112.316000
  H    -21.223300   56.918800  112.579000
  H    -22.205800   55.619900  113.073000
  C    -23.367800   57.303500  112.378000
  H    -24.301700   56.721500  112.071000
  H    -23.378900   58.109700  111.662000
  H    -23.559100   57.709500  113.365000
  H    -25.945500   55.718900  105.761000
  H    -19.533000   59.491000  109.295000

 Total Charge           Charge          ....    0
 Multiplicity           Mult            ....    1
 Number of Electrons    NEL             ....  134
 Basis Dimension        Dim             ....  322

ORBITAL ENERGIES
----------------

  NO   OCC          E(Eh)            E(eV)
   0   2.0000     -88.965609     -2420.8773
   1   2.0000     -88.962708     -2420.7983
   2   2.0000     -10.332776      -281.1691
   3   2.0000     -10.321794      -280.8703
   4   2.0000     -10.319333      -280.8033
   5   2.0000     -10.312880      -280.6277
   6   2.0000     -10.293832      -280.1094
   7   2.0000     -10.291427      -280.0440
   8   2.0000     -10.290527      -280.0195
   9   2.0000     -10.287913      -279.9483
  10   2.0000     -10.287016      -279.9239
  11   2.0000     -10.286662      -279.9143
  12   2.0000     -10.284105      -279.8447
  13   2.0000     -10.283258      -279.8217
  14   2.0000     -10.277020      -279.6519
  15   2.0000     -10.270401      -279.4718
  16   2.0000      -8.079616      -219.8575
  17   2.0000      -8.079093      -219.8433
  18   2.0000      -6.038266      -164.3096
  19   2.0000      -6.037542      -164.2899
  20   2.0000      -6.034223      -164.1996
  21   2.0000      -6.033280      -164.1739
  22   2.0000      -6.030265      -164.0918
  23   2.0000      -6.029908      -164.0821
  24   2.0000      -1.019889       -27.7526
  25   2.0000      -0.992249       -27.0005
  26   2.0000      -0.921547       -25.0766
  27   2.0000      -0.917126       -24.9563
  28   2.0000      -0.873838       -23.7783
  29   2.0000      -0.854835       -23.2612
  30   2.0000      -0.849204       -23.1080
  31   2.0000      -0.815379       -22.1876
  32   2.0000      -0.782580       -21.2951
  33   2.0000      -0.778059       -21.1721
  34   2.0000      -0.711997       -19.3744
  35   2.0000      -0.701868       -19.0988
  36   2.0000      -0.699860       -19.0442
  37   2.0000      -0.667539       -18.1647
  38   2.0000      -0.636482       -17.3195
  39   2.0000      -0.630263       -17.1503
  40   2.0000      -0.608209       -16.5502
  41   2.0000      -0.578651       -15.7459
  42   2.0000      -0.558237       -15.1904
  43   2.0000      -0.548966       -14.9381
  44   2.0000      -0.542956       -14.7746
  45   2.0000      -0.535170       -14.5627
  46   2.0000      -0.522744       -14.2246
  47   2.0000      -0.514380       -13.9970
  48   2.0000      -0.505402       -13.7527
  49   2.0000      -0.502422       -13.6716
  50   2.0000      -0.497639       -13.5414
  51   2.0000      -0.483901       -13.1676
  52   2.0000      -0.472217       -12.8497
  53   2.0000      -0.465561       -12.6686
  54   2.0000      -0.459969       -12.5164
  55   2.0000      -0.448342       -12.2000
  56   2.0000      -0.445654       -12.1269
  57   2.0000      -0.437692       -11.9102
  58   2.0000      -0.428705       -11.6657
  59   2.0000      -0.424449       -11.5499
  60   2.0000      -0.417290       -11.3550
  61   2.0000      -0.411812       -11.2060
  62   2.0000      -0.406203       -11.0533
  63   2.0000      -0.357590        -9.7305
  64   2.0000      -0.336124        -9.1464
  65   2.0000      -0.328180        -8.9302
  66   2.0000      -0.287102        -7.8124
  67   0.0000       0.023108         0.6288
  68   0.0000       0.079193         2.1549
  69   0.0000       0.099713         2.7133
  70   0.0000       0.120150         3.2695
  71   0.0000       0.131633         3.5819

MULLIKEN ATOMIC CHARGES
-----------------------
   0 S :    0.093722
   1 C :   -0.120357
   2 C :   -0.111989
   3 C :    0.020807
   4 C :   -0.095425
   5 H :   -0.014198
   6 C :    0.063626
   7 H :   -0.007360
   8 H :    0.032897
   9 C :   -0.051030
  10 H :    0.029219
  11 H :    0.033913
  12 C :   -0.012879
  13 H :   -0.007871
  14 H :    0.053239
  15 H :    0.010821
  16 S :    0.093696
  17 C :   -0.094310
  18 C :   -0.055305
  19 C :   -0.048907
  20 C :   -0.081462
  21 H :    0.029736
  22 C :    0.040449
  23 H :    0.025853
  24 H :    0.002345
  25 C :   -0.045310
  26 H :    0.016225
  27 H :    0.030582
  28 C :   -0.050926
  29 H :    0.029630
  30 H :    0.040385
  31 H :    0.032899
  32 H :    0.051425
  33 H :    0.065858
Sum of atomic charges:   -0.0000000

LOEWDIN ATOMIC CHARGES
----------------------
   0 S :    0.383072
   1 C :   -0.188106
   2 C :   -0.067434
   3 C :   -0.068844
   4 C :   -0.171809
   5 H :    0.024841
   6 C :   -0.031398
   7 H :    0.023042
   8 H :    0.031275
   9 C :   -0.037930
  10 H :    0.023457
  11 H :    0.032046
  12 C :   -0.072114
  13 H :    0.022067
  14 H :    0.034062
  15 H :    0.024763
  16 S :    0.428881
  17 C :   -0.187512
  18 C :   -0.067719
  19 C :   -0.069756
  20 C :   -0.209252
  21 H :    0.035181
  22 C :   -0.034413
  23 H :    0.037776
  24 H :    0.019755
  25 C :   -0.032686
  26 H :    0.013919
  27 H :    0.029789
  28 C :   -0.067738
  29 H :    0.030642
  30 H :    0.025084
  31 H :    0.023610
  32 H :    0.028758
  33 H :    0.034694

  Mayer bond orders larger than 0.100000
B(  0-S ,  1-C ) :   1.1178 B(  0-S ,  4-C ) :   1.1517 B(  1-C ,  2-C ) :   1.6098
B(  1-C ,  4-C ) :   0.1051 B(  1-C , 32-H ) :   0.9651 B(  2-C ,  3-C ) :   1.2833
B(  2-C ,  6-C ) :   1.0250 B(  3-C ,  4-C ) :   1.5467 B(  3-C ,  5-H ) :   0.9912
B(  4-C , 20-C ) :   1.0226 B(  6-C ,  7-H ) :   0.9307 B(  6-C ,  8-H ) :   0.9432
B(  6-C ,  9-C ) :   1.0591 B(  9-C , 10-H ) :   0.9546 B(  9-C , 11-H ) :   0.9535
B(  9-C , 12-C ) :   1.0874 B( 12-C , 13-H ) :   0.9625 B( 12-C , 14-H ) :   0.9736
B( 12-C , 15-H ) :   0.9617 B( 16-S , 17-C ) :   1.1681 B( 16-S , 20-C ) :   1.1433
B( 17-C , 18-C ) :   1.5792 B( 17-C , 33-H ) :   0.9692 B( 18-C , 19-C ) :   1.2451
B( 18-C , 21-H ) :   0.9927 B( 19-C , 20-C ) :   1.6034 B( 19-C , 22-C ) :   1.0555
B( 22-C , 23-H ) :   0.9239 B( 22-C , 24-H ) :   0.9379 B( 22-C , 25-C ) :   1.0743
B( 25-C , 26-H ) :   0.9515 B( 25-C , 27-H ) :   0.9518 B( 25-C , 28-C ) :   1.0723
B( 28-C , 29-H ) :   0.9691 B( 28-C , 30-H ) :   0.9749 B( 28-C , 31-H ) :   0.9722

Dispersion correction           -0.015127849
FINAL SINGLE POINT ENERGY     -1339.864882648792

DIPOLE MOMENT
-------------
                                X             Y             Z
Electronic contribution:     16.96567      11.78132     -15.89030
Nuclear contribution   :    -17.07200     -12.15757      16.48388
                        -----------------------------------------
Total Dipole Moment    :     -0.10633      -0.37625       0.59358
                        -----------------------------------------
Magnitude (a.u.)       :      0.71078
Magnitude (Debye)      :      1.80667

Rotational constants in cm-1:     0.022880     0.008619     0.006714
Rotational constants in MHz :   685.937726   258.391286   201.291555

                             ****ORCA TERMINATED NORMALLY****
TOTAL RUN TIME: 0 days 0 hours 0 minutes 31 seconds 473 msec
