                         Program Version 4.2.1 -  RELEASE  -
|  1> ! wB97X-D3 SP def2-SVP
|  2> %pal
|  3> nprocs 16
|  4> end
|  5>
|  6> * xyz 0 1
|  7> S 	 11.8097 	 26.071 	 61.4733
|  8> C 	 12.2947 	 25.9849 	 59.8199
|  9> C 	 11.1897 	 25.6107 	 59.0212
| 10> C 	 9.92713 	 25.4961 	 59.7497
| 11> C 	 10.0973 	 25.8055 	 61.1344
| 12> H 	 8.99228 	 25.0898 	 59.4618
| 13> C 	 11.2608 	 25.3214 	 57.5074
| 14> H 	 11.887 	 26.144 	 57.1286
| 15> H 	 10.2282 	 25.4442 	 57.1026
| 16> C 	 11.8092 	 23.9694 	 57.246
| 17> H 	 11.9319 	 23.88 	 56.1767
| 18> H 	 12.7289 	 23.8102 	 57.8613
| 19> C 	 10.9083 	 22.7656 	 57.667
| 20> H 	 10.7388 	 22.7197 	 58.7474
| 21> H 	 9.90153 	 22.7922 	 57.2727
| 22> H 	 11.2542 	 21.823 	 57.3836
| 23> S 	 9.70736 	 25.0532 	 63.8533
| 24> C 	 8.12877 	 25.1262 	 64.6139
| 25> C 	 7.23297 	 25.3755 	 63.6087
| 26> C 	 7.79259 	 25.7873 	 62.3505
| 27> C 	 9.1399 	 25.6162 	 62.2319
| 28> H 	 6.17186 	 25.4396 	 63.7689
| 29> C 	 6.83198 	 26.3701 	 61.3287
| 30> H 	 7.43561 	 26.8927 	 60.4975
| 31> H 	 6.2229 	 27.1754 	 61.7021
| 32> C 	 5.69331 	 25.4605 	 60.882
| 33> H 	 4.99139 	 26.0049 	 60.2792
| 34> H 	 5.07502 	 25.2131 	 61.762
| 35> C 	 6.11551 	 24.2096 	 60.1391
| 36> H 	 6.87514 	 23.6128 	 60.6383
| 37> H 	 6.4591 	 24.4402 	 59.0819
| 38> H 	 5.16102 	 23.6554 	 60.0518
| 39> H 	 13.2055 	 26.1746 	 59.3203
| 40> H 	 7.95335 	 24.9467 	 65.6475
| 41> *
| 42>
| 43>                          ****END OF INPUT****

CARTESIAN COORDINATES (ANGSTROEM)
---------------------------------
  S     11.809700   26.071000   61.473300
  C     12.294700   25.984900   59.819900
  C     11.189700   25.610700   59.021200
  C      9.927130   25.496100   59.749700
  C     10.097300   25.805500   61.134400
  H      8.992280   25.089800   59.461800
  C     11.260800   25.321400   57.507400
  H     11.887000   26.144000   57.128600
  H     10.228200   25.444200   57.102600
  C     11.809200   23.969400   57.246000
  H     11.931900   23.880000   56.176700
  H     12.728900   23.810200   57.861300
  C     10.908300   22.765600   57.667000
  H     10.738800   22.719700   58.747400
  H      9.901530   22.792200   57.272700
  H     11.254200   21.823000   57.383600
  S      9.707360   25.053200   63.853300
  C      8.128770   25.126200   64.613900
  C      7.232970   25.375500   63.608700
  C      7.792590   25.787300   62.350500
  C      9.139900   25.616200   62.231900
  H      6.171860   25.439600   63.768900
  C      6.831980   26.370100   61.328700
  H      7.435610   26.892700   60.497500
  H      6.222900   27.175400   61.702100
  C      5.693310   25.460500   60.882000
  H      4.991390   26.004900   60.279200
  H      5.075020   25.213100   61.762000
  C      6.115510   24.209600   60.139100
  H      6.875140   23.612800   60.638300
  H      6.459100   24.440200   59.081900
  H      5.161020   23.655400   60.051800
  H     13.205500   26.174600   59.320300
  H      7.953350   24.946700   65.647500

 Total Charge           Charge          ....    0
 Multiplicity           Mult            ....    1
 Number of Electrons    NEL             ....  134
 Basis Dimension        Dim             ....  322

ORBITAL ENERGIES
----------------

  NO   OCC          E(Eh)            E(eV)
   0   2.0000     -88.971867     -2421.0476
   1   2.0000     -88.959950     -2420.7233
   2   2.0000     -10.340137      -281.3694
   3   2.0000     -10.334892      -281.2267
   4   2.0000     -10.321117      -280.8519
   5   2.0000     -10.315907      -280.7101
   6   2.0000     -10.308227      -280.5011
   7   2.0000     -10.302576      -280.3473
   8   2.0000     -10.302347      -280.3411
   9   2.0000     -10.295008      -280.1414
  10   2.0000     -10.293166      -280.0913
  11   2.0000     -10.293128      -280.0902
  12   2.0000     -10.288600      -279.9670
  13   2.0000     -10.287406      -279.9345
  14   2.0000     -10.281269      -279.7676
  15   2.0000     -10.270086      -279.4633
  16   2.0000      -8.086016      -220.0317
  17   2.0000      -8.074292      -219.7126
  18   2.0000      -6.044663      -164.4836
  19   2.0000      -6.040436      -164.3686
  20   2.0000      -6.036810      -164.2700
  21   2.0000      -6.033104      -164.1691
  22   2.0000      -6.028828      -164.0527
  23   2.0000      -6.024735      -163.9414
  24   2.0000      -1.002966       -27.2921
  25   2.0000      -0.982144       -26.7255
  26   2.0000      -0.914680       -24.8897
  27   2.0000      -0.911913       -24.8144
  28   2.0000      -0.870913       -23.6987
  29   2.0000      -0.847095       -23.0506
  30   2.0000      -0.839918       -22.8553
  31   2.0000      -0.815542       -22.1920
  32   2.0000      -0.783336       -21.3157
  33   2.0000      -0.778742       -21.1906
  34   2.0000      -0.708143       -19.2695
  35   2.0000      -0.701783       -19.0965
  36   2.0000      -0.694230       -18.8910
  37   2.0000      -0.662521       -18.0281
  38   2.0000      -0.642092       -17.4722
  39   2.0000      -0.610567       -16.6144
  40   2.0000      -0.600685       -16.3455
  41   2.0000      -0.578203       -15.7337
  42   2.0000      -0.552013       -15.0210
  43   2.0000      -0.549599       -14.9553
  44   2.0000      -0.545927       -14.8554
  45   2.0000      -0.538496       -14.6532
  46   2.0000      -0.527350       -14.3499
  47   2.0000      -0.515042       -14.0150
  48   2.0000      -0.511483       -13.9181
  49   2.0000      -0.495617       -13.4864
  50   2.0000      -0.490502       -13.3472
  51   2.0000      -0.479628       -13.0513
  52   2.0000      -0.468951       -12.7608
  53   2.0000      -0.466532       -12.6950
  54   2.0000      -0.462067       -12.5735
  55   2.0000      -0.452007       -12.2997
  56   2.0000      -0.446521       -12.1504
  57   2.0000      -0.438749       -11.9390
  58   2.0000      -0.423284       -11.5181
  59   2.0000      -0.418756       -11.3949
  60   2.0000      -0.416757       -11.3405
  61   2.0000      -0.409832       -11.1521
  62   2.0000      -0.403395       -10.9769
  63   2.0000      -0.361076        -9.8254
  64   2.0000      -0.329556        -8.9677
  65   2.0000      -0.324541        -8.8312
  66   2.0000      -0.287825        -7.8321
  67   0.0000       0.017296         0.4707
  68   0.0000       0.078371         2.1326
  69   0.0000       0.105148         2.8612
  70   0.0000       0.116161         3.1609
  71   0.0000       0.130786         3.5589

MULLIKEN ATOMIC CHARGES
-----------------------
   0 S :    0.121139
   1 C :   -0.071807
   2 C :   -0.159469
   3 C :    0.053933
   4 C :   -0.152417
   5 H :   -0.008949
   6 C :    0.066009
   7 H :    0.035978
   8 H :    0.030478
   9 C :   -0.051252
  10 H :    0.034215
  11 H :    0.039375
  12 C :   -0.047828
  13 H :    0.036510
  14 H :    0.011834
  15 H :    0.019343
  16 S :    0.065760
  17 C :   -0.073461
  18 C :   -0.014729
  19 C :   -0.055400
  20 C :   -0.107998
  21 H :    0.013485
  22 C :    0.035930
  23 H :    0.040122
  24 H :    0.024496
  25 C :   -0.085097
  26 H :    0.020804
  27 H :    0.024336
  28 C :   -0.068199
  29 H :    0.052401
  30 H :    0.042599
  31 H :    0.036279
  32 H :    0.031914
  33 H :    0.059667
Sum of atomic charges:   -0.0000000

LOEWDIN ATOMIC CHARGES
----------------------
   0 S :    0.424800
   1 C :   -0.211201
   2 C :   -0.055574
   3 C :   -0.058107
   4 C :   -0.184922
   5 H :    0.023822
   6 C :   -0.036148
   7 H :    0.034689
   8 H :    0.033410
   9 C :   -0.039913
  10 H :    0.024269
  11 H :    0.032842
  12 C :   -0.065272
  13 H :    0.027751
  14 H :    0.019715
  15 H :    0.017903
  16 S :    0.365608
  17 C :   -0.166234
  18 C :   -0.069864
  19 C :   -0.066194
  20 C :   -0.176914
  21 H :    0.024866
  22 C :   -0.042392
  23 H :    0.038123
  24 H :    0.032161
  25 C :   -0.043491
  26 H :    0.023694
  27 H :    0.023906
  28 C :   -0.073573
  29 H :    0.025582
  30 H :    0.028477
  31 H :    0.031713
  32 H :    0.026409
  33 H :    0.030060

  Mayer bond orders larger than 0.100000
B(  0-S ,  1-C ) :   1.1434 B(  0-S ,  4-C ) :   1.1627 B(  1-C ,  2-C ) :   1.5878
B(  1-C ,  4-C ) :   0.1009 B(  1-C , 32-H ) :   0.9697 B(  2-C ,  3-C ) :   1.2586
B(  2-C ,  6-C ) :   1.0102 B(  3-C ,  4-C ) :   1.5227 B(  3-C ,  5-H ) :   0.9923
B(  4-C , 20-C ) :   1.0721 B(  6-C ,  7-H ) :   0.9390 B(  6-C ,  8-H ) :   0.9438
B(  6-C ,  9-C ) :   1.0775 B(  9-C , 10-H ) :   0.9546 B(  9-C , 11-H ) :   0.9546
B(  9-C , 12-C ) :   1.0741 B( 12-C , 13-H ) :   0.9735 B( 12-C , 14-H ) :   0.9727
B( 12-C , 15-H ) :   0.9748 B( 16-S , 17-C ) :   1.1423 B( 16-S , 20-C ) :   1.1014
B( 17-C , 18-C ) :   1.6041 B( 17-C , 33-H ) :   0.9774 B( 18-C , 19-C ) :   1.2309
B( 18-C , 21-H ) :   0.9886 B( 19-C , 20-C ) :   1.6205 B( 19-C , 22-C ) :   1.0480
B( 22-C , 23-H ) :   0.9392 B( 22-C , 24-H ) :   0.9327 B( 22-C , 25-C ) :   1.0718
B( 25-C , 26-H ) :   0.9501 B( 25-C , 27-H ) :   0.9513 B( 25-C , 28-C ) :   1.0813
B( 28-C , 29-H ) :   0.9734 B( 28-C , 30-H ) :   0.9676 B( 28-C , 31-H ) :   0.9711

Dispersion correction           -0.015025801
FINAL SINGLE POINT ENERGY     -1339.869262541463

DIPOLE MOMENT
-------------
                                X             Y             Z
Electronic contribution:     13.25620       8.84195      22.38150
Nuclear contribution   :    -13.80093      -8.92195     -22.84706
                        -----------------------------------------
Total Dipole Moment    :     -0.54474      -0.08000      -0.46556
                        -----------------------------------------
Magnitude (a.u.)       :      0.72103
Magnitude (Debye)      :      1.83272

Rotational constants in cm-1:     0.018936     0.009349     0.007132
Rotational constants in MHz :   567.675382   280.267678   213.826928

                             ****ORCA TERMINATED NORMALLY****
TOTAL RUN TIME: 0 days 0 hours 0 minutes 36 seconds 193 msec
