                         Program Version 4.2.1 -  RELEASE  -
|  1> ! wB97X-D3 SP def2-SVP
|  2> %pal
|  3> nprocs 16
|  4> end
|  5>
|  6> * xyz 0 1
|  7> S 	 -24.3455 	 45.2795 	 57.0772
|  8> C 	 -25.3307 	 46.7241 	 57.4555
|  9> C 	 -24.9555 	 47.3886 	 58.6148
| 10> C 	 -23.7732 	 46.8408 	 59.1146
| 11> C 	 -23.2882 	 45.7605 	 58.4667
| 12> H 	 -23.1973 	 47.2747 	 59.9146
| 13> C 	 -25.6706 	 48.4267 	 59.3876
| 14> H 	 -26.26 	 49.0821 	 58.7068
| 15> H 	 -25.0225 	 49.203 	 59.7125
| 16> C 	 -26.6417 	 47.8653 	 60.49
| 17> H 	 -27.4121 	 48.5731 	 60.7305
| 18> H 	 -27.1173 	 47.0515 	 59.9412
| 19> C 	 -26.0233 	 47.199 	 61.7671
| 20> H 	 -24.9993 	 46.7482 	 61.5163
| 21> H 	 -25.8564 	 47.9923 	 62.4444
| 22> H 	 -26.6784 	 46.4388 	 62.1192
| 23> S 	 -22.0218 	 43.9451 	 59.9975
| 24> C 	 -20.2235 	 43.7448 	 59.8127
| 25> C 	 -19.735 	 44.5683 	 58.8442
| 26> C 	 -20.7193 	 45.4267 	 58.2896
| 27> C 	 -22.0255 	 45.1232 	 58.7555
| 28> H 	 -18.6927 	 44.6825 	 58.534
| 29> C 	 -20.4905 	 46.4638 	 57.1832
| 30> H 	 -19.387 	 46.7212 	 57.1242
| 31> H 	 -20.8953 	 47.4418 	 57.5824
| 32> C 	 -21.0276 	 46.0895 	 55.783
| 33> H 	 -21.1367 	 47.1228 	 55.274
| 34> H 	 -22.0488 	 45.724 	 55.9349
| 35> C 	 -20.2281 	 45.052 	 55.0735
| 36> H 	 -20.6388 	 44.8329 	 54.0814
| 37> H 	 -20.2492 	 44.0355 	 55.4963
| 38> H 	 -19.2022 	 45.3246 	 55.0089
| 39> H 	 -26.1769 	 46.8317 	 56.823
| 40> H 	 -19.6258 	 43.062 	 60.3177
| 41> *
| 42>
| 43>                          ****END OF INPUT****

CARTESIAN COORDINATES (ANGSTROEM)
---------------------------------
  S    -24.345500   45.279500   57.077200
  C    -25.330700   46.724100   57.455500
  C    -24.955500   47.388600   58.614800
  C    -23.773200   46.840800   59.114600
  C    -23.288200   45.760500   58.466700
  H    -23.197300   47.274700   59.914600
  C    -25.670600   48.426700   59.387600
  H    -26.260000   49.082100   58.706800
  H    -25.022500   49.203000   59.712500
  C    -26.641700   47.865300   60.490000
  H    -27.412100   48.573100   60.730500
  H    -27.117300   47.051500   59.941200
  C    -26.023300   47.199000   61.767100
  H    -24.999300   46.748200   61.516300
  H    -25.856400   47.992300   62.444400
  H    -26.678400   46.438800   62.119200
  S    -22.021800   43.945100   59.997500
  C    -20.223500   43.744800   59.812700
  C    -19.735000   44.568300   58.844200
  C    -20.719300   45.426700   58.289600
  C    -22.025500   45.123200   58.755500
  H    -18.692700   44.682500   58.534000
  C    -20.490500   46.463800   57.183200
  H    -19.387000   46.721200   57.124200
  H    -20.895300   47.441800   57.582400
  C    -21.027600   46.089500   55.783000
  H    -21.136700   47.122800   55.274000
  H    -22.048800   45.724000   55.934900
  C    -20.228100   45.052000   55.073500
  H    -20.638800   44.832900   54.081400
  H    -20.249200   44.035500   55.496300
  H    -19.202200   45.324600   55.008900
  H    -26.176900   46.831700   56.823000
  H    -19.625800   43.062000   60.317700

 Total Charge           Charge          ....    0
 Multiplicity           Mult            ....    1
 Number of Electrons    NEL             ....  134
 Basis Dimension        Dim             ....  322

ORBITAL ENERGIES
----------------

  NO   OCC          E(Eh)            E(eV)
   0   2.0000     -88.968483     -2420.9555
   1   2.0000     -88.966271     -2420.8953
   2   2.0000     -10.326233      -280.9911
   3   2.0000     -10.320150      -280.8256
   4   2.0000     -10.319950      -280.8201
   5   2.0000     -10.314708      -280.6775
   6   2.0000     -10.301011      -280.3047
   7   2.0000     -10.300418      -280.2886
   8   2.0000     -10.295099      -280.1439
   9   2.0000     -10.293141      -280.0906
  10   2.0000     -10.293028      -280.0875
  11   2.0000     -10.288764      -279.9715
  12   2.0000     -10.288531      -279.9652
  13   2.0000     -10.284008      -279.8421
  14   2.0000     -10.277962      -279.6776
  15   2.0000     -10.269559      -279.4489
  16   2.0000      -8.081392      -219.9059
  17   2.0000      -8.080495      -219.8815
  18   2.0000      -6.039804      -164.3514
  19   2.0000      -6.038994      -164.3294
  20   2.0000      -6.036372      -164.2580
  21   2.0000      -6.034996      -164.2206
  22   2.0000      -6.032143      -164.1430
  23   2.0000      -6.031386      -164.1224
  24   2.0000      -1.004329       -27.3292
  25   2.0000      -0.980684       -26.6858
  26   2.0000      -0.907968       -24.7071
  27   2.0000      -0.901045       -24.5187
  28   2.0000      -0.870992       -23.7009
  29   2.0000      -0.849291       -23.1104
  30   2.0000      -0.843366       -22.9492
  31   2.0000      -0.816686       -22.2232
  32   2.0000      -0.784108       -21.3367
  33   2.0000      -0.766610       -20.8605
  34   2.0000      -0.706144       -19.2152
  35   2.0000      -0.703246       -19.1363
  36   2.0000      -0.684328       -18.6215
  37   2.0000      -0.663087       -18.0435
  38   2.0000      -0.650860       -17.7108
  39   2.0000      -0.620633       -16.8883
  40   2.0000      -0.591762       -16.1027
  41   2.0000      -0.573110       -15.5951
  42   2.0000      -0.548253       -14.9187
  43   2.0000      -0.542806       -14.7705
  44   2.0000      -0.539416       -14.6783
  45   2.0000      -0.532731       -14.4964
  46   2.0000      -0.520594       -14.1661
  47   2.0000      -0.512824       -13.9547
  48   2.0000      -0.498842       -13.5742
  49   2.0000      -0.494357       -13.4521
  50   2.0000      -0.482759       -13.1365
  51   2.0000      -0.477307       -12.9882
  52   2.0000      -0.470316       -12.7979
  53   2.0000      -0.464012       -12.6264
  54   2.0000      -0.459139       -12.4938
  55   2.0000      -0.443539       -12.0693
  56   2.0000      -0.439274       -11.9533
  57   2.0000      -0.435222       -11.8430
  58   2.0000      -0.432791       -11.7768
  59   2.0000      -0.430403       -11.7119
  60   2.0000      -0.413937       -11.2638
  61   2.0000      -0.411669       -11.2021
  62   2.0000      -0.404147       -10.9974
  63   2.0000      -0.341754        -9.2996
  64   2.0000      -0.336862        -9.1665
  65   2.0000      -0.313706        -8.5364
  66   2.0000      -0.304567        -8.2877
  67   0.0000       0.040781         1.1097
  68   0.0000       0.046260         1.2588
  69   0.0000       0.101687         2.7671
  70   0.0000       0.111933         3.0459
  71   0.0000       0.126443         3.4407

MULLIKEN ATOMIC CHARGES
-----------------------
   0 S :    0.088849
   1 C :   -0.129888
   2 C :   -0.042036
   3 C :    0.048311
   4 C :   -0.169055
   5 H :    0.018484
   6 C :    0.067205
   7 H :    0.013692
   8 H :    0.013953
   9 C :   -0.068393
  10 H :    0.032283
  11 H :    0.022638
  12 C :   -0.043166
  13 H :    0.041139
  14 H :    0.029114
  15 H :    0.041732
  16 S :    0.113387
  17 C :   -0.067275
  18 C :   -0.013631
  19 C :   -0.042386
  20 C :   -0.193952
  21 H :    0.022124
  22 C :    0.031056
  23 H :    0.015761
  24 H :    0.035474
  25 C :   -0.058615
  26 H :    0.041352
  27 H :    0.025758
  28 C :   -0.024580
  29 H :    0.030278
  30 H :    0.033314
  31 H :    0.017614
  32 H :    0.039922
  33 H :    0.029538
Sum of atomic charges:    0.0000000

LOEWDIN ATOMIC CHARGES
----------------------
   0 S :    0.376097
   1 C :   -0.161514
   2 C :   -0.065659
   3 C :   -0.050126
   4 C :   -0.180867
   5 H :    0.034470
   6 C :   -0.037774
   7 H :    0.036326
   8 H :    0.023675
   9 C :   -0.033852
  10 H :    0.021396
  11 H :    0.024949
  12 C :   -0.061993
  13 H :    0.035893
  14 H :    0.018297
  15 H :    0.025281
  16 S :    0.405894
  17 C :   -0.160475
  18 C :   -0.067549
  19 C :   -0.058101
  20 C :   -0.218550
  21 H :    0.036712
  22 C :   -0.043568
  23 H :    0.027727
  24 H :    0.036996
  25 C :   -0.049760
  26 H :    0.035724
  27 H :    0.008850
  28 C :   -0.069013
  29 H :    0.030429
  30 H :    0.031927
  31 H :    0.017364
  32 H :    0.015541
  33 H :    0.015255

  Mayer bond orders larger than 0.100000
B(  0-S ,  1-C ) :   1.1427 B(  0-S ,  4-C ) :   1.1152 B(  1-C ,  2-C ) :   1.6006
B(  1-C ,  4-C ) :   0.1004 B(  1-C , 32-H ) :   0.9766 B(  2-C ,  3-C ) :   1.2205
B(  2-C ,  6-C ) :   1.0444 B(  3-C ,  4-C ) :   1.6329 B(  3-C ,  5-H ) :   0.9861
B(  4-C , 20-C ) :   1.0113 B(  6-C ,  7-H ) :   0.9293 B(  6-C ,  8-H ) :   0.9372
B(  6-C ,  9-C ) :   1.0519 B(  9-C , 10-H ) :   0.9613 B(  9-C , 11-H ) :   0.9581
B(  9-C , 12-C ) :   1.0665 B( 12-C , 13-H ) :   0.9714 B( 12-C , 14-H ) :   0.9785
B( 12-C , 15-H ) :   0.9770 B( 16-S , 17-C ) :   1.1394 B( 16-S , 20-C ) :   1.1676
B( 17-C , 18-C ) :   1.5986 B( 17-C , 20-C ) :   0.1053 B( 17-C , 33-H ) :   0.9757
B( 18-C , 19-C ) :   1.2754 B( 18-C , 21-H ) :   0.9799 B( 19-C , 20-C ) :   1.5672
B( 19-C , 22-C ) :   1.0399 B( 22-C , 23-H ) :   0.9362 B( 22-C , 24-H ) :   0.9298
B( 22-C , 25-C ) :   1.0637 B( 25-C , 26-H ) :   0.9507 B( 25-C , 27-H ) :   0.9473
B( 25-C , 28-C ) :   1.0794 B( 28-C , 29-H ) :   0.9684 B( 28-C , 30-H ) :   0.9695
B( 28-C , 31-H ) :   0.9746

Dispersion correction           -0.015791859
FINAL SINGLE POINT ENERGY     -1339.868146508407

DIPOLE MOMENT
-------------
                                X             Y             Z
Electronic contribution:      1.21183     -12.26686       1.75692
Nuclear contribution   :     -1.22465      12.73085      -1.70634
                        -----------------------------------------
Total Dipole Moment    :     -0.01282       0.46400       0.05058
                        -----------------------------------------
Magnitude (a.u.)       :      0.46692
Magnitude (Debye)      :      1.18682

Rotational constants in cm-1:     0.020941     0.009235     0.007441
Rotational constants in MHz :   627.804103   276.861395   223.088273

                             ****ORCA TERMINATED NORMALLY****
TOTAL RUN TIME: 0 days 0 hours 0 minutes 52 seconds 243 msec
