                         Program Version 4.2.1 -  RELEASE  -
|  1> ! wB97X-D3 SP def2-SVP
|  2> %pal
|  3> nprocs 16
|  4> end
|  5>
|  6> * xyz 0 1
|  7> S 	 50.9222 	 14.0445 	 86.5832
|  8> C 	 49.2149 	 14.4336 	 86.5444
|  9> C 	 48.6724 	 14.2564 	 85.2733
| 10> C 	 49.5872 	 13.4796 	 84.4221
| 11> C 	 50.8606 	 13.3857 	 84.9072
| 12> H 	 49.382 	 13.1859 	 83.377
| 13> C 	 47.2037 	 14.3166 	 84.8445
| 14> H 	 46.5599 	 14.7409 	 85.682
| 15> H 	 46.8514 	 13.2939 	 84.6333
| 16> C 	 46.9306 	 15.3721 	 83.6979
| 17> H 	 47.6406 	 15.1559 	 82.9048
| 18> H 	 45.9339 	 15.229 	 83.374
| 19> C 	 47.1299 	 16.8853 	 84.0638
| 20> H 	 47.0943 	 17.6311 	 83.2528
| 21> H 	 46.356 	 17.2636 	 84.7491
| 22> H 	 48.1285 	 17.0904 	 84.3815
| 23> S 	 52.6244 	 13.3372 	 82.8501
| 24> C 	 53.9784 	 12.3239 	 82.8682
| 25> C 	 53.7572 	 11.2149 	 83.7042
| 26> C 	 52.6539 	 11.4406 	 84.5747
| 27> C 	 51.9852 	 12.6555 	 84.2903
| 28> H 	 54.3262 	 10.3308 	 83.6596
| 29> C 	 52.219 	 10.4795 	 85.6266
| 30> H 	 51.5413 	 10.9799 	 86.3865
| 31> H 	 53.0357 	 10.0912 	 86.2145
| 32> C 	 51.4626 	 9.16177 	 85.1439
| 33> H 	 51.225 	 8.5404 	 85.9988
| 34> H 	 52.099 	 8.59234 	 84.4736
| 35> C 	 50.0868 	 9.27533 	 84.4561
| 36> H 	 50.1474 	 9.6695 	 83.4523
| 37> H 	 49.5461 	 10.0286 	 84.9905
| 38> H 	 49.5114 	 8.35376 	 84.466
| 39> H 	 48.5671 	 14.7699 	 87.416
| 40> H 	 54.777 	 12.2188 	 82.167
| 41> *
| 42>
| 43>                          ****END OF INPUT****

CARTESIAN COORDINATES (ANGSTROEM)
---------------------------------
  S     50.922200   14.044500   86.583200
  C     49.214900   14.433600   86.544400
  C     48.672400   14.256400   85.273300
  C     49.587200   13.479600   84.422100
  C     50.860600   13.385700   84.907200
  H     49.382000   13.185900   83.377000
  C     47.203700   14.316600   84.844500
  H     46.559900   14.740900   85.682000
  H     46.851400   13.293900   84.633300
  C     46.930600   15.372100   83.697900
  H     47.640600   15.155900   82.904800
  H     45.933900   15.229000   83.374000
  C     47.129900   16.885300   84.063800
  H     47.094300   17.631100   83.252800
  H     46.356000   17.263600   84.749100
  H     48.128500   17.090400   84.381500
  S     52.624400   13.337200   82.850100
  C     53.978400   12.323900   82.868200
  C     53.757200   11.214900   83.704200
  C     52.653900   11.440600   84.574700
  C     51.985200   12.655500   84.290300
  H     54.326200   10.330800   83.659600
  C     52.219000   10.479500   85.626600
  H     51.541300   10.979900   86.386500
  H     53.035700   10.091200   86.214500
  C     51.462600    9.161770   85.143900
  H     51.225000    8.540400   85.998800
  H     52.099000    8.592340   84.473600
  C     50.086800    9.275330   84.456100
  H     50.147400    9.669500   83.452300
  H     49.546100   10.028600   84.990500
  H     49.511400    8.353760   84.466000
  H     48.567100   14.769900   87.416000
  H     54.777000   12.218800   82.167000

 Total Charge           Charge          ....    0
 Multiplicity           Mult            ....    1
 Number of Electrons    NEL             ....  134
 Basis Dimension        Dim             ....  322

ORBITAL ENERGIES
----------------

  NO   OCC          E(Eh)            E(eV)
   0   2.0000     -88.968765     -2420.9632
   1   2.0000     -88.967865     -2420.9387
   2   2.0000     -10.334148      -281.2065
   3   2.0000     -10.326894      -281.0091
   4   2.0000     -10.324266      -280.9376
   5   2.0000     -10.314827      -280.6807
   6   2.0000     -10.306487      -280.4538
   7   2.0000     -10.306188      -280.4456
   8   2.0000     -10.303262      -280.3660
   9   2.0000     -10.299258      -280.2570
  10   2.0000     -10.293964      -280.1130
  11   2.0000     -10.292809      -280.0816
  12   2.0000     -10.289655      -279.9957
  13   2.0000     -10.285929      -279.8944
  14   2.0000     -10.277928      -279.6766
  15   2.0000     -10.267331      -279.3883
  16   2.0000      -8.084840      -219.9997
  17   2.0000      -8.081473      -219.9081
  18   2.0000      -6.043131      -164.4420
  19   2.0000      -6.040202      -164.3623
  20   2.0000      -6.039124      -164.3329
  21   2.0000      -6.036171      -164.2526
  22   2.0000      -6.035778      -164.2419
  23   2.0000      -6.032012      -164.1394
  24   2.0000      -1.009703       -27.4754
  25   2.0000      -0.982591       -26.7377
  26   2.0000      -0.901985       -24.5443
  27   2.0000      -0.900197       -24.4956
  28   2.0000      -0.868365       -23.6294
  29   2.0000      -0.850813       -23.1518
  30   2.0000      -0.840775       -22.8786
  31   2.0000      -0.813443       -22.1349
  32   2.0000      -0.781162       -21.2565
  33   2.0000      -0.771114       -20.9831
  34   2.0000      -0.705370       -19.1941
  35   2.0000      -0.697328       -18.9753
  36   2.0000      -0.689468       -18.7614
  37   2.0000      -0.662454       -18.0263
  38   2.0000      -0.634032       -17.2529
  39   2.0000      -0.618891       -16.8409
  40   2.0000      -0.595011       -16.1911
  41   2.0000      -0.570293       -15.5185
  42   2.0000      -0.547362       -14.8945
  43   2.0000      -0.546487       -14.8707
  44   2.0000      -0.544316       -14.8116
  45   2.0000      -0.539417       -14.6783
  46   2.0000      -0.513928       -13.9847
  47   2.0000      -0.499886       -13.6026
  48   2.0000      -0.497875       -13.5479
  49   2.0000      -0.494514       -13.4564
  50   2.0000      -0.491105       -13.3636
  51   2.0000      -0.476912       -12.9774
  52   2.0000      -0.468629       -12.7520
  53   2.0000      -0.462244       -12.5783
  54   2.0000      -0.455367       -12.3912
  55   2.0000      -0.450501       -12.2587
  56   2.0000      -0.445520       -12.1232
  57   2.0000      -0.442228       -12.0336
  58   2.0000      -0.436359       -11.8739
  59   2.0000      -0.422185       -11.4882
  60   2.0000      -0.419681       -11.4201
  61   2.0000      -0.411619       -11.2007
  62   2.0000      -0.404091       -10.9959
  63   2.0000      -0.341157        -9.2833
  64   2.0000      -0.330580        -8.9955
  65   2.0000      -0.323238        -8.7958
  66   2.0000      -0.301322        -8.1994
  67   0.0000       0.033081         0.9002
  68   0.0000       0.058859         1.6016
  69   0.0000       0.100879         2.7450
  70   0.0000       0.113171         3.0795
  71   0.0000       0.122890         3.3440

MULLIKEN ATOMIC CHARGES
-----------------------
   0 S :    0.110977
   1 C :   -0.142585
   2 C :   -0.075282
   3 C :    0.017721
   4 C :   -0.135725
   5 H :    0.031296
   6 C :    0.003436
   7 H :    0.026089
   8 H :    0.053983
   9 C :   -0.044149
  10 H :    0.025620
  11 H :    0.026729
  12 C :   -0.068456
  13 H :    0.027581
  14 H :    0.033548
  15 H :    0.031992
  16 S :    0.137561
  17 C :   -0.063278
  18 C :   -0.051236
  19 C :    0.007256
  20 C :   -0.196316
  21 H :    0.007004
  22 C :    0.047633
  23 H :    0.034127
  24 H :    0.025854
  25 C :   -0.090862
  26 H :    0.029554
  27 H :    0.022192
  28 C :   -0.042207
  29 H :    0.027961
  30 H :    0.017242
  31 H :    0.037122
  32 H :    0.079124
  33 H :    0.048493
Sum of atomic charges:   -0.0000000

LOEWDIN ATOMIC CHARGES
----------------------
   0 S :    0.382974
   1 C :   -0.202210
   2 C :   -0.072096
   3 C :   -0.061912
   4 C :   -0.184108
   5 H :    0.035232
   6 C :   -0.035759
   7 H :    0.032097
   8 H :    0.036703
   9 C :   -0.032751
  10 H :    0.020637
  11 H :    0.018426
  12 C :   -0.073650
  13 H :    0.030839
  14 H :    0.025256
  15 H :    0.023781
  16 S :    0.459590
  17 C :   -0.202199
  18 C :   -0.063042
  19 C :   -0.053151
  20 C :   -0.218603
  21 H :    0.023939
  22 C :   -0.036778
  23 H :    0.034235
  24 H :    0.030632
  25 C :   -0.036078
  26 H :    0.025186
  27 H :    0.016508
  28 C :   -0.067206
  29 H :    0.021241
  30 H :    0.021162
  31 H :    0.027284
  32 H :    0.047209
  33 H :    0.026608

  Mayer bond orders larger than 0.100000
B(  0-S ,  1-C ) :   1.1359 B(  0-S ,  4-C ) :   1.1044 B(  1-C ,  2-C ) :   1.6405
B(  1-C , 32-H ) :   0.9536 B(  2-C ,  3-C ) :   1.1895 B(  2-C ,  6-C ) :   1.0288
B(  3-C ,  4-C ) :   1.6511 B(  3-C ,  5-H ) :   0.9769 B(  4-C , 20-C ) :   1.0116
B(  6-C ,  7-H ) :   0.9489 B(  6-C ,  8-H ) :   0.9520 B(  6-C ,  9-C ) :   1.0478
B(  9-C , 10-H ) :   0.9619 B(  9-C , 11-H ) :   0.9600 B(  9-C , 12-C ) :   1.0735
B( 12-C , 13-H ) :   0.9740 B( 12-C , 14-H ) :   0.9766 B( 12-C , 15-H ) :   0.9742
B( 16-S , 17-C ) :   1.1943 B( 16-S , 20-C ) :   1.1714 B( 17-C , 18-C ) :   1.5499
B( 17-C , 20-C ) :   0.1056 B( 17-C , 33-H ) :   0.9681 B( 18-C , 19-C ) :   1.2839
B( 18-C , 21-H ) :   0.9973 B( 19-C , 20-C ) :   1.5266 B( 19-C , 22-C ) :   1.0624
B( 22-C , 23-H ) :   0.9322 B( 22-C , 24-H ) :   0.9311 B( 22-C , 25-C ) :   1.0699
B( 25-C , 26-H ) :   0.9587 B( 25-C , 27-H ) :   0.9597 B( 25-C , 28-C ) :   1.0723
B( 28-C , 29-H ) :   0.9751 B( 28-C , 30-H ) :   0.9737 B( 28-C , 31-H ) :   0.9758

Dispersion correction           -0.015029702
FINAL SINGLE POINT ENERGY     -1339.863979754536

DIPOLE MOMENT
-------------
                                X             Y             Z
Electronic contribution:     18.37999       5.91548       1.43562
Nuclear contribution   :    -18.71368      -6.28638      -1.58584
                        -----------------------------------------
Total Dipole Moment    :     -0.33369      -0.37090      -0.15022
                        -----------------------------------------
Magnitude (a.u.)       :      0.52104
Magnitude (Debye)      :      1.32437

Rotational constants in cm-1:     0.020436     0.008135     0.007372
Rotational constants in MHz :   612.664411   243.886800   221.020442

                             ****ORCA TERMINATED NORMALLY****
TOTAL RUN TIME: 0 days 0 hours 0 minutes 29 seconds 785 msec
