                         Program Version 4.2.1 -  RELEASE  -
|  1> ! wB97X-D3 SP def2-SVP
|  2> %pal
|  3> nprocs 16
|  4> end
|  5>
|  6> * xyz 0 1
|  7> S 	 -44.3647 	 30.2952 	 89.5361
|  8> C 	 -44.9321 	 29.7334 	 91.1207
|  9> C 	 -46.2657 	 30.0039 	 91.3333
| 10> C 	 -46.8519 	 30.7849 	 90.3268
| 11> C 	 -46.0026 	 30.9898 	 89.2118
| 12> H 	 -47.8407 	 31.1691 	 90.4397
| 13> C 	 -47.0833 	 29.6083 	 92.6029
| 14> H 	 -47.8327 	 30.3245 	 92.8325
| 15> H 	 -46.3515 	 29.625 	 93.4153
| 16> C 	 -47.6918 	 28.172 	 92.5718
| 17> H 	 -48.4133 	 28.0969 	 91.7586
| 18> H 	 -46.9718 	 27.4791 	 92.1991
| 19> C 	 -48.1416 	 27.7282 	 93.9754
| 20> H 	 -47.3263 	 27.8647 	 94.7066
| 21> H 	 -48.8849 	 28.3832 	 94.2616
| 22> H 	 -48.541 	 26.6884 	 93.9775
| 23> S 	 -46.3627 	 30.956 	 86.403
| 24> C 	 -47.148 	 32.3344 	 85.6771
| 25> C 	 -47.3063 	 33.4053 	 86.47
| 26> C 	 -46.8238 	 33.026 	 87.8638
| 27> C 	 -46.3635 	 31.6955 	 87.9925
| 28> H 	 -47.6598 	 34.3437 	 86.0338
| 29> C 	 -46.9027 	 34.0746 	 88.9337
| 30> H 	 -47.2205 	 33.6272 	 89.8924
| 31> H 	 -47.664 	 34.7989 	 88.7286
| 32> C 	 -45.6899 	 34.9629 	 89.209
| 33> H 	 -45.4362 	 35.5183 	 88.2613
| 34> H 	 -44.789 	 34.4145 	 89.5529
| 35> C 	 -45.975 	 36.0474 	 90.2818
| 36> H 	 -46.6104 	 36.9138 	 89.9147
| 37> H 	 -44.9618 	 36.5051 	 90.537
| 38> H 	 -46.4645 	 35.783 	 91.2192
| 39> H 	 -44.2926 	 29.1738 	 91.824
| 40> H 	 -47.3819 	 32.4144 	 84.6697
| 41> *
| 42>
| 43>                          ****END OF INPUT****

CARTESIAN COORDINATES (ANGSTROEM)
---------------------------------
  S    -44.364700   30.295200   89.536100
  C    -44.932100   29.733400   91.120700
  C    -46.265700   30.003900   91.333300
  C    -46.851900   30.784900   90.326800
  C    -46.002600   30.989800   89.211800
  H    -47.840700   31.169100   90.439700
  C    -47.083300   29.608300   92.602900
  H    -47.832700   30.324500   92.832500
  H    -46.351500   29.625000   93.415300
  C    -47.691800   28.172000   92.571800
  H    -48.413300   28.096900   91.758600
  H    -46.971800   27.479100   92.199100
  C    -48.141600   27.728200   93.975400
  H    -47.326300   27.864700   94.706600
  H    -48.884900   28.383200   94.261600
  H    -48.541000   26.688400   93.977500
  S    -46.362700   30.956000   86.403000
  C    -47.148000   32.334400   85.677100
  C    -47.306300   33.405300   86.470000
  C    -46.823800   33.026000   87.863800
  C    -46.363500   31.695500   87.992500
  H    -47.659800   34.343700   86.033800
  C    -46.902700   34.074600   88.933700
  H    -47.220500   33.627200   89.892400
  H    -47.664000   34.798900   88.728600
  C    -45.689900   34.962900   89.209000
  H    -45.436200   35.518300   88.261300
  H    -44.789000   34.414500   89.552900
  C    -45.975000   36.047400   90.281800
  H    -46.610400   36.913800   89.914700
  H    -44.961800   36.505100   90.537000
  H    -46.464500   35.783000   91.219200
  H    -44.292600   29.173800   91.824000
  H    -47.381900   32.414400   84.669700

 Total Charge           Charge          ....    0
 Multiplicity           Mult            ....    1
 Number of Electrons    NEL             ....  134
 Basis Dimension        Dim             ....  322

ORBITAL ENERGIES
----------------

  NO   OCC          E(Eh)            E(eV)
   0   2.0000     -88.971926     -2421.0492
   1   2.0000     -88.963172     -2420.8110
   2   2.0000     -10.338966      -281.3376
   3   2.0000     -10.330151      -281.0977
   4   2.0000     -10.319628      -280.8114
   5   2.0000     -10.313386      -280.6415
   6   2.0000     -10.309602      -280.5385
   7   2.0000     -10.301097      -280.3071
   8   2.0000     -10.298397      -280.2336
   9   2.0000     -10.296708      -280.1877
  10   2.0000     -10.295253      -280.1481
  11   2.0000     -10.290263      -280.0123
  12   2.0000     -10.285485      -279.8823
  13   2.0000     -10.284443      -279.8539
  14   2.0000     -10.284312      -279.8503
  15   2.0000     -10.278637      -279.6959
  16   2.0000      -8.085060      -220.0057
  17   2.0000      -8.078225      -219.8197
  18   2.0000      -6.043593      -164.4545
  19   2.0000      -6.039832      -164.3522
  20   2.0000      -6.036987      -164.2748
  21   2.0000      -6.035849      -164.2438
  22   2.0000      -6.032720      -164.1587
  23   2.0000      -6.028658      -164.0481
  24   2.0000      -0.998332       -27.1660
  25   2.0000      -0.978409       -26.6239
  26   2.0000      -0.906634       -24.6708
  27   2.0000      -0.903822       -24.5942
  28   2.0000      -0.871007       -23.7013
  29   2.0000      -0.850335       -23.1388
  30   2.0000      -0.840345       -22.8669
  31   2.0000      -0.815219       -22.1832
  32   2.0000      -0.780662       -21.2429
  33   2.0000      -0.765196       -20.8220
  34   2.0000      -0.707883       -19.2625
  35   2.0000      -0.705996       -19.2111
  36   2.0000      -0.687468       -18.7069
  37   2.0000      -0.657701       -17.8969
  38   2.0000      -0.637556       -17.3488
  39   2.0000      -0.623248       -16.9594
  40   2.0000      -0.593491       -16.1497
  41   2.0000      -0.572776       -15.5860
  42   2.0000      -0.562570       -15.3083
  43   2.0000      -0.554621       -15.0920
  44   2.0000      -0.525152       -14.2901
  45   2.0000      -0.518634       -14.1128
  46   2.0000      -0.512789       -13.9537
  47   2.0000      -0.508904       -13.8480
  48   2.0000      -0.499749       -13.5989
  49   2.0000      -0.498287       -13.5591
  50   2.0000      -0.497061       -13.5257
  51   2.0000      -0.476304       -12.9609
  52   2.0000      -0.470664       -12.8074
  53   2.0000      -0.465795       -12.6749
  54   2.0000      -0.456577       -12.4241
  55   2.0000      -0.447312       -12.1720
  56   2.0000      -0.442292       -12.0354
  57   2.0000      -0.437905       -11.9160
  58   2.0000      -0.431599       -11.7444
  59   2.0000      -0.426161       -11.5964
  60   2.0000      -0.418573       -11.3900
  61   2.0000      -0.416257       -11.3269
  62   2.0000      -0.409956       -11.1555
  63   2.0000      -0.345503        -9.4016
  64   2.0000      -0.336148        -9.1470
  65   2.0000      -0.323038        -8.7903
  66   2.0000      -0.293983        -7.9997
  67   0.0000       0.029706         0.8083
  68   0.0000       0.062675         1.7055
  69   0.0000       0.109974         2.9926
  70   0.0000       0.119516         3.2522
  71   0.0000       0.126636         3.4460

MULLIKEN ATOMIC CHARGES
-----------------------
   0 S :    0.111793
   1 C :   -0.137290
   2 C :   -0.080066
   3 C :    0.054447
   4 C :   -0.167208
   5 H :    0.009730
   6 C :    0.058038
   7 H :    0.018574
   8 H :    0.016252
   9 C :   -0.060331
  10 H :    0.022718
  11 H :    0.014566
  12 C :   -0.020304
  13 H :    0.031555
  14 H :    0.012426
  15 H :    0.048050
  16 S :    0.103880
  17 C :   -0.054981
  18 C :   -0.029805
  19 C :   -0.054056
  20 C :   -0.128444
  21 H :    0.033583
  22 C :    0.076365
  23 H :    0.014326
  24 H :    0.004612
  25 C :   -0.072291
  26 H :    0.032889
  27 H :    0.043514
  28 C :   -0.100309
  29 H :    0.034373
  30 H :    0.042930
  31 H :    0.034806
  32 H :    0.056864
  33 H :    0.028793
Sum of atomic charges:    0.0000000

LOEWDIN ATOMIC CHARGES
----------------------
   0 S :    0.381259
   1 C :   -0.191267
   2 C :   -0.065742
   3 C :   -0.047826
   4 C :   -0.176757
   5 H :    0.029795
   6 C :   -0.020586
   7 H :    0.022175
   8 H :    0.027969
   9 C :   -0.040893
  10 H :    0.023335
  11 H :    0.018446
  12 C :   -0.059256
  13 H :    0.028714
  14 H :    0.013172
  15 H :    0.034316
  16 S :    0.396424
  17 C :   -0.170331
  18 C :   -0.071432
  19 C :   -0.039586
  20 C :   -0.210833
  21 H :    0.039720
  22 C :   -0.045991
  23 H :    0.029543
  24 H :    0.026376
  25 C :   -0.040060
  26 H :    0.029685
  27 H :    0.027472
  28 C :   -0.080499
  29 H :    0.026921
  30 H :    0.035014
  31 H :    0.021194
  32 H :    0.032638
  33 H :    0.016893

  Mayer bond orders larger than 0.100000
B(  0-S ,  1-C ) :   1.1356 B(  0-S ,  4-C ) :   1.1404 B(  1-C ,  2-C ) :   1.6125
B(  1-C ,  4-C ) :   0.1088 B(  1-C , 32-H ) :   0.9621 B(  2-C ,  3-C ) :   1.2726
B(  2-C ,  6-C ) :   1.0107 B(  3-C ,  4-C ) :   1.5498 B(  3-C ,  5-H ) :   0.9927
B(  4-C , 20-C ) :   1.0637 B(  6-C ,  7-H ) :   0.9482 B(  6-C ,  8-H ) :   0.9449
B(  6-C ,  9-C ) :   1.0540 B(  9-C , 10-H ) :   0.9541 B(  9-C , 11-H ) :   0.9570
B(  9-C , 12-C ) :   1.0721 B( 12-C , 13-H ) :   0.9743 B( 12-C , 14-H ) :   0.9761
B( 12-C , 15-H ) :   0.9732 B( 16-S , 17-C ) :   1.1444 B( 16-S , 20-C ) :   1.1031
B( 17-C , 18-C ) :   1.6766 B( 17-C , 33-H ) :   0.9649 B( 18-C , 19-C ) :   1.1768
B( 18-C , 21-H ) :   0.9867 B( 19-C , 20-C ) :   1.6206 B( 19-C , 22-C ) :   1.0647
B( 22-C , 23-H ) :   0.9264 B( 22-C , 24-H ) :   0.9319 B( 22-C , 25-C ) :   1.0689
B( 25-C , 26-H ) :   0.9511 B( 25-C , 27-H ) :   0.9589 B( 25-C , 28-C ) :   1.0696
B( 28-C , 29-H ) :   0.9745 B( 28-C , 30-H ) :   0.9757 B( 28-C , 31-H ) :   0.9772

Dispersion correction           -0.013628958
FINAL SINGLE POINT ENERGY     -1339.870670695210

DIPOLE MOMENT
-------------
                                X             Y             Z
Electronic contribution:      9.48089      -7.59162     -22.80103
Nuclear contribution   :     -9.85670       7.88420      23.20960
                        -----------------------------------------
Total Dipole Moment    :     -0.37581       0.29258       0.40857
                        -----------------------------------------
Magnitude (a.u.)       :      0.62751
Magnitude (Debye)      :      1.59500

Rotational constants in cm-1:     0.017989     0.007525     0.006454
Rotational constants in MHz :   539.301839   225.586000   193.475720

                             ****ORCA TERMINATED NORMALLY****
TOTAL RUN TIME: 0 days 0 hours 0 minutes 28 seconds 620 msec
