                         Program Version 4.2.1 -  RELEASE  -
|  1> ! wB97X-D3 SP def2-SVP
|  2> %pal
|  3> nprocs 16
|  4> end
|  5>
|  6> * xyz 0 1
|  7> S 	 -15.8827 	 -10.3832 	 91.9792
|  8> C 	 -17.2002 	 -9.37526 	 91.305
|  9> C 	 -16.8521 	 -9.03281 	 90.0032
| 10> C 	 -15.6076 	 -9.53726 	 89.5134
| 11> C 	 -14.9879 	 -10.3019 	 90.4814
| 12> H 	 -15.203 	 -9.3704 	 88.5254
| 13> C 	 -17.7144 	 -8.14035 	 89.1432
| 14> H 	 -18.7236 	 -7.99926 	 89.6628
| 15> H 	 -17.8434 	 -8.66848 	 88.3281
| 16> C 	 -17.0973 	 -6.7976 	 88.9047
| 17> H 	 -16.9791 	 -6.22421 	 89.8921
| 18> H 	 -16.0878 	 -6.89614 	 88.5747
| 19> C 	 -17.8625 	 -5.97782 	 87.9254
| 20> H 	 -18.3007 	 -6.64758 	 87.1909
| 21> H 	 -18.7198 	 -5.63107 	 88.5023
| 22> H 	 -17.1744 	 -5.21769 	 87.6075
| 23> S 	 -12.5464 	 -10.6415 	 91.5723
| 24> C 	 -11.1769 	 -11.1713 	 90.5795
| 25> C 	 -11.6079 	 -11.7174 	 89.3782
| 26> C 	 -13.0594 	 -11.5761 	 89.1857
| 27> C 	 -13.7015 	 -10.9151 	 90.2712
| 28> H 	 -11 	 -12.0062 	 88.5381
| 29> C 	 -13.7368 	 -11.9703 	 87.8902
| 30> H 	 -12.9865 	 -12.273 	 87.1272
| 31> H 	 -14.1101 	 -11.0057 	 87.52
| 32> C 	 -14.8546 	 -12.972 	 88.0495
| 33> H 	 -15.5079 	 -12.9063 	 87.1784
| 34> H 	 -15.3991 	 -12.7899 	 88.9599
| 35> C 	 -14.3023 	 -14.3613 	 88.2175
| 36> H 	 -14.9748 	 -15.1962 	 88.4735
| 37> H 	 -13.5624 	 -14.4301 	 89.0067
| 38> H 	 -13.804 	 -14.6512 	 87.3627
| 39> H 	 -18.0729 	 -8.93589 	 91.7548
| 40> H 	 -10.124 	 -11.1741 	 90.9323
| 41> *
| 42>
| 43>                          ****END OF INPUT****

CARTESIAN COORDINATES (ANGSTROEM)
---------------------------------
  S    -15.882700  -10.383200   91.979200
  C    -17.200200   -9.375260   91.305000
  C    -16.852100   -9.032810   90.003200
  C    -15.607600   -9.537260   89.513400
  C    -14.987900  -10.301900   90.481400
  H    -15.203000   -9.370400   88.525400
  C    -17.714400   -8.140350   89.143200
  H    -18.723600   -7.999260   89.662800
  H    -17.843400   -8.668480   88.328100
  C    -17.097300   -6.797600   88.904700
  H    -16.979100   -6.224210   89.892100
  H    -16.087800   -6.896140   88.574700
  C    -17.862500   -5.977820   87.925400
  H    -18.300700   -6.647580   87.190900
  H    -18.719800   -5.631070   88.502300
  H    -17.174400   -5.217690   87.607500
  S    -12.546400  -10.641500   91.572300
  C    -11.176900  -11.171300   90.579500
  C    -11.607900  -11.717400   89.378200
  C    -13.059400  -11.576100   89.185700
  C    -13.701500  -10.915100   90.271200
  H    -11.000000  -12.006200   88.538100
  C    -13.736800  -11.970300   87.890200
  H    -12.986500  -12.273000   87.127200
  H    -14.110100  -11.005700   87.520000
  C    -14.854600  -12.972000   88.049500
  H    -15.507900  -12.906300   87.178400
  H    -15.399100  -12.789900   88.959900
  C    -14.302300  -14.361300   88.217500
  H    -14.974800  -15.196200   88.473500
  H    -13.562400  -14.430100   89.006700
  H    -13.804000  -14.651200   87.362700
  H    -18.072900   -8.935890   91.754800
  H    -10.124000  -11.174100   90.932300

 Total Charge           Charge          ....    0
 Multiplicity           Mult            ....    1
 Number of Electrons    NEL             ....  134
 Basis Dimension        Dim             ....  322

ORBITAL ENERGIES
----------------

  NO   OCC          E(Eh)            E(eV)
   0   2.0000     -88.970398     -2421.0076
   1   2.0000     -88.965156     -2420.8650
   2   2.0000     -10.332605      -281.1645
   3   2.0000     -10.330112      -281.0966
   4   2.0000     -10.325529      -280.9719
   5   2.0000     -10.314434      -280.6700
   6   2.0000     -10.311625      -280.5936
   7   2.0000     -10.300284      -280.2850
   8   2.0000     -10.298815      -280.2450
   9   2.0000     -10.294554      -280.1291
  10   2.0000     -10.294359      -280.1238
  11   2.0000     -10.281312      -279.7687
  12   2.0000     -10.280128      -279.7365
  13   2.0000     -10.279815      -279.7280
  14   2.0000     -10.272783      -279.5366
  15   2.0000     -10.263555      -279.2855
  16   2.0000      -8.084144      -219.9807
  17   2.0000      -8.079486      -219.8540
  18   2.0000      -6.042865      -164.4347
  19   2.0000      -6.038809      -164.3243
  20   2.0000      -6.038128      -164.3058
  21   2.0000      -6.034709      -164.2128
  22   2.0000      -6.033968      -164.1926
  23   2.0000      -6.030202      -164.0901
  24   2.0000      -1.004398       -27.3310
  25   2.0000      -0.977552       -26.6005
  26   2.0000      -0.924012       -25.1436
  27   2.0000      -0.915083       -24.9007
  28   2.0000      -0.872888       -23.7525
  29   2.0000      -0.852994       -23.2111
  30   2.0000      -0.845347       -23.0031
  31   2.0000      -0.815858       -22.2006
  32   2.0000      -0.782753       -21.2998
  33   2.0000      -0.770694       -20.9717
  34   2.0000      -0.713035       -19.4027
  35   2.0000      -0.696931       -18.9644
  36   2.0000      -0.690385       -18.7863
  37   2.0000      -0.665864       -18.1191
  38   2.0000      -0.638126       -17.3643
  39   2.0000      -0.621537       -16.9129
  40   2.0000      -0.595765       -16.2116
  41   2.0000      -0.573722       -15.6118
  42   2.0000      -0.565813       -15.3966
  43   2.0000      -0.553720       -15.0675
  44   2.0000      -0.549367       -14.9490
  45   2.0000      -0.538148       -14.6438
  46   2.0000      -0.514310       -13.9951
  47   2.0000      -0.513636       -13.9767
  48   2.0000      -0.508831       -13.8460
  49   2.0000      -0.503143       -13.6912
  50   2.0000      -0.488670       -13.2974
  51   2.0000      -0.476951       -12.9785
  52   2.0000      -0.475334       -12.9345
  53   2.0000      -0.465792       -12.6748
  54   2.0000      -0.457382       -12.4460
  55   2.0000      -0.454255       -12.3609
  56   2.0000      -0.442656       -12.0453
  57   2.0000      -0.436940       -11.8897
  58   2.0000      -0.433619       -11.7994
  59   2.0000      -0.421565       -11.4714
  60   2.0000      -0.415830       -11.3153
  61   2.0000      -0.412964       -11.2373
  62   2.0000      -0.410731       -11.1766
  63   2.0000      -0.349871        -9.5205
  64   2.0000      -0.332911        -9.0590
  65   2.0000      -0.326459        -8.8834
  66   2.0000      -0.287841        -7.8326
  67   0.0000       0.023141         0.6297
  68   0.0000       0.069686         1.8963
  69   0.0000       0.102470         2.7884
  70   0.0000       0.118692         3.2298
  71   0.0000       0.136600         3.7171

MULLIKEN ATOMIC CHARGES
-----------------------
   0 S :    0.110967
   1 C :   -0.106874
   2 C :   -0.114828
   3 C :    0.009355
   4 C :   -0.110032
   5 H :    0.016912
   6 C :    0.128303
   7 H :    0.018789
   8 H :   -0.014905
   9 C :   -0.131055
  10 H :    0.034251
  11 H :    0.013634
  12 C :    0.020244
  13 H :    0.021774
  14 H :    0.022938
  15 H :    0.042446
  16 S :    0.094357
  17 C :   -0.104567
  18 C :   -0.009627
  19 C :   -0.087639
  20 C :   -0.155811
  21 H :    0.022099
  22 C :    0.048324
  23 H :    0.018480
  24 H :    0.025944
  25 C :   -0.021352
  26 H :    0.027811
  27 H :    0.042629
  28 C :   -0.032229
  29 H :    0.032970
  30 H :    0.021651
  31 H :   -0.002572
  32 H :    0.040292
  33 H :    0.077323
Sum of atomic charges:    0.0000000

LOEWDIN ATOMIC CHARGES
----------------------
   0 S :    0.391680
   1 C :   -0.199395
   2 C :   -0.049282
   3 C :   -0.064479
   4 C :   -0.190839
   5 H :    0.031559
   6 C :   -0.022112
   7 H :    0.035227
   8 H :    0.006049
   9 C :   -0.046843
  10 H :    0.032132
  11 H :    0.013638
  12 C :   -0.058745
  13 H :    0.024599
  14 H :    0.027491
  15 H :    0.029535
  16 S :    0.394521
  17 C :   -0.182184
  18 C :   -0.073166
  19 C :   -0.049936
  20 C :   -0.196925
  21 H :    0.030803
  22 C :   -0.035372
  23 H :    0.031157
  24 H :    0.031072
  25 C :   -0.034900
  26 H :    0.025371
  27 H :    0.029430
  28 C :   -0.064019
  29 H :    0.029212
  30 H :    0.025949
  31 H :    0.009703
  32 H :    0.030501
  33 H :    0.038568

  Mayer bond orders larger than 0.100000
B(  0-S ,  1-C ) :   1.0977 B(  0-S ,  4-C ) :   1.1512 B(  1-C ,  2-C ) :   1.6346
B(  1-C , 32-H ) :   0.9676 B(  2-C ,  3-C ) :   1.2309 B(  2-C ,  6-C ) :   1.0258
B(  3-C ,  4-C ) :   1.5560 B(  3-C ,  5-H ) :   0.9926 B(  4-C , 20-C ) :   1.0582
B(  6-C ,  7-H ) :   0.9384 B(  6-C ,  8-H ) :   0.9184 B(  6-C ,  9-C ) :   1.0764
B(  9-C , 10-H ) :   0.9500 B(  9-C , 11-H ) :   0.9574 B(  9-C , 12-C ) :   1.0774
B( 12-C , 13-H ) :   0.9724 B( 12-C , 14-H ) :   0.9719 B( 12-C , 15-H ) :   0.9729
B( 16-S , 17-C ) :   1.1555 B( 16-S , 20-C ) :   1.1319 B( 17-C , 18-C ) :   1.5966
B( 17-C , 20-C ) :   0.1008 B( 17-C , 33-H ) :   0.9636 B( 18-C , 19-C ) :   1.2472
B( 18-C , 21-H ) :   0.9864 B( 19-C , 20-C ) :   1.5761 B( 19-C , 22-C ) :   1.0367
B( 22-C , 23-H ) :   0.9339 B( 22-C , 24-H ) :   0.9315 B( 22-C , 25-C ) :   1.0669
B( 25-C , 26-H ) :   0.9535 B( 25-C , 27-H ) :   0.9581 B( 25-C , 28-C ) :   1.0718
B( 28-C , 29-H ) :   0.9726 B( 28-C , 30-H ) :   0.9739 B( 28-C , 31-H ) :   0.9721

Dispersion correction           -0.014429906
FINAL SINGLE POINT ENERGY     -1339.861257952514

DIPOLE MOMENT
-------------
                                X             Y             Z
Electronic contribution:     11.03985      -3.37908      21.29368
Nuclear contribution   :    -11.08538       3.58109     -22.00869
                        -----------------------------------------
Total Dipole Moment    :     -0.04553       0.20201      -0.71501
                        -----------------------------------------
Magnitude (a.u.)       :      0.74439
Magnitude (Debye)      :      1.89210

Rotational constants in cm-1:     0.019108     0.008197     0.007320
Rotational constants in MHz :   572.837227   245.731065   219.455743

                             ****ORCA TERMINATED NORMALLY****
TOTAL RUN TIME: 0 days 0 hours 0 minutes 32 seconds 95 msec
