                         Program Version 4.2.1 -  RELEASE  -
|  1> ! wB97X-D3 SP def2-SVP
|  2> %pal
|  3> nprocs 16
|  4> end
|  5>
|  6> * xyz 0 1
|  7> S 	 -34.2366 	 75.6527 	 151.667
|  8> C 	 -32.7697 	 76.1142 	 152.594
|  9> C 	 -31.7069 	 75.3943 	 152.251
| 10> C 	 -32.0198 	 74.5553 	 151.106
| 11> C 	 -33.3449 	 74.401 	 150.882
| 12> H 	 -31.2878 	 73.8942 	 150.664
| 13> C 	 -30.306 	 75.5103 	 152.912
| 14> H 	 -30.2265 	 74.4438 	 153.135
| 15> H 	 -30.2921 	 76.0638 	 153.856
| 16> C 	 -29.264 	 76.2289 	 151.958
| 17> H 	 -29.2956 	 75.7116 	 151.018
| 18> H 	 -29.6382 	 77.2475 	 151.722
| 19> C 	 -27.8766 	 76.1461 	 152.507
| 20> H 	 -27.7108 	 76.7711 	 153.404
| 21> H 	 -27.6563 	 75.1297 	 152.762
| 22> H 	 -27.1727 	 76.503 	 151.835
| 23> S 	 -34.9447 	 73.954 	 148.748
| 24> C 	 -35.2491 	 72.2475 	 148.187
| 25> C 	 -34.6446 	 71.3057 	 149.012
| 26> C 	 -33.7757 	 71.9558 	 149.932
| 27> C 	 -34.0069 	 73.3469 	 150.066
| 28> H 	 -34.7857 	 70.2494 	 148.902
| 29> C 	 -32.904 	 71.1858 	 150.937
| 30> H 	 -32.1082 	 71.795 	 151.195
| 31> H 	 -32.3656 	 70.4106 	 150.384
| 32> C 	 -33.6524 	 70.6611 	 152.151
| 33> H 	 -34.3278 	 69.9128 	 151.798
| 34> H 	 -34.1603 	 71.5144 	 152.527
| 35> C 	 -32.7081 	 70.1074 	 153.193
| 36> H 	 -33.2738 	 69.691 	 153.98
| 37> H 	 -32.1213 	 70.8419 	 153.708
| 38> H 	 -32.1254 	 69.2706 	 152.903
| 39> H 	 -32.8459 	 76.8146 	 153.449
| 40> H 	 -35.9875 	 71.9007 	 147.505
| 41> *
| 42>
| 43>                          ****END OF INPUT****

CARTESIAN COORDINATES (ANGSTROEM)
---------------------------------
  S    -34.236600   75.652700  151.667000
  C    -32.769700   76.114200  152.594000
  C    -31.706900   75.394300  152.251000
  C    -32.019800   74.555300  151.106000
  C    -33.344900   74.401000  150.882000
  H    -31.287800   73.894200  150.664000
  C    -30.306000   75.510300  152.912000
  H    -30.226500   74.443800  153.135000
  H    -30.292100   76.063800  153.856000
  C    -29.264000   76.228900  151.958000
  H    -29.295600   75.711600  151.018000
  H    -29.638200   77.247500  151.722000
  C    -27.876600   76.146100  152.507000
  H    -27.710800   76.771100  153.404000
  H    -27.656300   75.129700  152.762000
  H    -27.172700   76.503000  151.835000
  S    -34.944700   73.954000  148.748000
  C    -35.249100   72.247500  148.187000
  C    -34.644600   71.305700  149.012000
  C    -33.775700   71.955800  149.932000
  C    -34.006900   73.346900  150.066000
  H    -34.785700   70.249400  148.902000
  C    -32.904000   71.185800  150.937000
  H    -32.108200   71.795000  151.195000
  H    -32.365600   70.410600  150.384000
  C    -33.652400   70.661100  152.151000
  H    -34.327800   69.912800  151.798000
  H    -34.160300   71.514400  152.527000
  C    -32.708100   70.107400  153.193000
  H    -33.273800   69.691000  153.980000
  H    -32.121300   70.841900  153.708000
  H    -32.125400   69.270600  152.903000
  H    -32.845900   76.814600  153.449000
  H    -35.987500   71.900700  147.505000

 Total Charge           Charge          ....    0
 Multiplicity           Mult            ....    1
 Number of Electrons    NEL             ....  134
 Basis Dimension        Dim             ....  322

ORBITAL ENERGIES
----------------

  NO   OCC          E(Eh)            E(eV)
   0   2.0000     -88.967873     -2420.9389
   1   2.0000     -88.959723     -2420.7171
   2   2.0000     -10.329138      -281.0701
   3   2.0000     -10.328456      -281.0516
   4   2.0000     -10.319605      -280.8107
   5   2.0000     -10.310936      -280.5748
   6   2.0000     -10.305566      -280.4287
   7   2.0000     -10.300101      -280.2800
   8   2.0000     -10.299704      -280.2692
   9   2.0000     -10.297094      -280.1982
  10   2.0000     -10.291525      -280.0466
  11   2.0000     -10.290844      -280.0281
  12   2.0000     -10.278992      -279.7056
  13   2.0000     -10.277497      -279.6649
  14   2.0000     -10.272150      -279.5194
  15   2.0000     -10.266164      -279.3565
  16   2.0000      -8.081710      -219.9145
  17   2.0000      -8.074919      -219.7297
  18   2.0000      -6.040336      -164.3659
  19   2.0000      -6.036341      -164.2572
  20   2.0000      -6.033500      -164.1799
  21   2.0000      -6.032393      -164.1498
  22   2.0000      -6.029570      -164.0729
  23   2.0000      -6.025361      -163.9584
  24   2.0000      -1.006494       -27.3881
  25   2.0000      -0.981322       -26.7031
  26   2.0000      -0.912127       -24.8202
  27   2.0000      -0.909379       -24.7455
  28   2.0000      -0.873114       -23.7587
  29   2.0000      -0.848941       -23.1009
  30   2.0000      -0.845694       -23.0125
  31   2.0000      -0.817543       -22.2465
  32   2.0000      -0.783886       -21.3306
  33   2.0000      -0.771530       -20.9944
  34   2.0000      -0.709668       -19.3111
  35   2.0000      -0.704183       -19.1618
  36   2.0000      -0.694299       -18.8928
  37   2.0000      -0.663626       -18.0582
  38   2.0000      -0.639057       -17.3896
  39   2.0000      -0.622656       -16.9433
  40   2.0000      -0.591166       -16.0865
  41   2.0000      -0.574305       -15.6276
  42   2.0000      -0.564395       -15.3580
  43   2.0000      -0.563281       -15.3276
  44   2.0000      -0.535141       -14.5619
  45   2.0000      -0.521024       -14.1778
  46   2.0000      -0.513298       -13.9675
  47   2.0000      -0.511848       -13.9281
  48   2.0000      -0.505049       -13.7431
  49   2.0000      -0.500616       -13.6224
  50   2.0000      -0.493105       -13.4181
  51   2.0000      -0.480894       -13.0858
  52   2.0000      -0.471883       -12.8406
  53   2.0000      -0.465036       -12.6543
  54   2.0000      -0.460954       -12.5432
  55   2.0000      -0.451774       -12.2934
  56   2.0000      -0.448512       -12.2046
  57   2.0000      -0.439658       -11.9637
  58   2.0000      -0.430825       -11.7233
  59   2.0000      -0.426133       -11.5957
  60   2.0000      -0.422854       -11.5064
  61   2.0000      -0.417632       -11.3643
  62   2.0000      -0.406815       -11.0700
  63   2.0000      -0.348151        -9.4737
  64   2.0000      -0.329619        -8.9694
  65   2.0000      -0.326247        -8.8776
  66   2.0000      -0.295487        -8.0406
  67   0.0000       0.028075         0.7640
  68   0.0000       0.073881         2.0104
  69   0.0000       0.104216         2.8359
  70   0.0000       0.116336         3.1657
  71   0.0000       0.129817         3.5325

MULLIKEN ATOMIC CHARGES
-----------------------
   0 S :    0.086003
   1 C :   -0.133267
   2 C :   -0.102316
   3 C :    0.033630
   4 C :   -0.142979
   5 H :    0.017254
   6 C :    0.042450
   7 H :    0.039770
   8 H :    0.025176
   9 C :   -0.078187
  10 H :    0.023319
  11 H :    0.039893
  12 C :    0.007334
  13 H :    0.026991
  14 H :    0.023068
  15 H :    0.019515
  16 S :    0.103225
  17 C :   -0.071842
  18 C :   -0.030819
  19 C :   -0.076902
  20 C :   -0.128914
  21 H :    0.023472
  22 C :    0.097185
  23 H :   -0.030185
  24 H :    0.008690
  25 C :   -0.020397
  26 H :    0.018849
  27 H :    0.026284
  28 C :   -0.001925
  29 H :    0.009113
  30 H :    0.025765
  31 H :    0.017729
  32 H :    0.057103
  33 H :    0.045915
Sum of atomic charges:   -0.0000000

LOEWDIN ATOMIC CHARGES
----------------------
   0 S :    0.375120
   1 C :   -0.183977
   2 C :   -0.064545
   3 C :   -0.067492
   4 C :   -0.196089
   5 H :    0.026220
   6 C :   -0.026497
   7 H :    0.034247
   8 H :    0.028957
   9 C :   -0.035477
  10 H :    0.021320
  11 H :    0.031355
  12 C :   -0.060170
  13 H :    0.028125
  14 H :    0.025220
  15 H :    0.018645
  16 S :    0.395926
  17 C :   -0.164505
  18 C :   -0.059035
  19 C :   -0.051249
  20 C :   -0.204313
  21 H :    0.033394
  22 C :   -0.031290
  23 H :    0.011912
  24 H :    0.026998
  25 C :   -0.025744
  26 H :    0.021766
  27 H :    0.026478
  28 C :   -0.060553
  29 H :    0.023597
  30 H :    0.025179
  31 H :    0.021148
  32 H :    0.032513
  33 H :    0.022816

  Mayer bond orders larger than 0.100000
B(  0-S ,  1-C ) :   1.0954 B(  0-S ,  4-C ) :   1.1428 B(  1-C ,  2-C ) :   1.6953
B(  1-C , 32-H ) :   0.9627 B(  2-C ,  3-C ) :   1.1893 B(  2-C ,  6-C ) :   0.9966
B(  3-C ,  4-C ) :   1.6292 B(  3-C ,  5-H ) :   0.9817 B(  4-C , 20-C ) :   0.9932
B(  6-C ,  7-H ) :   0.9411 B(  6-C ,  8-H ) :   0.9514 B(  6-C ,  9-C ) :   1.0500
B(  9-C , 10-H ) :   0.9574 B(  9-C , 11-H ) :   0.9544 B(  9-C , 12-C ) :   1.0906
B( 12-C , 13-H ) :   0.9712 B( 12-C , 14-H ) :   0.9716 B( 12-C , 15-H ) :   0.9698
B( 16-S , 17-C ) :   1.1392 B( 16-S , 20-C ) :   1.1539 B( 17-C , 18-C ) :   1.6275
B( 17-C , 20-C ) :   0.1099 B( 17-C , 33-H ) :   0.9651 B( 18-C , 19-C ) :   1.2358
B( 18-C , 21-H ) :   0.9878 B( 19-C , 20-C ) :   1.5891 B( 19-C , 22-C ) :   1.0573
B( 22-C , 23-H ) :   0.9238 B( 22-C , 24-H ) :   0.9235 B( 22-C , 25-C ) :   1.0652
B( 25-C , 26-H ) :   0.9533 B( 25-C , 27-H ) :   0.9522 B( 25-C , 28-C ) :   1.0990
B( 28-C , 29-H ) :   0.9657 B( 28-C , 30-H ) :   0.9714 B( 28-C , 31-H ) :   0.9712

Dispersion correction           -0.014114998
FINAL SINGLE POINT ENERGY     -1339.855669160632

DIPOLE MOMENT
-------------
                                X             Y             Z
Electronic contribution:    -23.25644       9.56550     -14.71025
Nuclear contribution   :     23.84316     -10.02915      15.06112
                        -----------------------------------------
Total Dipole Moment    :      0.58672      -0.46365       0.35087
                        -----------------------------------------
Magnitude (a.u.)       :      0.82603
Magnitude (Debye)      :      2.09959

Rotational constants in cm-1:     0.017772     0.008381     0.006853
Rotational constants in MHz :   532.799532   251.258604   205.460693

                             ****ORCA TERMINATED NORMALLY****
TOTAL RUN TIME: 0 days 0 hours 0 minutes 34 seconds 210 msec
