                         Program Version 4.2.1 -  RELEASE  -
|  1> ! wB97X-D3 SP def2-SVP
|  2> %pal
|  3> nprocs 16
|  4> end
|  5>
|  6> * xyz 0 1
|  7> S 	 40.2135 	 14.0438 	 81.5539
|  8> C 	 41.3722 	 14.4933 	 80.3027
|  9> C 	 42.5598 	 13.7706 	 80.456
| 10> C 	 42.6596 	 13.1242 	 81.688
| 11> C 	 41.5208 	 13.1517 	 82.4316
| 12> H 	 43.5264 	 12.5298 	 82.0207
| 13> C 	 43.5535 	 13.7565 	 79.342
| 14> H 	 44.5818 	 13.6975 	 79.7477
| 15> H 	 43.5527 	 14.7324 	 78.7716
| 16> C 	 43.3382 	 12.5415 	 78.3921
| 17> H 	 42.4418 	 12.7738 	 77.8239
| 18> H 	 44.1938 	 12.7436 	 77.7906
| 19> C 	 43.3324 	 11.1265 	 78.9341
| 20> H 	 43.254 	 10.3779 	 78.2605
| 21> H 	 44.3515 	 11.1402 	 79.318
| 22> H 	 42.6802 	 11.0344 	 79.7884
| 23> S 	 42.3926 	 12.183 	 84.9083
| 24> C 	 41.2388 	 11.4129 	 85.933
| 25> C 	 39.9841 	 11.3727 	 85.3541
| 26> C 	 39.9665 	 11.7425 	 83.9699
| 27> C 	 41.1777 	 12.3236 	 83.604
| 28> H 	 39.075 	 11.0584 	 85.937
| 29> C 	 38.7731 	 11.5686 	 83.1455
| 30> H 	 39.014 	 11.297 	 82.167
| 31> H 	 38.4217 	 12.5225 	 83.0305
| 32> C 	 37.767 	 10.5655 	 83.698
| 33> H 	 37.2864 	 11.0366 	 84.4966
| 34> H 	 38.3806 	 9.86482 	 84.1207
| 35> C 	 36.6294 	 10.2735 	 82.6846
| 36> H 	 35.843 	 9.84628 	 83.171
| 37> H 	 36.9285 	 9.70499 	 81.8162
| 38> H 	 36.2247 	 11.2918 	 82.3046
| 39> H 	 41.1611 	 15.1118 	 79.4147
| 40> H 	 41.4204 	 11.1979 	 86.9811
| 41> *
| 42>
| 43>                          ****END OF INPUT****

CARTESIAN COORDINATES (ANGSTROEM)
---------------------------------
  S     40.213500   14.043800   81.553900
  C     41.372200   14.493300   80.302700
  C     42.559800   13.770600   80.456000
  C     42.659600   13.124200   81.688000
  C     41.520800   13.151700   82.431600
  H     43.526400   12.529800   82.020700
  C     43.553500   13.756500   79.342000
  H     44.581800   13.697500   79.747700
  H     43.552700   14.732400   78.771600
  C     43.338200   12.541500   78.392100
  H     42.441800   12.773800   77.823900
  H     44.193800   12.743600   77.790600
  C     43.332400   11.126500   78.934100
  H     43.254000   10.377900   78.260500
  H     44.351500   11.140200   79.318000
  H     42.680200   11.034400   79.788400
  S     42.392600   12.183000   84.908300
  C     41.238800   11.412900   85.933000
  C     39.984100   11.372700   85.354100
  C     39.966500   11.742500   83.969900
  C     41.177700   12.323600   83.604000
  H     39.075000   11.058400   85.937000
  C     38.773100   11.568600   83.145500
  H     39.014000   11.297000   82.167000
  H     38.421700   12.522500   83.030500
  C     37.767000   10.565500   83.698000
  H     37.286400   11.036600   84.496600
  H     38.380600    9.864820   84.120700
  C     36.629400   10.273500   82.684600
  H     35.843000    9.846280   83.171000
  H     36.928500    9.704990   81.816200
  H     36.224700   11.291800   82.304600
  H     41.161100   15.111800   79.414700
  H     41.420400   11.197900   86.981100

 Total Charge           Charge          ....    0
 Multiplicity           Mult            ....    1
 Number of Electrons    NEL             ....  134
 Basis Dimension        Dim             ....  322

ORBITAL ENERGIES
----------------

  NO   OCC          E(Eh)            E(eV)
   0   2.0000     -88.967514     -2420.9291
   1   2.0000     -88.964956     -2420.8595
   2   2.0000     -10.333421      -281.1867
   3   2.0000     -10.327365      -281.0219
   4   2.0000     -10.316035      -280.7136
   5   2.0000     -10.314694      -280.6771
   6   2.0000     -10.299236      -280.2565
   7   2.0000     -10.297347      -280.2050
   8   2.0000     -10.297167      -280.2002
   9   2.0000     -10.295629      -280.1583
  10   2.0000     -10.293348      -280.0962
  11   2.0000     -10.281904      -279.7848
  12   2.0000     -10.280601      -279.7494
  13   2.0000     -10.274697      -279.5887
  14   2.0000     -10.271049      -279.4894
  15   2.0000     -10.268386      -279.4170
  16   2.0000      -8.080664      -219.8860
  17   2.0000      -8.079471      -219.8536
  18   2.0000      -6.039252      -164.3364
  19   2.0000      -6.037988      -164.3020
  20   2.0000      -6.035506      -164.2345
  21   2.0000      -6.034061      -164.1951
  22   2.0000      -6.031338      -164.1210
  23   2.0000      -6.030217      -164.0906
  24   2.0000      -1.003670       -27.3112
  25   2.0000      -0.983352       -26.7584
  26   2.0000      -0.921814       -25.0838
  27   2.0000      -0.913200       -24.8494
  28   2.0000      -0.866559       -23.5803
  29   2.0000      -0.853774       -23.2324
  30   2.0000      -0.846692       -23.0397
  31   2.0000      -0.816339       -22.2137
  32   2.0000      -0.788960       -21.4687
  33   2.0000      -0.772693       -21.0260
  34   2.0000      -0.723427       -19.6854
  35   2.0000      -0.699809       -19.0428
  36   2.0000      -0.694790       -18.9062
  37   2.0000      -0.654333       -17.8053
  38   2.0000      -0.630253       -17.1501
  39   2.0000      -0.616568       -16.7777
  40   2.0000      -0.603179       -16.4133
  41   2.0000      -0.581286       -15.8176
  42   2.0000      -0.576609       -15.6903
  43   2.0000      -0.554012       -15.0754
  44   2.0000      -0.541645       -14.7389
  45   2.0000      -0.528734       -14.3876
  46   2.0000      -0.514103       -13.9895
  47   2.0000      -0.510293       -13.8858
  48   2.0000      -0.506710       -13.7883
  49   2.0000      -0.497521       -13.5382
  50   2.0000      -0.491080       -13.3630
  51   2.0000      -0.480168       -13.0660
  52   2.0000      -0.478489       -13.0203
  53   2.0000      -0.464496       -12.6396
  54   2.0000      -0.461271       -12.5518
  55   2.0000      -0.456179       -12.4133
  56   2.0000      -0.449636       -12.2352
  57   2.0000      -0.440941       -11.9986
  58   2.0000      -0.430701       -11.7200
  59   2.0000      -0.426499       -11.6056
  60   2.0000      -0.419886       -11.4257
  61   2.0000      -0.412264       -11.2183
  62   2.0000      -0.408408       -11.1133
  63   2.0000      -0.353760        -9.6263
  64   2.0000      -0.330049        -8.9811
  65   2.0000      -0.328281        -8.9330
  66   2.0000      -0.279448        -7.6042
  67   0.0000       0.022301         0.6068
  68   0.0000       0.072496         1.9727
  69   0.0000       0.107912         2.9364
  70   0.0000       0.112958         3.0737
  71   0.0000       0.126739         3.4487

MULLIKEN ATOMIC CHARGES
-----------------------
   0 S :    0.076868
   1 C :   -0.115640
   2 C :   -0.090539
   3 C :    0.010754
   4 C :   -0.113511
   5 H :    0.024824
   6 C :    0.003899
   7 H :    0.021319
   8 H :    0.040545
   9 C :   -0.065492
  10 H :    0.020338
  11 H :    0.021940
  12 C :    0.017471
  13 H :    0.022008
  14 H :    0.010883
  15 H :    0.045879
  16 S :    0.100143
  17 C :   -0.083003
  18 C :   -0.079949
  19 C :   -0.105671
  20 C :   -0.136336
  21 H :    0.043860
  22 C :    0.124103
  23 H :    0.008087
  24 H :    0.011830
  25 C :   -0.046680
  26 H :    0.011833
  27 H :    0.015908
  28 C :    0.000352
  29 H :    0.013794
  30 H :    0.040129
  31 H :    0.031808
  32 H :    0.058500
  33 H :    0.059749
Sum of atomic charges:   -0.0000000

LOEWDIN ATOMIC CHARGES
----------------------
   0 S :    0.383816
   1 C :   -0.198058
   2 C :   -0.067981
   3 C :   -0.070516
   4 C :   -0.164998
   5 H :    0.037462
   6 C :   -0.034863
   7 H :    0.025477
   8 H :    0.040406
   9 C :   -0.034392
  10 H :    0.015877
  11 H :    0.020581
  12 C :   -0.050708
  13 H :    0.014038
  14 H :    0.030422
  15 H :    0.028803
  16 S :    0.399034
  17 C :   -0.196453
  18 C :   -0.080143
  19 C :   -0.054616
  20 C :   -0.188141
  21 H :    0.041253
  22 C :   -0.032310
  23 H :    0.024012
  24 H :    0.016861
  25 C :   -0.027041
  26 H :    0.018386
  27 H :    0.013528
  28 C :   -0.049410
  29 H :    0.011874
  30 H :    0.024395
  31 H :    0.039154
  32 H :    0.033581
  33 H :    0.030672

  Mayer bond orders larger than 0.100000
B(  0-S ,  1-C ) :   1.1299 B(  0-S ,  4-C ) :   1.1365 B(  1-C ,  2-C ) :   1.5966
B(  1-C , 32-H ) :   0.9644 B(  2-C ,  3-C ) :   1.2663 B(  2-C ,  6-C ) :   1.0286
B(  3-C ,  4-C ) :   1.5540 B(  3-C ,  5-H ) :   0.9873 B(  4-C , 20-C ) :   1.0517
B(  6-C ,  7-H ) :   0.9424 B(  6-C ,  8-H ) :   0.9439 B(  6-C ,  9-C ) :   1.0559
B(  9-C , 10-H ) :   0.9536 B(  9-C , 11-H ) :   0.9617 B(  9-C , 12-C ) :   1.0677
B( 12-C , 13-H ) :   0.9724 B( 12-C , 14-H ) :   0.9722 B( 12-C , 15-H ) :   0.9719
B( 16-S , 17-C ) :   1.1576 B( 16-S , 20-C ) :   1.1284 B( 17-C , 18-C ) :   1.6057
B( 17-C , 33-H ) :   0.9628 B( 18-C , 19-C ) :   1.2477 B( 18-C , 21-H ) :   0.9735
B( 19-C , 20-C ) :   1.5853 B( 19-C , 22-C ) :   1.0329 B( 22-C , 23-H ) :   0.9265
B( 22-C , 24-H ) :   0.8949 B( 22-C , 25-C ) :   1.0810 B( 25-C , 26-H ) :   0.9361
B( 25-C , 27-H ) :   0.9632 B( 25-C , 28-C ) :   1.0766 B( 28-C , 29-H ) :   0.9729
B( 28-C , 30-H ) :   0.9777 B( 28-C , 31-H ) :   0.9691

Dispersion correction           -0.014284308
FINAL SINGLE POINT ENERGY     -1339.843033255327

DIPOLE MOMENT
-------------
                                X             Y             Z
Electronic contribution:      6.01107      10.74868      14.50578
Nuclear contribution   :     -6.14975     -10.97945     -14.80673
                        -----------------------------------------
Total Dipole Moment    :     -0.13869      -0.23077      -0.30095
                        -----------------------------------------
Magnitude (a.u.)       :      0.40381
Magnitude (Debye)      :      1.02640

Rotational constants in cm-1:     0.018635     0.008550     0.007157
Rotational constants in MHz :   558.666241   256.319916   214.559406

                             ****ORCA TERMINATED NORMALLY****
TOTAL RUN TIME: 0 days 0 hours 0 minutes 31 seconds 452 msec
