                         Program Version 4.2.1 -  RELEASE  -
|  1> ! wB97X-D3 SP def2-SVP
|  2> %pal
|  3> nprocs 16
|  4> end
|  5>
|  6> * xyz 0 1
|  7> S 	 10.109 	 -11.9122 	 101.37
|  8> C 	 10.2508 	 -11.1628 	 102.97
|  9> C 	 9.03179 	 -10.713 	 103.32
| 10> C 	 8.02187 	 -11.1299 	 102.408
| 11> C 	 8.43095 	 -11.7403 	 101.218
| 12> H 	 7.00216 	 -10.9936 	 102.587
| 13> C 	 8.75639 	 -10.0406 	 104.698
| 14> H 	 8.07267 	 -9.23302 	 104.497
| 15> H 	 9.57985 	 -9.52553 	 104.979
| 16> C 	 8.24422 	 -10.9843 	 105.862
| 17> H 	 8.15869 	 -10.2597 	 106.688
| 18> H 	 7.25602 	 -11.3816 	 105.559
| 19> C 	 9.30965 	 -11.9124 	 106.318
| 20> H 	 10.1012 	 -11.2541 	 106.716
| 21> H 	 9.00745 	 -12.5675 	 107.138
| 22> H 	 9.76207 	 -12.5769 	 105.597
| 23> S 	 6.57945 	 -11.1621 	 99.1634
| 24> C 	 6.00374 	 -12.319 	 98.0497
| 25> C 	 6.55277 	 -13.5401 	 98.4598
| 26> C 	 7.49819 	 -13.5111 	 99.5995
| 27> C 	 7.68688 	 -12.2397 	 100.068
| 28> H 	 6.11661 	 -14.4212 	 98.0293
| 29> C 	 8.04629 	 -14.7803 	 100.192
| 30> H 	 7.36341 	 -15.6151 	 100.093
| 31> H 	 8.0727 	 -14.7119 	 101.292
| 32> C 	 9.39634 	 -15.2217 	 99.5873
| 33> H 	 10.223 	 -14.4882 	 99.7487
| 34> H 	 9.31255 	 -15.2865 	 98.5146
| 35> C 	 9.85822 	 -16.6006 	 100.02
| 36> H 	 9.34917 	 -17.5219 	 99.5406
| 37> H 	 9.69647 	 -16.6777 	 101.091
| 38> H 	 10.8974 	 -16.7237 	 99.9387
| 39> H 	 11.1515 	 -11.1013 	 103.617
| 40> H 	 5.09911 	 -12.094 	 97.5587
| 41> *
| 42>
| 43>                          ****END OF INPUT****

CARTESIAN COORDINATES (ANGSTROEM)
---------------------------------
  S     10.109000  -11.912200  101.370000
  C     10.250800  -11.162800  102.970000
  C      9.031790  -10.713000  103.320000
  C      8.021870  -11.129900  102.408000
  C      8.430950  -11.740300  101.218000
  H      7.002160  -10.993600  102.587000
  C      8.756390  -10.040600  104.698000
  H      8.072670   -9.233020  104.497000
  H      9.579850   -9.525530  104.979000
  C      8.244220  -10.984300  105.862000
  H      8.158690  -10.259700  106.688000
  H      7.256020  -11.381600  105.559000
  C      9.309650  -11.912400  106.318000
  H     10.101200  -11.254100  106.716000
  H      9.007450  -12.567500  107.138000
  H      9.762070  -12.576900  105.597000
  S      6.579450  -11.162100   99.163400
  C      6.003740  -12.319000   98.049700
  C      6.552770  -13.540100   98.459800
  C      7.498190  -13.511100   99.599500
  C      7.686880  -12.239700  100.068000
  H      6.116610  -14.421200   98.029300
  C      8.046290  -14.780300  100.192000
  H      7.363410  -15.615100  100.093000
  H      8.072700  -14.711900  101.292000
  C      9.396340  -15.221700   99.587300
  H     10.223000  -14.488200   99.748700
  H      9.312550  -15.286500   98.514600
  C      9.858220  -16.600600  100.020000
  H      9.349170  -17.521900   99.540600
  H      9.696470  -16.677700  101.091000
  H     10.897400  -16.723700   99.938700
  H     11.151500  -11.101300  103.617000
  H      5.099110  -12.094000   97.558700

 Total Charge           Charge          ....    0
 Multiplicity           Mult            ....    1
 Number of Electrons    NEL             ....  134
 Basis Dimension        Dim             ....  322

ORBITAL ENERGIES
----------------

  NO   OCC          E(Eh)            E(eV)
   0   2.0000     -88.962880     -2420.8030
   1   2.0000     -88.959452     -2420.7097
   2   2.0000     -10.333338      -281.1844
   3   2.0000     -10.330933      -281.1190
   4   2.0000     -10.318275      -280.7745
   5   2.0000     -10.315998      -280.7126
   6   2.0000     -10.311065      -280.5783
   7   2.0000     -10.300664      -280.2953
   8   2.0000     -10.298134      -280.2265
   9   2.0000     -10.294075      -280.1160
  10   2.0000     -10.292556      -280.0747
  11   2.0000     -10.290213      -280.0109
  12   2.0000     -10.287701      -279.9426
  13   2.0000     -10.283431      -279.8264
  14   2.0000     -10.277404      -279.6624
  15   2.0000     -10.274601      -279.5861
  16   2.0000      -8.078106      -219.8164
  17   2.0000      -8.074820      -219.7270
  18   2.0000      -6.036580      -164.2637
  19   2.0000      -6.033330      -164.1752
  20   2.0000      -6.032321      -164.1478
  21   2.0000      -6.029046      -164.0587
  22   2.0000      -6.029035      -164.0584
  23   2.0000      -6.025675      -163.9670
  24   2.0000      -1.010938       -27.5090
  25   2.0000      -0.988742       -26.9050
  26   2.0000      -0.914704       -24.8904
  27   2.0000      -0.908456       -24.7204
  28   2.0000      -0.876302       -23.8454
  29   2.0000      -0.849530       -23.1169
  30   2.0000      -0.842527       -22.9263
  31   2.0000      -0.812710       -22.1150
  32   2.0000      -0.788238       -21.4491
  33   2.0000      -0.778315       -21.1790
  34   2.0000      -0.710486       -19.3333
  35   2.0000      -0.697460       -18.9789
  36   2.0000      -0.693110       -18.8605
  37   2.0000      -0.668166       -18.1817
  38   2.0000      -0.640212       -17.4211
  39   2.0000      -0.621373       -16.9084
  40   2.0000      -0.600420       -16.3383
  41   2.0000      -0.577082       -15.7032
  42   2.0000      -0.559665       -15.2293
  43   2.0000      -0.555339       -15.1115
  44   2.0000      -0.544697       -14.8220
  45   2.0000      -0.526412       -14.3244
  46   2.0000      -0.521002       -14.1772
  47   2.0000      -0.515303       -14.0221
  48   2.0000      -0.511397       -13.9158
  49   2.0000      -0.505561       -13.7570
  50   2.0000      -0.486483       -13.2379
  51   2.0000      -0.481383       -13.0991
  52   2.0000      -0.475233       -12.9318
  53   2.0000      -0.464160       -12.6304
  54   2.0000      -0.456344       -12.4177
  55   2.0000      -0.448648       -12.2083
  56   2.0000      -0.443662       -12.0726
  57   2.0000      -0.433174       -11.7873
  58   2.0000      -0.431930       -11.7534
  59   2.0000      -0.429183       -11.6787
  60   2.0000      -0.412668       -11.2293
  61   2.0000      -0.410415       -11.1680
  62   2.0000      -0.402541       -10.9537
  63   2.0000      -0.345983        -9.4147
  64   2.0000      -0.330177        -8.9846
  65   2.0000      -0.321983        -8.7616
  66   2.0000      -0.306608        -8.3432
  67   0.0000       0.029391         0.7998
  68   0.0000       0.070070         1.9067
  69   0.0000       0.110399         3.0041
  70   0.0000       0.126055         3.4301
  71   0.0000       0.129199         3.5157

MULLIKEN ATOMIC CHARGES
-----------------------
   0 S :    0.102488
   1 C :   -0.139562
   2 C :   -0.092875
   3 C :    0.038968
   4 C :   -0.158829
   5 H :   -0.019564
   6 C :    0.094837
   7 H :    0.020801
   8 H :   -0.017117
   9 C :   -0.045779
  10 H :    0.033820
  11 H :    0.041494
  12 C :   -0.052085
  13 H :    0.020686
  14 H :    0.035655
  15 H :    0.036974
  16 S :    0.085880
  17 C :   -0.076036
  18 C :   -0.040336
  19 C :   -0.019087
  20 C :   -0.140439
  21 H :    0.019164
  22 C :    0.066397
  23 H :    0.013733
  24 H :    0.033310
  25 C :   -0.074328
  26 H :    0.037214
  27 H :    0.023549
  28 C :   -0.041898
  29 H :    0.044667
  30 H :    0.015505
  31 H :    0.020950
  32 H :    0.064112
  33 H :    0.067732
Sum of atomic charges:   -0.0000000

LOEWDIN ATOMIC CHARGES
----------------------
   0 S :    0.429812
   1 C :   -0.194306
   2 C :   -0.069534
   3 C :   -0.061709
   4 C :   -0.211555
   5 H :    0.016785
   6 C :   -0.019486
   7 H :    0.030686
   8 H :    0.011150
   9 C :   -0.033574
  10 H :    0.031321
  11 H :    0.025358
  12 C :   -0.069957
  13 H :    0.029029
  14 H :    0.028553
  15 H :    0.021710
  16 S :    0.406893
  17 C :   -0.192954
  18 C :   -0.069087
  19 C :   -0.048128
  20 C :   -0.190826
  21 H :    0.024721
  22 C :   -0.036098
  23 H :    0.031082
  24 H :    0.034119
  25 C :   -0.043613
  26 H :    0.024165
  27 H :    0.022934
  28 C :   -0.071404
  29 H :    0.033887
  30 H :    0.021857
  31 H :    0.020099
  32 H :    0.040733
  33 H :    0.027337

  Mayer bond orders larger than 0.100000
B(  0-S ,  1-C ) :   1.1450 B(  0-S ,  4-C ) :   1.1733 B(  1-C ,  2-C ) :   1.5944
B(  1-C , 32-H ) :   0.9662 B(  2-C ,  3-C ) :   1.2606 B(  2-C ,  6-C ) :   1.0184
B(  3-C ,  4-C ) :   1.5527 B(  3-C ,  5-H ) :   1.0100 B(  4-C , 20-C ) :   1.0206
B(  6-C ,  7-H ) :   0.9363 B(  6-C ,  8-H ) :   0.9351 B(  6-C ,  9-C ) :   1.0674
B(  9-C , 10-H ) :   0.9540 B(  9-C , 11-H ) :   0.9595 B(  9-C , 12-C ) :   1.0714
B( 12-C , 13-H ) :   0.9724 B( 12-C , 14-H ) :   0.9712 B( 12-C , 15-H ) :   0.9763
B( 16-S , 17-C ) :   1.1747 B( 16-S , 20-C ) :   1.1360 B( 17-C , 18-C ) :   1.5806
B( 17-C , 33-H ) :   0.9713 B( 18-C , 19-C ) :   1.2422 B( 18-C , 21-H ) :   0.9886
B( 19-C , 20-C ) :   1.5911 B( 19-C , 22-C ) :   1.0579 B( 22-C , 23-H ) :   0.9356
B( 22-C , 24-H ) :   0.9248 B( 22-C , 25-C ) :   1.0594 B( 25-C , 26-H ) :   0.9498
B( 25-C , 27-H ) :   0.9554 B( 25-C , 28-C ) :   1.0864 B( 28-C , 29-H ) :   0.9737
B( 28-C , 30-H ) :   0.9714 B( 28-C , 31-H ) :   0.9720

Dispersion correction           -0.014407028
FINAL SINGLE POINT ENERGY     -1339.861536212698

DIPOLE MOMENT
-------------
                                X             Y             Z
Electronic contribution:     -5.25946      13.13802     -17.43460
Nuclear contribution   :      5.02812     -13.43381      18.04455
                        -----------------------------------------
Total Dipole Moment    :     -0.23134      -0.29579       0.60995
                        -----------------------------------------
Magnitude (a.u.)       :      0.71628
Magnitude (Debye)      :      1.82063

Rotational constants in cm-1:     0.018855     0.008377     0.006680
Rotational constants in MHz :   565.245133   251.145746   200.253837

                             ****ORCA TERMINATED NORMALLY****
TOTAL RUN TIME: 0 days 0 hours 0 minutes 33 seconds 972 msec
