                         Program Version 4.2.1 -  RELEASE  -
|  1> ! wB97X-D3 SP def2-SVP
|  2> %pal
|  3> nprocs 16
|  4> end
|  5>
|  6> * xyz 0 1
|  7> S 	 -114.144 	 52.2883 	 134.822
|  8> C 	 -113.908 	 53.8854 	 135.554
|  9> C 	 -112.782 	 53.8571 	 136.386
| 10> C 	 -112.075 	 52.6062 	 136.332
| 11> C 	 -112.678 	 51.6674 	 135.547
| 12> H 	 -111.282 	 52.4212 	 136.986
| 13> C 	 -112.41 	 55.0892 	 137.302
| 14> H 	 -112.727 	 55.9957 	 136.785
| 15> H 	 -111.325 	 55.0912 	 137.32
| 16> C 	 -112.938 	 55.1838 	 138.729
| 17> H 	 -114.017 	 55.2194 	 138.709
| 18> H 	 -112.723 	 54.2053 	 139.188
| 19> C 	 -112.438 	 56.3565 	 139.538
| 20> H 	 -112.828 	 56.2627 	 140.551
| 21> H 	 -111.342 	 56.3828 	 139.734
| 22> H 	 -112.721 	 57.3176 	 139.05
| 23> S 	 -110.806 	 49.8082 	 134.511
| 24> C 	 -111.37 	 48.1012 	 134.444
| 25> C 	 -112.631 	 47.9958 	 135.002
| 26> C 	 -113.203 	 49.1954 	 135.496
| 27> C 	 -112.336 	 50.2877 	 135.338
| 28> H 	 -112.979 	 46.9735 	 134.963
| 29> C 	 -114.696 	 49.1995 	 135.842
| 30> H 	 -114.888 	 50.0652 	 136.345
| 31> H 	 -114.838 	 48.306 	 136.526
| 32> C 	 -115.521 	 49.0544 	 134.605
| 33> H 	 -115.231 	 48.201 	 133.965
| 34> H 	 -115.447 	 49.982 	 134.002
| 35> C 	 -116.963 	 48.8929 	 134.929
| 36> H 	 -117.365 	 49.7458 	 135.448
| 37> H 	 -117.153 	 48.0605 	 135.601
| 38> H 	 -117.514 	 48.7273 	 134.026
| 39> H 	 -114.501 	 54.8078 	 135.475
| 40> H 	 -111.034 	 47.2003 	 133.984
| 41> *
| 42>
| 43>                          ****END OF INPUT****

CARTESIAN COORDINATES (ANGSTROEM)
---------------------------------
  S    -114.144000   52.288300  134.822000
  C    -113.908000   53.885400  135.554000
  C    -112.782000   53.857100  136.386000
  C    -112.075000   52.606200  136.332000
  C    -112.678000   51.667400  135.547000
  H    -111.282000   52.421200  136.986000
  C    -112.410000   55.089200  137.302000
  H    -112.727000   55.995700  136.785000
  H    -111.325000   55.091200  137.320000
  C    -112.938000   55.183800  138.729000
  H    -114.017000   55.219400  138.709000
  H    -112.723000   54.205300  139.188000
  C    -112.438000   56.356500  139.538000
  H    -112.828000   56.262700  140.551000
  H    -111.342000   56.382800  139.734000
  H    -112.721000   57.317600  139.050000
  S    -110.806000   49.808200  134.511000
  C    -111.370000   48.101200  134.444000
  C    -112.631000   47.995800  135.002000
  C    -113.203000   49.195400  135.496000
  C    -112.336000   50.287700  135.338000
  H    -112.979000   46.973500  134.963000
  C    -114.696000   49.199500  135.842000
  H    -114.888000   50.065200  136.345000
  H    -114.838000   48.306000  136.526000
  C    -115.521000   49.054400  134.605000
  H    -115.231000   48.201000  133.965000
  H    -115.447000   49.982000  134.002000
  C    -116.963000   48.892900  134.929000
  H    -117.365000   49.745800  135.448000
  H    -117.153000   48.060500  135.601000
  H    -117.514000   48.727300  134.026000
  H    -114.501000   54.807800  135.475000
  H    -111.034000   47.200300  133.984000

 Total Charge           Charge          ....    0
 Multiplicity           Mult            ....    1
 Number of Electrons    NEL             ....  134
 Basis Dimension        Dim             ....  322

ORBITAL ENERGIES
----------------

  NO   OCC          E(Eh)            E(eV)
   0   2.0000     -88.970363     -2421.0067
   1   2.0000     -88.970090     -2420.9992
   2   2.0000     -10.330145      -281.0975
   3   2.0000     -10.329322      -281.0751
   4   2.0000     -10.318523      -280.7813
   5   2.0000     -10.317225      -280.7460
   6   2.0000     -10.306010      -280.4408
   7   2.0000     -10.304456      -280.3985
   8   2.0000     -10.294222      -280.1200
   9   2.0000     -10.291493      -280.0458
  10   2.0000     -10.289840      -280.0008
  11   2.0000     -10.286833      -279.9190
  12   2.0000     -10.285769      -279.8900
  13   2.0000     -10.284863      -279.8654
  14   2.0000     -10.280561      -279.7483
  15   2.0000     -10.266547      -279.3670
  16   2.0000      -8.083943      -219.9753
  17   2.0000      -8.082654      -219.9402
  18   2.0000      -6.042593      -164.4273
  19   2.0000      -6.041450      -164.3962
  20   2.0000      -6.038550      -164.3173
  21   2.0000      -6.037560      -164.2904
  22   2.0000      -6.034674      -164.2118
  23   2.0000      -6.033124      -164.1697
  24   2.0000      -1.003361       -27.3028
  25   2.0000      -0.976177       -26.5631
  26   2.0000      -0.917240       -24.9594
  27   2.0000      -0.909498       -24.7487
  28   2.0000      -0.871197       -23.7065
  29   2.0000      -0.851386       -23.1674
  30   2.0000      -0.845619       -23.0105
  31   2.0000      -0.817345       -22.2411
  32   2.0000      -0.784858       -21.3571
  33   2.0000      -0.770535       -20.9673
  34   2.0000      -0.709491       -19.3062
  35   2.0000      -0.696753       -18.9596
  36   2.0000      -0.693802       -18.8793
  37   2.0000      -0.659805       -17.9542
  38   2.0000      -0.636946       -17.3322
  39   2.0000      -0.620260       -16.8781
  40   2.0000      -0.593191       -16.1415
  41   2.0000      -0.573177       -15.5969
  42   2.0000      -0.566077       -15.4037
  43   2.0000      -0.563253       -15.3269
  44   2.0000      -0.533976       -14.5302
  45   2.0000      -0.525553       -14.3010
  46   2.0000      -0.517348       -14.0778
  47   2.0000      -0.513375       -13.9697
  48   2.0000      -0.504939       -13.7401
  49   2.0000      -0.500918       -13.6307
  50   2.0000      -0.495460       -13.4821
  51   2.0000      -0.472672       -12.8621
  52   2.0000      -0.468976       -12.7615
  53   2.0000      -0.465365       -12.6632
  54   2.0000      -0.461228       -12.5506
  55   2.0000      -0.447688       -12.1822
  56   2.0000      -0.441117       -12.0034
  57   2.0000      -0.437974       -11.9179
  58   2.0000      -0.432513       -11.7693
  59   2.0000      -0.424502       -11.5513
  60   2.0000      -0.417910       -11.3719
  61   2.0000      -0.417506       -11.3609
  62   2.0000      -0.410692       -11.1755
  63   2.0000      -0.345215        -9.3938
  64   2.0000      -0.334195        -9.0939
  65   2.0000      -0.328551        -8.9403
  66   2.0000      -0.293598        -7.9892
  67   0.0000       0.029743         0.8094
  68   0.0000       0.061293         1.6679
  69   0.0000       0.106032         2.8853
  70   0.0000       0.111276         3.0280
  71   0.0000       0.126670         3.4469

MULLIKEN ATOMIC CHARGES
-----------------------
   0 S :    0.099387
   1 C :   -0.111822
   2 C :   -0.122632
   3 C :    0.066049
   4 C :   -0.155530
   5 H :   -0.007312
   6 C :    0.052637
   7 H :    0.015260
   8 H :    0.020175
   9 C :   -0.047801
  10 H :    0.020810
  11 H :    0.022117
  12 C :   -0.057339
  13 H :    0.038301
  14 H :    0.033592
  15 H :    0.040280
  16 S :    0.111836
  17 C :   -0.080111
  18 C :   -0.065874
  19 C :   -0.025423
  20 C :   -0.136828
  21 H :    0.018147
  22 C :    0.100400
  23 H :    0.002517
  24 H :    0.034252
  25 C :   -0.090547
  26 H :    0.032852
  27 H :    0.034245
  28 C :   -0.001501
  29 H :    0.019298
  30 H :    0.015135
  31 H :    0.027910
  32 H :    0.054699
  33 H :    0.042817
Sum of atomic charges:    0.0000000

LOEWDIN ATOMIC CHARGES
----------------------
   0 S :    0.420770
   1 C :   -0.201245
   2 C :   -0.057997
   3 C :   -0.056912
   4 C :   -0.186737
   5 H :    0.024851
   6 C :   -0.030888
   7 H :    0.025952
   8 H :    0.026517
   9 C :   -0.046750
  10 H :    0.022645
  11 H :    0.024815
  12 C :   -0.069118
  13 H :    0.031236
  14 H :    0.027914
  15 H :    0.029979
  16 S :    0.371025
  17 C :   -0.174952
  18 C :   -0.071067
  19 C :   -0.048598
  20 C :   -0.191773
  21 H :    0.031569
  22 C :   -0.025162
  23 H :    0.007848
  24 H :    0.039397
  25 C :   -0.045285
  26 H :    0.027350
  27 H :    0.020446
  28 C :   -0.060051
  29 H :    0.022340
  30 H :    0.020602
  31 H :    0.024331
  32 H :    0.035845
  33 H :    0.031103

  Mayer bond orders larger than 0.100000
B(  0-S ,  1-C ) :   1.1262 B(  0-S ,  4-C ) :   1.1414 B(  1-C ,  2-C ) :   1.6242
B(  1-C , 32-H ) :   0.9644 B(  2-C ,  3-C ) :   1.2500 B(  2-C ,  6-C ) :   1.0156
B(  3-C ,  4-C ) :   1.5707 B(  3-C ,  5-H ) :   1.0047 B(  4-C , 20-C ) :   1.0450
B(  6-C ,  7-H ) :   0.9421 B(  6-C ,  8-H ) :   0.9426 B(  6-C ,  9-C ) :   1.0678
B(  9-C , 10-H ) :   0.9505 B(  9-C , 11-H ) :   0.9512 B(  9-C , 12-C ) :   1.0864
B( 12-C , 13-H ) :   0.9707 B( 12-C , 14-H ) :   0.9739 B( 12-C , 15-H ) :   0.9729
B( 16-S , 17-C ) :   1.1222 B( 16-S , 20-C ) :   1.1180 B( 17-C , 18-C ) :   1.6716
B( 17-C , 33-H ) :   0.9635 B( 18-C , 19-C ) :   1.2020 B( 18-C , 21-H ) :   0.9858
B( 19-C , 20-C ) :   1.5865 B( 19-C , 22-C ) :   1.0521 B( 22-C , 23-H ) :   0.9184
B( 22-C , 24-H ) :   0.9296 B( 22-C , 25-C ) :   1.0803 B( 25-C , 26-H ) :   0.9525
B( 25-C , 27-H ) :   0.9408 B( 25-C , 28-C ) :   1.0991 B( 28-C , 29-H ) :   0.9689
B( 28-C , 30-H ) :   0.9706 B( 28-C , 31-H ) :   0.9704

Dispersion correction           -0.014038871
FINAL SINGLE POINT ENERGY     -1339.872299188007

DIPOLE MOMENT
-------------
                                X             Y             Z
Electronic contribution:     12.62918      -8.59014     -13.92519
Nuclear contribution   :    -12.95805       8.60541      14.25786
                        -----------------------------------------
Total Dipole Moment    :     -0.32887       0.01527       0.33267
                        -----------------------------------------
Magnitude (a.u.)       :      0.46803
Magnitude (Debye)      :      1.18965

Rotational constants in cm-1:     0.020944     0.007548     0.006224
Rotational constants in MHz :   627.891344   226.292700   186.582797

                             ****ORCA TERMINATED NORMALLY****
TOTAL RUN TIME: 0 days 0 hours 0 minutes 31 seconds 315 msec
