                         Program Version 4.2.1 -  RELEASE  -
|  1> ! wB97X-D3 SP def2-SVP
|  2> %pal
|  3> nprocs 16
|  4> end
|  5>
|  6> * xyz 0 1
|  7> S 	 -37.2754 	 72.0027 	 166.891
|  8> C 	 -36.2112 	 72.3875 	 165.665
|  9> C 	 -36.2726 	 73.7618 	 165.325
| 10> C 	 -36.8146 	 74.5139 	 166.424
| 11> C 	 -37.4468 	 73.6714 	 167.351
| 12> H 	 -36.8245 	 75.6066 	 166.488
| 13> C 	 -35.5521 	 74.3753 	 164.137
| 14> H 	 -35.7803 	 75.4274 	 164.364
| 15> H 	 -36.0214 	 73.9812 	 163.237
| 16> C 	 -33.9993 	 74.3858 	 164.112
| 17> H 	 -33.7311 	 75.0236 	 164.908
| 18> H 	 -33.6665 	 73.3834 	 164.5
| 19> C 	 -33.4648 	 75.0171 	 162.909
| 20> H 	 -32.4386 	 74.8407 	 162.87
| 21> H 	 -33.9458 	 74.5857 	 162.065
| 22> H 	 -33.596 	 76.1222 	 162.918
| 23> S 	 -37.0373 	 74.3885 	 169.977
| 24> C 	 -38.3864 	 75.0721 	 170.829
| 25> C 	 -39.6078 	 74.8826 	 170.208
| 26> C 	 -39.4385 	 74.3315 	 168.906
| 27> C 	 -38.0708 	 74.1208 	 168.63
| 28> H 	 -40.5826 	 75.1039 	 170.696
| 29> C 	 -40.6007 	 74.0958 	 167.963
| 30> H 	 -41.3406 	 73.5531 	 168.499
| 31> H 	 -40.3343 	 73.258 	 167.301
| 32> C 	 -41.07 	 75.2099 	 167.096
| 33> H 	 -41.8759 	 74.986 	 166.357
| 34> H 	 -40.159 	 75.6141 	 166.588
| 35> C 	 -41.6843 	 76.3136 	 168.006
| 36> H 	 -40.827 	 76.8359 	 168.468
| 37> H 	 -42.2311 	 75.7946 	 168.82
| 38> H 	 -42.3077 	 76.9011 	 167.411
| 39> H 	 -35.4847 	 71.7117 	 165.159
| 40> H 	 -38.2124 	 75.6585 	 171.819
| 41> *
| 42>
| 43>                          ****END OF INPUT****

CARTESIAN COORDINATES (ANGSTROEM)
---------------------------------
  S    -37.275400   72.002700  166.891000
  C    -36.211200   72.387500  165.665000
  C    -36.272600   73.761800  165.325000
  C    -36.814600   74.513900  166.424000
  C    -37.446800   73.671400  167.351000
  H    -36.824500   75.606600  166.488000
  C    -35.552100   74.375300  164.137000
  H    -35.780300   75.427400  164.364000
  H    -36.021400   73.981200  163.237000
  C    -33.999300   74.385800  164.112000
  H    -33.731100   75.023600  164.908000
  H    -33.666500   73.383400  164.500000
  C    -33.464800   75.017100  162.909000
  H    -32.438600   74.840700  162.870000
  H    -33.945800   74.585700  162.065000
  H    -33.596000   76.122200  162.918000
  S    -37.037300   74.388500  169.977000
  C    -38.386400   75.072100  170.829000
  C    -39.607800   74.882600  170.208000
  C    -39.438500   74.331500  168.906000
  C    -38.070800   74.120800  168.630000
  H    -40.582600   75.103900  170.696000
  C    -40.600700   74.095800  167.963000
  H    -41.340600   73.553100  168.499000
  H    -40.334300   73.258000  167.301000
  C    -41.070000   75.209900  167.096000
  H    -41.875900   74.986000  166.357000
  H    -40.159000   75.614100  166.588000
  C    -41.684300   76.313600  168.006000
  H    -40.827000   76.835900  168.468000
  H    -42.231100   75.794600  168.820000
  H    -42.307700   76.901100  167.411000
  H    -35.484700   71.711700  165.159000
  H    -38.212400   75.658500  171.819000

 Total Charge           Charge          ....    0
 Multiplicity           Mult            ....    1
 Number of Electrons    NEL             ....  134
 Basis Dimension        Dim             ....  322

ORBITAL ENERGIES
----------------

  NO   OCC          E(Eh)            E(eV)
   0   2.0000     -88.968312     -2420.9509
   1   2.0000     -88.967428     -2420.9268
   2   2.0000     -10.325475      -280.9705
   3   2.0000     -10.323988      -280.9300
   4   2.0000     -10.321208      -280.8543
   5   2.0000     -10.310984      -280.5761
   6   2.0000     -10.302665      -280.3498
   7   2.0000     -10.299623      -280.2670
   8   2.0000     -10.298473      -280.2357
   9   2.0000     -10.295959      -280.1673
  10   2.0000     -10.288856      -279.9740
  11   2.0000     -10.284678      -279.8603
  12   2.0000     -10.281852      -279.7834
  13   2.0000     -10.281608      -279.7768
  14   2.0000     -10.271426      -279.4997
  15   2.0000     -10.269735      -279.4537
  16   2.0000      -8.083754      -219.9701
  17   2.0000      -8.083355      -219.9593
  18   2.0000      -6.042047      -164.4125
  19   2.0000      -6.041510      -164.3978
  20   2.0000      -6.038249      -164.3091
  21   2.0000      -6.037669      -164.2933
  22   2.0000      -6.034619      -164.2103
  23   2.0000      -6.034443      -164.2055
  24   2.0000      -1.007881       -27.4258
  25   2.0000      -0.988660       -26.9028
  26   2.0000      -0.917777       -24.9740
  27   2.0000      -0.912353       -24.8264
  28   2.0000      -0.864206       -23.5162
  29   2.0000      -0.857556       -23.3353
  30   2.0000      -0.846524       -23.0351
  31   2.0000      -0.810560       -22.0565
  32   2.0000      -0.782369       -21.2893
  33   2.0000      -0.764774       -20.8106
  34   2.0000      -0.701648       -19.0928
  35   2.0000      -0.697628       -18.9834
  36   2.0000      -0.679060       -18.4782
  37   2.0000      -0.654681       -17.8148
  38   2.0000      -0.639822       -17.4105
  39   2.0000      -0.614518       -16.7219
  40   2.0000      -0.595486       -16.2040
  41   2.0000      -0.571458       -15.5502
  42   2.0000      -0.563283       -15.3277
  43   2.0000      -0.557071       -15.1587
  44   2.0000      -0.540471       -14.7070
  45   2.0000      -0.533877       -14.5275
  46   2.0000      -0.515715       -14.0333
  47   2.0000      -0.508793       -13.8450
  48   2.0000      -0.502534       -13.6746
  49   2.0000      -0.491845       -13.3838
  50   2.0000      -0.485327       -13.2064
  51   2.0000      -0.480803       -13.0833
  52   2.0000      -0.473787       -12.8924
  53   2.0000      -0.462338       -12.5808
  54   2.0000      -0.457019       -12.4361
  55   2.0000      -0.452233       -12.3059
  56   2.0000      -0.451093       -12.2749
  57   2.0000      -0.441215       -12.0061
  58   2.0000      -0.435095       -11.8395
  59   2.0000      -0.423172       -11.5151
  60   2.0000      -0.417853       -11.3704
  61   2.0000      -0.402147       -10.9430
  62   2.0000      -0.398005       -10.8303
  63   2.0000      -0.339039        -9.2257
  64   2.0000      -0.330181        -8.9847
  65   2.0000      -0.315207        -8.5772
  66   2.0000      -0.298721        -8.1286
  67   0.0000       0.044366         1.2073
  68   0.0000       0.049690         1.3521
  69   0.0000       0.109710         2.9854
  70   0.0000       0.111050         3.0218
  71   0.0000       0.135538         3.6882

MULLIKEN ATOMIC CHARGES
-----------------------
   0 S :    0.152473
   1 C :   -0.146201
   2 C :   -0.119747
   3 C :    0.034642
   4 C :   -0.179098
   5 H :    0.026535
   6 C :    0.036436
   7 H :    0.013052
   8 H :    0.042913
   9 C :   -0.068033
  10 H :    0.007687
  11 H :    0.025173
  12 C :    0.020314
  13 H :    0.022028
  14 H :    0.018831
  15 H :    0.036634
  16 S :    0.142393
  17 C :   -0.142326
  18 C :   -0.040496
  19 C :   -0.040763
  20 C :   -0.198593
  21 H :    0.036553
  22 C :    0.090526
  23 H :    0.012796
  24 H :    0.005845
  25 C :   -0.069170
  26 H :    0.039357
  27 H :    0.037104
  28 C :   -0.049010
  29 H :    0.048014
  30 H :    0.023154
  31 H :    0.024660
  32 H :    0.069039
  33 H :    0.087276
Sum of atomic charges:   -0.0000000

LOEWDIN ATOMIC CHARGES
----------------------
   0 S :    0.451858
   1 C :   -0.232477
   2 C :   -0.069005
   3 C :   -0.057624
   4 C :   -0.215983
   5 H :    0.035259
   6 C :   -0.037604
   7 H :    0.032217
   8 H :    0.029972
   9 C :   -0.044348
  10 H :    0.020709
  11 H :    0.023851
  12 C :   -0.054059
  13 H :    0.023244
  14 H :    0.020670
  15 H :    0.034992
  16 S :    0.434941
  17 C :   -0.208193
  18 C :   -0.077170
  19 C :   -0.053388
  20 C :   -0.216296
  21 H :    0.040287
  22 C :   -0.043628
  23 H :    0.026206
  24 H :    0.031065
  25 C :   -0.039786
  26 H :    0.029185
  27 H :    0.030621
  28 C :   -0.062583
  29 H :    0.029753
  30 H :    0.022219
  31 H :    0.013538
  32 H :    0.036739
  33 H :    0.044818

  Mayer bond orders larger than 0.100000
B(  0-S ,  1-C ) :   1.1914 B(  0-S ,  4-C ) :   1.1684 B(  1-C ,  2-C ) :   1.5408
B(  1-C , 32-H ) :   0.9648 B(  2-C ,  3-C ) :   1.2818 B(  2-C ,  6-C ) :   1.0272
B(  3-C ,  4-C ) :   1.5522 B(  3-C ,  5-H ) :   0.9842 B(  4-C , 20-C ) :   1.0020
B(  6-C ,  7-H ) :   0.9461 B(  6-C ,  8-H ) :   0.9374 B(  6-C ,  9-C ) :   1.0616
B(  9-C , 10-H ) :   0.9495 B(  9-C , 11-H ) :   0.9572 B(  9-C , 12-C ) :   1.0812
B( 12-C , 13-H ) :   0.9657 B( 12-C , 14-H ) :   0.9747 B( 12-C , 15-H ) :   0.9701
B( 16-S , 17-C ) :   1.1671 B( 16-S , 20-C ) :   1.1775 B( 17-C , 18-C ) :   1.5914
B( 17-C , 33-H ) :   0.9533 B( 18-C , 19-C ) :   1.2601 B( 18-C , 21-H ) :   0.9838
B( 19-C , 20-C ) :   1.5796 B( 19-C , 22-C ) :   1.0401 B( 22-C , 23-H ) :   0.9320
B( 22-C , 24-H ) :   0.9124 B( 22-C , 25-C ) :   1.0781 B( 25-C , 26-H ) :   0.9573
B( 25-C , 27-H ) :   0.9513 B( 25-C , 28-C ) :   1.0728 B( 28-C , 29-H ) :   0.9733
B( 28-C , 30-H ) :   0.9759 B( 28-C , 31-H ) :   0.9764

Dispersion correction           -0.014533089
FINAL SINGLE POINT ENERGY     -1339.845368496689

DIPOLE MOMENT
-------------
                                X             Y             Z
Electronic contribution:      2.44175     -12.54286      17.40637
Nuclear contribution   :     -2.37343      12.82182     -17.68673
                        -----------------------------------------
Total Dipole Moment    :      0.06832       0.27896      -0.28036
                        -----------------------------------------
Magnitude (a.u.)       :      0.40136
Magnitude (Debye)      :      1.02018

Rotational constants in cm-1:     0.021604     0.007222     0.006619
Rotational constants in MHz :   647.663742   216.497507   198.422067

                             ****ORCA TERMINATED NORMALLY****
TOTAL RUN TIME: 0 days 0 hours 0 minutes 35 seconds 226 msec
