                         Program Version 4.2.1 -  RELEASE  -
|  1> ! wB97X-D3 SP def2-SVP
|  2> %pal
|  3> nprocs 16
|  4> end
|  5>
|  6> * xyz 0 1
|  7> S 	 -106.904 	 52.1525 	 111.718
|  8> C 	 -108.245 	 53.2859 	 111.406
|  9> C 	 -108.096 	 54.416 	 112.136
| 10> C 	 -106.956 	 54.3364 	 113.011
| 11> C 	 -106.125 	 53.2189 	 112.847
| 12> H 	 -106.658 	 55.2192 	 113.638
| 13> C 	 -108.96 	 55.6355 	 112.081
| 14> H 	 -108.962 	 56.1303 	 113.148
| 15> H 	 -109.993 	 55.381 	 112.049
| 16> C 	 -108.543 	 56.7158 	 111.108
| 17> H 	 -108.593 	 56.2164 	 110.143
| 18> H 	 -109.279 	 57.4587 	 111.087
| 19> C 	 -107.183 	 57.4642 	 111.182
| 20> H 	 -106.405 	 56.8929 	 110.778
| 21> H 	 -107.164 	 58.4368 	 110.667
| 22> H 	 -106.992 	 57.6974 	 112.26
| 23> S 	 -104.429 	 53.1029 	 115.002
| 24> C 	 -102.775 	 52.7817 	 114.711
| 25> C 	 -102.494 	 52.4709 	 113.42
| 26> C 	 -103.66 	 52.6846 	 112.607
| 27> C 	 -104.802 	 52.9465 	 113.322
| 28> H 	 -101.482 	 52.251 	 113.078
| 29> C 	 -103.647 	 52.6213 	 111.12
| 30> H 	 -103.907 	 53.631 	 110.825
| 31> H 	 -104.52 	 52.0015 	 110.85
| 32> C 	 -102.401 	 52.1212 	 110.367
| 33> H 	 -101.572 	 52.8185 	 110.736
| 34> H 	 -102.31 	 52.3913 	 109.298
| 35> C 	 -102.127 	 50.6965 	 110.753
| 36> H 	 -102.918 	 50.0605 	 110.259
| 37> H 	 -102.161 	 50.5218 	 111.774
| 38> H 	 -101.152 	 50.3717 	 110.47
| 39> H 	 -108.985 	 53.0933 	 110.69
| 40> H 	 -101.973 	 52.6587 	 115.371
| 41> *
| 42>
| 43>                          ****END OF INPUT****

CARTESIAN COORDINATES (ANGSTROEM)
---------------------------------
  S    -106.904000   52.152500  111.718000
  C    -108.245000   53.285900  111.406000
  C    -108.096000   54.416000  112.136000
  C    -106.956000   54.336400  113.011000
  C    -106.125000   53.218900  112.847000
  H    -106.658000   55.219200  113.638000
  C    -108.960000   55.635500  112.081000
  H    -108.962000   56.130300  113.148000
  H    -109.993000   55.381000  112.049000
  C    -108.543000   56.715800  111.108000
  H    -108.593000   56.216400  110.143000
  H    -109.279000   57.458700  111.087000
  C    -107.183000   57.464200  111.182000
  H    -106.405000   56.892900  110.778000
  H    -107.164000   58.436800  110.667000
  H    -106.992000   57.697400  112.260000
  S    -104.429000   53.102900  115.002000
  C    -102.775000   52.781700  114.711000
  C    -102.494000   52.470900  113.420000
  C    -103.660000   52.684600  112.607000
  C    -104.802000   52.946500  113.322000
  H    -101.482000   52.251000  113.078000
  C    -103.647000   52.621300  111.120000
  H    -103.907000   53.631000  110.825000
  H    -104.520000   52.001500  110.850000
  C    -102.401000   52.121200  110.367000
  H    -101.572000   52.818500  110.736000
  H    -102.310000   52.391300  109.298000
  C    -102.127000   50.696500  110.753000
  H    -102.918000   50.060500  110.259000
  H    -102.161000   50.521800  111.774000
  H    -101.152000   50.371700  110.470000
  H    -108.985000   53.093300  110.690000
  H    -101.973000   52.658700  115.371000

 Total Charge           Charge          ....    0
 Multiplicity           Mult            ....    1
 Number of Electrons    NEL             ....  134
 Basis Dimension        Dim             ....  322

ORBITAL ENERGIES
----------------

  NO   OCC          E(Eh)            E(eV)
   0   2.0000     -88.966376     -2420.8982
   1   2.0000     -88.963492     -2420.8197
   2   2.0000     -10.330994      -281.1206
   3   2.0000     -10.318186      -280.7721
   4   2.0000     -10.312156      -280.6080
   5   2.0000     -10.308066      -280.4967
   6   2.0000     -10.299430      -280.2618
   7   2.0000     -10.299386      -280.2606
   8   2.0000     -10.298959      -280.2489
   9   2.0000     -10.297220      -280.2016
  10   2.0000     -10.291234      -280.0387
  11   2.0000     -10.290476      -280.0181
  12   2.0000     -10.282965      -279.8137
  13   2.0000     -10.282247      -279.7942
  14   2.0000     -10.278896      -279.7030
  15   2.0000     -10.270442      -279.4729
  16   2.0000      -8.081984      -219.9220
  17   2.0000      -8.077855      -219.8096
  18   2.0000      -6.040517      -164.3708
  19   2.0000      -6.036445      -164.2600
  20   2.0000      -6.036354      -164.2575
  21   2.0000      -6.032687      -164.1577
  22   2.0000      -6.032308      -164.1475
  23   2.0000      -6.028645      -164.0478
  24   2.0000      -1.013989       -27.5920
  25   2.0000      -0.988331       -26.8939
  26   2.0000      -0.915865       -24.9219
  27   2.0000      -0.912617       -24.8336
  28   2.0000      -0.876381       -23.8476
  29   2.0000      -0.850876       -23.1535
  30   2.0000      -0.842447       -22.9241
  31   2.0000      -0.817804       -22.2536
  32   2.0000      -0.789056       -21.4713
  33   2.0000      -0.776159       -21.1204
  34   2.0000      -0.712051       -19.3759
  35   2.0000      -0.705410       -19.1952
  36   2.0000      -0.698621       -19.0104
  37   2.0000      -0.661355       -17.9964
  38   2.0000      -0.637650       -17.3513
  39   2.0000      -0.616160       -16.7666
  40   2.0000      -0.592825       -16.1316
  41   2.0000      -0.580875       -15.8064
  42   2.0000      -0.562793       -15.3144
  43   2.0000      -0.550300       -14.9744
  44   2.0000      -0.545342       -14.8395
  45   2.0000      -0.537365       -14.6224
  46   2.0000      -0.518044       -14.0967
  47   2.0000      -0.510516       -13.8918
  48   2.0000      -0.503569       -13.7028
  49   2.0000      -0.502151       -13.6642
  50   2.0000      -0.493076       -13.4173
  51   2.0000      -0.481907       -13.1133
  52   2.0000      -0.477642       -12.9973
  53   2.0000      -0.465145       -12.6573
  54   2.0000      -0.459137       -12.4937
  55   2.0000      -0.452249       -12.3063
  56   2.0000      -0.450462       -12.2577
  57   2.0000      -0.439493       -11.9592
  58   2.0000      -0.432488       -11.7686
  59   2.0000      -0.425855       -11.5881
  60   2.0000      -0.417220       -11.3531
  61   2.0000      -0.405004       -11.0207
  62   2.0000      -0.397499       -10.8165
  63   2.0000      -0.349266        -9.5040
  64   2.0000      -0.331328        -9.0159
  65   2.0000      -0.327273        -8.9056
  66   2.0000      -0.292485        -7.9589
  67   0.0000       0.028650         0.7796
  68   0.0000       0.078198         2.1279
  69   0.0000       0.114609         3.1187
  70   0.0000       0.121906         3.3172
  71   0.0000       0.130917         3.5624

MULLIKEN ATOMIC CHARGES
-----------------------
   0 S :    0.091864
   1 C :   -0.112626
   2 C :   -0.069889
   3 C :    0.021665
   4 C :   -0.173043
   5 H :    0.026687
   6 C :    0.034021
   7 H :    0.025376
   8 H :    0.023547
   9 C :   -0.033227
  10 H :    0.014806
  11 H :    0.015740
  12 C :   -0.046323
  13 H :    0.033504
  14 H :    0.037953
  15 H :    0.027935
  16 S :    0.132581
  17 C :   -0.034578
  18 C :   -0.067380
  19 C :   -0.083386
  20 C :   -0.131023
  21 H :    0.028629
  22 C :    0.080044
  23 H :    0.033788
  24 H :    0.029694
  25 C :   -0.081496
  26 H :    0.017688
  27 H :    0.037702
  28 C :   -0.010876
  29 H :    0.038867
  30 H :    0.017412
  31 H :    0.020340
  32 H :    0.029085
  33 H :    0.024919
Sum of atomic charges:   -0.0000000

LOEWDIN ATOMIC CHARGES
----------------------
   0 S :    0.411935
   1 C :   -0.173512
   2 C :   -0.068821
   3 C :   -0.067279
   4 C :   -0.194019
   5 H :    0.035524
   6 C :   -0.036195
   7 H :    0.037566
   8 H :    0.029869
   9 C :   -0.038253
  10 H :    0.022574
  11 H :    0.017934
  12 C :   -0.061409
  13 H :    0.018256
  14 H :    0.032380
  15 H :    0.027418
  16 S :    0.436489
  17 C :   -0.186417
  18 C :   -0.077148
  19 C :   -0.048247
  20 C :   -0.222779
  21 H :    0.035260
  22 C :   -0.043153
  23 H :    0.035945
  24 H :    0.018295
  25 C :   -0.050807
  26 H :    0.023707
  27 H :    0.031795
  28 C :   -0.059902
  29 H :    0.035804
  30 H :    0.015759
  31 H :    0.021534
  32 H :    0.018029
  33 H :    0.021864

  Mayer bond orders larger than 0.100000
B(  0-S ,  1-C ) :   1.1282 B(  0-S ,  4-C ) :   1.1577 B(  1-C ,  2-C ) :   1.6196
B(  1-C , 32-H ) :   0.9807 B(  2-C ,  3-C ) :   1.2518 B(  2-C ,  6-C ) :   1.0178
B(  3-C ,  4-C ) :   1.5678 B(  3-C ,  5-H ) :   0.9812 B(  4-C , 20-C ) :   1.0345
B(  6-C ,  7-H ) :   0.9377 B(  6-C ,  8-H ) :   0.9402 B(  6-C ,  9-C ) :   1.0781
B(  9-C , 10-H ) :   0.9519 B(  9-C , 11-H ) :   0.9542 B(  9-C , 12-C ) :   1.0753
B( 12-C , 13-H ) :   0.9764 B( 12-C , 14-H ) :   0.9742 B( 12-C , 15-H ) :   0.9744
B( 16-S , 17-C ) :   1.1675 B( 16-S , 20-C ) :   1.1262 B( 17-C , 18-C ) :   1.6213
B( 17-C , 33-H ) :   0.9591 B( 18-C , 19-C ) :   1.2448 B( 18-C , 21-H ) :   0.9797
B( 19-C , 20-C ) :   1.5991 B( 19-C , 22-C ) :   1.0277 B( 22-C , 23-H ) :   0.9134
B( 22-C , 24-H ) :   0.9221 B( 22-C , 25-C ) :   1.0783 B( 25-C , 26-H ) :   0.9446
B( 25-C , 27-H ) :   0.9551 B( 25-C , 28-C ) :   1.0710 B( 28-C , 29-H ) :   0.9704
B( 28-C , 30-H ) :   0.9739 B( 28-C , 31-H ) :   0.9704

Dispersion correction           -0.014777345
FINAL SINGLE POINT ENERGY     -1339.867121692283

DIPOLE MOMENT
-------------
                                X             Y             Z
Electronic contribution:     -3.25846     -10.36925      14.95842
Nuclear contribution   :      3.39033      10.78212     -15.33950
                        -----------------------------------------
Total Dipole Moment    :      0.13187       0.41287      -0.38108
                        -----------------------------------------
Magnitude (a.u.)       :      0.57712
Magnitude (Debye)      :      1.46693

Rotational constants in cm-1:     0.020684     0.008229     0.007424
Rotational constants in MHz :   620.081897   246.703849   222.580854

                             ****ORCA TERMINATED NORMALLY****
TOTAL RUN TIME: 0 days 0 hours 0 minutes 34 seconds 26 msec
