                         Program Version 4.2.1 -  RELEASE  -
|  1> ! wB97X-D3 SP def2-SVP
|  2> %pal
|  3> nprocs 16
|  4> end
|  5>
|  6> * xyz 0 1
|  7> S 	 -32.6238 	 71.5213 	 169.335
|  8> C 	 -31.6722 	 71.1069 	 167.959
|  9> C 	 -31.9508 	 71.9461 	 166.883
| 10> C 	 -32.9286 	 72.9379 	 167.245
| 11> C 	 -33.3177 	 72.9767 	 168.568
| 12> H 	 -33.2322 	 73.7978 	 166.703
| 13> C 	 -31.2255 	 71.7972 	 165.515
| 14> H 	 -31.9227 	 71.3565 	 164.762
| 15> H 	 -30.3569 	 71.1486 	 165.618
| 16> C 	 -30.6513 	 73.1899 	 165.011
| 17> H 	 -31.4533 	 73.8931 	 164.743
| 18> H 	 -30.0295 	 73.7097 	 165.764
| 19> C 	 -30.0211 	 73.1154 	 163.605
| 20> H 	 -29.8551 	 74.0902 	 163.02
| 21> H 	 -29.1034 	 72.5907 	 163.586
| 22> H 	 -30.6979 	 72.555 	 162.995
| 23> S 	 -33.7106 	 74.1898 	 171.009
| 24> C 	 -34.6449 	 75.6476 	 171.196
| 25> C 	 -35.1199 	 75.9879 	 169.939
| 26> C 	 -34.9701 	 75.0069 	 168.897
| 27> C 	 -34.1367 	 73.9802 	 169.309
| 28> H 	 -35.6714 	 76.8741 	 169.823
| 29> C 	 -35.5991 	 75.1301 	 167.588
| 30> H 	 -35.3585 	 74.4201 	 166.861
| 31> H 	 -35.2918 	 76.1853 	 167.262
| 32> C 	 -37.1208 	 74.9749 	 167.601
| 33> H 	 -37.49 	 75.0721 	 166.661
| 34> H 	 -37.4314 	 75.8102 	 168.2
| 35> C 	 -37.5048 	 73.652 	 168.224
| 36> H 	 -37.5287 	 73.7847 	 169.257
| 37> H 	 -36.8782 	 72.9179 	 167.786
| 38> H 	 -38.5376 	 73.4583 	 167.957
| 39> H 	 -30.8753 	 70.3712 	 167.86
| 40> H 	 -34.725 	 76.3375 	 172.051
| 41> *
| 42>
| 43>                          ****END OF INPUT****

CARTESIAN COORDINATES (ANGSTROEM)
---------------------------------
  S    -32.623800   71.521300  169.335000
  C    -31.672200   71.106900  167.959000
  C    -31.950800   71.946100  166.883000
  C    -32.928600   72.937900  167.245000
  C    -33.317700   72.976700  168.568000
  H    -33.232200   73.797800  166.703000
  C    -31.225500   71.797200  165.515000
  H    -31.922700   71.356500  164.762000
  H    -30.356900   71.148600  165.618000
  C    -30.651300   73.189900  165.011000
  H    -31.453300   73.893100  164.743000
  H    -30.029500   73.709700  165.764000
  C    -30.021100   73.115400  163.605000
  H    -29.855100   74.090200  163.020000
  H    -29.103400   72.590700  163.586000
  H    -30.697900   72.555000  162.995000
  S    -33.710600   74.189800  171.009000
  C    -34.644900   75.647600  171.196000
  C    -35.119900   75.987900  169.939000
  C    -34.970100   75.006900  168.897000
  C    -34.136700   73.980200  169.309000
  H    -35.671400   76.874100  169.823000
  C    -35.599100   75.130100  167.588000
  H    -35.358500   74.420100  166.861000
  H    -35.291800   76.185300  167.262000
  C    -37.120800   74.974900  167.601000
  H    -37.490000   75.072100  166.661000
  H    -37.431400   75.810200  168.200000
  C    -37.504800   73.652000  168.224000
  H    -37.528700   73.784700  169.257000
  H    -36.878200   72.917900  167.786000
  H    -38.537600   73.458300  167.957000
  H    -30.875300   70.371200  167.860000
  H    -34.725000   76.337500  172.051000

 Total Charge           Charge          ....    0
 Multiplicity           Mult            ....    1
 Number of Electrons    NEL             ....  134
 Basis Dimension        Dim             ....  322

ORBITAL ENERGIES
----------------

  NO   OCC          E(Eh)            E(eV)
   0   2.0000     -88.964991     -2420.8605
   1   2.0000     -88.964243     -2420.8401
   2   2.0000     -10.336939      -281.2824
   3   2.0000     -10.333966      -281.2015
   4   2.0000     -10.323646      -280.9207
   5   2.0000     -10.313949      -280.6568
   6   2.0000     -10.306166      -280.4450
   7   2.0000     -10.306121      -280.4438
   8   2.0000     -10.304412      -280.3973
   9   2.0000     -10.293758      -280.1074
  10   2.0000     -10.292760      -280.0802
  11   2.0000     -10.292669      -280.0778
  12   2.0000     -10.288038      -279.9518
  13   2.0000     -10.278354      -279.6882
  14   2.0000     -10.271651      -279.5058
  15   2.0000     -10.263473      -279.2833
  16   2.0000      -8.079658      -219.8587
  17   2.0000      -8.078754      -219.8341
  18   2.0000      -6.038271      -164.3097
  19   2.0000      -6.037362      -164.2850
  20   2.0000      -6.034066      -164.1953
  21   2.0000      -6.033216      -164.1722
  22   2.0000      -6.030373      -164.0948
  23   2.0000      -6.029473      -164.0703
  24   2.0000      -1.006310       -27.3831
  25   2.0000      -0.985043       -26.8044
  26   2.0000      -0.924836       -25.1661
  27   2.0000      -0.901832       -24.5401
  28   2.0000      -0.869714       -23.6661
  29   2.0000      -0.854163       -23.2430
  30   2.0000      -0.841856       -22.9081
  31   2.0000      -0.819307       -22.2945
  32   2.0000      -0.784803       -21.3556
  33   2.0000      -0.770672       -20.9710
  34   2.0000      -0.710755       -19.3406
  35   2.0000      -0.699630       -19.0379
  36   2.0000      -0.691576       -18.8187
  37   2.0000      -0.662389       -18.0245
  38   2.0000      -0.643406       -17.5080
  39   2.0000      -0.621356       -16.9080
  40   2.0000      -0.605514       -16.4769
  41   2.0000      -0.568385       -15.4665
  42   2.0000      -0.562485       -15.3060
  43   2.0000      -0.560324       -15.2472
  44   2.0000      -0.556396       -15.1403
  45   2.0000      -0.523605       -14.2480
  46   2.0000      -0.512616       -13.9490
  47   2.0000      -0.508926       -13.8486
  48   2.0000      -0.505293       -13.7497
  49   2.0000      -0.500746       -13.6260
  50   2.0000      -0.490099       -13.3363
  51   2.0000      -0.487345       -13.2613
  52   2.0000      -0.477284       -12.9876
  53   2.0000      -0.469647       -12.7797
  54   2.0000      -0.461277       -12.5520
  55   2.0000      -0.444463       -12.0945
  56   2.0000      -0.443191       -12.0598
  57   2.0000      -0.436488       -11.8774
  58   2.0000      -0.433498       -11.7961
  59   2.0000      -0.423629       -11.5275
  60   2.0000      -0.417478       -11.3601
  61   2.0000      -0.413757       -11.2589
  62   2.0000      -0.406013       -11.0482
  63   2.0000      -0.360529        -9.8105
  64   2.0000      -0.330746        -9.0001
  65   2.0000      -0.325498        -8.8572
  66   2.0000      -0.286935        -7.8079
  67   0.0000       0.021379         0.5817
  68   0.0000       0.082155         2.2356
  69   0.0000       0.110083         2.9955
  70   0.0000       0.112729         3.0675
  71   0.0000       0.137676         3.7463

MULLIKEN ATOMIC CHARGES
-----------------------
   0 S :    0.099748
   1 C :   -0.103392
   2 C :   -0.096379
   3 C :    0.024908
   4 C :   -0.139451
   5 H :    0.004672
   6 C :    0.065299
   7 H :    0.050893
   8 H :    0.025234
   9 C :   -0.115142
  10 H :    0.034868
  11 H :    0.047869
  12 C :   -0.052796
  13 H :    0.046506
  14 H :    0.020513
  15 H :    0.014298
  16 S :    0.091217
  17 C :   -0.082451
  18 C :   -0.037786
  19 C :   -0.064130
  20 C :   -0.103916
  21 H :    0.001343
  22 C :    0.017533
  23 H :    0.012274
  24 H :    0.042124
  25 C :   -0.031939
  26 H :    0.006006
  27 H :    0.008117
  28 C :    0.008007
  29 H :    0.034706
  30 H :    0.027960
  31 H :    0.020977
  32 H :    0.049044
  33 H :    0.073265
Sum of atomic charges:    0.0000000

LOEWDIN ATOMIC CHARGES
----------------------
   0 S :    0.394670
   1 C :   -0.205951
   2 C :   -0.064962
   3 C :   -0.069739
   4 C :   -0.175633
   5 H :    0.023636
   6 C :   -0.024735
   7 H :    0.037860
   8 H :    0.028688
   9 C :   -0.047665
  10 H :    0.026336
  11 H :    0.028139
  12 C :   -0.071136
  13 H :    0.036394
  14 H :    0.013143
  15 H :    0.019934
  16 S :    0.403921
  17 C :   -0.190805
  18 C :   -0.066519
  19 C :   -0.058933
  20 C :   -0.187434
  21 H :    0.019537
  22 C :   -0.035527
  23 H :    0.018738
  24 H :    0.042347
  25 C :   -0.022935
  26 H :    0.008120
  27 H :    0.016483
  28 C :   -0.047520
  29 H :    0.024077
  30 H :    0.023759
  31 H :    0.027161
  32 H :    0.033532
  33 H :    0.043018

  Mayer bond orders larger than 0.100000
B(  0-S ,  1-C ) :   1.1428 B(  0-S ,  4-C ) :   1.1330 B(  1-C ,  2-C ) :   1.6207
B(  1-C , 32-H ) :   0.9641 B(  2-C ,  3-C ) :   1.2294 B(  2-C ,  6-C ) :   1.0237
B(  3-C ,  4-C ) :   1.6071 B(  3-C ,  5-H ) :   0.9853 B(  4-C , 20-C ) :   1.0395
B(  6-C ,  7-H ) :   0.9383 B(  6-C ,  8-H ) :   0.9486 B(  6-C ,  9-C ) :   1.0513
B(  9-C , 10-H ) :   0.9568 B(  9-C , 11-H ) :   0.9638 B(  9-C , 12-C ) :   1.0661
B( 12-C , 13-H ) :   0.9774 B( 12-C , 14-H ) :   0.9767 B( 12-C , 15-H ) :   0.9710
B( 16-S , 17-C ) :   1.1495 B( 16-S , 20-C ) :   1.1364 B( 17-C , 18-C ) :   1.6052
B( 17-C , 33-H ) :   0.9659 B( 18-C , 19-C ) :   1.2442 B( 18-C , 21-H ) :   0.9908
B( 19-C , 20-C ) :   1.5780 B( 19-C , 22-C ) :   1.0529 B( 22-C , 23-H ) :   0.9415
B( 22-C , 24-H ) :   0.9301 B( 22-C , 25-C ) :   1.0695 B( 25-C , 26-H ) :   0.9578
B( 25-C , 27-H ) :   0.9535 B( 25-C , 28-C ) :   1.0771 B( 28-C , 29-H ) :   0.9695
B( 28-C , 30-H ) :   0.9769 B( 28-C , 31-H ) :   0.9703

Dispersion correction           -0.014116953
FINAL SINGLE POINT ENERGY     -1339.854973126049

DIPOLE MOMENT
-------------
                                X             Y             Z
Electronic contribution:      2.80820      -5.05462      25.36408
Nuclear contribution   :     -2.94249       5.51381     -25.98437
                        -----------------------------------------
Total Dipole Moment    :     -0.13429       0.45919      -0.62028
                        -----------------------------------------
Magnitude (a.u.)       :      0.78335
Magnitude (Debye)      :      1.99112

Rotational constants in cm-1:     0.019244     0.008040     0.006820
Rotational constants in MHz :   576.907517   241.021082   204.449033

                             ****ORCA TERMINATED NORMALLY****
TOTAL RUN TIME: 0 days 0 hours 0 minutes 34 seconds 346 msec
