                         Program Version 4.2.1 -  RELEASE  -
|  1> ! wB97X-D3 SP def2-SVP
|  2> %pal
|  3> nprocs 16
|  4> end
|  5>
|  6> * xyz 0 1
|  7> S 	 16.5151 	 9.05274 	 86.7963
|  8> C 	 17.5192 	 7.59013 	 86.5927
|  9> C 	 16.8423 	 6.39915 	 86.7132
| 10> C 	 15.4488 	 6.69728 	 86.8448
| 11> C 	 15.0661 	 8.04258 	 86.8692
| 12> H 	 14.6442 	 6.06192 	 87.0579
| 13> C 	 17.5494 	 5.07941 	 86.7638
| 14> H 	 18.2592 	 5.24665 	 87.5911
| 15> H 	 18.2167 	 4.93307 	 85.8944
| 16> C 	 16.6806 	 3.91156 	 87.0374
| 17> H 	 16.2236 	 3.92719 	 88.0228
| 18> H 	 15.9164 	 3.99775 	 86.3166
| 19> C 	 17.3767 	 2.50341 	 86.9501
| 20> H 	 16.6663 	 1.70522 	 86.5779
| 21> H 	 18.2283 	 2.52482 	 86.2941
| 22> H 	 17.7012 	 2.10403 	 87.9188
| 23> S 	 13.1911 	 9.81025 	 85.8683
| 24> C 	 11.7689 	 10.1881 	 86.6667
| 25> C 	 11.8294 	 9.66858 	 87.918
| 26> C 	 12.8536 	 8.71411 	 88.1412
| 27> C 	 13.7392 	 8.62986 	 87.0576
| 28> H 	 11.0424 	 9.906 	 88.5876
| 29> C 	 12.9694 	 7.91861 	 89.4382
| 30> H 	 13.113 	 6.85852 	 89.2937
| 31> H 	 11.9832 	 7.97956 	 89.9613
| 32> C 	 14.0928 	 8.45501 	 90.3992
| 33> H 	 14.2091 	 9.52849 	 90.1208
| 34> H 	 15.0391 	 8.05845 	 90.1468
| 35> C 	 13.881 	 8.32124 	 91.971
| 36> H 	 14.8083 	 8.29588 	 92.5599
| 37> H 	 13.4966 	 7.36137 	 92.1242
| 38> H 	 13.2936 	 9.14539 	 92.4074
| 39> H 	 18.5902 	 7.64346 	 86.3811
| 40> H 	 11.1613 	 10.9018 	 86.2126
| 41> *
| 42>
| 43>                          ****END OF INPUT****

CARTESIAN COORDINATES (ANGSTROEM)
---------------------------------
  S     16.515100    9.052740   86.796300
  C     17.519200    7.590130   86.592700
  C     16.842300    6.399150   86.713200
  C     15.448800    6.697280   86.844800
  C     15.066100    8.042580   86.869200
  H     14.644200    6.061920   87.057900
  C     17.549400    5.079410   86.763800
  H     18.259200    5.246650   87.591100
  H     18.216700    4.933070   85.894400
  C     16.680600    3.911560   87.037400
  H     16.223600    3.927190   88.022800
  H     15.916400    3.997750   86.316600
  C     17.376700    2.503410   86.950100
  H     16.666300    1.705220   86.577900
  H     18.228300    2.524820   86.294100
  H     17.701200    2.104030   87.918800
  S     13.191100    9.810250   85.868300
  C     11.768900   10.188100   86.666700
  C     11.829400    9.668580   87.918000
  C     12.853600    8.714110   88.141200
  C     13.739200    8.629860   87.057600
  H     11.042400    9.906000   88.587600
  C     12.969400    7.918610   89.438200
  H     13.113000    6.858520   89.293700
  H     11.983200    7.979560   89.961300
  C     14.092800    8.455010   90.399200
  H     14.209100    9.528490   90.120800
  H     15.039100    8.058450   90.146800
  C     13.881000    8.321240   91.971000
  H     14.808300    8.295880   92.559900
  H     13.496600    7.361370   92.124200
  H     13.293600    9.145390   92.407400
  H     18.590200    7.643460   86.381100
  H     11.161300   10.901800   86.212600

 Total Charge           Charge          ....    0
 Multiplicity           Mult            ....    1
 Number of Electrons    NEL             ....  134
 Basis Dimension        Dim             ....  322

ORBITAL ENERGIES
----------------

  NO   OCC          E(Eh)            E(eV)
   0   2.0000     -88.966042     -2420.8891
   1   2.0000     -88.958406     -2420.6813
   2   2.0000     -10.331235      -281.1272
   3   2.0000     -10.327560      -281.0272
   4   2.0000     -10.313365      -280.6409
   5   2.0000     -10.308887      -280.5191
   6   2.0000     -10.307834      -280.4904
   7   2.0000     -10.302912      -280.3565
   8   2.0000     -10.295885      -280.1653
   9   2.0000     -10.294566      -280.1294
  10   2.0000     -10.292640      -280.0770
  11   2.0000     -10.288637      -279.9680
  12   2.0000     -10.285272      -279.8765
  13   2.0000     -10.284630      -279.8590
  14   2.0000     -10.284495      -279.8553
  15   2.0000     -10.277580      -279.6672
  16   2.0000      -8.079757      -219.8614
  17   2.0000      -8.075092      -219.7344
  18   2.0000      -6.038298      -164.3104
  19   2.0000      -6.034476      -164.2064
  20   2.0000      -6.033286      -164.1741
  21   2.0000      -6.030478      -164.0977
  22   2.0000      -6.029171      -164.0621
  23   2.0000      -6.026187      -163.9809
  24   2.0000      -1.010443       -27.4955
  25   2.0000      -0.985425       -26.8148
  26   2.0000      -0.919253       -25.0142
  27   2.0000      -0.899785       -24.4844
  28   2.0000      -0.870319       -23.6826
  29   2.0000      -0.846678       -23.0393
  30   2.0000      -0.841099       -22.8875
  31   2.0000      -0.816538       -22.2191
  32   2.0000      -0.785128       -21.3644
  33   2.0000      -0.775550       -21.1038
  34   2.0000      -0.717222       -19.5166
  35   2.0000      -0.699760       -19.0414
  36   2.0000      -0.687276       -18.7017
  37   2.0000      -0.663314       -18.0497
  38   2.0000      -0.645705       -17.5705
  39   2.0000      -0.617966       -16.8157
  40   2.0000      -0.604888       -16.4598
  41   2.0000      -0.577716       -15.7204
  42   2.0000      -0.568512       -15.4700
  43   2.0000      -0.549846       -14.9621
  44   2.0000      -0.530176       -14.4268
  45   2.0000      -0.524294       -14.2668
  46   2.0000      -0.516010       -14.0413
  47   2.0000      -0.509626       -13.8676
  48   2.0000      -0.503689       -13.7061
  49   2.0000      -0.497736       -13.5441
  50   2.0000      -0.489776       -13.3275
  51   2.0000      -0.482599       -13.1322
  52   2.0000      -0.473303       -12.8792
  53   2.0000      -0.469341       -12.7714
  54   2.0000      -0.458264       -12.4700
  55   2.0000      -0.451150       -12.2764
  56   2.0000      -0.443606       -12.0711
  57   2.0000      -0.439659       -11.9637
  58   2.0000      -0.424865       -11.5612
  59   2.0000      -0.424269       -11.5449
  60   2.0000      -0.421144       -11.4599
  61   2.0000      -0.417293       -11.3551
  62   2.0000      -0.410999       -11.1839
  63   2.0000      -0.337265        -9.1774
  64   2.0000      -0.332581        -9.0500
  65   2.0000      -0.327296        -8.9062
  66   2.0000      -0.296688        -8.0733
  67   0.0000       0.032879         0.8947
  68   0.0000       0.059102         1.6082
  69   0.0000       0.113291         3.0828
  70   0.0000       0.128768         3.5040
  71   0.0000       0.133764         3.6399

MULLIKEN ATOMIC CHARGES
-----------------------
   0 S :    0.114518
   1 C :   -0.142453
   2 C :   -0.061397
   3 C :    0.031317
   4 C :   -0.155156
   5 H :   -0.013840
   6 C :    0.065599
   7 H :    0.035247
   8 H :    0.039835
   9 C :   -0.070986
  10 H :    0.033718
  11 H :    0.028687
  12 C :   -0.051993
  13 H :    0.040241
  14 H :    0.025065
  15 H :    0.034994
  16 S :    0.094967
  17 C :   -0.062455
  18 C :   -0.025092
  19 C :   -0.033423
  20 C :   -0.177131
  21 H :    0.006068
  22 C :    0.073082
  23 H :    0.030962
  24 H :    0.022118
  25 C :   -0.084679
  26 H :    0.034171
  27 H :    0.027369
  28 C :   -0.045948
  29 H :    0.029964
  30 H :    0.019798
  31 H :    0.045414
  32 H :    0.046902
  33 H :    0.044516
Sum of atomic charges:    0.0000000

LOEWDIN ATOMIC CHARGES
----------------------
   0 S :    0.386591
   1 C :   -0.183677
   2 C :   -0.062277
   3 C :   -0.061358
   4 C :   -0.191992
   5 H :    0.020310
   6 C :   -0.037155
   7 H :    0.038556
   8 H :    0.037320
   9 C :   -0.041693
  10 H :    0.028900
  11 H :    0.020073
  12 C :   -0.065715
  13 H :    0.035152
  14 H :    0.019149
  15 H :    0.025646
  16 S :    0.436320
  17 C :   -0.188053
  18 C :   -0.075967
  19 C :   -0.050043
  20 C :   -0.205897
  21 H :    0.025297
  22 C :   -0.032354
  23 H :    0.027858
  24 H :    0.033444
  25 C :   -0.038764
  26 H :    0.027198
  27 H :    0.018380
  28 C :   -0.067032
  29 H :    0.030185
  30 H :    0.015931
  31 H :    0.029463
  32 H :    0.026827
  33 H :    0.019378

  Mayer bond orders larger than 0.100000
B(  0-S ,  1-C ) :   1.1413 B(  0-S ,  4-C ) :   1.1376 B(  1-C ,  2-C ) :   1.6246
B(  1-C ,  4-C ) :   0.1039 B(  1-C , 32-H ) :   0.9662 B(  2-C ,  3-C ) :   1.2223
B(  2-C ,  6-C ) :   1.0007 B(  3-C ,  4-C ) :   1.5919 B(  3-C ,  5-H ) :   1.0025
B(  4-C , 20-C ) :   1.0438 B(  6-C ,  7-H ) :   0.9336 B(  6-C ,  8-H ) :   0.9309
B(  6-C ,  9-C ) :   1.0977 B(  9-C , 10-H ) :   0.9516 B(  9-C , 11-H ) :   0.9515
B(  9-C , 12-C ) :   1.0709 B( 12-C , 13-H ) :   0.9766 B( 12-C , 14-H ) :   0.9783
B( 12-C , 15-H ) :   0.9784 B( 16-S , 17-C ) :   1.1993 B( 16-S , 20-C ) :   1.1609
B( 17-C , 18-C ) :   1.5415 B( 17-C , 20-C ) :   0.1050 B( 17-C , 33-H ) :   0.9814
B( 18-C , 19-C ) :   1.2832 B( 18-C , 21-H ) :   0.9989 B( 19-C , 20-C ) :   1.5386
B( 19-C , 22-C ) :   1.0479 B( 22-C , 23-H ) :   0.9387 B( 22-C , 24-H ) :   0.9398
B( 22-C , 25-C ) :   1.0355 B( 25-C , 26-H ) :   0.9661 B( 25-C , 27-H ) :   0.9592
B( 25-C , 28-C ) :   1.0704 B( 28-C , 29-H ) :   0.9761 B( 28-C , 30-H ) :   0.9770
B( 28-C , 31-H ) :   0.9796

Dispersion correction           -0.013946133
FINAL SINGLE POINT ENERGY     -1339.865508626423

DIPOLE MOMENT
-------------
                                X             Y             Z
Electronic contribution:     -4.80152      22.05289     -17.21738
Nuclear contribution   :      4.82152     -22.49140      17.65359
                        -----------------------------------------
Total Dipole Moment    :      0.02000      -0.43852       0.43622
                        -----------------------------------------
Magnitude (a.u.)       :      0.61886
Magnitude (Debye)      :      1.57301

Rotational constants in cm-1:     0.017681     0.008102     0.006805
Rotational constants in MHz :   530.073887   242.883017   204.003923

                             ****ORCA TERMINATED NORMALLY****
TOTAL RUN TIME: 0 days 0 hours 0 minutes 34 seconds 830 msec
