                         Program Version 4.2.1 -  RELEASE  -
|  1> ! wB97X-D3 SP def2-SVP
|  2> %pal
|  3> nprocs 16
|  4> end
|  5>
|  6> * xyz 0 1
|  7> S 	 -10.9866 	 33.7914 	 36.2258
|  8> C 	 -9.75569 	 33.6607 	 34.9787
|  9> C 	 -9.64745 	 34.827 	 34.2193
| 10> C 	 -10.4354 	 35.815 	 34.8049
| 11> C 	 -11.2009 	 35.4469 	 35.8964
| 12> H 	 -10.4453 	 36.7917 	 34.4151
| 13> C 	 -8.90597 	 34.9645 	 32.8729
| 14> H 	 -9.59254 	 35.5212 	 32.1812
| 15> H 	 -8.74706 	 33.9445 	 32.4761
| 16> C 	 -7.54172 	 35.7658 	 32.9213
| 17> H 	 -7.77031 	 36.8018 	 32.9864
| 18> H 	 -6.99697 	 35.4572 	 33.815
| 19> C 	 -6.78846 	 35.7639 	 31.5632
| 20> H 	 -5.94774 	 36.5556 	 31.551
| 21> H 	 -6.39014 	 34.7678 	 31.2724
| 22> H 	 -7.51979 	 35.9999 	 30.759
| 23> S 	 -11.274 	 37.4846 	 37.7778
| 24> C 	 -12.7294 	 37.8927 	 38.6006
| 25> C 	 -13.7457 	 37.0841 	 38.147
| 26> C 	 -13.3891 	 36.1655 	 37.0913
| 27> C 	 -12.0515 	 36.1967 	 36.8437
| 28> H 	 -14.7197 	 37.4347 	 38.5617
| 29> C 	 -14.308 	 35.386 	 36.1803
| 30> H 	 -15.2648 	 35.2553 	 36.7476
| 31> H 	 -13.9338 	 34.3538 	 36.1946
| 32> C 	 -14.7318 	 36.013 	 34.8121
| 33> H 	 -15.2919 	 35.2926 	 34.154
| 34> H 	 -13.8348 	 36.2578 	 34.2455
| 35> C 	 -15.5976 	 37.232 	 34.8781
| 36> H 	 -16.5607 	 37.0564 	 35.2632
| 37> H 	 -15.7401 	 37.5662 	 33.8598
| 38> H 	 -15.118 	 37.9509 	 35.5133
| 39> H 	 -9.47661 	 32.6833 	 34.5692
| 40> H 	 -12.8718 	 38.5301 	 39.4874
| 41> *
| 42>
| 43>                          ****END OF INPUT****

CARTESIAN COORDINATES (ANGSTROEM)
---------------------------------
  S    -10.986600   33.791400   36.225800
  C     -9.755690   33.660700   34.978700
  C     -9.647450   34.827000   34.219300
  C    -10.435400   35.815000   34.804900
  C    -11.200900   35.446900   35.896400
  H    -10.445300   36.791700   34.415100
  C     -8.905970   34.964500   32.872900
  H     -9.592540   35.521200   32.181200
  H     -8.747060   33.944500   32.476100
  C     -7.541720   35.765800   32.921300
  H     -7.770310   36.801800   32.986400
  H     -6.996970   35.457200   33.815000
  C     -6.788460   35.763900   31.563200
  H     -5.947740   36.555600   31.551000
  H     -6.390140   34.767800   31.272400
  H     -7.519790   35.999900   30.759000
  S    -11.274000   37.484600   37.777800
  C    -12.729400   37.892700   38.600600
  C    -13.745700   37.084100   38.147000
  C    -13.389100   36.165500   37.091300
  C    -12.051500   36.196700   36.843700
  H    -14.719700   37.434700   38.561700
  C    -14.308000   35.386000   36.180300
  H    -15.264800   35.255300   36.747600
  H    -13.933800   34.353800   36.194600
  C    -14.731800   36.013000   34.812100
  H    -15.291900   35.292600   34.154000
  H    -13.834800   36.257800   34.245500
  C    -15.597600   37.232000   34.878100
  H    -16.560700   37.056400   35.263200
  H    -15.740100   37.566200   33.859800
  H    -15.118000   37.950900   35.513300
  H     -9.476610   32.683300   34.569200
  H    -12.871800   38.530100   39.487400

 Total Charge           Charge          ....    0
 Multiplicity           Mult            ....    1
 Number of Electrons    NEL             ....  134
 Basis Dimension        Dim             ....  322

ORBITAL ENERGIES
----------------

  NO   OCC          E(Eh)            E(eV)
   0   2.0000     -88.966992     -2420.9149
   1   2.0000     -88.962820     -2420.8014
   2   2.0000     -10.329049      -281.0677
   3   2.0000     -10.326952      -281.0106
   4   2.0000     -10.316347      -280.7221
   5   2.0000     -10.314146      -280.6622
   6   2.0000     -10.306159      -280.4448
   7   2.0000     -10.305229      -280.4195
   8   2.0000     -10.302658      -280.3496
   9   2.0000     -10.296759      -280.1891
  10   2.0000     -10.294334      -280.1231
  11   2.0000     -10.293283      -280.0945
  12   2.0000     -10.290306      -280.0135
  13   2.0000     -10.289227      -279.9841
  14   2.0000     -10.287339      -279.9327
  15   2.0000     -10.266022      -279.3527
  16   2.0000      -8.082355      -219.9321
  17   2.0000      -8.077833      -219.8090
  18   2.0000      -6.040647      -164.3744
  19   2.0000      -6.036715      -164.2674
  20   2.0000      -6.036333      -164.2570
  21   2.0000      -6.033367      -164.1763
  22   2.0000      -6.032160      -164.1434
  23   2.0000      -6.028709      -164.0495
  24   2.0000      -1.012437       -27.5498
  25   2.0000      -0.989590       -26.9281
  26   2.0000      -0.908671       -24.7262
  27   2.0000      -0.904943       -24.6247
  28   2.0000      -0.869865       -23.6702
  29   2.0000      -0.851608       -23.1734
  30   2.0000      -0.849269       -23.1098
  31   2.0000      -0.813605       -22.1393
  32   2.0000      -0.783413       -21.3178
  33   2.0000      -0.771821       -21.0023
  34   2.0000      -0.707169       -19.2431
  35   2.0000      -0.697422       -18.9778
  36   2.0000      -0.688209       -18.7271
  37   2.0000      -0.659007       -17.9325
  38   2.0000      -0.640454       -17.4276
  39   2.0000      -0.624612       -16.9966
  40   2.0000      -0.584941       -15.9170
  41   2.0000      -0.572556       -15.5800
  42   2.0000      -0.561525       -15.2799
  43   2.0000      -0.556207       -15.1352
  44   2.0000      -0.545963       -14.8564
  45   2.0000      -0.523676       -14.2500
  46   2.0000      -0.516953       -14.0670
  47   2.0000      -0.505678       -13.7602
  48   2.0000      -0.502657       -13.6780
  49   2.0000      -0.498143       -13.5552
  50   2.0000      -0.483087       -13.1455
  51   2.0000      -0.480242       -13.0681
  52   2.0000      -0.471424       -12.8281
  53   2.0000      -0.462128       -12.5751
  54   2.0000      -0.461813       -12.5666
  55   2.0000      -0.451220       -12.2783
  56   2.0000      -0.442741       -12.0476
  57   2.0000      -0.433868       -11.8061
  58   2.0000      -0.429464       -11.6863
  59   2.0000      -0.425994       -11.5919
  60   2.0000      -0.422789       -11.5047
  61   2.0000      -0.417668       -11.3653
  62   2.0000      -0.408961       -11.1284
  63   2.0000      -0.339588        -9.2407
  64   2.0000      -0.335286        -9.1236
  65   2.0000      -0.329292        -8.9605
  66   2.0000      -0.302407        -8.2289
  67   0.0000       0.034889         0.9494
  68   0.0000       0.063188         1.7194
  69   0.0000       0.102584         2.7914
  70   0.0000       0.126667         3.4468
  71   0.0000       0.130031         3.5383

MULLIKEN ATOMIC CHARGES
-----------------------
   0 S :    0.120595
   1 C :   -0.125009
   2 C :   -0.096594
   3 C :    0.052929
   4 C :   -0.161960
   5 H :   -0.017072
   6 C :    0.032488
   7 H :    0.038759
   8 H :    0.029213
   9 C :   -0.058872
  10 H :    0.024549
  11 H :    0.045827
  12 C :   -0.087392
  13 H :    0.055811
  14 H :    0.036601
  15 H :    0.032329
  16 S :    0.113855
  17 C :   -0.108997
  18 C :   -0.068699
  19 C :   -0.038064
  20 C :   -0.156308
  21 H :    0.032283
  22 C :    0.081131
  23 H :    0.013544
  24 H :    0.027932
  25 C :   -0.064446
  26 H :    0.032281
  27 H :    0.028145
  28 C :   -0.014729
  29 H :    0.013155
  30 H :    0.029545
  31 H :    0.032115
  32 H :    0.053998
  33 H :    0.071057
Sum of atomic charges:   -0.0000000

LOEWDIN ATOMIC CHARGES
----------------------
   0 S :    0.439820
   1 C :   -0.203373
   2 C :   -0.063496
   3 C :   -0.062836
   4 C :   -0.206187
   5 H :    0.021824
   6 C :   -0.028169
   7 H :    0.035998
   8 H :    0.030105
   9 C :   -0.040833
  10 H :    0.021656
  11 H :    0.026687
  12 C :   -0.074435
  13 H :    0.037237
  14 H :    0.022516
  15 H :    0.027852
  16 S :    0.408476
  17 C :   -0.202065
  18 C :   -0.085325
  19 C :   -0.065342
  20 C :   -0.193785
  21 H :    0.038373
  22 C :   -0.041029
  23 H :    0.031698
  24 H :    0.031052
  25 C :   -0.038393
  26 H :    0.030332
  27 H :    0.022437
  28 C :   -0.057205
  29 H :    0.015959
  30 H :    0.029616
  31 H :    0.023798
  32 H :    0.025893
  33 H :    0.041143

  Mayer bond orders larger than 0.100000
B(  0-S ,  1-C ) :   1.1620 B(  0-S ,  4-C ) :   1.1903 B(  1-C ,  2-C ) :   1.5831
B(  1-C ,  4-C ) :   0.1089 B(  1-C , 32-H ) :   0.9576 B(  2-C ,  3-C ) :   1.2849
B(  2-C ,  6-C ) :   1.0157 B(  3-C ,  4-C ) :   1.5455 B(  3-C ,  5-H ) :   1.0107
B(  4-C , 20-C ) :   0.9892 B(  6-C ,  7-H ) :   0.9423 B(  6-C ,  8-H ) :   0.9478
B(  6-C ,  9-C ) :   1.0532 B(  9-C , 10-H ) :   0.9559 B(  9-C , 11-H ) :   0.9620
B(  9-C , 12-C ) :   1.0679 B( 12-C , 13-H ) :   0.9760 B( 12-C , 14-H ) :   0.9777
B( 12-C , 15-H ) :   0.9709 B( 16-S , 17-C ) :   1.1551 B( 16-S , 20-C ) :   1.1429
B( 17-C , 18-C ) :   1.6406 B( 17-C , 33-H ) :   0.9592 B( 18-C , 19-C ) :   1.2108
B( 18-C , 21-H ) :   0.9834 B( 19-C , 20-C ) :   1.6128 B( 19-C , 22-C ) :   1.0514
B( 22-C , 23-H ) :   0.9316 B( 22-C , 24-H ) :   0.9220 B( 22-C , 25-C ) :   1.0528
B( 25-C , 26-H ) :   0.9549 B( 25-C , 27-H ) :   0.9589 B( 25-C , 28-C ) :   1.0867
B( 28-C , 29-H ) :   0.9717 B( 28-C , 30-H ) :   0.9693 B( 28-C , 31-H ) :   0.9757

Dispersion correction           -0.014336096
FINAL SINGLE POINT ENERGY     -1339.874941855493

DIPOLE MOMENT
-------------
                                X             Y             Z
Electronic contribution:      0.84396      -3.07241      21.72064
Nuclear contribution   :     -1.07564       3.21488     -22.21676
                        -----------------------------------------
Total Dipole Moment    :     -0.23168       0.14247      -0.49612
                        -----------------------------------------
Magnitude (a.u.)       :      0.56578
Magnitude (Debye)      :      1.43810

Rotational constants in cm-1:     0.021030     0.007246     0.006806
Rotational constants in MHz :   630.477158   217.226120   204.042854

                             ****ORCA TERMINATED NORMALLY****
TOTAL RUN TIME: 0 days 0 hours 0 minutes 35 seconds 129 msec
