                         Program Version 4.2.1 -  RELEASE  -
|  1> ! wB97X-D3 SP def2-SVP
|  2> %pal
|  3> nprocs 16
|  4> end
|  5>
|  6> * xyz 0 1
|  7> S 	 5.89961 	 -11.8432 	 70.9918
|  8> C 	 4.47745 	 -11.0462 	 70.3815
|  9> C 	 4.57179 	 -10.8949 	 69.0181
| 10> C 	 5.91319 	 -11.1234 	 68.511
| 11> C 	 6.67586 	 -11.7771 	 69.471
| 12> H 	 6.29915 	 -11.0169 	 67.4988
| 13> C 	 3.41557 	 -10.3302 	 68.1728
| 14> H 	 2.70287 	 -9.90336 	 68.8343
| 15> H 	 2.84572 	 -11.1468 	 67.7044
| 16> C 	 3.74736 	 -9.26489 	 67.1671
| 17> H 	 4.4293 	 -9.66767 	 66.4642
| 18> H 	 2.79016 	 -9.05483 	 66.6867
| 19> C 	 4.30357 	 -8.02819 	 67.8171
| 20> H 	 5.05443 	 -8.19269 	 68.6059
| 21> H 	 4.79205 	 -7.38805 	 67.1023
| 22> H 	 3.55655 	 -7.43761 	 68.3412
| 23> S 	 9.14053 	 -11.3029 	 68.4443
| 24> C 	 10.352 	 -12.6397 	 68.2659
| 25> C 	 9.81919 	 -13.8479 	 68.8637
| 26> C 	 8.47318 	 -13.6775 	 69.2828
| 27> C 	 7.98829 	 -12.3595 	 69.227
| 28> H 	 10.3117 	 -14.8055 	 68.6675
| 29> C 	 7.64106 	 -14.8455 	 69.7366
| 30> H 	 7.49987 	 -14.6027 	 70.7958
| 31> H 	 8.24937 	 -15.7303 	 69.8211
| 32> C 	 6.32097 	 -15.2058 	 69.0069
| 33> H 	 5.68642 	 -14.2717 	 68.8378
| 34> H 	 5.69698 	 -15.8962 	 69.5636
| 35> C 	 6.59227 	 -15.5399 	 67.5596
| 36> H 	 7.15324 	 -14.6741 	 67.0933
| 37> H 	 5.65164 	 -15.5947 	 66.9761
| 38> H 	 7.2599 	 -16.3739 	 67.47
| 39> H 	 3.57966 	 -10.8039 	 70.9217
| 40> H 	 11.2267 	 -12.5939 	 67.7548
| 41> *
| 42>
| 43>                          ****END OF INPUT****

CARTESIAN COORDINATES (ANGSTROEM)
---------------------------------
  S      5.899610  -11.843200   70.991800
  C      4.477450  -11.046200   70.381500
  C      4.571790  -10.894900   69.018100
  C      5.913190  -11.123400   68.511000
  C      6.675860  -11.777100   69.471000
  H      6.299150  -11.016900   67.498800
  C      3.415570  -10.330200   68.172800
  H      2.702870   -9.903360   68.834300
  H      2.845720  -11.146800   67.704400
  C      3.747360   -9.264890   67.167100
  H      4.429300   -9.667670   66.464200
  H      2.790160   -9.054830   66.686700
  C      4.303570   -8.028190   67.817100
  H      5.054430   -8.192690   68.605900
  H      4.792050   -7.388050   67.102300
  H      3.556550   -7.437610   68.341200
  S      9.140530  -11.302900   68.444300
  C     10.352000  -12.639700   68.265900
  C      9.819190  -13.847900   68.863700
  C      8.473180  -13.677500   69.282800
  C      7.988290  -12.359500   69.227000
  H     10.311700  -14.805500   68.667500
  C      7.641060  -14.845500   69.736600
  H      7.499870  -14.602700   70.795800
  H      8.249370  -15.730300   69.821100
  C      6.320970  -15.205800   69.006900
  H      5.686420  -14.271700   68.837800
  H      5.696980  -15.896200   69.563600
  C      6.592270  -15.539900   67.559600
  H      7.153240  -14.674100   67.093300
  H      5.651640  -15.594700   66.976100
  H      7.259900  -16.373900   67.470000
  H      3.579660  -10.803900   70.921700
  H     11.226700  -12.593900   67.754800

 Total Charge           Charge          ....    0
 Multiplicity           Mult            ....    1
 Number of Electrons    NEL             ....  134
 Basis Dimension        Dim             ....  322

ORBITAL ENERGIES
----------------

  NO   OCC          E(Eh)            E(eV)
   0   2.0000     -88.970540     -2421.0115
   1   2.0000     -88.968262     -2420.9495
   2   2.0000     -10.329778      -281.0875
   3   2.0000     -10.327416      -281.0233
   4   2.0000     -10.323136      -280.9068
   5   2.0000     -10.311905      -280.6012
   6   2.0000     -10.305784      -280.4346
   7   2.0000     -10.304704      -280.4053
   8   2.0000     -10.303419      -280.3703
   9   2.0000     -10.298578      -280.2386
  10   2.0000     -10.287298      -279.9316
  11   2.0000     -10.287202      -279.9290
  12   2.0000     -10.285831      -279.8917
  13   2.0000     -10.280439      -279.7450
  14   2.0000     -10.273921      -279.5676
  15   2.0000     -10.270539      -279.4756
  16   2.0000      -8.083676      -219.9680
  17   2.0000      -8.083544      -219.9644
  18   2.0000      -6.042230      -164.4174
  19   2.0000      -6.042006      -164.4113
  20   2.0000      -6.038213      -164.3081
  21   2.0000      -6.037938      -164.3006
  22   2.0000      -6.034689      -164.2122
  23   2.0000      -6.034347      -164.2029
  24   2.0000      -1.008983       -27.4558
  25   2.0000      -0.979184       -26.6449
  26   2.0000      -0.918583       -24.9959
  27   2.0000      -0.905653       -24.6441
  28   2.0000      -0.870488       -23.6872
  29   2.0000      -0.850154       -23.1339
  30   2.0000      -0.842661       -22.9300
  31   2.0000      -0.813035       -22.1238
  32   2.0000      -0.784936       -21.3592
  33   2.0000      -0.770785       -20.9741
  34   2.0000      -0.712710       -19.3938
  35   2.0000      -0.694587       -18.9007
  36   2.0000      -0.685265       -18.6470
  37   2.0000      -0.673121       -18.3166
  38   2.0000      -0.640314       -17.4238
  39   2.0000      -0.619397       -16.8547
  40   2.0000      -0.587367       -15.9831
  41   2.0000      -0.570424       -15.5220
  42   2.0000      -0.557242       -15.1633
  43   2.0000      -0.552733       -15.0406
  44   2.0000      -0.545970       -14.8566
  45   2.0000      -0.539028       -14.6677
  46   2.0000      -0.520843       -14.1729
  47   2.0000      -0.514798       -14.0084
  48   2.0000      -0.504957       -13.7406
  49   2.0000      -0.496700       -13.5159
  50   2.0000      -0.483844       -13.1661
  51   2.0000      -0.480724       -13.0812
  52   2.0000      -0.470620       -12.8062
  53   2.0000      -0.467823       -12.7301
  54   2.0000      -0.455328       -12.3901
  55   2.0000      -0.448898       -12.2151
  56   2.0000      -0.436318       -11.8728
  57   2.0000      -0.435083       -11.8392
  58   2.0000      -0.428619       -11.6633
  59   2.0000      -0.426712       -11.6114
  60   2.0000      -0.423338       -11.5196
  61   2.0000      -0.415321       -11.3015
  62   2.0000      -0.402655       -10.9568
  63   2.0000      -0.343107        -9.3364
  64   2.0000      -0.333340        -9.0706
  65   2.0000      -0.329598        -8.9688
  66   2.0000      -0.289492        -7.8775
  67   0.0000       0.024982         0.6798
  68   0.0000       0.067907         1.8478
  69   0.0000       0.103556         2.8179
  70   0.0000       0.125357         3.4111
  71   0.0000       0.127283         3.4635

MULLIKEN ATOMIC CHARGES
-----------------------
   0 S :    0.130111
   1 C :   -0.114418
   2 C :   -0.107708
   3 C :    0.018753
   4 C :   -0.161898
   5 H :    0.024723
   6 C :    0.073474
   7 H :   -0.005077
   8 H :    0.038171
   9 C :   -0.040593
  10 H :    0.023374
  11 H :    0.030468
  12 C :   -0.053683
  13 H :    0.038906
  14 H :    0.028207
  15 H :    0.021135
  16 S :    0.105150
  17 C :   -0.079645
  18 C :   -0.026351
  19 C :   -0.071450
  20 C :   -0.146409
  21 H :    0.036454
  22 C :    0.066437
  23 H :    0.034373
  24 H :    0.005550
  25 C :   -0.058607
  26 H :    0.045121
  27 H :    0.034356
  28 C :   -0.064462
  29 H :    0.041694
  30 H :    0.041586
  31 H :    0.019888
  32 H :    0.045653
  33 H :    0.026716
Sum of atomic charges:   -0.0000000

LOEWDIN ATOMIC CHARGES
----------------------
   0 S :    0.433729
   1 C :   -0.204832
   2 C :   -0.056568
   3 C :   -0.070186
   4 C :   -0.207430
   5 H :    0.031076
   6 C :   -0.031186
   7 H :    0.021225
   8 H :    0.034450
   9 C :   -0.038936
  10 H :    0.017341
  11 H :    0.031240
  12 C :   -0.067855
  13 H :    0.030291
  14 H :    0.024513
  15 H :    0.024291
  16 S :    0.403094
  17 C :   -0.157109
  18 C :   -0.065586
  19 C :   -0.060415
  20 C :   -0.203956
  21 H :    0.036399
  22 C :   -0.039883
  23 H :    0.035121
  24 H :    0.025365
  25 C :   -0.044984
  26 H :    0.036076
  27 H :    0.023269
  28 C :   -0.070089
  29 H :    0.034250
  30 H :    0.029337
  31 H :    0.013486
  32 H :    0.028578
  33 H :    0.005886

  Mayer bond orders larger than 0.100000
B(  0-S ,  1-C ) :   1.1283 B(  0-S ,  4-C ) :   1.1750 B(  1-C ,  2-C ) :   1.6271
B(  1-C , 32-H ) :   0.9687 B(  2-C ,  3-C ) :   1.2247 B(  2-C ,  6-C ) :   1.0179
B(  3-C ,  4-C ) :   1.5648 B(  3-C ,  5-H ) :   0.9879 B(  4-C , 20-C ) :   1.0210
B(  6-C ,  7-H ) :   0.9396 B(  6-C ,  8-H ) :   0.9308 B(  6-C ,  9-C ) :   1.0865
B(  9-C , 10-H ) :   0.9514 B(  9-C , 11-H ) :   0.9491 B(  9-C , 12-C ) :   1.0813
B( 12-C , 13-H ) :   0.9744 B( 12-C , 14-H ) :   0.9739 B( 12-C , 15-H ) :   0.9719
B( 16-S , 17-C ) :   1.1645 B( 16-S , 20-C ) :   1.1458 B( 17-C , 18-C ) :   1.5652
B( 17-C , 20-C ) :   0.1157 B( 17-C , 33-H ) :   0.9816 B( 18-C , 19-C ) :   1.2849
B( 18-C , 21-H ) :   0.9771 B( 19-C , 20-C ) :   1.5533 B( 19-C , 22-C ) :   1.0310
B( 22-C , 23-H ) :   0.9296 B( 22-C , 24-H ) :   0.9351 B( 22-C , 25-C ) :   1.0580
B( 25-C , 26-H ) :   0.9565 B( 25-C , 27-H ) :   0.9572 B( 25-C , 28-C ) :   1.0644
B( 28-C , 29-H ) :   0.9719 B( 28-C , 30-H ) :   0.9743 B( 28-C , 31-H ) :   0.9767

Dispersion correction           -0.015936146
FINAL SINGLE POINT ENERGY     -1339.871310215662

DIPOLE MOMENT
-------------
                                X             Y             Z
Electronic contribution:     14.13688       2.34146      11.13485
Nuclear contribution   :    -14.51475      -2.52746     -11.48955
                        -----------------------------------------
Total Dipole Moment    :     -0.37787      -0.18600      -0.35470
                        -----------------------------------------
Magnitude (a.u.)       :      0.55063
Magnitude (Debye)      :      1.39958

Rotational constants in cm-1:     0.020340     0.009103     0.007979
Rotational constants in MHz :   609.765189   272.899242   239.195788

                             ****ORCA TERMINATED NORMALLY****
TOTAL RUN TIME: 0 days 0 hours 0 minutes 30 seconds 599 msec
