                         Program Version 4.2.1 -  RELEASE  -
|  1> ! wB97X-D3 SP def2-SVP
|  2> %pal
|  3> nprocs 16
|  4> end
|  5>
|  6> * xyz 0 1
|  7> S 	 47.4333 	 16.9348 	 78.8488
|  8> C 	 47.0776 	 17.0641 	 80.5253
|  9> C 	 47.8956 	 16.2575 	 81.3231
| 10> C 	 48.8673 	 15.5748 	 80.4431
| 11> C 	 48.6282 	 15.7179 	 79.0931
| 12> H 	 49.6492 	 14.9544 	 80.8806
| 13> C 	 47.9486 	 16.2467 	 82.8951
| 14> H 	 48.9187 	 15.8584 	 83.2582
| 15> H 	 47.1413 	 15.6093 	 83.317
| 16> C 	 47.8234 	 17.6545 	 83.5334
| 17> H 	 46.9964 	 18.1797 	 83.065
| 18> H 	 47.566 	 17.4746 	 84.5342
| 19> C 	 49.179 	 18.4134 	 83.4335
| 20> H 	 49.9293 	 17.7958 	 83.957
| 21> H 	 49.4898 	 18.5419 	 82.3663
| 22> H 	 49.0887 	 19.4106 	 83.9398
| 23> S 	 48.8441 	 14.7258 	 76.5208
| 24> C 	 50.3169 	 14.8682 	 75.7368
| 25> C 	 51.3379 	 15.2211 	 76.5735
| 26> C 	 50.8823 	 15.5778 	 77.886
| 27> C 	 49.5045 	 15.4245 	 78.0377
| 28> H 	 52.308 	 15.2746 	 76.1328
| 29> C 	 51.8692 	 16.1497 	 78.8041
| 30> H 	 51.3549 	 16.3251 	 79.7606
| 31> H 	 52.1813 	 17.1252 	 78.3273
| 32> C 	 53.093 	 15.2418 	 79.1065
| 33> H 	 53.9154 	 15.824 	 79.5147
| 34> H 	 53.4882 	 14.9405 	 78.1402
| 35> C 	 52.6271 	 13.9869 	 79.9163
| 36> H 	 52.2248 	 13.3515 	 79.0635
| 37> H 	 51.9795 	 14.384 	 80.7539
| 38> H 	 53.4127 	 13.3907 	 80.3608
| 39> H 	 46.3874 	 17.8315 	 80.9386
| 40> H 	 50.6228 	 14.3529 	 74.845
| 41> *
| 42>
| 43>                          ****END OF INPUT****

CARTESIAN COORDINATES (ANGSTROEM)
---------------------------------
  S     47.433300   16.934800   78.848800
  C     47.077600   17.064100   80.525300
  C     47.895600   16.257500   81.323100
  C     48.867300   15.574800   80.443100
  C     48.628200   15.717900   79.093100
  H     49.649200   14.954400   80.880600
  C     47.948600   16.246700   82.895100
  H     48.918700   15.858400   83.258200
  H     47.141300   15.609300   83.317000
  C     47.823400   17.654500   83.533400
  H     46.996400   18.179700   83.065000
  H     47.566000   17.474600   84.534200
  C     49.179000   18.413400   83.433500
  H     49.929300   17.795800   83.957000
  H     49.489800   18.541900   82.366300
  H     49.088700   19.410600   83.939800
  S     48.844100   14.725800   76.520800
  C     50.316900   14.868200   75.736800
  C     51.337900   15.221100   76.573500
  C     50.882300   15.577800   77.886000
  C     49.504500   15.424500   78.037700
  H     52.308000   15.274600   76.132800
  C     51.869200   16.149700   78.804100
  H     51.354900   16.325100   79.760600
  H     52.181300   17.125200   78.327300
  C     53.093000   15.241800   79.106500
  H     53.915400   15.824000   79.514700
  H     53.488200   14.940500   78.140200
  C     52.627100   13.986900   79.916300
  H     52.224800   13.351500   79.063500
  H     51.979500   14.384000   80.753900
  H     53.412700   13.390700   80.360800
  H     46.387400   17.831500   80.938600
  H     50.622800   14.352900   74.845000

 Total Charge           Charge          ....    0
 Multiplicity           Mult            ....    1
 Number of Electrons    NEL             ....  134
 Basis Dimension        Dim             ....  322

ORBITAL ENERGIES
----------------

  NO   OCC          E(Eh)            E(eV)
   0   2.0000     -88.964984     -2420.8603
   1   2.0000     -88.961501     -2420.7655
   2   2.0000     -10.324507      -280.9441
   3   2.0000     -10.322215      -280.8818
   4   2.0000     -10.317754      -280.7604
   5   2.0000     -10.310043      -280.5505
   6   2.0000     -10.306147      -280.4445
   7   2.0000     -10.303471      -280.3717
   8   2.0000     -10.300819      -280.2995
   9   2.0000     -10.299589      -280.2661
  10   2.0000     -10.290990      -280.0321
  11   2.0000     -10.289217      -279.9838
  12   2.0000     -10.288738      -279.9708
  13   2.0000     -10.287186      -279.9286
  14   2.0000     -10.285966      -279.8954
  15   2.0000     -10.285385      -279.8796
  16   2.0000      -8.080903      -219.8925
  17   2.0000      -8.077236      -219.7928
  18   2.0000      -6.039336      -164.3387
  19   2.0000      -6.035655      -164.2385
  20   2.0000      -6.035215      -164.2265
  21   2.0000      -6.031653      -164.1296
  22   2.0000      -6.031609      -164.1284
  23   2.0000      -6.028013      -164.0306
  24   2.0000      -1.012409       -27.5491
  25   2.0000      -0.987441       -26.8696
  26   2.0000      -0.913407       -24.8551
  27   2.0000      -0.909856       -24.7585
  28   2.0000      -0.874699       -23.8018
  29   2.0000      -0.847501       -23.0617
  30   2.0000      -0.841090       -22.8872
  31   2.0000      -0.810362       -22.0511
  32   2.0000      -0.780376       -21.2351
  33   2.0000      -0.769579       -20.9413
  34   2.0000      -0.710500       -19.3337
  35   2.0000      -0.703767       -19.1505
  36   2.0000      -0.693880       -18.8814
  37   2.0000      -0.656892       -17.8749
  38   2.0000      -0.636670       -17.3247
  39   2.0000      -0.616447       -16.7744
  40   2.0000      -0.594526       -16.1779
  41   2.0000      -0.578950       -15.7540
  42   2.0000      -0.558593       -15.2001
  43   2.0000      -0.549916       -14.9640
  44   2.0000      -0.545728       -14.8500
  45   2.0000      -0.535323       -14.5669
  46   2.0000      -0.519597       -14.1389
  47   2.0000      -0.503685       -13.7060
  48   2.0000      -0.503018       -13.6878
  49   2.0000      -0.495573       -13.4852
  50   2.0000      -0.484066       -13.1721
  51   2.0000      -0.474425       -12.9098
  52   2.0000      -0.470991       -12.8163
  53   2.0000      -0.464479       -12.6391
  54   2.0000      -0.459306       -12.4983
  55   2.0000      -0.445280       -12.1167
  56   2.0000      -0.441766       -12.0211
  57   2.0000      -0.434807       -11.8317
  58   2.0000      -0.433563       -11.7979
  59   2.0000      -0.426938       -11.6176
  60   2.0000      -0.423861       -11.5339
  61   2.0000      -0.418037       -11.3754
  62   2.0000      -0.414036       -11.2665
  63   2.0000      -0.349561        -9.5120
  64   2.0000      -0.330347        -8.9892
  65   2.0000      -0.325265        -8.8509
  66   2.0000      -0.291103        -7.9213
  67   0.0000       0.032785         0.8921
  68   0.0000       0.066799         1.8177
  69   0.0000       0.112244         3.0543
  70   0.0000       0.116691         3.1753
  71   0.0000       0.129580         3.5261

MULLIKEN ATOMIC CHARGES
-----------------------
   0 S :    0.122080
   1 C :   -0.143189
   2 C :   -0.097554
   3 C :   -0.003948
   4 C :   -0.107500
   5 H :    0.010599
   6 C :    0.032663
   7 H :    0.020084
   8 H :    0.052118
   9 C :   -0.054815
  10 H :    0.024096
  11 H :    0.017282
  12 C :   -0.080584
  13 H :    0.031457
  14 H :    0.054348
  15 H :    0.048301
  16 S :    0.108087
  17 C :   -0.058443
  18 C :   -0.083048
  19 C :   -0.021309
  20 C :   -0.167962
  21 H :    0.016005
  22 C :    0.046104
  23 H :    0.013514
  24 H :    0.052798
  25 C :   -0.068296
  26 H :    0.027464
  27 H :    0.014584
  28 C :   -0.079666
  29 H :    0.066103
  30 H :    0.050126
  31 H :    0.036700
  32 H :    0.066917
  33 H :    0.054883
Sum of atomic charges:   -0.0000000

LOEWDIN ATOMIC CHARGES
----------------------
   0 S :    0.439472
   1 C :   -0.212514
   2 C :   -0.065157
   3 C :   -0.058243
   4 C :   -0.215411
   5 H :    0.027643
   6 C :   -0.029937
   7 H :    0.027539
   8 H :    0.037143
   9 C :   -0.036706
  10 H :    0.018467
  11 H :    0.017060
  12 C :   -0.069104
  13 H :    0.024369
  14 H :    0.032354
  15 H :    0.031032
  16 S :    0.413183
  17 C :   -0.206452
  18 C :   -0.077350
  19 C :   -0.052282
  20 C :   -0.194497
  21 H :    0.027306
  22 C :   -0.035839
  23 H :    0.025232
  24 H :    0.044222
  25 C :   -0.039289
  26 H :    0.020142
  27 H :    0.015803
  28 C :   -0.073140
  29 H :    0.045605
  30 H :    0.031430
  31 H :    0.022665
  32 H :    0.033567
  33 H :    0.031688

  Mayer bond orders larger than 0.100000
B(  0-S ,  1-C ) :   1.1671 B(  0-S ,  4-C ) :   1.1546 B(  1-C ,  2-C ) :   1.5923
B(  1-C , 32-H ) :   0.9599 B(  2-C ,  3-C ) :   1.2581 B(  2-C ,  6-C ) :   1.0080
B(  3-C ,  4-C ) :   1.5527 B(  3-C ,  5-H ) :   0.9974 B(  4-C , 20-C ) :   1.0619
B(  6-C ,  7-H ) :   0.9520 B(  6-C ,  8-H ) :   0.9405 B(  6-C ,  9-C ) :   1.0740
B(  9-C , 10-H ) :   0.9564 B(  9-C , 11-H ) :   0.9529 B(  9-C , 12-C ) :   1.0692
B( 12-C , 13-H ) :   0.9736 B( 12-C , 14-H ) :   0.9783 B( 12-C , 15-H ) :   0.9751
B( 16-S , 17-C ) :   1.1728 B( 16-S , 20-C ) :   1.1250 B( 17-C , 18-C ) :   1.6317
B( 17-C , 33-H ) :   0.9542 B( 18-C , 19-C ) :   1.2190 B( 18-C , 21-H ) :   0.9918
B( 19-C , 20-C ) :   1.5764 B( 19-C , 22-C ) :   1.0504 B( 22-C , 23-H ) :   0.9350
B( 22-C , 24-H ) :   0.9292 B( 22-C , 25-C ) :   1.0648 B( 25-C , 26-H ) :   0.9579
B( 25-C , 27-H ) :   0.9603 B( 25-C , 28-C ) :   1.0474 B( 28-C , 29-H ) :   0.9737
B( 28-C , 30-H ) :   0.9729 B( 28-C , 31-H ) :   0.9750

Dispersion correction           -0.015004169
FINAL SINGLE POINT ENERGY     -1339.869848911223

DIPOLE MOMENT
-------------
                                X             Y             Z
Electronic contribution:    -15.71614      -3.39253     -23.19961
Nuclear contribution   :     16.30138       3.51093      23.73500
                        -----------------------------------------
Total Dipole Moment    :      0.58524       0.11839       0.53539
                        -----------------------------------------
Magnitude (a.u.)       :      0.80198
Magnitude (Debye)      :      2.03847

Rotational constants in cm-1:     0.020483     0.009036     0.006906
Rotational constants in MHz :   614.051245   270.898213   207.039889

                             ****ORCA TERMINATED NORMALLY****
TOTAL RUN TIME: 0 days 0 hours 0 minutes 31 seconds 884 msec
