                         Program Version 4.2.1 -  RELEASE  -
|  1> ! wB97X-D3 SP def2-SVP
|  2> %pal
|  3> nprocs 16
|  4> end
|  5>
|  6> * xyz 0 1
|  7> S 	 -42.4956 	 20.3198 	 71.0207
|  8> C 	 -40.956 	 20.7021 	 70.3562
|  9> C 	 -40.3456 	 19.5018 	 69.9556
| 10> C 	 -40.9454 	 18.2655 	 70.3116
| 11> C 	 -42.0342 	 18.5838 	 71.1069
| 12> H 	 -40.7066 	 17.2214 	 70.1206
| 13> C 	 -38.9929 	 19.5474 	 69.2281
| 14> H 	 -38.7444 	 18.5718 	 68.8261
| 15> H 	 -38.2135 	 19.8039 	 69.972
| 16> C 	 -39.1303 	 20.4574 	 67.986
| 17> H 	 -39.2804 	 21.475 	 68.33
| 18> H 	 -38.1457 	 20.6223 	 67.5812
| 19> C 	 -40.0127 	 19.9659 	 66.9038
| 20> H 	 -39.4798 	 19.3067 	 66.2113
| 21> H 	 -40.8689 	 19.4018 	 67.3249
| 22> H 	 -40.3572 	 20.8628 	 66.4219
| 23> S 	 -44.3873 	 17.2957 	 70.5288
| 24> C 	 -44.8345 	 15.9887 	 71.5039
| 25> C 	 -44.0737 	 15.9159 	 72.6526
| 26> C 	 -43.0381 	 16.8442 	 72.699
| 27> C 	 -42.975 	 17.5337 	 71.5099
| 28> H 	 -44.2481 	 15.1083 	 73.399
| 29> C 	 -41.8878 	 16.924 	 73.7501
| 30> H 	 -40.9565 	 16.8408 	 73.2393
| 31> H 	 -42.0125 	 16.0287 	 74.3279
| 32> C 	 -41.8362 	 18.2808 	 74.5187
| 33> H 	 -41.5782 	 19.0915 	 73.8033
| 34> H 	 -40.9565 	 18.1793 	 75.1597
| 35> C 	 -43.1801 	 18.6296 	 75.3654
| 36> H 	 -44.0508 	 18.5957 	 74.6394
| 37> H 	 -43.1191 	 19.5497 	 75.8797
| 38> H 	 -43.3832 	 17.8706 	 76.1403
| 39> H 	 -40.5062 	 21.6607 	 70.1583
| 40> H 	 -45.6024 	 15.2728 	 71.3773
| 41> *
| 42>
| 43>                          ****END OF INPUT****

CARTESIAN COORDINATES (ANGSTROEM)
---------------------------------
  S    -42.495600   20.319800   71.020700
  C    -40.956000   20.702100   70.356200
  C    -40.345600   19.501800   69.955600
  C    -40.945400   18.265500   70.311600
  C    -42.034200   18.583800   71.106900
  H    -40.706600   17.221400   70.120600
  C    -38.992900   19.547400   69.228100
  H    -38.744400   18.571800   68.826100
  H    -38.213500   19.803900   69.972000
  C    -39.130300   20.457400   67.986000
  H    -39.280400   21.475000   68.330000
  H    -38.145700   20.622300   67.581200
  C    -40.012700   19.965900   66.903800
  H    -39.479800   19.306700   66.211300
  H    -40.868900   19.401800   67.324900
  H    -40.357200   20.862800   66.421900
  S    -44.387300   17.295700   70.528800
  C    -44.834500   15.988700   71.503900
  C    -44.073700   15.915900   72.652600
  C    -43.038100   16.844200   72.699000
  C    -42.975000   17.533700   71.509900
  H    -44.248100   15.108300   73.399000
  C    -41.887800   16.924000   73.750100
  H    -40.956500   16.840800   73.239300
  H    -42.012500   16.028700   74.327900
  C    -41.836200   18.280800   74.518700
  H    -41.578200   19.091500   73.803300
  H    -40.956500   18.179300   75.159700
  C    -43.180100   18.629600   75.365400
  H    -44.050800   18.595700   74.639400
  H    -43.119100   19.549700   75.879700
  H    -43.383200   17.870600   76.140300
  H    -40.506200   21.660700   70.158300
  H    -45.602400   15.272800   71.377300

 Total Charge           Charge          ....    0
 Multiplicity           Mult            ....    1
 Number of Electrons    NEL             ....  134
 Basis Dimension        Dim             ....  322

ORBITAL ENERGIES
----------------

  NO   OCC          E(Eh)            E(eV)
   0   2.0000     -88.969765     -2420.9904
   1   2.0000     -88.965553     -2420.8758
   2   2.0000     -10.327979      -281.0386
   3   2.0000     -10.313935      -280.6564
   4   2.0000     -10.312762      -280.6245
   5   2.0000     -10.305823      -280.4357
   6   2.0000     -10.300370      -280.2873
   7   2.0000     -10.297707      -280.2149
   8   2.0000     -10.294785      -280.1353
   9   2.0000     -10.290418      -280.0165
  10   2.0000     -10.289254      -279.9848
  11   2.0000     -10.288073      -279.9527
  12   2.0000     -10.287486      -279.9367
  13   2.0000     -10.279512      -279.7197
  14   2.0000     -10.276976      -279.6507
  15   2.0000     -10.272976      -279.5419
  16   2.0000      -8.083645      -219.9672
  17   2.0000      -8.081485      -219.9084
  18   2.0000      -6.042112      -164.4142
  19   2.0000      -6.039729      -164.3494
  20   2.0000      -6.038397      -164.3131
  21   2.0000      -6.035884      -164.2448
  22   2.0000      -6.034364      -164.2034
  23   2.0000      -6.032399      -164.1499
  24   2.0000      -1.011853       -27.5339
  25   2.0000      -0.988104       -26.8877
  26   2.0000      -0.911487       -24.8028
  27   2.0000      -0.896548       -24.3963
  28   2.0000      -0.867933       -23.6177
  29   2.0000      -0.851217       -23.1628
  30   2.0000      -0.840828       -22.8801
  31   2.0000      -0.810648       -22.0588
  32   2.0000      -0.780561       -21.2402
  33   2.0000      -0.766082       -20.8461
  34   2.0000      -0.707773       -19.2595
  35   2.0000      -0.699499       -19.0343
  36   2.0000      -0.686925       -18.6922
  37   2.0000      -0.656209       -17.8563
  38   2.0000      -0.644454       -17.5365
  39   2.0000      -0.603167       -16.4130
  40   2.0000      -0.588394       -16.0110
  41   2.0000      -0.571143       -15.5416
  42   2.0000      -0.558539       -15.1986
  43   2.0000      -0.542850       -14.7717
  44   2.0000      -0.538321       -14.6485
  45   2.0000      -0.531226       -14.4554
  46   2.0000      -0.521576       -14.1928
  47   2.0000      -0.506211       -13.7747
  48   2.0000      -0.503789       -13.7088
  49   2.0000      -0.490605       -13.3500
  50   2.0000      -0.486733       -13.2447
  51   2.0000      -0.477849       -13.0029
  52   2.0000      -0.470986       -12.8162
  53   2.0000      -0.467527       -12.7221
  54   2.0000      -0.460327       -12.5261
  55   2.0000      -0.444534       -12.0964
  56   2.0000      -0.443569       -12.0701
  57   2.0000      -0.434947       -11.8355
  58   2.0000      -0.432364       -11.7652
  59   2.0000      -0.421133       -11.4596
  60   2.0000      -0.416035       -11.3209
  61   2.0000      -0.411071       -11.1858
  62   2.0000      -0.400301       -10.8927
  63   2.0000      -0.342843        -9.3292
  64   2.0000      -0.333470        -9.0742
  65   2.0000      -0.316299        -8.6069
  66   2.0000      -0.299255        -8.1432
  67   0.0000       0.038550         1.0490
  68   0.0000       0.047945         1.3046
  69   0.0000       0.111942         3.0461
  70   0.0000       0.127840         3.4787
  71   0.0000       0.136518         3.7148

MULLIKEN ATOMIC CHARGES
-----------------------
   0 S :    0.121586
   1 C :   -0.097143
   2 C :   -0.118371
   3 C :    0.040192
   4 C :   -0.160712
   5 H :    0.035916
   6 C :    0.063822
   7 H :    0.007294
   8 H :    0.047559
   9 C :   -0.086414
  10 H :    0.006424
  11 H :    0.006896
  12 C :   -0.016992
  13 H :    0.036264
  14 H :    0.043354
  15 H :    0.033327
  16 S :    0.140219
  17 C :   -0.059459
  18 C :   -0.081644
  19 C :   -0.026656
  20 C :   -0.225662
  21 H :    0.024314
  22 C :    0.115062
  23 H :    0.022291
  24 H :    0.010129
  25 C :   -0.088827
  26 H :    0.049151
  27 H :    0.026985
  28 C :   -0.066703
  29 H :    0.053536
  30 H :    0.035141
  31 H :    0.029992
  32 H :    0.047049
  33 H :    0.032078
Sum of atomic charges:    0.0000000

LOEWDIN ATOMIC CHARGES
----------------------
   0 S :    0.404160
   1 C :   -0.211475
   2 C :   -0.062943
   3 C :   -0.053651
   4 C :   -0.179217
   5 H :    0.043250
   6 C :   -0.033256
   7 H :    0.021566
   8 H :    0.035938
   9 C :   -0.050000
  10 H :    0.014493
  11 H :    0.019695
  12 C :   -0.061062
  13 H :    0.027859
  14 H :    0.030995
  15 H :    0.031445
  16 S :    0.440250
  17 C :   -0.202604
  18 C :   -0.082369
  19 C :   -0.059412
  20 C :   -0.214171
  21 H :    0.035105
  22 C :   -0.019604
  23 H :    0.030053
  24 H :    0.023325
  25 C :   -0.037177
  26 H :    0.026749
  27 H :    0.021474
  28 C :   -0.069099
  29 H :    0.034640
  30 H :    0.018797
  31 H :    0.024661
  32 H :    0.028716
  33 H :    0.022870

  Mayer bond orders larger than 0.100000
B(  0-S ,  1-C ) :   1.1308 B(  0-S ,  4-C ) :   1.1538 B(  1-C ,  2-C ) :   1.5882
B(  1-C ,  4-C ) :   0.1017 B(  1-C , 32-H ) :   0.9743 B(  2-C ,  3-C ) :   1.2292
B(  2-C ,  6-C ) :   1.0147 B(  3-C ,  4-C ) :   1.5594 B(  3-C ,  5-H ) :   0.9977
B(  4-C , 20-C ) :   1.0210 B(  6-C ,  7-H ) :   0.9485 B(  6-C ,  8-H ) :   0.9445
B(  6-C ,  9-C ) :   1.0719 B(  9-C , 10-H ) :   0.9605 B(  9-C , 11-H ) :   0.9467
B(  9-C , 12-C ) :   1.0650 B( 12-C , 13-H ) :   0.9737 B( 12-C , 14-H ) :   0.9776
B( 12-C , 15-H ) :   0.9690 B( 16-S , 17-C ) :   1.1678 B( 16-S , 20-C ) :   1.1679
B( 17-C , 18-C ) :   1.5960 B( 17-C , 20-C ) :   0.1041 B( 17-C , 33-H ) :   0.9688
B( 18-C , 19-C ) :   1.2751 B( 18-C , 21-H ) :   0.9819 B( 19-C , 20-C ) :   1.5710
B( 19-C , 22-C ) :   1.0173 B( 22-C , 23-H ) :   0.9370 B( 22-C , 24-H ) :   0.9408
B( 22-C , 25-C ) :   1.0630 B( 25-C , 26-H ) :   0.9555 B( 25-C , 27-H ) :   0.9574
B( 25-C , 28-C ) :   1.0569 B( 28-C , 29-H ) :   0.9760 B( 28-C , 30-H ) :   0.9795
B( 28-C , 31-H ) :   0.9783

Dispersion correction           -0.015548442
FINAL SINGLE POINT ENERGY     -1339.857907569067

DIPOLE MOMENT
-------------
                                X             Y             Z
Electronic contribution:    -14.78977      -2.48668      -2.18640
Nuclear contribution   :     15.26515       2.30135       2.15350
                        -----------------------------------------
Total Dipole Moment    :      0.47538      -0.18533      -0.03290
                        -----------------------------------------
Magnitude (a.u.)       :      0.51129
Magnitude (Debye)      :      1.29960

Rotational constants in cm-1:     0.022829     0.008554     0.007370
Rotational constants in MHz :   684.403377   256.430703   220.958970

                             ****ORCA TERMINATED NORMALLY****
TOTAL RUN TIME: 0 days 0 hours 0 minutes 31 seconds 910 msec
