                         Program Version 4.2.1 -  RELEASE  -
|  1> ! wB97X-D3 SP def2-SVP
|  2> %pal
|  3> nprocs 16
|  4> end
|  5>
|  6> * xyz 0 1
|  7> S 	 -18.9413 	 -9.29042 	 84.7978
|  8> C 	 -17.3055 	 -9.81015 	 84.3465
|  9> C 	 -16.3949 	 -9.70514 	 85.3744
| 10> C 	 -17.0162 	 -9.19561 	 86.5425
| 11> C 	 -18.3789 	 -8.82687 	 86.4244
| 12> H 	 -16.567 	 -9.12858 	 87.446
| 13> C 	 -14.8873 	 -10.0488 	 85.3393
| 14> H 	 -14.4605 	 -9.09911 	 85.6714
| 15> H 	 -14.6403 	 -10.1231 	 84.2527
| 16> C 	 -14.3955 	 -11.1152 	 86.2804
| 17> H 	 -13.3413 	 -10.8316 	 86.426
| 18> H 	 -14.9962 	 -11.0724 	 87.1715
| 19> C 	 -14.6729 	 -12.3921 	 85.4863
| 20> H 	 -13.8449 	 -12.463 	 84.7731
| 21> H 	 -14.5191 	 -13.1871 	 86.1714
| 22> H 	 -15.6034 	 -12.5259 	 85.0519
| 23> S 	 -20.9694 	 -8.55832 	 87.3442
| 24> C 	 -21.2854 	 -7.41623 	 88.5311
| 25> C 	 -20.159 	 -6.90228 	 89.1889
| 26> C 	 -18.9582 	 -7.3855 	 88.5571
| 27> C 	 -19.2343 	 -8.20329 	 87.4342
| 28> H 	 -20.1648 	 -6.32681 	 90.0543
| 29> C 	 -17.5585 	 -6.85605 	 88.971
| 30> H 	 -17.5745 	 -5.77214 	 89.0621
| 31> H 	 -16.9777 	 -6.98589 	 87.9729
| 32> C 	 -16.7896 	 -7.51142 	 90.1942
| 33> H 	 -16.9131 	 -8.55355 	 90.1578
| 34> H 	 -17.223 	 -7.18765 	 91.1343
| 35> C 	 -15.3515 	 -7.0739 	 90.2266
| 36> H 	 -14.7736 	 -7.48414 	 89.3354
| 37> H 	 -14.7933 	 -7.56385 	 91.0271
| 38> H 	 -15.1813 	 -6.00949 	 90.0929
| 39> H 	 -17.0376 	 -9.99653 	 83.2888
| 40> H 	 -22.2519 	 -7.21551 	 88.946
| 41> *
| 42>
| 43>                          ****END OF INPUT****

CARTESIAN COORDINATES (ANGSTROEM)
---------------------------------
  S    -18.941300   -9.290420   84.797800
  C    -17.305500   -9.810150   84.346500
  C    -16.394900   -9.705140   85.374400
  C    -17.016200   -9.195610   86.542500
  C    -18.378900   -8.826870   86.424400
  H    -16.567000   -9.128580   87.446000
  C    -14.887300  -10.048800   85.339300
  H    -14.460500   -9.099110   85.671400
  H    -14.640300  -10.123100   84.252700
  C    -14.395500  -11.115200   86.280400
  H    -13.341300  -10.831600   86.426000
  H    -14.996200  -11.072400   87.171500
  C    -14.672900  -12.392100   85.486300
  H    -13.844900  -12.463000   84.773100
  H    -14.519100  -13.187100   86.171400
  H    -15.603400  -12.525900   85.051900
  S    -20.969400   -8.558320   87.344200
  C    -21.285400   -7.416230   88.531100
  C    -20.159000   -6.902280   89.188900
  C    -18.958200   -7.385500   88.557100
  C    -19.234300   -8.203290   87.434200
  H    -20.164800   -6.326810   90.054300
  C    -17.558500   -6.856050   88.971000
  H    -17.574500   -5.772140   89.062100
  H    -16.977700   -6.985890   87.972900
  C    -16.789600   -7.511420   90.194200
  H    -16.913100   -8.553550   90.157800
  H    -17.223000   -7.187650   91.134300
  C    -15.351500   -7.073900   90.226600
  H    -14.773600   -7.484140   89.335400
  H    -14.793300   -7.563850   91.027100
  H    -15.181300   -6.009490   90.092900
  H    -17.037600   -9.996530   83.288800
  H    -22.251900   -7.215510   88.946000

 Total Charge           Charge          ....    0
 Multiplicity           Mult            ....    1
 Number of Electrons    NEL             ....  134
 Basis Dimension        Dim             ....  322

ORBITAL ENERGIES
----------------

  NO   OCC          E(Eh)            E(eV)
   0   2.0000     -88.969839     -2420.9924
   1   2.0000     -88.966575     -2420.9036
   2   2.0000     -10.336761      -281.2776
   3   2.0000     -10.332655      -281.1658
   4   2.0000     -10.316164      -280.7171
   5   2.0000     -10.314286      -280.6660
   6   2.0000     -10.310439      -280.5613
   7   2.0000     -10.302247      -280.3384
   8   2.0000     -10.300565      -280.2926
   9   2.0000     -10.292946      -280.0853
  10   2.0000     -10.291689      -280.0511
  11   2.0000     -10.289392      -279.9886
  12   2.0000     -10.287802      -279.9453
  13   2.0000     -10.286905      -279.9209
  14   2.0000     -10.283655      -279.8325
  15   2.0000     -10.268070      -279.4084
  16   2.0000      -8.085534      -220.0186
  17   2.0000      -8.080274      -219.8754
  18   2.0000      -6.043874      -164.4622
  19   2.0000      -6.039988      -164.3564
  20   2.0000      -6.038897      -164.3267
  21   2.0000      -6.036344      -164.2573
  22   2.0000      -6.034978      -164.2201
  23   2.0000      -6.030935      -164.1101
  24   2.0000      -1.003629       -27.3101
  25   2.0000      -0.980908       -26.6919
  26   2.0000      -0.919581       -25.0231
  27   2.0000      -0.905300       -24.6345
  28   2.0000      -0.867579       -23.6080
  29   2.0000      -0.858628       -23.3645
  30   2.0000      -0.844269       -22.9737
  31   2.0000      -0.808272       -21.9942
  32   2.0000      -0.782818       -21.3016
  33   2.0000      -0.771284       -20.9877
  34   2.0000      -0.712354       -19.3841
  35   2.0000      -0.702765       -19.1232
  36   2.0000      -0.692545       -18.8451
  37   2.0000      -0.665407       -18.1067
  38   2.0000      -0.638607       -17.3774
  39   2.0000      -0.624380       -16.9902
  40   2.0000      -0.595527       -16.2051
  41   2.0000      -0.574242       -15.6259
  42   2.0000      -0.560516       -15.2524
  43   2.0000      -0.553021       -15.0485
  44   2.0000      -0.542737       -14.7686
  45   2.0000      -0.530635       -14.4393
  46   2.0000      -0.519993       -14.1497
  47   2.0000      -0.510955       -13.9038
  48   2.0000      -0.498386       -13.5618
  49   2.0000      -0.496432       -13.5086
  50   2.0000      -0.492007       -13.3882
  51   2.0000      -0.487439       -13.2639
  52   2.0000      -0.471084       -12.8188
  53   2.0000      -0.467597       -12.7240
  54   2.0000      -0.457265       -12.4428
  55   2.0000      -0.454658       -12.3719
  56   2.0000      -0.445832       -12.1317
  57   2.0000      -0.442293       -12.0354
  58   2.0000      -0.431220       -11.7341
  59   2.0000      -0.421684       -11.4746
  60   2.0000      -0.418919       -11.3994
  61   2.0000      -0.412986       -11.2379
  62   2.0000      -0.411508       -11.1977
  63   2.0000      -0.355793        -9.6816
  64   2.0000      -0.333499        -9.0750
  65   2.0000      -0.329365        -8.9625
  66   2.0000      -0.279001        -7.5920
  67   0.0000       0.018117         0.4930
  68   0.0000       0.078871         2.1462
  69   0.0000       0.099033         2.6948
  70   0.0000       0.116646         3.1741
  71   0.0000       0.126473         3.4415

MULLIKEN ATOMIC CHARGES
-----------------------
   0 S :    0.095837
   1 C :   -0.147491
   2 C :   -0.079850
   3 C :    0.040040
   4 C :   -0.123692
   5 H :   -0.044889
   6 C :    0.041301
   7 H :    0.022089
   8 H :    0.022999
   9 C :   -0.042143
  10 H :    0.043689
  11 H :    0.032583
  12 C :   -0.008973
  13 H :    0.025867
  14 H :    0.013070
  15 H :    0.033259
  16 S :    0.123909
  17 C :   -0.066143
  18 C :   -0.008866
  19 C :   -0.037628
  20 C :   -0.148249
  21 H :   -0.005123
  22 C :   -0.036824
  23 H :    0.031219
  24 H :    0.037920
  25 C :   -0.000990
  26 H :    0.022184
  27 H :    0.026232
  28 C :   -0.064736
  29 H :    0.016987
  30 H :    0.039621
  31 H :    0.038002
  32 H :    0.058876
  33 H :    0.049914
Sum of atomic charges:    0.0000000

LOEWDIN ATOMIC CHARGES
----------------------
   0 S :    0.376666
   1 C :   -0.199383
   2 C :   -0.062478
   3 C :   -0.059162
   4 C :   -0.176919
   5 H :    0.007004
   6 C :   -0.030693
   7 H :    0.026944
   8 H :    0.031307
   9 C :   -0.033922
  10 H :    0.033742
  11 H :    0.024070
  12 C :   -0.050598
  13 H :    0.029275
  14 H :    0.017986
  15 H :    0.018982
  16 S :    0.432162
  17 C :   -0.200304
  18 C :   -0.062919
  19 C :   -0.052247
  20 C :   -0.195410
  21 H :    0.021133
  22 C :   -0.041493
  23 H :    0.027891
  24 H :    0.040473
  25 C :   -0.033984
  26 H :    0.018611
  27 H :    0.024916
  28 C :   -0.072576
  29 H :    0.027176
  30 H :    0.029177
  31 H :    0.027071
  32 H :    0.032646
  33 H :    0.024852

  Mayer bond orders larger than 0.100000
B(  0-S ,  1-C ) :   1.1260 B(  0-S ,  4-C ) :   1.1418 B(  1-C ,  2-C ) :   1.6146
B(  1-C , 32-H ) :   0.9586 B(  2-C ,  3-C ) :   1.2503 B(  2-C ,  6-C ) :   1.0106
B(  3-C ,  4-C ) :   1.5425 B(  3-C ,  5-H ) :   1.0047 B(  4-C , 20-C ) :   1.0909
B(  6-C ,  7-H ) :   0.9356 B(  6-C ,  8-H ) :   0.9415 B(  6-C ,  9-C ) :   1.0590
B(  9-C , 10-H ) :   0.9549 B(  9-C , 11-H ) :   0.9552 B(  9-C , 12-C ) :   1.0703
B( 12-C , 13-H ) :   0.9753 B( 12-C , 14-H ) :   0.9716 B( 12-C , 15-H ) :   0.9794
B( 16-S , 17-C ) :   1.1816 B( 16-S , 20-C ) :   1.1398 B( 17-C , 18-C ) :   1.5700
B( 17-C , 33-H ) :   0.9662 B( 18-C , 19-C ) :   1.2720 B( 18-C , 21-H ) :   1.0014
B( 19-C , 20-C ) :   1.5567 B( 19-C , 22-C ) :   1.0262 B( 22-C , 23-H ) :   0.9427
B( 22-C , 24-H ) :   0.9452 B( 22-C , 25-C ) :   1.0425 B( 25-C , 26-H ) :   0.9552
B( 25-C , 27-H ) :   0.9514 B( 25-C , 28-C ) :   1.0888 B( 28-C , 29-H ) :   0.9706
B( 28-C , 30-H ) :   0.9711 B( 28-C , 31-H ) :   0.9730

Dispersion correction           -0.014159590
FINAL SINGLE POINT ENERGY     -1339.855361224720

DIPOLE MOMENT
-------------
                                X             Y             Z
Electronic contribution:    -29.01251       2.87459     -10.13873
Nuclear contribution   :     29.62327      -2.78957      10.58044
                        -----------------------------------------
Total Dipole Moment    :      0.61076       0.08503       0.44172
                        -----------------------------------------
Magnitude (a.u.)       :      0.75853
Magnitude (Debye)      :      1.92803

Rotational constants in cm-1:     0.016933     0.009536     0.006572
Rotational constants in MHz :   507.625791   285.880421   197.029263

                             ****ORCA TERMINATED NORMALLY****
TOTAL RUN TIME: 0 days 0 hours 0 minutes 34 seconds 550 msec
