                         Program Version 4.2.1 -  RELEASE  -
|  1> ! wB97X-D3 SP def2-SVP
|  2> %pal
|  3> nprocs 16
|  4> end
|  5>
|  6> * xyz 0 1
|  7> S 	 -30.4761 	 -0.386702 	 106.842
|  8> C 	 -29.2913 	 -1.49698 	 107.54
|  9> C 	 -28.473 	 -2.05778 	 106.559
| 10> C 	 -28.8448 	 -1.70045 	 105.217
| 11> C 	 -29.9407 	 -0.818942 	 105.252
| 12> H 	 -28.4369 	 -2.03782 	 104.294
| 13> C 	 -27.3665 	 -3.01492 	 106.838
| 14> H 	 -26.5178 	 -2.72502 	 106.163
| 15> H 	 -27.7127 	 -4.02455 	 106.575
| 16> C 	 -26.7897 	 -2.9928 	 108.308
| 17> H 	 -27.6093 	 -3.09977 	 108.968
| 18> H 	 -26.1636 	 -3.84135 	 108.43
| 19> C 	 -26.0209 	 -1.72587 	 108.603
| 20> H 	 -26.6167 	 -0.817028 	 108.554
| 21> H 	 -25.6756 	 -1.76969 	 109.575
| 22> H 	 -25.2501 	 -1.62696 	 107.884
| 23> S 	 -29.833 	 0.598127 	 102.859
| 24> C 	 -31.1091 	 0.398865 	 101.623
| 25> C 	 -32.1787 	 -0.329985 	 102.149
| 26> C 	 -31.9556 	 -0.690083 	 103.524
| 27> C 	 -30.6592 	 -0.443753 	 103.99
| 28> H 	 -33.0972 	 -0.512249 	 101.607
| 29> C 	 -32.9509 	 -1.41424 	 104.442
| 30> H 	 -33.9466 	 -1.47272 	 104.03
| 31> H 	 -32.9948 	 -0.863547 	 105.374
| 32> C 	 -32.5985 	 -2.95102 	 104.867
| 33> H 	 -31.632 	 -3.02986 	 105.414
| 34> H 	 -32.4374 	 -3.67686 	 104.064
| 35> C 	 -33.7583 	 -3.7471 	 105.601
| 36> H 	 -34.5678 	 -3.8525 	 104.86
| 37> H 	 -34.2418 	 -3.17372 	 106.365
| 38> H 	 -33.5169 	 -4.69952 	 106.046
| 39> H 	 -29.2438 	 -1.69081 	 108.559
| 40> H 	 -31.1145 	 0.90345 	 100.734
| 41> *
| 42>
| 43>                          ****END OF INPUT****

CARTESIAN COORDINATES (ANGSTROEM)
---------------------------------
  S    -30.476100   -0.386702  106.842000
  C    -29.291300   -1.496980  107.540000
  C    -28.473000   -2.057780  106.559000
  C    -28.844800   -1.700450  105.217000
  C    -29.940700   -0.818942  105.252000
  H    -28.436900   -2.037820  104.294000
  C    -27.366500   -3.014920  106.838000
  H    -26.517800   -2.725020  106.163000
  H    -27.712700   -4.024550  106.575000
  C    -26.789700   -2.992800  108.308000
  H    -27.609300   -3.099770  108.968000
  H    -26.163600   -3.841350  108.430000
  C    -26.020900   -1.725870  108.603000
  H    -26.616700   -0.817028  108.554000
  H    -25.675600   -1.769690  109.575000
  H    -25.250100   -1.626960  107.884000
  S    -29.833000    0.598127  102.859000
  C    -31.109100    0.398865  101.623000
  C    -32.178700   -0.329985  102.149000
  C    -31.955600   -0.690083  103.524000
  C    -30.659200   -0.443753  103.990000
  H    -33.097200   -0.512249  101.607000
  C    -32.950900   -1.414240  104.442000
  H    -33.946600   -1.472720  104.030000
  H    -32.994800   -0.863547  105.374000
  C    -32.598500   -2.951020  104.867000
  H    -31.632000   -3.029860  105.414000
  H    -32.437400   -3.676860  104.064000
  C    -33.758300   -3.747100  105.601000
  H    -34.567800   -3.852500  104.860000
  H    -34.241800   -3.173720  106.365000
  H    -33.516900   -4.699520  106.046000
  H    -29.243800   -1.690810  108.559000
  H    -31.114500    0.903450  100.734000

 Total Charge           Charge          ....    0
 Multiplicity           Mult            ....    1
 Number of Electrons    NEL             ....  134
 Basis Dimension        Dim             ....  322

ORBITAL ENERGIES
----------------

  NO   OCC          E(Eh)            E(eV)
   0   2.0000     -88.972176     -2421.0560
   1   2.0000     -88.964349     -2420.8430
   2   2.0000     -10.335208      -281.2353
   3   2.0000     -10.327861      -281.0354
   4   2.0000     -10.316594      -280.7288
   5   2.0000     -10.312808      -280.6258
   6   2.0000     -10.306341      -280.4498
   7   2.0000     -10.304538      -280.4007
   8   2.0000     -10.300195      -280.2826
   9   2.0000     -10.297714      -280.2151
  10   2.0000     -10.296331      -280.1774
  11   2.0000     -10.295759      -280.1619
  12   2.0000     -10.289711      -279.9973
  13   2.0000     -10.282622      -279.8044
  14   2.0000     -10.274373      -279.5799
  15   2.0000     -10.265614      -279.3416
  16   2.0000      -8.086272      -220.0387
  17   2.0000      -8.078442      -219.8256
  18   2.0000      -6.044746      -164.4859
  19   2.0000      -6.040866      -164.3803
  20   2.0000      -6.037138      -164.2789
  21   2.0000      -6.036990      -164.2748
  22   2.0000      -6.032898      -164.1635
  23   2.0000      -6.029349      -164.0669
  24   2.0000      -1.001776       -27.2597
  25   2.0000      -0.979737       -26.6600
  26   2.0000      -0.913664       -24.8621
  27   2.0000      -0.886906       -24.1339
  28   2.0000      -0.863895       -23.5078
  29   2.0000      -0.856206       -23.2986
  30   2.0000      -0.840379       -22.8679
  31   2.0000      -0.813923       -22.1480
  32   2.0000      -0.781014       -21.2525
  33   2.0000      -0.767399       -20.8820
  34   2.0000      -0.713898       -19.4262
  35   2.0000      -0.701056       -19.0767
  36   2.0000      -0.690579       -18.7916
  37   2.0000      -0.665039       -18.0966
  38   2.0000      -0.647376       -17.6160
  39   2.0000      -0.604573       -16.4513
  40   2.0000      -0.591175       -16.0867
  41   2.0000      -0.580091       -15.7851
  42   2.0000      -0.559848       -15.2342
  43   2.0000      -0.552846       -15.0437
  44   2.0000      -0.538588       -14.6557
  45   2.0000      -0.522639       -14.2217
  46   2.0000      -0.515531       -14.0283
  47   2.0000      -0.510348       -13.8873
  48   2.0000      -0.507454       -13.8085
  49   2.0000      -0.495204       -13.4752
  50   2.0000      -0.483783       -13.1644
  51   2.0000      -0.481470       -13.1015
  52   2.0000      -0.477421       -12.9913
  53   2.0000      -0.465775       -12.6744
  54   2.0000      -0.458238       -12.4693
  55   2.0000      -0.446057       -12.1378
  56   2.0000      -0.442146       -12.0314
  57   2.0000      -0.438592       -11.9347
  58   2.0000      -0.431591       -11.7442
  59   2.0000      -0.427055       -11.6208
  60   2.0000      -0.419361       -11.4114
  61   2.0000      -0.415277       -11.3003
  62   2.0000      -0.406259       -11.0549
  63   2.0000      -0.337629        -9.1874
  64   2.0000      -0.333648        -9.0790
  65   2.0000      -0.324110        -8.8195
  66   2.0000      -0.297261        -8.0889
  67   0.0000       0.030950         0.8422
  68   0.0000       0.063729         1.7342
  69   0.0000       0.108919         2.9638
  70   0.0000       0.117225         3.1898
  71   0.0000       0.122374         3.3300

MULLIKEN ATOMIC CHARGES
-----------------------
   0 S :    0.126724
   1 C :   -0.121157
   2 C :   -0.070132
   3 C :    0.041857
   4 C :   -0.151852
   5 H :    0.012598
   6 C :    0.027513
   7 H :    0.035540
   8 H :    0.048135
   9 C :   -0.057349
  10 H :    0.013986
  11 H :    0.021531
  12 C :   -0.000339
  13 H :    0.030268
  14 H :    0.018198
  15 H :    0.018874
  16 S :    0.101700
  17 C :   -0.070013
  18 C :   -0.020481
  19 C :   -0.032470
  20 C :   -0.172461
  21 H :    0.023291
  22 C :    0.080016
  23 H :    0.011744
  24 H :    0.033134
  25 C :   -0.098118
  26 H :    0.045874
  27 H :    0.028090
  28 C :   -0.060227
  29 H :    0.024172
  30 H :    0.015823
  31 H :    0.039446
  32 H :    0.025610
  33 H :    0.030474
Sum of atomic charges:    0.0000000

LOEWDIN ATOMIC CHARGES
----------------------
   0 S :    0.416914
   1 C :   -0.190965
   2 C :   -0.057272
   3 C :   -0.049083
   4 C :   -0.197027
   5 H :    0.030922
   6 C :   -0.034053
   7 H :    0.035409
   8 H :    0.035989
   9 C :   -0.031089
  10 H :    0.013728
  11 H :    0.021975
  12 C :   -0.052603
  13 H :    0.027245
  14 H :    0.017833
  15 H :    0.020852
  16 S :    0.398486
  17 C :   -0.163223
  18 C :   -0.063686
  19 C :   -0.060395
  20 C :   -0.199263
  21 H :    0.033991
  22 C :   -0.028021
  23 H :    0.024948
  24 H :    0.026539
  25 C :   -0.044464
  26 H :    0.024859
  27 H :    0.023358
  28 C :   -0.070125
  29 H :    0.024269
  30 H :    0.015580
  31 H :    0.026498
  32 H :    0.011599
  33 H :    0.010274

  Mayer bond orders larger than 0.100000
B(  0-S ,  1-C ) :   1.1236 B(  0-S ,  4-C ) :   1.1698 B(  1-C ,  2-C ) :   1.6044
B(  1-C , 32-H ) :   0.9761 B(  2-C ,  3-C ) :   1.2332 B(  2-C ,  6-C ) :   1.0151
B(  3-C ,  4-C ) :   1.5633 B(  3-C ,  5-H ) :   1.0009 B(  4-C , 20-C ) :   1.0006
B(  6-C ,  7-H ) :   0.9448 B(  6-C ,  8-H ) :   0.9344 B(  6-C ,  9-C ) :   1.0854
B(  9-C , 10-H ) :   0.9494 B(  9-C , 11-H ) :   0.9529 B(  9-C , 12-C ) :   1.0853
B( 12-C , 13-H ) :   0.9730 B( 12-C , 14-H ) :   0.9711 B( 12-C , 15-H ) :   0.9732
B( 16-S , 17-C ) :   1.1568 B( 16-S , 20-C ) :   1.1542 B( 17-C , 18-C ) :   1.5792
B( 17-C , 20-C ) :   0.1051 B( 17-C , 33-H ) :   0.9813 B( 18-C , 19-C ) :   1.2615
B( 18-C , 21-H ) :   0.9904 B( 19-C , 20-C ) :   1.5744 B( 19-C , 22-C ) :   1.0486
B( 22-C , 23-H ) :   0.9417 B( 22-C , 24-H ) :   0.9337 B( 22-C , 25-C ) :   1.0379
B( 25-C , 26-H ) :   0.9610 B( 25-C , 27-H ) :   0.9649 B( 25-C , 28-C ) :   1.0629
B( 28-C , 29-H ) :   0.9778 B( 28-C , 30-H ) :   0.9781 B( 28-C , 31-H ) :   0.9768

Dispersion correction           -0.015046771
FINAL SINGLE POINT ENERGY     -1339.868137204180

DIPOLE MOMENT
-------------
                                X             Y             Z
Electronic contribution:     -1.53842      18.01854     -12.10299
Nuclear contribution   :      1.56361     -18.47559      12.23911
                        -----------------------------------------
Total Dipole Moment    :      0.02519      -0.45706       0.13612
                        -----------------------------------------
Magnitude (a.u.)       :      0.47756
Magnitude (Debye)      :      1.21386

Rotational constants in cm-1:     0.020099     0.008508     0.006823
Rotational constants in MHz :   602.566237   255.073665   204.534806

                             ****ORCA TERMINATED NORMALLY****
TOTAL RUN TIME: 0 days 0 hours 0 minutes 30 seconds 419 msec
