                         Program Version 4.2.1 -  RELEASE  -
|  1> ! wB97X-D3 SP def2-SVP
|  2> %pal
|  3> nprocs 16
|  4> end
|  5>
|  6> * xyz 0 1
|  7> S 	 35.0968 	 29.5277 	 54.1014
|  8> C 	 36.5947 	 29.7414 	 53.4174
|  9> C 	 36.9239 	 28.8719 	 52.3795
| 10> C 	 35.8221 	 28.041 	 52.0831
| 11> C 	 34.7951 	 28.1606 	 52.984
| 12> H 	 35.7774 	 27.4226 	 51.2058
| 13> C 	 38.2029 	 28.8922 	 51.5667
| 14> H 	 38.4898 	 29.9114 	 51.4452
| 15> H 	 38.0059 	 28.6443 	 50.5519
| 16> C 	 39.405 	 28.0669 	 52.1606
| 17> H 	 39.1846 	 26.943 	 52.209
| 18> H 	 40.2458 	 28.385 	 51.4924
| 19> C 	 39.7587 	 28.3684 	 53.5699
| 20> H 	 40.8108 	 28.0112 	 53.7658
| 21> H 	 39.6827 	 29.4751 	 53.7083
| 22> H 	 39.0999 	 27.8695 	 54.3166
| 23> S 	 33.393 	 26.6419 	 54.8406
| 24> C 	 32.504 	 25.2709 	 54.1964
| 25> C 	 32.1198 	 25.4564 	 52.8961
| 26> C 	 32.8506 	 26.55 	 52.2769
| 27> C 	 33.6825 	 27.1691 	 53.1832
| 28> H 	 31.3773 	 24.8361 	 52.468
| 29> C 	 32.5503 	 27.0589 	 50.8203
| 30> H 	 32.8682 	 28.0524 	 50.72
| 31> H 	 31.4928 	 27.1488 	 50.8196
| 32> C 	 33.117 	 26.0034 	 49.8222
| 33> H 	 32.5005 	 25.1546 	 50.1296
| 34> H 	 34.1712 	 25.8083 	 50.0128
| 35> C 	 32.8095 	 26.3336 	 48.3532
| 36> H 	 32.8573 	 25.303 	 47.8244
| 37> H 	 33.5558 	 27.0285 	 48.0205
| 38> H 	 31.8277 	 26.8258 	 48.1125
| 39> H 	 37.1568 	 30.5819 	 53.8102
| 40> H 	 32.0372 	 24.4615 	 54.7351
| 41> *
| 42>
| 43>                          ****END OF INPUT****

CARTESIAN COORDINATES (ANGSTROEM)
---------------------------------
  S     35.096800   29.527700   54.101400
  C     36.594700   29.741400   53.417400
  C     36.923900   28.871900   52.379500
  C     35.822100   28.041000   52.083100
  C     34.795100   28.160600   52.984000
  H     35.777400   27.422600   51.205800
  C     38.202900   28.892200   51.566700
  H     38.489800   29.911400   51.445200
  H     38.005900   28.644300   50.551900
  C     39.405000   28.066900   52.160600
  H     39.184600   26.943000   52.209000
  H     40.245800   28.385000   51.492400
  C     39.758700   28.368400   53.569900
  H     40.810800   28.011200   53.765800
  H     39.682700   29.475100   53.708300
  H     39.099900   27.869500   54.316600
  S     33.393000   26.641900   54.840600
  C     32.504000   25.270900   54.196400
  C     32.119800   25.456400   52.896100
  C     32.850600   26.550000   52.276900
  C     33.682500   27.169100   53.183200
  H     31.377300   24.836100   52.468000
  C     32.550300   27.058900   50.820300
  H     32.868200   28.052400   50.720000
  H     31.492800   27.148800   50.819600
  C     33.117000   26.003400   49.822200
  H     32.500500   25.154600   50.129600
  H     34.171200   25.808300   50.012800
  C     32.809500   26.333600   48.353200
  H     32.857300   25.303000   47.824400
  H     33.555800   27.028500   48.020500
  H     31.827700   26.825800   48.112500
  H     37.156800   30.581900   53.810200
  H     32.037200   24.461500   54.735100

 Total Charge           Charge          ....    0
 Multiplicity           Mult            ....    1
 Number of Electrons    NEL             ....  134
 Basis Dimension        Dim             ....  322

ORBITAL ENERGIES
----------------

  NO   OCC          E(Eh)            E(eV)
   0   2.0000     -88.966880     -2420.9119
   1   2.0000     -88.962734     -2420.7991
   2   2.0000     -10.329710      -281.0857
   3   2.0000     -10.326236      -280.9912
   4   2.0000     -10.312027      -280.6045
   5   2.0000     -10.308477      -280.5079
   6   2.0000     -10.301829      -280.3270
   7   2.0000     -10.297560      -280.2108
   8   2.0000     -10.293354      -280.0964
   9   2.0000     -10.290831      -280.0277
  10   2.0000     -10.290637      -280.0225
  11   2.0000     -10.289836      -280.0007
  12   2.0000     -10.288248      -279.9575
  13   2.0000     -10.287747      -279.9438
  14   2.0000     -10.286915      -279.9212
  15   2.0000     -10.279727      -279.7256
  16   2.0000      -8.082916      -219.9473
  17   2.0000      -8.077393      -219.7970
  18   2.0000      -6.041153      -164.3881
  19   2.0000      -6.037308      -164.2835
  20   2.0000      -6.036006      -164.2481
  21   2.0000      -6.033839      -164.1891
  22   2.0000      -6.032298      -164.1472
  23   2.0000      -6.027662      -164.0210
  24   2.0000      -1.006801       -27.3964
  25   2.0000      -0.985232       -26.8095
  26   2.0000      -0.908971       -24.7344
  27   2.0000      -0.904318       -24.6077
  28   2.0000      -0.865743       -23.5581
  29   2.0000      -0.856498       -23.3065
  30   2.0000      -0.843197       -22.9446
  31   2.0000      -0.815190       -22.1824
  32   2.0000      -0.781530       -21.2665
  33   2.0000      -0.768931       -20.9237
  34   2.0000      -0.699607       -19.0373
  35   2.0000      -0.692440       -18.8422
  36   2.0000      -0.683297       -18.5935
  37   2.0000      -0.661977       -18.0133
  38   2.0000      -0.643876       -17.5208
  39   2.0000      -0.622301       -16.9337
  40   2.0000      -0.587163       -15.9775
  41   2.0000      -0.569797       -15.5050
  42   2.0000      -0.565316       -15.3830
  43   2.0000      -0.552790       -15.0422
  44   2.0000      -0.538396       -14.6505
  45   2.0000      -0.527548       -14.3553
  46   2.0000      -0.517996       -14.0954
  47   2.0000      -0.502999       -13.6873
  48   2.0000      -0.500086       -13.6080
  49   2.0000      -0.493764       -13.4360
  50   2.0000      -0.486928       -13.2500
  51   2.0000      -0.480882       -13.0855
  52   2.0000      -0.471263       -12.8237
  53   2.0000      -0.462201       -12.5771
  54   2.0000      -0.458252       -12.4697
  55   2.0000      -0.453641       -12.3442
  56   2.0000      -0.446505       -12.1500
  57   2.0000      -0.441533       -12.0147
  58   2.0000      -0.433104       -11.7853
  59   2.0000      -0.422251       -11.4900
  60   2.0000      -0.413727       -11.2581
  61   2.0000      -0.412880       -11.2350
  62   2.0000      -0.407960       -11.1012
  63   2.0000      -0.352864        -9.6019
  64   2.0000      -0.331732        -9.0269
  65   2.0000      -0.324028        -8.8172
  66   2.0000      -0.282620        -7.6905
  67   0.0000       0.033227         0.9041
  68   0.0000       0.064807         1.7635
  69   0.0000       0.105962         2.8834
  70   0.0000       0.115925         3.1545
  71   0.0000       0.131688         3.5834

MULLIKEN ATOMIC CHARGES
-----------------------
   0 S :    0.117501
   1 C :   -0.136194
   2 C :   -0.090580
   3 C :    0.037908
   4 C :   -0.148478
   5 H :    0.001187
   6 C :    0.091819
   7 H :    0.012524
   8 H :    0.008604
   9 C :   -0.090541
  10 H :    0.046696
  11 H :    0.041629
  12 C :   -0.073982
  13 H :    0.043562
  14 H :    0.022386
  15 H :    0.051507
  16 S :    0.101913
  17 C :   -0.082069
  18 C :   -0.026206
  19 C :   -0.080735
  20 C :   -0.143406
  21 H :    0.009171
  22 C :    0.111720
  23 H :    0.009828
  24 H :    0.019907
  25 C :   -0.100848
  26 H :    0.027289
  27 H :    0.045706
  28 C :   -0.052860
  29 H :    0.050962
  30 H :    0.033911
  31 H :    0.040690
  32 H :    0.052154
  33 H :    0.047323
Sum of atomic charges:    0.0000000

LOEWDIN ATOMIC CHARGES
----------------------
   0 S :    0.425339
   1 C :   -0.217773
   2 C :   -0.069201
   3 C :   -0.054019
   4 C :   -0.184819
   5 H :    0.030338
   6 C :   -0.032293
   7 H :    0.027231
   8 H :    0.026278
   9 C :   -0.048183
  10 H :    0.034924
  11 H :    0.030689
  12 C :   -0.076831
  13 H :    0.033658
  14 H :    0.021621
  15 H :    0.030579
  16 S :    0.385062
  17 C :   -0.181536
  18 C :   -0.065788
  19 C :   -0.056671
  20 C :   -0.188303
  21 H :    0.024850
  22 C :   -0.017205
  23 H :    0.017168
  24 H :    0.028166
  25 C :   -0.040262
  26 H :    0.024966
  27 H :    0.026146
  28 C :   -0.075961
  29 H :    0.038996
  30 H :    0.021505
  31 H :    0.030527
  32 H :    0.023141
  33 H :    0.027660

  Mayer bond orders larger than 0.100000
B(  0-S ,  1-C ) :   1.1787 B(  0-S ,  4-C ) :   1.1538 B(  1-C ,  2-C ) :   1.5646
B(  1-C , 32-H ) :   0.9668 B(  2-C ,  3-C ) :   1.2833 B(  2-C ,  6-C ) :   1.0212
B(  3-C ,  4-C ) :   1.5609 B(  3-C ,  5-H ) :   0.9960 B(  4-C , 20-C ) :   1.0170
B(  6-C ,  7-H ) :   0.9378 B(  6-C ,  8-H ) :   0.9388 B(  6-C ,  9-C ) :   1.0640
B(  9-C , 10-H ) :   0.9560 B(  9-C , 11-H ) :   0.9542 B(  9-C , 12-C ) :   1.0883
B( 12-C , 13-H ) :   0.9698 B( 12-C , 14-H ) :   0.9724 B( 12-C , 15-H ) :   0.9700
B( 16-S , 17-C ) :   1.1340 B( 16-S , 20-C ) :   1.1189 B( 17-C , 18-C ) :   1.6571
B( 17-C , 33-H ) :   0.9650 B( 18-C , 19-C ) :   1.1959 B( 18-C , 21-H ) :   0.9921
B( 19-C , 20-C ) :   1.6494 B( 19-C , 22-C ) :   1.0204 B( 22-C , 23-H ) :   0.9417
B( 22-C , 24-H ) :   0.9411 B( 22-C , 25-C ) :   1.0375 B( 25-C , 26-H ) :   0.9632
B( 25-C , 27-H ) :   0.9602 B( 25-C , 28-C ) :   1.0698 B( 28-C , 29-H ) :   0.9754
B( 28-C , 30-H ) :   0.9759 B( 28-C , 31-H ) :   0.9742

Dispersion correction           -0.014302849
FINAL SINGLE POINT ENERGY     -1339.856359169228

DIPOLE MOMENT
-------------
                                X             Y             Z
Electronic contribution:    -12.01057       4.40159      20.87928
Nuclear contribution   :     12.07863      -4.46487     -21.44305
                        -----------------------------------------
Total Dipole Moment    :      0.06806      -0.06327      -0.56377
                        -----------------------------------------
Magnitude (a.u.)       :      0.57137
Magnitude (Debye)      :      1.45232

Rotational constants in cm-1:     0.017533     0.008695     0.006815
Rotational constants in MHz :   525.615174   260.661865   204.312918

                             ****ORCA TERMINATED NORMALLY****
TOTAL RUN TIME: 0 days 0 hours 0 minutes 35 seconds 173 msec
