                         Program Version 4.2.1 -  RELEASE  -
|  1> ! wB97X-D3 SP def2-SVP
|  2> %pal
|  3> nprocs 16
|  4> end
|  5>
|  6> * xyz 0 1
|  7> S 	 -91.0679 	 49.4483 	 132.028
|  8> C 	 -91.1724 	 51.1622 	 132.105
|  9> C 	 -90.0056 	 51.8427 	 131.775
| 10> C 	 -88.93 	 50.929 	 131.467
| 11> C 	 -89.3575 	 49.5942 	 131.592
| 12> H 	 -87.8598 	 51.11 	 131.188
| 13> C 	 -89.728 	 53.3499 	 131.802
| 14> H 	 -90.7175 	 53.7956 	 131.505
| 15> H 	 -89.0247 	 53.7206 	 131.072
| 16> C 	 -89.2811 	 53.9339 	 133.218
| 17> H 	 -89.4441 	 54.9569 	 133.203
| 18> H 	 -90.0134 	 53.5423 	 133.953
| 19> C 	 -87.8525 	 53.5182 	 133.516
| 20> H 	 -87.2096 	 54.0756 	 132.889
| 21> H 	 -87.5843 	 53.8901 	 134.52
| 22> H 	 -87.6616 	 52.4757 	 133.446
| 23> S 	 -89.1408 	 47.0178 	 130.651
| 24> C 	 -87.577 	 46.2842 	 130.586
| 25> C 	 -86.6597 	 47.014 	 131.295
| 26> C 	 -87.1262 	 48.2562 	 131.752
| 27> C 	 -88.4415 	 48.4154 	 131.375
| 28> H 	 -85.6567 	 46.7048 	 131.447
| 29> C 	 -86.3116 	 49.1049 	 132.718
| 30> H 	 -86.4216 	 50.1043 	 132.538
| 31> H 	 -85.2496 	 48.9009 	 132.492
| 32> C 	 -86.4342 	 48.9254 	 134.232
| 33> H 	 -85.7228 	 49.5318 	 134.744
| 34> H 	 -86.14 	 47.8791 	 134.481
| 35> C 	 -87.8191 	 49.1527 	 134.751
| 36> H 	 -88.2887 	 50.0974 	 134.31
| 37> H 	 -87.8801 	 49.2835 	 135.799
| 38> H 	 -88.5044 	 48.4062 	 134.337
| 39> H 	 -92.0761 	 51.6893 	 132.372
| 40> H 	 -87.3126 	 45.3447 	 130.21
| 41> *
| 42>
| 43>                          ****END OF INPUT****

CARTESIAN COORDINATES (ANGSTROEM)
---------------------------------
  S    -91.067900   49.448300  132.028000
  C    -91.172400   51.162200  132.105000
  C    -90.005600   51.842700  131.775000
  C    -88.930000   50.929000  131.467000
  C    -89.357500   49.594200  131.592000
  H    -87.859800   51.110000  131.188000
  C    -89.728000   53.349900  131.802000
  H    -90.717500   53.795600  131.505000
  H    -89.024700   53.720600  131.072000
  C    -89.281100   53.933900  133.218000
  H    -89.444100   54.956900  133.203000
  H    -90.013400   53.542300  133.953000
  C    -87.852500   53.518200  133.516000
  H    -87.209600   54.075600  132.889000
  H    -87.584300   53.890100  134.520000
  H    -87.661600   52.475700  133.446000
  S    -89.140800   47.017800  130.651000
  C    -87.577000   46.284200  130.586000
  C    -86.659700   47.014000  131.295000
  C    -87.126200   48.256200  131.752000
  C    -88.441500   48.415400  131.375000
  H    -85.656700   46.704800  131.447000
  C    -86.311600   49.104900  132.718000
  H    -86.421600   50.104300  132.538000
  H    -85.249600   48.900900  132.492000
  C    -86.434200   48.925400  134.232000
  H    -85.722800   49.531800  134.744000
  H    -86.140000   47.879100  134.481000
  C    -87.819100   49.152700  134.751000
  H    -88.288700   50.097400  134.310000
  H    -87.880100   49.283500  135.799000
  H    -88.504400   48.406200  134.337000
  H    -92.076100   51.689300  132.372000
  H    -87.312600   45.344700  130.210000

 Total Charge           Charge          ....    0
 Multiplicity           Mult            ....    1
 Number of Electrons    NEL             ....  134
 Basis Dimension        Dim             ....  322

ORBITAL ENERGIES
----------------

  NO   OCC          E(Eh)            E(eV)
   0   2.0000     -88.973480     -2421.0915
   1   2.0000     -88.968615     -2420.9591
   2   2.0000     -10.333776      -281.1963
   3   2.0000     -10.327013      -281.0123
   4   2.0000     -10.313736      -280.6510
   5   2.0000     -10.309248      -280.5289
   6   2.0000     -10.306150      -280.4446
   7   2.0000     -10.299326      -280.2589
   8   2.0000     -10.298249      -280.2296
   9   2.0000     -10.296746      -280.1887
  10   2.0000     -10.286227      -279.9025
  11   2.0000     -10.286127      -279.8997
  12   2.0000     -10.285980      -279.8957
  13   2.0000     -10.281708      -279.7795
  14   2.0000     -10.273341      -279.5518
  15   2.0000     -10.267533      -279.3938
  16   2.0000      -8.087935      -220.0839
  17   2.0000      -8.084245      -219.9835
  18   2.0000      -6.046436      -164.5319
  19   2.0000      -6.042598      -164.4275
  20   2.0000      -6.042586      -164.4271
  21   2.0000      -6.038803      -164.3242
  22   2.0000      -6.038646      -164.3199
  23   2.0000      -6.034956      -164.2195
  24   2.0000      -1.010789       -27.5050
  25   2.0000      -0.986656       -26.8483
  26   2.0000      -0.913212       -24.8498
  27   2.0000      -0.906136       -24.6572
  28   2.0000      -0.865615       -23.5546
  29   2.0000      -0.855641       -23.2832
  30   2.0000      -0.848445       -23.0874
  31   2.0000      -0.812247       -22.1024
  32   2.0000      -0.785607       -21.3774
  33   2.0000      -0.773515       -21.0484
  34   2.0000      -0.705884       -19.2081
  35   2.0000      -0.700092       -19.0505
  36   2.0000      -0.692081       -18.8325
  37   2.0000      -0.666627       -18.1398
  38   2.0000      -0.639479       -17.4011
  39   2.0000      -0.613278       -16.6881
  40   2.0000      -0.598644       -16.2899
  41   2.0000      -0.574089       -15.6218
  42   2.0000      -0.558371       -15.1941
  43   2.0000      -0.550121       -14.9695
  44   2.0000      -0.545320       -14.8389
  45   2.0000      -0.531348       -14.4587
  46   2.0000      -0.509793       -13.8722
  47   2.0000      -0.506404       -13.7800
  48   2.0000      -0.501974       -13.6594
  49   2.0000      -0.497363       -13.5339
  50   2.0000      -0.487602       -13.2683
  51   2.0000      -0.481492       -13.1021
  52   2.0000      -0.478429       -13.0187
  53   2.0000      -0.471931       -12.8419
  54   2.0000      -0.459920       -12.5151
  55   2.0000      -0.451589       -12.2884
  56   2.0000      -0.444947       -12.1076
  57   2.0000      -0.438263       -11.9258
  58   2.0000      -0.432542       -11.7701
  59   2.0000      -0.425173       -11.5695
  60   2.0000      -0.421749       -11.4764
  61   2.0000      -0.420303       -11.4370
  62   2.0000      -0.405595       -11.0368
  63   2.0000      -0.352529        -9.5928
  64   2.0000      -0.337118        -9.1734
  65   2.0000      -0.330280        -8.9874
  66   2.0000      -0.285090        -7.7577
  67   0.0000       0.027092         0.7372
  68   0.0000       0.074305         2.0219
  69   0.0000       0.102069         2.7774
  70   0.0000       0.118972         3.2374
  71   0.0000       0.133650         3.6368

MULLIKEN ATOMIC CHARGES
-----------------------
   0 S :    0.124756
   1 C :   -0.116411
   2 C :   -0.067089
   3 C :   -0.018311
   4 C :   -0.143480
   5 H :    0.043516
   6 C :    0.022126
   7 H :    0.025453
   8 H :    0.026500
   9 C :   -0.040304
  10 H :    0.017419
  11 H :    0.026372
  12 C :   -0.016654
  13 H :    0.013065
  14 H :    0.028693
  15 H :    0.034366
  16 S :    0.118553
  17 C :   -0.052347
  18 C :   -0.028594
  19 C :   -0.055397
  20 C :   -0.167624
  21 H :   -0.001454
  22 C :    0.114828
  23 H :   -0.022855
  24 H :    0.012622
  25 C :   -0.028876
  26 H :    0.020004
  27 H :    0.018248
  28 C :   -0.056861
  29 H :    0.030148
  30 H :    0.029666
  31 H :    0.039578
  32 H :    0.041426
  33 H :    0.028918
Sum of atomic charges:    0.0000000

LOEWDIN ATOMIC CHARGES
----------------------
   0 S :    0.410338
   1 C :   -0.209658
   2 C :   -0.060855
   3 C :   -0.071072
   4 C :   -0.186447
   5 H :    0.041832
   6 C :   -0.033347
   7 H :    0.032329
   8 H :    0.025938
   9 C :   -0.028479
  10 H :    0.014122
  11 H :    0.025376
  12 C :   -0.058619
  13 H :    0.019744
  14 H :    0.030634
  15 H :    0.019718
  16 S :    0.426353
  17 C :   -0.186634
  18 C :   -0.059788
  19 C :   -0.065778
  20 C :   -0.197485
  21 H :    0.024853
  22 C :   -0.022786
  23 H :    0.010552
  24 H :    0.034192
  25 C :   -0.033914
  26 H :    0.021078
  27 H :    0.024307
  28 C :   -0.071274
  29 H :    0.030924
  30 H :    0.019640
  31 H :    0.028848
  32 H :    0.026095
  33 H :    0.019263

  Mayer bond orders larger than 0.100000
B(  0-S ,  1-C ) :   1.1361 B(  0-S ,  4-C ) :   1.1532 B(  1-C ,  2-C ) :   1.6247
B(  1-C , 32-H ) :   0.9638 B(  2-C ,  3-C ) :   1.2226 B(  2-C ,  6-C ) :   1.0263
B(  3-C ,  4-C ) :   1.5843 B(  3-C ,  5-H ) :   0.9828 B(  4-C , 20-C ) :   1.0238
B(  6-C ,  7-H ) :   0.9381 B(  6-C ,  8-H ) :   0.9503 B(  6-C ,  9-C ) :   1.0621
B(  9-C , 10-H ) :   0.9565 B(  9-C , 11-H ) :   0.9562 B(  9-C , 12-C ) :   1.0792
B( 12-C , 13-H ) :   0.9708 B( 12-C , 14-H ) :   0.9680 B( 12-C , 15-H ) :   0.9748
B( 16-S , 17-C ) :   1.1480 B( 16-S , 20-C ) :   1.1611 B( 17-C , 18-C ) :   1.5987
B( 17-C , 33-H ) :   0.9739 B( 18-C , 19-C ) :   1.2686 B( 18-C , 21-H ) :   0.9920
B( 19-C , 20-C ) :   1.5793 B( 19-C , 22-C ) :   1.0406 B( 22-C , 23-H ) :   0.9261
B( 22-C , 24-H ) :   0.9228 B( 22-C , 25-C ) :   1.0847 B( 25-C , 26-H ) :   0.9496
B( 25-C , 27-H ) :   0.9493 B( 25-C , 28-C ) :   1.0863 B( 28-C , 29-H ) :   0.9686
B( 28-C , 30-H ) :   0.9715 B( 28-C , 31-H ) :   0.9680

Dispersion correction           -0.016907724
FINAL SINGLE POINT ENERGY     -1339.878648378060

DIPOLE MOMENT
-------------
                                X             Y             Z
Electronic contribution:    -13.62195     -19.60663     -15.34062
Nuclear contribution   :     14.05348      20.01878      15.61539
                        -----------------------------------------
Total Dipole Moment    :      0.43153       0.41215       0.27478
                        -----------------------------------------
Magnitude (a.u.)       :      0.65695
Magnitude (Debye)      :      1.66984

Rotational constants in cm-1:     0.020563     0.010151     0.007929
Rotational constants in MHz :   616.463520   304.330934   237.698810

                             ****ORCA TERMINATED NORMALLY****
TOTAL RUN TIME: 0 days 0 hours 0 minutes 37 seconds 776 msec
