                         Program Version 4.2.1 -  RELEASE  -
|  1> ! wB97X-D3 SP def2-SVP
|  2> %pal
|  3> nprocs 16
|  4> end
|  5>
|  6> * xyz 0 1
|  7> S 	 -2.58598 	 79.6168 	 52.075
|  8> C 	 -1.49176 	 80.4442 	 53.1068
|  9> C 	 -1.11886 	 79.7593 	 54.2467
| 10> C 	 -1.57866 	 78.417 	 54.1446
| 11> C 	 -2.27839 	 78.1108 	 52.9795
| 12> H 	 -1.44408 	 77.6897 	 54.8963
| 13> C 	 -0.189574 	 80.3399 	 55.3817
| 14> H 	 -0.81923 	 80.2051 	 56.3084
| 15> H 	 -0.152882 	 81.3597 	 55.1707
| 16> C 	 1.13705 	 79.5988 	 55.6019
| 17> H 	 1.74193 	 79.981 	 56.3697
| 18> H 	 0.850535 	 78.6808 	 56.0302
| 19> C 	 2.00631 	 79.4265 	 54.3647
| 20> H 	 2.3949 	 80.315 	 53.883
| 21> H 	 2.92145 	 78.8443 	 54.5827
| 22> H 	 1.39912 	 79.0238 	 53.5739
| 23> S 	 -4.72611 	 77.0742 	 52.5696
| 24> C 	 -4.86076 	 75.3199 	 52.3812
| 25> C 	 -3.60591 	 74.6467 	 52.2625
| 26> C 	 -2.55287 	 75.5659 	 52.4743
| 27> C 	 -2.99468 	 76.835 	 52.7085
| 28> H 	 -3.63311 	 73.5255 	 52.1915
| 29> C 	 -1.08347 	 75.2099 	 52.6839
| 30> H 	 -0.466718 	 76.1581 	 52.6729
| 31> H 	 -0.820086 	 74.7223 	 51.7347
| 32> C 	 -0.743661 	 74.3126 	 53.8935
| 33> H 	 0.282272 	 74.0731 	 54.0009
| 34> H 	 -1.04858 	 73.3388 	 53.4631
| 35> C 	 -1.52573 	 74.7169 	 55.1955
| 36> H 	 -2.53992 	 75.06 	 54.9363
| 37> H 	 -0.875744 	 75.4841 	 55.6269
| 38> H 	 -1.52307 	 73.9096 	 55.9549
| 39> H 	 -1.22063 	 81.4756 	 52.9372
| 40> H 	 -5.79808 	 74.7393 	 52.2611
| 41> *
| 42>
| 43>                          ****END OF INPUT****

CARTESIAN COORDINATES (ANGSTROEM)
---------------------------------
  S     -2.585980   79.616800   52.075000
  C     -1.491760   80.444200   53.106800
  C     -1.118860   79.759300   54.246700
  C     -1.578660   78.417000   54.144600
  C     -2.278390   78.110800   52.979500
  H     -1.444080   77.689700   54.896300
  C     -0.189574   80.339900   55.381700
  H     -0.819230   80.205100   56.308400
  H     -0.152882   81.359700   55.170700
  C      1.137050   79.598800   55.601900
  H      1.741930   79.981000   56.369700
  H      0.850535   78.680800   56.030200
  C      2.006310   79.426500   54.364700
  H      2.394900   80.315000   53.883000
  H      2.921450   78.844300   54.582700
  H      1.399120   79.023800   53.573900
  S     -4.726110   77.074200   52.569600
  C     -4.860760   75.319900   52.381200
  C     -3.605910   74.646700   52.262500
  C     -2.552870   75.565900   52.474300
  C     -2.994680   76.835000   52.708500
  H     -3.633110   73.525500   52.191500
  C     -1.083470   75.209900   52.683900
  H     -0.466718   76.158100   52.672900
  H     -0.820086   74.722300   51.734700
  C     -0.743661   74.312600   53.893500
  H      0.282272   74.073100   54.000900
  H     -1.048580   73.338800   53.463100
  C     -1.525730   74.716900   55.195500
  H     -2.539920   75.060000   54.936300
  H     -0.875744   75.484100   55.626900
  H     -1.523070   73.909600   55.954900
  H     -1.220630   81.475600   52.937200
  H     -5.798080   74.739300   52.261100

 Total Charge           Charge          ....    0
 Multiplicity           Mult            ....    1
 Number of Electrons    NEL             ....  134
 Basis Dimension        Dim             ....  322

ORBITAL ENERGIES
----------------

  NO   OCC          E(Eh)            E(eV)
   0   2.0000     -88.970142     -2421.0007
   1   2.0000     -88.967757     -2420.9357
   2   2.0000     -10.330890      -281.1178
   3   2.0000     -10.324881      -280.9543
   4   2.0000     -10.324337      -280.9395
   5   2.0000     -10.311031      -280.5774
   6   2.0000     -10.304167      -280.3906
   7   2.0000     -10.302443      -280.3437
   8   2.0000     -10.301871      -280.3282
   9   2.0000     -10.298349      -280.2323
  10   2.0000     -10.292781      -280.0808
  11   2.0000     -10.290939      -280.0307
  12   2.0000     -10.287040      -279.9246
  13   2.0000     -10.283921      -279.8397
  14   2.0000     -10.281196      -279.7656
  15   2.0000     -10.272261      -279.5224
  16   2.0000      -8.084429      -219.9885
  17   2.0000      -8.082495      -219.9359
  18   2.0000      -6.042787      -164.4326
  19   2.0000      -6.040905      -164.3814
  20   2.0000      -6.039183      -164.3345
  21   2.0000      -6.037166      -164.2796
  22   2.0000      -6.035173      -164.2254
  23   2.0000      -6.033208      -164.1719
  24   2.0000      -1.005383       -27.3579
  25   2.0000      -0.983196       -26.7541
  26   2.0000      -0.909452       -24.7474
  27   2.0000      -0.903685       -24.5905
  28   2.0000      -0.863745       -23.5037
  29   2.0000      -0.848765       -23.0961
  30   2.0000      -0.844917       -22.9914
  31   2.0000      -0.810678       -22.0597
  32   2.0000      -0.783487       -21.3198
  33   2.0000      -0.772912       -21.0320
  34   2.0000      -0.712756       -19.3951
  35   2.0000      -0.700751       -19.0684
  36   2.0000      -0.689888       -18.7728
  37   2.0000      -0.659029       -17.9331
  38   2.0000      -0.641519       -17.4566
  39   2.0000      -0.619076       -16.8459
  40   2.0000      -0.580556       -15.7977
  41   2.0000      -0.561916       -15.2905
  42   2.0000      -0.555337       -15.1115
  43   2.0000      -0.551872       -15.0172
  44   2.0000      -0.546601       -14.8738
  45   2.0000      -0.541497       -14.7349
  46   2.0000      -0.513171       -13.9641
  47   2.0000      -0.506943       -13.7946
  48   2.0000      -0.489187       -13.3114
  49   2.0000      -0.486661       -13.2427
  50   2.0000      -0.483518       -13.1572
  51   2.0000      -0.479673       -13.0526
  52   2.0000      -0.468059       -12.7365
  53   2.0000      -0.465680       -12.6718
  54   2.0000      -0.458407       -12.4739
  55   2.0000      -0.451366       -12.2823
  56   2.0000      -0.449935       -12.2434
  57   2.0000      -0.444549       -12.0968
  58   2.0000      -0.440201       -11.9785
  59   2.0000      -0.430048       -11.7022
  60   2.0000      -0.421695       -11.4749
  61   2.0000      -0.409815       -11.1516
  62   2.0000      -0.397638       -10.8203
  63   2.0000      -0.343713        -9.3529
  64   2.0000      -0.335507        -9.1296
  65   2.0000      -0.329239        -8.9591
  66   2.0000      -0.291676        -7.9369
  67   0.0000       0.034826         0.9477
  68   0.0000       0.056914         1.5487
  69   0.0000       0.103486         2.8160
  70   0.0000       0.123490         3.3603
  71   0.0000       0.129588         3.5263

MULLIKEN ATOMIC CHARGES
-----------------------
   0 S :    0.114406
   1 C :   -0.125462
   2 C :   -0.113277
   3 C :    0.048048
   4 C :   -0.145912
   5 H :   -0.025456
   6 C :    0.096306
   7 H :    0.043380
   8 H :    0.003746
   9 C :   -0.009395
  10 H :    0.015298
  11 H :    0.006908
  12 C :   -0.052934
  13 H :    0.019361
  14 H :    0.036345
  15 H :    0.037838
  16 S :    0.117788
  17 C :   -0.112930
  18 C :   -0.074031
  19 C :   -0.041469
  20 C :   -0.173411
  21 H :    0.047102
  22 C :    0.042728
  23 H :    0.042138
  24 H :    0.029165
  25 C :   -0.057856
  26 H :    0.021141
  27 H :    0.010385
  28 C :   -0.058052
  29 H :    0.071565
  30 H :    0.041444
  31 H :    0.038686
  32 H :    0.042469
  33 H :    0.063936
Sum of atomic charges:   -0.0000000

LOEWDIN ATOMIC CHARGES
----------------------
   0 S :    0.402013
   1 C :   -0.203111
   2 C :   -0.066021
   3 C :   -0.054078
   4 C :   -0.188773
   5 H :    0.019688
   6 C :   -0.016938
   7 H :    0.042286
   8 H :    0.016723
   9 C :   -0.037904
  10 H :    0.021125
  11 H :    0.019882
  12 C :   -0.067977
  13 H :    0.023503
  14 H :    0.030522
  15 H :    0.025167
  16 S :    0.401774
  17 C :   -0.184953
  18 C :   -0.076470
  19 C :   -0.065233
  20 C :   -0.193700
  21 H :    0.044704
  22 C :   -0.034626
  23 H :    0.032485
  24 H :    0.032530
  25 C :   -0.045055
  26 H :    0.021108
  27 H :    0.021494
  28 C :   -0.065801
  29 H :    0.035073
  30 H :    0.025649
  31 H :    0.029494
  32 H :    0.023365
  33 H :    0.032056

  Mayer bond orders larger than 0.100000
B(  0-S ,  1-C ) :   1.1567 B(  0-S ,  4-C ) :   1.1387 B(  1-C ,  2-C ) :   1.6049
B(  1-C , 32-H ) :   0.9606 B(  2-C ,  3-C ) :   1.2448 B(  2-C ,  6-C ) :   1.0077
B(  3-C ,  4-C ) :   1.5719 B(  3-C ,  5-H ) :   0.9997 B(  4-C , 20-C ) :   1.0169
B(  6-C ,  7-H ) :   0.9411 B(  6-C ,  8-H ) :   0.9433 B(  6-C ,  9-C ) :   1.0646
B(  9-C , 10-H ) :   0.9528 B(  9-C , 11-H ) :   0.9476 B(  9-C , 12-C ) :   1.0790
B( 12-C , 13-H ) :   0.9737 B( 12-C , 14-H ) :   0.9732 B( 12-C , 15-H ) :   0.9723
B( 16-S , 17-C ) :   1.1538 B( 16-S , 20-C ) :   1.1408 B( 17-C , 18-C ) :   1.6243
B( 17-C , 20-C ) :   0.1031 B( 17-C , 33-H ) :   0.9619 B( 18-C , 19-C ) :   1.2115
B( 18-C , 21-H ) :   0.9842 B( 19-C , 20-C ) :   1.6302 B( 19-C , 22-C ) :   1.0378
B( 22-C , 23-H ) :   0.9347 B( 22-C , 24-H ) :   0.9362 B( 22-C , 25-C ) :   1.0516
B( 25-C , 26-H ) :   0.9587 B( 25-C , 27-H ) :   0.9543 B( 25-C , 28-C ) :   1.0617
B( 28-C , 29-H ) :   0.9698 B( 28-C , 30-H ) :   0.9698 B( 28-C , 31-H ) :   0.9729

Dispersion correction           -0.015969252
FINAL SINGLE POINT ENERGY     -1339.861183772656

DIPOLE MOMENT
-------------
                                X             Y             Z
Electronic contribution:    -23.05535       7.16219     -14.59368
Nuclear contribution   :     23.46239      -7.42169      15.01843
                        -----------------------------------------
Total Dipole Moment    :      0.40703      -0.25950       0.42475
                        -----------------------------------------
Magnitude (a.u.)       :      0.64298
Magnitude (Debye)      :      1.63434

Rotational constants in cm-1:     0.019392     0.010044     0.007417
Rotational constants in MHz :   581.345208   301.099707   222.341114

                             ****ORCA TERMINATED NORMALLY****
TOTAL RUN TIME: 0 days 0 hours 0 minutes 36 seconds 71 msec
