                         Program Version 4.2.1 -  RELEASE  -
|  1> ! wB97X-D3 SP def2-SVP
|  2> %pal
|  3> nprocs 16
|  4> end
|  5>
|  6> * xyz 0 1
|  7> S 	 -50.4522 	 9.49803 	 87.6219
|  8> C 	 -49.3321 	 9.48716 	 88.9889
|  9> C 	 -48.6397 	 8.28622 	 89.0341
| 10> C 	 -48.9423 	 7.34262 	 87.9957
| 11> C 	 -49.9503 	 7.89012 	 87.2044
| 12> H 	 -48.5286 	 6.38353 	 87.9307
| 13> C 	 -47.5385 	 7.97338 	 90.0377
| 14> H 	 -46.52 	 8.12696 	 89.5374
| 15> H 	 -47.5473 	 6.87537 	 90.1559
| 16> C 	 -47.6209 	 8.5491 	 91.4234
| 17> H 	 -46.7305 	 8.1514 	 91.8778
| 18> H 	 -47.5431 	 9.5774 	 91.3388
| 19> C 	 -48.9233 	 8.08949 	 92.1965
| 20> H 	 -49.8007 	 8.48845 	 91.6926
| 21> H 	 -49.066 	 7.05214 	 92.0127
| 22> H 	 -49.006 	 8.26861 	 93.2533
| 23> S 	 -49.5632 	 6.22683 	 85.0775
| 24> C 	 -50.875 	 5.79458 	 84.0801
| 25> C 	 -52.0926 	 6.29957 	 84.4899
| 26> C 	 -51.8818 	 7.22656 	 85.6038
| 27> C 	 -50.5838 	 7.25969 	 86.0581
| 28> H 	 -52.931 	 6.06433 	 83.9409
| 29> C 	 -53.0952 	 7.90965 	 86.2463
| 30> H 	 -52.8639 	 8.08736 	 87.2861
| 31> H 	 -53.9476 	 7.24666 	 86.2701
| 32> C 	 -53.6435 	 9.19801 	 85.5621
| 33> H 	 -53.8095 	 8.89967 	 84.5117
| 34> H 	 -52.8592 	 9.99501 	 85.5297
| 35> C 	 -54.9086 	 9.88864 	 86.1814
| 36> H 	 -55.6978 	 9.2401 	 85.7561
| 37> H 	 -54.972 	 10.9717 	 86.0376
| 38> H 	 -54.7691 	 9.76525 	 87.2403
| 39> H 	 -49.0536 	 10.3735 	 89.5152
| 40> H 	 -50.8688 	 4.93697 	 83.4367
| 41> *
| 42>
| 43>                          ****END OF INPUT****

CARTESIAN COORDINATES (ANGSTROEM)
---------------------------------
  S    -50.452200    9.498030   87.621900
  C    -49.332100    9.487160   88.988900
  C    -48.639700    8.286220   89.034100
  C    -48.942300    7.342620   87.995700
  C    -49.950300    7.890120   87.204400
  H    -48.528600    6.383530   87.930700
  C    -47.538500    7.973380   90.037700
  H    -46.520000    8.126960   89.537400
  H    -47.547300    6.875370   90.155900
  C    -47.620900    8.549100   91.423400
  H    -46.730500    8.151400   91.877800
  H    -47.543100    9.577400   91.338800
  C    -48.923300    8.089490   92.196500
  H    -49.800700    8.488450   91.692600
  H    -49.066000    7.052140   92.012700
  H    -49.006000    8.268610   93.253300
  S    -49.563200    6.226830   85.077500
  C    -50.875000    5.794580   84.080100
  C    -52.092600    6.299570   84.489900
  C    -51.881800    7.226560   85.603800
  C    -50.583800    7.259690   86.058100
  H    -52.931000    6.064330   83.940900
  C    -53.095200    7.909650   86.246300
  H    -52.863900    8.087360   87.286100
  H    -53.947600    7.246660   86.270100
  C    -53.643500    9.198010   85.562100
  H    -53.809500    8.899670   84.511700
  H    -52.859200    9.995010   85.529700
  C    -54.908600    9.888640   86.181400
  H    -55.697800    9.240100   85.756100
  H    -54.972000   10.971700   86.037600
  H    -54.769100    9.765250   87.240300
  H    -49.053600   10.373500   89.515200
  H    -50.868800    4.936970   83.436700

 Total Charge           Charge          ....    0
 Multiplicity           Mult            ....    1
 Number of Electrons    NEL             ....  134
 Basis Dimension        Dim             ....  322

ORBITAL ENERGIES
----------------

  NO   OCC          E(Eh)            E(eV)
   0   2.0000     -88.970492     -2421.0102
   1   2.0000     -88.964805     -2420.8554
   2   2.0000     -10.334597      -281.2187
   3   2.0000     -10.325719      -280.9771
   4   2.0000     -10.311690      -280.5954
   5   2.0000     -10.310900      -280.5739
   6   2.0000     -10.307596      -280.4839
   7   2.0000     -10.302914      -280.3565
   8   2.0000     -10.294922      -280.1391
   9   2.0000     -10.294836      -280.1367
  10   2.0000     -10.291597      -280.0486
  11   2.0000     -10.289084      -279.9802
  12   2.0000     -10.287312      -279.9320
  13   2.0000     -10.282477      -279.8004
  14   2.0000     -10.280161      -279.7374
  15   2.0000     -10.273017      -279.5430
  16   2.0000      -8.084655      -219.9947
  17   2.0000      -8.080500      -219.8816
  18   2.0000      -6.043123      -164.4417
  19   2.0000      -6.039229      -164.3358
  20   2.0000      -6.038962      -164.3285
  21   2.0000      -6.035517      -164.2348
  22   2.0000      -6.034890      -164.2177
  23   2.0000      -6.031244      -164.1185
  24   2.0000      -1.010339       -27.4927
  25   2.0000      -0.985524       -26.8175
  26   2.0000      -0.914210       -24.8769
  27   2.0000      -0.900845       -24.5132
  28   2.0000      -0.869174       -23.6514
  29   2.0000      -0.854073       -23.2405
  30   2.0000      -0.845478       -23.0066
  31   2.0000      -0.811767       -22.0893
  32   2.0000      -0.784704       -21.3529
  33   2.0000      -0.773724       -21.0541
  34   2.0000      -0.713666       -19.4198
  35   2.0000      -0.702307       -19.1107
  36   2.0000      -0.687552       -18.7092
  37   2.0000      -0.667170       -18.1546
  38   2.0000      -0.644079       -17.5263
  39   2.0000      -0.609524       -16.5860
  40   2.0000      -0.595804       -16.2126
  41   2.0000      -0.578251       -15.7350
  42   2.0000      -0.563811       -15.3421
  43   2.0000      -0.553114       -15.0510
  44   2.0000      -0.540309       -14.7026
  45   2.0000      -0.524238       -14.2652
  46   2.0000      -0.516208       -14.0467
  47   2.0000      -0.512718       -13.9518
  48   2.0000      -0.506990       -13.7959
  49   2.0000      -0.494229       -13.4487
  50   2.0000      -0.491457       -13.3732
  51   2.0000      -0.479997       -13.0614
  52   2.0000      -0.474521       -12.9124
  53   2.0000      -0.468161       -12.7393
  54   2.0000      -0.461882       -12.5685
  55   2.0000      -0.449096       -12.2205
  56   2.0000      -0.444099       -12.0846
  57   2.0000      -0.439682       -11.9644
  58   2.0000      -0.428461       -11.6590
  59   2.0000      -0.422666       -11.5013
  60   2.0000      -0.417983       -11.3739
  61   2.0000      -0.416624       -11.3369
  62   2.0000      -0.404290       -11.0013
  63   2.0000      -0.355392        -9.6707
  64   2.0000      -0.332698        -9.0532
  65   2.0000      -0.330821        -9.0021
  66   2.0000      -0.288428        -7.8485
  67   0.0000       0.024953         0.6790
  68   0.0000       0.079785         2.1711
  69   0.0000       0.101555         2.7635
  70   0.0000       0.113789         3.0963
  71   0.0000       0.128400         3.4939

MULLIKEN ATOMIC CHARGES
-----------------------
   0 S :    0.112168
   1 C :   -0.120574
   2 C :   -0.086738
   3 C :    0.022432
   4 C :   -0.124808
   5 H :    0.003208
   6 C :   -0.009743
   7 H :    0.054663
   8 H :    0.016693
   9 C :   -0.011464
  10 H :    0.026622
  11 H :    0.015328
  12 C :   -0.037979
  13 H :    0.029772
  14 H :    0.011676
  15 H :    0.041337
  16 S :    0.102976
  17 C :   -0.073663
  18 C :   -0.016691
  19 C :   -0.041821
  20 C :   -0.122566
  21 H :   -0.004376
  22 C :    0.059018
  23 H :    0.017937
  24 H :    0.014597
  25 C :   -0.116805
  26 H :    0.025967
  27 H :    0.025078
  28 C :   -0.034364
  29 H :    0.045257
  30 H :    0.047906
  31 H :    0.028392
  32 H :    0.046597
  33 H :    0.053972
Sum of atomic charges:   -0.0000000

LOEWDIN ATOMIC CHARGES
----------------------
   0 S :    0.424426
   1 C :   -0.205037
   2 C :   -0.054226
   3 C :   -0.062861
   4 C :   -0.178083
   5 H :    0.024859
   6 C :   -0.041617
   7 H :    0.043185
   8 H :    0.027232
   9 C :   -0.031940
  10 H :    0.027842
  11 H :    0.010697
  12 C :   -0.063207
  13 H :    0.028231
  14 H :    0.021376
  15 H :    0.024608
  16 S :    0.422602
  17 C :   -0.195730
  18 C :   -0.056753
  19 C :   -0.052766
  20 C :   -0.198242
  21 H :    0.019879
  22 C :   -0.039026
  23 H :    0.016337
  24 H :    0.027232
  25 C :   -0.047024
  26 H :    0.019008
  27 H :    0.017132
  28 C :   -0.066307
  29 H :    0.032359
  30 H :    0.031955
  31 H :    0.023972
  32 H :    0.023545
  33 H :    0.026341

  Mayer bond orders larger than 0.100000
B(  0-S ,  1-C ) :   1.1114 B(  0-S ,  4-C ) :   1.1773 B(  1-C ,  2-C ) :   1.6222
B(  1-C , 32-H ) :   0.9705 B(  2-C ,  3-C ) :   1.2438 B(  2-C ,  6-C ) :   1.0121
B(  3-C ,  4-C ) :   1.5308 B(  3-C ,  5-H ) :   1.0022 B(  4-C , 20-C ) :   1.0458
B(  6-C ,  7-H ) :   0.9334 B(  6-C ,  8-H ) :   0.9431 B(  6-C ,  9-C ) :   1.0819
B(  9-C , 10-H ) :   0.9510 B(  9-C , 11-H ) :   0.9528 B(  9-C , 12-C ) :   1.0669
B( 12-C , 13-H ) :   0.9718 B( 12-C , 14-H ) :   0.9740 B( 12-C , 15-H ) :   0.9798
B( 16-S , 17-C ) :   1.1644 B( 16-S , 20-C ) :   1.1314 B( 17-C , 18-C ) :   1.6332
B( 17-C , 33-H ) :   0.9596 B( 18-C , 19-C ) :   1.2107 B( 18-C , 21-H ) :   1.0034
B( 19-C , 20-C ) :   1.6050 B( 19-C , 22-C ) :   1.0483 B( 22-C , 23-H ) :   0.9278
B( 22-C , 24-H ) :   0.9380 B( 22-C , 25-C ) :   1.0516 B( 25-C , 26-H ) :   0.9639
B( 25-C , 27-H ) :   0.9568 B( 25-C , 28-C ) :   1.0586 B( 28-C , 29-H ) :   0.9798
B( 28-C , 30-H ) :   0.9773 B( 28-C , 31-H ) :   0.9764

Dispersion correction           -0.014229122
FINAL SINGLE POINT ENERGY     -1339.870884362018

DIPOLE MOMENT
-------------
                                X             Y             Z
Electronic contribution:      7.82939      -5.35347     -15.42261
Nuclear contribution   :     -7.86148       5.17153      15.66766
                        -----------------------------------------
Total Dipole Moment    :     -0.03210      -0.18193       0.24505
                        -----------------------------------------
Magnitude (a.u.)       :      0.30689
Magnitude (Debye)      :      0.78005

Rotational constants in cm-1:     0.020067     0.008298     0.006362
Rotational constants in MHz :   601.600197   248.780695   190.729997

                             ****ORCA TERMINATED NORMALLY****
TOTAL RUN TIME: 0 days 0 hours 0 minutes 29 seconds 398 msec
