                         Program Version 4.2.1 -  RELEASE  -
|  1> ! wB97X-D3 SP def2-SVP
|  2> %pal
|  3> nprocs 16
|  4> end
|  5>
|  6> * xyz 0 1
|  7> S 	 -3.96354 	 76.6592 	 46.2466
|  8> C 	 -4.2277 	 74.9745 	 46.3501
|  9> C 	 -3.52167 	 74.292 	 45.3749
| 10> C 	 -2.75097 	 75.1571 	 44.6081
| 11> C 	 -2.80224 	 76.4721 	 44.99
| 12> H 	 -2.12279 	 74.8441 	 43.7683
| 13> C 	 -3.51319 	 72.7786 	 45.302
| 14> H 	 -3.72177 	 72.2545 	 44.3955
| 15> H 	 -4.16781 	 72.4739 	 46.1234
| 16> C 	 -2.0848 	 72.2215 	 45.6001
| 17> H 	 -2.1532 	 71.1 	 45.6523
| 18> H 	 -1.42175 	 72.4985 	 44.7559
| 19> C 	 -1.40644 	 72.7167 	 46.9038
| 20> H 	 -2.06284 	 72.8607 	 47.7614
| 21> H 	 -0.59219 	 72.1639 	 47.283
| 22> H 	 -0.990976 	 73.7213 	 46.8056
| 23> S 	 -3.32151 	 78.8462 	 43.8652
| 24> C 	 -2.1379 	 79.6461 	 42.8367
| 25> C 	 -0.962144 	 78.9209 	 42.8208
| 26> C 	 -0.978974 	 77.7581 	 43.6747
| 27> C 	 -2.17822 	 77.6189 	 44.3001
| 28> H 	 -0.184245 	 79.3093 	 42.2016
| 29> C 	 0.196001 	 76.7572 	 43.7561
| 30> H 	 1.09769 	 76.9249 	 43.1826
| 31> H 	 -0.0547953 	 75.7594 	 43.3626
| 32> C 	 0.769261 	 76.5701 	 45.1557
| 33> H 	 1.321 	 75.643 	 45.2464
| 34> H 	 0.047016 	 76.5335 	 46.0124
| 35> C 	 1.85637 	 77.6027 	 45.4378
| 36> H 	 2.36214 	 77.4676 	 46.4714
| 37> H 	 1.50396 	 78.6251 	 45.362
| 38> H 	 2.68049 	 77.6114 	 44.7351
| 39> H 	 -4.86849 	 74.4873 	 47.0634
| 40> H 	 -2.20772 	 80.5768 	 42.3444
| 41> *
| 42>
| 43>                          ****END OF INPUT****

CARTESIAN COORDINATES (ANGSTROEM)
---------------------------------
  S     -3.963540   76.659200   46.246600
  C     -4.227700   74.974500   46.350100
  C     -3.521670   74.292000   45.374900
  C     -2.750970   75.157100   44.608100
  C     -2.802240   76.472100   44.990000
  H     -2.122790   74.844100   43.768300
  C     -3.513190   72.778600   45.302000
  H     -3.721770   72.254500   44.395500
  H     -4.167810   72.473900   46.123400
  C     -2.084800   72.221500   45.600100
  H     -2.153200   71.100000   45.652300
  H     -1.421750   72.498500   44.755900
  C     -1.406440   72.716700   46.903800
  H     -2.062840   72.860700   47.761400
  H     -0.592190   72.163900   47.283000
  H     -0.990976   73.721300   46.805600
  S     -3.321510   78.846200   43.865200
  C     -2.137900   79.646100   42.836700
  C     -0.962144   78.920900   42.820800
  C     -0.978974   77.758100   43.674700
  C     -2.178220   77.618900   44.300100
  H     -0.184245   79.309300   42.201600
  C      0.196001   76.757200   43.756100
  H      1.097690   76.924900   43.182600
  H     -0.054795   75.759400   43.362600
  C      0.769261   76.570100   45.155700
  H      1.321000   75.643000   45.246400
  H      0.047016   76.533500   46.012400
  C      1.856370   77.602700   45.437800
  H      2.362140   77.467600   46.471400
  H      1.503960   78.625100   45.362000
  H      2.680490   77.611400   44.735100
  H     -4.868490   74.487300   47.063400
  H     -2.207720   80.576800   42.344400

 Total Charge           Charge          ....    0
 Multiplicity           Mult            ....    1
 Number of Electrons    NEL             ....  134
 Basis Dimension        Dim             ....  322

ORBITAL ENERGIES
----------------

  NO   OCC          E(Eh)            E(eV)
   0   2.0000     -88.968448     -2420.9545
   1   2.0000     -88.965638     -2420.8781
   2   2.0000     -10.327494      -281.0254
   3   2.0000     -10.326914      -281.0096
   4   2.0000     -10.314661      -280.6762
   5   2.0000     -10.310918      -280.5743
   6   2.0000     -10.308540      -280.5096
   7   2.0000     -10.297445      -280.2077
   8   2.0000     -10.296608      -280.1849
   9   2.0000     -10.295360      -280.1510
  10   2.0000     -10.294627      -280.1310
  11   2.0000     -10.294098      -280.1166
  12   2.0000     -10.289844      -280.0009
  13   2.0000     -10.284208      -279.8475
  14   2.0000     -10.276080      -279.6264
  15   2.0000     -10.269502      -279.4474
  16   2.0000      -8.084298      -219.9849
  17   2.0000      -8.080690      -219.8868
  18   2.0000      -6.042579      -164.4269
  19   2.0000      -6.039274      -164.3370
  20   2.0000      -6.038583      -164.3182
  21   2.0000      -6.035303      -164.2289
  22   2.0000      -6.035110      -164.2237
  23   2.0000      -6.031363      -164.1217
  24   2.0000      -1.017531       -27.6884
  25   2.0000      -0.991927       -26.9917
  26   2.0000      -0.911447       -24.8017
  27   2.0000      -0.909524       -24.7494
  28   2.0000      -0.869942       -23.6723
  29   2.0000      -0.851402       -23.1678
  30   2.0000      -0.842977       -22.9386
  31   2.0000      -0.818468       -22.2716
  32   2.0000      -0.785970       -21.3873
  33   2.0000      -0.776584       -21.1319
  34   2.0000      -0.711631       -19.3645
  35   2.0000      -0.695402       -18.9228
  36   2.0000      -0.687860       -18.7176
  37   2.0000      -0.665872       -18.1193
  38   2.0000      -0.642625       -17.4867
  39   2.0000      -0.627585       -17.0774
  40   2.0000      -0.601876       -16.3779
  41   2.0000      -0.574590       -15.6354
  42   2.0000      -0.552254       -15.0276
  43   2.0000      -0.548953       -14.9378
  44   2.0000      -0.541118       -14.7246
  45   2.0000      -0.538256       -14.6467
  46   2.0000      -0.516038       -14.0421
  47   2.0000      -0.512675       -13.9506
  48   2.0000      -0.505356       -13.7514
  49   2.0000      -0.493082       -13.4175
  50   2.0000      -0.487035       -13.2529
  51   2.0000      -0.476787       -12.9740
  52   2.0000      -0.473284       -12.8787
  53   2.0000      -0.468898       -12.7594
  54   2.0000      -0.461646       -12.5620
  55   2.0000      -0.446129       -12.1398
  56   2.0000      -0.439076       -11.9479
  57   2.0000      -0.437061       -11.8930
  58   2.0000      -0.429874       -11.6975
  59   2.0000      -0.425167       -11.5694
  60   2.0000      -0.422713       -11.5026
  61   2.0000      -0.416542       -11.3347
  62   2.0000      -0.409166       -11.1340
  63   2.0000      -0.352661        -9.5964
  64   2.0000      -0.334833        -9.1113
  65   2.0000      -0.331200        -9.0124
  66   2.0000      -0.294738        -8.0202
  67   0.0000       0.030613         0.8330
  68   0.0000       0.074525         2.0279
  69   0.0000       0.109069         2.9679
  70   0.0000       0.118367         3.2209
  71   0.0000       0.133602         3.6355

MULLIKEN ATOMIC CHARGES
-----------------------
   0 S :    0.122045
   1 C :   -0.119961
   2 C :   -0.082465
   3 C :    0.019513
   4 C :   -0.155963
   5 H :    0.010135
   6 C :    0.120096
   7 H :    0.034238
   8 H :    0.015125
   9 C :   -0.134494
  10 H :    0.042363
  11 H :    0.037179
  12 C :   -0.034197
  13 H :    0.015721
  14 H :    0.023254
  15 H :    0.025386
  16 S :    0.102449
  17 C :   -0.076162
  18 C :   -0.040884
  19 C :   -0.004683
  20 C :   -0.118563
  21 H :    0.011514
  22 C :    0.066828
  23 H :    0.009390
  24 H :    0.026736
  25 C :   -0.077022
  26 H :    0.019871
  27 H :    0.053717
  28 C :   -0.081945
  29 H :    0.042682
  30 H :    0.027181
  31 H :    0.015898
  32 H :    0.043391
  33 H :    0.041630
Sum of atomic charges:   -0.0000000

LOEWDIN ATOMIC CHARGES
----------------------
   0 S :    0.437884
   1 C :   -0.206892
   2 C :   -0.065655
   3 C :   -0.063887
   4 C :   -0.205886
   5 H :    0.032613
   6 C :   -0.023460
   7 H :    0.030943
   8 H :    0.029891
   9 C :   -0.041735
  10 H :    0.028167
  11 H :    0.023827
  12 C :   -0.076636
  13 H :    0.023479
  14 H :    0.020253
  15 H :    0.027926
  16 S :    0.409781
  17 C :   -0.178925
  18 C :   -0.064072
  19 C :   -0.058446
  20 C :   -0.192155
  21 H :    0.028720
  22 C :   -0.032299
  23 H :    0.031818
  24 H :    0.030758
  25 C :   -0.045644
  26 H :    0.023221
  27 H :    0.030525
  28 C :   -0.075167
  29 H :    0.034114
  30 H :    0.020398
  31 H :    0.016530
  32 H :    0.026141
  33 H :    0.023871

  Mayer bond orders larger than 0.100000
B(  0-S ,  1-C ) :   1.1614 B(  0-S ,  4-C ) :   1.1702 B(  1-C ,  2-C ) :   1.5724
B(  1-C ,  4-C ) :   0.1001 B(  1-C , 32-H ) :   0.9664 B(  2-C ,  3-C ) :   1.2807
B(  2-C ,  6-C ) :   1.0328 B(  3-C ,  4-C ) :   1.5447 B(  3-C ,  5-H ) :   0.9940
B(  4-C , 20-C ) :   1.0071 B(  6-C ,  7-H ) :   0.9421 B(  6-C ,  8-H ) :   0.9370
B(  6-C ,  9-C ) :   1.0627 B(  9-C , 10-H ) :   0.9623 B(  9-C , 11-H ) :   0.9576
B(  9-C , 12-C ) :   1.0633 B( 12-C , 13-H ) :   0.9757 B( 12-C , 14-H ) :   0.9763
B( 12-C , 15-H ) :   0.9691 B( 16-S , 17-C ) :   1.1381 B( 16-S , 20-C ) :   1.1507
B( 17-C , 18-C ) :   1.6366 B( 17-C , 33-H ) :   0.9716 B( 18-C , 19-C ) :   1.2145
B( 18-C , 21-H ) :   0.9967 B( 19-C , 20-C ) :   1.6304 B( 19-C , 22-C ) :   1.0279
B( 22-C , 23-H ) :   0.9415 B( 22-C , 24-H ) :   0.9377 B( 22-C , 25-C ) :   1.0636
B( 25-C , 26-H ) :   0.9524 B( 25-C , 27-H ) :   0.9585 B( 25-C , 28-C ) :   1.0744
B( 28-C , 29-H ) :   0.9741 B( 28-C , 30-H ) :   0.9776 B( 28-C , 31-H ) :   0.9715

Dispersion correction           -0.015595379
FINAL SINGLE POINT ENERGY     -1339.880504880219

DIPOLE MOMENT
-------------
                                X             Y             Z
Electronic contribution:    -21.13561      18.24672      -4.51906
Nuclear contribution   :     21.54879     -18.68134       4.28780
                        -----------------------------------------
Total Dipole Moment    :      0.41318      -0.43463      -0.23126
                        -----------------------------------------
Magnitude (a.u.)       :      0.64273
Magnitude (Debye)      :      1.63369

Rotational constants in cm-1:     0.018916     0.010182     0.007622
Rotational constants in MHz :   567.093434   305.244954   228.500451

                             ****ORCA TERMINATED NORMALLY****
TOTAL RUN TIME: 0 days 0 hours 0 minutes 36 seconds 19 msec
