                         Program Version 4.2.1 -  RELEASE  -
|  1> ! wB97X-D3 SP def2-SVP
|  2> %pal
|  3> nprocs 16
|  4> end
|  5>
|  6> * xyz 0 1
|  7> S 	 -33.0986 	 57.0831 	 105.563
|  8> C 	 -31.7921 	 57.7827 	 104.601
|  9> C 	 -31.0745 	 58.7701 	 105.277
| 10> C 	 -31.4419 	 58.7971 	 106.65
| 11> C 	 -32.428 	 57.839 	 106.98
| 12> H 	 -31.0165 	 59.4046 	 107.388
| 13> C 	 -29.9993 	 59.6421 	 104.651
| 14> H 	 -30.4727 	 60.6192 	 104.506
| 15> H 	 -29.8789 	 59.1866 	 103.672
| 16> C 	 -28.6841 	 59.8268 	 105.291
| 17> H 	 -28.7533 	 60.1381 	 106.349
| 18> H 	 -28.1777 	 58.8951 	 105.411
| 19> C 	 -27.7675 	 60.8777 	 104.482
| 20> H 	 -28.1563 	 61.8588 	 104.728
| 21> H 	 -26.7647 	 60.7617 	 104.827
| 22> H 	 -27.7903 	 60.6646 	 103.45
| 23> S 	 -32.0831 	 57.7246 	 109.766
| 24> C 	 -33.4964 	 57.8476 	 110.729
| 25> C 	 -34.6939 	 57.9135 	 110.054
| 26> C 	 -34.4739 	 57.6294 	 108.663
| 27> C 	 -33.107 	 57.7127 	 108.273
| 28> H 	 -35.5949 	 57.8655 	 110.608
| 29> C 	 -35.7266 	 57.5058 	 107.767
| 30> H 	 -35.5753 	 56.9347 	 106.844
| 31> H 	 -35.9954 	 58.5475 	 107.444
| 32> C 	 -36.8827 	 56.766 	 108.456
| 33> H 	 -37.1377 	 57.4683 	 109.33
| 34> H 	 -36.6973 	 55.7912 	 108.835
| 35> C 	 -38.0352 	 56.4884 	 107.385
| 36> H 	 -38.1655 	 57.2917 	 106.693
| 37> H 	 -39.0314 	 56.2393 	 107.812
| 38> H 	 -37.8572 	 55.6471 	 106.694
| 39> H 	 -31.6506 	 57.5741 	 103.529
| 40> H 	 -33.4982 	 57.7151 	 111.769
| 41> *
| 42>
| 43>                          ****END OF INPUT****

CARTESIAN COORDINATES (ANGSTROEM)
---------------------------------
  S    -33.098600   57.083100  105.563000
  C    -31.792100   57.782700  104.601000
  C    -31.074500   58.770100  105.277000
  C    -31.441900   58.797100  106.650000
  C    -32.428000   57.839000  106.980000
  H    -31.016500   59.404600  107.388000
  C    -29.999300   59.642100  104.651000
  H    -30.472700   60.619200  104.506000
  H    -29.878900   59.186600  103.672000
  C    -28.684100   59.826800  105.291000
  H    -28.753300   60.138100  106.349000
  H    -28.177700   58.895100  105.411000
  C    -27.767500   60.877700  104.482000
  H    -28.156300   61.858800  104.728000
  H    -26.764700   60.761700  104.827000
  H    -27.790300   60.664600  103.450000
  S    -32.083100   57.724600  109.766000
  C    -33.496400   57.847600  110.729000
  C    -34.693900   57.913500  110.054000
  C    -34.473900   57.629400  108.663000
  C    -33.107000   57.712700  108.273000
  H    -35.594900   57.865500  110.608000
  C    -35.726600   57.505800  107.767000
  H    -35.575300   56.934700  106.844000
  H    -35.995400   58.547500  107.444000
  C    -36.882700   56.766000  108.456000
  H    -37.137700   57.468300  109.330000
  H    -36.697300   55.791200  108.835000
  C    -38.035200   56.488400  107.385000
  H    -38.165500   57.291700  106.693000
  H    -39.031400   56.239300  107.812000
  H    -37.857200   55.647100  106.694000
  H    -31.650600   57.574100  103.529000
  H    -33.498200   57.715100  111.769000

 Total Charge           Charge          ....    0
 Multiplicity           Mult            ....    1
 Number of Electrons    NEL             ....  134
 Basis Dimension        Dim             ....  322

ORBITAL ENERGIES
----------------

  NO   OCC          E(Eh)            E(eV)
   0   2.0000     -88.968590     -2420.9584
   1   2.0000     -88.967363     -2420.9250
   2   2.0000     -10.333754      -281.1957
   3   2.0000     -10.332704      -281.1672
   4   2.0000     -10.314286      -280.6660
   5   2.0000     -10.311226      -280.5827
   6   2.0000     -10.311055      -280.5781
   7   2.0000     -10.301410      -280.3156
   8   2.0000     -10.297089      -280.1980
   9   2.0000     -10.296788      -280.1898
  10   2.0000     -10.290829      -280.0277
  11   2.0000     -10.290626      -280.0222
  12   2.0000     -10.289721      -279.9975
  13   2.0000     -10.285616      -279.8858
  14   2.0000     -10.282650      -279.8051
  15   2.0000     -10.278602      -279.6950
  16   2.0000      -8.082728      -219.9422
  17   2.0000      -8.081646      -219.9128
  18   2.0000      -6.041216      -164.3898
  19   2.0000      -6.040114      -164.3599
  20   2.0000      -6.037478      -164.2881
  21   2.0000      -6.036311      -164.2564
  22   2.0000      -6.033404      -164.1773
  23   2.0000      -6.032401      -164.1500
  24   2.0000      -1.000524       -27.2256
  25   2.0000      -0.980508       -26.6810
  26   2.0000      -0.914004       -24.8713
  27   2.0000      -0.904472       -24.6119
  28   2.0000      -0.865383       -23.5483
  29   2.0000      -0.849030       -23.1033
  30   2.0000      -0.841377       -22.8950
  31   2.0000      -0.810494       -22.0547
  32   2.0000      -0.784125       -21.3371
  33   2.0000      -0.769952       -20.9515
  34   2.0000      -0.713020       -19.4023
  35   2.0000      -0.704969       -19.1832
  36   2.0000      -0.689452       -18.7610
  37   2.0000      -0.658824       -17.9275
  38   2.0000      -0.635476       -17.2922
  39   2.0000      -0.618968       -16.8430
  40   2.0000      -0.600247       -16.3335
  41   2.0000      -0.573994       -15.6192
  42   2.0000      -0.563062       -15.3217
  43   2.0000      -0.559954       -15.2371
  44   2.0000      -0.525208       -14.2916
  45   2.0000      -0.521394       -14.1879
  46   2.0000      -0.514997       -14.0138
  47   2.0000      -0.508834       -13.8461
  48   2.0000      -0.501978       -13.6595
  49   2.0000      -0.495472       -13.4825
  50   2.0000      -0.480926       -13.0867
  51   2.0000      -0.476823       -12.9750
  52   2.0000      -0.470847       -12.8124
  53   2.0000      -0.469621       -12.7790
  54   2.0000      -0.462125       -12.5751
  55   2.0000      -0.454405       -12.3650
  56   2.0000      -0.450980       -12.2718
  57   2.0000      -0.447243       -12.1701
  58   2.0000      -0.433974       -11.8090
  59   2.0000      -0.422509       -11.4971
  60   2.0000      -0.420226       -11.4349
  61   2.0000      -0.416980       -11.3466
  62   2.0000      -0.402003       -10.9390
  63   2.0000      -0.349612        -9.5134
  64   2.0000      -0.333028        -9.0621
  65   2.0000      -0.331750        -9.0274
  66   2.0000      -0.277757        -7.5582
  67   0.0000       0.024537         0.6677
  68   0.0000       0.071901         1.9565
  69   0.0000       0.105097         2.8598
  70   0.0000       0.112188         3.0528
  71   0.0000       0.129027         3.5110

MULLIKEN ATOMIC CHARGES
-----------------------
   0 S :    0.103562
   1 C :   -0.132784
   2 C :   -0.080983
   3 C :    0.020585
   4 C :   -0.126940
   5 H :   -0.008822
   6 C :    0.095900
   7 H :    0.037595
   8 H :    0.009134
   9 C :   -0.096195
  10 H :    0.028189
  11 H :    0.021381
  12 C :   -0.025235
  13 H :    0.038336
  14 H :    0.031415
  15 H :    0.028093
  16 S :    0.106651
  17 C :   -0.070835
  18 C :   -0.026677
  19 C :   -0.043898
  20 C :   -0.144132
  21 H :    0.017621
  22 C :    0.023459
  23 H :    0.029211
  24 H :    0.059470
  25 C :   -0.104099
  26 H :    0.049921
  27 H :    0.039932
  28 C :   -0.063212
  29 H :    0.020605
  30 H :    0.037804
  31 H :    0.035133
  32 H :    0.050878
  33 H :    0.038935
Sum of atomic charges:   -0.0000000

LOEWDIN ATOMIC CHARGES
----------------------
   0 S :    0.414047
   1 C :   -0.203466
   2 C :   -0.056958
   3 C :   -0.060782
   4 C :   -0.189460
   5 H :    0.017871
   6 C :   -0.035768
   7 H :    0.037081
   8 H :    0.030557
   9 C :   -0.041716
  10 H :    0.024174
  11 H :    0.019597
  12 C :   -0.047769
  13 H :    0.026553
  14 H :    0.024725
  15 H :    0.018780
  16 S :    0.399928
  17 C :   -0.179628
  18 C :   -0.072685
  19 C :   -0.051098
  20 C :   -0.186615
  21 H :    0.027702
  22 C :   -0.041987
  23 H :    0.018603
  24 H :    0.043213
  25 C :   -0.038742
  26 H :    0.030078
  27 H :    0.023148
  28 C :   -0.073136
  29 H :    0.018108
  30 H :    0.029468
  31 H :    0.029610
  32 H :    0.028383
  33 H :    0.018182

  Mayer bond orders larger than 0.100000
B(  0-S ,  1-C ) :   1.1322 B(  0-S ,  4-C ) :   1.1618 B(  1-C ,  2-C ) :   1.6080
B(  1-C , 32-H ) :   0.9606 B(  2-C ,  3-C ) :   1.2531 B(  2-C ,  6-C ) :   1.0188
B(  3-C ,  4-C ) :   1.5355 B(  3-C ,  5-H ) :   1.0000 B(  4-C , 20-C ) :   1.0685
B(  6-C ,  7-H ) :   0.9298 B(  6-C ,  8-H ) :   0.9321 B(  6-C ,  9-C ) :   1.0741
B(  9-C , 10-H ) :   0.9522 B(  9-C , 11-H ) :   0.9564 B(  9-C , 12-C ) :   1.0695
B( 12-C , 13-H ) :   0.9798 B( 12-C , 14-H ) :   0.9768 B( 12-C , 15-H ) :   0.9797
B( 16-S , 17-C ) :   1.1707 B( 16-S , 20-C ) :   1.1245 B( 17-C , 18-C ) :   1.6246
B( 17-C , 33-H ) :   0.9649 B( 18-C , 19-C ) :   1.2439 B( 18-C , 21-H ) :   0.9805
B( 19-C , 20-C ) :   1.5742 B( 19-C , 22-C ) :   1.0276 B( 22-C , 23-H ) :   0.9483
B( 22-C , 24-H ) :   0.9320 B( 22-C , 25-C ) :   1.0495 B( 25-C , 26-H ) :   0.9526
B( 25-C , 27-H ) :   0.9649 B( 25-C , 28-C ) :   1.0641 B( 28-C , 29-H ) :   0.9764
B( 28-C , 30-H ) :   0.9766 B( 28-C , 31-H ) :   0.9744

Dispersion correction           -0.013235125
FINAL SINGLE POINT ENERGY     -1339.858600248546

DIPOLE MOMENT
-------------
                                X             Y             Z
Electronic contribution:      2.05373      -7.14589       9.14080
Nuclear contribution   :     -2.16687       7.34837      -9.23740
                        -----------------------------------------
Total Dipole Moment    :     -0.11314       0.20248      -0.09660
                        -----------------------------------------
Magnitude (a.u.)       :      0.25126
Magnitude (Debye)      :      0.63864

Rotational constants in cm-1:     0.023296     0.006918     0.005599
Rotational constants in MHz :   698.396721   207.384613   167.853822

                             ****ORCA TERMINATED NORMALLY****
TOTAL RUN TIME: 0 days 0 hours 0 minutes 28 seconds 208 msec
