                         Program Version 4.2.1 -  RELEASE  -
|  1> ! wB97X-D3 SP def2-SVP
|  2> %pal
|  3> nprocs 16
|  4> end
|  5>
|  6> * xyz 0 1
|  7> S 	 44.7408 	 9.68228 	 52.2072
|  8> C 	 44.9012 	 8.98732 	 50.6812
|  9> C 	 46.1071 	 9.28471 	 50.103
| 10> C 	 46.7942 	 10.3972 	 50.7977
| 11> C 	 46.148 	 10.706 	 51.9473
| 12> H 	 47.7757 	 10.8052 	 50.5986
| 13> C 	 46.6579 	 8.75214 	 48.7744
| 14> H 	 46.226 	 7.71116 	 48.7042
| 15> H 	 47.7178 	 8.60985 	 48.8929
| 16> C 	 46.3122 	 9.55753 	 47.511
| 17> H 	 46.8951 	 10.4322 	 47.5408
| 18> H 	 46.7168 	 8.94985 	 46.6909
| 19> C 	 44.8574 	 9.92271 	 47.2686
| 20> H 	 44.3818 	 10.4192 	 48.1063
| 21> H 	 44.7412 	 10.571 	 46.4274
| 22> H 	 44.3287 	 9.05692 	 47.0895
| 23> S 	 46.8097 	 11.0399 	 54.5634
| 24> C 	 47.4278 	 12.6131 	 55.0499
| 25> C 	 47.5001 	 13.499 	 54.028
| 26> C 	 47.0542 	 12.9176 	 52.7765
| 27> C 	 46.6522 	 11.5998 	 52.9273
| 28> H 	 47.722 	 14.4928 	 54.2941
| 29> C 	 46.9645 	 13.7434 	 51.5071
| 30> H 	 46.9455 	 13.015 	 50.7127
| 31> H 	 47.8934 	 14.292 	 51.3364
| 32> C 	 45.7685 	 14.6566 	 51.344
| 33> H 	 45.5371 	 15.2298 	 52.2422
| 34> H 	 44.8718 	 14.0631 	 51.1009
| 35> C 	 45.9512 	 15.7388 	 50.2365
| 36> H 	 45.0848 	 16.3326 	 50.1281
| 37> H 	 46.031 	 15.2213 	 49.2428
| 38> H 	 46.8341 	 16.2657 	 50.5696
| 39> H 	 44.1504 	 8.35288 	 50.2713
| 40> H 	 47.836 	 12.6986 	 56.0734
| 41> *
| 42>
| 43>                          ****END OF INPUT****

CARTESIAN COORDINATES (ANGSTROEM)
---------------------------------
  S     44.740800    9.682280   52.207200
  C     44.901200    8.987320   50.681200
  C     46.107100    9.284710   50.103000
  C     46.794200   10.397200   50.797700
  C     46.148000   10.706000   51.947300
  H     47.775700   10.805200   50.598600
  C     46.657900    8.752140   48.774400
  H     46.226000    7.711160   48.704200
  H     47.717800    8.609850   48.892900
  C     46.312200    9.557530   47.511000
  H     46.895100   10.432200   47.540800
  H     46.716800    8.949850   46.690900
  C     44.857400    9.922710   47.268600
  H     44.381800   10.419200   48.106300
  H     44.741200   10.571000   46.427400
  H     44.328700    9.056920   47.089500
  S     46.809700   11.039900   54.563400
  C     47.427800   12.613100   55.049900
  C     47.500100   13.499000   54.028000
  C     47.054200   12.917600   52.776500
  C     46.652200   11.599800   52.927300
  H     47.722000   14.492800   54.294100
  C     46.964500   13.743400   51.507100
  H     46.945500   13.015000   50.712700
  H     47.893400   14.292000   51.336400
  C     45.768500   14.656600   51.344000
  H     45.537100   15.229800   52.242200
  H     44.871800   14.063100   51.100900
  C     45.951200   15.738800   50.236500
  H     45.084800   16.332600   50.128100
  H     46.031000   15.221300   49.242800
  H     46.834100   16.265700   50.569600
  H     44.150400    8.352880   50.271300
  H     47.836000   12.698600   56.073400

 Total Charge           Charge          ....    0
 Multiplicity           Mult            ....    1
 Number of Electrons    NEL             ....  134
 Basis Dimension        Dim             ....  322

ORBITAL ENERGIES
----------------

  NO   OCC          E(Eh)            E(eV)
   0   2.0000     -88.963531     -2420.8207
   1   2.0000     -88.961671     -2420.7701
   2   2.0000     -10.322294      -280.8839
   3   2.0000     -10.321098      -280.8514
   4   2.0000     -10.315485      -280.6986
   5   2.0000     -10.307910      -280.4925
   6   2.0000     -10.303284      -280.3666
   7   2.0000     -10.302584      -280.3476
   8   2.0000     -10.293515      -280.1008
   9   2.0000     -10.293256      -280.0937
  10   2.0000     -10.290476      -280.0181
  11   2.0000     -10.286240      -279.9028
  12   2.0000     -10.282369      -279.7975
  13   2.0000     -10.282316      -279.7961
  14   2.0000     -10.276816      -279.6464
  15   2.0000     -10.266511      -279.3660
  16   2.0000      -8.079719      -219.8603
  17   2.0000      -8.077064      -219.7881
  18   2.0000      -6.038178      -164.3072
  19   2.0000      -6.035505      -164.2344
  20   2.0000      -6.034163      -164.1979
  21   2.0000      -6.031583      -164.1277
  22   2.0000      -6.030301      -164.0928
  23   2.0000      -6.027763      -164.0238
  24   2.0000      -1.012803       -27.5598
  25   2.0000      -0.986676       -26.8488
  26   2.0000      -0.909959       -24.7612
  27   2.0000      -0.907530       -24.6952
  28   2.0000      -0.879485       -23.9320
  29   2.0000      -0.852355       -23.1938
  30   2.0000      -0.844899       -22.9909
  31   2.0000      -0.818067       -22.2607
  32   2.0000      -0.785549       -21.3759
  33   2.0000      -0.772658       -21.0251
  34   2.0000      -0.708372       -19.2758
  35   2.0000      -0.697933       -18.9917
  36   2.0000      -0.690517       -18.7899
  37   2.0000      -0.663807       -18.0631
  38   2.0000      -0.646195       -17.5839
  39   2.0000      -0.615422       -16.7465
  40   2.0000      -0.595846       -16.2138
  41   2.0000      -0.572233       -15.5712
  42   2.0000      -0.564168       -15.3518
  43   2.0000      -0.554884       -15.0992
  44   2.0000      -0.542522       -14.7628
  45   2.0000      -0.525465       -14.2986
  46   2.0000      -0.520409       -14.1610
  47   2.0000      -0.517708       -14.0876
  48   2.0000      -0.503834       -13.7100
  49   2.0000      -0.496318       -13.5055
  50   2.0000      -0.493391       -13.4258
  51   2.0000      -0.485408       -13.2086
  52   2.0000      -0.469328       -12.7711
  53   2.0000      -0.463066       -12.6007
  54   2.0000      -0.456916       -12.4333
  55   2.0000      -0.451069       -12.2742
  56   2.0000      -0.446831       -12.1589
  57   2.0000      -0.439718       -11.9653
  58   2.0000      -0.433881       -11.8065
  59   2.0000      -0.422989       -11.5101
  60   2.0000      -0.417051       -11.3485
  61   2.0000      -0.413828       -11.2608
  62   2.0000      -0.410587       -11.1726
  63   2.0000      -0.358443        -9.7537
  64   2.0000      -0.331166        -9.0115
  65   2.0000      -0.325644        -8.8612
  66   2.0000      -0.289549        -7.8790
  67   0.0000       0.037006         1.0070
  68   0.0000       0.070413         1.9160
  69   0.0000       0.112170         3.0523
  70   0.0000       0.124551         3.3892
  71   0.0000       0.129406         3.5213

MULLIKEN ATOMIC CHARGES
-----------------------
   0 S :    0.117775
   1 C :   -0.110039
   2 C :   -0.107849
   3 C :    0.019865
   4 C :   -0.155080
   5 H :    0.027229
   6 C :    0.046974
   7 H :    0.023212
   8 H :    0.027713
   9 C :   -0.043383
  10 H :    0.011886
  11 H :    0.030257
  12 C :   -0.008909
  13 H :    0.038221
  14 H :    0.026929
  15 H :    0.006555
  16 S :    0.096147
  17 C :   -0.116867
  18 C :    0.001244
  19 C :   -0.055352
  20 C :   -0.146012
  21 H :    0.006543
  22 C :    0.109178
  23 H :   -0.004279
  24 H :    0.017104
  25 C :   -0.083797
  26 H :    0.024993
  27 H :    0.032952
  28 C :   -0.044670
  29 H :    0.029905
  30 H :    0.033874
  31 H :    0.035937
  32 H :    0.041552
  33 H :    0.070193
Sum of atomic charges:    0.0000000

LOEWDIN ATOMIC CHARGES
----------------------
   0 S :    0.419102
   1 C :   -0.211219
   2 C :   -0.060661
   3 C :   -0.060135
   4 C :   -0.191140
   5 H :    0.034127
   6 C :   -0.035681
   7 H :    0.031304
   8 H :    0.030105
   9 C :   -0.034897
  10 H :    0.014920
  11 H :    0.028370
  12 C :   -0.055786
  13 H :    0.028133
  14 H :    0.026614
  15 H :    0.013682
  16 S :    0.395408
  17 C :   -0.179638
  18 C :   -0.064441
  19 C :   -0.053147
  20 C :   -0.199350
  21 H :    0.028076
  22 C :   -0.035729
  23 H :    0.026697
  24 H :    0.028866
  25 C :   -0.039697
  26 H :    0.020213
  27 H :    0.026373
  28 C :   -0.060377
  29 H :    0.020156
  30 H :    0.029108
  31 H :    0.023654
  32 H :    0.024404
  33 H :    0.032588

  Mayer bond orders larger than 0.100000
B(  0-S ,  1-C ) :   1.1390 B(  0-S ,  4-C ) :   1.1335 B(  1-C ,  2-C ) :   1.6246
B(  1-C , 32-H ) :   0.9745 B(  2-C ,  3-C ) :   1.1958 B(  2-C ,  6-C ) :   1.0318
B(  3-C ,  4-C ) :   1.6071 B(  3-C ,  5-H ) :   0.9871 B(  4-C , 20-C ) :   1.0590
B(  6-C ,  7-H ) :   0.9404 B(  6-C ,  8-H ) :   0.9390 B(  6-C ,  9-C ) :   1.0701
B(  9-C , 10-H ) :   0.9542 B(  9-C , 11-H ) :   0.9530 B(  9-C , 12-C ) :   1.0842
B( 12-C , 13-H ) :   0.9703 B( 12-C , 14-H ) :   0.9713 B( 12-C , 15-H ) :   0.9740
B( 16-S , 17-C ) :   1.1396 B( 16-S , 20-C ) :   1.1387 B( 17-C , 18-C ) :   1.6390
B( 17-C , 33-H ) :   0.9628 B( 18-C , 19-C ) :   1.1993 B( 18-C , 21-H ) :   1.0019
B( 19-C , 20-C ) :   1.6164 B( 19-C , 22-C ) :   1.0500 B( 22-C , 23-H ) :   0.9133
B( 22-C , 24-H ) :   0.9341 B( 22-C , 25-C ) :   1.0656 B( 25-C , 26-H ) :   0.9622
B( 25-C , 27-H ) :   0.9524 B( 25-C , 28-C ) :   1.0776 B( 28-C , 29-H ) :   0.9749
B( 28-C , 30-H ) :   0.9767 B( 28-C , 31-H ) :   0.9780

Dispersion correction           -0.014414309
FINAL SINGLE POINT ENERGY     -1339.883644718074

DIPOLE MOMENT
-------------
                                X             Y             Z
Electronic contribution:      0.10883     -11.92113      26.35834
Nuclear contribution   :      0.07883      12.14887     -26.83419
                        -----------------------------------------
Total Dipole Moment    :      0.18766       0.22773      -0.47585
                        -----------------------------------------
Magnitude (a.u.)       :      0.55992
Magnitude (Debye)      :      1.42321

Rotational constants in cm-1:     0.017636     0.009484     0.006980
Rotational constants in MHz :   528.722404   284.332325   209.257592

                             ****ORCA TERMINATED NORMALLY****
TOTAL RUN TIME: 0 days 0 hours 0 minutes 35 seconds 364 msec
