                         Program Version 4.2.1 -  RELEASE  -
|  1> ! wB97X-D3 SP def2-SVP
|  2> %pal
|  3> nprocs 16
|  4> end
|  5>
|  6> * xyz 0 1
|  7> S 	 -41.8796 	 25.1948 	 86.324
|  8> C 	 -42.5683 	 23.8332 	 87.2072
|  9> C 	 -43.1827 	 22.9036 	 86.3094
| 10> C 	 -43.0697 	 23.3173 	 84.9557
| 11> C 	 -42.3518 	 24.5206 	 84.7491
| 12> H 	 -43.4155 	 22.7389 	 84.0895
| 13> C 	 -43.8806 	 21.6469 	 86.7673
| 14> H 	 -45.0034 	 21.9348 	 86.8829
| 15> H 	 -43.5572 	 21.2226 	 87.7094
| 16> C 	 -44.0316 	 20.4432 	 85.8338
| 17> H 	 -44.7696 	 19.9006 	 86.3558
| 18> H 	 -44.4682 	 20.7694 	 84.9347
| 19> C 	 -42.6569 	 19.7074 	 85.7938
| 20> H 	 -42.5534 	 18.8372 	 85.1554
| 21> H 	 -41.8902 	 20.3951 	 85.3773
| 22> H 	 -42.4058 	 19.4195 	 86.7881
| 23> S 	 -43.3974 	 26.4965 	 83.0545
| 24> C 	 -42.6827 	 26.6193 	 81.4476
| 25> C 	 -41.5399 	 25.8105 	 81.3045
| 26> C 	 -41.2824 	 25.0844 	 82.4852
| 27> C 	 -42.1734 	 25.3146 	 83.5077
| 28> H 	 -41.0218 	 25.8288 	 80.3721
| 29> C 	 -40.1798 	 24.1276 	 82.595
| 30> H 	 -39.5802 	 24.346 	 83.4703
| 31> H 	 -39.4997 	 24.4262 	 81.8103
| 32> C 	 -40.4192 	 22.5909 	 82.4993
| 33> H 	 -41.0339 	 22.2926 	 83.3126
| 34> H 	 -39.46 	 21.9988 	 82.5818
| 35> C 	 -41.1509 	 22.1881 	 81.1698
| 36> H 	 -41.5631 	 21.1515 	 81.2611
| 37> H 	 -40.5609 	 22.1188 	 80.2962
| 38> H 	 -42.0673 	 22.8157 	 80.87
| 39> H 	 -42.585 	 23.5852 	 88.2773
| 40> H 	 -43.0438 	 27.3172 	 80.676
| 41> *
| 42>
| 43>                          ****END OF INPUT****

CARTESIAN COORDINATES (ANGSTROEM)
---------------------------------
  S    -41.879600   25.194800   86.324000
  C    -42.568300   23.833200   87.207200
  C    -43.182700   22.903600   86.309400
  C    -43.069700   23.317300   84.955700
  C    -42.351800   24.520600   84.749100
  H    -43.415500   22.738900   84.089500
  C    -43.880600   21.646900   86.767300
  H    -45.003400   21.934800   86.882900
  H    -43.557200   21.222600   87.709400
  C    -44.031600   20.443200   85.833800
  H    -44.769600   19.900600   86.355800
  H    -44.468200   20.769400   84.934700
  C    -42.656900   19.707400   85.793800
  H    -42.553400   18.837200   85.155400
  H    -41.890200   20.395100   85.377300
  H    -42.405800   19.419500   86.788100
  S    -43.397400   26.496500   83.054500
  C    -42.682700   26.619300   81.447600
  C    -41.539900   25.810500   81.304500
  C    -41.282400   25.084400   82.485200
  C    -42.173400   25.314600   83.507700
  H    -41.021800   25.828800   80.372100
  C    -40.179800   24.127600   82.595000
  H    -39.580200   24.346000   83.470300
  H    -39.499700   24.426200   81.810300
  C    -40.419200   22.590900   82.499300
  H    -41.033900   22.292600   83.312600
  H    -39.460000   21.998800   82.581800
  C    -41.150900   22.188100   81.169800
  H    -41.563100   21.151500   81.261100
  H    -40.560900   22.118800   80.296200
  H    -42.067300   22.815700   80.870000
  H    -42.585000   23.585200   88.277300
  H    -43.043800   27.317200   80.676000

 Total Charge           Charge          ....    0
 Multiplicity           Mult            ....    1
 Number of Electrons    NEL             ....  134
 Basis Dimension        Dim             ....  322

ORBITAL ENERGIES
----------------

  NO   OCC          E(Eh)            E(eV)
   0   2.0000     -88.970872     -2421.0205
   1   2.0000     -88.968209     -2420.9480
   2   2.0000     -10.335922      -281.2547
   3   2.0000     -10.324229      -280.9366
   4   2.0000     -10.323675      -280.9215
   5   2.0000     -10.320031      -280.8223
   6   2.0000     -10.306087      -280.4429
   7   2.0000     -10.301446      -280.3166
   8   2.0000     -10.298714      -280.2423
   9   2.0000     -10.297570      -280.2111
  10   2.0000     -10.294910      -280.1387
  11   2.0000     -10.291428      -280.0440
  12   2.0000     -10.283318      -279.8233
  13   2.0000     -10.282088      -279.7898
  14   2.0000     -10.280070      -279.7349
  15   2.0000     -10.278443      -279.6906
  16   2.0000      -8.084169      -219.9814
  17   2.0000      -8.082457      -219.9348
  18   2.0000      -6.042710      -164.4305
  19   2.0000      -6.040911      -164.3816
  20   2.0000      -6.038621      -164.3192
  21   2.0000      -6.036972      -164.2744
  22   2.0000      -6.035238      -164.2272
  23   2.0000      -6.033360      -164.1761
  24   2.0000      -1.001078       -27.2407
  25   2.0000      -0.977824       -26.6079
  26   2.0000      -0.914800       -24.8930
  27   2.0000      -0.904470       -24.6119
  28   2.0000      -0.862769       -23.4771
  29   2.0000      -0.846006       -23.0210
  30   2.0000      -0.842409       -22.9231
  31   2.0000      -0.810875       -22.0650
  32   2.0000      -0.782134       -21.2830
  33   2.0000      -0.770815       -20.9749
  34   2.0000      -0.713859       -19.4251
  35   2.0000      -0.701560       -19.0904
  36   2.0000      -0.686438       -18.6789
  37   2.0000      -0.664755       -18.0889
  38   2.0000      -0.636158       -17.3107
  39   2.0000      -0.619954       -16.8698
  40   2.0000      -0.591195       -16.0872
  41   2.0000      -0.573640       -15.6095
  42   2.0000      -0.551346       -15.0029
  43   2.0000      -0.546277       -14.8650
  44   2.0000      -0.541523       -14.7356
  45   2.0000      -0.535894       -14.5824
  46   2.0000      -0.514695       -14.0056
  47   2.0000      -0.505261       -13.7488
  48   2.0000      -0.498644       -13.5688
  49   2.0000      -0.488228       -13.2854
  50   2.0000      -0.479663       -13.0523
  51   2.0000      -0.477613       -12.9965
  52   2.0000      -0.474937       -12.9237
  53   2.0000      -0.464593       -12.6422
  54   2.0000      -0.463583       -12.6147
  55   2.0000      -0.445825       -12.1315
  56   2.0000      -0.442639       -12.0448
  57   2.0000      -0.438610       -11.9352
  58   2.0000      -0.430083       -11.7032
  59   2.0000      -0.425397       -11.5756
  60   2.0000      -0.421718       -11.4755
  61   2.0000      -0.417088       -11.3495
  62   2.0000      -0.413812       -11.2604
  63   2.0000      -0.339542        -9.2394
  64   2.0000      -0.329425        -8.9641
  65   2.0000      -0.315565        -8.5870
  66   2.0000      -0.305780        -8.3207
  67   0.0000       0.038576         1.0497
  68   0.0000       0.044827         1.2198
  69   0.0000       0.116613         3.1732
  70   0.0000       0.120224         3.2715
  71   0.0000       0.124309         3.3826

MULLIKEN ATOMIC CHARGES
-----------------------
   0 S :    0.121576
   1 C :   -0.112738
   2 C :   -0.088462
   3 C :    0.054640
   4 C :   -0.199423
   5 H :    0.026974
   6 C :   -0.024839
   7 H :    0.052979
   8 H :    0.019419
   9 C :   -0.018173
  10 H :    0.018075
  11 H :    0.017458
  12 C :   -0.041323
  13 H :    0.031937
  14 H :    0.040984
  15 H :    0.020490
  16 S :    0.122283
  17 C :   -0.117430
  18 C :   -0.027347
  19 C :   -0.031560
  20 C :   -0.160054
  21 H :    0.015065
  22 C :    0.093550
  23 H :    0.027868
  24 H :    0.003089
  25 C :   -0.030867
  26 H :    0.026159
  27 H :    0.041417
  28 C :   -0.104573
  29 H :    0.028583
  30 H :    0.022993
  31 H :    0.051020
  32 H :    0.052923
  33 H :    0.067308
Sum of atomic charges:   -0.0000000

LOEWDIN ATOMIC CHARGES
----------------------
   0 S :    0.407624
   1 C :   -0.206001
   2 C :   -0.068495
   3 C :   -0.060795
   4 C :   -0.193481
   5 H :    0.034620
   6 C :   -0.036987
   7 H :    0.046670
   8 H :    0.025019
   9 C :   -0.031834
  10 H :    0.022219
  11 H :    0.014203
  12 C :   -0.063947
  13 H :    0.022237
  14 H :    0.031436
  15 H :    0.021149
  16 S :    0.406800
  17 C :   -0.178963
  18 C :   -0.068959
  19 C :   -0.054888
  20 C :   -0.210357
  21 H :    0.031382
  22 C :   -0.037592
  23 H :    0.034760
  24 H :    0.028066
  25 C :   -0.030365
  26 H :    0.016445
  27 H :    0.035216
  28 C :   -0.081921
  29 H :    0.028487
  30 H :    0.014683
  31 H :    0.035069
  32 H :    0.035617
  33 H :    0.032882

  Mayer bond orders larger than 0.100000
B(  0-S ,  1-C ) :   1.1549 B(  0-S ,  4-C ) :   1.1645 B(  1-C ,  2-C ) :   1.5705
B(  1-C ,  4-C ) :   0.1159 B(  1-C , 32-H ) :   0.9653 B(  2-C ,  3-C ) :   1.2796
B(  2-C ,  6-C ) :   1.0228 B(  3-C ,  4-C ) :   1.5480 B(  3-C ,  5-H ) :   0.9800
B(  4-C , 20-C ) :   1.0076 B(  6-C ,  7-H ) :   0.9345 B(  6-C ,  8-H ) :   0.9506
B(  6-C ,  9-C ) :   1.0811 B(  9-C , 10-H ) :   0.9543 B(  9-C , 11-H ) :   0.9505
B(  9-C , 12-C ) :   1.0632 B( 12-C , 13-H ) :   0.9774 B( 12-C , 14-H ) :   0.9777
B( 12-C , 15-H ) :   0.9731 B( 16-S , 17-C ) :   1.1762 B( 16-S , 20-C ) :   1.1383
B( 17-C , 18-C ) :   1.5844 B( 17-C , 33-H ) :   0.9624 B( 18-C , 19-C ) :   1.2500
B( 18-C , 21-H ) :   0.9975 B( 19-C , 20-C ) :   1.5924 B( 19-C , 22-C ) :   1.0494
B( 22-C , 23-H ) :   0.9222 B( 22-C , 24-H ) :   0.9269 B( 22-C , 25-C ) :   1.0655
B( 25-C , 26-H ) :   0.9569 B( 25-C , 27-H ) :   0.9527 B( 25-C , 28-C ) :   1.0633
B( 28-C , 29-H ) :   0.9750 B( 28-C , 30-H ) :   0.9788 B( 28-C , 31-H ) :   0.9750

Dispersion correction           -0.015836816
FINAL SINGLE POINT ENERGY     -1339.871093394972

DIPOLE MOMENT
-------------
                                X             Y             Z
Electronic contribution:     -3.20960      28.00977       4.84691
Nuclear contribution   :      3.18930     -28.58673      -5.06350
                        -----------------------------------------
Total Dipole Moment    :     -0.02030      -0.57696      -0.21658
                        -----------------------------------------
Magnitude (a.u.)       :      0.61660
Magnitude (Debye)      :      1.56728

Rotational constants in cm-1:     0.018489     0.009773     0.007693
Rotational constants in MHz :   554.300430   292.988634   230.621166

                             ****ORCA TERMINATED NORMALLY****
TOTAL RUN TIME: 0 days 0 hours 0 minutes 30 seconds 602 msec
