                         Program Version 4.2.1 -  RELEASE  -
|  1> ! wB97X-D3 SP def2-SVP
|  2> %pal
|  3> nprocs 16
|  4> end
|  5>
|  6> * xyz 0 1
|  7> S 	 10.5557 	 -11.6594 	 88.7287
|  8> C 	 11.4758 	 -12.9192 	 87.9517
|  9> C 	 11.4892 	 -14.1044 	 88.7579
| 10> C 	 10.6975 	 -13.885 	 89.9568
| 11> C 	 10.0644 	 -12.6546 	 90.0678
| 12> H 	 10.6485 	 -14.5208 	 90.8054
| 13> C 	 12.1926 	 -15.4283 	 88.602
| 14> H 	 11.9652 	 -15.6945 	 87.6415
| 15> H 	 11.6638 	 -16.2278 	 89.1595
| 16> C 	 13.68 	 -15.3674 	 88.9808
| 17> H 	 14.1865 	 -16.3056 	 88.6586
| 18> H 	 13.9445 	 -14.5745 	 88.3079
| 19> C 	 14.0596 	 -14.9524 	 90.3781
| 20> H 	 13.692 	 -15.6461 	 91.0974
| 21> H 	 15.1858 	 -14.9916 	 90.3605
| 22> H 	 13.6375 	 -13.9966 	 90.6627
| 23> S 	 7.36153 	 -12.6075 	 90.2783
| 24> C 	 6.55506 	 -12.2947 	 91.7475
| 25> C 	 7.52768 	 -11.9979 	 92.7341
| 26> C 	 8.89034 	 -11.9971 	 92.3624
| 27> C 	 8.94637 	 -12.3419 	 91.0165
| 28> H 	 7.20421 	 -11.6968 	 93.7509
| 29> C 	 9.95018 	 -11.6823 	 93.3944
| 30> H 	 10.1696 	 -12.6065 	 93.8779
| 31> H 	 9.3718 	 -10.8838 	 93.9363
| 32> C 	 11.2533 	 -11.0782 	 92.7548
| 33> H 	 10.9077 	 -10.4723 	 91.9126
| 34> H 	 11.8958 	 -11.8791 	 92.3769
| 35> C 	 11.9142 	 -10.1158 	 93.7378
| 36> H 	 12.0131 	 -10.4983 	 94.7946
| 37> H 	 11.1756 	 -9.27589 	 93.7772
| 38> H 	 12.905 	 -9.76237 	 93.4703
| 39> H 	 11.9312 	 -12.9693 	 86.9898
| 40> H 	 5.5437 	 -12.0718 	 91.8329
| 41> *
| 42>
| 43>                          ****END OF INPUT****

CARTESIAN COORDINATES (ANGSTROEM)
---------------------------------
  S     10.555700  -11.659400   88.728700
  C     11.475800  -12.919200   87.951700
  C     11.489200  -14.104400   88.757900
  C     10.697500  -13.885000   89.956800
  C     10.064400  -12.654600   90.067800
  H     10.648500  -14.520800   90.805400
  C     12.192600  -15.428300   88.602000
  H     11.965200  -15.694500   87.641500
  H     11.663800  -16.227800   89.159500
  C     13.680000  -15.367400   88.980800
  H     14.186500  -16.305600   88.658600
  H     13.944500  -14.574500   88.307900
  C     14.059600  -14.952400   90.378100
  H     13.692000  -15.646100   91.097400
  H     15.185800  -14.991600   90.360500
  H     13.637500  -13.996600   90.662700
  S      7.361530  -12.607500   90.278300
  C      6.555060  -12.294700   91.747500
  C      7.527680  -11.997900   92.734100
  C      8.890340  -11.997100   92.362400
  C      8.946370  -12.341900   91.016500
  H      7.204210  -11.696800   93.750900
  C      9.950180  -11.682300   93.394400
  H     10.169600  -12.606500   93.877900
  H      9.371800  -10.883800   93.936300
  C     11.253300  -11.078200   92.754800
  H     10.907700  -10.472300   91.912600
  H     11.895800  -11.879100   92.376900
  C     11.914200  -10.115800   93.737800
  H     12.013100  -10.498300   94.794600
  H     11.175600   -9.275890   93.777200
  H     12.905000   -9.762370   93.470300
  H     11.931200  -12.969300   86.989800
  H      5.543700  -12.071800   91.832900

 Total Charge           Charge          ....    0
 Multiplicity           Mult            ....    1
 Number of Electrons    NEL             ....  134
 Basis Dimension        Dim             ....  322

ORBITAL ENERGIES
----------------

  NO   OCC          E(Eh)            E(eV)
   0   2.0000     -88.969220     -2420.9755
   1   2.0000     -88.965445     -2420.8728
   2   2.0000     -10.330319      -281.1023
   3   2.0000     -10.327319      -281.0206
   4   2.0000     -10.318696      -280.7860
   5   2.0000     -10.312394      -280.6145
   6   2.0000     -10.305105      -280.4162
   7   2.0000     -10.303930      -280.3842
   8   2.0000     -10.299769      -280.2710
   9   2.0000     -10.294106      -280.1169
  10   2.0000     -10.288520      -279.9648
  11   2.0000     -10.287485      -279.9367
  12   2.0000     -10.285086      -279.8714
  13   2.0000     -10.284824      -279.8643
  14   2.0000     -10.282951      -279.8133
  15   2.0000     -10.277471      -279.6642
  16   2.0000      -8.083474      -219.9625
  17   2.0000      -8.080540      -219.8827
  18   2.0000      -6.042030      -164.4120
  19   2.0000      -6.038953      -164.3283
  20   2.0000      -6.037831      -164.2977
  21   2.0000      -6.034832      -164.2161
  22   2.0000      -6.034425      -164.2051
  23   2.0000      -6.031537      -164.1265
  24   2.0000      -1.003851       -27.3162
  25   2.0000      -0.982213       -26.7274
  26   2.0000      -0.915293       -24.9064
  27   2.0000      -0.911621       -24.8065
  28   2.0000      -0.860764       -23.4226
  29   2.0000      -0.855338       -23.2749
  30   2.0000      -0.845668       -23.0118
  31   2.0000      -0.807582       -21.9754
  32   2.0000      -0.783839       -21.3294
  33   2.0000      -0.775231       -21.0951
  34   2.0000      -0.707251       -19.2453
  35   2.0000      -0.701123       -19.0785
  36   2.0000      -0.684918       -18.6376
  37   2.0000      -0.659793       -17.9539
  38   2.0000      -0.641386       -17.4530
  39   2.0000      -0.609052       -16.5731
  40   2.0000      -0.596125       -16.2214
  41   2.0000      -0.579482       -15.7685
  42   2.0000      -0.573489       -15.6054
  43   2.0000      -0.550780       -14.9875
  44   2.0000      -0.544997       -14.8301
  45   2.0000      -0.523677       -14.2500
  46   2.0000      -0.513668       -13.9776
  47   2.0000      -0.509194       -13.8559
  48   2.0000      -0.508280       -13.8310
  49   2.0000      -0.500696       -13.6246
  50   2.0000      -0.486024       -13.2254
  51   2.0000      -0.480873       -13.0852
  52   2.0000      -0.471345       -12.8259
  53   2.0000      -0.463372       -12.6090
  54   2.0000      -0.461377       -12.5547
  55   2.0000      -0.446223       -12.1424
  56   2.0000      -0.438248       -11.9253
  57   2.0000      -0.433446       -11.7947
  58   2.0000      -0.427985       -11.6461
  59   2.0000      -0.424710       -11.5570
  60   2.0000      -0.420478       -11.4418
  61   2.0000      -0.417601       -11.3635
  62   2.0000      -0.407346       -11.0845
  63   2.0000      -0.336215        -9.1489
  64   2.0000      -0.327718        -8.9177
  65   2.0000      -0.316119        -8.6020
  66   2.0000      -0.307961        -8.3800
  67   0.0000       0.038122         1.0374
  68   0.0000       0.055535         1.5112
  69   0.0000       0.116075         3.1585
  70   0.0000       0.123046         3.3483
  71   0.0000       0.127642         3.4733

MULLIKEN ATOMIC CHARGES
-----------------------
   0 S :    0.126965
   1 C :   -0.102716
   2 C :   -0.151991
   3 C :    0.051785
   4 C :   -0.178554
   5 H :   -0.000911
   6 C :    0.109205
   7 H :    0.001042
   8 H :    0.018135
   9 C :   -0.070156
  10 H :    0.037220
  11 H :    0.015514
  12 C :   -0.033069
  13 H :    0.019550
  14 H :    0.047200
  15 H :    0.045203
  16 S :    0.128564
  17 C :   -0.062279
  18 C :   -0.087562
  19 C :   -0.018309
  20 C :   -0.209213
  21 H :    0.019720
  22 C :    0.071266
  23 H :    0.051000
  24 H :    0.041782
  25 C :   -0.080379
  26 H :    0.033642
  27 H :    0.046545
  28 C :   -0.060582
  29 H :    0.035535
  30 H :    0.035292
  31 H :    0.037368
  32 H :    0.039770
  33 H :    0.043418
Sum of atomic charges:    0.0000000

LOEWDIN ATOMIC CHARGES
----------------------
   0 S :    0.422841
   1 C :   -0.208722
   2 C :   -0.056952
   3 C :   -0.061150
   4 C :   -0.216722
   5 H :    0.022758
   6 C :   -0.032601
   7 H :    0.019921
   8 H :    0.030212
   9 C :   -0.041344
  10 H :    0.027625
  11 H :    0.021939
  12 C :   -0.061476
  13 H :    0.018182
  14 H :    0.039380
  15 H :    0.027244
  16 S :    0.434621
  17 C :   -0.198491
  18 C :   -0.077703
  19 C :   -0.061021
  20 C :   -0.197791
  21 H :    0.027927
  22 C :   -0.021307
  23 H :    0.036093
  24 H :    0.044061
  25 C :   -0.041908
  26 H :    0.025514
  27 H :    0.024425
  28 C :   -0.070622
  29 H :    0.027108
  30 H :    0.029997
  31 H :    0.023208
  32 H :    0.026277
  33 H :    0.018479

  Mayer bond orders larger than 0.100000
B(  0-S ,  1-C ) :   1.1564 B(  0-S ,  4-C ) :   1.1562 B(  1-C ,  2-C ) :   1.5752
B(  1-C , 32-H ) :   0.9695 B(  2-C ,  3-C ) :   1.2607 B(  2-C ,  6-C ) :   1.0151
B(  3-C ,  4-C ) :   1.5779 B(  3-C ,  5-H ) :   0.9941 B(  4-C , 20-C ) :   0.9851
B(  6-C ,  7-H ) :   0.9303 B(  6-C ,  8-H ) :   0.9404 B(  6-C ,  9-C ) :   1.0578
B(  9-C , 10-H ) :   0.9560 B(  9-C , 11-H ) :   0.9543 B(  9-C , 12-C ) :   1.0855
B( 12-C , 13-H ) :   0.9734 B( 12-C , 14-H ) :   0.9706 B( 12-C , 15-H ) :   0.9694
B( 16-S , 17-C ) :   1.1754 B( 16-S , 20-C ) :   1.1775 B( 17-C , 18-C ) :   1.5701
B( 17-C , 20-C ) :   0.1072 B( 17-C , 33-H ) :   0.9757 B( 18-C , 19-C ) :   1.2854
B( 18-C , 21-H ) :   0.9767 B( 19-C , 20-C ) :   1.5650 B( 19-C , 22-C ) :   0.9968
B( 22-C , 23-H ) :   0.9270 B( 22-C , 24-H ) :   0.9443 B( 22-C , 25-C ) :   1.0675
B( 25-C , 26-H ) :   0.9655 B( 25-C , 27-H ) :   0.9497 B( 25-C , 28-C ) :   1.0694
B( 28-C , 29-H ) :   0.9748 B( 28-C , 30-H ) :   0.9782 B( 28-C , 31-H ) :   0.9744

Dispersion correction           -0.015035910
FINAL SINGLE POINT ENERGY     -1339.854762004406

DIPOLE MOMENT
-------------
                                X             Y             Z
Electronic contribution:    -21.65700       4.57256     -12.20444
Nuclear contribution   :     21.93652      -4.80153      12.50401
                        -----------------------------------------
Total Dipole Moment    :      0.27952      -0.22898       0.29958
                        -----------------------------------------
Magnitude (a.u.)       :      0.46937
Magnitude (Debye)      :      1.19305

Rotational constants in cm-1:     0.017768     0.009349     0.007471
Rotational constants in MHz :   532.669991   280.269273   223.978401

                             ****ORCA TERMINATED NORMALLY****
TOTAL RUN TIME: 0 days 0 hours 0 minutes 35 seconds 30 msec
