                         Program Version 4.2.1 -  RELEASE  -
|  1> ! wB97X-D3 SP def2-SVP
|  2> %pal
|  3> nprocs 16
|  4> end
|  5>
|  6> * xyz 0 1
|  7> S 	 44.6855 	 9.99849 	 81.7252
|  8> C 	 45.4042 	 10.2654 	 83.3131
|  9> C 	 46.7721 	 10.3905 	 83.1662
| 10> C 	 47.2217 	 10.3092 	 81.7919
| 11> C 	 46.2405 	 10.1294 	 80.8691
| 12> H 	 48.2815 	 10.3188 	 81.5359
| 13> C 	 47.7389 	 10.5117 	 84.3762
| 14> H 	 47.3413 	 10.1189 	 85.3239
| 15> H 	 47.933 	 11.5437 	 84.5968
| 16> C 	 49.1164 	 9.83755 	 84.1492
| 17> H 	 49.7056 	 10.2888 	 83.3303
| 18> H 	 49.6025 	 10.0691 	 85.0668
| 19> C 	 48.8947 	 8.30633 	 83.985
| 20> H 	 48.4161 	 8.03958 	 83.0673
| 21> H 	 49.8632 	 7.85258 	 83.9945
| 22> H 	 48.3751 	 7.91175 	 84.9236
| 23> S 	 45.6135 	 8.78866 	 78.4949
| 24> C 	 45.4927 	 9.75591 	 77.067
| 25> C 	 45.8539 	 11.0579 	 77.3096
| 26> C 	 46.3156 	 11.3552 	 78.6205
| 27> C 	 46.2387 	 10.2348 	 79.4154
| 28> H 	 45.8024 	 11.6261 	 76.3963
| 29> C 	 46.6298 	 12.7485 	 79.1443
| 30> H 	 46.3019 	 12.768 	 80.1859
| 31> H 	 46.1635 	 13.4124 	 78.3847
| 32> C 	 48.1372 	 13.0831 	 79.2092
| 33> H 	 48.5919 	 12.6322 	 80.0801
| 34> H 	 48.278 	 14.1518 	 79.374
| 35> C 	 48.8933 	 12.7847 	 77.9681
| 36> H 	 48.3469 	 13.2345 	 77.0595
| 37> H 	 49.1649 	 11.7295 	 77.7773
| 38> H 	 49.7899 	 13.3552 	 78.1059
| 39> H 	 44.9768 	 10.1954 	 84.3173
| 40> H 	 45.09 	 9.41928 	 76.1398
| 41> *
| 42>
| 43>                          ****END OF INPUT****

CARTESIAN COORDINATES (ANGSTROEM)
---------------------------------
  S     44.685500    9.998490   81.725200
  C     45.404200   10.265400   83.313100
  C     46.772100   10.390500   83.166200
  C     47.221700   10.309200   81.791900
  C     46.240500   10.129400   80.869100
  H     48.281500   10.318800   81.535900
  C     47.738900   10.511700   84.376200
  H     47.341300   10.118900   85.323900
  H     47.933000   11.543700   84.596800
  C     49.116400    9.837550   84.149200
  H     49.705600   10.288800   83.330300
  H     49.602500   10.069100   85.066800
  C     48.894700    8.306330   83.985000
  H     48.416100    8.039580   83.067300
  H     49.863200    7.852580   83.994500
  H     48.375100    7.911750   84.923600
  S     45.613500    8.788660   78.494900
  C     45.492700    9.755910   77.067000
  C     45.853900   11.057900   77.309600
  C     46.315600   11.355200   78.620500
  C     46.238700   10.234800   79.415400
  H     45.802400   11.626100   76.396300
  C     46.629800   12.748500   79.144300
  H     46.301900   12.768000   80.185900
  H     46.163500   13.412400   78.384700
  C     48.137200   13.083100   79.209200
  H     48.591900   12.632200   80.080100
  H     48.278000   14.151800   79.374000
  C     48.893300   12.784700   77.968100
  H     48.346900   13.234500   77.059500
  H     49.164900   11.729500   77.777300
  H     49.789900   13.355200   78.105900
  H     44.976800   10.195400   84.317300
  H     45.090000    9.419280   76.139800

 Total Charge           Charge          ....    0
 Multiplicity           Mult            ....    1
 Number of Electrons    NEL             ....  134
 Basis Dimension        Dim             ....  322

ORBITAL ENERGIES
----------------

  NO   OCC          E(Eh)            E(eV)
   0   2.0000     -88.963337     -2420.8155
   1   2.0000     -88.962224     -2420.7852
   2   2.0000     -10.330632      -281.1108
   3   2.0000     -10.328328      -281.0481
   4   2.0000     -10.315051      -280.6868
   5   2.0000     -10.314463      -280.6708
   6   2.0000     -10.307023      -280.4683
   7   2.0000     -10.301966      -280.3307
   8   2.0000     -10.296571      -280.1839
   9   2.0000     -10.293831      -280.1094
  10   2.0000     -10.292958      -280.0856
  11   2.0000     -10.290847      -280.0282
  12   2.0000     -10.288209      -279.9564
  13   2.0000     -10.280747      -279.7534
  14   2.0000     -10.277256      -279.6584
  15   2.0000     -10.276693      -279.6430
  16   2.0000      -8.077640      -219.8038
  17   2.0000      -8.076235      -219.7655
  18   2.0000      -6.036115      -164.2510
  19   2.0000      -6.034982      -164.2202
  20   2.0000      -6.032237      -164.1455
  21   2.0000      -6.030751      -164.1051
  22   2.0000      -6.028437      -164.0421
  23   2.0000      -6.026828      -163.9983
  24   2.0000      -1.002963       -27.2920
  25   2.0000      -0.980697       -26.6861
  26   2.0000      -0.913300       -24.8522
  27   2.0000      -0.907875       -24.7045
  28   2.0000      -0.869692       -23.6655
  29   2.0000      -0.851724       -23.1766
  30   2.0000      -0.835067       -22.7233
  31   2.0000      -0.816421       -22.2159
  32   2.0000      -0.784672       -21.3520
  33   2.0000      -0.773491       -21.0478
  34   2.0000      -0.712313       -19.3830
  35   2.0000      -0.692709       -18.8496
  36   2.0000      -0.686382       -18.6774
  37   2.0000      -0.658200       -17.9105
  38   2.0000      -0.638808       -17.3829
  39   2.0000      -0.623253       -16.9596
  40   2.0000      -0.582479       -15.8501
  41   2.0000      -0.573493       -15.6055
  42   2.0000      -0.562498       -15.3063
  43   2.0000      -0.551828       -15.0160
  44   2.0000      -0.549430       -14.9507
  45   2.0000      -0.536313       -14.5938
  46   2.0000      -0.514958       -14.0127
  47   2.0000      -0.506689       -13.7877
  48   2.0000      -0.505239       -13.7483
  49   2.0000      -0.492672       -13.4063
  50   2.0000      -0.491110       -13.3638
  51   2.0000      -0.478643       -13.0245
  52   2.0000      -0.469554       -12.7772
  53   2.0000      -0.465065       -12.6551
  54   2.0000      -0.458434       -12.4746
  55   2.0000      -0.445930       -12.1344
  56   2.0000      -0.437083       -11.8936
  57   2.0000      -0.432779       -11.7765
  58   2.0000      -0.432341       -11.7646
  59   2.0000      -0.424885       -11.5617
  60   2.0000      -0.422872       -11.5069
  61   2.0000      -0.411172       -11.1886
  62   2.0000      -0.407670       -11.0933
  63   2.0000      -0.335973        -9.1423
  64   2.0000      -0.334620        -9.1055
  65   2.0000      -0.324866        -8.8401
  66   2.0000      -0.303572        -8.2606
  67   0.0000       0.033972         0.9244
  68   0.0000       0.059312         1.6140
  69   0.0000       0.114808         3.1241
  70   0.0000       0.122649         3.3374
  71   0.0000       0.128578         3.4988

MULLIKEN ATOMIC CHARGES
-----------------------
   0 S :    0.105185
   1 C :   -0.113330
   2 C :   -0.113936
   3 C :    0.028827
   4 C :   -0.139558
   5 H :    0.016499
   6 C :    0.063184
   7 H :    0.018090
   8 H :    0.031306
   9 C :   -0.102605
  10 H :    0.039240
  11 H :    0.022132
  12 C :   -0.043613
  13 H :    0.049642
  14 H :    0.025752
  15 H :    0.036772
  16 S :    0.093603
  17 C :   -0.084771
  18 C :   -0.055533
  19 C :    0.004021
  20 C :   -0.199419
  21 H :    0.013753
  22 C :    0.112414
  23 H :    0.044961
  24 H :    0.029476
  25 C :   -0.073792
  26 H :    0.018154
  27 H :    0.025858
  28 C :   -0.060215
  29 H :    0.030715
  30 H :    0.052031
  31 H :    0.025025
  32 H :    0.052134
  33 H :    0.047998
Sum of atomic charges:    0.0000000

LOEWDIN ATOMIC CHARGES
----------------------
   0 S :    0.387983
   1 C :   -0.196374
   2 C :   -0.067538
   3 C :   -0.067316
   4 C :   -0.186233
   5 H :    0.031886
   6 C :   -0.030373
   7 H :    0.028186
   8 H :    0.026709
   9 C :   -0.041664
  10 H :    0.022801
  11 H :    0.021954
  12 C :   -0.062646
  13 H :    0.024295
  14 H :    0.020925
  15 H :    0.034776
  16 S :    0.379606
  17 C :   -0.177827
  18 C :   -0.080363
  19 C :   -0.042783
  20 C :   -0.185512
  21 H :    0.030943
  22 C :   -0.024340
  23 H :    0.039419
  24 H :    0.036327
  25 C :   -0.044635
  26 H :    0.019797
  27 H :    0.026353
  28 C :   -0.071613
  29 H :    0.031001
  30 H :    0.029075
  31 H :    0.024536
  32 H :    0.036873
  33 H :    0.025774

  Mayer bond orders larger than 0.100000
B(  0-S ,  1-C ) :   1.1279 B(  0-S ,  4-C ) :   1.1332 B(  1-C ,  2-C ) :   1.6425
B(  1-C , 32-H ) :   0.9652 B(  2-C ,  3-C ) :   1.2258 B(  2-C ,  6-C ) :   1.0054
B(  3-C ,  4-C ) :   1.6031 B(  3-C ,  5-H ) :   0.9917 B(  4-C , 20-C ) :   1.0229
B(  6-C ,  7-H ) :   0.9494 B(  6-C ,  8-H ) :   0.9370 B(  6-C ,  9-C ) :   1.0835
B(  9-C , 10-H ) :   0.9506 B(  9-C , 11-H ) :   0.9537 B(  9-C , 12-C ) :   1.0744
B( 12-C , 13-H ) :   0.9749 B( 12-C , 14-H ) :   0.9749 B( 12-C , 15-H ) :   0.9737
B( 16-S , 17-C ) :   1.1537 B( 16-S , 20-C ) :   1.1264 B( 17-C , 18-C ) :   1.6430
B( 17-C , 33-H ) :   0.9667 B( 18-C , 19-C ) :   1.2025 B( 18-C , 21-H ) :   0.9918
B( 19-C , 20-C ) :   1.5988 B( 19-C , 22-C ) :   1.0362 B( 22-C , 23-H ) :   0.9238
B( 22-C , 24-H ) :   0.9306 B( 22-C , 25-C ) :   1.0865 B( 25-C , 26-H ) :   0.9460
B( 25-C , 27-H ) :   0.9560 B( 25-C , 28-C ) :   1.0880 B( 28-C , 29-H ) :   0.9721
B( 28-C , 30-H ) :   0.9684 B( 28-C , 31-H ) :   0.9717

Dispersion correction           -0.015246530
FINAL SINGLE POINT ENERGY     -1339.876863175232

DIPOLE MOMENT
-------------
                                X             Y             Z
Electronic contribution:    -20.77115      -9.76677      -8.08180
Nuclear contribution   :     21.26293      10.20355       8.24948
                        -----------------------------------------
Total Dipole Moment    :      0.49179       0.43677       0.16768
                        -----------------------------------------
Magnitude (a.u.)       :      0.67878
Magnitude (Debye)      :      1.72532

Rotational constants in cm-1:     0.019244     0.009110     0.007593
Rotational constants in MHz :   576.923282   273.110472   227.628006

                             ****ORCA TERMINATED NORMALLY****
TOTAL RUN TIME: 0 days 0 hours 0 minutes 29 seconds 691 msec
