                         Program Version 4.2.1 -  RELEASE  -
|  1> ! wB97X-D3 SP def2-SVP
|  2> %pal
|  3> nprocs 16
|  4> end
|  5>
|  6> * xyz 0 1
|  7> S 	 -43.3978 	 26.886 	 81.9664
|  8> C 	 -44.1908 	 25.7231 	 80.933
|  9> C 	 -43.6145 	 24.4978 	 81.1001
| 10> C 	 -42.5405 	 24.5077 	 81.9937
| 11> C 	 -42.2436 	 25.7601 	 82.4728
| 12> H 	 -41.853 	 23.686 	 82.2766
| 13> C 	 -44.1153 	 23.2193 	 80.4962
| 14> H 	 -43.2486 	 22.7393 	 80.014
| 15> H 	 -44.707 	 23.4985 	 79.6612
| 16> C 	 -44.9823 	 22.3704 	 81.4139
| 17> H 	 -45.2674 	 21.563 	 80.7945
| 18> H 	 -44.4328 	 22.0591 	 82.3396
| 19> C 	 -46.2203 	 23.1155 	 81.9656
| 20> H 	 -45.8991 	 23.7652 	 82.7863
| 21> H 	 -46.7209 	 23.7075 	 81.1568
| 22> H 	 -46.8592 	 22.3141 	 82.3424
| 23> S 	 -40.5006 	 25.201 	 84.4448
| 24> C 	 -39.1441 	 26.2292 	 84.6962
| 25> C 	 -39.1898 	 27.3164 	 83.8465
| 26> C 	 -40.235 	 27.2939 	 82.9094
| 27> C 	 -41.0807 	 26.2264 	 83.1688
| 28> H 	 -38.3611 	 28.0831 	 83.9215
| 29> C 	 -40.1606 	 28.2298 	 81.7981
| 30> H 	 -40.2468 	 29.2077 	 82.2676
| 31> H 	 -41.0767 	 28.061 	 81.2357
| 32> C 	 -38.9167 	 28.0567 	 80.939
| 33> H 	 -38.0316 	 28.2701 	 81.4832
| 34> H 	 -39.0294 	 28.8082 	 80.1246
| 35> C 	 -38.7833 	 26.6948 	 80.2081
| 36> H 	 -37.9631 	 26.8355 	 79.4691
| 37> H 	 -39.6469 	 26.4606 	 79.6526
| 38> H 	 -38.6903 	 25.9173 	 80.9471
| 39> H 	 -45.1079 	 25.8011 	 80.3843
| 40> H 	 -38.4191 	 26.1553 	 85.4238
| 41> *
| 42>
| 43>                          ****END OF INPUT****

CARTESIAN COORDINATES (ANGSTROEM)
---------------------------------
  S    -43.397800   26.886000   81.966400
  C    -44.190800   25.723100   80.933000
  C    -43.614500   24.497800   81.100100
  C    -42.540500   24.507700   81.993700
  C    -42.243600   25.760100   82.472800
  H    -41.853000   23.686000   82.276600
  C    -44.115300   23.219300   80.496200
  H    -43.248600   22.739300   80.014000
  H    -44.707000   23.498500   79.661200
  C    -44.982300   22.370400   81.413900
  H    -45.267400   21.563000   80.794500
  H    -44.432800   22.059100   82.339600
  C    -46.220300   23.115500   81.965600
  H    -45.899100   23.765200   82.786300
  H    -46.720900   23.707500   81.156800
  H    -46.859200   22.314100   82.342400
  S    -40.500600   25.201000   84.444800
  C    -39.144100   26.229200   84.696200
  C    -39.189800   27.316400   83.846500
  C    -40.235000   27.293900   82.909400
  C    -41.080700   26.226400   83.168800
  H    -38.361100   28.083100   83.921500
  C    -40.160600   28.229800   81.798100
  H    -40.246800   29.207700   82.267600
  H    -41.076700   28.061000   81.235700
  C    -38.916700   28.056700   80.939000
  H    -38.031600   28.270100   81.483200
  H    -39.029400   28.808200   80.124600
  C    -38.783300   26.694800   80.208100
  H    -37.963100   26.835500   79.469100
  H    -39.646900   26.460600   79.652600
  H    -38.690300   25.917300   80.947100
  H    -45.107900   25.801100   80.384300
  H    -38.419100   26.155300   85.423800

 Total Charge           Charge          ....    0
 Multiplicity           Mult            ....    1
 Number of Electrons    NEL             ....  134
 Basis Dimension        Dim             ....  322

ORBITAL ENERGIES
----------------

  NO   OCC          E(Eh)            E(eV)
   0   2.0000     -88.966813     -2420.9101
   1   2.0000     -88.965591     -2420.8768
   2   2.0000     -10.322443      -280.8879
   3   2.0000     -10.320513      -280.8354
   4   2.0000     -10.308813      -280.5171
   5   2.0000     -10.306043      -280.4417
   6   2.0000     -10.294668      -280.1322
   7   2.0000     -10.291396      -280.0431
   8   2.0000     -10.291325      -280.0412
   9   2.0000     -10.287127      -279.9270
  10   2.0000     -10.285424      -279.8806
  11   2.0000     -10.284157      -279.8462
  12   2.0000     -10.283729      -279.8345
  13   2.0000     -10.281740      -279.7804
  14   2.0000     -10.280457      -279.7455
  15   2.0000     -10.271131      -279.4917
  16   2.0000      -8.082135      -219.9261
  17   2.0000      -8.081051      -219.8966
  18   2.0000      -6.040573      -164.3724
  19   2.0000      -6.039429      -164.3412
  20   2.0000      -6.036554      -164.2630
  21   2.0000      -6.035335      -164.2298
  22   2.0000      -6.032968      -164.1654
  23   2.0000      -6.032007      -164.1393
  24   2.0000      -1.019438       -27.7403
  25   2.0000      -0.994704       -27.0673
  26   2.0000      -0.917800       -24.9746
  27   2.0000      -0.917259       -24.9599
  28   2.0000      -0.872240       -23.7349
  29   2.0000      -0.853549       -23.2263
  30   2.0000      -0.845456       -23.0060
  31   2.0000      -0.813015       -22.1233
  32   2.0000      -0.788002       -21.4426
  33   2.0000      -0.776855       -21.1393
  34   2.0000      -0.712127       -19.3780
  35   2.0000      -0.701924       -19.1003
  36   2.0000      -0.690145       -18.7798
  37   2.0000      -0.666268       -18.1301
  38   2.0000      -0.633137       -17.2285
  39   2.0000      -0.619909       -16.8686
  40   2.0000      -0.599586       -16.3156
  41   2.0000      -0.573081       -15.5943
  42   2.0000      -0.557749       -15.1771
  43   2.0000      -0.550673       -14.9846
  44   2.0000      -0.546705       -14.8766
  45   2.0000      -0.539676       -14.6853
  46   2.0000      -0.523223       -14.2376
  47   2.0000      -0.516139       -14.0449
  48   2.0000      -0.507575       -13.8118
  49   2.0000      -0.498266       -13.5585
  50   2.0000      -0.487467       -13.2647
  51   2.0000      -0.474496       -12.9117
  52   2.0000      -0.471238       -12.8230
  53   2.0000      -0.465964       -12.6795
  54   2.0000      -0.458927       -12.4880
  55   2.0000      -0.446491       -12.1496
  56   2.0000      -0.443922       -12.0797
  57   2.0000      -0.440470       -11.9858
  58   2.0000      -0.433459       -11.7950
  59   2.0000      -0.426597       -11.6083
  60   2.0000      -0.420243       -11.4354
  61   2.0000      -0.412597       -11.2273
  62   2.0000      -0.411480       -11.1969
  63   2.0000      -0.352501        -9.5920
  64   2.0000      -0.332745        -9.0544
  65   2.0000      -0.330751        -9.0002
  66   2.0000      -0.287520        -7.8238
  67   0.0000       0.030236         0.8228
  68   0.0000       0.083428         2.2702
  69   0.0000       0.116698         3.1755
  70   0.0000       0.125681         3.4200
  71   0.0000       0.134585         3.6622

MULLIKEN ATOMIC CHARGES
-----------------------
   0 S :    0.117298
   1 C :   -0.108776
   2 C :   -0.122179
   3 C :    0.013165
   4 C :   -0.155663
   5 H :    0.017999
   6 C :    0.090316
   7 H :    0.031315
   8 H :   -0.005232
   9 C :   -0.058014
  10 H :    0.027693
  11 H :    0.039441
  12 C :   -0.073884
  13 H :    0.054373
  14 H :    0.031706
  15 H :    0.041443
  16 S :    0.114513
  17 C :   -0.053232
  18 C :   -0.076834
  19 C :   -0.065553
  20 C :   -0.155690
  21 H :    0.037124
  22 C :    0.120456
  23 H :    0.033090
  24 H :    0.005636
  25 C :   -0.080418
  26 H :    0.023517
  27 H :    0.030834
  28 C :   -0.030980
  29 H :    0.041553
  30 H :    0.020357
  31 H :    0.042102
  32 H :    0.031681
  33 H :    0.020846
Sum of atomic charges:    0.0000000

LOEWDIN ATOMIC CHARGES
----------------------
   0 S :    0.447136
   1 C :   -0.206878
   2 C :   -0.066030
   3 C :   -0.079771
   4 C :   -0.209075
   5 H :    0.033077
   6 C :   -0.034215
   7 H :    0.034760
   8 H :    0.021276
   9 C :   -0.035724
  10 H :    0.019093
  11 H :    0.030122
  12 C :   -0.065053
  13 H :    0.030304
  14 H :    0.023869
  15 H :    0.029550
  16 S :    0.427625
  17 C :   -0.184771
  18 C :   -0.072190
  19 C :   -0.065304
  20 C :   -0.206860
  21 H :    0.038985
  22 C :   -0.037736
  23 H :    0.038126
  24 H :    0.017769
  25 C :   -0.032785
  26 H :    0.015545
  27 H :    0.028754
  28 C :   -0.056941
  29 H :    0.033889
  30 H :    0.019240
  31 H :    0.025289
  32 H :    0.025405
  33 H :    0.013520

  Mayer bond orders larger than 0.100000
B(  0-S ,  1-C ) :   1.1297 B(  0-S ,  4-C ) :   1.1804 B(  1-C ,  2-C ) :   1.6059
B(  1-C , 32-H ) :   0.9683 B(  2-C ,  3-C ) :   1.2631 B(  2-C ,  6-C ) :   1.0255
B(  3-C ,  4-C ) :   1.5461 B(  3-C ,  5-H ) :   0.9869 B(  4-C , 20-C ) :   1.0269
B(  6-C ,  7-H ) :   0.9360 B(  6-C ,  8-H ) :   0.9302 B(  6-C ,  9-C ) :   1.0711
B(  9-C , 10-H ) :   0.9580 B(  9-C , 11-H ) :   0.9566 B(  9-C , 12-C ) :   1.0700
B( 12-C , 13-H ) :   0.9736 B( 12-C , 14-H ) :   0.9764 B( 12-C , 15-H ) :   0.9735
B( 16-S , 17-C ) :   1.1554 B( 16-S , 20-C ) :   1.1487 B( 17-C , 18-C ) :   1.6132
B( 17-C , 33-H ) :   0.9759 B( 18-C , 19-C ) :   1.2400 B( 18-C , 21-H ) :   0.9790
B( 19-C , 20-C ) :   1.5598 B( 19-C , 22-C ) :   1.0465 B( 22-C , 23-H ) :   0.9189
B( 22-C , 24-H ) :   0.9150 B( 22-C , 25-C ) :   1.0817 B( 25-C , 26-H ) :   0.9545
B( 25-C , 27-H ) :   0.9550 B( 25-C , 28-C ) :   1.0711 B( 28-C , 29-H ) :   0.9745
B( 28-C , 30-H ) :   0.9749 B( 28-C , 31-H ) :   0.9750

Dispersion correction           -0.015482208
FINAL SINGLE POINT ENERGY     -1339.883023418345

DIPOLE MOMENT
-------------
                                X             Y             Z
Electronic contribution:      2.06930       5.85958      13.40124
Nuclear contribution   :     -1.92422      -5.98204     -13.67747
                        -----------------------------------------
Total Dipole Moment    :      0.14508      -0.12246      -0.27623
                        -----------------------------------------
Magnitude (a.u.)       :      0.33518
Magnitude (Debye)      :      0.85197

Rotational constants in cm-1:     0.024180     0.008347     0.007399
Rotational constants in MHz :   724.894989   250.227381   221.831193

                             ****ORCA TERMINATED NORMALLY****
TOTAL RUN TIME: 0 days 0 hours 0 minutes 32 seconds 30 msec
