                         Program Version 4.2.1 -  RELEASE  -
|  1> ! wB97X-D3 SP def2-SVP
|  2> %pal
|  3> nprocs 16
|  4> end
|  5>
|  6> * xyz 0 1
|  7> S 	 -33.2499 	 62.3147 	 113.868
|  8> C 	 -34.8779 	 62.7456 	 113.334
|  9> C 	 -35.2588 	 63.9932 	 113.934
| 10> C 	 -34.195 	 64.5401 	 114.786
| 11> C 	 -33.0695 	 63.7637 	 114.799
| 12> H 	 -34.0171 	 65.4929 	 115.183
| 13> C 	 -36.6498 	 64.6442 	 113.831
| 14> H 	 -36.6429 	 65.3227 	 114.66
| 15> H 	 -37.3368 	 63.842 	 113.952
| 16> C 	 -37.0329 	 65.574 	 112.614
| 17> H 	 -37.022 	 64.9751 	 111.73
| 18> H 	 -37.9566 	 65.8853 	 112.887
| 19> C 	 -36.2118 	 66.8566 	 112.29
| 20> H 	 -35.1689 	 66.5885 	 112.059
| 21> H 	 -36.6456 	 67.4047 	 111.445
| 22> H 	 -36.1866 	 67.5382 	 113.114
| 23> S 	 -30.2343 	 63.4596 	 114.74
| 24> C 	 -29.3204 	 64.1815 	 116.042
| 25> C 	 -30.155 	 64.7447 	 116.959
| 26> C 	 -31.5372 	 64.5815 	 116.703
| 27> C 	 -31.7778 	 64.0457 	 115.413
| 28> H 	 -29.7707 	 65.1586 	 117.885
| 29> C 	 -32.6505 	 64.9966 	 117.745
| 30> H 	 -33.6584 	 64.9411 	 117.273
| 31> H 	 -32.3863 	 66.0237 	 117.965
| 32> C 	 -32.8257 	 64.0123 	 118.91
| 33> H 	 -31.8808 	 63.7956 	 119.385
| 34> H 	 -33.3713 	 63.125 	 118.549
| 35> C 	 -33.7922 	 64.505 	 120.064
| 36> H 	 -34.8326 	 64.6429 	 119.681
| 37> H 	 -33.4059 	 65.5031 	 120.411
| 38> H 	 -33.7961 	 63.8463 	 120.957
| 39> H 	 -35.4557 	 62.2655 	 112.506
| 40> H 	 -28.2746 	 64.2431 	 116.202
| 41> *
| 42>
| 43>                          ****END OF INPUT****

CARTESIAN COORDINATES (ANGSTROEM)
---------------------------------
  S    -33.249900   62.314700  113.868000
  C    -34.877900   62.745600  113.334000
  C    -35.258800   63.993200  113.934000
  C    -34.195000   64.540100  114.786000
  C    -33.069500   63.763700  114.799000
  H    -34.017100   65.492900  115.183000
  C    -36.649800   64.644200  113.831000
  H    -36.642900   65.322700  114.660000
  H    -37.336800   63.842000  113.952000
  C    -37.032900   65.574000  112.614000
  H    -37.022000   64.975100  111.730000
  H    -37.956600   65.885300  112.887000
  C    -36.211800   66.856600  112.290000
  H    -35.168900   66.588500  112.059000
  H    -36.645600   67.404700  111.445000
  H    -36.186600   67.538200  113.114000
  S    -30.234300   63.459600  114.740000
  C    -29.320400   64.181500  116.042000
  C    -30.155000   64.744700  116.959000
  C    -31.537200   64.581500  116.703000
  C    -31.777800   64.045700  115.413000
  H    -29.770700   65.158600  117.885000
  C    -32.650500   64.996600  117.745000
  H    -33.658400   64.941100  117.273000
  H    -32.386300   66.023700  117.965000
  C    -32.825700   64.012300  118.910000
  H    -31.880800   63.795600  119.385000
  H    -33.371300   63.125000  118.549000
  C    -33.792200   64.505000  120.064000
  H    -34.832600   64.642900  119.681000
  H    -33.405900   65.503100  120.411000
  H    -33.796100   63.846300  120.957000
  H    -35.455700   62.265500  112.506000
  H    -28.274600   64.243100  116.202000

 Total Charge           Charge          ....    0
 Multiplicity           Mult            ....    1
 Number of Electrons    NEL             ....  134
 Basis Dimension        Dim             ....  322

ORBITAL ENERGIES
----------------

  NO   OCC          E(Eh)            E(eV)
   0   2.0000     -88.970967     -2421.0231
   1   2.0000     -88.965513     -2420.8747
   2   2.0000     -10.332829      -281.1706
   3   2.0000     -10.327932      -281.0373
   4   2.0000     -10.322067      -280.8777
   5   2.0000     -10.316346      -280.7220
   6   2.0000     -10.313686      -280.6497
   7   2.0000     -10.308888      -280.5191
   8   2.0000     -10.298629      -280.2400
   9   2.0000     -10.291967      -280.0587
  10   2.0000     -10.291532      -280.0468
  11   2.0000     -10.291314      -280.0409
  12   2.0000     -10.289720      -279.9975
  13   2.0000     -10.287934      -279.9489
  14   2.0000     -10.281091      -279.7627
  15   2.0000     -10.278300      -279.6868
  16   2.0000      -8.084765      -219.9976
  17   2.0000      -8.080187      -219.8731
  18   2.0000      -6.043459      -164.4509
  19   2.0000      -6.039361      -164.3394
  20   2.0000      -6.038764      -164.3231
  21   2.0000      -6.035412      -164.2319
  22   2.0000      -6.034570      -164.2090
  23   2.0000      -6.031013      -164.1122
  24   2.0000      -1.004342       -27.3295
  25   2.0000      -0.979806       -26.6619
  26   2.0000      -0.905284       -24.6340
  27   2.0000      -0.901165       -24.5219
  28   2.0000      -0.867833       -23.6149
  29   2.0000      -0.849880       -23.1264
  30   2.0000      -0.841633       -22.9020
  31   2.0000      -0.816141       -22.2083
  32   2.0000      -0.783201       -21.3120
  33   2.0000      -0.770083       -20.9550
  34   2.0000      -0.708259       -19.2727
  35   2.0000      -0.701865       -19.0987
  36   2.0000      -0.689942       -18.7743
  37   2.0000      -0.657046       -17.8791
  38   2.0000      -0.640088       -17.4177
  39   2.0000      -0.611429       -16.6378
  40   2.0000      -0.593064       -16.1381
  41   2.0000      -0.576410       -15.6849
  42   2.0000      -0.566745       -15.4219
  43   2.0000      -0.549060       -14.9407
  44   2.0000      -0.540601       -14.7105
  45   2.0000      -0.519119       -14.1259
  46   2.0000      -0.516491       -14.0544
  47   2.0000      -0.511605       -13.9215
  48   2.0000      -0.507678       -13.8146
  49   2.0000      -0.495462       -13.4822
  50   2.0000      -0.485181       -13.2025
  51   2.0000      -0.476801       -12.9744
  52   2.0000      -0.473362       -12.8808
  53   2.0000      -0.466017       -12.6810
  54   2.0000      -0.461671       -12.5627
  55   2.0000      -0.450618       -12.2619
  56   2.0000      -0.448171       -12.1954
  57   2.0000      -0.442629       -12.0446
  58   2.0000      -0.429317       -11.6823
  59   2.0000      -0.421334       -11.4651
  60   2.0000      -0.416879       -11.3439
  61   2.0000      -0.415183       -11.2977
  62   2.0000      -0.407717       -11.0946
  63   2.0000      -0.353784        -9.6270
  64   2.0000      -0.335088        -9.1182
  65   2.0000      -0.326273        -8.8783
  66   2.0000      -0.285825        -7.7777
  67   0.0000       0.020370         0.5543
  68   0.0000       0.076332         2.0771
  69   0.0000       0.099890         2.7181
  70   0.0000       0.118307         3.2193
  71   0.0000       0.137508         3.7418

MULLIKEN ATOMIC CHARGES
-----------------------
   0 S :    0.100595
   1 C :   -0.136758
   2 C :   -0.118245
   3 C :    0.029378
   4 C :   -0.150297
   5 H :    0.009944
   6 C :    0.071979
   7 H :    0.010865
   8 H :    0.035051
   9 C :   -0.021247
  10 H :    0.023796
  11 H :    0.010563
  12 C :   -0.065669
  13 H :    0.043156
  14 H :    0.040446
  15 H :    0.019518
  16 S :    0.112797
  17 C :   -0.063622
  18 C :   -0.031833
  19 C :   -0.062280
  20 C :   -0.142597
  21 H :    0.015655
  22 C :    0.059035
  23 H :    0.024700
  24 H :    0.034355
  25 C :   -0.070755
  26 H :    0.029671
  27 H :    0.046368
  28 C :   -0.090579
  29 H :    0.040709
  30 H :    0.027819
  31 H :    0.048949
  32 H :    0.073725
  33 H :    0.044809
Sum of atomic charges:   -0.0000000

LOEWDIN ATOMIC CHARGES
----------------------
   0 S :    0.403302
   1 C :   -0.215789
   2 C :   -0.051840
   3 C :   -0.075440
   4 C :   -0.187230
   5 H :    0.026319
   6 C :   -0.025778
   7 H :    0.027375
   8 H :    0.031602
   9 C :   -0.023338
  10 H :    0.019353
  11 H :    0.011040
  12 C :   -0.063438
  13 H :    0.028977
  14 H :    0.031223
  15 H :    0.017168
  16 S :    0.397793
  17 C :   -0.179876
  18 C :   -0.075896
  19 C :   -0.048935
  20 C :   -0.196433
  21 H :    0.030695
  22 C :   -0.032671
  23 H :    0.035377
  24 H :    0.027746
  25 C :   -0.038424
  26 H :    0.018308
  27 H :    0.033134
  28 C :   -0.073890
  29 H :    0.026136
  30 H :    0.023386
  31 H :    0.029780
  32 H :    0.040867
  33 H :    0.029396

  Mayer bond orders larger than 0.100000
B(  0-S ,  1-C ) :   1.1305 B(  0-S ,  4-C ) :   1.1463 B(  1-C ,  2-C ) :   1.6052
B(  1-C , 32-H ) :   0.9656 B(  2-C ,  3-C ) :   1.2181 B(  2-C ,  6-C ) :   1.0120
B(  3-C ,  4-C ) :   1.6016 B(  3-C ,  5-H ) :   0.9833 B(  4-C , 20-C ) :   1.0684
B(  6-C ,  7-H ) :   0.9409 B(  6-C ,  8-H ) :   0.9451 B(  6-C ,  9-C ) :   1.0658
B(  9-C , 10-H ) :   0.9601 B(  9-C , 11-H ) :   0.9551 B(  9-C , 12-C ) :   1.0806
B( 12-C , 13-H ) :   0.9766 B( 12-C , 14-H ) :   0.9741 B( 12-C , 15-H ) :   0.9764
B( 16-S , 17-C ) :   1.1468 B( 16-S , 20-C ) :   1.1302 B( 17-C , 18-C ) :   1.6139
B( 17-C , 33-H ) :   0.9685 B( 18-C , 19-C ) :   1.2684 B( 18-C , 21-H ) :   0.9841
B( 19-C , 20-C ) :   1.5607 B( 19-C , 22-C ) :   1.0253 B( 22-C , 23-H ) :   0.9336
B( 22-C , 24-H ) :   0.9433 B( 22-C , 25-C ) :   1.0595 B( 25-C , 26-H ) :   0.9622
B( 25-C , 27-H ) :   0.9579 B( 25-C , 28-C ) :   1.0720 B( 28-C , 29-H ) :   0.9768
B( 28-C , 30-H ) :   0.9769 B( 28-C , 31-H ) :   0.9763

Dispersion correction           -0.013735646
FINAL SINGLE POINT ENERGY     -1339.861011529629

DIPOLE MOMENT
-------------
                                X             Y             Z
Electronic contribution:     19.95782     -14.80908     -10.50809
Nuclear contribution   :    -20.28089      15.24554      10.83801
                        -----------------------------------------
Total Dipole Moment    :     -0.32306       0.43646       0.32992
                        -----------------------------------------
Magnitude (a.u.)       :      0.63539
Magnitude (Debye)      :      1.61503

Rotational constants in cm-1:     0.016913     0.008371     0.006750
Rotational constants in MHz :   507.044708   250.943785   202.362197

                             ****ORCA TERMINATED NORMALLY****
TOTAL RUN TIME: 0 days 0 hours 0 minutes 27 seconds 504 msec
