                         Program Version 4.2.1 -  RELEASE  -
|  1> ! wB97X-D3 SP def2-SVP
|  2> %pal
|  3> nprocs 16
|  4> end
|  5>
|  6> * xyz 0 1
|  7> S 	 28.665 	 -6.24466 	 79.2621
|  8> C 	 29.7676 	 -5.55928 	 78.1052
|  9> C 	 29.646 	 -4.20728 	 78.0709
| 10> C 	 28.6019 	 -3.73789 	 79.0029
| 11> C 	 27.9322 	 -4.74538 	 79.6857
| 12> H 	 28.2778 	 -2.7519 	 79.2561
| 13> C 	 30.4271 	 -3.16965 	 77.275
| 14> H 	 29.7922 	 -2.30948 	 77.2528
| 15> H 	 30.6088 	 -3.69204 	 76.3084
| 16> C 	 31.7854 	 -2.65647 	 77.8658
| 17> H 	 32.5083 	 -3.47928 	 78.0195
| 18> H 	 32.1584 	 -2.02827 	 77.149
| 19> C 	 31.6274 	 -1.99763 	 79.2179
| 20> H 	 32.6002 	 -1.63319 	 79.5484
| 21> H 	 30.8975 	 -1.25728 	 79.1907
| 22> H 	 31.2563 	 -2.73644 	 79.9702
| 23> S 	 25.1357 	 -4.64524 	 79.7036
| 24> C 	 24.311 	 -4.40839 	 81.1699
| 25> C 	 25.1874 	 -4.13429 	 82.2156
| 26> C 	 26.5708 	 -4.26437 	 81.8565
| 27> C 	 26.7139 	 -4.61125 	 80.5109
| 28> H 	 24.7515 	 -3.82779 	 83.1549
| 29> C 	 27.7173 	 -4.00104 	 82.7661
| 30> H 	 27.3619 	 -3.38689 	 83.532
| 31> H 	 28.5044 	 -3.57795 	 82.2334
| 32> C 	 28.3659 	 -5.21444 	 83.3881
| 33> H 	 29.2235 	 -4.82708 	 83.8355
| 34> H 	 28.7002 	 -5.99283 	 82.7267
| 35> C 	 27.4233 	 -5.80099 	 84.3939
| 36> H 	 26.6077 	 -6.27205 	 83.8124
| 37> H 	 27.0298 	 -4.96078 	 85.019
| 38> H 	 27.8977 	 -6.52317 	 85.0622
| 39> H 	 30.5849 	 -6.03713 	 77.5874
| 40> H 	 23.2465 	 -4.28817 	 81.3336
| 41> *
| 42>
| 43>                          ****END OF INPUT****

CARTESIAN COORDINATES (ANGSTROEM)
---------------------------------
  S     28.665000   -6.244660   79.262100
  C     29.767600   -5.559280   78.105200
  C     29.646000   -4.207280   78.070900
  C     28.601900   -3.737890   79.002900
  C     27.932200   -4.745380   79.685700
  H     28.277800   -2.751900   79.256100
  C     30.427100   -3.169650   77.275000
  H     29.792200   -2.309480   77.252800
  H     30.608800   -3.692040   76.308400
  C     31.785400   -2.656470   77.865800
  H     32.508300   -3.479280   78.019500
  H     32.158400   -2.028270   77.149000
  C     31.627400   -1.997630   79.217900
  H     32.600200   -1.633190   79.548400
  H     30.897500   -1.257280   79.190700
  H     31.256300   -2.736440   79.970200
  S     25.135700   -4.645240   79.703600
  C     24.311000   -4.408390   81.169900
  C     25.187400   -4.134290   82.215600
  C     26.570800   -4.264370   81.856500
  C     26.713900   -4.611250   80.510900
  H     24.751500   -3.827790   83.154900
  C     27.717300   -4.001040   82.766100
  H     27.361900   -3.386890   83.532000
  H     28.504400   -3.577950   82.233400
  C     28.365900   -5.214440   83.388100
  H     29.223500   -4.827080   83.835500
  H     28.700200   -5.992830   82.726700
  C     27.423300   -5.800990   84.393900
  H     26.607700   -6.272050   83.812400
  H     27.029800   -4.960780   85.019000
  H     27.897700   -6.523170   85.062200
  H     30.584900   -6.037130   77.587400
  H     23.246500   -4.288170   81.333600

 Total Charge           Charge          ....    0
 Multiplicity           Mult            ....    1
 Number of Electrons    NEL             ....  134
 Basis Dimension        Dim             ....  322

ORBITAL ENERGIES
----------------

  NO   OCC          E(Eh)            E(eV)
   0   2.0000     -88.967034     -2420.9161
   1   2.0000     -88.963496     -2420.8198
   2   2.0000     -10.327485      -281.0252
   3   2.0000     -10.326991      -281.0117
   4   2.0000     -10.314884      -280.6823
   5   2.0000     -10.312402      -280.6147
   6   2.0000     -10.303841      -280.3818
   7   2.0000     -10.302484      -280.3448
   8   2.0000     -10.294825      -280.1364
   9   2.0000     -10.294008      -280.1142
  10   2.0000     -10.292767      -280.0804
  11   2.0000     -10.282555      -279.8026
  12   2.0000     -10.275364      -279.6069
  13   2.0000     -10.273366      -279.5525
  14   2.0000     -10.272579      -279.5311
  15   2.0000     -10.269100      -279.4364
  16   2.0000      -8.082075      -219.9244
  17   2.0000      -8.078705      -219.8327
  18   2.0000      -6.040519      -164.3709
  19   2.0000      -6.037294      -164.2831
  20   2.0000      -6.036472      -164.2607
  21   2.0000      -6.032941      -164.1647
  22   2.0000      -6.032933      -164.1645
  23   2.0000      -6.029550      -164.0724
  24   2.0000      -1.006637       -27.3920
  25   2.0000      -0.987159       -26.8620
  26   2.0000      -0.923369       -25.1261
  27   2.0000      -0.912568       -24.8322
  28   2.0000      -0.870722       -23.6935
  29   2.0000      -0.850245       -23.1363
  30   2.0000      -0.843891       -22.9634
  31   2.0000      -0.813884       -22.1469
  32   2.0000      -0.784741       -21.3539
  33   2.0000      -0.775725       -21.1085
  34   2.0000      -0.708905       -19.2903
  35   2.0000      -0.706355       -19.2209
  36   2.0000      -0.688925       -18.7466
  37   2.0000      -0.658788       -17.9265
  38   2.0000      -0.644216       -17.5300
  39   2.0000      -0.608415       -16.5558
  40   2.0000      -0.595004       -16.1909
  41   2.0000      -0.580275       -15.7901
  42   2.0000      -0.563536       -15.3346
  43   2.0000      -0.551584       -15.0094
  44   2.0000      -0.549514       -14.9530
  45   2.0000      -0.543853       -14.7990
  46   2.0000      -0.521709       -14.1964
  47   2.0000      -0.518871       -14.1192
  48   2.0000      -0.504021       -13.7151
  49   2.0000      -0.490699       -13.3526
  50   2.0000      -0.486561       -13.2400
  51   2.0000      -0.479988       -13.0611
  52   2.0000      -0.474587       -12.9142
  53   2.0000      -0.468092       -12.7374
  54   2.0000      -0.466004       -12.6806
  55   2.0000      -0.439907       -11.9705
  56   2.0000      -0.436081       -11.8664
  57   2.0000      -0.434280       -11.8174
  58   2.0000      -0.431745       -11.7484
  59   2.0000      -0.429795       -11.6953
  60   2.0000      -0.426660       -11.6100
  61   2.0000      -0.417054       -11.3486
  62   2.0000      -0.414638       -11.2829
  63   2.0000      -0.331724        -9.0267
  64   2.0000      -0.325481        -8.8568
  65   2.0000      -0.322281        -8.7697
  66   2.0000      -0.314145        -8.5483
  67   0.0000       0.047651         1.2966
  68   0.0000       0.051815         1.4099
  69   0.0000       0.112077         3.0498
  70   0.0000       0.125838         3.4242
  71   0.0000       0.129900         3.5348

MULLIKEN ATOMIC CHARGES
-----------------------
   0 S :    0.115091
   1 C :   -0.108801
   2 C :   -0.107351
   3 C :    0.044868
   4 C :   -0.198090
   5 H :   -0.000217
   6 C :    0.062164
   7 H :    0.021615
   8 H :    0.037832
   9 C :   -0.030117
  10 H :    0.023719
  11 H :    0.017179
  12 C :   -0.044964
  13 H :    0.036223
  14 H :    0.009669
  15 H :    0.044626
  16 S :    0.134206
  17 C :   -0.086157
  18 C :   -0.058362
  19 C :   -0.028622
  20 C :   -0.185159
  21 H :    0.013248
  22 C :    0.148667
  23 H :    0.000669
  24 H :    0.004933
  25 C :   -0.031671
  26 H :    0.006827
  27 H :    0.024485
  28 C :   -0.070707
  29 H :    0.049599
  30 H :    0.019516
  31 H :    0.034852
  32 H :    0.043304
  33 H :    0.056926
Sum of atomic charges:   -0.0000000

LOEWDIN ATOMIC CHARGES
----------------------
   0 S :    0.421362
   1 C :   -0.202686
   2 C :   -0.066535
   3 C :   -0.061951
   4 C :   -0.214242
   5 H :    0.024772
   6 C :   -0.027734
   7 H :    0.027929
   8 H :    0.037539
   9 C :   -0.029737
  10 H :    0.025248
  11 H :    0.011914
  12 C :   -0.060146
  13 H :    0.028182
  14 H :    0.010648
  15 H :    0.033360
  16 S :    0.429792
  17 C :   -0.201715
  18 C :   -0.079129
  19 C :   -0.043788
  20 C :   -0.205574
  21 H :    0.028776
  22 C :   -0.018446
  23 H :    0.023679
  24 H :    0.025788
  25 C :   -0.031017
  26 H :    0.014852
  27 H :    0.022063
  28 C :   -0.066417
  29 H :    0.031339
  30 H :    0.023077
  31 H :    0.023000
  32 H :    0.032531
  33 H :    0.033267

  Mayer bond orders larger than 0.100000
B(  0-S ,  1-C ) :   1.1367 B(  0-S ,  4-C ) :   1.1575 B(  1-C ,  2-C ) :   1.6361
B(  1-C , 32-H ) :   0.9673 B(  2-C ,  3-C ) :   1.2068 B(  2-C ,  6-C ) :   1.0171
B(  3-C ,  4-C ) :   1.6048 B(  3-C ,  5-H ) :   0.9949 B(  4-C , 20-C ) :   1.0026
B(  6-C ,  7-H ) :   0.9400 B(  6-C ,  8-H ) :   0.9391 B(  6-C ,  9-C ) :   1.0740
B(  9-C , 10-H ) :   0.9553 B(  9-C , 11-H ) :   0.9564 B(  9-C , 12-C ) :   1.0824
B( 12-C , 13-H ) :   0.9715 B( 12-C , 14-H ) :   0.9762 B( 12-C , 15-H ) :   0.9713
B( 16-S , 17-C ) :   1.1799 B( 16-S , 20-C ) :   1.1498 B( 17-C , 18-C ) :   1.5979
B( 17-C , 33-H ) :   0.9632 B( 18-C , 19-C ) :   1.2426 B( 18-C , 21-H ) :   0.9922
B( 19-C , 20-C ) :   1.5796 B( 19-C , 22-C ) :   1.0579 B( 22-C , 23-H ) :   0.9258
B( 22-C , 24-H ) :   0.9109 B( 22-C , 25-C ) :   1.0894 B( 25-C , 26-H ) :   0.9506
B( 25-C , 27-H ) :   0.9510 B( 25-C , 28-C ) :   1.0784 B( 28-C , 29-H ) :   0.9742
B( 28-C , 30-H ) :   0.9735 B( 28-C , 31-H ) :   0.9732

Dispersion correction           -0.015250952
FINAL SINGLE POINT ENERGY     -1339.874509492478

DIPOLE MOMENT
-------------
                                X             Y             Z
Electronic contribution:    -16.81800      -9.91178     -10.67042
Nuclear contribution   :     17.18557      10.43988      10.84888
                        -----------------------------------------
Total Dipole Moment    :      0.36757       0.52809       0.17845
                        -----------------------------------------
Magnitude (a.u.)       :      0.66771
Magnitude (Debye)      :      1.69718

Rotational constants in cm-1:     0.020251     0.008459     0.007466
Rotational constants in MHz :   607.101423   253.579900   223.816212

                             ****ORCA TERMINATED NORMALLY****
TOTAL RUN TIME: 0 days 0 hours 0 minutes 30 seconds 969 msec
