                         Program Version 4.2.1 -  RELEASE  -
|  1> ! wB97X-D3 SP def2-SVP
|  2> %pal
|  3> nprocs 16
|  4> end
|  5>
|  6> * xyz 0 1
|  7> S 	 -34.0946 	 72.3928 	 150.402
|  8> C 	 -32.7135 	 72.5645 	 149.294
|  9> C 	 -31.5176 	 72.0421 	 149.832
| 10> C 	 -31.7344 	 71.5632 	 151.175
| 11> C 	 -33.0435 	 71.7846 	 151.688
| 12> H 	 -30.9473 	 71.1287 	 151.848
| 13> C 	 -30.1315 	 72.1629 	 149.195
| 14> H 	 -29.3832 	 72.1018 	 149.942
| 15> H 	 -29.9869 	 73.1763 	 148.806
| 16> C 	 -29.6762 	 71.112 	 148.213
| 17> H 	 -30.4186 	 71.2129 	 147.422
| 18> H 	 -28.7019 	 71.4125 	 147.771
| 19> C 	 -29.6451 	 69.6788 	 148.851
| 20> H 	 -29.1602 	 68.969 	 148.146
| 21> H 	 -29.0497 	 69.5888 	 149.769
| 22> H 	 -30.6332 	 69.2431 	 148.974
| 23> S 	 -34.573 	 70.147 	 153.415
| 24> C 	 -34.4587 	 70.4853 	 155.129
| 25> C 	 -33.7009 	 71.6079 	 155.384
| 26> C 	 -33.0967 	 72.1832 	 154.2
| 27> C 	 -33.5442 	 71.568 	 153.04
| 28> H 	 -33.6236 	 71.8479 	 156.449
| 29> C 	 -32.1088 	 73.2845 	 154.33
| 30> H 	 -31.1957 	 73.1095 	 153.877
| 31> H 	 -31.8418 	 73.2737 	 155.365
| 32> C 	 -32.5696 	 74.6984 	 153.954
| 33> H 	 -33.1969 	 74.6149 	 153.013
| 34> H 	 -31.7479 	 75.4168 	 153.71
| 35> C 	 -33.3492 	 75.2593 	 155.186
| 36> H 	 -32.7443 	 75.3338 	 156.017
| 37> H 	 -34.2167 	 74.6149 	 155.45
| 38> H 	 -33.6771 	 76.2857 	 154.975
| 39> H 	 -32.7231 	 72.9763 	 148.27
| 40> H 	 -34.7942 	 69.8464 	 155.945
| 41> *
| 42>
| 43>                          ****END OF INPUT****

CARTESIAN COORDINATES (ANGSTROEM)
---------------------------------
  S    -34.094600   72.392800  150.402000
  C    -32.713500   72.564500  149.294000
  C    -31.517600   72.042100  149.832000
  C    -31.734400   71.563200  151.175000
  C    -33.043500   71.784600  151.688000
  H    -30.947300   71.128700  151.848000
  C    -30.131500   72.162900  149.195000
  H    -29.383200   72.101800  149.942000
  H    -29.986900   73.176300  148.806000
  C    -29.676200   71.112000  148.213000
  H    -30.418600   71.212900  147.422000
  H    -28.701900   71.412500  147.771000
  C    -29.645100   69.678800  148.851000
  H    -29.160200   68.969000  148.146000
  H    -29.049700   69.588800  149.769000
  H    -30.633200   69.243100  148.974000
  S    -34.573000   70.147000  153.415000
  C    -34.458700   70.485300  155.129000
  C    -33.700900   71.607900  155.384000
  C    -33.096700   72.183200  154.200000
  C    -33.544200   71.568000  153.040000
  H    -33.623600   71.847900  156.449000
  C    -32.108800   73.284500  154.330000
  H    -31.195700   73.109500  153.877000
  H    -31.841800   73.273700  155.365000
  C    -32.569600   74.698400  153.954000
  H    -33.196900   74.614900  153.013000
  H    -31.747900   75.416800  153.710000
  C    -33.349200   75.259300  155.186000
  H    -32.744300   75.333800  156.017000
  H    -34.216700   74.614900  155.450000
  H    -33.677100   76.285700  154.975000
  H    -32.723100   72.976300  148.270000
  H    -34.794200   69.846400  155.945000

 Total Charge           Charge          ....    0
 Multiplicity           Mult            ....    1
 Number of Electrons    NEL             ....  134
 Basis Dimension        Dim             ....  322

ORBITAL ENERGIES
----------------

  NO   OCC          E(Eh)            E(eV)
   0   2.0000     -88.970670     -2421.0150
   1   2.0000     -88.966638     -2420.9053
   2   2.0000     -10.334340      -281.2117
   3   2.0000     -10.328918      -281.0641
   4   2.0000     -10.322426      -280.8875
   5   2.0000     -10.318764      -280.7879
   6   2.0000     -10.308303      -280.5032
   7   2.0000     -10.307563      -280.4830
   8   2.0000     -10.305128      -280.4168
   9   2.0000     -10.295760      -280.1619
  10   2.0000     -10.291085      -280.0346
  11   2.0000     -10.290019      -280.0057
  12   2.0000     -10.288613      -279.9674
  13   2.0000     -10.282434      -279.7993
  14   2.0000     -10.278021      -279.6792
  15   2.0000     -10.270614      -279.4776
  16   2.0000      -8.084140      -219.9806
  17   2.0000      -8.080686      -219.8866
  18   2.0000      -6.042694      -164.4301
  19   2.0000      -6.039277      -164.3371
  20   2.0000      -6.038734      -164.3223
  21   2.0000      -6.035311      -164.2292
  22   2.0000      -6.035012      -164.2210
  23   2.0000      -6.031369      -164.1219
  24   2.0000      -0.998339       -27.1662
  25   2.0000      -0.975655       -26.5489
  26   2.0000      -0.911701       -24.8087
  27   2.0000      -0.909696       -24.7541
  28   2.0000      -0.864521       -23.5248
  29   2.0000      -0.844302       -22.9746
  30   2.0000      -0.839337       -22.8395
  31   2.0000      -0.808135       -21.9905
  32   2.0000      -0.785694       -21.3798
  33   2.0000      -0.773504       -21.0481
  34   2.0000      -0.709462       -19.3054
  35   2.0000      -0.701452       -19.0875
  36   2.0000      -0.688597       -18.7377
  37   2.0000      -0.656151       -17.8548
  38   2.0000      -0.634088       -17.2544
  39   2.0000      -0.611103       -16.6290
  40   2.0000      -0.594888       -16.1877
  41   2.0000      -0.576080       -15.6759
  42   2.0000      -0.552155       -15.0249
  43   2.0000      -0.546205       -14.8630
  44   2.0000      -0.541213       -14.7271
  45   2.0000      -0.538222       -14.6458
  46   2.0000      -0.514317       -13.9953
  47   2.0000      -0.502686       -13.6788
  48   2.0000      -0.498679       -13.5697
  49   2.0000      -0.492182       -13.3929
  50   2.0000      -0.482265       -13.1231
  51   2.0000      -0.477175       -12.9846
  52   2.0000      -0.471661       -12.8346
  53   2.0000      -0.464945       -12.6518
  54   2.0000      -0.462174       -12.5764
  55   2.0000      -0.441417       -12.0116
  56   2.0000      -0.439609       -11.9624
  57   2.0000      -0.436520       -11.8783
  58   2.0000      -0.432028       -11.7561
  59   2.0000      -0.427359       -11.6290
  60   2.0000      -0.417384       -11.3576
  61   2.0000      -0.415941       -11.3183
  62   2.0000      -0.412798       -11.2328
  63   2.0000      -0.336357        -9.1527
  64   2.0000      -0.330756        -9.0003
  65   2.0000      -0.328173        -8.9300
  66   2.0000      -0.299358        -8.1459
  67   0.0000       0.034090         0.9276
  68   0.0000       0.049856         1.3566
  69   0.0000       0.112798         3.0694
  70   0.0000       0.117812         3.2058
  71   0.0000       0.119626         3.2552

MULLIKEN ATOMIC CHARGES
-----------------------
   0 S :    0.119842
   1 C :   -0.123299
   2 C :   -0.100330
   3 C :    0.043734
   4 C :   -0.203164
   5 H :    0.035224
   6 C :    0.061727
   7 H :    0.000931
   8 H :    0.032536
   9 C :   -0.055297
  10 H :    0.021024
  11 H :    0.036155
  12 C :   -0.075689
  13 H :    0.033004
  14 H :    0.035481
  15 H :    0.049601
  16 S :    0.108728
  17 C :   -0.104066
  18 C :   -0.045854
  19 C :   -0.032446
  20 C :   -0.151746
  21 H :    0.027364
  22 C :    0.141945
  23 H :    0.001403
  24 H :   -0.005028
  25 C :   -0.097055
  26 H :    0.048364
  27 H :    0.036049
  28 C :   -0.038955
  29 H :    0.007458
  30 H :    0.042442
  31 H :    0.029158
  32 H :    0.058235
  33 H :    0.062521
Sum of atomic charges:    0.0000000

LOEWDIN ATOMIC CHARGES
----------------------
   0 S :    0.397791
   1 C :   -0.194628
   2 C :   -0.063980
   3 C :   -0.058629
   4 C :   -0.197981
   5 H :    0.039612
   6 C :   -0.036122
   7 H :    0.021171
   8 H :    0.034234
   9 C :   -0.038222
  10 H :    0.020817
  11 H :    0.028125
  12 C :   -0.072380
  13 H :    0.030417
  14 H :    0.025628
  15 H :    0.030598
  16 S :    0.388681
  17 C :   -0.184733
  18 C :   -0.078824
  19 C :   -0.040766
  20 C :   -0.198796
  21 H :    0.036015
  22 C :   -0.031061
  23 H :    0.022070
  24 H :    0.027162
  25 C :   -0.036281
  26 H :    0.031144
  27 H :    0.027299
  28 C :   -0.062735
  29 H :    0.009996
  30 H :    0.030511
  31 H :    0.024812
  32 H :    0.034260
  33 H :    0.034791

  Mayer bond orders larger than 0.100000
B(  0-S ,  1-C ) :   1.1444 B(  0-S ,  4-C ) :   1.1456 B(  1-C ,  2-C ) :   1.6050
B(  1-C ,  4-C ) :   0.1080 B(  1-C , 32-H ) :   0.9620 B(  2-C ,  3-C ) :   1.2498
B(  2-C ,  6-C ) :   1.0105 B(  3-C ,  4-C ) :   1.5725 B(  3-C ,  5-H ) :   0.9806
B(  4-C , 20-C ) :   1.0375 B(  6-C ,  7-H ) :   0.9416 B(  6-C ,  8-H ) :   0.9455
B(  6-C ,  9-C ) :   1.0720 B(  9-C , 10-H ) :   0.9577 B(  9-C , 11-H ) :   0.9562
B(  9-C , 12-C ) :   1.0674 B( 12-C , 13-H ) :   0.9749 B( 12-C , 14-H ) :   0.9771
B( 12-C , 15-H ) :   0.9739 B( 16-S , 17-C ) :   1.1520 B( 16-S , 20-C ) :   1.1229
B( 17-C , 18-C ) :   1.6483 B( 17-C , 33-H ) :   0.9607 B( 18-C , 19-C ) :   1.2107
B( 18-C , 21-H ) :   0.9838 B( 19-C , 20-C ) :   1.6114 B( 19-C , 22-C ) :   1.0511
B( 22-C , 23-H ) :   0.9180 B( 22-C , 24-H ) :   0.9255 B( 22-C , 25-C ) :   1.0589
B( 25-C , 26-H ) :   0.9607 B( 25-C , 27-H ) :   0.9568 B( 25-C , 28-C ) :   1.0699
B( 28-C , 29-H ) :   0.9745 B( 28-C , 30-H ) :   0.9779 B( 28-C , 31-H ) :   0.9742

Dispersion correction           -0.014946163
FINAL SINGLE POINT ENERGY     -1339.873226410075

DIPOLE MOMENT
-------------
                                X             Y             Z
Electronic contribution:    -19.04081      -8.53707       1.18255
Nuclear contribution   :     19.77411       8.67493      -1.00628
                        -----------------------------------------
Total Dipole Moment    :      0.73329       0.13786       0.17627
                        -----------------------------------------
Magnitude (a.u.)       :      0.76668
Magnitude (Debye)      :      1.94874

Rotational constants in cm-1:     0.019990     0.008052     0.007160
Rotational constants in MHz :   599.277965   241.395918   214.664889

                             ****ORCA TERMINATED NORMALLY****
TOTAL RUN TIME: 0 days 0 hours 0 minutes 34 seconds 925 msec
