                         Program Version 4.2.1 -  RELEASE  -
|  1> ! wB97X-D3 SP def2-SVP
|  2> %pal
|  3> nprocs 16
|  4> end
|  5>
|  6> * xyz 0 1
|  7> S 	 -49.905 	 63.8265 	 135.547
|  8> C 	 -49.2936 	 62.5436 	 136.552
|  9> C 	 -49.1989 	 63.0651 	 137.852
| 10> C 	 -49.6564 	 64.3726 	 137.995
| 11> C 	 -50.0003 	 64.9768 	 136.789
| 12> H 	 -49.7742 	 64.9295 	 138.916
| 13> C 	 -48.6982 	 62.3072 	 139.043
| 14> H 	 -48.4476 	 61.321 	 138.748
| 15> H 	 -49.6527 	 62.0429 	 139.617
| 16> C 	 -47.5381 	 62.9043 	 139.87
| 17> H 	 -46.5272 	 62.9949 	 139.328
| 18> H 	 -47.7766 	 63.9313 	 140.11
| 19> C 	 -47.3707 	 62.09 	 141.143
| 20> H 	 -46.7322 	 61.17 	 140.995
| 21> H 	 -46.813 	 62.7187 	 141.797
| 22> H 	 -48.2654 	 61.796 	 141.708
| 23> S 	 -49.7459 	 67.2727 	 135.409
| 24> C 	 -50.5811 	 68.6538 	 136.042
| 25> C 	 -51.656 	 68.3779 	 136.886
| 26> C 	 -51.5836 	 67.0221 	 137.182
| 27> C 	 -50.5398 	 66.3281 	 136.572
| 28> H 	 -52.3049 	 69.1415 	 137.357
| 29> C 	 -52.6856 	 66.3554 	 138.023
| 30> H 	 -52.9003 	 67.0307 	 138.914
| 31> H 	 -52.3411 	 65.3681 	 138.391
| 32> C 	 -53.9331 	 66.0909 	 137.193
| 33> H 	 -54.5086 	 65.2538 	 137.698
| 34> H 	 -53.7529 	 65.7349 	 136.207
| 35> C 	 -54.7971 	 67.2918 	 137.036
| 36> H 	 -55.6012 	 67.2641 	 136.242
| 37> H 	 -54.2626 	 68.2651 	 136.776
| 38> H 	 -55.3324 	 67.4913 	 137.838
| 39> H 	 -49.0262 	 61.552 	 136.284
| 40> H 	 -50.3021 	 69.678 	 135.809
| 41> *
| 42>
| 43>                          ****END OF INPUT****

CARTESIAN COORDINATES (ANGSTROEM)
---------------------------------
  S    -49.905000   63.826500  135.547000
  C    -49.293600   62.543600  136.552000
  C    -49.198900   63.065100  137.852000
  C    -49.656400   64.372600  137.995000
  C    -50.000300   64.976800  136.789000
  H    -49.774200   64.929500  138.916000
  C    -48.698200   62.307200  139.043000
  H    -48.447600   61.321000  138.748000
  H    -49.652700   62.042900  139.617000
  C    -47.538100   62.904300  139.870000
  H    -46.527200   62.994900  139.328000
  H    -47.776600   63.931300  140.110000
  C    -47.370700   62.090000  141.143000
  H    -46.732200   61.170000  140.995000
  H    -46.813000   62.718700  141.797000
  H    -48.265400   61.796000  141.708000
  S    -49.745900   67.272700  135.409000
  C    -50.581100   68.653800  136.042000
  C    -51.656000   68.377900  136.886000
  C    -51.583600   67.022100  137.182000
  C    -50.539800   66.328100  136.572000
  H    -52.304900   69.141500  137.357000
  C    -52.685600   66.355400  138.023000
  H    -52.900300   67.030700  138.914000
  H    -52.341100   65.368100  138.391000
  C    -53.933100   66.090900  137.193000
  H    -54.508600   65.253800  137.698000
  H    -53.752900   65.734900  136.207000
  C    -54.797100   67.291800  137.036000
  H    -55.601200   67.264100  136.242000
  H    -54.262600   68.265100  136.776000
  H    -55.332400   67.491300  137.838000
  H    -49.026200   61.552000  136.284000
  H    -50.302100   69.678000  135.809000

 Total Charge           Charge          ....    0
 Multiplicity           Mult            ....    1
 Number of Electrons    NEL             ....  134
 Basis Dimension        Dim             ....  322

ORBITAL ENERGIES
----------------

  NO   OCC          E(Eh)            E(eV)
   0   2.0000     -88.969689     -2420.9883
   1   2.0000     -88.963982     -2420.8330
   2   2.0000     -10.325155      -280.9618
   3   2.0000     -10.320740      -280.8416
   4   2.0000     -10.317133      -280.7434
   5   2.0000     -10.309590      -280.5382
   6   2.0000     -10.299989      -280.2770
   7   2.0000     -10.296126      -280.1718
   8   2.0000     -10.295150      -280.1453
   9   2.0000     -10.294676      -280.1324
  10   2.0000     -10.293464      -280.0994
  11   2.0000     -10.288700      -279.9698
  12   2.0000     -10.285517      -279.8832
  13   2.0000     -10.281890      -279.7844
  14   2.0000     -10.278362      -279.6884
  15   2.0000     -10.267921      -279.4043
  16   2.0000      -8.085789      -220.0255
  17   2.0000      -8.079536      -219.8553
  18   2.0000      -6.043949      -164.4642
  19   2.0000      -6.040265      -164.3640
  20   2.0000      -6.037928      -164.3004
  21   2.0000      -6.036669      -164.2661
  22   2.0000      -6.033658      -164.1842
  23   2.0000      -6.030659      -164.1026
  24   2.0000      -1.016629       -27.6639
  25   2.0000      -0.993354       -27.0305
  26   2.0000      -0.913593       -24.8601
  27   2.0000      -0.909946       -24.7609
  28   2.0000      -0.870977       -23.7005
  29   2.0000      -0.853391       -23.2219
  30   2.0000      -0.848508       -23.0891
  31   2.0000      -0.814483       -22.1632
  32   2.0000      -0.782009       -21.2796
  33   2.0000      -0.768077       -20.9004
  34   2.0000      -0.707415       -19.2497
  35   2.0000      -0.697950       -18.9922
  36   2.0000      -0.689253       -18.7555
  37   2.0000      -0.666142       -18.1266
  38   2.0000      -0.641245       -17.4492
  39   2.0000      -0.622220       -16.9315
  40   2.0000      -0.597581       -16.2610
  41   2.0000      -0.570209       -15.5162
  42   2.0000      -0.552036       -15.0217
  43   2.0000      -0.546198       -14.8628
  44   2.0000      -0.541548       -14.7363
  45   2.0000      -0.527644       -14.3579
  46   2.0000      -0.523095       -14.2341
  47   2.0000      -0.511135       -13.9087
  48   2.0000      -0.504974       -13.7410
  49   2.0000      -0.498262       -13.5584
  50   2.0000      -0.493699       -13.4342
  51   2.0000      -0.481492       -13.1021
  52   2.0000      -0.470397       -12.8001
  53   2.0000      -0.465865       -12.6768
  54   2.0000      -0.457844       -12.4586
  55   2.0000      -0.452605       -12.3160
  56   2.0000      -0.445052       -12.1105
  57   2.0000      -0.441739       -12.0203
  58   2.0000      -0.429601       -11.6900
  59   2.0000      -0.424671       -11.5559
  60   2.0000      -0.418788       -11.3958
  61   2.0000      -0.406686       -11.0665
  62   2.0000      -0.401718       -10.9313
  63   2.0000      -0.346440        -9.4271
  64   2.0000      -0.332097        -9.0368
  65   2.0000      -0.328384        -8.9358
  66   2.0000      -0.287060        -7.8113
  67   0.0000       0.035060         0.9540
  68   0.0000       0.063951         1.7402
  69   0.0000       0.111898         3.0449
  70   0.0000       0.122301         3.3280
  71   0.0000       0.139020         3.7829

MULLIKEN ATOMIC CHARGES
-----------------------
   0 S :    0.111484
   1 C :   -0.102943
   2 C :   -0.096401
   3 C :    0.023188
   4 C :   -0.138723
   5 H :    0.013139
   6 C :    0.059709
   7 H :   -0.012209
   8 H :    0.042867
   9 C :   -0.069261
  10 H :    0.050168
  11 H :    0.025052
  12 C :   -0.054804
  13 H :    0.041196
  14 H :    0.019757
  15 H :    0.035686
  16 S :    0.138475
  17 C :   -0.096447
  18 C :   -0.049588
  19 C :   -0.037433
  20 C :   -0.172100
  21 H :    0.046318
  22 C :    0.044122
  23 H :    0.035369
  24 H :    0.026855
  25 C :   -0.028772
  26 H :    0.036298
  27 H :    0.027446
  28 C :   -0.042390
  29 H :    0.027461
  30 H :    0.024266
  31 H :   -0.009721
  32 H :    0.031840
  33 H :    0.050097
Sum of atomic charges:    0.0000000

LOEWDIN ATOMIC CHARGES
----------------------
   0 S :    0.435592
   1 C :   -0.210406
   2 C :   -0.065889
   3 C :   -0.074191
   4 C :   -0.210731
   5 H :    0.031133
   6 C :   -0.041316
   7 H :    0.018738
   8 H :    0.044439
   9 C :   -0.040216
  10 H :    0.040614
  11 H :    0.018597
  12 C :   -0.070293
  13 H :    0.031689
  14 H :    0.021717
  15 H :    0.026553
  16 S :    0.446674
  17 C :   -0.181750
  18 C :   -0.075362
  19 C :   -0.056079
  20 C :   -0.226401
  21 H :    0.042775
  22 C :   -0.030785
  23 H :    0.033984
  24 H :    0.030960
  25 C :   -0.040138
  26 H :    0.033248
  27 H :    0.024581
  28 C :   -0.068541
  29 H :    0.032495
  30 H :    0.031303
  31 H :   -0.000478
  32 H :    0.024119
  33 H :    0.023363

  Mayer bond orders larger than 0.100000
B(  0-S ,  1-C ) :   1.1414 B(  0-S ,  4-C ) :   1.1999 B(  1-C ,  2-C ) :   1.5520
B(  1-C ,  4-C ) :   0.1113 B(  1-C , 32-H ) :   0.9792 B(  2-C ,  3-C ) :   1.2810
B(  2-C ,  6-C ) :   1.0309 B(  3-C ,  4-C ) :   1.5279 B(  3-C ,  5-H ) :   1.0012
B(  4-C , 20-C ) :   0.9941 B(  6-C ,  7-H ) :   0.9332 B(  6-C ,  8-H ) :   0.9385
B(  6-C ,  9-C ) :   1.0498 B(  9-C , 10-H ) :   0.9509 B(  9-C , 11-H ) :   0.9607
B(  9-C , 12-C ) :   1.0789 B( 12-C , 13-H ) :   0.9752 B( 12-C , 14-H ) :   0.9729
B( 12-C , 15-H ) :   0.9763 B( 16-S , 17-C ) :   1.1893 B( 16-S , 20-C ) :   1.1606
B( 17-C , 18-C ) :   1.5687 B( 17-C , 20-C ) :   0.1098 B( 17-C , 33-H ) :   0.9663
B( 18-C , 19-C ) :   1.2713 B( 18-C , 21-H ) :   0.9798 B( 19-C , 20-C ) :   1.5800
B( 19-C , 22-C ) :   1.0426 B( 22-C , 23-H ) :   0.9414 B( 22-C , 24-H ) :   0.9332
B( 22-C , 25-C ) :   1.0592 B( 25-C , 26-H ) :   0.9551 B( 25-C , 27-H ) :   0.9530
B( 25-C , 28-C ) :   1.0793 B( 28-C , 29-H ) :   0.9695 B( 28-C , 30-H ) :   0.9655
B( 28-C , 31-H ) :   0.9723

Dispersion correction           -0.014107874
FINAL SINGLE POINT ENERGY     -1339.855501332901

DIPOLE MOMENT
-------------
                                X             Y             Z
Electronic contribution:      6.98307       6.36829     -21.12285
Nuclear contribution   :     -7.14773      -6.33704      21.70209
                        -----------------------------------------
Total Dipole Moment    :     -0.16465       0.03125       0.57924
                        -----------------------------------------
Magnitude (a.u.)       :      0.60299
Magnitude (Debye)      :      1.53269

Rotational constants in cm-1:     0.020838     0.007450     0.006875
Rotational constants in MHz :   624.702543   223.332876   206.103314

                             ****ORCA TERMINATED NORMALLY****
TOTAL RUN TIME: 0 days 0 hours 0 minutes 34 seconds 429 msec
