                         Program Version 4.2.1 -  RELEASE  -
|  1> ! wB97X-D3 SP def2-SVP
|  2> %pal
|  3> nprocs 16
|  4> end
|  5>
|  6> * xyz 0 1
|  7> S 	 -15.0183 	 -6.4594 	 83.3655
|  8> C 	 -16.4118 	 -7.63036 	 83.3897
|  9> C 	 -15.9068 	 -8.91087 	 83.5952
| 10> C 	 -14.5852 	 -8.86996 	 84.1372
| 11> C 	 -13.9226 	 -7.65786 	 83.8996
| 12> H 	 -13.9833 	 -9.66986 	 84.4842
| 13> C 	 -16.7144 	 -10.165 	 83.377
| 14> H 	 -17.3853 	 -10.3225 	 84.2522
| 15> H 	 -15.9615 	 -10.9874 	 83.2861
| 16> C 	 -17.5499 	 -10.2655 	 82.1037
| 17> H 	 -18.5264 	 -9.74176 	 82.0274
| 18> H 	 -16.9086 	 -9.90534 	 81.317
| 19> C 	 -17.7045 	 -11.8254 	 81.8979
| 20> H 	 -18.3042 	 -12.1344 	 81.0216
| 21> H 	 -16.6898 	 -12.252 	 81.6672
| 22> H 	 -18.1244 	 -12.2367 	 82.8148
| 23> S 	 -12.2221 	 -6.42616 	 85.6873
| 24> C 	 -10.5191 	 -6.40834 	 85.3587
| 25> C 	 -10.1827 	 -7.11889 	 84.2377
| 26> C 	 -11.3158 	 -7.72276 	 83.5578
| 27> C 	 -12.5509 	 -7.32579 	 84.1569
| 28> H 	 -9.17208 	 -7.17862 	 83.8515
| 29> C 	 -11.2474 	 -8.40433 	 82.2289
| 30> H 	 -12.1705 	 -8.98993 	 82.1397
| 31> H 	 -10.314 	 -8.98379 	 82.2716
| 32> C 	 -11.1724 	 -7.52925 	 80.9786
| 33> H 	 -10.4218 	 -6.80996 	 81.1213
| 34> H 	 -12.2136 	 -7.13379 	 80.9558
| 35> C 	 -10.8966 	 -8.32748 	 79.6649
| 36> H 	 -11.541 	 -9.22541 	 79.7309
| 37> H 	 -9.86574 	 -8.66714 	 79.6043
| 38> H 	 -11.1072 	 -7.68515 	 78.7816
| 39> H 	 -17.2837 	 -7.43924 	 82.8495
| 40> H 	 -9.89288 	 -5.72915 	 85.8487
| 41> *
| 42>
| 43>                          ****END OF INPUT****

CARTESIAN COORDINATES (ANGSTROEM)
---------------------------------
  S    -15.018300   -6.459400   83.365500
  C    -16.411800   -7.630360   83.389700
  C    -15.906800   -8.910870   83.595200
  C    -14.585200   -8.869960   84.137200
  C    -13.922600   -7.657860   83.899600
  H    -13.983300   -9.669860   84.484200
  C    -16.714400  -10.165000   83.377000
  H    -17.385300  -10.322500   84.252200
  H    -15.961500  -10.987400   83.286100
  C    -17.549900  -10.265500   82.103700
  H    -18.526400   -9.741760   82.027400
  H    -16.908600   -9.905340   81.317000
  C    -17.704500  -11.825400   81.897900
  H    -18.304200  -12.134400   81.021600
  H    -16.689800  -12.252000   81.667200
  H    -18.124400  -12.236700   82.814800
  S    -12.222100   -6.426160   85.687300
  C    -10.519100   -6.408340   85.358700
  C    -10.182700   -7.118890   84.237700
  C    -11.315800   -7.722760   83.557800
  C    -12.550900   -7.325790   84.156900
  H     -9.172080   -7.178620   83.851500
  C    -11.247400   -8.404330   82.228900
  H    -12.170500   -8.989930   82.139700
  H    -10.314000   -8.983790   82.271600
  C    -11.172400   -7.529250   80.978600
  H    -10.421800   -6.809960   81.121300
  H    -12.213600   -7.133790   80.955800
  C    -10.896600   -8.327480   79.664900
  H    -11.541000   -9.225410   79.730900
  H     -9.865740   -8.667140   79.604300
  H    -11.107200   -7.685150   78.781600
  H    -17.283700   -7.439240   82.849500
  H     -9.892880   -5.729150   85.848700

 Total Charge           Charge          ....    0
 Multiplicity           Mult            ....    1
 Number of Electrons    NEL             ....  134
 Basis Dimension        Dim             ....  322

ORBITAL ENERGIES
----------------

  NO   OCC          E(Eh)            E(eV)
   0   2.0000     -88.964500     -2420.8471
   1   2.0000     -88.962212     -2420.7849
   2   2.0000     -10.329697      -281.0853
   3   2.0000     -10.328140      -281.0430
   4   2.0000     -10.313879      -280.6549
   5   2.0000     -10.311985      -280.6034
   6   2.0000     -10.310651      -280.5671
   7   2.0000     -10.306144      -280.4444
   8   2.0000     -10.299642      -280.2675
   9   2.0000     -10.296644      -280.1859
  10   2.0000     -10.294328      -280.1229
  11   2.0000     -10.293621      -280.1037
  12   2.0000     -10.289390      -279.9885
  13   2.0000     -10.288444      -279.9628
  14   2.0000     -10.283916      -279.8396
  15   2.0000     -10.283456      -279.8271
  16   2.0000      -8.078979      -219.8402
  17   2.0000      -8.076747      -219.7795
  18   2.0000      -6.037469      -164.2879
  19   2.0000      -6.035229      -164.2269
  20   2.0000      -6.033440      -164.1783
  21   2.0000      -6.031265      -164.1191
  22   2.0000      -6.029829      -164.0800
  23   2.0000      -6.027558      -164.0182
  24   2.0000      -1.002939       -27.2914
  25   2.0000      -0.978510       -26.6266
  26   2.0000      -0.917165       -24.9573
  27   2.0000      -0.910852       -24.7855
  28   2.0000      -0.869912       -23.6715
  29   2.0000      -0.847936       -23.0735
  30   2.0000      -0.842984       -22.9388
  31   2.0000      -0.810951       -22.0671
  32   2.0000      -0.779860       -21.2211
  33   2.0000      -0.767070       -20.8730
  34   2.0000      -0.710416       -19.3314
  35   2.0000      -0.703862       -19.1531
  36   2.0000      -0.691282       -18.8107
  37   2.0000      -0.659638       -17.9497
  38   2.0000      -0.645349       -17.5608
  39   2.0000      -0.610978       -16.6256
  40   2.0000      -0.599078       -16.3017
  41   2.0000      -0.577296       -15.7090
  42   2.0000      -0.573656       -15.6100
  43   2.0000      -0.567273       -15.4363
  44   2.0000      -0.526733       -14.3331
  45   2.0000      -0.524331       -14.2678
  46   2.0000      -0.516426       -14.0527
  47   2.0000      -0.513430       -13.9711
  48   2.0000      -0.506576       -13.7846
  49   2.0000      -0.498030       -13.5521
  50   2.0000      -0.487507       -13.2658
  51   2.0000      -0.475667       -12.9435
  52   2.0000      -0.467671       -12.7260
  53   2.0000      -0.460961       -12.5434
  54   2.0000      -0.454423       -12.3655
  55   2.0000      -0.448649       -12.2084
  56   2.0000      -0.443466       -12.0673
  57   2.0000      -0.440360       -11.9828
  58   2.0000      -0.434492       -11.8231
  59   2.0000      -0.430907       -11.7256
  60   2.0000      -0.426070       -11.5939
  61   2.0000      -0.415825       -11.3152
  62   2.0000      -0.410840       -11.1795
  63   2.0000      -0.334424        -9.1001
  64   2.0000      -0.326087        -8.8733
  65   2.0000      -0.322382        -8.7725
  66   2.0000      -0.305040        -8.3006
  67   0.0000       0.031349         0.8530
  68   0.0000       0.051113         1.3908
  69   0.0000       0.105684         2.8758
  70   0.0000       0.113703         3.0940
  71   0.0000       0.126322         3.4374

MULLIKEN ATOMIC CHARGES
-----------------------
   0 S :    0.101675
   1 C :   -0.084475
   2 C :   -0.116915
   3 C :    0.078377
   4 C :   -0.196264
   5 H :    0.001099
   6 C :    0.033665
   7 H :    0.060611
   8 H :    0.029680
   9 C :   -0.086613
  10 H :    0.050225
  11 H :    0.030142
  12 C :   -0.086804
  13 H :    0.037750
  14 H :    0.042194
  15 H :    0.040855
  16 S :    0.101697
  17 C :   -0.060522
  18 C :   -0.033948
  19 C :   -0.016318
  20 C :   -0.176022
  21 H :    0.018943
  22 C :    0.035826
  23 H :    0.030827
  24 H :    0.019718
  25 C :   -0.052020
  26 H :    0.016954
  27 H :    0.033284
  28 C :   -0.054654
  29 H :    0.032290
  30 H :    0.031493
  31 H :    0.050717
  32 H :    0.040881
  33 H :    0.045650
Sum of atomic charges:   -0.0000000

LOEWDIN ATOMIC CHARGES
----------------------
   0 S :    0.402733
   1 C :   -0.179201
   2 C :   -0.055289
   3 C :   -0.058428
   4 C :   -0.213871
   5 H :    0.025937
   6 C :   -0.037238
   7 H :    0.042107
   8 H :    0.037021
   9 C :   -0.043604
  10 H :    0.027599
  11 H :    0.022753
  12 C :   -0.067000
  13 H :    0.024660
  14 H :    0.029945
  15 H :    0.023929
  16 S :    0.392053
  17 C :   -0.175042
  18 C :   -0.072123
  19 C :   -0.043269
  20 C :   -0.195036
  21 H :    0.031316
  22 C :   -0.039897
  23 H :    0.032164
  24 H :    0.028836
  25 C :   -0.033786
  26 H :    0.012997
  27 H :    0.030100
  28 C :   -0.066011
  29 H :    0.027461
  30 H :    0.022385
  31 H :    0.033342
  32 H :    0.013350
  33 H :    0.019102

  Mayer bond orders larger than 0.100000
B(  0-S ,  1-C ) :   1.1202 B(  0-S ,  4-C ) :   1.1789 B(  1-C ,  2-C ) :   1.6086
B(  1-C ,  4-C ) :   0.1043 B(  1-C , 32-H ) :   0.9690 B(  2-C ,  3-C ) :   1.2326
B(  2-C ,  6-C ) :   1.0170 B(  3-C ,  4-C ) :   1.5665 B(  3-C ,  5-H ) :   0.9930
B(  4-C , 20-C ) :   1.0222 B(  6-C ,  7-H ) :   0.9292 B(  6-C ,  8-H ) :   0.9497
B(  6-C ,  9-C ) :   1.0556 B(  9-C , 10-H ) :   0.9536 B(  9-C , 11-H ) :   0.9616
B(  9-C , 12-C ) :   1.0735 B( 12-C , 13-H ) :   0.9749 B( 12-C , 14-H ) :   0.9762
B( 12-C , 15-H ) :   0.9757 B( 16-S , 17-C ) :   1.1604 B( 16-S , 20-C ) :   1.1357
B( 17-C , 18-C ) :   1.6138 B( 17-C , 20-C ) :   0.1021 B( 17-C , 33-H ) :   0.9703
B( 18-C , 19-C ) :   1.2253 B( 18-C , 21-H ) :   0.9885 B( 19-C , 20-C ) :   1.5806
B( 19-C , 22-C ) :   1.0717 B( 22-C , 23-H ) :   0.9264 B( 22-C , 24-H ) :   0.9258
B( 22-C , 25-C ) :   1.0708 B( 25-C , 26-H ) :   0.9574 B( 25-C , 27-H ) :   0.9541
B( 25-C , 28-C ) :   1.0778 B( 28-C , 29-H ) :   0.9746 B( 28-C , 30-H ) :   0.9754
B( 28-C , 31-H ) :   0.9746

Dispersion correction           -0.013828341
FINAL SINGLE POINT ENERGY     -1339.865127402350

DIPOLE MOMENT
-------------
                                X             Y             Z
Electronic contribution:      4.20960      19.68655      20.53210
Nuclear contribution   :     -4.09531     -20.18603     -21.04197
                        -----------------------------------------
Total Dipole Moment    :      0.11429      -0.49948      -0.50987
                        -----------------------------------------
Magnitude (a.u.)       :      0.72284
Magnitude (Debye)      :      1.83732

Rotational constants in cm-1:     0.018432     0.008057     0.006477
Rotational constants in MHz :   552.589136   241.528183   194.171969

                             ****ORCA TERMINATED NORMALLY****
TOTAL RUN TIME: 0 days 0 hours 0 minutes 34 seconds 469 msec
