                         Program Version 4.2.1 -  RELEASE  -
|  1> ! wB97X-D3 SP def2-SVP
|  2> %pal
|  3> nprocs 16
|  4> end
|  5>
|  6> * xyz 0 1
|  7> S 	 -47.3359 	 -3.20681 	 96.9586
|  8> C 	 -49.0884 	 -3.37464 	 97.1688
|  9> C 	 -49.6629 	 -2.22093 	 97.5757
| 10> C 	 -48.701 	 -1.21265 	 97.8484
| 11> C 	 -47.4349 	 -1.55912 	 97.5215
| 12> H 	 -48.9755 	 -0.296091 	 98.2817
| 13> C 	 -51.1493 	 -1.99468 	 97.6599
| 14> H 	 -51.3663 	 -1.78424 	 98.641
| 15> H 	 -51.5256 	 -2.97958 	 97.6127
| 16> C 	 -51.7734 	 -1.0002 	 96.6246
| 17> H 	 -52.8165 	 -0.732682 	 96.8579
| 18> H 	 -51.1885 	 -0.116152 	 96.7235
| 19> C 	 -51.6993 	 -1.36444 	 95.1537
| 20> H 	 -50.7535 	 -1.28413 	 94.612
| 21> H 	 -51.9747 	 -2.35178 	 94.9682
| 22> H 	 -52.3237 	 -0.66069 	 94.6519
| 23> S 	 -44.9443 	 -1.18536 	 98.5704
| 24> C 	 -44.1412 	 0.355424 	 98.4108
| 25> C 	 -44.8816 	 1.15742 	 97.6289
| 26> C 	 -46.0577 	 0.603034 	 97.1038
| 27> C 	 -46.292 	 -0.645095 	 97.6166
| 28> H 	 -44.5108 	 2.09674 	 97.2263
| 29> C 	 -47.0055 	 1.38755 	 96.2372
| 30> H 	 -48.0228 	 1.23182 	 96.5617
| 31> H 	 -47.0138 	 0.97103 	 95.1859
| 32> C 	 -46.794 	 2.88621 	 96.0742
| 33> H 	 -45.7636 	 3.13383 	 95.8847
| 34> H 	 -47.1554 	 3.43646 	 96.9735
| 35> C 	 -47.631 	 3.60553 	 94.9329
| 36> H 	 -48.613 	 3.18645 	 94.6766
| 37> H 	 -47.1334 	 3.54588 	 93.9554
| 38> H 	 -47.7433 	 4.64238 	 95.2228
| 39> H 	 -49.5338 	 -4.29828 	 96.8
| 40> H 	 -43.2466 	 0.572992 	 98.9161
| 41> *
| 42>
| 43>                          ****END OF INPUT****

CARTESIAN COORDINATES (ANGSTROEM)
---------------------------------
  S    -47.335900   -3.206810   96.958600
  C    -49.088400   -3.374640   97.168800
  C    -49.662900   -2.220930   97.575700
  C    -48.701000   -1.212650   97.848400
  C    -47.434900   -1.559120   97.521500
  H    -48.975500   -0.296091   98.281700
  C    -51.149300   -1.994680   97.659900
  H    -51.366300   -1.784240   98.641000
  H    -51.525600   -2.979580   97.612700
  C    -51.773400   -1.000200   96.624600
  H    -52.816500   -0.732682   96.857900
  H    -51.188500   -0.116152   96.723500
  C    -51.699300   -1.364440   95.153700
  H    -50.753500   -1.284130   94.612000
  H    -51.974700   -2.351780   94.968200
  H    -52.323700   -0.660690   94.651900
  S    -44.944300   -1.185360   98.570400
  C    -44.141200    0.355424   98.410800
  C    -44.881600    1.157420   97.628900
  C    -46.057700    0.603034   97.103800
  C    -46.292000   -0.645095   97.616600
  H    -44.510800    2.096740   97.226300
  C    -47.005500    1.387550   96.237200
  H    -48.022800    1.231820   96.561700
  H    -47.013800    0.971030   95.185900
  C    -46.794000    2.886210   96.074200
  H    -45.763600    3.133830   95.884700
  H    -47.155400    3.436460   96.973500
  C    -47.631000    3.605530   94.932900
  H    -48.613000    3.186450   94.676600
  H    -47.133400    3.545880   93.955400
  H    -47.743300    4.642380   95.222800
  H    -49.533800   -4.298280   96.800000
  H    -43.246600    0.572992   98.916100

 Total Charge           Charge          ....    0
 Multiplicity           Mult            ....    1
 Number of Electrons    NEL             ....  134
 Basis Dimension        Dim             ....  322

ORBITAL ENERGIES
----------------

  NO   OCC          E(Eh)            E(eV)
   0   2.0000     -88.962977     -2420.8057
   1   2.0000     -88.960171     -2420.7293
   2   2.0000     -10.325476      -280.9705
   3   2.0000     -10.320882      -280.8455
   4   2.0000     -10.311900      -280.6011
   5   2.0000     -10.309861      -280.5456
   6   2.0000     -10.297174      -280.2003
   7   2.0000     -10.294870      -280.1377
   8   2.0000     -10.292567      -280.0750
   9   2.0000     -10.292423      -280.0711
  10   2.0000     -10.290003      -280.0052
  11   2.0000     -10.285252      -279.8759
  12   2.0000     -10.284222      -279.8479
  13   2.0000     -10.282822      -279.8098
  14   2.0000     -10.282137      -279.7912
  15   2.0000     -10.268369      -279.4165
  16   2.0000      -8.077911      -219.8111
  17   2.0000      -8.075723      -219.7516
  18   2.0000      -6.036418      -164.2593
  19   2.0000      -6.034116      -164.1967
  20   2.0000      -6.032526      -164.1534
  21   2.0000      -6.030086      -164.0870
  22   2.0000      -6.028529      -164.0446
  23   2.0000      -6.026587      -163.9918
  24   2.0000      -1.012453       -27.5503
  25   2.0000      -0.990834       -26.9620
  26   2.0000      -0.912541       -24.8315
  27   2.0000      -0.907236       -24.6871
  28   2.0000      -0.872349       -23.7378
  29   2.0000      -0.852947       -23.2099
  30   2.0000      -0.846920       -23.0459
  31   2.0000      -0.820742       -22.3335
  32   2.0000      -0.787563       -21.4307
  33   2.0000      -0.777015       -21.1436
  34   2.0000      -0.713000       -19.4017
  35   2.0000      -0.704695       -19.1757
  36   2.0000      -0.697421       -18.9778
  37   2.0000      -0.656125       -17.8541
  38   2.0000      -0.644886       -17.5482
  39   2.0000      -0.626557       -17.0495
  40   2.0000      -0.608781       -16.5658
  41   2.0000      -0.567445       -15.4410
  42   2.0000      -0.565294       -15.3824
  43   2.0000      -0.552006       -15.0208
  44   2.0000      -0.546425       -14.8690
  45   2.0000      -0.530236       -14.4285
  46   2.0000      -0.520085       -14.1522
  47   2.0000      -0.513612       -13.9761
  48   2.0000      -0.503137       -13.6910
  49   2.0000      -0.497676       -13.5424
  50   2.0000      -0.486470       -13.2375
  51   2.0000      -0.483090       -13.1455
  52   2.0000      -0.475782       -12.9467
  53   2.0000      -0.465244       -12.6599
  54   2.0000      -0.456923       -12.4335
  55   2.0000      -0.452504       -12.3133
  56   2.0000      -0.446736       -12.1563
  57   2.0000      -0.443772       -12.0756
  58   2.0000      -0.431161       -11.7325
  59   2.0000      -0.424297       -11.5457
  60   2.0000      -0.420381       -11.4392
  61   2.0000      -0.416070       -11.3218
  62   2.0000      -0.414375       -11.2757
  63   2.0000      -0.346552        -9.4302
  64   2.0000      -0.331735        -9.0270
  65   2.0000      -0.329468        -8.9653
  66   2.0000      -0.297421        -8.0932
  67   0.0000       0.036902         1.0041
  68   0.0000       0.073036         1.9874
  69   0.0000       0.114362         3.1119
  70   0.0000       0.127929         3.4811
  71   0.0000       0.131825         3.5871

MULLIKEN ATOMIC CHARGES
-----------------------
   0 S :    0.101153
   1 C :   -0.152450
   2 C :   -0.096834
   3 C :    0.033973
   4 C :   -0.129614
   5 H :   -0.005155
   6 C :    0.157089
   7 H :    0.002717
   8 H :   -0.011022
   9 C :   -0.055384
  10 H :    0.037343
  11 H :    0.016455
  12 C :   -0.021923
  13 H :    0.031806
  14 H :    0.012016
  15 H :    0.023416
  16 S :    0.098680
  17 C :   -0.059710
  18 C :   -0.030214
  19 C :   -0.016112
  20 C :   -0.183133
  21 H :    0.012352
  22 C :    0.088383
  23 H :    0.015937
  24 H :    0.038945
  25 C :   -0.112222
  26 H :    0.037433
  27 H :    0.038791
  28 C :   -0.065599
  29 H :    0.028974
  30 H :    0.032340
  31 H :    0.038301
  32 H :    0.053464
  33 H :    0.039804
Sum of atomic charges:   -0.0000000

LOEWDIN ATOMIC CHARGES
----------------------
   0 S :    0.388705
   1 C :   -0.185408
   2 C :   -0.061321
   3 C :   -0.057468
   4 C :   -0.189802
   5 H :    0.023518
   6 C :   -0.023928
   7 H :    0.022842
   8 H :    0.023952
   9 C :   -0.031753
  10 H :    0.029948
  11 H :    0.020472
  12 C :   -0.061201
  13 H :    0.029360
  14 H :    0.014709
  15 H :    0.026584
  16 S :    0.411178
  17 C :   -0.172776
  18 C :   -0.075394
  19 C :   -0.061200
  20 C :   -0.197358
  21 H :    0.030860
  22 C :   -0.037457
  23 H :    0.028698
  24 H :    0.041627
  25 C :   -0.042083
  26 H :    0.019892
  27 H :    0.028607
  28 C :   -0.068554
  29 H :    0.024596
  30 H :    0.024931
  31 H :    0.027061
  32 H :    0.026802
  33 H :    0.021360

  Mayer bond orders larger than 0.100000
B(  0-S ,  1-C ) :   1.1207 B(  0-S ,  4-C ) :   1.1507 B(  1-C ,  2-C ) :   1.6342
B(  1-C , 32-H ) :   0.9675 B(  2-C ,  3-C ) :   1.2222 B(  2-C ,  6-C ) :   1.0175
B(  3-C ,  4-C ) :   1.5929 B(  3-C ,  5-H ) :   1.0042 B(  4-C , 20-C ) :   1.0105
B(  6-C ,  7-H ) :   0.9259 B(  6-C ,  8-H ) :   0.9298 B(  6-C ,  9-C ) :   1.0569
B(  9-C , 10-H ) :   0.9599 B(  9-C , 11-H ) :   0.9562 B(  9-C , 12-C ) :   1.0770
B( 12-C , 13-H ) :   0.9729 B( 12-C , 14-H ) :   0.9772 B( 12-C , 15-H ) :   0.9716
B( 16-S , 17-C ) :   1.1541 B( 16-S , 20-C ) :   1.1613 B( 17-C , 18-C ) :   1.5861
B( 17-C , 33-H ) :   0.9757 B( 18-C , 19-C ) :   1.2823 B( 18-C , 21-H ) :   0.9796
B( 19-C , 20-C ) :   1.5974 B( 19-C , 22-C ) :   1.0292 B( 22-C , 23-H ) :   0.9298
B( 22-C , 24-H ) :   0.9240 B( 22-C , 25-C ) :   1.0823 B( 25-C , 26-H ) :   0.9501
B( 25-C , 27-H ) :   0.9607 B( 25-C , 28-C ) :   1.0693 B( 28-C , 29-H ) :   0.9777
B( 28-C , 30-H ) :   0.9773 B( 28-C , 31-H ) :   0.9786

Dispersion correction           -0.014122170
FINAL SINGLE POINT ENERGY     -1339.876272753221

DIPOLE MOMENT
-------------
                                X             Y             Z
Electronic contribution:     21.00053     -19.00527      13.40998
Nuclear contribution   :    -21.50199      19.55277     -13.64220
                        -----------------------------------------
Total Dipole Moment    :     -0.50146       0.54750      -0.23221
                        -----------------------------------------
Magnitude (a.u.)       :      0.77791
Magnitude (Debye)      :      1.97730

Rotational constants in cm-1:     0.016099     0.009981     0.006699
Rotational constants in MHz :   482.628537   299.208787   200.844069

                             ****ORCA TERMINATED NORMALLY****
TOTAL RUN TIME: 0 days 0 hours 0 minutes 30 seconds 32 msec
