                         Program Version 4.2.1 -  RELEASE  -
|  1> ! wB97X-D3 SP def2-SVP
|  2> %pal
|  3> nprocs 16
|  4> end
|  5>
|  6> * xyz 0 1
|  7> S 	 -20.5616 	 34.9224 	 38.7398
|  8> C 	 -21.1536 	 33.3268 	 38.3234
|  9> C 	 -20.0791 	 32.4741 	 38.1393
| 10> C 	 -18.8144 	 33.1573 	 38.0712
| 11> C 	 -18.9565 	 34.4962 	 38.3634
| 12> H 	 -17.8736 	 32.6858 	 37.8246
| 13> C 	 -20.1843 	 31.0034 	 37.866
| 14> H 	 -19.6662 	 30.7042 	 36.936
| 15> H 	 -21.217 	 30.7139 	 37.7346
| 16> C 	 -19.6043 	 30.0941 	 38.958
| 17> H 	 -19.629 	 29.0108 	 38.8164
| 18> H 	 -18.513 	 30.2966 	 39.0593
| 19> C 	 -20.3584 	 30.3563 	 40.2212
| 20> H 	 -19.9294 	 31.3207 	 40.6307
| 21> H 	 -21.4218 	 30.5275 	 40.1266
| 22> H 	 -20.2381 	 29.5262 	 40.9543
| 23> S 	 -16.6676 	 35.4982 	 39.5042
| 24> C 	 -15.7816 	 36.8421 	 38.7536
| 25> C 	 -16.1358 	 36.9901 	 37.4365
| 26> C 	 -17.3623 	 36.2338 	 37.1598
| 27> C 	 -17.8094 	 35.3996 	 38.1886
| 28> H 	 -15.6157 	 37.6944 	 36.77
| 29> C 	 -18.0774 	 36.4258 	 35.8195
| 30> H 	 -17.5931 	 37.279 	 35.3593
| 31> H 	 -19.1147 	 36.6556 	 35.9978
| 32> C 	 -17.943 	 35.3897 	 34.6898
| 33> H 	 -18.4022 	 35.7384 	 33.7725
| 34> H 	 -18.4434 	 34.4633 	 35.0784
| 35> C 	 -16.5045 	 34.9005 	 34.3768
| 36> H 	 -16.5519 	 34.0495 	 33.6399
| 37> H 	 -15.9701 	 34.4297 	 35.2521
| 38> H 	 -15.8761 	 35.6846 	 33.8659
| 39> H 	 -22.1432 	 32.8523 	 38.559
| 40> H 	 -14.9689 	 37.347 	 39.2042
| 41> *
| 42>
| 43>                          ****END OF INPUT****

CARTESIAN COORDINATES (ANGSTROEM)
---------------------------------
  S    -20.561600   34.922400   38.739800
  C    -21.153600   33.326800   38.323400
  C    -20.079100   32.474100   38.139300
  C    -18.814400   33.157300   38.071200
  C    -18.956500   34.496200   38.363400
  H    -17.873600   32.685800   37.824600
  C    -20.184300   31.003400   37.866000
  H    -19.666200   30.704200   36.936000
  H    -21.217000   30.713900   37.734600
  C    -19.604300   30.094100   38.958000
  H    -19.629000   29.010800   38.816400
  H    -18.513000   30.296600   39.059300
  C    -20.358400   30.356300   40.221200
  H    -19.929400   31.320700   40.630700
  H    -21.421800   30.527500   40.126600
  H    -20.238100   29.526200   40.954300
  S    -16.667600   35.498200   39.504200
  C    -15.781600   36.842100   38.753600
  C    -16.135800   36.990100   37.436500
  C    -17.362300   36.233800   37.159800
  C    -17.809400   35.399600   38.188600
  H    -15.615700   37.694400   36.770000
  C    -18.077400   36.425800   35.819500
  H    -17.593100   37.279000   35.359300
  H    -19.114700   36.655600   35.997800
  C    -17.943000   35.389700   34.689800
  H    -18.402200   35.738400   33.772500
  H    -18.443400   34.463300   35.078400
  C    -16.504500   34.900500   34.376800
  H    -16.551900   34.049500   33.639900
  H    -15.970100   34.429700   35.252100
  H    -15.876100   35.684600   33.865900
  H    -22.143200   32.852300   38.559000
  H    -14.968900   37.347000   39.204200

 Total Charge           Charge          ....    0
 Multiplicity           Mult            ....    1
 Number of Electrons    NEL             ....  134
 Basis Dimension        Dim             ....  322

ORBITAL ENERGIES
----------------

  NO   OCC          E(Eh)            E(eV)
   0   2.0000     -88.973547     -2421.0933
   1   2.0000     -88.961903     -2420.7765
   2   2.0000     -10.331160      -281.1252
   3   2.0000     -10.328254      -281.0461
   4   2.0000     -10.319683      -280.8129
   5   2.0000     -10.317486      -280.7531
   6   2.0000     -10.309052      -280.5236
   7   2.0000     -10.303394      -280.3696
   8   2.0000     -10.300445      -280.2894
   9   2.0000     -10.295931      -280.1665
  10   2.0000     -10.291667      -280.0505
  11   2.0000     -10.286790      -279.9178
  12   2.0000     -10.285767      -279.8899
  13   2.0000     -10.285285      -279.8768
  14   2.0000     -10.284748      -279.8622
  15   2.0000     -10.275587      -279.6129
  16   2.0000      -8.088513      -220.0996
  17   2.0000      -8.076625      -219.7761
  18   2.0000      -6.047091      -164.5497
  19   2.0000      -6.042902      -164.4357
  20   2.0000      -6.039252      -164.3364
  21   2.0000      -6.035239      -164.2272
  22   2.0000      -6.031070      -164.1138
  23   2.0000      -6.027334      -164.0121
  24   2.0000      -1.011234       -27.5171
  25   2.0000      -0.984653       -26.7938
  26   2.0000      -0.919461       -25.0198
  27   2.0000      -0.900221       -24.4963
  28   2.0000      -0.872208       -23.7340
  29   2.0000      -0.851281       -23.1645
  30   2.0000      -0.837506       -22.7897
  31   2.0000      -0.816319       -22.2132
  32   2.0000      -0.780069       -21.2268
  33   2.0000      -0.770257       -20.9598
  34   2.0000      -0.709245       -19.2995
  35   2.0000      -0.693196       -18.8628
  36   2.0000      -0.681398       -18.5418
  37   2.0000      -0.663539       -18.0558
  38   2.0000      -0.639509       -17.4019
  39   2.0000      -0.621712       -16.9176
  40   2.0000      -0.583880       -15.8882
  41   2.0000      -0.573377       -15.6024
  42   2.0000      -0.556999       -15.1567
  43   2.0000      -0.555899       -15.1268
  44   2.0000      -0.544470       -14.8158
  45   2.0000      -0.539470       -14.6797
  46   2.0000      -0.515792       -14.0354
  47   2.0000      -0.508302       -13.8316
  48   2.0000      -0.507678       -13.8146
  49   2.0000      -0.492133       -13.3916
  50   2.0000      -0.483226       -13.1492
  51   2.0000      -0.480959       -13.0876
  52   2.0000      -0.469720       -12.7817
  53   2.0000      -0.463900       -12.6234
  54   2.0000      -0.459530       -12.5044
  55   2.0000      -0.450406       -12.2562
  56   2.0000      -0.440538       -11.9876
  57   2.0000      -0.433703       -11.8016
  58   2.0000      -0.430739       -11.7210
  59   2.0000      -0.427734       -11.6392
  60   2.0000      -0.415664       -11.3108
  61   2.0000      -0.406418       -11.0592
  62   2.0000      -0.401551       -10.9268
  63   2.0000      -0.336616        -9.1598
  64   2.0000      -0.334049        -9.0899
  65   2.0000      -0.323143        -8.7932
  66   2.0000      -0.309792        -8.4299
  67   0.0000       0.044476         1.2102
  68   0.0000       0.049494         1.3468
  69   0.0000       0.107963         2.9378
  70   0.0000       0.118277         3.2185
  71   0.0000       0.124031         3.3751

MULLIKEN ATOMIC CHARGES
-----------------------
   0 S :    0.135817
   1 C :   -0.122297
   2 C :   -0.104634
   3 C :    0.033636
   4 C :   -0.133848
   5 H :    0.019626
   6 C :    0.066500
   7 H :    0.036125
   8 H :    0.011844
   9 C :   -0.080635
  10 H :    0.029974
  11 H :    0.032302
  12 C :   -0.080062
  13 H :    0.051058
  14 H :    0.022626
  15 H :    0.037548
  16 S :    0.092194
  17 C :   -0.080632
  18 C :   -0.025511
  19 C :   -0.073494
  20 C :   -0.171230
  21 H :    0.036592
  22 C :    0.102382
  23 H :   -0.000231
  24 H :    0.034685
  25 C :   -0.068578
  26 H :    0.036584
  27 H :    0.036207
  28 C :   -0.111324
  29 H :    0.034833
  30 H :    0.051390
  31 H :    0.036026
  32 H :    0.068119
  33 H :    0.046406
Sum of atomic charges:   -0.0000000

LOEWDIN ATOMIC CHARGES
----------------------
   0 S :    0.435340
   1 C :   -0.212904
   2 C :   -0.061645
   3 C :   -0.054061
   4 C :   -0.214580
   5 H :    0.033052
   6 C :   -0.031411
   7 H :    0.034311
   8 H :    0.024711
   9 C :   -0.049300
  10 H :    0.023824
  11 H :    0.025752
  12 C :   -0.073489
  13 H :    0.035551
  14 H :    0.018490
  15 H :    0.027041
  16 S :    0.392835
  17 C :   -0.166546
  18 C :   -0.070142
  19 C :   -0.052404
  20 C :   -0.202793
  21 H :    0.038749
  22 C :   -0.034941
  23 H :    0.024788
  24 H :    0.031176
  25 C :   -0.041420
  26 H :    0.025342
  27 H :    0.027994
  28 C :   -0.082695
  29 H :    0.029407
  30 H :    0.031645
  31 H :    0.023669
  32 H :    0.042820
  33 H :    0.021837

  Mayer bond orders larger than 0.100000
B(  0-S ,  1-C ) :   1.1319 B(  0-S ,  4-C ) :   1.1657 B(  1-C ,  2-C ) :   1.6180
B(  1-C , 32-H ) :   0.9517 B(  2-C ,  3-C ) :   1.2307 B(  2-C ,  6-C ) :   1.0329
B(  3-C ,  4-C ) :   1.5629 B(  3-C ,  5-H ) :   0.9966 B(  4-C , 20-C ) :   1.0036
B(  6-C ,  7-H ) :   0.9431 B(  6-C ,  8-H ) :   0.9451 B(  6-C ,  9-C ) :   1.0659
B(  9-C , 10-H ) :   0.9620 B(  9-C , 11-H ) :   0.9555 B(  9-C , 12-C ) :   1.0660
B( 12-C , 13-H ) :   0.9708 B( 12-C , 14-H ) :   0.9770 B( 12-C , 15-H ) :   0.9754
B( 16-S , 17-C ) :   1.1523 B( 16-S , 20-C ) :   1.1304 B( 17-C , 18-C ) :   1.6277
B( 17-C , 33-H ) :   0.9711 B( 18-C , 19-C ) :   1.2198 B( 18-C , 21-H ) :   0.9839
B( 19-C , 20-C ) :   1.6217 B( 19-C , 22-C ) :   1.0389 B( 22-C , 23-H ) :   0.9287
B( 22-C , 24-H ) :   0.9373 B( 22-C , 25-C ) :   1.0714 B( 25-C , 26-H ) :   0.9569
B( 25-C , 27-H ) :   0.9550 B( 25-C , 28-C ) :   1.0776 B( 28-C , 29-H ) :   0.9747
B( 28-C , 30-H ) :   0.9704 B( 28-C , 31-H ) :   0.9746

Dispersion correction           -0.015472628
FINAL SINGLE POINT ENERGY     -1339.874969802508

DIPOLE MOMENT
-------------
                                X             Y             Z
Electronic contribution:     -0.07033      15.46401      12.54816
Nuclear contribution   :      0.16474     -15.75776     -12.90326
                        -----------------------------------------
Total Dipole Moment    :      0.09441      -0.29375      -0.35510
                        -----------------------------------------
Magnitude (a.u.)       :      0.47043
Magnitude (Debye)      :      1.19573

Rotational constants in cm-1:     0.020397     0.008487     0.007629
Rotational constants in MHz :   611.496269   254.423752   228.709973

                             ****ORCA TERMINATED NORMALLY****
TOTAL RUN TIME: 0 days 0 hours 0 minutes 35 seconds 243 msec
