                         Program Version 4.2.1 -  RELEASE  -
|  1> ! wB97X-D3 SP def2-SVP
|  2> %pal
|  3> nprocs 16
|  4> end
|  5>
|  6> * xyz 0 1
|  7> S 	 -0.0979959 	 -14.0268 	 76.4255
|  8> C 	 -1.2986 	 -13.7111 	 77.6014
|  9> C 	 -0.78603 	 -13.6639 	 78.9001
| 10> C 	 0.659867 	 -13.7117 	 78.8973
| 11> C 	 1.16277 	 -14.0226 	 77.6664
| 12> H 	 1.36072 	 -13.7456 	 79.726
| 13> C 	 -1.62868 	 -13.4006 	 80.1525
| 14> H 	 -2.53719 	 -12.9288 	 79.9296
| 15> H 	 -1.01312 	 -12.6621 	 80.7189
| 16> C 	 -2.0932 	 -14.6907 	 80.9373
| 17> H 	 -2.64343 	 -15.3069 	 80.1799
| 18> H 	 -1.1833 	 -15.3216 	 81.2078
| 19> C 	 -2.72233 	 -14.4372 	 82.2829
| 20> H 	 -2.08824 	 -13.765 	 82.8811
| 21> H 	 -3.65277 	 -13.9517 	 82.0633
| 22> H 	 -2.93242 	 -15.321 	 82.8462
| 23> S 	 2.92165 	 -13.4071 	 75.7063
| 24> C 	 4.58558 	 -13.9396 	 75.8352
| 25> C 	 4.79114 	 -14.5834 	 77.0664
| 26> C 	 3.62472 	 -14.6206 	 77.9137
| 27> C 	 2.55202 	 -14.1013 	 77.2586
| 28> H 	 5.78002 	 -15.0563 	 77.2168
| 29> C 	 3.57649 	 -15.399 	 79.2937
| 30> H 	 4.05174 	 -16.4018 	 79.2207
| 31> H 	 2.57262 	 -15.5826 	 79.6165
| 32> C 	 4.28031 	 -14.6169 	 80.3964
| 33> H 	 3.91574 	 -13.6123 	 80.6238
| 34> H 	 5.39615 	 -14.5609 	 80.284
| 35> C 	 4.04438 	 -15.2029 	 81.801
| 36> H 	 4.34304 	 -14.535 	 82.6476
| 37> H 	 4.61884 	 -16.0168 	 81.9327
| 38> H 	 3.05397 	 -15.6002 	 82.0693
| 39> H 	 -2.32969 	 -13.673 	 77.3185
| 40> H 	 5.22279 	 -13.8004 	 75.0299
| 41> *
| 42>
| 43>                          ****END OF INPUT****

CARTESIAN COORDINATES (ANGSTROEM)
---------------------------------
  S     -0.097996  -14.026800   76.425500
  C     -1.298600  -13.711100   77.601400
  C     -0.786030  -13.663900   78.900100
  C      0.659867  -13.711700   78.897300
  C      1.162770  -14.022600   77.666400
  H      1.360720  -13.745600   79.726000
  C     -1.628680  -13.400600   80.152500
  H     -2.537190  -12.928800   79.929600
  H     -1.013120  -12.662100   80.718900
  C     -2.093200  -14.690700   80.937300
  H     -2.643430  -15.306900   80.179900
  H     -1.183300  -15.321600   81.207800
  C     -2.722330  -14.437200   82.282900
  H     -2.088240  -13.765000   82.881100
  H     -3.652770  -13.951700   82.063300
  H     -2.932420  -15.321000   82.846200
  S      2.921650  -13.407100   75.706300
  C      4.585580  -13.939600   75.835200
  C      4.791140  -14.583400   77.066400
  C      3.624720  -14.620600   77.913700
  C      2.552020  -14.101300   77.258600
  H      5.780020  -15.056300   77.216800
  C      3.576490  -15.399000   79.293700
  H      4.051740  -16.401800   79.220700
  H      2.572620  -15.582600   79.616500
  C      4.280310  -14.616900   80.396400
  H      3.915740  -13.612300   80.623800
  H      5.396150  -14.560900   80.284000
  C      4.044380  -15.202900   81.801000
  H      4.343040  -14.535000   82.647600
  H      4.618840  -16.016800   81.932700
  H      3.053970  -15.600200   82.069300
  H     -2.329690  -13.673000   77.318500
  H      5.222790  -13.800400   75.029900

 Total Charge           Charge          ....    0
 Multiplicity           Mult            ....    1
 Number of Electrons    NEL             ....  134
 Basis Dimension        Dim             ....  322

ORBITAL ENERGIES
----------------

  NO   OCC          E(Eh)            E(eV)
   0   2.0000     -88.964273     -2420.8409
   1   2.0000     -88.963694     -2420.8252
   2   2.0000     -10.325813      -280.9797
   3   2.0000     -10.323101      -280.9059
   4   2.0000     -10.314883      -280.6822
   5   2.0000     -10.311576      -280.5923
   6   2.0000     -10.307339      -280.4769
   7   2.0000     -10.306401      -280.4514
   8   2.0000     -10.302466      -280.3444
   9   2.0000     -10.302272      -280.3391
  10   2.0000     -10.294826      -280.1364
  11   2.0000     -10.294381      -280.1244
  12   2.0000     -10.293868      -280.1104
  13   2.0000     -10.291465      -280.0450
  14   2.0000     -10.276692      -279.6430
  15   2.0000     -10.271235      -279.4945
  16   2.0000      -8.079682      -219.8593
  17   2.0000      -8.078900      -219.8380
  18   2.0000      -6.038140      -164.3061
  19   2.0000      -6.037328      -164.2841
  20   2.0000      -6.034083      -164.1957
  21   2.0000      -6.033384      -164.1767
  22   2.0000      -6.030486      -164.0979
  23   2.0000      -6.029673      -164.0757
  24   2.0000      -1.009883       -27.4803
  25   2.0000      -0.983395       -26.7596
  26   2.0000      -0.909048       -24.7365
  27   2.0000      -0.905895       -24.6507
  28   2.0000      -0.870887       -23.6980
  29   2.0000      -0.856860       -23.3163
  30   2.0000      -0.846754       -23.0413
  31   2.0000      -0.815699       -22.1963
  32   2.0000      -0.786530       -21.4026
  33   2.0000      -0.771359       -20.9898
  34   2.0000      -0.701464       -19.0878
  35   2.0000      -0.697543       -18.9811
  36   2.0000      -0.694568       -18.9002
  37   2.0000      -0.667385       -18.1605
  38   2.0000      -0.646063       -17.5803
  39   2.0000      -0.619362       -16.8537
  40   2.0000      -0.599069       -16.3015
  41   2.0000      -0.569587       -15.4993
  42   2.0000      -0.560925       -15.2636
  43   2.0000      -0.556543       -15.1443
  44   2.0000      -0.528152       -14.3718
  45   2.0000      -0.524741       -14.2789
  46   2.0000      -0.518298       -14.1036
  47   2.0000      -0.512705       -13.9514
  48   2.0000      -0.508579       -13.8391
  49   2.0000      -0.499567       -13.5939
  50   2.0000      -0.492621       -13.4049
  51   2.0000      -0.488831       -13.3018
  52   2.0000      -0.473422       -12.8825
  53   2.0000      -0.467435       -12.7196
  54   2.0000      -0.461191       -12.5496
  55   2.0000      -0.447200       -12.1689
  56   2.0000      -0.443651       -12.0724
  57   2.0000      -0.437003       -11.8915
  58   2.0000      -0.432653       -11.7731
  59   2.0000      -0.429272       -11.6811
  60   2.0000      -0.419730       -11.4214
  61   2.0000      -0.410891       -11.1809
  62   2.0000      -0.407604       -11.0915
  63   2.0000      -0.356916        -9.7122
  64   2.0000      -0.333181        -9.0663
  65   2.0000      -0.329424        -8.9641
  66   2.0000      -0.287019        -7.8102
  67   0.0000       0.028141         0.7658
  68   0.0000       0.077634         2.1125
  69   0.0000       0.107816         2.9338
  70   0.0000       0.119637         3.2555
  71   0.0000       0.127505         3.4696

MULLIKEN ATOMIC CHARGES
-----------------------
   0 S :    0.102741
   1 C :   -0.112055
   2 C :   -0.082366
   3 C :    0.031662
   4 C :   -0.150758
   5 H :    0.009856
   6 C :    0.067901
   7 H :    0.005971
   8 H :    0.033370
   9 C :   -0.123781
  10 H :    0.039050
  11 H :    0.027157
  12 C :   -0.004248
  13 H :    0.034231
  14 H :    0.019821
  15 H :    0.036855
  16 S :    0.098934
  17 C :   -0.086523
  18 C :   -0.039771
  19 C :   -0.012885
  20 C :   -0.131956
  21 H :    0.033085
  22 C :    0.072405
  23 H :    0.040900
  24 H :    0.016266
  25 C :   -0.097854
  26 H :    0.038617
  27 H :    0.042651
  28 C :   -0.044105
  29 H :    0.035776
  30 H :   -0.005857
  31 H :    0.022789
  32 H :    0.045156
  33 H :    0.036965
Sum of atomic charges:    0.0000000

LOEWDIN ATOMIC CHARGES
----------------------
   0 S :    0.406665
   1 C :   -0.203379
   2 C :   -0.058417
   3 C :   -0.062500
   4 C :   -0.181267
   5 H :    0.033038
   6 C :   -0.030528
   7 H :    0.019701
   8 H :    0.034466
   9 C :   -0.048381
  10 H :    0.028080
  11 H :    0.023742
  12 C :   -0.062425
  13 H :    0.030551
  14 H :    0.020507
  15 H :    0.026041
  16 S :    0.403153
  17 C :   -0.175818
  18 C :   -0.066712
  19 C :   -0.057822
  20 C :   -0.194573
  21 H :    0.036562
  22 C :   -0.021170
  23 H :    0.038501
  24 H :    0.023676
  25 C :   -0.046858
  26 H :    0.026257
  27 H :    0.031706
  28 C :   -0.070509
  29 H :    0.032681
  30 H :    0.004137
  31 H :    0.024743
  32 H :    0.023109
  33 H :    0.013044

  Mayer bond orders larger than 0.100000
B(  0-S ,  1-C ) :   1.1487 B(  0-S ,  4-C ) :   1.1413 B(  1-C ,  2-C ) :   1.6003
B(  1-C , 32-H ) :   0.9725 B(  2-C ,  3-C ) :   1.2248 B(  2-C ,  6-C ) :   1.0281
B(  3-C ,  4-C ) :   1.5966 B(  3-C ,  5-H ) :   0.9839 B(  4-C , 20-C ) :   1.0438
B(  6-C ,  7-H ) :   0.9432 B(  6-C ,  8-H ) :   0.9456 B(  6-C ,  9-C ) :   1.0416
B(  9-C , 10-H ) :   0.9564 B(  9-C , 11-H ) :   0.9611 B(  9-C , 12-C ) :   1.0750
B( 12-C , 13-H ) :   0.9717 B( 12-C , 14-H ) :   0.9736 B( 12-C , 15-H ) :   0.9734
B( 16-S , 17-C ) :   1.1449 B( 16-S , 20-C ) :   1.1443 B( 17-C , 18-C ) :   1.6082
B( 17-C , 33-H ) :   0.9837 B( 18-C , 19-C ) :   1.2157 B( 18-C , 21-H ) :   0.9874
B( 19-C , 20-C ) :   1.6283 B( 19-C , 22-C ) :   1.0280 B( 22-C , 23-H ) :   0.9412
B( 22-C , 24-H ) :   0.9416 B( 22-C , 25-C ) :   1.0575 B( 25-C , 26-H ) :   0.9623
B( 25-C , 27-H ) :   0.9555 B( 25-C , 28-C ) :   1.0698 B( 28-C , 29-H ) :   0.9766
B( 28-C , 30-H ) :   0.9707 B( 28-C , 31-H ) :   0.9719

Dispersion correction           -0.013718353
FINAL SINGLE POINT ENERGY     -1339.870337107421

DIPOLE MOMENT
-------------
                                X             Y             Z
Electronic contribution:      3.86894       6.25785     -32.68590
Nuclear contribution   :     -3.82022      -6.49219      33.27724
                        -----------------------------------------
Total Dipole Moment    :      0.04872      -0.23435       0.59133
                        -----------------------------------------
Magnitude (a.u.)       :      0.63794
Magnitude (Debye)      :      1.62151

Rotational constants in cm-1:     0.017360     0.009134     0.006198
Rotational constants in MHz :   520.440610   273.837193   185.825351

                             ****ORCA TERMINATED NORMALLY****
TOTAL RUN TIME: 0 days 0 hours 0 minutes 32 seconds 363 msec
