                         Program Version 4.2.1 -  RELEASE  -
|  1> ! wB97X-D3 SP def2-SVP
|  2> %pal
|  3> nprocs 16
|  4> end
|  5>
|  6> * xyz 0 1
|  7> S 	 -2.76991 	 -14.3537 	 82.8784
|  8> C 	 -2.46818 	 -13.2842 	 84.2772
|  9> C 	 -3.47196 	 -12.3481 	 84.4942
| 10> C 	 -4.4026 	 -12.4312 	 83.437
| 11> C 	 -4.11274 	 -13.3844 	 82.4372
| 12> H 	 -5.33437 	 -11.8855 	 83.362
| 13> C 	 -3.6124 	 -11.3451 	 85.5763
| 14> H 	 -2.75266 	 -11.5363 	 86.2754
| 15> H 	 -4.53805 	 -11.37 	 86.0572
| 16> C 	 -3.51993 	 -9.8341 	 85.0665
| 17> H 	 -3.33041 	 -9.10878 	 85.8575
| 18> H 	 -2.54967 	 -9.74937 	 84.5469
| 19> C 	 -4.61359 	 -9.30448 	 84.2364
| 20> H 	 -5.54937 	 -9.44484 	 84.7507
| 21> H 	 -4.80638 	 -8.26178 	 84.0947
| 22> H 	 -4.66973 	 -9.70093 	 83.1535
| 23> S 	 -4.74167 	 -13.2845 	 79.8074
| 24> C 	 -6.1721 	 -14.2236 	 79.2402
| 25> C 	 -6.83778 	 -14.8739 	 80.2502
| 26> C 	 -6.22363 	 -14.6076 	 81.5389
| 27> C 	 -4.99986 	 -13.8516 	 81.3966
| 28> H 	 -7.62556 	 -15.5669 	 80.1523
| 29> C 	 -6.67849 	 -15.3436 	 82.7552
| 30> H 	 -5.87923 	 -15.6363 	 83.4123
| 31> H 	 -7.10386 	 -16.3103 	 82.4604
| 32> C 	 -7.73131 	 -14.4577 	 83.3922
| 33> H 	 -8.33143 	 -14.1392 	 82.5739
| 34> H 	 -7.32603 	 -13.5094 	 83.7976
| 35> C 	 -8.49976 	 -15.2495 	 84.5601
| 36> H 	 -9.43235 	 -14.7872 	 84.8792
| 37> H 	 -7.94281 	 -15.1936 	 85.4689
| 38> H 	 -8.5577 	 -16.2846 	 84.3625
| 39> H 	 -1.60584 	 -13.5015 	 84.9287
| 40> H 	 -6.3942 	 -14.4911 	 78.2056
| 41> *
| 42>
| 43>                          ****END OF INPUT****

CARTESIAN COORDINATES (ANGSTROEM)
---------------------------------
  S     -2.769910  -14.353700   82.878400
  C     -2.468180  -13.284200   84.277200
  C     -3.471960  -12.348100   84.494200
  C     -4.402600  -12.431200   83.437000
  C     -4.112740  -13.384400   82.437200
  H     -5.334370  -11.885500   83.362000
  C     -3.612400  -11.345100   85.576300
  H     -2.752660  -11.536300   86.275400
  H     -4.538050  -11.370000   86.057200
  C     -3.519930   -9.834100   85.066500
  H     -3.330410   -9.108780   85.857500
  H     -2.549670   -9.749370   84.546900
  C     -4.613590   -9.304480   84.236400
  H     -5.549370   -9.444840   84.750700
  H     -4.806380   -8.261780   84.094700
  H     -4.669730   -9.700930   83.153500
  S     -4.741670  -13.284500   79.807400
  C     -6.172100  -14.223600   79.240200
  C     -6.837780  -14.873900   80.250200
  C     -6.223630  -14.607600   81.538900
  C     -4.999860  -13.851600   81.396600
  H     -7.625560  -15.566900   80.152300
  C     -6.678490  -15.343600   82.755200
  H     -5.879230  -15.636300   83.412300
  H     -7.103860  -16.310300   82.460400
  C     -7.731310  -14.457700   83.392200
  H     -8.331430  -14.139200   82.573900
  H     -7.326030  -13.509400   83.797600
  C     -8.499760  -15.249500   84.560100
  H     -9.432350  -14.787200   84.879200
  H     -7.942810  -15.193600   85.468900
  H     -8.557700  -16.284600   84.362500
  H     -1.605840  -13.501500   84.928700
  H     -6.394200  -14.491100   78.205600

 Total Charge           Charge          ....    0
 Multiplicity           Mult            ....    1
 Number of Electrons    NEL             ....  134
 Basis Dimension        Dim             ....  322

ORBITAL ENERGIES
----------------

  NO   OCC          E(Eh)            E(eV)
   0   2.0000     -88.967775     -2420.9362
   1   2.0000     -88.967709     -2420.9344
   2   2.0000     -10.322995      -280.9030
   3   2.0000     -10.322434      -280.8877
   4   2.0000     -10.319658      -280.8122
   5   2.0000     -10.318401      -280.7780
   6   2.0000     -10.303993      -280.3859
   7   2.0000     -10.302388      -280.3422
   8   2.0000     -10.298407      -280.2339
   9   2.0000     -10.293664      -280.1048
  10   2.0000     -10.291560      -280.0476
  11   2.0000     -10.289047      -279.9792
  12   2.0000     -10.285594      -279.8853
  13   2.0000     -10.284709      -279.8612
  14   2.0000     -10.276984      -279.6510
  15   2.0000     -10.272755      -279.5359
  16   2.0000      -8.082355      -219.9321
  17   2.0000      -8.082174      -219.9271
  18   2.0000      -6.040710      -164.3761
  19   2.0000      -6.040669      -164.3750
  20   2.0000      -6.036908      -164.2726
  21   2.0000      -6.036682      -164.2665
  22   2.0000      -6.033295      -164.1743
  23   2.0000      -6.032985      -164.1659
  24   2.0000      -1.004432       -27.3320
  25   2.0000      -0.979372       -26.6501
  26   2.0000      -0.915324       -24.9072
  27   2.0000      -0.909530       -24.7496
  28   2.0000      -0.871229       -23.7073
  29   2.0000      -0.850618       -23.1465
  30   2.0000      -0.838338       -22.8123
  31   2.0000      -0.811836       -22.0912
  32   2.0000      -0.789100       -21.4725
  33   2.0000      -0.764845       -20.8125
  34   2.0000      -0.707754       -19.2590
  35   2.0000      -0.705766       -19.2049
  36   2.0000      -0.692413       -18.8415
  37   2.0000      -0.663128       -18.0446
  38   2.0000      -0.643643       -17.5144
  39   2.0000      -0.617607       -16.8059
  40   2.0000      -0.595832       -16.2134
  41   2.0000      -0.576604       -15.6902
  42   2.0000      -0.558920       -15.2090
  43   2.0000      -0.545428       -14.8419
  44   2.0000      -0.539886       -14.6911
  45   2.0000      -0.521810       -14.1992
  46   2.0000      -0.516506       -14.0549
  47   2.0000      -0.507403       -13.8071
  48   2.0000      -0.502171       -13.6648
  49   2.0000      -0.496199       -13.5023
  50   2.0000      -0.493018       -13.4157
  51   2.0000      -0.485641       -13.2150
  52   2.0000      -0.464686       -12.6448
  53   2.0000      -0.462503       -12.5853
  54   2.0000      -0.453474       -12.3396
  55   2.0000      -0.450558       -12.2603
  56   2.0000      -0.445509       -12.1229
  57   2.0000      -0.443379       -12.0650
  58   2.0000      -0.437527       -11.9057
  59   2.0000      -0.422568       -11.4987
  60   2.0000      -0.416659       -11.3379
  61   2.0000      -0.411601       -11.2002
  62   2.0000      -0.409726       -11.1492
  63   2.0000      -0.339102        -9.2274
  64   2.0000      -0.333223        -9.0675
  65   2.0000      -0.311399        -8.4736
  66   2.0000      -0.301371        -8.2007
  67   0.0000       0.039691         1.0800
  68   0.0000       0.054100         1.4721
  69   0.0000       0.106249         2.8912
  70   0.0000       0.114087         3.1045
  71   0.0000       0.123023         3.3476

MULLIKEN ATOMIC CHARGES
-----------------------
   0 S :    0.117525
   1 C :   -0.154003
   2 C :   -0.059877
   3 C :    0.029786
   4 C :   -0.167846
   5 H :    0.017722
   6 C :    0.101528
   7 H :    0.030480
   8 H :    0.024046
   9 C :   -0.066059
  10 H :    0.027247
  11 H :    0.024047
  12 C :   -0.070776
  13 H :    0.009677
  14 H :    0.021816
  15 H :    0.058805
  16 S :    0.121239
  17 C :   -0.087864
  18 C :   -0.006140
  19 C :   -0.055435
  20 C :   -0.189699
  21 H :    0.009403
  22 C :    0.080764
  23 H :    0.024838
  24 H :    0.018892
  25 C :   -0.086086
  26 H :    0.019257
  27 H :    0.032155
  28 C :   -0.007135
  29 H :    0.031245
  30 H :    0.016845
  31 H :    0.020107
  32 H :    0.054481
  33 H :    0.059013
Sum of atomic charges:   -0.0000000

LOEWDIN ATOMIC CHARGES
----------------------
   0 S :    0.418712
   1 C :   -0.188387
   2 C :   -0.065712
   3 C :   -0.053978
   4 C :   -0.220328
   5 H :    0.028546
   6 C :   -0.019470
   7 H :    0.040137
   8 H :    0.023956
   9 C :   -0.045811
  10 H :    0.027892
  11 H :    0.026613
  12 C :   -0.087913
  13 H :    0.023266
  14 H :    0.028851
  15 H :    0.038878
  16 S :    0.414082
  17 C :   -0.178447
  18 C :   -0.058634
  19 C :   -0.045876
  20 C :   -0.230233
  21 H :    0.026405
  22 C :   -0.032370
  23 H :    0.026766
  24 H :    0.029657
  25 C :   -0.031303
  26 H :    0.017653
  27 H :    0.026689
  28 C :   -0.065545
  29 H :    0.026357
  30 H :    0.024103
  31 H :    0.017362
  32 H :    0.027318
  33 H :    0.030766

  Mayer bond orders larger than 0.100000
B(  0-S ,  1-C ) :   1.1553 B(  0-S ,  4-C ) :   1.1721 B(  1-C ,  2-C ) :   1.5795
B(  1-C ,  4-C ) :   0.1052 B(  1-C , 32-H ) :   0.9651 B(  2-C ,  3-C ) :   1.2574
B(  2-C ,  6-C ) :   1.0399 B(  3-C ,  4-C ) :   1.5599 B(  3-C ,  5-H ) :   0.9892
B(  4-C , 20-C ) :   1.0025 B(  6-C ,  7-H ) :   0.9347 B(  6-C ,  8-H ) :   0.9396
B(  6-C ,  9-C ) :   1.0582 B(  9-C , 10-H ) :   0.9555 B(  9-C , 11-H ) :   0.9502
B(  9-C , 12-C ) :   1.0874 B( 12-C , 13-H ) :   0.9633 B( 12-C , 14-H ) :   0.9635
B( 12-C , 15-H ) :   0.9643 B( 16-S , 17-C ) :   1.1409 B( 16-S , 20-C ) :   1.1626
B( 17-C , 18-C ) :   1.6192 B( 17-C , 33-H ) :   0.9620 B( 18-C , 19-C ) :   1.2459
B( 18-C , 21-H ) :   0.9877 B( 19-C , 20-C ) :   1.5688 B( 19-C , 22-C ) :   1.0505
B( 22-C , 23-H ) :   0.9362 B( 22-C , 24-H ) :   0.9426 B( 22-C , 25-C ) :   1.0398
B( 25-C , 26-H ) :   0.9629 B( 25-C , 27-H ) :   0.9557 B( 25-C , 28-C ) :   1.0590
B( 28-C , 29-H ) :   0.9758 B( 28-C , 30-H ) :   0.9724 B( 28-C , 31-H ) :   0.9782

Dispersion correction           -0.015094432
FINAL SINGLE POINT ENERGY     -1339.851302332016

DIPOLE MOMENT
-------------
                                X             Y             Z
Electronic contribution:     14.33980      -8.65327     -18.67455
Nuclear contribution   :    -14.68477       8.69262      19.18678
                        -----------------------------------------
Total Dipole Moment    :     -0.34498       0.03934       0.51223
                        -----------------------------------------
Magnitude (a.u.)       :      0.61882
Magnitude (Debye)      :      1.57292

Rotational constants in cm-1:     0.016609     0.009374     0.008081
Rotational constants in MHz :   497.933461   281.035974   242.269359

                             ****ORCA TERMINATED NORMALLY****
TOTAL RUN TIME: 0 days 0 hours 0 minutes 35 seconds 18 msec
