                         Program Version 4.2.1 -  RELEASE  -
|  1> ! wB97X-D3 SP def2-SVP
|  2> %pal
|  3> nprocs 16
|  4> end
|  5>
|  6> * xyz 0 1
|  7> S 	 -39.7613 	 49.7814 	 106.197
|  8> C 	 -38.1686 	 48.9945 	 106.411
|  9> C 	 -37.2722 	 49.7392 	 105.638
| 10> C 	 -37.9299 	 50.603 	 104.737
| 11> C 	 -39.3157 	 50.6428 	 104.839
| 12> H 	 -37.4756 	 51.2764 	 103.967
| 13> C 	 -35.731 	 49.5075 	 105.718
| 14> H 	 -35.4066 	 49.5311 	 106.744
| 15> H 	 -35.2153 	 50.3524 	 105.195
| 16> C 	 -35.1717 	 48.2296 	 105.011
| 17> H 	 -34.0871 	 48.2265 	 104.867
| 18> H 	 -35.2362 	 47.377 	 105.655
| 19> C 	 -35.8983 	 47.7008 	 103.731
| 20> H 	 -35.9129 	 48.4963 	 103.016
| 21> H 	 -35.4248 	 46.7877 	 103.266
| 22> H 	 -36.9105 	 47.2451 	 103.862
| 23> S 	 -41.3905 	 52.4789 	 104.623
| 24> C 	 -42.3001 	 52.5049 	 103.12
| 25> C 	 -41.6125 	 51.9284 	 102.096
| 26> C 	 -40.4566 	 51.2064 	 102.599
| 27> C 	 -40.2663 	 51.3337 	 103.984
| 28> H 	 -41.9659 	 51.9672 	 101.013
| 29> C 	 -39.5492 	 50.3956 	 101.697
| 30> H 	 -38.5057 	 50.6484 	 101.913
| 31> H 	 -39.5686 	 50.6666 	 100.669
| 32> C 	 -39.7973 	 48.8552 	 101.829
| 33> H 	 -39.4764 	 48.5704 	 102.881
| 34> H 	 -39.1623 	 48.3769 	 101.104
| 35> C 	 -41.2732 	 48.4624 	 101.664
| 36> H 	 -41.3095 	 47.3507 	 101.618
| 37> H 	 -41.6577 	 48.9748 	 100.778
| 38> H 	 -41.7751 	 48.7597 	 102.498
| 39> H 	 -37.885 	 48.3353 	 107.244
| 40> H 	 -43.2203 	 52.9893 	 102.86
| 41> *
| 42>
| 43>                          ****END OF INPUT****

CARTESIAN COORDINATES (ANGSTROEM)
---------------------------------
  S    -39.761300   49.781400  106.197000
  C    -38.168600   48.994500  106.411000
  C    -37.272200   49.739200  105.638000
  C    -37.929900   50.603000  104.737000
  C    -39.315700   50.642800  104.839000
  H    -37.475600   51.276400  103.967000
  C    -35.731000   49.507500  105.718000
  H    -35.406600   49.531100  106.744000
  H    -35.215300   50.352400  105.195000
  C    -35.171700   48.229600  105.011000
  H    -34.087100   48.226500  104.867000
  H    -35.236200   47.377000  105.655000
  C    -35.898300   47.700800  103.731000
  H    -35.912900   48.496300  103.016000
  H    -35.424800   46.787700  103.266000
  H    -36.910500   47.245100  103.862000
  S    -41.390500   52.478900  104.623000
  C    -42.300100   52.504900  103.120000
  C    -41.612500   51.928400  102.096000
  C    -40.456600   51.206400  102.599000
  C    -40.266300   51.333700  103.984000
  H    -41.965900   51.967200  101.013000
  C    -39.549200   50.395600  101.697000
  H    -38.505700   50.648400  101.913000
  H    -39.568600   50.666600  100.669000
  C    -39.797300   48.855200  101.829000
  H    -39.476400   48.570400  102.881000
  H    -39.162300   48.376900  101.104000
  C    -41.273200   48.462400  101.664000
  H    -41.309500   47.350700  101.618000
  H    -41.657700   48.974800  100.778000
  H    -41.775100   48.759700  102.498000
  H    -37.885000   48.335300  107.244000
  H    -43.220300   52.989300  102.860000

 Total Charge           Charge          ....    0
 Multiplicity           Mult            ....    1
 Number of Electrons    NEL             ....  134
 Basis Dimension        Dim             ....  322

ORBITAL ENERGIES
----------------

  NO   OCC          E(Eh)            E(eV)
   0   2.0000     -88.968860     -2420.9658
   1   2.0000     -88.966044     -2420.8891
   2   2.0000     -10.327093      -281.0145
   3   2.0000     -10.326620      -281.0016
   4   2.0000     -10.320511      -280.8354
   5   2.0000     -10.315799      -280.7072
   6   2.0000     -10.308913      -280.5198
   7   2.0000     -10.306084      -280.4428
   8   2.0000     -10.302470      -280.3445
   9   2.0000     -10.300053      -280.2787
  10   2.0000     -10.296291      -280.1763
  11   2.0000     -10.289195      -279.9832
  12   2.0000     -10.284976      -279.8684
  13   2.0000     -10.282597      -279.8037
  14   2.0000     -10.280954      -279.7590
  15   2.0000     -10.266160      -279.3564
  16   2.0000      -8.083658      -219.9675
  17   2.0000      -8.081573      -219.9108
  18   2.0000      -6.042294      -164.4192
  19   2.0000      -6.039948      -164.3553
  20   2.0000      -6.038223      -164.3084
  21   2.0000      -6.035838      -164.2435
  22   2.0000      -6.034210      -164.1992
  23   2.0000      -6.032504      -164.1528
  24   2.0000      -1.013964       -27.5914
  25   2.0000      -0.988627       -26.9019
  26   2.0000      -0.904782       -24.6204
  27   2.0000      -0.903486       -24.5851
  28   2.0000      -0.869125       -23.6501
  29   2.0000      -0.843441       -22.9512
  30   2.0000      -0.840284       -22.8653
  31   2.0000      -0.815143       -22.1812
  32   2.0000      -0.785822       -21.3833
  33   2.0000      -0.773555       -21.0495
  34   2.0000      -0.708423       -19.2772
  35   2.0000      -0.701690       -19.0940
  36   2.0000      -0.682546       -18.5730
  37   2.0000      -0.656441       -17.8627
  38   2.0000      -0.639401       -17.3990
  39   2.0000      -0.613630       -16.6977
  40   2.0000      -0.590861       -16.0781
  41   2.0000      -0.569309       -15.4917
  42   2.0000      -0.555451       -15.1146
  43   2.0000      -0.550647       -14.9839
  44   2.0000      -0.542864       -14.7721
  45   2.0000      -0.532798       -14.4982
  46   2.0000      -0.514652       -14.0044
  47   2.0000      -0.511310       -13.9135
  48   2.0000      -0.505388       -13.7523
  49   2.0000      -0.497445       -13.5362
  50   2.0000      -0.485605       -13.2140
  51   2.0000      -0.475734       -12.9454
  52   2.0000      -0.470551       -12.8043
  53   2.0000      -0.469313       -12.7707
  54   2.0000      -0.459982       -12.5167
  55   2.0000      -0.448521       -12.2049
  56   2.0000      -0.441757       -12.0208
  57   2.0000      -0.431139       -11.7319
  58   2.0000      -0.427996       -11.6464
  59   2.0000      -0.420678       -11.4472
  60   2.0000      -0.418616       -11.3911
  61   2.0000      -0.406805       -11.0697
  62   2.0000      -0.404042       -10.9945
  63   2.0000      -0.344545        -9.3756
  64   2.0000      -0.332728        -9.0540
  65   2.0000      -0.328231        -8.9316
  66   2.0000      -0.295152        -8.0315
  67   0.0000       0.025938         0.7058
  68   0.0000       0.064291         1.7495
  69   0.0000       0.103487         2.8160
  70   0.0000       0.112031         3.0485
  71   0.0000       0.134347         3.6558

MULLIKEN ATOMIC CHARGES
-----------------------
   0 S :    0.116231
   1 C :   -0.132822
   2 C :   -0.091097
   3 C :    0.016838
   4 C :   -0.165856
   5 H :    0.028610
   6 C :    0.079423
   7 H :    0.036108
   8 H :    0.032212
   9 C :   -0.077034
  10 H :    0.032319
  11 H :    0.010485
  12 C :   -0.073120
  13 H :    0.026842
  14 H :    0.032762
  15 H :    0.045467
  16 S :    0.122699
  17 C :   -0.079837
  18 C :   -0.056283
  19 C :   -0.062696
  20 C :   -0.157197
  21 H :    0.050580
  22 C :    0.082111
  23 H :    0.012910
  24 H :    0.004639
  25 C :   -0.102040
  26 H :    0.050314
  27 H :    0.025666
  28 C :   -0.009575
  29 H :    0.038940
  30 H :    0.024014
  31 H :    0.025851
  32 H :    0.065354
  33 H :    0.047180
Sum of atomic charges:   -0.0000000

LOEWDIN ATOMIC CHARGES
----------------------
   0 S :    0.436362
   1 C :   -0.195695
   2 C :   -0.060448
   3 C :   -0.075717
   4 C :   -0.223691
   5 H :    0.037178
   6 C :   -0.027544
   7 H :    0.031331
   8 H :    0.035123
   9 C :   -0.048306
  10 H :    0.027988
  11 H :    0.017337
  12 C :   -0.074655
  13 H :    0.015505
  14 H :    0.032907
  15 H :    0.031870
  16 S :    0.413140
  17 C :   -0.183548
  18 C :   -0.077534
  19 C :   -0.049105
  20 C :   -0.214179
  21 H :    0.046787
  22 C :   -0.038075
  23 H :    0.028474
  24 H :    0.021939
  25 C :   -0.033731
  26 H :    0.030113
  27 H :    0.016818
  28 C :   -0.055679
  29 H :    0.033029
  30 H :    0.022956
  31 H :    0.013126
  32 H :    0.035664
  33 H :    0.030262

  Mayer bond orders larger than 0.100000
B(  0-S ,  1-C ) :   1.1481 B(  0-S ,  4-C ) :   1.1868 B(  1-C ,  2-C ) :   1.5504
B(  1-C ,  4-C ) :   0.1151 B(  1-C , 32-H ) :   0.9727 B(  2-C ,  3-C ) :   1.2799
B(  2-C ,  6-C ) :   1.0204 B(  3-C ,  4-C ) :   1.5262 B(  3-C ,  5-H ) :   0.9878
B(  4-C , 20-C ) :   1.0361 B(  6-C ,  7-H ) :   0.9459 B(  6-C ,  8-H ) :   0.9464
B(  6-C ,  9-C ) :   1.0560 B(  9-C , 10-H ) :   0.9600 B(  9-C , 11-H ) :   0.9545
B(  9-C , 12-C ) :   1.0785 B( 12-C , 13-H ) :   0.9815 B( 12-C , 14-H ) :   0.9718
B( 12-C , 15-H ) :   0.9692 B( 16-S , 17-C ) :   1.1452 B( 16-S , 20-C ) :   1.1386
B( 17-C , 18-C ) :   1.6317 B( 17-C , 33-H ) :   0.9648 B( 18-C , 19-C ) :   1.2396
B( 18-C , 21-H ) :   0.9756 B( 19-C , 20-C ) :   1.5907 B( 19-C , 22-C ) :   1.0440
B( 22-C , 23-H ) :   0.9337 B( 22-C , 24-H ) :   0.9353 B( 22-C , 25-C ) :   1.0643
B( 25-C , 26-H ) :   0.9563 B( 25-C , 27-H ) :   0.9598 B( 25-C , 28-C ) :   1.0725
B( 28-C , 29-H ) :   0.9727 B( 28-C , 30-H ) :   0.9768 B( 28-C , 31-H ) :   0.9698

Dispersion correction           -0.016498096
FINAL SINGLE POINT ENERGY     -1339.860518640084

DIPOLE MOMENT
-------------
                                X             Y             Z
Electronic contribution:    -15.70845      17.09776      14.61187
Nuclear contribution   :     16.14213     -17.26483     -14.98079
                        -----------------------------------------
Total Dipole Moment    :      0.43368      -0.16707      -0.36891
                        -----------------------------------------
Magnitude (a.u.)       :      0.59337
Magnitude (Debye)      :      1.50822

Rotational constants in cm-1:     0.021649     0.009456     0.007668
Rotational constants in MHz :   649.018123   283.491230   229.870452

                             ****ORCA TERMINATED NORMALLY****
TOTAL RUN TIME: 0 days 0 hours 0 minutes 32 seconds 799 msec
