                         Program Version 4.2.1 -  RELEASE  -
|  1> ! wB97X-D3 SP def2-SVP
|  2> %pal
|  3> nprocs 16
|  4> end
|  5>
|  6> * xyz 0 1
|  7> S 	 4.43293 	 -16.192 	 85.3521
|  8> C 	 5.24541 	 -15.7587 	 83.82
|  9> C 	 6.52732 	 -15.2815 	 84.1509
| 10> C 	 6.77813 	 -15.1218 	 85.5748
| 11> C 	 5.7628 	 -15.4763 	 86.357
| 12> H 	 7.74131 	 -14.9309 	 85.9844
| 13> C 	 7.69072 	 -15.2295 	 83.1957
| 14> H 	 8.42593 	 -14.4745 	 83.505
| 15> H 	 7.36784 	 -14.7517 	 82.3255
| 16> C 	 8.23852 	 -16.6872 	 82.9568
| 17> H 	 8.61947 	 -17.0375 	 83.896
| 18> H 	 7.50993 	 -17.3687 	 82.5046
| 19> C 	 9.39029 	 -16.746 	 82.0223
| 20> H 	 9.36668 	 -15.9634 	 81.3323
| 21> H 	 10.3196 	 -16.7313 	 82.5336
| 22> H 	 9.50806 	 -17.6512 	 81.3939
| 23> S 	 5.45017 	 -16.9648 	 88.6171
| 24> C 	 5.51509 	 -16.265 	 90.2294
| 25> C 	 5.86128 	 -14.9393 	 90.1291
| 26> C 	 6.07462 	 -14.5411 	 88.7751
| 27> C 	 5.76291 	 -15.4708 	 87.8244
| 28> H 	 5.81155 	 -14.3696 	 91.0476
| 29> C 	 6.31063 	 -13.075 	 88.4008
| 30> H 	 5.54476 	 -12.7303 	 87.7112
| 31> H 	 7.28645 	 -13.0518 	 87.8955
| 32> C 	 6.46248 	 -12.1143 	 89.6449
| 33> H 	 7.28027 	 -12.5009 	 90.3047
| 34> H 	 5.49476 	 -12.1367 	 90.2293
| 35> C 	 6.6904 	 -10.6363 	 89.3038
| 36> H 	 7.55483 	 -10.6554 	 88.6653
| 37> H 	 6.73536 	 -10.02 	 90.1436
| 38> H 	 5.88115 	 -9.93648 	 88.8371
| 39> H 	 4.97252 	 -16.1263 	 82.8387
| 40> H 	 5.47322 	 -16.7544 	 91.1429
| 41> *
| 42>
| 43>                          ****END OF INPUT****

CARTESIAN COORDINATES (ANGSTROEM)
---------------------------------
  S      4.432930  -16.192000   85.352100
  C      5.245410  -15.758700   83.820000
  C      6.527320  -15.281500   84.150900
  C      6.778130  -15.121800   85.574800
  C      5.762800  -15.476300   86.357000
  H      7.741310  -14.930900   85.984400
  C      7.690720  -15.229500   83.195700
  H      8.425930  -14.474500   83.505000
  H      7.367840  -14.751700   82.325500
  C      8.238520  -16.687200   82.956800
  H      8.619470  -17.037500   83.896000
  H      7.509930  -17.368700   82.504600
  C      9.390290  -16.746000   82.022300
  H      9.366680  -15.963400   81.332300
  H     10.319600  -16.731300   82.533600
  H      9.508060  -17.651200   81.393900
  S      5.450170  -16.964800   88.617100
  C      5.515090  -16.265000   90.229400
  C      5.861280  -14.939300   90.129100
  C      6.074620  -14.541100   88.775100
  C      5.762910  -15.470800   87.824400
  H      5.811550  -14.369600   91.047600
  C      6.310630  -13.075000   88.400800
  H      5.544760  -12.730300   87.711200
  H      7.286450  -13.051800   87.895500
  C      6.462480  -12.114300   89.644900
  H      7.280270  -12.500900   90.304700
  H      5.494760  -12.136700   90.229300
  C      6.690400  -10.636300   89.303800
  H      7.554830  -10.655400   88.665300
  H      6.735360  -10.020000   90.143600
  H      5.881150   -9.936480   88.837100
  H      4.972520  -16.126300   82.838700
  H      5.473220  -16.754400   91.142900

 Total Charge           Charge          ....    0
 Multiplicity           Mult            ....    1
 Number of Electrons    NEL             ....  134
 Basis Dimension        Dim             ....  322

ORBITAL ENERGIES
----------------

  NO   OCC          E(Eh)            E(eV)
   0   2.0000     -88.965181     -2420.8656
   1   2.0000     -88.962052     -2420.7805
   2   2.0000     -10.333457      -281.1877
   3   2.0000     -10.323906      -280.9278
   4   2.0000     -10.320947      -280.8473
   5   2.0000     -10.311743      -280.5968
   6   2.0000     -10.305335      -280.4224
   7   2.0000     -10.302294      -280.3397
   8   2.0000     -10.296781      -280.1896
   9   2.0000     -10.292570      -280.0751
  10   2.0000     -10.291879      -280.0563
  11   2.0000     -10.290480      -280.0182
  12   2.0000     -10.290326      -280.0140
  13   2.0000     -10.286207      -279.9019
  14   2.0000     -10.279031      -279.7067
  15   2.0000     -10.265654      -279.3426
  16   2.0000      -8.078295      -219.8216
  17   2.0000      -8.077302      -219.7946
  18   2.0000      -6.037197      -164.2805
  19   2.0000      -6.035862      -164.2442
  20   2.0000      -6.033078      -164.1684
  21   2.0000      -6.031551      -164.1268
  22   2.0000      -6.028662      -164.0482
  23   2.0000      -6.028152      -164.0344
  24   2.0000      -1.008709       -27.4484
  25   2.0000      -0.981517       -26.7084
  26   2.0000      -0.912901       -24.8413
  27   2.0000      -0.900921       -24.5153
  28   2.0000      -0.874909       -23.8075
  29   2.0000      -0.850855       -23.1529
  30   2.0000      -0.844927       -22.9916
  31   2.0000      -0.826160       -22.4810
  32   2.0000      -0.777206       -21.1488
  33   2.0000      -0.768792       -20.9199
  34   2.0000      -0.706476       -19.2242
  35   2.0000      -0.705331       -19.1930
  36   2.0000      -0.701394       -19.0859
  37   2.0000      -0.652284       -17.7496
  38   2.0000      -0.644649       -17.5418
  39   2.0000      -0.623797       -16.9744
  40   2.0000      -0.595260       -16.1978
  41   2.0000      -0.570778       -15.5317
  42   2.0000      -0.568370       -15.4661
  43   2.0000      -0.567044       -15.4301
  44   2.0000      -0.532247       -14.4832
  45   2.0000      -0.530346       -14.4315
  46   2.0000      -0.523031       -14.2324
  47   2.0000      -0.521300       -14.1853
  48   2.0000      -0.515596       -14.0301
  49   2.0000      -0.499447       -13.5906
  50   2.0000      -0.486070       -13.2266
  51   2.0000      -0.478266       -13.0143
  52   2.0000      -0.466366       -12.6905
  53   2.0000      -0.465119       -12.6565
  54   2.0000      -0.456623       -12.4254
  55   2.0000      -0.449811       -12.2400
  56   2.0000      -0.445979       -12.1357
  57   2.0000      -0.430989       -11.7278
  58   2.0000      -0.424156       -11.5419
  59   2.0000      -0.419737       -11.4216
  60   2.0000      -0.416029       -11.3207
  61   2.0000      -0.415151       -11.2968
  62   2.0000      -0.402247       -10.9457
  63   2.0000      -0.352554        -9.5935
  64   2.0000      -0.329957        -8.9786
  65   2.0000      -0.324707        -8.8357
  66   2.0000      -0.296827        -8.0771
  67   0.0000       0.027083         0.7370
  68   0.0000       0.066724         1.8157
  69   0.0000       0.110647         3.0109
  70   0.0000       0.128941         3.5087
  71   0.0000       0.132328         3.6008

MULLIKEN ATOMIC CHARGES
-----------------------
   0 S :    0.087611
   1 C :   -0.107220
   2 C :   -0.119592
   3 C :    0.040987
   4 C :   -0.119742
   5 H :    0.011731
   6 C :    0.068850
   7 H :    0.022235
   8 H :    0.003743
   9 C :   -0.045706
  10 H :    0.027060
  11 H :    0.036782
  12 C :   -0.015266
  13 H :    0.008073
  14 H :    0.016641
  15 H :    0.026059
  16 S :    0.097876
  17 C :   -0.054954
  18 C :   -0.062790
  19 C :   -0.041317
  20 C :   -0.146069
  21 H :    0.027407
  22 C :    0.063523
  23 H :    0.052690
  24 H :    0.025026
  25 C :   -0.135669
  26 H :    0.047996
  27 H :    0.038947
  28 C :   -0.027173
  29 H :    0.029931
  30 H :    0.017172
  31 H :    0.035778
  32 H :    0.057989
  33 H :    0.031388
Sum of atomic charges:   -0.0000000

LOEWDIN ATOMIC CHARGES
----------------------
   0 S :    0.360915
   1 C :   -0.186646
   2 C :   -0.054090
   3 C :   -0.058970
   4 C :   -0.168055
   5 H :    0.030459
   6 C :   -0.034219
   7 H :    0.032617
   8 H :    0.020834
   9 C :   -0.031267
  10 H :    0.025569
  11 H :    0.030678
  12 C :   -0.066858
  13 H :    0.014538
  14 H :    0.020423
  15 H :    0.030413
  16 S :    0.415517
  17 C :   -0.170968
  18 C :   -0.075006
  19 C :   -0.062879
  20 C :   -0.205425
  21 H :    0.035804
  22 C :   -0.030770
  23 H :    0.035814
  24 H :    0.029963
  25 C :   -0.048635
  26 H :    0.030919
  27 H :    0.026085
  28 C :   -0.077516
  29 H :    0.021858
  30 H :    0.018986
  31 H :    0.040097
  32 H :    0.031233
  33 H :    0.018580

  Mayer bond orders larger than 0.100000
B(  0-S ,  1-C ) :   1.1153 B(  0-S ,  4-C ) :   1.1172 B(  1-C ,  2-C ) :   1.6263
B(  1-C , 32-H ) :   0.9699 B(  2-C ,  3-C ) :   1.2135 B(  2-C ,  6-C ) :   1.0455
B(  3-C ,  4-C ) :   1.6208 B(  3-C ,  5-H ) :   0.9959 B(  4-C , 20-C ) :   1.0222
B(  6-C ,  7-H ) :   0.9423 B(  6-C ,  8-H ) :   0.9273 B(  6-C ,  9-C ) :   1.0505
B(  9-C , 10-H ) :   0.9633 B(  9-C , 11-H ) :   0.9609 B(  9-C , 12-C ) :   1.0803
B( 12-C , 13-H ) :   0.9710 B( 12-C , 14-H ) :   0.9753 B( 12-C , 15-H ) :   0.9738
B( 16-S , 17-C ) :   1.1596 B( 16-S , 20-C ) :   1.1479 B( 17-C , 18-C ) :   1.6013
B( 17-C , 20-C ) :   0.1006 B( 17-C , 33-H ) :   0.9697 B( 18-C , 19-C ) :   1.2461
B( 18-C , 21-H ) :   0.9903 B( 19-C , 20-C ) :   1.6113 B( 19-C , 22-C ) :   1.0206
B( 22-C , 23-H ) :   0.9456 B( 22-C , 24-H ) :   0.9236 B( 22-C , 25-C ) :   1.0894
B( 25-C , 26-H ) :   0.9496 B( 25-C , 27-H ) :   0.9497 B( 25-C , 28-C ) :   1.0742
B( 28-C , 29-H ) :   0.9752 B( 28-C , 30-H ) :   0.9678 B( 28-C , 31-H ) :   0.9712

Dispersion correction           -0.013505419
FINAL SINGLE POINT ENERGY     -1339.843289229599

DIPOLE MOMENT
-------------
                                X             Y             Z
Electronic contribution:    -17.23872     -15.59742       7.28780
Nuclear contribution   :     17.84148      15.89742      -7.33295
                        -----------------------------------------
Total Dipole Moment    :      0.60277       0.29999      -0.04515
                        -----------------------------------------
Magnitude (a.u.)       :      0.67481
Magnitude (Debye)      :      1.71522

Rotational constants in cm-1:     0.018712     0.007449     0.006266
Rotational constants in MHz :   560.965005   223.306065   187.842886

                             ****ORCA TERMINATED NORMALLY****
TOTAL RUN TIME: 0 days 0 hours 0 minutes 31 seconds 61 msec
