                         Program Version 4.2.1 -  RELEASE  -
|  1> ! wB97X-D3 SP def2-SVP
|  2> %pal
|  3> nprocs 16
|  4> end
|  5>
|  6> * xyz 0 1
|  7> S 	 -4.11075 	 10.5152 	 86.7197
|  8> C 	 -4.1923 	 9.08099 	 87.7683
|  9> C 	 -4.4236 	 7.93196 	 87.0279
| 10> C 	 -4.3023 	 8.21458 	 85.6394
| 11> C 	 -3.98657 	 9.51753 	 85.3421
| 12> H 	 -4.50154 	 7.51134 	 84.8092
| 13> C 	 -4.91817 	 6.53348 	 87.5196
| 14> H 	 -5.61385 	 6.00777 	 86.8839
| 15> H 	 -5.44701 	 6.63406 	 88.4259
| 16> C 	 -3.77247 	 5.67482 	 87.9001
| 17> H 	 -3.00657 	 5.65963 	 87.0668
| 18> H 	 -3.33996 	 6.16883 	 88.6771
| 19> C 	 -4.1439 	 4.19722 	 88.0291
| 20> H 	 -4.37087 	 3.74705 	 87.0098
| 21> H 	 -3.35424 	 3.57637 	 88.4704
| 22> H 	 -5.0204 	 3.97853 	 88.6926
| 23> S 	 -4.61615 	 11.6073 	 83.5593
| 24> C 	 -3.86484 	 11.5751 	 81.9748
| 25> C 	 -2.88986 	 10.5589 	 81.8476
| 26> C 	 -2.88957 	 9.73221 	 82.9979
| 27> C 	 -3.86033 	 10.0541 	 83.9667
| 28> H 	 -2.28118 	 10.4731 	 80.9104
| 29> C 	 -1.95359 	 8.51147 	 83.0369
| 30> H 	 -1.94427 	 7.96703 	 82.0767
| 31> H 	 -2.39842 	 7.76118 	 83.6989
| 32> C 	 -0.573801 	 8.82648 	 83.6282
| 33> H 	 -0.201807 	 9.5493 	 82.9738
| 34> H 	 -0.0212577 	 7.91159 	 83.5019
| 35> C 	 -0.500152 	 9.28351 	 85.0244
| 36> H 	 0.510753 	 9.30339 	 85.4546
| 37> H 	 -1.08154 	 8.68191 	 85.8111
| 38> H 	 -0.836294 	 10.3082 	 85.0313
| 39> H 	 -4.20438 	 9.11798 	 88.8189
| 40> H 	 -3.89329 	 12.2928 	 81.17
| 41> *
| 42>
| 43>                          ****END OF INPUT****

CARTESIAN COORDINATES (ANGSTROEM)
---------------------------------
  S     -4.110750   10.515200   86.719700
  C     -4.192300    9.080990   87.768300
  C     -4.423600    7.931960   87.027900
  C     -4.302300    8.214580   85.639400
  C     -3.986570    9.517530   85.342100
  H     -4.501540    7.511340   84.809200
  C     -4.918170    6.533480   87.519600
  H     -5.613850    6.007770   86.883900
  H     -5.447010    6.634060   88.425900
  C     -3.772470    5.674820   87.900100
  H     -3.006570    5.659630   87.066800
  H     -3.339960    6.168830   88.677100
  C     -4.143900    4.197220   88.029100
  H     -4.370870    3.747050   87.009800
  H     -3.354240    3.576370   88.470400
  H     -5.020400    3.978530   88.692600
  S     -4.616150   11.607300   83.559300
  C     -3.864840   11.575100   81.974800
  C     -2.889860   10.558900   81.847600
  C     -2.889570    9.732210   82.997900
  C     -3.860330   10.054100   83.966700
  H     -2.281180   10.473100   80.910400
  C     -1.953590    8.511470   83.036900
  H     -1.944270    7.967030   82.076700
  H     -2.398420    7.761180   83.698900
  C     -0.573801    8.826480   83.628200
  H     -0.201807    9.549300   82.973800
  H     -0.021258    7.911590   83.501900
  C     -0.500152    9.283510   85.024400
  H      0.510753    9.303390   85.454600
  H     -1.081540    8.681910   85.811100
  H     -0.836294   10.308200   85.031300
  H     -4.204380    9.117980   88.818900
  H     -3.893290   12.292800   81.170000

 Total Charge           Charge          ....    0
 Multiplicity           Mult            ....    1
 Number of Electrons    NEL             ....  134
 Basis Dimension        Dim             ....  322

ORBITAL ENERGIES
----------------

  NO   OCC          E(Eh)            E(eV)
   0   2.0000     -88.972355     -2421.0609
   1   2.0000     -88.969154     -2420.9738
   2   2.0000     -10.331096      -281.1234
   3   2.0000     -10.327077      -281.0141
   4   2.0000     -10.321059      -280.8503
   5   2.0000     -10.315056      -280.6869
   6   2.0000     -10.306425      -280.4521
   7   2.0000     -10.305071      -280.4152
   8   2.0000     -10.299738      -280.2701
   9   2.0000     -10.290860      -280.0285
  10   2.0000     -10.288446      -279.9628
  11   2.0000     -10.288275      -279.9582
  12   2.0000     -10.288109      -279.9537
  13   2.0000     -10.279703      -279.7249
  14   2.0000     -10.272200      -279.5208
  15   2.0000     -10.270373      -279.4711
  16   2.0000      -8.086137      -220.0350
  17   2.0000      -8.084105      -219.9797
  18   2.0000      -6.044672      -164.4839
  19   2.0000      -6.042647      -164.4288
  20   2.0000      -6.040849      -164.3798
  21   2.0000      -6.038771      -164.3233
  22   2.0000      -6.036871      -164.2716
  23   2.0000      -6.034632      -164.2107
  24   2.0000      -1.007515       -27.4159
  25   2.0000      -0.982523       -26.7358
  26   2.0000      -0.921306       -25.0700
  27   2.0000      -0.910139       -24.7661
  28   2.0000      -0.866335       -23.5742
  29   2.0000      -0.850260       -23.1368
  30   2.0000      -0.843977       -22.9658
  31   2.0000      -0.810198       -22.0466
  32   2.0000      -0.785120       -21.3642
  33   2.0000      -0.773509       -21.0483
  34   2.0000      -0.702918       -19.1274
  35   2.0000      -0.700687       -19.0667
  36   2.0000      -0.688869       -18.7451
  37   2.0000      -0.654702       -17.8154
  38   2.0000      -0.646005       -17.5787
  39   2.0000      -0.620940       -16.8966
  40   2.0000      -0.596372       -16.2281
  41   2.0000      -0.577456       -15.7134
  42   2.0000      -0.564767       -15.3681
  43   2.0000      -0.545831       -14.8528
  44   2.0000      -0.544991       -14.8300
  45   2.0000      -0.518482       -14.1086
  46   2.0000      -0.515614       -14.0306
  47   2.0000      -0.507640       -13.8136
  48   2.0000      -0.500199       -13.6111
  49   2.0000      -0.496131       -13.5004
  50   2.0000      -0.492559       -13.4032
  51   2.0000      -0.473706       -12.8902
  52   2.0000      -0.470936       -12.8148
  53   2.0000      -0.464156       -12.6303
  54   2.0000      -0.462305       -12.5800
  55   2.0000      -0.455468       -12.3939
  56   2.0000      -0.445111       -12.1121
  57   2.0000      -0.437829       -11.9139
  58   2.0000      -0.430481       -11.7140
  59   2.0000      -0.429994       -11.7007
  60   2.0000      -0.412776       -11.2322
  61   2.0000      -0.409980       -11.1561
  62   2.0000      -0.404046       -10.9946
  63   2.0000      -0.346786        -9.4365
  64   2.0000      -0.335207        -9.1215
  65   2.0000      -0.331749        -9.0273
  66   2.0000      -0.286945        -7.8082
  67   0.0000       0.026080         0.7097
  68   0.0000       0.061944         1.6856
  69   0.0000       0.099261         2.7010
  70   0.0000       0.119867         3.2618
  71   0.0000       0.129005         3.5104

MULLIKEN ATOMIC CHARGES
-----------------------
   0 S :    0.113288
   1 C :   -0.117169
   2 C :   -0.067971
   3 C :   -0.012656
   4 C :   -0.127191
   5 H :    0.032792
   6 C :    0.103104
   7 H :    0.021991
   8 H :    0.005538
   9 C :   -0.050070
  10 H :    0.029763
  11 H :    0.002338
  12 C :   -0.076104
  13 H :    0.044092
  14 H :    0.038402
  15 H :    0.030726
  16 S :    0.106012
  17 C :   -0.082217
  18 C :   -0.060286
  19 C :   -0.062892
  20 C :   -0.139860
  21 H :    0.044197
  22 C :    0.046900
  23 H :    0.032734
  24 H :    0.001636
  25 C :   -0.009790
  26 H :    0.006522
  27 H :    0.020174
  28 C :   -0.061918
  29 H :    0.032517
  30 H :    0.045107
  31 H :    0.033347
  32 H :    0.026301
  33 H :    0.050643
Sum of atomic charges:    0.0000000

LOEWDIN ATOMIC CHARGES
----------------------
   0 S :    0.414221
   1 C :   -0.185529
   2 C :   -0.050204
   3 C :   -0.072128
   4 C :   -0.202925
   5 H :    0.036236
   6 C :   -0.020654
   7 H :    0.028076
   8 H :    0.024655
   9 C :   -0.039709
  10 H :    0.029166
  11 H :    0.009536
  12 C :   -0.074999
  13 H :    0.033821
  14 H :    0.027542
  15 H :    0.024084
  16 S :    0.399341
  17 C :   -0.186090
  18 C :   -0.076829
  19 C :   -0.054544
  20 C :   -0.195294
  21 H :    0.043182
  22 C :   -0.033168
  23 H :    0.033365
  24 H :    0.023980
  25 C :   -0.036752
  26 H :    0.016002
  27 H :    0.022196
  28 C :   -0.071650
  29 H :    0.028974
  30 H :    0.035579
  31 H :    0.025783
  32 H :    0.015940
  33 H :    0.028797

  Mayer bond orders larger than 0.100000
B(  0-S ,  1-C ) :   1.1343 B(  0-S ,  4-C ) :   1.1563 B(  1-C ,  2-C ) :   1.6056
B(  1-C , 32-H ) :   0.9767 B(  2-C ,  3-C ) :   1.2508 B(  2-C ,  6-C ) :   1.0103
B(  3-C ,  4-C ) :   1.5719 B(  3-C ,  5-H ) :   0.9870 B(  4-C , 20-C ) :   1.0387
B(  6-C ,  7-H ) :   0.9548 B(  6-C ,  8-H ) :   0.9338 B(  6-C ,  9-C ) :   1.0509
B(  9-C , 10-H ) :   0.9591 B(  9-C , 11-H ) :   0.9605 B(  9-C , 12-C ) :   1.0702
B( 12-C , 13-H ) :   0.9745 B( 12-C , 14-H ) :   0.9740 B( 12-C , 15-H ) :   0.9731
B( 16-S , 17-C ) :   1.1658 B( 16-S , 20-C ) :   1.1245 B( 17-C , 18-C ) :   1.5950
B( 17-C , 20-C ) :   0.1027 B( 17-C , 33-H ) :   0.9643 B( 18-C , 19-C ) :   1.2713
B( 18-C , 21-H ) :   0.9813 B( 19-C , 20-C ) :   1.5761 B( 19-C , 22-C ) :   1.0257
B( 22-C , 23-H ) :   0.9447 B( 22-C , 24-H ) :   0.9323 B( 22-C , 25-C ) :   1.0686
B( 25-C , 26-H ) :   0.9526 B( 25-C , 27-H ) :   0.9503 B( 25-C , 28-C ) :   1.0944
B( 28-C , 29-H ) :   0.9698 B( 28-C , 30-H ) :   0.9685 B( 28-C , 31-H ) :   0.9685

Dispersion correction           -0.015387259
FINAL SINGLE POINT ENERGY     -1339.859058816606

DIPOLE MOMENT
-------------
                                X             Y             Z
Electronic contribution:    -11.79618      25.45590      -6.33231
Nuclear contribution   :     12.00815     -25.97556       6.27073
                        -----------------------------------------
Total Dipole Moment    :      0.21197      -0.51966      -0.06158
                        -----------------------------------------
Magnitude (a.u.)       :      0.56460
Magnitude (Debye)      :      1.43509

Rotational constants in cm-1:     0.021528     0.008395     0.007153
Rotational constants in MHz :   645.396030   251.674533   214.441098

                             ****ORCA TERMINATED NORMALLY****
TOTAL RUN TIME: 0 days 0 hours 0 minutes 36 seconds 244 msec
