                         Program Version 4.2.1 -  RELEASE  -
|  1> ! wB97X-D3 SP def2-SVP
|  2> %pal
|  3> nprocs 16
|  4> end
|  5>
|  6> * xyz 0 1
|  7> S 	 -9.94384 	 45.5258 	 42.0717
|  8> C 	 -10.7517 	 46.3574 	 43.3594
|  9> C 	 -10.0124 	 47.534 	 43.6092
| 10> C 	 -8.93986 	 47.82 	 42.7331
| 11> C 	 -8.6902 	 46.7611 	 41.8602
| 12> H 	 -8.27048 	 48.6905 	 42.7445
| 13> C 	 -10.3426 	 48.5325 	 44.6725
| 14> H 	 -9.49014 	 48.7661 	 45.3143
| 15> H 	 -10.9123 	 47.9299 	 45.4017
| 16> C 	 -11.1111 	 49.7752 	 44.2207
| 17> H 	 -11.1363 	 50.4224 	 45.0755
| 18> H 	 -10.3696 	 50.2149 	 43.5403
| 19> C 	 -12.4448 	 49.5164 	 43.4875
| 20> H 	 -12.9088 	 50.4784 	 43.2529
| 21> H 	 -12.2404 	 48.877 	 42.6251
| 22> H 	 -13.1745 	 48.9632 	 44.1158
| 23> S 	 -6.92733 	 44.8896 	 40.6419
| 24> C 	 -5.42525 	 45.5046 	 39.8318
| 25> C 	 -5.49911 	 46.8967 	 39.7295
| 26> C 	 -6.66008 	 47.4797 	 40.3539
| 27> C 	 -7.54786 	 46.5391 	 40.9248
| 28> H 	 -4.65656 	 47.4414 	 39.4153
| 29> C 	 -6.85037 	 48.9775 	 40.5116
| 30> H 	 -7.88778 	 49.1139 	 40.7549
| 31> H 	 -6.79124 	 49.3972 	 39.4768
| 32> C 	 -5.94361 	 49.7357 	 41.5118
| 33> H 	 -4.89216 	 49.5777 	 41.2124
| 34> H 	 -5.94218 	 49.3203 	 42.5728
| 35> C 	 -6.334 	 51.1661 	 41.6018
| 36> H 	 -5.59657 	 51.564 	 42.3413
| 37> H 	 -7.40748 	 51.2598 	 42.0625
| 38> H 	 -6.17218 	 51.6276 	 40.6773
| 39> H 	 -11.6668 	 46.17 	 43.76
| 40> H 	 -4.63244 	 44.8617 	 39.4194
| 41> *
| 42>
| 43>                          ****END OF INPUT****

CARTESIAN COORDINATES (ANGSTROEM)
---------------------------------
  S     -9.943840   45.525800   42.071700
  C    -10.751700   46.357400   43.359400
  C    -10.012400   47.534000   43.609200
  C     -8.939860   47.820000   42.733100
  C     -8.690200   46.761100   41.860200
  H     -8.270480   48.690500   42.744500
  C    -10.342600   48.532500   44.672500
  H     -9.490140   48.766100   45.314300
  H    -10.912300   47.929900   45.401700
  C    -11.111100   49.775200   44.220700
  H    -11.136300   50.422400   45.075500
  H    -10.369600   50.214900   43.540300
  C    -12.444800   49.516400   43.487500
  H    -12.908800   50.478400   43.252900
  H    -12.240400   48.877000   42.625100
  H    -13.174500   48.963200   44.115800
  S     -6.927330   44.889600   40.641900
  C     -5.425250   45.504600   39.831800
  C     -5.499110   46.896700   39.729500
  C     -6.660080   47.479700   40.353900
  C     -7.547860   46.539100   40.924800
  H     -4.656560   47.441400   39.415300
  C     -6.850370   48.977500   40.511600
  H     -7.887780   49.113900   40.754900
  H     -6.791240   49.397200   39.476800
  C     -5.943610   49.735700   41.511800
  H     -4.892160   49.577700   41.212400
  H     -5.942180   49.320300   42.572800
  C     -6.334000   51.166100   41.601800
  H     -5.596570   51.564000   42.341300
  H     -7.407480   51.259800   42.062500
  H     -6.172180   51.627600   40.677300
  H    -11.666800   46.170000   43.760000
  H     -4.632440   44.861700   39.419400

 Total Charge           Charge          ....    0
 Multiplicity           Mult            ....    1
 Number of Electrons    NEL             ....  134
 Basis Dimension        Dim             ....  322

ORBITAL ENERGIES
----------------

  NO   OCC          E(Eh)            E(eV)
   0   2.0000     -88.968513     -2420.9563
   1   2.0000     -88.967336     -2420.9243
   2   2.0000     -10.340489      -281.3790
   3   2.0000     -10.337847      -281.3071
   4   2.0000     -10.330117      -281.0968
   5   2.0000     -10.312847      -280.6268
   6   2.0000     -10.308442      -280.5070
   7   2.0000     -10.301359      -280.3142
   8   2.0000     -10.298317      -280.2314
   9   2.0000     -10.297551      -280.2106
  10   2.0000     -10.295526      -280.1555
  11   2.0000     -10.293711      -280.1061
  12   2.0000     -10.287240      -279.9300
  13   2.0000     -10.286748      -279.9166
  14   2.0000     -10.285831      -279.8917
  15   2.0000     -10.282235      -279.7938
  16   2.0000      -8.082809      -219.9444
  17   2.0000      -8.080411      -219.8792
  18   2.0000      -6.041349      -164.3935
  19   2.0000      -6.039165      -164.3340
  20   2.0000      -6.037160      -164.2795
  21   2.0000      -6.035106      -164.2236
  22   2.0000      -6.033777      -164.1874
  23   2.0000      -6.031033      -164.1128
  24   2.0000      -1.001543       -27.2534
  25   2.0000      -0.977071       -26.5874
  26   2.0000      -0.913604       -24.8604
  27   2.0000      -0.911126       -24.7930
  28   2.0000      -0.866586       -23.5810
  29   2.0000      -0.854425       -23.2501
  30   2.0000      -0.844985       -22.9932
  31   2.0000      -0.817278       -22.2393
  32   2.0000      -0.781348       -21.2616
  33   2.0000      -0.769795       -20.9472
  34   2.0000      -0.707768       -19.2594
  35   2.0000      -0.699897       -19.0452
  36   2.0000      -0.695916       -18.9368
  37   2.0000      -0.660649       -17.9772
  38   2.0000      -0.643772       -17.5179
  39   2.0000      -0.622841       -16.9484
  40   2.0000      -0.593914       -16.1612
  41   2.0000      -0.574758       -15.6400
  42   2.0000      -0.570796       -15.5321
  43   2.0000      -0.548151       -14.9159
  44   2.0000      -0.536451       -14.5976
  45   2.0000      -0.532180       -14.4813
  46   2.0000      -0.525533       -14.3005
  47   2.0000      -0.512740       -13.9524
  48   2.0000      -0.509123       -13.8539
  49   2.0000      -0.499627       -13.5955
  50   2.0000      -0.493457       -13.4276
  51   2.0000      -0.480808       -13.0835
  52   2.0000      -0.468869       -12.7586
  53   2.0000      -0.463972       -12.6253
  54   2.0000      -0.461273       -12.5519
  55   2.0000      -0.450565       -12.2605
  56   2.0000      -0.441821       -12.0226
  57   2.0000      -0.437455       -11.9037
  58   2.0000      -0.432506       -11.7691
  59   2.0000      -0.425193       -11.5701
  60   2.0000      -0.416249       -11.3267
  61   2.0000      -0.410704       -11.1758
  62   2.0000      -0.406859       -11.0712
  63   2.0000      -0.358994        -9.7687
  64   2.0000      -0.334548        -9.1035
  65   2.0000      -0.327556        -8.9133
  66   2.0000      -0.283909        -7.7256
  67   0.0000       0.016506         0.4492
  68   0.0000       0.073292         1.9944
  69   0.0000       0.103932         2.8281
  70   0.0000       0.115111         3.1323
  71   0.0000       0.117790         3.2052

MULLIKEN ATOMIC CHARGES
-----------------------
   0 S :    0.102949
   1 C :   -0.055792
   2 C :   -0.126420
   3 C :    0.015745
   4 C :   -0.133456
   5 H :    0.011029
   6 C :    0.032146
   7 H :    0.029629
   8 H :    0.003518
   9 C :   -0.039576
  10 H :    0.025310
  11 H :    0.017319
  12 C :   -0.051950
  13 H :    0.042881
  14 H :    0.052450
  15 H :    0.028674
  16 S :    0.084833
  17 C :   -0.115124
  18 C :    0.004996
  19 C :   -0.067831
  20 C :   -0.095815
  21 H :    0.009659
  22 C :    0.033852
  23 H :    0.012491
  24 H :    0.034735
  25 C :   -0.104769
  26 H :    0.026271
  27 H :    0.041617
  28 C :   -0.033024
  29 H :    0.040609
  30 H :    0.053125
  31 H :    0.029160
  32 H :    0.013517
  33 H :    0.077241
Sum of atomic charges:   -0.0000000

LOEWDIN ATOMIC CHARGES
----------------------
   0 S :    0.410786
   1 C :   -0.192192
   2 C :   -0.060827
   3 C :   -0.072331
   4 C :   -0.174036
   5 H :    0.035448
   6 C :   -0.044500
   7 H :    0.032780
   8 H :    0.024254
   9 C :   -0.038243
  10 H :    0.021068
  11 H :    0.022813
  12 C :   -0.064907
  13 H :    0.029900
  14 H :    0.031023
  15 H :    0.025530
  16 S :    0.365834
  17 C :   -0.165961
  18 C :   -0.065538
  19 C :   -0.056335
  20 C :   -0.187418
  21 H :    0.024886
  22 C :   -0.042395
  23 H :    0.023869
  24 H :    0.038373
  25 C :   -0.051736
  26 H :    0.024190
  27 H :    0.030145
  28 C :   -0.064451
  29 H :    0.034767
  30 H :    0.038328
  31 H :    0.016945
  32 H :    0.011691
  33 H :    0.038238

  Mayer bond orders larger than 0.100000
B(  0-S ,  1-C ) :   1.1412 B(  0-S ,  4-C ) :   1.1665 B(  1-C ,  2-C ) :   1.5595
B(  1-C ,  4-C ) :   0.1065 B(  1-C , 32-H ) :   0.9845 B(  2-C ,  3-C ) :   1.2713
B(  2-C ,  6-C ) :   1.0352 B(  3-C ,  4-C ) :   1.5284 B(  3-C ,  5-H ) :   0.9828
B(  4-C , 20-C ) :   1.0483 B(  6-C ,  7-H ) :   0.9415 B(  6-C ,  8-H ) :   0.9351
B(  6-C ,  9-C ) :   1.0622 B(  9-C , 10-H ) :   0.9551 B(  9-C , 11-H ) :   0.9541
B(  9-C , 12-C ) :   1.0691 B( 12-C , 13-H ) :   0.9736 B( 12-C , 14-H ) :   0.9713
B( 12-C , 15-H ) :   0.9765 B( 16-S , 17-C ) :   1.1411 B( 16-S , 20-C ) :   1.1244
B( 17-C , 18-C ) :   1.6032 B( 17-C , 33-H ) :   0.9652 B( 18-C , 19-C ) :   1.2471
B( 18-C , 21-H ) :   0.9939 B( 19-C , 20-C ) :   1.5876 B( 19-C , 22-C ) :   1.0473
B( 22-C , 23-H ) :   0.9349 B( 22-C , 24-H ) :   0.9290 B( 22-C , 25-C ) :   1.0500
B( 25-C , 26-H ) :   0.9482 B( 25-C , 27-H ) :   0.9525 B( 25-C , 28-C ) :   1.0872
B( 28-C , 29-H ) :   0.9706 B( 28-C , 30-H ) :   0.9693 B( 28-C , 31-H ) :   0.9724

Dispersion correction           -0.014858111
FINAL SINGLE POINT ENERGY     -1339.869768500441

DIPOLE MOMENT
-------------
                                X             Y             Z
Electronic contribution:      3.55565     -28.95630      -9.03775
Nuclear contribution   :     -3.25574      29.71017       9.23673
                        -----------------------------------------
Total Dipole Moment    :      0.29991       0.75387       0.19897
                        -----------------------------------------
Magnitude (a.u.)       :      0.83538
Magnitude (Debye)      :      2.12336

Rotational constants in cm-1:     0.018128     0.009719     0.006702
Rotational constants in MHz :   543.454377   291.379357   200.908200

                             ****ORCA TERMINATED NORMALLY****
TOTAL RUN TIME: 0 days 0 hours 0 minutes 35 seconds 151 msec
