                         Program Version 4.2.1 -  RELEASE  -
|  1> ! wB97X-D3 SP def2-SVP
|  2> %pal
|  3> nprocs 16
|  4> end
|  5>
|  6> * xyz 0 1
|  7> S 	 -73.7959 	 51.1552 	 136.801
|  8> C 	 -74.243 	 50.4523 	 138.291
|  9> C 	 -75.5895 	 50.096 	 138.329
| 10> C 	 -76.3026 	 50.6635 	 137.233
| 11> C 	 -75.5324 	 51.4674 	 136.382
| 12> H 	 -77.3274 	 50.4973 	 137.002
| 13> C 	 -76.1835 	 49.2569 	 139.417
| 14> H 	 -75.4799 	 49.1281 	 140.214
| 15> H 	 -76.4945 	 48.3283 	 139.019
| 16> C 	 -77.4483 	 49.846 	 140.03
| 17> H 	 -77.4397 	 50.9294 	 140.102
| 18> H 	 -78.2506 	 49.6925 	 139.23
| 19> C 	 -77.866 	 49.2258 	 141.348
| 20> H 	 -78.8353 	 49.6487 	 141.662
| 21> H 	 -78.0499 	 48.1582 	 141.315
| 22> H 	 -77.2364 	 49.4484 	 142.239
| 23> S 	 -75.6138 	 51.2132 	 133.752
| 24> C 	 -76.1935 	 52.5394 	 132.777
| 25> C 	 -77.1543 	 53.259 	 133.54
| 26> C 	 -76.9751 	 53.0709 	 134.942
| 27> C 	 -76.0179 	 52.1105 	 135.197
| 28> H 	 -77.8423 	 53.9116 	 133.08
| 29> C 	 -77.7682 	 53.7669 	 135.921
| 30> H 	 -78.0469 	 53.0306 	 136.668
| 31> H 	 -78.6476 	 54.1259 	 135.449
| 32> C 	 -76.988 	 54.8987 	 136.699
| 33> H 	 -76.6093 	 55.7064 	 136.131
| 34> H 	 -76.0796 	 54.4547 	 137.118
| 35> C 	 -77.846 	 55.373 	 137.903
| 36> H 	 -78.8537 	 55.6356 	 137.643
| 37> H 	 -77.4495 	 56.3211 	 138.162
| 38> H 	 -77.8879 	 54.6744 	 138.756
| 39> H 	 -73.4145 	 50.0912 	 138.949
| 40> H 	 -76.1145 	 52.512 	 131.643
| 41> *
| 42>
| 43>                          ****END OF INPUT****

CARTESIAN COORDINATES (ANGSTROEM)
---------------------------------
  S    -73.795900   51.155200  136.801000
  C    -74.243000   50.452300  138.291000
  C    -75.589500   50.096000  138.329000
  C    -76.302600   50.663500  137.233000
  C    -75.532400   51.467400  136.382000
  H    -77.327400   50.497300  137.002000
  C    -76.183500   49.256900  139.417000
  H    -75.479900   49.128100  140.214000
  H    -76.494500   48.328300  139.019000
  C    -77.448300   49.846000  140.030000
  H    -77.439700   50.929400  140.102000
  H    -78.250600   49.692500  139.230000
  C    -77.866000   49.225800  141.348000
  H    -78.835300   49.648700  141.662000
  H    -78.049900   48.158200  141.315000
  H    -77.236400   49.448400  142.239000
  S    -75.613800   51.213200  133.752000
  C    -76.193500   52.539400  132.777000
  C    -77.154300   53.259000  133.540000
  C    -76.975100   53.070900  134.942000
  C    -76.017900   52.110500  135.197000
  H    -77.842300   53.911600  133.080000
  C    -77.768200   53.766900  135.921000
  H    -78.046900   53.030600  136.668000
  H    -78.647600   54.125900  135.449000
  C    -76.988000   54.898700  136.699000
  H    -76.609300   55.706400  136.131000
  H    -76.079600   54.454700  137.118000
  C    -77.846000   55.373000  137.903000
  H    -78.853700   55.635600  137.643000
  H    -77.449500   56.321100  138.162000
  H    -77.887900   54.674400  138.756000
  H    -73.414500   50.091200  138.949000
  H    -76.114500   52.512000  131.643000

 Total Charge           Charge          ....    0
 Multiplicity           Mult            ....    1
 Number of Electrons    NEL             ....  134
 Basis Dimension        Dim             ....  322

ORBITAL ENERGIES
----------------

  NO   OCC          E(Eh)            E(eV)
   0   2.0000     -88.963599     -2420.8226
   1   2.0000     -88.959802     -2420.7193
   2   2.0000     -10.329967      -281.0927
   3   2.0000     -10.321585      -280.8646
   4   2.0000     -10.317063      -280.7416
   5   2.0000     -10.315775      -280.7065
   6   2.0000     -10.301071      -280.3064
   7   2.0000     -10.296275      -280.1759
   8   2.0000     -10.295615      -280.1579
   9   2.0000     -10.293469      -280.0995
  10   2.0000     -10.289431      -279.9897
  11   2.0000     -10.284942      -279.8675
  12   2.0000     -10.283706      -279.8339
  13   2.0000     -10.282858      -279.8108
  14   2.0000     -10.281963      -279.7864
  15   2.0000     -10.271491      -279.5015
  16   2.0000      -8.078301      -219.8217
  17   2.0000      -8.075040      -219.7330
  18   2.0000      -6.036716      -164.2674
  19   2.0000      -6.033476      -164.1792
  20   2.0000      -6.032935      -164.1645
  21   2.0000      -6.029856      -164.0807
  22   2.0000      -6.029025      -164.0581
  23   2.0000      -6.025458      -163.9610
  24   2.0000      -1.006695       -27.3936
  25   2.0000      -0.983754       -26.7693
  26   2.0000      -0.914965       -24.8975
  27   2.0000      -0.909251       -24.7420
  28   2.0000      -0.870045       -23.6751
  29   2.0000      -0.852457       -23.1965
  30   2.0000      -0.848081       -23.0774
  31   2.0000      -0.810484       -22.0544
  32   2.0000      -0.781071       -21.2540
  33   2.0000      -0.766767       -20.8648
  34   2.0000      -0.711077       -19.3494
  35   2.0000      -0.701332       -19.0842
  36   2.0000      -0.685281       -18.6474
  37   2.0000      -0.666343       -18.1321
  38   2.0000      -0.645439       -17.5633
  39   2.0000      -0.619768       -16.8648
  40   2.0000      -0.593470       -16.1491
  41   2.0000      -0.575534       -15.6611
  42   2.0000      -0.567014       -15.4292
  43   2.0000      -0.551107       -14.9964
  44   2.0000      -0.527205       -14.3460
  45   2.0000      -0.517636       -14.0856
  46   2.0000      -0.517367       -14.0783
  47   2.0000      -0.512782       -13.9535
  48   2.0000      -0.506976       -13.7955
  49   2.0000      -0.492790       -13.4095
  50   2.0000      -0.491046       -13.3621
  51   2.0000      -0.484114       -13.1734
  52   2.0000      -0.475374       -12.9356
  53   2.0000      -0.467850       -12.7309
  54   2.0000      -0.459879       -12.5140
  55   2.0000      -0.447909       -12.1882
  56   2.0000      -0.444329       -12.0908
  57   2.0000      -0.434845       -11.8327
  58   2.0000      -0.432302       -11.7635
  59   2.0000      -0.429953       -11.6996
  60   2.0000      -0.424908       -11.5623
  61   2.0000      -0.417291       -11.3551
  62   2.0000      -0.409872       -11.1532
  63   2.0000      -0.336710        -9.1623
  64   2.0000      -0.322191        -8.7673
  65   2.0000      -0.317378        -8.6363
  66   2.0000      -0.292115        -7.9489
  67   0.0000       0.022190         0.6038
  68   0.0000       0.054759         1.4901
  69   0.0000       0.095482         2.5982
  70   0.0000       0.117005         3.1839
  71   0.0000       0.136169         3.7053

MULLIKEN ATOMIC CHARGES
-----------------------
   0 S :    0.111650
   1 C :   -0.139987
   2 C :   -0.086859
   3 C :    0.043624
   4 C :   -0.172234
   5 H :    0.010131
   6 C :    0.144668
   7 H :    0.009829
   8 H :    0.025702
   9 C :   -0.129141
  10 H :    0.030494
  11 H :    0.028949
  12 C :   -0.044828
  13 H :    0.025773
  14 H :    0.029352
  15 H :    0.039848
  16 S :    0.103349
  17 C :   -0.111208
  18 C :   -0.038824
  19 C :   -0.019624
  20 C :   -0.181146
  21 H :    0.003106
  22 C :    0.109458
  23 H :    0.012873
  24 H :    0.008231
  25 C :   -0.071177
  26 H :    0.022611
  27 H :    0.035062
  28 C :   -0.023585
  29 H :    0.014231
  30 H :    0.015799
  31 H :    0.044149
  32 H :    0.070656
  33 H :    0.079071
Sum of atomic charges:    0.0000000

LOEWDIN ATOMIC CHARGES
----------------------
   0 S :    0.400438
   1 C :   -0.209361
   2 C :   -0.066160
   3 C :   -0.050024
   4 C :   -0.191525
   5 H :    0.025804
   6 C :   -0.025674
   7 H :    0.026015
   8 H :    0.030653
   9 C :   -0.048291
  10 H :    0.022041
  11 H :    0.027183
  12 C :   -0.072768
  13 H :    0.030296
  14 H :    0.023818
  15 H :    0.030026
  16 S :    0.409289
  17 C :   -0.195829
  18 C :   -0.061630
  19 C :   -0.056751
  20 C :   -0.202639
  21 H :    0.021839
  22 C :   -0.028963
  23 H :    0.033217
  24 H :    0.025465
  25 C :   -0.024883
  26 H :    0.018410
  27 H :    0.029772
  28 C :   -0.063842
  29 H :    0.018903
  30 H :    0.021968
  31 H :    0.029184
  32 H :    0.036321
  33 H :    0.037696

  Mayer bond orders larger than 0.100000
B(  0-S ,  1-C ) :   1.1656 B(  0-S ,  4-C ) :   1.1331 B(  1-C ,  2-C ) :   1.5777
B(  1-C ,  4-C ) :   0.1049 B(  1-C , 32-H ) :   0.9612 B(  2-C ,  3-C ) :   1.2475
B(  2-C ,  6-C ) :   1.0425 B(  3-C ,  4-C ) :   1.5521 B(  3-C ,  5-H ) :   0.9955
B(  4-C , 20-C ) :   1.0687 B(  6-C ,  7-H ) :   0.9443 B(  6-C ,  8-H ) :   0.9235
B(  6-C ,  9-C ) :   1.0537 B(  9-C , 10-H ) :   0.9622 B(  9-C , 11-H ) :   0.9481
B(  9-C , 12-C ) :   1.0952 B( 12-C , 13-H ) :   0.9699 B( 12-C , 14-H ) :   0.9723
B( 12-C , 15-H ) :   0.9726 B( 16-S , 17-C ) :   1.1597 B( 16-S , 20-C ) :   1.1655
B( 17-C , 18-C ) :   1.5680 B( 17-C , 20-C ) :   0.1132 B( 17-C , 33-H ) :   0.9632
B( 18-C , 19-C ) :   1.2420 B( 18-C , 21-H ) :   0.9989 B( 19-C , 20-C ) :   1.5621
B( 19-C , 22-C ) :   1.0750 B( 22-C , 23-H ) :   0.9207 B( 22-C , 24-H ) :   0.9238
B( 22-C , 25-C ) :   1.0564 B( 25-C , 26-H ) :   0.9609 B( 25-C , 27-H ) :   0.9567
B( 25-C , 28-C ) :   1.0816 B( 28-C , 29-H ) :   0.9730 B( 28-C , 30-H ) :   0.9724
B( 28-C , 31-H ) :   0.9766

Dispersion correction           -0.014121743
FINAL SINGLE POINT ENERGY     -1339.851450604436

DIPOLE MOMENT
-------------
                                X             Y             Z
Electronic contribution:     17.72027      -5.46875     -23.16872
Nuclear contribution   :    -18.31236       5.41207      23.51969
                        -----------------------------------------
Total Dipole Moment    :     -0.59209      -0.05668       0.35098
                        -----------------------------------------
Magnitude (a.u.)       :      0.69063
Magnitude (Debye)      :      1.75544

Rotational constants in cm-1:     0.017326     0.008911     0.007058
Rotational constants in MHz :   519.432957   267.157871   211.596992

                             ****ORCA TERMINATED NORMALLY****
TOTAL RUN TIME: 0 days 0 hours 0 minutes 32 seconds 622 msec
