                         Program Version 4.2.1 -  RELEASE  -
|  1> ! wB97X-D3 SP def2-SVP
|  2> %pal
|  3> nprocs 16
|  4> end
|  5>
|  6> * xyz 0 1
|  7> S 	 -4.69928 	 -10.5127 	 80.1408
|  8> C 	 -5.49068 	 -11.1331 	 78.7717
|  9> C 	 -6.85812 	 -11.0148 	 78.8975
| 10> C 	 -7.26124 	 -10.5938 	 80.2134
| 11> C 	 -6.19709 	 -10.257 	 80.9972
| 12> H 	 -8.22665 	 -10.5361 	 80.6946
| 13> C 	 -7.85037 	 -11.6436 	 77.9778
| 14> H 	 -7.41758 	 -11.4811 	 76.9814
| 15> H 	 -8.80067 	 -11.1193 	 78.0033
| 16> C 	 -8.03166 	 -13.1917 	 78.0869
| 17> H 	 -8.7484 	 -13.4443 	 77.2527
| 18> H 	 -7.04449 	 -13.6461 	 78.0395
| 19> C 	 -8.69234 	 -13.6 	 79.4479
| 20> H 	 -8.26409 	 -13.1503 	 80.3565
| 21> H 	 -9.68612 	 -13.123 	 79.4293
| 22> H 	 -8.66074 	 -14.7071 	 79.35
| 23> S 	 -5.4765 	 -8.18211 	 82.6009
| 24> C 	 -5.93457 	 -8.18673 	 84.2651
| 25> C 	 -6.74552 	 -9.27206 	 84.6116
| 26> C 	 -7.09365 	 -10.0353 	 83.4307
| 27> C 	 -6.22529 	 -9.72294 	 82.3468
| 28> H 	 -7.05258 	 -9.27809 	 85.6824
| 29> C 	 -8.18001 	 -11.0272 	 83.5162
| 30> H 	 -8.36504 	 -11.4802 	 84.4013
| 31> H 	 -8.1147 	 -11.7633 	 82.7393
| 32> C 	 -9.50163 	 -10.3712 	 83.2353
| 33> H 	 -9.47429 	 -9.52574 	 82.5311
| 34> H 	 -9.9299 	 -9.98511 	 84.1379
| 35> C 	 -10.565 	 -11.3114 	 82.6674
| 36> H 	 -10.4275 	 -11.5129 	 81.5608
| 37> H 	 -11.5882 	 -10.888 	 82.6842
| 38> H 	 -10.5697 	 -12.2512 	 83.1123
| 39> H 	 -5.07914 	 -11.5652 	 77.9147
| 40> H 	 -5.55229 	 -7.4559 	 84.9361
| 41> *
| 42>
| 43>                          ****END OF INPUT****

CARTESIAN COORDINATES (ANGSTROEM)
---------------------------------
  S     -4.699280  -10.512700   80.140800
  C     -5.490680  -11.133100   78.771700
  C     -6.858120  -11.014800   78.897500
  C     -7.261240  -10.593800   80.213400
  C     -6.197090  -10.257000   80.997200
  H     -8.226650  -10.536100   80.694600
  C     -7.850370  -11.643600   77.977800
  H     -7.417580  -11.481100   76.981400
  H     -8.800670  -11.119300   78.003300
  C     -8.031660  -13.191700   78.086900
  H     -8.748400  -13.444300   77.252700
  H     -7.044490  -13.646100   78.039500
  C     -8.692340  -13.600000   79.447900
  H     -8.264090  -13.150300   80.356500
  H     -9.686120  -13.123000   79.429300
  H     -8.660740  -14.707100   79.350000
  S     -5.476500   -8.182110   82.600900
  C     -5.934570   -8.186730   84.265100
  C     -6.745520   -9.272060   84.611600
  C     -7.093650  -10.035300   83.430700
  C     -6.225290   -9.722940   82.346800
  H     -7.052580   -9.278090   85.682400
  C     -8.180010  -11.027200   83.516200
  H     -8.365040  -11.480200   84.401300
  H     -8.114700  -11.763300   82.739300
  C     -9.501630  -10.371200   83.235300
  H     -9.474290   -9.525740   82.531100
  H     -9.929900   -9.985110   84.137900
  C    -10.565000  -11.311400   82.667400
  H    -10.427500  -11.512900   81.560800
  H    -11.588200  -10.888000   82.684200
  H    -10.569700  -12.251200   83.112300
  H     -5.079140  -11.565200   77.914700
  H     -5.552290   -7.455900   84.936100

 Total Charge           Charge          ....    0
 Multiplicity           Mult            ....    1
 Number of Electrons    NEL             ....  134
 Basis Dimension        Dim             ....  322

ORBITAL ENERGIES
----------------

  NO   OCC          E(Eh)            E(eV)
   0   2.0000     -88.965509     -2420.8746
   1   2.0000     -88.965358     -2420.8705
   2   2.0000     -10.326895      -281.0091
   3   2.0000     -10.323706      -280.9223
   4   2.0000     -10.313084      -280.6333
   5   2.0000     -10.311923      -280.6017
   6   2.0000     -10.306993      -280.4676
   7   2.0000     -10.300228      -280.2835
   8   2.0000     -10.296973      -280.1949
   9   2.0000     -10.294196      -280.1193
  10   2.0000     -10.290570      -280.0206
  11   2.0000     -10.286950      -279.9221
  12   2.0000     -10.283332      -279.8237
  13   2.0000     -10.282249      -279.7942
  14   2.0000     -10.281094      -279.7628
  15   2.0000     -10.279918      -279.7308
  16   2.0000      -8.081211      -219.9009
  17   2.0000      -8.080886      -219.8921
  18   2.0000      -6.039627      -164.3466
  19   2.0000      -6.039267      -164.3368
  20   2.0000      -6.035521      -164.2349
  21   2.0000      -6.035350      -164.2302
  22   2.0000      -6.032065      -164.1408
  23   2.0000      -6.031671      -164.1301
  24   2.0000      -1.012494       -27.5514
  25   2.0000      -0.989117       -26.9152
  26   2.0000      -0.926403       -25.2087
  27   2.0000      -0.909027       -24.7359
  28   2.0000      -0.871511       -23.7150
  29   2.0000      -0.854033       -23.2394
  30   2.0000      -0.845162       -22.9980
  31   2.0000      -0.817207       -22.2373
  32   2.0000      -0.786614       -21.4048
  33   2.0000      -0.771426       -20.9916
  34   2.0000      -0.706182       -19.2162
  35   2.0000      -0.698565       -19.0089
  36   2.0000      -0.694829       -18.9073
  37   2.0000      -0.665335       -18.1047
  38   2.0000      -0.644011       -17.5244
  39   2.0000      -0.618560       -16.8319
  40   2.0000      -0.602783       -16.4026
  41   2.0000      -0.580677       -15.8010
  42   2.0000      -0.577031       -15.7018
  43   2.0000      -0.544790       -14.8245
  44   2.0000      -0.544287       -14.8108
  45   2.0000      -0.526841       -14.3361
  46   2.0000      -0.522275       -14.2118
  47   2.0000      -0.518286       -14.1033
  48   2.0000      -0.508119       -13.8266
  49   2.0000      -0.501814       -13.6551
  50   2.0000      -0.487902       -13.2765
  51   2.0000      -0.486746       -13.2450
  52   2.0000      -0.474205       -12.9038
  53   2.0000      -0.467097       -12.7104
  54   2.0000      -0.463033       -12.5998
  55   2.0000      -0.443301       -12.0628
  56   2.0000      -0.439782       -11.9671
  57   2.0000      -0.437764       -11.9122
  58   2.0000      -0.432321       -11.7640
  59   2.0000      -0.427345       -11.6287
  60   2.0000      -0.421158       -11.4603
  61   2.0000      -0.417469       -11.3599
  62   2.0000      -0.410868       -11.1803
  63   2.0000      -0.351318        -9.5599
  64   2.0000      -0.327400        -8.9090
  65   2.0000      -0.326569        -8.8864
  66   2.0000      -0.288752        -7.8573
  67   0.0000       0.031621         0.8605
  68   0.0000       0.070203         1.9103
  69   0.0000       0.112834         3.0704
  70   0.0000       0.122701         3.3389
  71   0.0000       0.123623         3.3640

MULLIKEN ATOMIC CHARGES
-----------------------
   0 S :    0.127025
   1 C :   -0.085810
   2 C :   -0.074805
   3 C :    0.030803
   4 C :   -0.166019
   5 H :   -0.020577
   6 C :    0.032715
   7 H :    0.019125
   8 H :    0.023626
   9 C :   -0.072522
  10 H :    0.048935
  11 H :    0.030491
  12 C :   -0.079973
  13 H :    0.051149
  14 H :    0.026360
  15 H :    0.054271
  16 S :    0.116078
  17 C :   -0.101929
  18 C :   -0.038687
  19 C :   -0.068423
  20 C :   -0.118243
  21 H :    0.039927
  22 C :    0.173797
  23 H :   -0.004038
  24 H :    0.007852
  25 C :   -0.105046
  26 H :    0.040665
  27 H :    0.020039
  28 C :   -0.064890
  29 H :    0.025487
  30 H :    0.038718
  31 H :    0.020487
  32 H :    0.023962
  33 H :    0.049448
Sum of atomic charges:    0.0000000

LOEWDIN ATOMIC CHARGES
----------------------
   0 S :    0.430600
   1 C :   -0.202013
   2 C :   -0.065061
   3 C :   -0.065100
   4 C :   -0.199365
   5 H :    0.029418
   6 C :   -0.041984
   7 H :    0.029614
   8 H :    0.026719
   9 C :   -0.033923
  10 H :    0.033534
  11 H :    0.021267
  12 C :   -0.074958
  13 H :    0.024859
  14 H :    0.022986
  15 H :    0.034580
  16 S :    0.426901
  17 C :   -0.190406
  18 C :   -0.075536
  19 C :   -0.039507
  20 C :   -0.211213
  21 H :    0.043550
  22 C :   -0.024660
  23 H :    0.021417
  24 H :    0.027424
  25 C :   -0.037063
  26 H :    0.025164
  27 H :    0.019947
  28 C :   -0.067451
  29 H :    0.025393
  30 H :    0.031806
  31 H :    0.013001
  32 H :    0.020130
  33 H :    0.019929

  Mayer bond orders larger than 0.100000
B(  0-S ,  1-C ) :   1.1457 B(  0-S ,  4-C ) :   1.1542 B(  1-C ,  2-C ) :   1.5991
B(  1-C , 32-H ) :   0.9759 B(  2-C ,  3-C ) :   1.2142 B(  2-C ,  6-C ) :   1.0494
B(  3-C ,  4-C ) :   1.5893 B(  3-C ,  5-H ) :   0.9957 B(  4-C , 20-C ) :   1.0269
B(  6-C ,  7-H ) :   0.9328 B(  6-C ,  8-H ) :   0.9412 B(  6-C ,  9-C ) :   1.0696
B(  9-C , 10-H ) :   0.9551 B(  9-C , 11-H ) :   0.9540 B(  9-C , 12-C ) :   1.0678
B( 12-C , 13-H ) :   0.9737 B( 12-C , 14-H ) :   0.9725 B( 12-C , 15-H ) :   0.9733
B( 16-S , 17-C ) :   1.1733 B( 16-S , 20-C ) :   1.1573 B( 17-C , 18-C ) :   1.6026
B( 17-C , 20-C ) :   0.1059 B( 17-C , 33-H ) :   0.9691 B( 18-C , 19-C ) :   1.2177
B( 18-C , 21-H ) :   0.9887 B( 19-C , 20-C ) :   1.5634 B( 19-C , 22-C ) :   1.0874
B( 22-C , 23-H ) :   0.9162 B( 22-C , 24-H ) :   0.9361 B( 22-C , 25-C ) :   1.0313
B( 25-C , 26-H ) :   0.9565 B( 25-C , 27-H ) :   0.9525 B( 25-C , 28-C ) :   1.0900
B( 28-C , 29-H ) :   0.9712 B( 28-C , 30-H ) :   0.9706 B( 28-C , 31-H ) :   0.9703

Dispersion correction           -0.016046888
FINAL SINGLE POINT ENERGY     -1339.857927737593

DIPOLE MOMENT
-------------
                                X             Y             Z
Electronic contribution:     25.87290      16.84261       3.75125
Nuclear contribution   :    -26.50442     -17.10545      -3.65084
                        -----------------------------------------
Total Dipole Moment    :     -0.63152      -0.26284       0.10041
                        -----------------------------------------
Magnitude (a.u.)       :      0.69136
Magnitude (Debye)      :      1.75730

Rotational constants in cm-1:     0.018377     0.010818     0.007315
Rotational constants in MHz :   550.928521   324.312682   219.288605

                             ****ORCA TERMINATED NORMALLY****
TOTAL RUN TIME: 0 days 0 hours 0 minutes 37 seconds 664 msec
