                         Program Version 4.2.1 -  RELEASE  -
|  1> ! wB97X-D3 SP def2-SVP
|  2> %pal
|  3> nprocs 16
|  4> end
|  5>
|  6> * xyz 0 1
|  7> S 	 -20.7926 	 -0.669128 	 92.0175
|  8> C 	 -22.019 	 0.480484 	 91.4426
|  9> C 	 -22.2007 	 0.402543 	 90.0831
| 10> C 	 -21.3365 	 -0.53016 	 89.4307
| 11> C 	 -20.5746 	 -1.2806 	 90.3353
| 12> H 	 -21.2075 	 -0.746703 	 88.3614
| 13> C 	 -23.2292 	 1.30514 	 89.4313
| 14> H 	 -22.7789 	 1.74541 	 88.571
| 15> H 	 -23.2635 	 2.20691 	 90.0053
| 16> C 	 -24.6813 	 0.837976 	 89.2369
| 17> H 	 -25.0585 	 1.18824 	 90.1813
| 18> H 	 -25.3076 	 1.40994 	 88.5775
| 19> C 	 -24.8241 	 -0.702453 	 88.9572
| 20> H 	 -24.323 	 -0.735108 	 87.9494
| 21> H 	 -24.1552 	 -1.27881 	 89.5523
| 22> H 	 -25.8842 	 -0.988063 	 88.944
| 23> S 	 -18.0927 	 -2.49105 	 90.585
| 24> C 	 -17.7827 	 -3.87733 	 89.6795
| 25> C 	 -18.9092 	 -4.44199 	 89.1561
| 26> C 	 -20.0249 	 -3.59147 	 89.2601
| 27> C 	 -19.817 	 -2.46241 	 90.0792
| 28> H 	 -18.8044 	 -5.34862 	 88.5909
| 29> C 	 -21.3716 	 -3.82847 	 88.5147
| 30> H 	 -22.073 	 -3.03554 	 88.7247
| 31> H 	 -21.8148 	 -4.79374 	 88.7244
| 32> C 	 -21.2236 	 -3.79081 	 86.9895
| 33> H 	 -20.4792 	 -4.43992 	 86.6224
| 34> H 	 -20.7886 	 -2.81843 	 86.7516
| 35> C 	 -22.4195 	 -3.7326 	 86.0734
| 36> H 	 -23.1992 	 -3.22667 	 86.4449
| 37> H 	 -22.6912 	 -4.75006 	 85.8215
| 38> H 	 -22.1745 	 -3.34706 	 85.0262
| 39> H 	 -22.6584 	 0.962073 	 92.1855
| 40> H 	 -16.7934 	 -4.34613 	 89.6573
| 41> *
| 42>
| 43>                          ****END OF INPUT****

CARTESIAN COORDINATES (ANGSTROEM)
---------------------------------
  S    -20.792600   -0.669128   92.017500
  C    -22.019000    0.480484   91.442600
  C    -22.200700    0.402543   90.083100
  C    -21.336500   -0.530160   89.430700
  C    -20.574600   -1.280600   90.335300
  H    -21.207500   -0.746703   88.361400
  C    -23.229200    1.305140   89.431300
  H    -22.778900    1.745410   88.571000
  H    -23.263500    2.206910   90.005300
  C    -24.681300    0.837976   89.236900
  H    -25.058500    1.188240   90.181300
  H    -25.307600    1.409940   88.577500
  C    -24.824100   -0.702453   88.957200
  H    -24.323000   -0.735108   87.949400
  H    -24.155200   -1.278810   89.552300
  H    -25.884200   -0.988063   88.944000
  S    -18.092700   -2.491050   90.585000
  C    -17.782700   -3.877330   89.679500
  C    -18.909200   -4.441990   89.156100
  C    -20.024900   -3.591470   89.260100
  C    -19.817000   -2.462410   90.079200
  H    -18.804400   -5.348620   88.590900
  C    -21.371600   -3.828470   88.514700
  H    -22.073000   -3.035540   88.724700
  H    -21.814800   -4.793740   88.724400
  C    -21.223600   -3.790810   86.989500
  H    -20.479200   -4.439920   86.622400
  H    -20.788600   -2.818430   86.751600
  C    -22.419500   -3.732600   86.073400
  H    -23.199200   -3.226670   86.444900
  H    -22.691200   -4.750060   85.821500
  H    -22.174500   -3.347060   85.026200
  H    -22.658400    0.962073   92.185500
  H    -16.793400   -4.346130   89.657300

 Total Charge           Charge          ....    0
 Multiplicity           Mult            ....    1
 Number of Electrons    NEL             ....  134
 Basis Dimension        Dim             ....  322

ORBITAL ENERGIES
----------------

  NO   OCC          E(Eh)            E(eV)
   0   2.0000     -88.964576     -2420.8492
   1   2.0000     -88.964410     -2420.8447
   2   2.0000     -10.335474      -281.2426
   3   2.0000     -10.329092      -281.0689
   4   2.0000     -10.317005      -280.7400
   5   2.0000     -10.316644      -280.7302
   6   2.0000     -10.312757      -280.6244
   7   2.0000     -10.305892      -280.4376
   8   2.0000     -10.302343      -280.3410
   9   2.0000     -10.293078      -280.0889
  10   2.0000     -10.291664      -280.0504
  11   2.0000     -10.285291      -279.8770
  12   2.0000     -10.285258      -279.8761
  13   2.0000     -10.282348      -279.7969
  14   2.0000     -10.276873      -279.6479
  15   2.0000     -10.272954      -279.5413
  16   2.0000      -8.080281      -219.8756
  17   2.0000      -8.078396      -219.8243
  18   2.0000      -6.038596      -164.3185
  19   2.0000      -6.036838      -164.2707
  20   2.0000      -6.034600      -164.2098
  21   2.0000      -6.033134      -164.1699
  22   2.0000      -6.031220      -164.1178
  23   2.0000      -6.029140      -164.0613
  24   2.0000      -1.007452       -27.4142
  25   2.0000      -0.983333       -26.7578
  26   2.0000      -0.912071       -24.8187
  27   2.0000      -0.910499       -24.7759
  28   2.0000      -0.871898       -23.7255
  29   2.0000      -0.856070       -23.2948
  30   2.0000      -0.842127       -22.9154
  31   2.0000      -0.816522       -22.2187
  32   2.0000      -0.790987       -21.5238
  33   2.0000      -0.774778       -21.0828
  34   2.0000      -0.710133       -19.3237
  35   2.0000      -0.703278       -19.1372
  36   2.0000      -0.698141       -18.9974
  37   2.0000      -0.659361       -17.9421
  38   2.0000      -0.641273       -17.4499
  39   2.0000      -0.616903       -16.7868
  40   2.0000      -0.600143       -16.3307
  41   2.0000      -0.571396       -15.5485
  42   2.0000      -0.570663       -15.5285
  43   2.0000      -0.553629       -15.0650
  44   2.0000      -0.548447       -14.9240
  45   2.0000      -0.526915       -14.3381
  46   2.0000      -0.518325       -14.1043
  47   2.0000      -0.511185       -13.9101
  48   2.0000      -0.506192       -13.7742
  49   2.0000      -0.499310       -13.5869
  50   2.0000      -0.490960       -13.3597
  51   2.0000      -0.488534       -13.2937
  52   2.0000      -0.471274       -12.8240
  53   2.0000      -0.468427       -12.7465
  54   2.0000      -0.459162       -12.4944
  55   2.0000      -0.453842       -12.3497
  56   2.0000      -0.450525       -12.2594
  57   2.0000      -0.435617       -11.8537
  58   2.0000      -0.433507       -11.7963
  59   2.0000      -0.426605       -11.6085
  60   2.0000      -0.422763       -11.5040
  61   2.0000      -0.397864       -10.8264
  62   2.0000      -0.396100       -10.7784
  63   2.0000      -0.349398        -9.5076
  64   2.0000      -0.335341        -9.1251
  65   2.0000      -0.333463        -9.0740
  66   2.0000      -0.288433        -7.8487
  67   0.0000       0.023962         0.6520
  68   0.0000       0.060713         1.6521
  69   0.0000       0.111707         3.0397
  70   0.0000       0.120409         3.2765
  71   0.0000       0.124608         3.3907

MULLIKEN ATOMIC CHARGES
-----------------------
   0 S :    0.089154
   1 C :   -0.118953
   2 C :   -0.113935
   3 C :    0.021876
   4 C :   -0.147936
   5 H :    0.028158
   6 C :    0.080600
   7 H :    0.011322
   8 H :    0.007718
   9 C :   -0.045968
  10 H :    0.006000
  11 H :    0.022113
  12 C :   -0.061697
  13 H :    0.032220
  14 H :    0.056543
  15 H :    0.053965
  16 S :    0.106632
  17 C :   -0.098496
  18 C :   -0.023316
  19 C :   -0.033829
  20 C :   -0.151806
  21 H :    0.016879
  22 C :    0.122456
  23 H :    0.011071
  24 H :    0.028576
  25 C :   -0.111928
  26 H :    0.011179
  27 H :    0.009611
  28 C :    0.001588
  29 H :    0.007023
  30 H :    0.016434
  31 H :    0.034790
  32 H :    0.064840
  33 H :    0.067117
Sum of atomic charges:    0.0000000

LOEWDIN ATOMIC CHARGES
----------------------
   0 S :    0.367866
   1 C :   -0.182796
   2 C :   -0.064575
   3 C :   -0.063954
   4 C :   -0.171957
   5 H :    0.038188
   6 C :   -0.035120
   7 H :    0.024471
   8 H :    0.030442
   9 C :   -0.040335
  10 H :    0.016367
  11 H :    0.023069
  12 C :   -0.064237
  13 H :    0.031655
  14 H :    0.021445
  15 H :    0.031234
  16 S :    0.416934
  17 C :   -0.192540
  18 C :   -0.080238
  19 C :   -0.037608
  20 C :   -0.198484
  21 H :    0.032362
  22 C :   -0.021156
  23 H :    0.026118
  24 H :    0.028425
  25 C :   -0.049260
  26 H :    0.014332
  27 H :    0.021297
  28 C :   -0.053637
  29 H :    0.005876
  30 H :    0.021715
  31 H :    0.038356
  32 H :    0.031548
  33 H :    0.034197

  Mayer bond orders larger than 0.100000
B(  0-S ,  1-C ) :   1.1234 B(  0-S ,  4-C ) :   1.1428 B(  1-C ,  2-C ) :   1.6290
B(  1-C , 32-H ) :   0.9665 B(  2-C ,  3-C ) :   1.2118 B(  2-C ,  6-C ) :   1.0181
B(  3-C ,  4-C ) :   1.5719 B(  3-C ,  5-H ) :   0.9928 B(  4-C , 20-C ) :   1.0585
B(  6-C ,  7-H ) :   0.9329 B(  6-C ,  8-H ) :   0.9466 B(  6-C ,  9-C ) :   1.0403
B(  9-C , 10-H ) :   0.9594 B(  9-C , 11-H ) :   0.9579 B(  9-C , 12-C ) :   1.0720
B( 12-C , 13-H ) :   0.9772 B( 12-C , 14-H ) :   0.9694 B( 12-C , 15-H ) :   0.9742
B( 16-S , 17-C ) :   1.1975 B( 16-S , 20-C ) :   1.1250 B( 17-C , 18-C ) :   1.5821
B( 17-C , 20-C ) :   0.1024 B( 17-C , 33-H ) :   0.9610 B( 18-C , 19-C ) :   1.2515
B( 18-C , 21-H ) :   0.9969 B( 19-C , 20-C ) :   1.5770 B( 19-C , 22-C ) :   1.0436
B( 22-C , 23-H ) :   0.9320 B( 22-C , 24-H ) :   0.9361 B( 22-C , 25-C ) :   1.0528
B( 25-C , 26-H ) :   0.9557 B( 25-C , 27-H ) :   0.9521 B( 25-C , 28-C ) :   1.0884
B( 28-C , 29-H ) :   0.9717 B( 28-C , 30-H ) :   0.9712 B( 28-C , 31-H ) :   0.9740

Dispersion correction           -0.015392957
FINAL SINGLE POINT ENERGY     -1339.850198745774

DIPOLE MOMENT
-------------
                                X             Y             Z
Electronic contribution:     23.42628       0.80342      21.47576
Nuclear contribution   :    -23.78076      -0.90032     -22.04782
                        -----------------------------------------
Total Dipole Moment    :     -0.35448      -0.09690      -0.57206
                        -----------------------------------------
Magnitude (a.u.)       :      0.67993
Magnitude (Debye)      :      1.72824

Rotational constants in cm-1:     0.017109     0.010500     0.006934
Rotational constants in MHz :   512.917542   314.771696   207.866439

                             ****ORCA TERMINATED NORMALLY****
TOTAL RUN TIME: 0 days 0 hours 0 minutes 31 seconds 505 msec
