                         Program Version 4.2.1 -  RELEASE  -
|  1> ! wB97X-D3 SP def2-SVP
|  2> %pal
|  3> nprocs 16
|  4> end
|  5>
|  6> * xyz 0 1
|  7> S 	 -1.62072 	 -13.8602 	 83.647
|  8> C 	 -2.98149 	 -14.8927 	 83.8498
|  9> C 	 -2.65387 	 -16.2556 	 83.9564
| 10> C 	 -1.27017 	 -16.4577 	 83.8718
| 11> C 	 -0.579039 	 -15.2325 	 83.6841
| 12> H 	 -0.850667 	 -17.3976 	 83.8593
| 13> C 	 -3.53447 	 -17.4264 	 84.1508
| 14> H 	 -3.44322 	 -18.1549 	 83.3348
| 15> H 	 -4.57665 	 -17.0754 	 84.0801
| 16> C 	 -3.31726 	 -18.2019 	 85.4768
| 17> H 	 -2.25399 	 -18.3183 	 85.6465
| 18> H 	 -3.74381 	 -17.5378 	 86.2756
| 19> C 	 -4.02911 	 -19.5904 	 85.5491
| 20> H 	 -3.66562 	 -20.2577 	 86.3309
| 21> H 	 -5.02646 	 -19.4207 	 85.7852
| 22> H 	 -4.05889 	 -20.0373 	 84.5369
| 23> S 	 1.44249 	 -13.9767 	 82.2873
| 24> C 	 3.08194 	 -14.3612 	 82.6946
| 25> C 	 3.17571 	 -15.2893 	 83.6634
| 26> C 	 1.91347 	 -15.7781 	 84.1128
| 27> C 	 0.857828 	 -15.0465 	 83.5814
| 28> H 	 4.12486 	 -15.587 	 83.9837
| 29> C 	 1.80654 	 -16.867 	 85.1109
| 30> H 	 0.843196 	 -16.6698 	 85.6524
| 31> H 	 2.55846 	 -16.6719 	 85.8234
| 32> C 	 1.70837 	 -18.3689 	 84.5838
| 33> H 	 2.7268 	 -18.6519 	 84.2421
| 34> H 	 1.04421 	 -18.426 	 83.7613
| 35> C 	 1.32598 	 -19.4416 	 85.605
| 36> H 	 0.286639 	 -19.3597 	 85.9651
| 37> H 	 2.11672 	 -19.4204 	 86.3538
| 38> H 	 1.48206 	 -20.5313 	 85.2396
| 39> H 	 -3.9875 	 -14.6085 	 83.6476
| 40> H 	 3.96168 	 -13.8597 	 82.3226
| 41> *
| 42>
| 43>                          ****END OF INPUT****

CARTESIAN COORDINATES (ANGSTROEM)
---------------------------------
  S     -1.620720  -13.860200   83.647000
  C     -2.981490  -14.892700   83.849800
  C     -2.653870  -16.255600   83.956400
  C     -1.270170  -16.457700   83.871800
  C     -0.579039  -15.232500   83.684100
  H     -0.850667  -17.397600   83.859300
  C     -3.534470  -17.426400   84.150800
  H     -3.443220  -18.154900   83.334800
  H     -4.576650  -17.075400   84.080100
  C     -3.317260  -18.201900   85.476800
  H     -2.253990  -18.318300   85.646500
  H     -3.743810  -17.537800   86.275600
  C     -4.029110  -19.590400   85.549100
  H     -3.665620  -20.257700   86.330900
  H     -5.026460  -19.420700   85.785200
  H     -4.058890  -20.037300   84.536900
  S      1.442490  -13.976700   82.287300
  C      3.081940  -14.361200   82.694600
  C      3.175710  -15.289300   83.663400
  C      1.913470  -15.778100   84.112800
  C      0.857828  -15.046500   83.581400
  H      4.124860  -15.587000   83.983700
  C      1.806540  -16.867000   85.110900
  H      0.843196  -16.669800   85.652400
  H      2.558460  -16.671900   85.823400
  C      1.708370  -18.368900   84.583800
  H      2.726800  -18.651900   84.242100
  H      1.044210  -18.426000   83.761300
  C      1.325980  -19.441600   85.605000
  H      0.286639  -19.359700   85.965100
  H      2.116720  -19.420400   86.353800
  H      1.482060  -20.531300   85.239600
  H     -3.987500  -14.608500   83.647600
  H      3.961680  -13.859700   82.322600

 Total Charge           Charge          ....    0
 Multiplicity           Mult            ....    1
 Number of Electrons    NEL             ....  134
 Basis Dimension        Dim             ....  322

ORBITAL ENERGIES
----------------

  NO   OCC          E(Eh)            E(eV)
   0   2.0000     -88.972436     -2421.0631
   1   2.0000     -88.962379     -2420.7894
   2   2.0000     -10.329668      -281.0845
   3   2.0000     -10.324435      -280.9422
   4   2.0000     -10.310175      -280.5541
   5   2.0000     -10.309948      -280.5480
   6   2.0000     -10.300093      -280.2798
   7   2.0000     -10.297269      -280.2029
   8   2.0000     -10.293272      -280.0942
   9   2.0000     -10.293129      -280.0903
  10   2.0000     -10.293013      -280.0871
  11   2.0000     -10.291094      -280.0349
  12   2.0000     -10.289458      -279.9904
  13   2.0000     -10.288444      -279.9628
  14   2.0000     -10.283730      -279.8345
  15   2.0000     -10.278562      -279.6939
  16   2.0000      -8.087753      -220.0789
  17   2.0000      -8.077325      -219.7952
  18   2.0000      -6.046061      -164.5217
  19   2.0000      -6.042146      -164.4152
  20   2.0000      -6.038741      -164.3225
  21   2.0000      -6.035907      -164.2454
  22   2.0000      -6.031896      -164.1362
  23   2.0000      -6.027915      -164.0279
  24   2.0000      -1.010203       -27.4890
  25   2.0000      -0.987953       -26.8836
  26   2.0000      -0.914738       -24.8913
  27   2.0000      -0.905695       -24.6452
  28   2.0000      -0.869308       -23.6551
  29   2.0000      -0.857575       -23.3358
  30   2.0000      -0.852215       -23.1900
  31   2.0000      -0.814641       -22.1675
  32   2.0000      -0.784897       -21.3581
  33   2.0000      -0.770261       -20.9599
  34   2.0000      -0.710497       -19.3336
  35   2.0000      -0.700636       -19.0653
  36   2.0000      -0.694961       -18.9109
  37   2.0000      -0.665362       -18.1054
  38   2.0000      -0.641131       -17.4461
  39   2.0000      -0.629702       -17.1351
  40   2.0000      -0.592260       -16.1162
  41   2.0000      -0.572084       -15.5672
  42   2.0000      -0.571365       -15.5476
  43   2.0000      -0.559990       -15.2381
  44   2.0000      -0.529734       -14.4148
  45   2.0000      -0.521680       -14.1956
  46   2.0000      -0.517327       -14.0772
  47   2.0000      -0.510697       -13.8968
  48   2.0000      -0.508318       -13.8320
  49   2.0000      -0.502014       -13.6605
  50   2.0000      -0.492116       -13.3912
  51   2.0000      -0.482023       -13.1165
  52   2.0000      -0.472366       -12.8537
  53   2.0000      -0.464078       -12.6282
  54   2.0000      -0.458382       -12.4732
  55   2.0000      -0.454074       -12.3560
  56   2.0000      -0.451512       -12.2863
  57   2.0000      -0.438135       -11.9223
  58   2.0000      -0.432254       -11.7622
  59   2.0000      -0.430765       -11.7217
  60   2.0000      -0.426271       -11.5994
  61   2.0000      -0.419625       -11.4186
  62   2.0000      -0.411294       -11.1919
  63   2.0000      -0.349436        -9.5086
  64   2.0000      -0.335601        -9.1322
  65   2.0000      -0.328541        -8.9401
  66   2.0000      -0.285252        -7.7621
  67   0.0000       0.023843         0.6488
  68   0.0000       0.077892         2.1196
  69   0.0000       0.112054         3.0492
  70   0.0000       0.118825         3.2334
  71   0.0000       0.124226         3.3803

MULLIKEN ATOMIC CHARGES
-----------------------
   0 S :    0.135423
   1 C :   -0.099103
   2 C :   -0.087436
   3 C :    0.049282
   4 C :   -0.140835
   5 H :   -0.044770
   6 C :    0.061666
   7 H :    0.028719
   8 H :    0.013974
   9 C :   -0.112370
  10 H :    0.030722
  11 H :    0.040933
  12 C :   -0.021784
  13 H :    0.043288
  14 H :    0.014446
  15 H :    0.030383
  16 S :    0.091042
  17 C :   -0.070649
  18 C :   -0.007948
  19 C :   -0.050557
  20 C :   -0.119623
  21 H :   -0.011563
  22 C :    0.049358
  23 H :    0.028500
  24 H :    0.015696
  25 C :   -0.052454
  26 H :    0.026057
  27 H :    0.031328
  28 C :   -0.079914
  29 H :    0.051061
  30 H :    0.030248
  31 H :    0.042394
  32 H :    0.034490
  33 H :    0.049993
Sum of atomic charges:    0.0000000

LOEWDIN ATOMIC CHARGES
----------------------
   0 S :    0.444798
   1 C :   -0.212408
   2 C :   -0.059195
   3 C :   -0.049798
   4 C :   -0.197142
   5 H :    0.014584
   6 C :   -0.036642
   7 H :    0.029989
   8 H :    0.029178
   9 C :   -0.037596
  10 H :    0.016544
  11 H :    0.031996
  12 C :   -0.064615
  13 H :    0.030841
  14 H :    0.017054
  15 H :    0.028080
  16 S :    0.390231
  17 C :   -0.182544
  18 C :   -0.066080
  19 C :   -0.055046
  20 C :   -0.190907
  21 H :    0.022583
  22 C :   -0.034684
  23 H :    0.036593
  24 H :    0.024647
  25 C :   -0.035069
  26 H :    0.027646
  27 H :    0.014039
  28 C :   -0.075304
  29 H :    0.024570
  30 H :    0.025457
  31 H :    0.038250
  32 H :    0.020041
  33 H :    0.029910

  Mayer bond orders larger than 0.100000
B(  0-S ,  1-C ) :   1.1509 B(  0-S ,  4-C ) :   1.1876 B(  1-C ,  2-C ) :   1.5755
B(  1-C ,  4-C ) :   0.1023 B(  1-C , 32-H ) :   0.9619 B(  2-C ,  3-C ) :   1.2907
B(  2-C ,  6-C ) :   1.0434 B(  3-C ,  4-C ) :   1.4930 B(  3-C ,  5-H ) :   1.0072
B(  4-C , 20-C ) :   1.0430 B(  6-C ,  7-H ) :   0.9341 B(  6-C ,  8-H ) :   0.9358
B(  6-C ,  9-C ) :   1.0513 B(  9-C , 10-H ) :   0.9638 B(  9-C , 11-H ) :   0.9553
B(  9-C , 12-C ) :   1.0703 B( 12-C , 13-H ) :   0.9751 B( 12-C , 14-H ) :   0.9747
B( 12-C , 15-H ) :   0.9750 B( 16-S , 17-C ) :   1.1416 B( 16-S , 20-C ) :   1.1268
B( 17-C , 18-C ) :   1.6395 B( 17-C , 33-H ) :   0.9615 B( 18-C , 19-C ) :   1.2152
B( 18-C , 21-H ) :   1.0026 B( 19-C , 20-C ) :   1.6023 B( 19-C , 22-C ) :   1.0563
B( 22-C , 23-H ) :   0.9317 B( 22-C , 24-H ) :   0.9340 B( 22-C , 25-C ) :   1.0394
B( 25-C , 26-H ) :   0.9508 B( 25-C , 27-H ) :   0.9577 B( 25-C , 28-C ) :   1.0857
B( 28-C , 29-H ) :   0.9726 B( 28-C , 30-H ) :   0.9729 B( 28-C , 31-H ) :   0.9716

Dispersion correction           -0.014701869
FINAL SINGLE POINT ENERGY     -1339.877166775417

DIPOLE MOMENT
-------------
                                X             Y             Z
Electronic contribution:      6.87186      30.59609     -14.06866
Nuclear contribution   :     -6.82953     -31.23864      14.28799
                        -----------------------------------------
Total Dipole Moment    :      0.04233      -0.64255       0.21933
                        -----------------------------------------
Magnitude (a.u.)       :      0.68027
Magnitude (Debye)      :      1.72911

Rotational constants in cm-1:     0.018020     0.009870     0.006658
Rotational constants in MHz :   540.234143   295.904236   199.608848

                             ****ORCA TERMINATED NORMALLY****
TOTAL RUN TIME: 0 days 0 hours 0 minutes 35 seconds 542 msec
