                         Program Version 4.2.1 -  RELEASE  -
|  1> ! wB97X-D3 SP def2-SVP
|  2> %pal
|  3> nprocs 16
|  4> end
|  5>
|  6> * xyz 0 1
|  7> S 	 -2.10488 	 62.0082 	 46.6234
|  8> C 	 -3.25148 	 61.5078 	 47.7845
|  9> C 	 -3.18347 	 60.2052 	 48.1587
| 10> C 	 -1.97572 	 59.658 	 47.6094
| 11> C 	 -1.30772 	 60.4527 	 46.6762
| 12> H 	 -1.58632 	 58.6296 	 47.6822
| 13> C 	 -4.16799 	 59.4144 	 48.9312
| 14> H 	 -4.46028 	 58.4509 	 48.4767
| 15> H 	 -5.01534 	 60.1009 	 49.0311
| 16> C 	 -3.81024 	 59.1538 	 50.4146
| 17> H 	 -2.77231 	 58.8047 	 50.5393
| 18> H 	 -3.72081 	 60.1421 	 50.8828
| 19> C 	 -4.87383 	 58.4792 	 51.1708
| 20> H 	 -5.30338 	 57.6983 	 50.5066
| 21> H 	 -4.5674 	 57.9779 	 52.0733
| 22> H 	 -5.62164 	 59.2837 	 51.3453
| 23> S 	 -1.0195 	 60.7128 	 44.0413
| 24> C 	 0.400816 	 59.8895 	 43.3105
| 25> C 	 1.23798 	 59.2305 	 44.2165
| 26> C 	 0.660401 	 59.2588 	 45.5618
| 27> C 	 -0.484988 	 60.0777 	 45.6133
| 28> H 	 2.14865 	 58.739 	 43.9283
| 29> C 	 1.26434 	 58.5737 	 46.7841
| 30> H 	 0.838627 	 58.8937 	 47.7841
| 31> H 	 2.29649 	 58.9028 	 46.7943
| 32> C 	 1.22664 	 57.1112 	 46.6717
| 33> H 	 1.5624 	 56.9127 	 45.6289
| 34> H 	 0.14006 	 56.7556 	 46.7484
| 35> C 	 2.11613 	 56.264 	 47.7065
| 36> H 	 3.1236 	 56.7269 	 47.8094
| 37> H 	 2.30995 	 55.2606 	 47.3151
| 38> H 	 1.76821 	 56.0992 	 48.7167
| 39> H 	 -4.10665 	 62.1471 	 47.9273
| 40> H 	 0.770361 	 60.2132 	 42.2791
| 41> *
| 42>
| 43>                          ****END OF INPUT****

CARTESIAN COORDINATES (ANGSTROEM)
---------------------------------
  S     -2.104880   62.008200   46.623400
  C     -3.251480   61.507800   47.784500
  C     -3.183470   60.205200   48.158700
  C     -1.975720   59.658000   47.609400
  C     -1.307720   60.452700   46.676200
  H     -1.586320   58.629600   47.682200
  C     -4.167990   59.414400   48.931200
  H     -4.460280   58.450900   48.476700
  H     -5.015340   60.100900   49.031100
  C     -3.810240   59.153800   50.414600
  H     -2.772310   58.804700   50.539300
  H     -3.720810   60.142100   50.882800
  C     -4.873830   58.479200   51.170800
  H     -5.303380   57.698300   50.506600
  H     -4.567400   57.977900   52.073300
  H     -5.621640   59.283700   51.345300
  S     -1.019500   60.712800   44.041300
  C      0.400816   59.889500   43.310500
  C      1.237980   59.230500   44.216500
  C      0.660401   59.258800   45.561800
  C     -0.484988   60.077700   45.613300
  H      2.148650   58.739000   43.928300
  C      1.264340   58.573700   46.784100
  H      0.838627   58.893700   47.784100
  H      2.296490   58.902800   46.794300
  C      1.226640   57.111200   46.671700
  H      1.562400   56.912700   45.628900
  H      0.140060   56.755600   46.748400
  C      2.116130   56.264000   47.706500
  H      3.123600   56.726900   47.809400
  H      2.309950   55.260600   47.315100
  H      1.768210   56.099200   48.716700
  H     -4.106650   62.147100   47.927300
  H      0.770361   60.213200   42.279100

 Total Charge           Charge          ....    0
 Multiplicity           Mult            ....    1
 Number of Electrons    NEL             ....  134
 Basis Dimension        Dim             ....  322

ORBITAL ENERGIES
----------------

  NO   OCC          E(Eh)            E(eV)
   0   2.0000     -88.968160     -2420.9467
   1   2.0000     -88.963812     -2420.8284
   2   2.0000     -10.326654      -281.0026
   3   2.0000     -10.326263      -280.9919
   4   2.0000     -10.322389      -280.8865
   5   2.0000     -10.309783      -280.5434
   6   2.0000     -10.309481      -280.5352
   7   2.0000     -10.304836      -280.4088
   8   2.0000     -10.301929      -280.3297
   9   2.0000     -10.296845      -280.1914
  10   2.0000     -10.296472      -280.1812
  11   2.0000     -10.296292      -280.1763
  12   2.0000     -10.292756      -280.0801
  13   2.0000     -10.285937      -279.8946
  14   2.0000     -10.282015      -279.7878
  15   2.0000     -10.279592      -279.7219
  16   2.0000      -8.081777      -219.9163
  17   2.0000      -8.079919      -219.8658
  18   2.0000      -6.040409      -164.3679
  19   2.0000      -6.038224      -164.3084
  20   2.0000      -6.036628      -164.2650
  21   2.0000      -6.034334      -164.2026
  22   2.0000      -6.032237      -164.1455
  23   2.0000      -6.030685      -164.1033
  24   2.0000      -1.012805       -27.5598
  25   2.0000      -0.978674       -26.6311
  26   2.0000      -0.922209       -25.0946
  27   2.0000      -0.911129       -24.7931
  28   2.0000      -0.878824       -23.9140
  29   2.0000      -0.854696       -23.2575
  30   2.0000      -0.841680       -22.9033
  31   2.0000      -0.812604       -22.1121
  32   2.0000      -0.785656       -21.3788
  33   2.0000      -0.771264       -20.9872
  34   2.0000      -0.706554       -19.2263
  35   2.0000      -0.694330       -18.8937
  36   2.0000      -0.689533       -18.7632
  37   2.0000      -0.666559       -18.1380
  38   2.0000      -0.644354       -17.5338
  39   2.0000      -0.619443       -16.8559
  40   2.0000      -0.594497       -16.1771
  41   2.0000      -0.578509       -15.7420
  42   2.0000      -0.566834       -15.4243
  43   2.0000      -0.558292       -15.1919
  44   2.0000      -0.529216       -14.4007
  45   2.0000      -0.525884       -14.3100
  46   2.0000      -0.513679       -13.9779
  47   2.0000      -0.509193       -13.8559
  48   2.0000      -0.503591       -13.7034
  49   2.0000      -0.493950       -13.4411
  50   2.0000      -0.491794       -13.3824
  51   2.0000      -0.485478       -13.2105
  52   2.0000      -0.470082       -12.7916
  53   2.0000      -0.463762       -12.6196
  54   2.0000      -0.462543       -12.5864
  55   2.0000      -0.452804       -12.3214
  56   2.0000      -0.445417       -12.1204
  57   2.0000      -0.440709       -11.9923
  58   2.0000      -0.428650       -11.6642
  59   2.0000      -0.427437       -11.6311
  60   2.0000      -0.424045       -11.5389
  61   2.0000      -0.410452       -11.1690
  62   2.0000      -0.408733       -11.1222
  63   2.0000      -0.353278        -9.6132
  64   2.0000      -0.333182        -9.0663
  65   2.0000      -0.329713        -8.9720
  66   2.0000      -0.282415        -7.6849
  67   0.0000       0.021393         0.5821
  68   0.0000       0.063519         1.7284
  69   0.0000       0.106010         2.8847
  70   0.0000       0.116215         3.1624
  71   0.0000       0.127312         3.4643

MULLIKEN ATOMIC CHARGES
-----------------------
   0 S :    0.095108
   1 C :   -0.113146
   2 C :   -0.075277
   3 C :    0.026508
   4 C :   -0.160170
   5 H :    0.012046
   6 C :    0.068784
   7 H :    0.043642
   8 H :    0.009902
   9 C :   -0.098460
  10 H :    0.025145
  11 H :    0.016590
  12 C :   -0.018805
  13 H :    0.024012
  14 H :    0.039616
  15 H :    0.037725
  16 S :    0.098662
  17 C :   -0.115872
  18 C :   -0.023903
  19 C :   -0.053032
  20 C :   -0.137834
  21 H :    0.025523
  22 C :    0.078230
  23 H :    0.038812
  24 H :    0.019327
  25 C :   -0.113156
  26 H :    0.030039
  27 H :    0.042411
  28 C :   -0.049854
  29 H :    0.026910
  30 H :    0.035070
  31 H :    0.037092
  32 H :    0.045824
  33 H :    0.082530
Sum of atomic charges:   -0.0000000

LOEWDIN ATOMIC CHARGES
----------------------
   0 S :    0.417905
   1 C :   -0.200779
   2 C :   -0.065513
   3 C :   -0.055182
   4 C :   -0.201546
   5 H :    0.030419
   6 C :   -0.028475
   7 H :    0.034693
   8 H :    0.032793
   9 C :   -0.052742
  10 H :    0.019578
  11 H :    0.024228
  12 C :   -0.064870
  13 H :    0.025323
  14 H :    0.027895
  15 H :    0.033488
  16 S :    0.374260
  17 C :   -0.188184
  18 C :   -0.061111
  19 C :   -0.050606
  20 C :   -0.185086
  21 H :    0.031751
  22 C :   -0.041960
  23 H :    0.035184
  24 H :    0.029799
  25 C :   -0.046723
  26 H :    0.026685
  27 H :    0.029863
  28 C :   -0.073163
  29 H :    0.026982
  30 H :    0.028867
  31 H :    0.023513
  32 H :    0.022698
  33 H :    0.040015

  Mayer bond orders larger than 0.100000
B(  0-S ,  1-C ) :   1.1511 B(  0-S ,  4-C ) :   1.1329 B(  1-C ,  2-C ) :   1.6176
B(  1-C , 32-H ) :   0.9586 B(  2-C ,  3-C ) :   1.2393 B(  2-C ,  6-C ) :   1.0369
B(  3-C ,  4-C ) :   1.5562 B(  3-C ,  5-H ) :   0.9837 B(  4-C , 20-C ) :   1.1137
B(  6-C ,  7-H ) :   0.9365 B(  6-C ,  8-H ) :   0.9344 B(  6-C ,  9-C ) :   1.0573
B(  9-C , 10-H ) :   0.9579 B(  9-C , 11-H ) :   0.9556 B(  9-C , 12-C ) :   1.0735
B( 12-C , 13-H ) :   0.9726 B( 12-C , 14-H ) :   0.9712 B( 12-C , 15-H ) :   0.9762
B( 16-S , 17-C ) :   1.1230 B( 16-S , 20-C ) :   1.1211 B( 17-C , 18-C ) :   1.6464
B( 17-C , 33-H ) :   0.9529 B( 18-C , 19-C ) :   1.2033 B( 18-C , 21-H ) :   0.9848
B( 19-C , 20-C ) :   1.6042 B( 19-C , 22-C ) :   1.0419 B( 22-C , 23-H ) :   0.9352
B( 22-C , 24-H ) :   0.9242 B( 22-C , 25-C ) :   1.0661 B( 25-C , 26-H ) :   0.9571
B( 25-C , 27-H ) :   0.9508 B( 25-C , 28-C ) :   1.0613 B( 28-C , 29-H ) :   0.9751
B( 28-C , 30-H ) :   0.9776 B( 28-C , 31-H ) :   0.9790

Dispersion correction           -0.013540019
FINAL SINGLE POINT ENERGY     -1339.859806842004

DIPOLE MOMENT
-------------
                                X             Y             Z
Electronic contribution:     -0.48902      21.44219     -21.79049
Nuclear contribution   :      0.53774     -21.88485      22.12251
                        -----------------------------------------
Total Dipole Moment    :      0.04872      -0.44266       0.33203
                        -----------------------------------------
Magnitude (a.u.)       :      0.55549
Magnitude (Debye)      :      1.41193

Rotational constants in cm-1:     0.016867     0.008858     0.006174
Rotational constants in MHz :   505.648616   265.544145   185.105123

                             ****ORCA TERMINATED NORMALLY****
TOTAL RUN TIME: 0 days 0 hours 0 minutes 32 seconds 837 msec
