                         Program Version 4.2.1 -  RELEASE  -
|  1> ! wB97X-D3 SP def2-SVP
|  2> %pal
|  3> nprocs 16
|  4> end
|  5>
|  6> * xyz 0 1
|  7> S 	 44.7176 	 9.24881 	 86.1311
|  8> C 	 46.304 	 9.68187 	 85.6992
|  9> C 	 46.8123 	 10.6009 	 86.6084
| 10> C 	 45.8163 	 11.0174 	 87.579
| 11> C 	 44.5811 	 10.5034 	 87.341
| 12> H 	 45.9841 	 11.7269 	 88.3578
| 13> C 	 48.1521 	 11.2521 	 86.3323
| 14> H 	 48.8005 	 10.457 	 86.0258
| 15> H 	 48.4713 	 11.6276 	 87.328
| 16> C 	 48.0159 	 12.3424 	 85.1811
| 17> H 	 48.9706 	 12.6744 	 84.8203
| 18> H 	 47.6082 	 11.8301 	 84.353
| 19> C 	 47.1575 	 13.5464 	 85.6703
| 20> H 	 47.6773 	 13.9876 	 86.4918
| 21> H 	 47.0619 	 14.2987 	 84.824
| 22> H 	 46.1338 	 13.2434 	 85.9604
| 23> S 	 42.22 	 11.4572 	 86.7001
| 24> C 	 41.2062 	 12.194 	 87.9688
| 25> C 	 41.5538 	 11.7703 	 89.213
| 26> C 	 42.8052 	 11.0374 	 89.2568
| 27> C 	 43.2879 	 10.834 	 87.957
| 28> H 	 41.09 	 12.2845 	 90.0603
| 29> C 	 43.5303 	 10.8071 	 90.5695
| 30> H 	 44.3051 	 11.5656 	 90.6799
| 31> H 	 44.1279 	 9.87547 	 90.4683
| 32> C 	 42.652 	 10.6591 	 91.8369
| 33> H 	 42.0081 	 9.80367 	 91.6795
| 34> H 	 41.959 	 11.5065 	 91.8577
| 35> C 	 43.5262 	 10.603 	 93.0519
| 36> H 	 42.8305 	 10.443 	 93.899
| 37> H 	 44.1773 	 11.4369 	 93.1344
| 38> H 	 44.1894 	 9.79343 	 93.0542
| 39> H 	 46.9686 	 9.31649 	 84.9104
| 40> H 	 40.4065 	 12.8913 	 87.7428
| 41> *
| 42>
| 43>                          ****END OF INPUT****

CARTESIAN COORDINATES (ANGSTROEM)
---------------------------------
  S     44.717600    9.248810   86.131100
  C     46.304000    9.681870   85.699200
  C     46.812300   10.600900   86.608400
  C     45.816300   11.017400   87.579000
  C     44.581100   10.503400   87.341000
  H     45.984100   11.726900   88.357800
  C     48.152100   11.252100   86.332300
  H     48.800500   10.457000   86.025800
  H     48.471300   11.627600   87.328000
  C     48.015900   12.342400   85.181100
  H     48.970600   12.674400   84.820300
  H     47.608200   11.830100   84.353000
  C     47.157500   13.546400   85.670300
  H     47.677300   13.987600   86.491800
  H     47.061900   14.298700   84.824000
  H     46.133800   13.243400   85.960400
  S     42.220000   11.457200   86.700100
  C     41.206200   12.194000   87.968800
  C     41.553800   11.770300   89.213000
  C     42.805200   11.037400   89.256800
  C     43.287900   10.834000   87.957000
  H     41.090000   12.284500   90.060300
  C     43.530300   10.807100   90.569500
  H     44.305100   11.565600   90.679900
  H     44.127900    9.875470   90.468300
  C     42.652000   10.659100   91.836900
  H     42.008100    9.803670   91.679500
  H     41.959000   11.506500   91.857700
  C     43.526200   10.603000   93.051900
  H     42.830500   10.443000   93.899000
  H     44.177300   11.436900   93.134400
  H     44.189400    9.793430   93.054200
  H     46.968600    9.316490   84.910400
  H     40.406500   12.891300   87.742800

 Total Charge           Charge          ....    0
 Multiplicity           Mult            ....    1
 Number of Electrons    NEL             ....  134
 Basis Dimension        Dim             ....  322

ORBITAL ENERGIES
----------------

  NO   OCC          E(Eh)            E(eV)
   0   2.0000     -88.963352     -2420.8159
   1   2.0000     -88.961135     -2420.7555
   2   2.0000     -10.329358      -281.0761
   3   2.0000     -10.326694      -281.0036
   4   2.0000     -10.319330      -280.8032
   5   2.0000     -10.312238      -280.6103
   6   2.0000     -10.306470      -280.4533
   7   2.0000     -10.295825      -280.1636
   8   2.0000     -10.295391      -280.1518
   9   2.0000     -10.295307      -280.1496
  10   2.0000     -10.292519      -280.0737
  11   2.0000     -10.290837      -280.0279
  12   2.0000     -10.288216      -279.9566
  13   2.0000     -10.285139      -279.8729
  14   2.0000     -10.279090      -279.7083
  15   2.0000     -10.274416      -279.5811
  16   2.0000      -8.077774      -219.8074
  17   2.0000      -8.076732      -219.7791
  18   2.0000      -6.036297      -164.2560
  19   2.0000      -6.035214      -164.2265
  20   2.0000      -6.032394      -164.1498
  21   2.0000      -6.031052      -164.1133
  22   2.0000      -6.028424      -164.0418
  23   2.0000      -6.027541      -164.0177
  24   2.0000      -1.007553       -27.4169
  25   2.0000      -0.982951       -26.7475
  26   2.0000      -0.914568       -24.8867
  27   2.0000      -0.905000       -24.6263
  28   2.0000      -0.868023       -23.6201
  29   2.0000      -0.853500       -23.2249
  30   2.0000      -0.839805       -22.8523
  31   2.0000      -0.818963       -22.2851
  32   2.0000      -0.779811       -21.2197
  33   2.0000      -0.765452       -20.8290
  34   2.0000      -0.711781       -19.3686
  35   2.0000      -0.704384       -19.1673
  36   2.0000      -0.696200       -18.9446
  37   2.0000      -0.655797       -17.8451
  38   2.0000      -0.637942       -17.3593
  39   2.0000      -0.615668       -16.7532
  40   2.0000      -0.597987       -16.2721
  41   2.0000      -0.570179       -15.5154
  42   2.0000      -0.567584       -15.4448
  43   2.0000      -0.544394       -14.8137
  44   2.0000      -0.540784       -14.7155
  45   2.0000      -0.533156       -14.5079
  46   2.0000      -0.515986       -14.0407
  47   2.0000      -0.507759       -13.8168
  48   2.0000      -0.504322       -13.7233
  49   2.0000      -0.501431       -13.6446
  50   2.0000      -0.485207       -13.2031
  51   2.0000      -0.480102       -13.0642
  52   2.0000      -0.468310       -12.7434
  53   2.0000      -0.462283       -12.5794
  54   2.0000      -0.459439       -12.5020
  55   2.0000      -0.454131       -12.3575
  56   2.0000      -0.441297       -12.0083
  57   2.0000      -0.438614       -11.9353
  58   2.0000      -0.436554       -11.8792
  59   2.0000      -0.426799       -11.6138
  60   2.0000      -0.420358       -11.4385
  61   2.0000      -0.416654       -11.3377
  62   2.0000      -0.410887       -11.1808
  63   2.0000      -0.348737        -9.4896
  64   2.0000      -0.326898        -8.8953
  65   2.0000      -0.322198        -8.7674
  66   2.0000      -0.293719        -7.9925
  67   0.0000       0.034606         0.9417
  68   0.0000       0.063249         1.7211
  69   0.0000       0.113095         3.0775
  70   0.0000       0.117108         3.1867
  71   0.0000       0.129584         3.5262

MULLIKEN ATOMIC CHARGES
-----------------------
   0 S :    0.119557
   1 C :   -0.111652
   2 C :   -0.141051
   3 C :    0.050793
   4 C :   -0.161850
   5 H :   -0.004030
   6 C :    0.045118
   7 H :    0.023487
   8 H :    0.025970
   9 C :   -0.016926
  10 H :    0.021314
  11 H :    0.010432
  12 C :   -0.077867
  13 H :    0.028079
  14 H :    0.042292
  15 H :    0.058962
  16 S :    0.095831
  17 C :   -0.100560
  18 C :   -0.041992
  19 C :   -0.014695
  20 C :   -0.148505
  21 H :    0.035584
  22 C :    0.020280
  23 H :    0.034983
  24 H :    0.034365
  25 C :   -0.086300
  26 H :    0.033530
  27 H :    0.025261
  28 C :    0.018679
  29 H :    0.038501
  30 H :    0.020949
  31 H :    0.010546
  32 H :    0.051022
  33 H :    0.059893
Sum of atomic charges:    0.0000000

LOEWDIN ATOMIC CHARGES
----------------------
   0 S :    0.418836
   1 C :   -0.220625
   2 C :   -0.068035
   3 C :   -0.065809
   4 C :   -0.201976
   5 H :    0.025048
   6 C :   -0.030965
   7 H :    0.025930
   8 H :    0.028797
   9 C :   -0.027158
  10 H :    0.018501
  11 H :    0.015394
  12 C :   -0.065253
  13 H :    0.019600
  14 H :    0.032473
  15 H :    0.031130
  16 S :    0.389070
  17 C :   -0.164646
  18 C :   -0.079531
  19 C :   -0.048824
  20 C :   -0.192936
  21 H :    0.035624
  22 C :   -0.037288
  23 H :    0.030396
  24 H :    0.036806
  25 C :   -0.037776
  26 H :    0.027326
  27 H :    0.020125
  28 C :   -0.054906
  29 H :    0.034856
  30 H :    0.023228
  31 H :    0.018833
  32 H :    0.034790
  33 H :    0.028968

  Mayer bond orders larger than 0.100000
B(  0-S ,  1-C ) :   1.1405 B(  0-S ,  4-C ) :   1.1556 B(  1-C ,  2-C ) :   1.6051
B(  1-C , 32-H ) :   0.9641 B(  2-C ,  3-C ) :   1.2330 B(  2-C ,  6-C ) :   1.0282
B(  3-C ,  4-C ) :   1.5870 B(  3-C ,  5-H ) :   1.0055 B(  4-C , 20-C ) :   1.0013
B(  6-C ,  7-H ) :   0.9378 B(  6-C ,  8-H ) :   0.9477 B(  6-C ,  9-C ) :   1.0572
B(  9-C , 10-H ) :   0.9583 B(  9-C , 11-H ) :   0.9550 B(  9-C , 12-C ) :   1.0670
B( 12-C , 13-H ) :   0.9782 B( 12-C , 14-H ) :   0.9737 B( 12-C , 15-H ) :   0.9738
B( 16-S , 17-C ) :   1.1406 B( 16-S , 20-C ) :   1.1365 B( 17-C , 18-C ) :   1.6609
B( 17-C , 33-H ) :   0.9647 B( 18-C , 19-C ) :   1.1952 B( 18-C , 21-H ) :   0.9774
B( 19-C , 20-C ) :   1.6301 B( 19-C , 22-C ) :   1.0367 B( 22-C , 23-H ) :   0.9344
B( 22-C , 24-H ) :   0.9340 B( 22-C , 25-C ) :   1.0657 B( 25-C , 26-H ) :   0.9559
B( 25-C , 27-H ) :   0.9493 B( 25-C , 28-C ) :   1.0881 B( 28-C , 29-H ) :   0.9698
B( 28-C , 30-H ) :   0.9716 B( 28-C , 31-H ) :   0.9699

Dispersion correction           -0.014248672
FINAL SINGLE POINT ENERGY     -1339.871204786254

DIPOLE MOMENT
-------------
                                X             Y             Z
Electronic contribution:    -12.51083      -9.43543     -14.74691
Nuclear contribution   :     12.81050       9.89357      15.22919
                        -----------------------------------------
Total Dipole Moment    :      0.29967       0.45814       0.48228
                        -----------------------------------------
Magnitude (a.u.)       :      0.72958
Magnitude (Debye)      :      1.85445

Rotational constants in cm-1:     0.019369     0.007921     0.007024
Rotational constants in MHz :   580.666998   237.471646   210.570596

                             ****ORCA TERMINATED NORMALLY****
TOTAL RUN TIME: 0 days 0 hours 0 minutes 29 seconds 874 msec
