                         Program Version 4.2.1 -  RELEASE  -
|  1> ! wB97X-D3 SP def2-SVP
|  2> %pal
|  3> nprocs 16
|  4> end
|  5>
|  6> * xyz 0 1
|  7> S 	 -44.9446 	 26.6193 	 87.3861
|  8> C 	 -45.9284 	 26.5599 	 88.814
|  9> C 	 -46.1039 	 25.2236 	 89.267
| 10> C 	 -45.2813 	 24.3283 	 88.5063
| 11> C 	 -44.4434 	 24.9431 	 87.6581
| 12> H 	 -45.1133 	 23.2677 	 88.7293
| 13> C 	 -46.962 	 24.7893 	 90.4772
| 14> H 	 -47.5517 	 23.9426 	 90.1207
| 15> H 	 -47.7624 	 25.461 	 90.7186
| 16> C 	 -46.1705 	 24.3727 	 91.7306
| 17> H 	 -46.7743 	 23.8583 	 92.483
| 18> H 	 -45.4889 	 23.5699 	 91.4684
| 19> C 	 -45.3061 	 25.4695 	 92.3315
| 20> H 	 -44.549 	 25.916 	 91.7242
| 21> H 	 -46.0051 	 26.3123 	 92.6328
| 22> H 	 -44.7571 	 25.1911 	 93.2096
| 23> S 	 -42.9594 	 24.9819 	 85.3885
| 24> C 	 -41.6683 	 23.8652 	 85.0632
| 25> C 	 -41.5017 	 23.0627 	 86.153
| 26> C 	 -42.3658 	 23.3182 	 87.2357
| 27> C 	 -43.3381 	 24.3093 	 86.936
| 28> H 	 -40.6221 	 22.4414 	 86.2156
| 29> C 	 -42.3696 	 22.4927 	 88.5233
| 30> H 	 -43.0701 	 23.0631 	 89.1834
| 31> H 	 -41.385 	 22.6741 	 88.9911
| 32> C 	 -42.7594 	 21.0632 	 88.1643
| 33> H 	 -42.0548 	 20.7447 	 87.4235
| 34> H 	 -43.6673 	 20.9471 	 87.576
| 35> C 	 -42.8148 	 20.0436 	 89.3147
| 36> H 	 -43.2668 	 19.1382 	 88.9045
| 37> H 	 -43.461 	 20.4589 	 90.0244
| 38> H 	 -41.8307 	 19.8727 	 89.7101
| 39> H 	 -46.5199 	 27.2677 	 89.2156
| 40> H 	 -40.9399 	 23.9191 	 84.211
| 41> *
| 42>
| 43>                          ****END OF INPUT****

CARTESIAN COORDINATES (ANGSTROEM)
---------------------------------
  S    -44.944600   26.619300   87.386100
  C    -45.928400   26.559900   88.814000
  C    -46.103900   25.223600   89.267000
  C    -45.281300   24.328300   88.506300
  C    -44.443400   24.943100   87.658100
  H    -45.113300   23.267700   88.729300
  C    -46.962000   24.789300   90.477200
  H    -47.551700   23.942600   90.120700
  H    -47.762400   25.461000   90.718600
  C    -46.170500   24.372700   91.730600
  H    -46.774300   23.858300   92.483000
  H    -45.488900   23.569900   91.468400
  C    -45.306100   25.469500   92.331500
  H    -44.549000   25.916000   91.724200
  H    -46.005100   26.312300   92.632800
  H    -44.757100   25.191100   93.209600
  S    -42.959400   24.981900   85.388500
  C    -41.668300   23.865200   85.063200
  C    -41.501700   23.062700   86.153000
  C    -42.365800   23.318200   87.235700
  C    -43.338100   24.309300   86.936000
  H    -40.622100   22.441400   86.215600
  C    -42.369600   22.492700   88.523300
  H    -43.070100   23.063100   89.183400
  H    -41.385000   22.674100   88.991100
  C    -42.759400   21.063200   88.164300
  H    -42.054800   20.744700   87.423500
  H    -43.667300   20.947100   87.576000
  C    -42.814800   20.043600   89.314700
  H    -43.266800   19.138200   88.904500
  H    -43.461000   20.458900   90.024400
  H    -41.830700   19.872700   89.710100
  H    -46.519900   27.267700   89.215600
  H    -40.939900   23.919100   84.211000

 Total Charge           Charge          ....    0
 Multiplicity           Mult            ....    1
 Number of Electrons    NEL             ....  134
 Basis Dimension        Dim             ....  322

ORBITAL ENERGIES
----------------

  NO   OCC          E(Eh)            E(eV)
   0   2.0000     -88.968527     -2420.9567
   1   2.0000     -88.962821     -2420.8014
   2   2.0000     -10.330183      -281.0986
   3   2.0000     -10.329034      -281.0673
   4   2.0000     -10.319154      -280.7985
   5   2.0000     -10.309835      -280.5449
   6   2.0000     -10.308064      -280.4967
   7   2.0000     -10.304262      -280.3932
   8   2.0000     -10.296795      -280.1900
   9   2.0000     -10.296157      -280.1727
  10   2.0000     -10.292617      -280.0764
  11   2.0000     -10.289737      -279.9980
  12   2.0000     -10.288603      -279.9671
  13   2.0000     -10.284291      -279.8498
  14   2.0000     -10.274257      -279.5767
  15   2.0000     -10.273115      -279.5457
  16   2.0000      -8.083096      -219.9522
  17   2.0000      -8.078297      -219.8216
  18   2.0000      -6.041711      -164.4033
  19   2.0000      -6.037834      -164.2978
  20   2.0000      -6.036728      -164.2677
  21   2.0000      -6.033538      -164.1809
  22   2.0000      -6.032574      -164.1547
  23   2.0000      -6.029236      -164.0639
  24   2.0000      -1.010935       -27.5090
  25   2.0000      -0.987633       -26.8749
  26   2.0000      -0.912284       -24.8245
  27   2.0000      -0.908819       -24.7302
  28   2.0000      -0.872510       -23.7422
  29   2.0000      -0.854636       -23.2558
  30   2.0000      -0.845084       -22.9959
  31   2.0000      -0.819664       -22.3042
  32   2.0000      -0.784210       -21.3394
  33   2.0000      -0.773236       -21.0408
  34   2.0000      -0.709748       -19.3132
  35   2.0000      -0.702930       -19.1277
  36   2.0000      -0.700962       -19.0741
  37   2.0000      -0.660167       -17.9641
  38   2.0000      -0.642232       -17.4760
  39   2.0000      -0.624010       -16.9802
  40   2.0000      -0.591926       -16.1071
  41   2.0000      -0.567962       -15.4550
  42   2.0000      -0.561858       -15.2889
  43   2.0000      -0.551667       -15.0116
  44   2.0000      -0.540394       -14.7049
  45   2.0000      -0.537484       -14.6257
  46   2.0000      -0.518480       -14.1086
  47   2.0000      -0.511615       -13.9218
  48   2.0000      -0.509458       -13.8630
  49   2.0000      -0.503337       -13.6965
  50   2.0000      -0.491064       -13.3625
  51   2.0000      -0.479312       -13.0428
  52   2.0000      -0.467966       -12.7340
  53   2.0000      -0.466970       -12.7069
  54   2.0000      -0.460279       -12.5248
  55   2.0000      -0.450843       -12.2680
  56   2.0000      -0.449943       -12.2436
  57   2.0000      -0.441399       -12.0111
  58   2.0000      -0.440013       -11.9734
  59   2.0000      -0.424345       -11.5470
  60   2.0000      -0.416195       -11.3252
  61   2.0000      -0.411816       -11.2061
  62   2.0000      -0.407650       -11.0927
  63   2.0000      -0.359103        -9.7717
  64   2.0000      -0.336650        -9.1607
  65   2.0000      -0.325383        -8.8541
  66   2.0000      -0.284850        -7.7512
  67   0.0000       0.021522         0.5856
  68   0.0000       0.076565         2.0834
  69   0.0000       0.103161         2.8071
  70   0.0000       0.122411         3.3310
  71   0.0000       0.124716         3.3937

MULLIKEN ATOMIC CHARGES
-----------------------
   0 S :    0.115100
   1 C :   -0.037547
   2 C :   -0.127107
   3 C :    0.002979
   4 C :   -0.113348
   5 H :    0.025307
   6 C :    0.080383
   7 H :    0.027016
   8 H :    0.015802
   9 C :   -0.049834
  10 H :    0.029966
  11 H :    0.012563
  12 C :   -0.055529
  13 H :    0.037649
  14 H :    0.024375
  15 H :    0.026434
  16 S :    0.083277
  17 C :   -0.098535
  18 C :   -0.040965
  19 C :   -0.079976
  20 C :   -0.144793
  21 H :    0.020312
  22 C :    0.071118
  23 H :    0.020693
  24 H :    0.035765
  25 C :   -0.097511
  26 H :    0.013443
  27 H :    0.027562
  28 C :    0.022071
  29 H :    0.032662
  30 H :    0.016331
  31 H :    0.030729
  32 H :   -0.004316
  33 H :    0.077924
Sum of atomic charges:    0.0000000

LOEWDIN ATOMIC CHARGES
----------------------
   0 S :    0.397566
   1 C :   -0.182558
   2 C :   -0.051576
   3 C :   -0.067299
   4 C :   -0.181141
   5 H :    0.035209
   6 C :   -0.031926
   7 H :    0.036256
   8 H :    0.025547
   9 C :   -0.044092
  10 H :    0.027853
  11 H :    0.020098
  12 C :   -0.069268
  13 H :    0.023967
  14 H :    0.028186
  15 H :    0.023617
  16 S :    0.415123
  17 C :   -0.197217
  18 C :   -0.081197
  19 C :   -0.057281
  20 C :   -0.199718
  21 H :    0.031169
  22 C :   -0.035879
  23 H :    0.028847
  24 H :    0.035689
  25 C :   -0.045099
  26 H :    0.020831
  27 H :    0.028379
  28 C :   -0.052616
  29 H :    0.030044
  30 H :    0.016384
  31 H :    0.022993
  32 H :    0.004314
  33 H :    0.044795

  Mayer bond orders larger than 0.100000
B(  0-S ,  1-C ) :   1.1319 B(  0-S ,  4-C ) :   1.1243 B(  1-C ,  2-C ) :   1.6138
B(  1-C , 32-H ) :   0.9783 B(  2-C ,  3-C ) :   1.2165 B(  2-C ,  6-C ) :   1.0272
B(  3-C ,  4-C ) :   1.5973 B(  3-C ,  5-H ) :   0.9905 B(  4-C , 20-C ) :   1.0639
B(  6-C ,  7-H ) :   0.9348 B(  6-C ,  8-H ) :   0.9443 B(  6-C ,  9-C ) :   1.0694
B(  9-C , 10-H ) :   0.9535 B(  9-C , 11-H ) :   0.9522 B(  9-C , 12-C ) :   1.0750
B( 12-C , 13-H ) :   0.9744 B( 12-C , 14-H ) :   0.9754 B( 12-C , 15-H ) :   0.9730
B( 16-S , 17-C ) :   1.1650 B( 16-S , 20-C ) :   1.1538 B( 17-C , 18-C ) :   1.5863
B( 17-C , 20-C ) :   0.1035 B( 17-C , 33-H ) :   0.9614 B( 18-C , 19-C ) :   1.2818
B( 18-C , 21-H ) :   0.9838 B( 19-C , 20-C ) :   1.5467 B( 19-C , 22-C ) :   1.0341
B( 22-C , 23-H ) :   0.9372 B( 22-C , 24-H ) :   0.9289 B( 22-C , 25-C ) :   1.0478
B( 25-C , 26-H ) :   0.9510 B( 25-C , 27-H ) :   0.9543 B( 25-C , 28-C ) :   1.0826
B( 28-C , 29-H ) :   0.9734 B( 28-C , 30-H ) :   0.9749 B( 28-C , 31-H ) :   0.9755

Dispersion correction           -0.014630933
FINAL SINGLE POINT ENERGY     -1339.867529724544

DIPOLE MOMENT
-------------
                                X             Y             Z
Electronic contribution:      1.94541      17.73636     -24.79497
Nuclear contribution   :     -1.84579     -18.26697      25.28777
                        -----------------------------------------
Total Dipole Moment    :      0.09962      -0.53061       0.49281
                        -----------------------------------------
Magnitude (a.u.)       :      0.73098
Magnitude (Debye)      :      1.85801

Rotational constants in cm-1:     0.016845     0.010193     0.006821
Rotational constants in MHz :   504.992077   305.577826   204.501969

                             ****ORCA TERMINATED NORMALLY****
TOTAL RUN TIME: 0 days 0 hours 0 minutes 30 seconds 656 msec
