                         Program Version 4.2.1 -  RELEASE  -
|  1> ! wB97X-D3 SP def2-SVP
|  2> %pal
|  3> nprocs 16
|  4> end
|  5>
|  6> * xyz 0 1
|  7> S 	 37.5528 	 8.55522 	 89.205
|  8> C 	 38.5672 	 8.96195 	 87.8203
|  9> C 	 38.511 	 7.97877 	 86.8554
| 10> C 	 37.5692 	 6.92827 	 87.1897
| 11> C 	 37.0603 	 7.06502 	 88.5001
| 12> H 	 37.2567 	 6.1627 	 86.5042
| 13> C 	 39.3768 	 7.77443 	 85.6248
| 14> H 	 39.411 	 8.73355 	 85.0191
| 15> H 	 38.9633 	 6.93655 	 85.0127
| 16> C 	 40.8392 	 7.46183 	 85.8308
| 17> H 	 40.9091 	 6.48732 	 86.2621
| 18> H 	 41.4107 	 7.38322 	 84.8824
| 19> C 	 41.6633 	 8.51725 	 86.5908
| 20> H 	 41.4692 	 8.57849 	 87.6473
| 21> H 	 42.7206 	 8.25248 	 86.631
| 22> H 	 41.545 	 9.49653 	 86.1921
| 23> S 	 34.6521 	 6.841 	 89.8106
| 24> C 	 34.2006 	 5.33795 	 90.4688
| 25> C 	 35.0125 	 4.30343 	 90.054
| 26> C 	 36.1525 	 4.76873 	 89.343
| 27> C 	 36.1673 	 6.14998 	 89.185
| 28> H 	 34.7378 	 3.28906 	 90.2715
| 29> C 	 37.129 	 3.80146 	 88.7557
| 30> H 	 37.8105 	 4.41435 	 88.2017
| 31> H 	 36.4833 	 3.26315 	 87.9994
| 32> C 	 37.8604 	 2.84047 	 89.7142
| 33> H 	 37.272 	 2.01375 	 90.1897
| 34> H 	 38.3923 	 3.44814 	 90.4821
| 35> C 	 38.9478 	 2.17795 	 88.9415
| 36> H 	 39.35 	 1.25254 	 89.4404
| 37> H 	 39.8428 	 2.786 	 88.6886
| 38> H 	 38.561 	 1.85762 	 87.9757
| 39> H 	 39.2594 	 9.87497 	 87.7584
| 40> H 	 33.3119 	 4.97895 	 91.041
| 41> *
| 42>
| 43>                          ****END OF INPUT****

CARTESIAN COORDINATES (ANGSTROEM)
---------------------------------
  S     37.552800    8.555220   89.205000
  C     38.567200    8.961950   87.820300
  C     38.511000    7.978770   86.855400
  C     37.569200    6.928270   87.189700
  C     37.060300    7.065020   88.500100
  H     37.256700    6.162700   86.504200
  C     39.376800    7.774430   85.624800
  H     39.411000    8.733550   85.019100
  H     38.963300    6.936550   85.012700
  C     40.839200    7.461830   85.830800
  H     40.909100    6.487320   86.262100
  H     41.410700    7.383220   84.882400
  C     41.663300    8.517250   86.590800
  H     41.469200    8.578490   87.647300
  H     42.720600    8.252480   86.631000
  H     41.545000    9.496530   86.192100
  S     34.652100    6.841000   89.810600
  C     34.200600    5.337950   90.468800
  C     35.012500    4.303430   90.054000
  C     36.152500    4.768730   89.343000
  C     36.167300    6.149980   89.185000
  H     34.737800    3.289060   90.271500
  C     37.129000    3.801460   88.755700
  H     37.810500    4.414350   88.201700
  H     36.483300    3.263150   87.999400
  C     37.860400    2.840470   89.714200
  H     37.272000    2.013750   90.189700
  H     38.392300    3.448140   90.482100
  C     38.947800    2.177950   88.941500
  H     39.350000    1.252540   89.440400
  H     39.842800    2.786000   88.688600
  H     38.561000    1.857620   87.975700
  H     39.259400    9.874970   87.758400
  H     33.311900    4.978950   91.041000

 Total Charge           Charge          ....    0
 Multiplicity           Mult            ....    1
 Number of Electrons    NEL             ....  134
 Basis Dimension        Dim             ....  322

ORBITAL ENERGIES
----------------

  NO   OCC          E(Eh)            E(eV)
   0   2.0000     -88.969369     -2420.9796
   1   2.0000     -88.965515     -2420.8747
   2   2.0000     -10.331295      -281.1288
   3   2.0000     -10.325015      -280.9579
   4   2.0000     -10.321642      -280.8662
   5   2.0000     -10.314504      -280.6719
   6   2.0000     -10.303790      -280.3804
   7   2.0000     -10.300359      -280.2870
   8   2.0000     -10.299164      -280.2545
   9   2.0000     -10.296971      -280.1948
  10   2.0000     -10.292602      -280.0759
  11   2.0000     -10.291746      -280.0527
  12   2.0000     -10.286388      -279.9069
  13   2.0000     -10.285855      -279.8923
  14   2.0000     -10.277421      -279.6629
  15   2.0000     -10.273250      -279.5493
  16   2.0000      -8.084169      -219.9814
  17   2.0000      -8.080546      -219.8828
  18   2.0000      -6.042654      -164.4290
  19   2.0000      -6.039019      -164.3301
  20   2.0000      -6.038593      -164.3185
  21   2.0000      -6.035080      -164.2229
  22   2.0000      -6.035005      -164.2208
  23   2.0000      -6.031241      -164.1184
  24   2.0000      -1.007750       -27.4223
  25   2.0000      -0.985082       -26.8054
  26   2.0000      -0.915044       -24.8996
  27   2.0000      -0.913661       -24.8620
  28   2.0000      -0.868198       -23.6249
  29   2.0000      -0.857659       -23.3381
  30   2.0000      -0.846376       -23.0311
  31   2.0000      -0.808515       -22.0008
  32   2.0000      -0.787261       -21.4225
  33   2.0000      -0.770227       -20.9589
  34   2.0000      -0.705647       -19.2016
  35   2.0000      -0.697962       -18.9925
  36   2.0000      -0.694245       -18.8914
  37   2.0000      -0.657226       -17.8840
  38   2.0000      -0.635004       -17.2793
  39   2.0000      -0.618557       -16.8318
  40   2.0000      -0.589885       -16.0516
  41   2.0000      -0.570300       -15.5186
  42   2.0000      -0.567085       -15.4312
  43   2.0000      -0.556817       -15.1518
  44   2.0000      -0.542531       -14.7630
  45   2.0000      -0.525654       -14.3038
  46   2.0000      -0.516348       -14.0505
  47   2.0000      -0.513132       -13.9630
  48   2.0000      -0.500937       -13.6312
  49   2.0000      -0.497912       -13.5489
  50   2.0000      -0.492636       -13.4053
  51   2.0000      -0.477692       -12.9987
  52   2.0000      -0.469667       -12.7803
  53   2.0000      -0.465845       -12.6763
  54   2.0000      -0.459005       -12.4902
  55   2.0000      -0.447903       -12.1881
  56   2.0000      -0.440574       -11.9886
  57   2.0000      -0.435579       -11.8527
  58   2.0000      -0.431976       -11.7547
  59   2.0000      -0.428888       -11.6706
  60   2.0000      -0.423826       -11.5329
  61   2.0000      -0.415925       -11.3179
  62   2.0000      -0.410854       -11.1799
  63   2.0000      -0.342905        -9.3309
  64   2.0000      -0.331876        -9.0308
  65   2.0000      -0.326768        -8.8918
  66   2.0000      -0.291820        -7.9408
  67   0.0000       0.029272         0.7965
  68   0.0000       0.071939         1.9576
  69   0.0000       0.108748         2.9592
  70   0.0000       0.116620         3.1734
  71   0.0000       0.122314         3.3283

MULLIKEN ATOMIC CHARGES
-----------------------
   0 S :    0.123442
   1 C :   -0.156390
   2 C :   -0.071330
   3 C :    0.023201
   4 C :   -0.163540
   5 H :    0.019340
   6 C :    0.036370
   7 H :    0.035219
   8 H :    0.033955
   9 C :   -0.048731
  10 H :    0.016161
  11 H :    0.033300
  12 C :   -0.059714
  13 H :    0.029496
  14 H :    0.029708
  15 H :    0.022191
  16 S :    0.115832
  17 C :   -0.078399
  18 C :   -0.057579
  19 C :   -0.030151
  20 C :   -0.160370
  21 H :    0.009626
  22 C :    0.057581
  23 H :    0.004375
  24 H :    0.044962
  25 C :   -0.054971
  26 H :    0.044278
  27 H :    0.042889
  28 C :   -0.069089
  29 H :    0.033754
  30 H :    0.037603
  31 H :    0.014320
  32 H :    0.078492
  33 H :    0.064169
Sum of atomic charges:   -0.0000000

LOEWDIN ATOMIC CHARGES
----------------------
   0 S :    0.421864
   1 C :   -0.209902
   2 C :   -0.065526
   3 C :   -0.063219
   4 C :   -0.206047
   5 H :    0.028920
   6 C :   -0.038270
   7 H :    0.035679
   8 H :    0.036234
   9 C :   -0.040498
  10 H :    0.018256
  11 H :    0.031137
  12 C :   -0.069512
  13 H :    0.021526
  14 H :    0.030283
  15 H :    0.018085
  16 S :    0.413667
  17 C :   -0.205845
  18 C :   -0.076214
  19 C :   -0.052460
  20 C :   -0.201550
  21 H :    0.027796
  22 C :   -0.033799
  23 H :    0.025106
  24 H :    0.042778
  25 C :   -0.045554
  26 H :    0.032358
  27 H :    0.034679
  28 C :   -0.073993
  29 H :    0.028163
  30 H :    0.026745
  31 H :    0.018730
  32 H :    0.046540
  33 H :    0.043844

  Mayer bond orders larger than 0.100000
B(  0-S ,  1-C ) :   1.1303 B(  0-S ,  4-C ) :   1.1736 B(  1-C ,  2-C ) :   1.6187
B(  1-C , 32-H ) :   0.9543 B(  2-C ,  3-C ) :   1.2480 B(  2-C ,  6-C ) :   1.0223
B(  3-C ,  4-C ) :   1.5392 B(  3-C ,  5-H ) :   0.9911 B(  4-C , 20-C ) :   1.0429
B(  6-C ,  7-H ) :   0.9366 B(  6-C ,  8-H ) :   0.9428 B(  6-C ,  9-C ) :   1.0809
B(  9-C , 10-H ) :   0.9509 B(  9-C , 11-H ) :   0.9543 B(  9-C , 12-C ) :   1.0802
B( 12-C , 13-H ) :   0.9695 B( 12-C , 14-H ) :   0.9704 B( 12-C , 15-H ) :   0.9754
B( 16-S , 17-C ) :   1.1604 B( 16-S , 20-C ) :   1.1284 B( 17-C , 18-C ) :   1.6195
B( 17-C , 33-H ) :   0.9561 B( 18-C , 19-C ) :   1.2382 B( 18-C , 21-H ) :   0.9934
B( 19-C , 20-C ) :   1.5908 B( 19-C , 22-C ) :   1.0468 B( 22-C , 23-H ) :   0.9300
B( 22-C , 24-H ) :   0.9226 B( 22-C , 25-C ) :   1.0671 B( 25-C , 26-H ) :   0.9510
B( 25-C , 27-H ) :   0.9543 B( 25-C , 28-C ) :   1.0899 B( 28-C , 29-H ) :   0.9739
B( 28-C , 30-H ) :   0.9738 B( 28-C , 31-H ) :   0.9676

Dispersion correction           -0.013992962
FINAL SINGLE POINT ENERGY     -1339.876893893612

DIPOLE MOMENT
-------------
                                X             Y             Z
Electronic contribution:    -23.10785      14.58057      11.86247
Nuclear contribution   :     23.46335     -15.12190     -12.21280
                        -----------------------------------------
Total Dipole Moment    :      0.35550      -0.54133      -0.35032
                        -----------------------------------------
Magnitude (a.u.)       :      0.73631
Magnitude (Debye)      :      1.87154

Rotational constants in cm-1:     0.018158     0.008999     0.006558
Rotational constants in MHz :   544.369799   269.786371   196.593859

                             ****ORCA TERMINATED NORMALLY****
TOTAL RUN TIME: 0 days 0 hours 0 minutes 29 seconds 776 msec
