                         Program Version 4.2.1 -  RELEASE  -
|  1> ! wB97X-D3 SP def2-SVP
|  2> %pal
|  3> nprocs 16
|  4> end
|  5>
|  6> * xyz 0 1
|  7> S 	 -30.8866 	 64.6209 	 107.052
|  8> C 	 -30.8842 	 66.2526 	 107.443
|  9> C 	 -31.7574 	 67.004 	 106.65
| 10> C 	 -32.2706 	 66.1592 	 105.579
| 11> C 	 -31.8815 	 64.7925 	 105.612
| 12> H 	 -32.9403 	 66.498 	 104.807
| 13> C 	 -32.0473 	 68.4831 	 106.714
| 14> H 	 -32.0248 	 68.8576 	 107.736
| 15> H 	 -33.1113 	 68.5787 	 106.565
| 16> C 	 -31.1896 	 69.3795 	 105.773
| 17> H 	 -31.3368 	 69.0562 	 104.751
| 18> H 	 -31.5522 	 70.4376 	 105.725
| 19> C 	 -29.745 	 69.5184 	 106.116
| 20> H 	 -29.3266 	 68.4807 	 106.137
| 21> H 	 -29.3178 	 70.1114 	 105.308
| 22> H 	 -29.5475 	 69.9754 	 107.105
| 23> S 	 -34.0975 	 63.4676 	 104.379
| 24> C 	 -33.8146 	 62.1928 	 103.176
| 25> C 	 -32.4648 	 61.9284 	 103.15
| 26> C 	 -31.6764 	 62.8246 	 103.97
| 27> C 	 -32.3972 	 63.722 	 104.779
| 28> H 	 -32.089 	 61.2078 	 102.423
| 29> C 	 -30.1573 	 62.9506 	 103.78
| 30> H 	 -29.7127 	 62.9197 	 104.733
| 31> H 	 -29.8879 	 63.9717 	 103.531
| 32> C 	 -29.4099 	 61.9046 	 102.928
| 33> H 	 -29.8676 	 62.1004 	 101.934
| 34> H 	 -29.5109 	 60.8701 	 103.163
| 35> C 	 -27.8597 	 62.0252 	 102.905
| 36> H 	 -27.5232 	 61.944 	 103.938
| 37> H 	 -27.5138 	 62.9137 	 102.439
| 38> H 	 -27.3385 	 61.2531 	 102.395
| 39> H 	 -30.2868 	 66.7096 	 108.301
| 40> H 	 -34.5845 	 61.6883 	 102.596
| 41> *
| 42>
| 43>                          ****END OF INPUT****

CARTESIAN COORDINATES (ANGSTROEM)
---------------------------------
  S    -30.886600   64.620900  107.052000
  C    -30.884200   66.252600  107.443000
  C    -31.757400   67.004000  106.650000
  C    -32.270600   66.159200  105.579000
  C    -31.881500   64.792500  105.612000
  H    -32.940300   66.498000  104.807000
  C    -32.047300   68.483100  106.714000
  H    -32.024800   68.857600  107.736000
  H    -33.111300   68.578700  106.565000
  C    -31.189600   69.379500  105.773000
  H    -31.336800   69.056200  104.751000
  H    -31.552200   70.437600  105.725000
  C    -29.745000   69.518400  106.116000
  H    -29.326600   68.480700  106.137000
  H    -29.317800   70.111400  105.308000
  H    -29.547500   69.975400  107.105000
  S    -34.097500   63.467600  104.379000
  C    -33.814600   62.192800  103.176000
  C    -32.464800   61.928400  103.150000
  C    -31.676400   62.824600  103.970000
  C    -32.397200   63.722000  104.779000
  H    -32.089000   61.207800  102.423000
  C    -30.157300   62.950600  103.780000
  H    -29.712700   62.919700  104.733000
  H    -29.887900   63.971700  103.531000
  C    -29.409900   61.904600  102.928000
  H    -29.867600   62.100400  101.934000
  H    -29.510900   60.870100  103.163000
  C    -27.859700   62.025200  102.905000
  H    -27.523200   61.944000  103.938000
  H    -27.513800   62.913700  102.439000
  H    -27.338500   61.253100  102.395000
  H    -30.286800   66.709600  108.301000
  H    -34.584500   61.688300  102.596000

 Total Charge           Charge          ....    0
 Multiplicity           Mult            ....    1
 Number of Electrons    NEL             ....  134
 Basis Dimension        Dim             ....  322

ORBITAL ENERGIES
----------------

  NO   OCC          E(Eh)            E(eV)
   0   2.0000     -88.969791     -2420.9911
   1   2.0000     -88.964749     -2420.8539
   2   2.0000     -10.334854      -281.2257
   3   2.0000     -10.330715      -281.1130
   4   2.0000     -10.324234      -280.9367
   5   2.0000     -10.320889      -280.8457
   6   2.0000     -10.309014      -280.5225
   7   2.0000     -10.306229      -280.4467
   8   2.0000     -10.300698      -280.2962
   9   2.0000     -10.297521      -280.2098
  10   2.0000     -10.293204      -280.0923
  11   2.0000     -10.287473      -279.9364
  12   2.0000     -10.287099      -279.9262
  13   2.0000     -10.284849      -279.8650
  14   2.0000     -10.278407      -279.6897
  15   2.0000     -10.272970      -279.5417
  16   2.0000      -8.085112      -220.0071
  17   2.0000      -8.078602      -219.8299
  18   2.0000      -6.043542      -164.4531
  19   2.0000      -6.039304      -164.3378
  20   2.0000      -6.037214      -164.2810
  21   2.0000      -6.036125      -164.2513
  22   2.0000      -6.033075      -164.1683
  23   2.0000      -6.029411      -164.0686
  24   2.0000      -1.004737       -27.3403
  25   2.0000      -0.983805       -26.7707
  26   2.0000      -0.911934       -24.8150
  27   2.0000      -0.903114       -24.5750
  28   2.0000      -0.873547       -23.7704
  29   2.0000      -0.851674       -23.1752
  30   2.0000      -0.843316       -22.9478
  31   2.0000      -0.814725       -22.1698
  32   2.0000      -0.784144       -21.3377
  33   2.0000      -0.772516       -21.0212
  34   2.0000      -0.706097       -19.2139
  35   2.0000      -0.705441       -19.1960
  36   2.0000      -0.690640       -18.7933
  37   2.0000      -0.652245       -17.7485
  38   2.0000      -0.639262       -17.3952
  39   2.0000      -0.616178       -16.7671
  40   2.0000      -0.597334       -16.2543
  41   2.0000      -0.575078       -15.6487
  42   2.0000      -0.568702       -15.4752
  43   2.0000      -0.555640       -15.1197
  44   2.0000      -0.538985       -14.6665
  45   2.0000      -0.527630       -14.3575
  46   2.0000      -0.516652       -14.0588
  47   2.0000      -0.513101       -13.9622
  48   2.0000      -0.505230       -13.7480
  49   2.0000      -0.498075       -13.5533
  50   2.0000      -0.485120       -13.2008
  51   2.0000      -0.479485       -13.0475
  52   2.0000      -0.476017       -12.9531
  53   2.0000      -0.468949       -12.7607
  54   2.0000      -0.461168       -12.5490
  55   2.0000      -0.453537       -12.3414
  56   2.0000      -0.441557       -12.0154
  57   2.0000      -0.436913       -11.8890
  58   2.0000      -0.429562       -11.6890
  59   2.0000      -0.423388       -11.5210
  60   2.0000      -0.411073       -11.1859
  61   2.0000      -0.409688       -11.1482
  62   2.0000      -0.408015       -11.1027
  63   2.0000      -0.345811        -9.4100
  64   2.0000      -0.331175        -9.0117
  65   2.0000      -0.325986        -8.8705
  66   2.0000      -0.294642        -8.0176
  67   0.0000       0.024291         0.6610
  68   0.0000       0.069772         1.8986
  69   0.0000       0.108525         2.9531
  70   0.0000       0.122611         3.3364
  71   0.0000       0.137062         3.7297

MULLIKEN ATOMIC CHARGES
-----------------------
   0 S :    0.134388
   1 C :   -0.136885
   2 C :   -0.114726
   3 C :    0.013495
   4 C :   -0.177377
   5 H :    0.011240
   6 C :    0.082803
   7 H :    0.013465
   8 H :    0.022706
   9 C :   -0.069734
  10 H :    0.023237
  11 H :    0.025930
  12 C :   -0.056976
  13 H :    0.039652
  14 H :    0.040796
  15 H :    0.034728
  16 S :    0.096170
  17 C :   -0.101182
  18 C :   -0.032693
  19 C :   -0.065049
  20 C :   -0.114998
  21 H :    0.032181
  22 C :    0.103753
  23 H :   -0.008902
  24 H :    0.032277
  25 C :   -0.095939
  26 H :    0.031806
  27 H :    0.033196
  28 C :   -0.021066
  29 H :    0.028758
  30 H :    0.023447
  31 H :    0.022822
  32 H :    0.079912
  33 H :    0.068766
Sum of atomic charges:   -0.0000000

LOEWDIN ATOMIC CHARGES
----------------------
   0 S :    0.445704
   1 C :   -0.227343
   2 C :   -0.072008
   3 C :   -0.051932
   4 C :   -0.206005
   5 H :    0.026184
   6 C :   -0.038477
   7 H :    0.029636
   8 H :    0.034397
   9 C :   -0.044277
  10 H :    0.022260
  11 H :    0.027371
  12 C :   -0.069183
  13 H :    0.028439
  14 H :    0.030669
  15 H :    0.025729
  16 S :    0.392307
  17 C :   -0.173372
  18 C :   -0.079785
  19 C :   -0.046212
  20 C :   -0.207901
  21 H :    0.035119
  22 C :   -0.037067
  23 H :    0.018291
  24 H :    0.037172
  25 C :   -0.042094
  26 H :    0.023753
  27 H :    0.022407
  28 C :   -0.057099
  29 H :    0.027321
  30 H :    0.018708
  31 H :    0.023200
  32 H :    0.047435
  33 H :    0.036651

  Mayer bond orders larger than 0.100000
B(  0-S ,  1-C ) :   1.1883 B(  0-S ,  4-C ) :   1.1504 B(  1-C ,  2-C ) :   1.5543
B(  1-C , 32-H ) :   0.9559 B(  2-C ,  3-C ) :   1.2736 B(  2-C ,  6-C ) :   1.0346
B(  3-C ,  4-C ) :   1.5313 B(  3-C ,  5-H ) :   0.9958 B(  4-C , 20-C ) :   1.0795
B(  6-C ,  7-H ) :   0.9406 B(  6-C ,  8-H ) :   0.9329 B(  6-C ,  9-C ) :   1.0603
B(  9-C , 10-H ) :   0.9565 B(  9-C , 11-H ) :   0.9531 B(  9-C , 12-C ) :   1.0841
B( 12-C , 13-H ) :   0.9733 B( 12-C , 14-H ) :   0.9703 B( 12-C , 15-H ) :   0.9734
B( 16-S , 17-C ) :   1.1640 B( 16-S , 20-C ) :   1.1194 B( 17-C , 18-C ) :   1.5860
B( 17-C , 33-H ) :   0.9653 B( 18-C , 19-C ) :   1.2668 B( 18-C , 21-H ) :   0.9853
B( 19-C , 20-C ) :   1.5607 B( 19-C , 22-C ) :   1.0380 B( 22-C , 23-H ) :   0.9134
B( 22-C , 24-H ) :   0.9260 B( 22-C , 25-C ) :   1.0632 B( 25-C , 26-H ) :   0.9513
B( 25-C , 27-H ) :   0.9602 B( 25-C , 28-C ) :   1.0801 B( 28-C , 29-H ) :   0.9741
B( 28-C , 30-H ) :   0.9768 B( 28-C , 31-H ) :   0.9751

Dispersion correction           -0.013965819
FINAL SINGLE POINT ENERGY     -1339.871677553425

DIPOLE MOMENT
-------------
                                X             Y             Z
Electronic contribution:    -18.27966     -11.17718       7.26781
Nuclear contribution   :     18.54962      11.46270      -7.55648
                        -----------------------------------------
Total Dipole Moment    :      0.26997       0.28552      -0.28866
                        -----------------------------------------
Magnitude (a.u.)       :      0.48758
Magnitude (Debye)      :      1.23932

Rotational constants in cm-1:     0.018354     0.007819     0.006424
Rotational constants in MHz :   550.244601   234.396168   192.584248

                             ****ORCA TERMINATED NORMALLY****
TOTAL RUN TIME: 0 days 0 hours 0 minutes 28 seconds 765 msec
