                         Program Version 4.2.1 -  RELEASE  -
|  1> ! wB97X-D3 SP def2-SVP
|  2> %pal
|  3> nprocs 16
|  4> end
|  5>
|  6> * xyz 0 1
|  7> S 	 22.9758 	 7.58315 	 73.7131
|  8> C 	 21.9656 	 6.62216 	 72.6235
|  9> C 	 20.7838 	 6.20463 	 73.1978
| 10> C 	 20.6509 	 6.70874 	 74.4878
| 11> C 	 21.7293 	 7.4909 	 74.973
| 12> H 	 19.784 	 6.49585 	 75.1355
| 13> C 	 19.8136 	 5.20692 	 72.601
| 14> H 	 19.9411 	 4.28626 	 73.1637
| 15> H 	 20.0497 	 4.87216 	 71.5875
| 16> C 	 18.2857 	 5.63841 	 72.5059
| 17> H 	 17.7714 	 4.97543 	 71.7515
| 18> H 	 17.6996 	 5.5732 	 73.4522
| 19> C 	 18.1006 	 7.02042 	 71.9058
| 20> H 	 17.0857 	 7.24825 	 71.549
| 21> H 	 18.3058 	 7.64056 	 72.7832
| 22> H 	 18.7905 	 7.40051 	 71.1392
| 23> S 	 23.6114 	 7.33839 	 76.87
| 24> C 	 23.2127 	 7.82866 	 78.5479
| 25> C 	 22.0764 	 8.56443 	 78.5442
| 26> C 	 21.3653 	 8.59195 	 77.339
| 27> C 	 22.0063 	 7.79886 	 76.3557
| 28> H 	 21.7699 	 9.01587 	 79.4846
| 29> C 	 19.9935 	 9.20175 	 77.0775
| 30> H 	 19.739 	 9.46103 	 76.0617
| 31> H 	 20.0976 	 10.1694 	 77.6096
| 32> C 	 18.7042 	 8.47116 	 77.5072
| 33> H 	 18.7173 	 7.47561 	 77.0159
| 34> H 	 17.8504 	 8.94534 	 76.9917
| 35> C 	 18.3618 	 8.51157 	 79.0455
| 36> H 	 19.1878 	 8.31411 	 79.6876
| 37> H 	 17.5479 	 7.86473 	 79.2475
| 38> H 	 17.8617 	 9.43814 	 79.3546
| 39> H 	 22.3398 	 6.40844 	 71.6533
| 40> H 	 23.7662 	 7.6359 	 79.5038
| 41> *
| 42>
| 43>                          ****END OF INPUT****

CARTESIAN COORDINATES (ANGSTROEM)
---------------------------------
  S     22.975800    7.583150   73.713100
  C     21.965600    6.622160   72.623500
  C     20.783800    6.204630   73.197800
  C     20.650900    6.708740   74.487800
  C     21.729300    7.490900   74.973000
  H     19.784000    6.495850   75.135500
  C     19.813600    5.206920   72.601000
  H     19.941100    4.286260   73.163700
  H     20.049700    4.872160   71.587500
  C     18.285700    5.638410   72.505900
  H     17.771400    4.975430   71.751500
  H     17.699600    5.573200   73.452200
  C     18.100600    7.020420   71.905800
  H     17.085700    7.248250   71.549000
  H     18.305800    7.640560   72.783200
  H     18.790500    7.400510   71.139200
  S     23.611400    7.338390   76.870000
  C     23.212700    7.828660   78.547900
  C     22.076400    8.564430   78.544200
  C     21.365300    8.591950   77.339000
  C     22.006300    7.798860   76.355700
  H     21.769900    9.015870   79.484600
  C     19.993500    9.201750   77.077500
  H     19.739000    9.461030   76.061700
  H     20.097600   10.169400   77.609600
  C     18.704200    8.471160   77.507200
  H     18.717300    7.475610   77.015900
  H     17.850400    8.945340   76.991700
  C     18.361800    8.511570   79.045500
  H     19.187800    8.314110   79.687600
  H     17.547900    7.864730   79.247500
  H     17.861700    9.438140   79.354600
  H     22.339800    6.408440   71.653300
  H     23.766200    7.635900   79.503800

 Total Charge           Charge          ....    0
 Multiplicity           Mult            ....    1
 Number of Electrons    NEL             ....  134
 Basis Dimension        Dim             ....  322

ORBITAL ENERGIES
----------------

  NO   OCC          E(Eh)            E(eV)
   0   2.0000     -88.969028     -2420.9703
   1   2.0000     -88.964599     -2420.8498
   2   2.0000     -10.334122      -281.2057
   3   2.0000     -10.327736      -281.0320
   4   2.0000     -10.319190      -280.7994
   5   2.0000     -10.315447      -280.6976
   6   2.0000     -10.305077      -280.4154
   7   2.0000     -10.302608      -280.3482
   8   2.0000     -10.299749      -280.2704
   9   2.0000     -10.298005      -280.2230
  10   2.0000     -10.297731      -280.2155
  11   2.0000     -10.294619      -280.1308
  12   2.0000     -10.291683      -280.0509
  13   2.0000     -10.291566      -280.0477
  14   2.0000     -10.275811      -279.6190
  15   2.0000     -10.275238      -279.6034
  16   2.0000      -8.083064      -219.9514
  17   2.0000      -8.078845      -219.8366
  18   2.0000      -6.041558      -164.3992
  19   2.0000      -6.037624      -164.2921
  20   2.0000      -6.037442      -164.2871
  21   2.0000      -6.033934      -164.1917
  22   2.0000      -6.033508      -164.1801
  23   2.0000      -6.029420      -164.0689
  24   2.0000      -1.006328       -27.3836
  25   2.0000      -0.983068       -26.7506
  26   2.0000      -0.908754       -24.7284
  27   2.0000      -0.901232       -24.5238
  28   2.0000      -0.872544       -23.7431
  29   2.0000      -0.848587       -23.0912
  30   2.0000      -0.843723       -22.9589
  31   2.0000      -0.814800       -22.1718
  32   2.0000      -0.786157       -21.3924
  33   2.0000      -0.774581       -21.0774
  34   2.0000      -0.713020       -19.4023
  35   2.0000      -0.695357       -18.9216
  36   2.0000      -0.692322       -18.8390
  37   2.0000      -0.658043       -17.9063
  38   2.0000      -0.640939       -17.4408
  39   2.0000      -0.623981       -16.9794
  40   2.0000      -0.590238       -16.0612
  41   2.0000      -0.564727       -15.3670
  42   2.0000      -0.552785       -15.0420
  43   2.0000      -0.547596       -14.9008
  44   2.0000      -0.542286       -14.7564
  45   2.0000      -0.538193       -14.6450
  46   2.0000      -0.512996       -13.9593
  47   2.0000      -0.507705       -13.8154
  48   2.0000      -0.502162       -13.6645
  49   2.0000      -0.498288       -13.5591
  50   2.0000      -0.490891       -13.3578
  51   2.0000      -0.481860       -13.1121
  52   2.0000      -0.474180       -12.9031
  53   2.0000      -0.471987       -12.8434
  54   2.0000      -0.454496       -12.3675
  55   2.0000      -0.447779       -12.1847
  56   2.0000      -0.444246       -12.0886
  57   2.0000      -0.438095       -11.9212
  58   2.0000      -0.437387       -11.9019
  59   2.0000      -0.422469       -11.4960
  60   2.0000      -0.415267       -11.3000
  61   2.0000      -0.407882       -11.0990
  62   2.0000      -0.405828       -11.0431
  63   2.0000      -0.351224        -9.5573
  64   2.0000      -0.335740        -9.1359
  65   2.0000      -0.329181        -8.9575
  66   2.0000      -0.284077        -7.7301
  67   0.0000       0.022514         0.6126
  68   0.0000       0.060069         1.6346
  69   0.0000       0.104383         2.8404
  70   0.0000       0.122203         3.3253
  71   0.0000       0.127094         3.4584

MULLIKEN ATOMIC CHARGES
-----------------------
   0 S :    0.101419
   1 C :   -0.134023
   2 C :   -0.043535
   3 C :    0.009480
   4 C :   -0.140083
   5 H :    0.015625
   6 C :    0.081166
   7 H :    0.045418
   8 H :    0.018341
   9 C :   -0.118559
  10 H :    0.037856
  11 H :    0.043901
  12 C :   -0.064871
  13 H :    0.038127
  14 H :    0.025497
  15 H :    0.038036
  16 S :    0.094502
  17 C :   -0.106424
  18 C :   -0.041116
  19 C :    0.002722
  20 C :   -0.162549
  21 H :    0.018784
  22 C :    0.052022
  23 H :    0.027260
  24 H :    0.023375
  25 C :   -0.077185
  26 H :    0.028761
  27 H :    0.026919
  28 C :   -0.026621
  29 H :    0.034737
  30 H :    0.017487
  31 H :    0.024676
  32 H :    0.037963
  33 H :    0.070892
Sum of atomic charges:   -0.0000000

LOEWDIN ATOMIC CHARGES
----------------------
   0 S :    0.390550
   1 C :   -0.177849
   2 C :   -0.069230
   3 C :   -0.060291
   4 C :   -0.190230
   5 H :    0.031675
   6 C :   -0.028068
   7 H :    0.037312
   8 H :    0.032426
   9 C :   -0.047772
  10 H :    0.028286
  11 H :    0.026038
  12 C :   -0.077925
  13 H :    0.026890
  14 H :    0.026415
  15 H :    0.027875
  16 S :    0.389175
  17 C :   -0.183391
  18 C :   -0.074060
  19 C :   -0.060257
  20 C :   -0.188307
  21 H :    0.032816
  22 C :   -0.037582
  23 H :    0.032736
  24 H :    0.034432
  25 C :   -0.039817
  26 H :    0.022732
  27 H :    0.027934
  28 C :   -0.067426
  29 H :    0.019440
  30 H :    0.023403
  31 H :    0.029488
  32 H :    0.018437
  33 H :    0.044144

  Mayer bond orders larger than 0.100000
B(  0-S ,  1-C ) :   1.1461 B(  0-S ,  4-C ) :   1.1496 B(  1-C ,  2-C ) :   1.5744
B(  1-C ,  4-C ) :   0.1008 B(  1-C , 32-H ) :   0.9733 B(  2-C ,  3-C ) :   1.2788
B(  2-C ,  6-C ) :   1.0210 B(  3-C ,  4-C ) :   1.5347 B(  3-C ,  5-H ) :   0.9847
B(  4-C , 20-C ) :   1.0754 B(  6-C ,  7-H ) :   0.9421 B(  6-C ,  8-H ) :   0.9437
B(  6-C ,  9-C ) :   1.0545 B(  9-C , 10-H ) :   0.9652 B(  9-C , 11-H ) :   0.9594
B(  9-C , 12-C ) :   1.0637 B( 12-C , 13-H ) :   0.9759 B( 12-C , 14-H ) :   0.9707
B( 12-C , 15-H ) :   0.9765 B( 16-S , 17-C ) :   1.1283 B( 16-S , 20-C ) :   1.1461
B( 17-C , 18-C ) :   1.6297 B( 17-C , 20-C ) :   0.1026 B( 17-C , 33-H ) :   0.9610
B( 18-C , 19-C ) :   1.2437 B( 18-C , 21-H ) :   0.9856 B( 19-C , 20-C ) :   1.5498
B( 19-C , 22-C ) :   1.0483 B( 22-C , 23-H ) :   0.9346 B( 22-C , 24-H ) :   0.9315
B( 22-C , 25-C ) :   1.0702 B( 25-C , 26-H ) :   0.9535 B( 25-C , 27-H ) :   0.9544
B( 25-C , 28-C ) :   1.0707 B( 28-C , 29-H ) :   0.9811 B( 28-C , 30-H ) :   0.9704
B( 28-C , 31-H ) :   0.9727

Dispersion correction           -0.014729922
FINAL SINGLE POINT ENERGY     -1339.862203415884

DIPOLE MOMENT
-------------
                                X             Y             Z
Electronic contribution:     29.60973       0.32052       0.53586
Nuclear contribution   :    -30.25324      -0.45761      -0.44812
                        -----------------------------------------
Total Dipole Moment    :     -0.64351      -0.13710       0.08774
                        -----------------------------------------
Magnitude (a.u.)       :      0.66378
Magnitude (Debye)      :      1.68719

Rotational constants in cm-1:     0.017623     0.009680     0.006794
Rotational constants in MHz :   528.327844   290.200453   203.677888

                             ****ORCA TERMINATED NORMALLY****
TOTAL RUN TIME: 0 days 0 hours 0 minutes 35 seconds 62 msec
