                         Program Version 4.2.1 -  RELEASE  -
|  1> ! wB97X-D3 SP def2-SVP
|  2> %pal
|  3> nprocs 16
|  4> end
|  5>
|  6> * xyz 0 1
|  7> S 	 27.7253 	 31.2776 	 58.227
|  8> C 	 28.7781 	 29.8577 	 57.9963
|  9> C 	 30.0536 	 30.2902 	 57.7898
| 10> C 	 30.1664 	 31.7002 	 57.6483
| 11> C 	 28.9539 	 32.3473 	 57.7639
| 12> H 	 31.0411 	 32.3192 	 57.4418
| 13> C 	 31.1533 	 29.2545 	 57.4022
| 14> H 	 31.2115 	 29.1044 	 56.3247
| 15> H 	 30.9053 	 28.3562 	 57.8529
| 16> C 	 32.5891 	 29.8142 	 57.6329
| 17> H 	 32.7225 	 30.8025 	 57.183
| 18> H 	 32.6333 	 30.0627 	 58.6729
| 19> C 	 33.7168 	 28.9185 	 57.0985
| 20> H 	 33.4962 	 28.699 	 56.0758
| 21> H 	 34.7543 	 29.294 	 57.2047
| 22> H 	 33.8089 	 27.9747 	 57.6235
| 23> S 	 27.5783 	 34.26 	 56.3352
| 24> C 	 27.6982 	 35.916 	 56.9018
| 25> C 	 28.4882 	 36.0319 	 58.0183
| 26> C 	 29.08 	 34.8228 	 58.3557
| 27> C 	 28.7284 	 33.7895 	 57.5402
| 28> H 	 28.6169 	 36.9831 	 58.4952
| 29> C 	 29.7398 	 34.5493 	 59.7201
| 30> H 	 29.9697 	 33.4821 	 59.7129
| 31> H 	 28.8468 	 34.7474 	 60.3509
| 32> C 	 31.0027 	 35.3106 	 60.1018
| 33> H 	 31.2276 	 35.2574 	 61.1532
| 34> H 	 30.9841 	 36.3339 	 59.8222
| 35> C 	 32.3135 	 34.8033 	 59.3613
| 36> H 	 32.1745 	 34.6809 	 58.2636
| 37> H 	 32.7233 	 33.7907 	 59.6803
| 38> H 	 33.0794 	 35.4695 	 59.5196
| 39> H 	 28.3977 	 28.8861 	 58.0231
| 40> H 	 27.2338 	 36.798 	 56.4559
| 41> *
| 42>
| 43>                          ****END OF INPUT****

CARTESIAN COORDINATES (ANGSTROEM)
---------------------------------
  S     27.725300   31.277600   58.227000
  C     28.778100   29.857700   57.996300
  C     30.053600   30.290200   57.789800
  C     30.166400   31.700200   57.648300
  C     28.953900   32.347300   57.763900
  H     31.041100   32.319200   57.441800
  C     31.153300   29.254500   57.402200
  H     31.211500   29.104400   56.324700
  H     30.905300   28.356200   57.852900
  C     32.589100   29.814200   57.632900
  H     32.722500   30.802500   57.183000
  H     32.633300   30.062700   58.672900
  C     33.716800   28.918500   57.098500
  H     33.496200   28.699000   56.075800
  H     34.754300   29.294000   57.204700
  H     33.808900   27.974700   57.623500
  S     27.578300   34.260000   56.335200
  C     27.698200   35.916000   56.901800
  C     28.488200   36.031900   58.018300
  C     29.080000   34.822800   58.355700
  C     28.728400   33.789500   57.540200
  H     28.616900   36.983100   58.495200
  C     29.739800   34.549300   59.720100
  H     29.969700   33.482100   59.712900
  H     28.846800   34.747400   60.350900
  C     31.002700   35.310600   60.101800
  H     31.227600   35.257400   61.153200
  H     30.984100   36.333900   59.822200
  C     32.313500   34.803300   59.361300
  H     32.174500   34.680900   58.263600
  H     32.723300   33.790700   59.680300
  H     33.079400   35.469500   59.519600
  H     28.397700   28.886100   58.023100
  H     27.233800   36.798000   56.455900

 Total Charge           Charge          ....    0
 Multiplicity           Mult            ....    1
 Number of Electrons    NEL             ....  134
 Basis Dimension        Dim             ....  322

ORBITAL ENERGIES
----------------

  NO   OCC          E(Eh)            E(eV)
   0   2.0000     -88.967744     -2420.9354
   1   2.0000     -88.962632     -2420.7963
   2   2.0000     -10.323769      -280.9240
   3   2.0000     -10.319034      -280.7952
   4   2.0000     -10.317579      -280.7556
   5   2.0000     -10.308790      -280.5164
   6   2.0000     -10.301718      -280.3240
   7   2.0000     -10.296192      -280.1736
   8   2.0000     -10.291121      -280.0356
   9   2.0000     -10.290960      -280.0313
  10   2.0000     -10.289687      -279.9966
  11   2.0000     -10.288245      -279.9574
  12   2.0000     -10.286953      -279.9222
  13   2.0000     -10.284620      -279.8587
  14   2.0000     -10.278926      -279.7038
  15   2.0000     -10.278053      -279.6800
  16   2.0000      -8.082690      -219.9412
  17   2.0000      -8.078092      -219.8161
  18   2.0000      -6.041148      -164.3880
  19   2.0000      -6.037213      -164.2809
  20   2.0000      -6.036509      -164.2618
  21   2.0000      -6.033446      -164.1784
  22   2.0000      -6.032460      -164.1516
  23   2.0000      -6.028938      -164.0558
  24   2.0000      -1.014077       -27.5944
  25   2.0000      -0.990657       -26.9572
  26   2.0000      -0.908587       -24.7239
  27   2.0000      -0.904066       -24.6009
  28   2.0000      -0.870900       -23.6984
  29   2.0000      -0.850815       -23.1519
  30   2.0000      -0.843333       -22.9483
  31   2.0000      -0.818122       -22.2622
  32   2.0000      -0.782879       -21.3032
  33   2.0000      -0.773411       -21.0456
  34   2.0000      -0.712941       -19.4001
  35   2.0000      -0.702301       -19.1106
  36   2.0000      -0.693131       -18.8611
  37   2.0000      -0.659558       -17.9475
  38   2.0000      -0.648653       -17.6507
  39   2.0000      -0.615853       -16.7582
  40   2.0000      -0.592600       -16.1255
  41   2.0000      -0.576765       -15.6946
  42   2.0000      -0.564421       -15.3587
  43   2.0000      -0.553063       -15.0496
  44   2.0000      -0.539544       -14.6817
  45   2.0000      -0.523511       -14.2455
  46   2.0000      -0.522696       -14.2233
  47   2.0000      -0.512876       -13.9561
  48   2.0000      -0.501341       -13.6422
  49   2.0000      -0.494736       -13.4625
  50   2.0000      -0.489494       -13.3198
  51   2.0000      -0.479757       -13.0548
  52   2.0000      -0.472320       -12.8525
  53   2.0000      -0.468759       -12.7556
  54   2.0000      -0.455579       -12.3969
  55   2.0000      -0.453216       -12.3326
  56   2.0000      -0.448619       -12.2076
  57   2.0000      -0.442708       -12.0467
  58   2.0000      -0.429189       -11.6788
  59   2.0000      -0.423474       -11.5233
  60   2.0000      -0.421728       -11.4758
  61   2.0000      -0.413912       -11.2631
  62   2.0000      -0.408370       -11.1123
  63   2.0000      -0.339530        -9.2391
  64   2.0000      -0.334421        -9.1001
  65   2.0000      -0.328698        -8.9443
  66   2.0000      -0.301873        -8.2144
  67   0.0000       0.038886         1.0581
  68   0.0000       0.066220         1.8019
  69   0.0000       0.118693         3.2298
  70   0.0000       0.121009         3.2928
  71   0.0000       0.129483         3.5234

MULLIKEN ATOMIC CHARGES
-----------------------
   0 S :    0.110889
   1 C :   -0.128452
   2 C :   -0.038030
   3 C :    0.013742
   4 C :   -0.175759
   5 H :    0.012321
   6 C :    0.095942
   7 H :    0.035197
   8 H :    0.009262
   9 C :   -0.108356
  10 H :    0.034477
  11 H :    0.018080
  12 C :   -0.028245
  13 H :    0.024950
  14 H :    0.037592
  15 H :    0.023755
  16 S :    0.122052
  17 C :   -0.096735
  18 C :   -0.033107
  19 C :   -0.029911
  20 C :   -0.174814
  21 H :    0.013262
  22 C :    0.057042
  23 H :    0.036809
  24 H :    0.050537
  25 C :   -0.024445
  26 H :    0.033543
  27 H :    0.019379
  28 C :   -0.090864
  29 H :    0.040258
  30 H :    0.033944
  31 H :    0.018864
  32 H :    0.029618
  33 H :    0.057201
Sum of atomic charges:   -0.0000000

LOEWDIN ATOMIC CHARGES
----------------------
   0 S :    0.412344
   1 C :   -0.177651
   2 C :   -0.058436
   3 C :   -0.074096
   4 C :   -0.206691
   5 H :    0.032784
   6 C :   -0.015443
   7 H :    0.032843
   8 H :    0.017593
   9 C :   -0.044463
  10 H :    0.025392
  11 H :    0.016758
  12 C :   -0.066917
  13 H :    0.021455
  14 H :    0.032105
  15 H :    0.023756
  16 S :    0.416751
  17 C :   -0.177998
  18 C :   -0.072586
  19 C :   -0.058635
  20 C :   -0.213510
  21 H :    0.031196
  22 C :   -0.029508
  23 H :    0.032073
  24 H :    0.042248
  25 C :   -0.033791
  26 H :    0.026696
  27 H :    0.018714
  28 C :   -0.067466
  29 H :    0.025872
  30 H :    0.027732
  31 H :    0.012136
  32 H :    0.016806
  33 H :    0.031937

  Mayer bond orders larger than 0.100000
B(  0-S ,  1-C ) :   1.1268 B(  0-S ,  4-C ) :   1.1804 B(  1-C ,  2-C ) :   1.6028
B(  1-C , 32-H ) :   0.9875 B(  2-C ,  3-C ) :   1.2224 B(  2-C ,  6-C ) :   1.0206
B(  3-C ,  4-C ) :   1.5765 B(  3-C ,  5-H ) :   0.9960 B(  4-C , 20-C ) :   0.9961
B(  6-C ,  7-H ) :   0.9451 B(  6-C ,  8-H ) :   0.9446 B(  6-C ,  9-C ) :   1.0520
B(  9-C , 10-H ) :   0.9499 B(  9-C , 11-H ) :   0.9620 B(  9-C , 12-C ) :   1.0787
B( 12-C , 13-H ) :   0.9731 B( 12-C , 14-H ) :   0.9740 B( 12-C , 15-H ) :   0.9745
B( 16-S , 17-C ) :   1.1617 B( 16-S , 20-C ) :   1.1441 B( 17-C , 18-C ) :   1.6079
B( 17-C , 33-H ) :   0.9641 B( 18-C , 19-C ) :   1.2554 B( 18-C , 21-H ) :   0.9955
B( 19-C , 20-C ) :   1.6024 B( 19-C , 22-C ) :   1.0222 B( 22-C , 23-H ) :   0.9311
B( 22-C , 24-H ) :   0.9389 B( 22-C , 25-C ) :   1.0634 B( 25-C , 26-H ) :   0.9551
B( 25-C , 27-H ) :   0.9627 B( 25-C , 28-C ) :   1.0678 B( 28-C , 29-H ) :   0.9766
B( 28-C , 30-H ) :   0.9758 B( 28-C , 31-H ) :   0.9758

Dispersion correction           -0.014663108
FINAL SINGLE POINT ENERGY     -1339.869626507193

DIPOLE MOMENT
-------------
                                X             Y             Z
Electronic contribution:    -28.58220       4.92807      -6.97322
Nuclear contribution   :     29.00717      -4.82047       7.16246
                        -----------------------------------------
Total Dipole Moment    :      0.42497       0.10761       0.18924
                        -----------------------------------------
Magnitude (a.u.)       :      0.47748
Magnitude (Debye)      :      1.21367

Rotational constants in cm-1:     0.018247     0.008969     0.006985
Rotational constants in MHz :   547.020604   268.878347   209.419221

                             ****ORCA TERMINATED NORMALLY****
TOTAL RUN TIME: 0 days 0 hours 0 minutes 33 seconds 826 msec
