                         Program Version 4.2.1 -  RELEASE  -
|  1> ! wB97X-D3 SP def2-SVP
|  2> %pal
|  3> nprocs 16
|  4> end
|  5>
|  6> * xyz 0 1
|  7> S 	 -24.9639 	 -10.1874 	 87.3286
|  8> C 	 -26.5464 	 -10.7553 	 87.7754
|  9> C 	 -27.3838 	 -9.68813 	 88.0867
| 10> C 	 -26.6467 	 -8.48602 	 88.1992
| 11> C 	 -25.3102 	 -8.62653 	 88.0096
| 12> H 	 -27.0544 	 -7.5003 	 88.4793
| 13> C 	 -28.8874 	 -9.60837 	 88.1463
| 14> H 	 -29.1619 	 -8.61661 	 88.0943
| 15> H 	 -29.1454 	 -9.9192 	 89.0962
| 16> C 	 -29.7362 	 -10.354 	 87.1403
| 17> H 	 -29.4569 	 -11.3916 	 87.2245
| 18> H 	 -30.7563 	 -10.3359 	 87.3664
| 19> C 	 -29.6272 	 -9.69974 	 85.7377
| 20> H 	 -30.0776 	 -10.3417 	 85.0302
| 21> H 	 -30.0108 	 -8.62653 	 85.5761
| 22> H 	 -28.6542 	 -9.66897 	 85.2432
| 23> S 	 -22.8414 	 -8.1046 	 89.3423
| 24> C 	 -22.1038 	 -6.49917 	 89.2318
| 25> C 	 -22.944 	 -5.69094 	 88.5287
| 26> C 	 -24.161 	 -6.27124 	 87.932
| 27> C 	 -24.258 	 -7.62076 	 88.2715
| 28> H 	 -22.6756 	 -4.60224 	 88.3204
| 29> C 	 -25.1252 	 -5.37551 	 87.1434
| 30> H 	 -24.8631 	 -4.27458 	 87.212
| 31> H 	 -26.0664 	 -5.50963 	 87.7736
| 32> C 	 -25.2042 	 -5.82585 	 85.7513
| 33> H 	 -25.2521 	 -6.90955 	 85.5107
| 34> H 	 -24.2683 	 -5.58528 	 85.2899
| 35> C 	 -26.3842 	 -5.10757 	 85.1255
| 36> H 	 -26.5176 	 -5.40607 	 84.1324
| 37> H 	 -26.3839 	 -4.03954 	 85.2951
| 38> H 	 -27.2786 	 -5.43285 	 85.6071
| 39> H 	 -26.9255 	 -11.76 	 87.6152
| 40> H 	 -21.0694 	 -6.25878 	 89.6039
| 41> *
| 42>
| 43>                          ****END OF INPUT****

CARTESIAN COORDINATES (ANGSTROEM)
---------------------------------
  S    -24.963900  -10.187400   87.328600
  C    -26.546400  -10.755300   87.775400
  C    -27.383800   -9.688130   88.086700
  C    -26.646700   -8.486020   88.199200
  C    -25.310200   -8.626530   88.009600
  H    -27.054400   -7.500300   88.479300
  C    -28.887400   -9.608370   88.146300
  H    -29.161900   -8.616610   88.094300
  H    -29.145400   -9.919200   89.096200
  C    -29.736200  -10.354000   87.140300
  H    -29.456900  -11.391600   87.224500
  H    -30.756300  -10.335900   87.366400
  C    -29.627200   -9.699740   85.737700
  H    -30.077600  -10.341700   85.030200
  H    -30.010800   -8.626530   85.576100
  H    -28.654200   -9.668970   85.243200
  S    -22.841400   -8.104600   89.342300
  C    -22.103800   -6.499170   89.231800
  C    -22.944000   -5.690940   88.528700
  C    -24.161000   -6.271240   87.932000
  C    -24.258000   -7.620760   88.271500
  H    -22.675600   -4.602240   88.320400
  C    -25.125200   -5.375510   87.143400
  H    -24.863100   -4.274580   87.212000
  H    -26.066400   -5.509630   87.773600
  C    -25.204200   -5.825850   85.751300
  H    -25.252100   -6.909550   85.510700
  H    -24.268300   -5.585280   85.289900
  C    -26.384200   -5.107570   85.125500
  H    -26.517600   -5.406070   84.132400
  H    -26.383900   -4.039540   85.295100
  H    -27.278600   -5.432850   85.607100
  H    -26.925500  -11.760000   87.615200
  H    -21.069400   -6.258780   89.603900

 Total Charge           Charge          ....    0
 Multiplicity           Mult            ....    1
 Number of Electrons    NEL             ....  134
 Basis Dimension        Dim             ....  322

ORBITAL ENERGIES
----------------

  NO   OCC          E(Eh)            E(eV)
   0   2.0000     -88.966278     -2420.8955
   1   2.0000     -88.960022     -2420.7253
   2   2.0000     -10.334729      -281.2223
   3   2.0000     -10.325724      -280.9772
   4   2.0000     -10.322527      -280.8902
   5   2.0000     -10.314032      -280.6591
   6   2.0000     -10.309236      -280.5286
   7   2.0000     -10.302681      -280.3502
   8   2.0000     -10.299458      -280.2625
   9   2.0000     -10.298336      -280.2320
  10   2.0000     -10.290447      -280.0173
  11   2.0000     -10.285583      -279.8850
  12   2.0000     -10.279821      -279.7281
  13   2.0000     -10.279251      -279.7126
  14   2.0000     -10.276922      -279.6493
  15   2.0000     -10.266873      -279.3758
  16   2.0000      -8.081302      -219.9034
  17   2.0000      -8.073354      -219.6871
  18   2.0000      -6.039806      -164.3515
  19   2.0000      -6.035896      -164.2451
  20   2.0000      -6.032154      -164.1432
  21   2.0000      -6.031928      -164.1371
  22   2.0000      -6.028102      -164.0330
  23   2.0000      -6.023821      -163.9165
  24   2.0000      -1.005574       -27.3631
  25   2.0000      -0.975969       -26.5575
  26   2.0000      -0.920433       -25.0462
  27   2.0000      -0.917629       -24.9700
  28   2.0000      -0.864298       -23.5188
  29   2.0000      -0.851969       -23.1833
  30   2.0000      -0.842343       -22.9213
  31   2.0000      -0.809326       -22.0229
  32   2.0000      -0.785466       -21.3736
  33   2.0000      -0.774194       -21.0669
  34   2.0000      -0.717047       -19.5118
  35   2.0000      -0.708541       -19.2804
  36   2.0000      -0.689042       -18.7498
  37   2.0000      -0.654270       -17.8036
  38   2.0000      -0.638147       -17.3649
  39   2.0000      -0.612016       -16.6538
  40   2.0000      -0.594550       -16.1785
  41   2.0000      -0.576355       -15.6834
  42   2.0000      -0.566787       -15.4231
  43   2.0000      -0.560546       -15.2532
  44   2.0000      -0.540187       -14.6992
  45   2.0000      -0.532877       -14.5003
  46   2.0000      -0.515334       -14.0229
  47   2.0000      -0.508369       -13.8334
  48   2.0000      -0.500899       -13.6302
  49   2.0000      -0.495487       -13.4829
  50   2.0000      -0.489237       -13.3128
  51   2.0000      -0.480899       -13.0859
  52   2.0000      -0.478288       -13.0149
  53   2.0000      -0.466571       -12.6960
  54   2.0000      -0.456042       -12.4095
  55   2.0000      -0.453464       -12.3394
  56   2.0000      -0.441629       -12.0173
  57   2.0000      -0.435527       -11.8513
  58   2.0000      -0.428231       -11.6528
  59   2.0000      -0.427180       -11.6242
  60   2.0000      -0.420626       -11.4458
  61   2.0000      -0.414201       -11.2710
  62   2.0000      -0.405426       -11.0322
  63   2.0000      -0.343260        -9.3406
  64   2.0000      -0.327186        -8.9032
  65   2.0000      -0.322942        -8.7877
  66   2.0000      -0.296030        -8.0554
  67   0.0000       0.026157         0.7118
  68   0.0000       0.070982         1.9315
  69   0.0000       0.103908         2.8275
  70   0.0000       0.111907         3.0451
  71   0.0000       0.135853         3.6967

MULLIKEN ATOMIC CHARGES
-----------------------
   0 S :    0.122961
   1 C :   -0.127890
   2 C :   -0.096049
   3 C :    0.012055
   4 C :   -0.163958
   5 H :    0.015218
   6 C :    0.145277
   7 H :   -0.011321
   8 H :    0.011564
   9 C :   -0.018939
  10 H :    0.019803
  11 H :    0.017948
  12 C :   -0.082510
  13 H :    0.016444
  14 H :    0.045984
  15 H :    0.028771
  16 S :    0.080388
  17 C :   -0.109216
  18 C :   -0.052618
  19 C :   -0.031833
  20 C :   -0.159946
  21 H :    0.035221
  22 C :    0.027900
  23 H :    0.041064
  24 H :    0.041999
  25 C :   -0.075172
  26 H :    0.046923
  27 H :    0.018964
  28 C :    0.025978
  29 H :    0.016878
  30 H :    0.020771
  31 H :    0.006069
  32 H :    0.045750
  33 H :    0.085521
Sum of atomic charges:   -0.0000000

LOEWDIN ATOMIC CHARGES
----------------------
   0 S :    0.416755
   1 C :   -0.201576
   2 C :   -0.056435
   3 C :   -0.063172
   4 C :   -0.200170
   5 H :    0.033132
   6 C :   -0.021568
   7 H :    0.019402
   8 H :    0.025912
   9 C :   -0.027856
  10 H :    0.023348
  11 H :    0.022223
  12 C :   -0.079417
  13 H :    0.020062
  14 H :    0.036694
  15 H :    0.026789
  16 S :    0.353981
  17 C :   -0.188445
  18 C :   -0.087070
  19 C :   -0.050188
  20 C :   -0.175556
  21 H :    0.035878
  22 C :   -0.034058
  23 H :    0.040185
  24 H :    0.036538
  25 C :   -0.045966
  26 H :    0.034521
  27 H :    0.024031
  28 C :   -0.054730
  29 H :    0.017915
  30 H :    0.023665
  31 H :    0.021550
  32 H :    0.026429
  33 H :    0.047197

  Mayer bond orders larger than 0.100000
B(  0-S ,  1-C ) :   1.1404 B(  0-S ,  4-C ) :   1.1556 B(  1-C ,  2-C ) :   1.5945
B(  1-C , 32-H ) :   0.9697 B(  2-C ,  3-C ) :   1.2588 B(  2-C ,  6-C ) :   1.0061
B(  3-C ,  4-C ) :   1.5800 B(  3-C ,  5-H ) :   0.9884 B(  4-C , 20-C ) :   1.0344
B(  6-C ,  7-H ) :   0.9384 B(  6-C ,  8-H ) :   0.9165 B(  6-C ,  9-C ) :   1.0952
B(  9-C , 10-H ) :   0.9522 B(  9-C , 11-H ) :   0.9492 B(  9-C , 12-C ) :   1.0685
B( 12-C , 13-H ) :   0.9723 B( 12-C , 14-H ) :   0.9742 B( 12-C , 15-H ) :   0.9753
B( 16-S , 17-C ) :   1.1270 B( 16-S , 20-C ) :   1.1151 B( 17-C , 18-C ) :   1.6415
B( 17-C , 33-H ) :   0.9603 B( 18-C , 19-C ) :   1.2206 B( 18-C , 21-H ) :   0.9712
B( 19-C , 20-C ) :   1.6249 B( 19-C , 22-C ) :   1.0115 B( 22-C , 23-H ) :   0.9356
B( 22-C , 24-H ) :   0.9413 B( 22-C , 25-C ) :   1.0578 B( 25-C , 26-H ) :   0.9583
B( 25-C , 27-H ) :   0.9444 B( 25-C , 28-C ) :   1.0842 B( 28-C , 29-H ) :   0.9691
B( 28-C , 30-H ) :   0.9676 B( 28-C , 31-H ) :   0.9719

Dispersion correction           -0.014781006
FINAL SINGLE POINT ENERGY     -1339.848280604210

DIPOLE MOMENT
-------------
                                X             Y             Z
Electronic contribution:     23.64000      -9.48607      14.32170
Nuclear contribution   :    -24.23764       9.88213     -14.61866
                        -----------------------------------------
Total Dipole Moment    :     -0.59764       0.39607      -0.29697
                        -----------------------------------------
Magnitude (a.u.)       :      0.77604
Magnitude (Debye)      :      1.97253

Rotational constants in cm-1:     0.019740     0.009074     0.006930
Rotational constants in MHz :   591.804594   272.018314   207.766479

                             ****ORCA TERMINATED NORMALLY****
TOTAL RUN TIME: 0 days 0 hours 0 minutes 34 seconds 404 msec
