                         Program Version 4.2.1 -  RELEASE  -
|  1> ! wB97X-D3 SP def2-SVP
|  2> %pal
|  3> nprocs 16
|  4> end
|  5>
|  6> * xyz 0 1
|  7> S 	 56.7199 	 15.435 	 61.3876
|  8> C 	 58.3748 	 15.3814 	 61.8392
|  9> C 	 58.9183 	 14.1309 	 61.5238
| 10> C 	 58.0023 	 13.3546 	 60.7265
| 11> C 	 56.7949 	 13.9108 	 60.4782
| 12> H 	 58.1237 	 12.3754 	 60.3074
| 13> C 	 60.3817 	 13.7089 	 61.8536
| 14> H 	 61.0146 	 14.0743 	 60.9892
| 15> H 	 60.4682 	 12.5728 	 61.8552
| 16> C 	 60.9504 	 14.3067 	 63.18
| 17> H 	 61.9869 	 14.3426 	 63.0676
| 18> H 	 60.6166 	 15.284 	 63.4135
| 19> C 	 60.5079 	 13.5241 	 64.3971
| 20> H 	 59.4048 	 13.4485 	 64.5417
| 21> H 	 60.9601 	 12.566 	 64.4163
| 22> H 	 60.8851 	 13.9788 	 65.3183
| 23> S 	 54.1801 	 13.2267 	 60.4451
| 24> C 	 53.4815 	 12.6718 	 59.0153
| 25> C 	 54.3216 	 12.8369 	 57.9624
| 26> C 	 55.5983 	 13.3959 	 58.246
| 27> C 	 55.7314 	 13.4942 	 59.617
| 28> H 	 54.002 	 12.5617 	 56.9836
| 29> C 	 56.6195 	 13.9003 	 57.1791
| 30> H 	 57.384 	 13.1348 	 57.122
| 31> H 	 57.2405 	 14.6955 	 57.4936
| 32> C 	 56.1459 	 14.2359 	 55.7524
| 33> H 	 55.3878 	 13.4934 	 55.4927
| 34> H 	 56.9766 	 14.0483 	 54.9729
| 35> C 	 55.6191 	 15.6601 	 55.4998
| 36> H 	 55.2852 	 15.8359 	 54.4481
| 37> H 	 56.4351 	 16.4405 	 55.6309
| 38> H 	 54.8534 	 15.8315 	 56.2587
| 39> H 	 58.9043 	 16.2266 	 62.3918
| 40> H 	 52.4141 	 12.6401 	 58.7732
| 41> *
| 42>
| 43>                          ****END OF INPUT****

CARTESIAN COORDINATES (ANGSTROEM)
---------------------------------
  S     56.719900   15.435000   61.387600
  C     58.374800   15.381400   61.839200
  C     58.918300   14.130900   61.523800
  C     58.002300   13.354600   60.726500
  C     56.794900   13.910800   60.478200
  H     58.123700   12.375400   60.307400
  C     60.381700   13.708900   61.853600
  H     61.014600   14.074300   60.989200
  H     60.468200   12.572800   61.855200
  C     60.950400   14.306700   63.180000
  H     61.986900   14.342600   63.067600
  H     60.616600   15.284000   63.413500
  C     60.507900   13.524100   64.397100
  H     59.404800   13.448500   64.541700
  H     60.960100   12.566000   64.416300
  H     60.885100   13.978800   65.318300
  S     54.180100   13.226700   60.445100
  C     53.481500   12.671800   59.015300
  C     54.321600   12.836900   57.962400
  C     55.598300   13.395900   58.246000
  C     55.731400   13.494200   59.617000
  H     54.002000   12.561700   56.983600
  C     56.619500   13.900300   57.179100
  H     57.384000   13.134800   57.122000
  H     57.240500   14.695500   57.493600
  C     56.145900   14.235900   55.752400
  H     55.387800   13.493400   55.492700
  H     56.976600   14.048300   54.972900
  C     55.619100   15.660100   55.499800
  H     55.285200   15.835900   54.448100
  H     56.435100   16.440500   55.630900
  H     54.853400   15.831500   56.258700
  H     58.904300   16.226600   62.391800
  H     52.414100   12.640100   58.773200

 Total Charge           Charge          ....    0
 Multiplicity           Mult            ....    1
 Number of Electrons    NEL             ....  134
 Basis Dimension        Dim             ....  322

ORBITAL ENERGIES
----------------

  NO   OCC          E(Eh)            E(eV)
   0   2.0000     -88.962643     -2420.7966
   1   2.0000     -88.959459     -2420.7099
   2   2.0000     -10.324998      -280.9575
   3   2.0000     -10.322381      -280.8863
   4   2.0000     -10.319453      -280.8066
   5   2.0000     -10.310709      -280.5686
   6   2.0000     -10.309228      -280.5284
   7   2.0000     -10.306920      -280.4655
   8   2.0000     -10.306132      -280.4441
   9   2.0000     -10.296004      -280.1685
  10   2.0000     -10.294608      -280.1305
  11   2.0000     -10.291398      -280.0432
  12   2.0000     -10.287623      -279.9404
  13   2.0000     -10.285452      -279.8814
  14   2.0000     -10.280964      -279.7593
  15   2.0000     -10.272454      -279.5277
  16   2.0000      -8.078540      -219.8282
  17   2.0000      -8.074751      -219.7252
  18   2.0000      -6.036954      -164.2739
  19   2.0000      -6.033231      -164.1725
  20   2.0000      -6.032919      -164.1641
  21   2.0000      -6.029284      -164.0652
  22   2.0000      -6.029148      -164.0615
  23   2.0000      -6.025516      -163.9626
  24   2.0000      -1.011511       -27.5246
  25   2.0000      -0.987927       -26.8829
  26   2.0000      -0.907754       -24.7012
  27   2.0000      -0.905950       -24.6521
  28   2.0000      -0.873687       -23.7742
  29   2.0000      -0.850345       -23.1391
  30   2.0000      -0.844573       -22.9820
  31   2.0000      -0.815096       -22.1799
  32   2.0000      -0.786755       -21.4087
  33   2.0000      -0.769470       -20.9383
  34   2.0000      -0.705494       -19.1975
  35   2.0000      -0.702094       -19.1050
  36   2.0000      -0.694292       -18.8927
  37   2.0000      -0.653425       -17.7806
  38   2.0000      -0.642477       -17.4827
  39   2.0000      -0.612537       -16.6680
  40   2.0000      -0.600611       -16.3434
  41   2.0000      -0.577628       -15.7181
  42   2.0000      -0.554216       -15.0810
  43   2.0000      -0.548325       -14.9207
  44   2.0000      -0.535131       -14.5617
  45   2.0000      -0.530121       -14.4253
  46   2.0000      -0.514164       -13.9911
  47   2.0000      -0.511787       -13.9264
  48   2.0000      -0.508747       -13.8437
  49   2.0000      -0.493714       -13.4346
  50   2.0000      -0.489705       -13.3255
  51   2.0000      -0.478739       -13.0272
  52   2.0000      -0.471452       -12.8289
  53   2.0000      -0.466771       -12.7015
  54   2.0000      -0.461649       -12.5621
  55   2.0000      -0.452929       -12.3248
  56   2.0000      -0.439223       -11.9519
  57   2.0000      -0.432457       -11.7678
  58   2.0000      -0.431240       -11.7346
  59   2.0000      -0.424887       -11.5618
  60   2.0000      -0.421487       -11.4693
  61   2.0000      -0.415158       -11.2970
  62   2.0000      -0.411849       -11.2070
  63   2.0000      -0.340392        -9.2625
  64   2.0000      -0.331280        -9.0146
  65   2.0000      -0.324936        -8.8420
  66   2.0000      -0.297084        -8.0841
  67   0.0000       0.034805         0.9471
  68   0.0000       0.059236         1.6119
  69   0.0000       0.114590         3.1182
  70   0.0000       0.125654         3.4192
  71   0.0000       0.136006         3.7009

MULLIKEN ATOMIC CHARGES
-----------------------
   0 S :    0.106485
   1 C :   -0.163741
   2 C :   -0.080119
   3 C :    0.045452
   4 C :   -0.159256
   5 H :    0.001878
   6 C :    0.013615
   7 H :    0.054110
   8 H :    0.040859
   9 C :   -0.020522
  10 H :    0.015178
  11 H :    0.011502
  12 C :   -0.055818
  13 H :    0.048230
  14 H :    0.017187
  15 H :    0.022970
  16 S :    0.109214
  17 C :   -0.058003
  18 C :   -0.082286
  19 C :    0.020000
  20 C :   -0.212918
  21 H :    0.004678
  22 C :    0.109742
  23 H :    0.026082
  24 H :    0.017594
  25 C :   -0.110893
  26 H :    0.026823
  27 H :    0.037335
  28 C :   -0.065667
  29 H :    0.046018
  30 H :    0.036446
  31 H :    0.044060
  32 H :    0.085973
  33 H :    0.067792
Sum of atomic charges:    0.0000000

LOEWDIN ATOMIC CHARGES
----------------------
   0 S :    0.399474
   1 C :   -0.217072
   2 C :   -0.071480
   3 C :   -0.059681
   4 C :   -0.196554
   5 H :    0.031234
   6 C :   -0.034175
   7 H :    0.039374
   8 H :    0.036404
   9 C :   -0.035419
  10 H :    0.018555
  11 H :    0.018139
  12 C :   -0.064173
  13 H :    0.033288
  14 H :    0.016256
  15 H :    0.025325
  16 S :    0.421488
  17 C :   -0.213709
  18 C :   -0.075786
  19 C :   -0.043191
  20 C :   -0.192958
  21 H :    0.022241
  22 C :   -0.030230
  23 H :    0.038963
  24 H :    0.029272
  25 C :   -0.049746
  26 H :    0.019989
  27 H :    0.033820
  28 C :   -0.073409
  29 H :    0.031697
  30 H :    0.029743
  31 H :    0.026964
  32 H :    0.044985
  33 H :    0.040374

  Mayer bond orders larger than 0.100000
B(  0-S ,  1-C ) :   1.1596 B(  0-S ,  4-C ) :   1.1253 B(  1-C ,  2-C ) :   1.5947
B(  1-C , 32-H ) :   0.9571 B(  2-C ,  3-C ) :   1.2176 B(  2-C ,  6-C ) :   1.0056
B(  3-C ,  4-C ) :   1.6225 B(  3-C ,  5-H ) :   1.0021 B(  4-C , 20-C ) :   1.0350
B(  6-C ,  7-H ) :   0.9423 B(  6-C ,  8-H ) :   0.9515 B(  6-C ,  9-C ) :   1.0644
B(  9-C , 10-H ) :   0.9521 B(  9-C , 11-H ) :   0.9576 B(  9-C , 12-C ) :   1.0838
B( 12-C , 13-H ) :   0.9758 B( 12-C , 14-H ) :   0.9743 B( 12-C , 15-H ) :   0.9722
B( 16-S , 17-C ) :   1.1611 B( 16-S , 20-C ) :   1.1513 B( 17-C , 18-C ) :   1.6209
B( 17-C , 33-H ) :   0.9537 B( 18-C , 19-C ) :   1.2481 B( 18-C , 21-H ) :   0.9851
B( 19-C , 20-C ) :   1.5889 B( 19-C , 22-C ) :   1.0178 B( 22-C , 23-H ) :   0.9228
B( 22-C , 24-H ) :   0.9387 B( 22-C , 25-C ) :   1.0667 B( 25-C , 26-H ) :   0.9544
B( 25-C , 27-H ) :   0.9539 B( 25-C , 28-C ) :   1.0767 B( 28-C , 29-H ) :   0.9735
B( 28-C , 30-H ) :   0.9728 B( 28-C , 31-H ) :   0.9774

Dispersion correction           -0.013729375
FINAL SINGLE POINT ENERGY     -1339.863387700156

DIPOLE MOMENT
-------------
                                X             Y             Z
Electronic contribution:    -17.68753      -1.09558       7.07605
Nuclear contribution   :     18.21157       1.10564      -7.47654
                        -----------------------------------------
Total Dipole Moment    :      0.52403       0.01006      -0.40049
                        -----------------------------------------
Magnitude (a.u.)       :      0.65962
Magnitude (Debye)      :      1.67663

Rotational constants in cm-1:     0.023236     0.007060     0.006166
Rotational constants in MHz :   696.587677   211.661078   184.865714

                             ****ORCA TERMINATED NORMALLY****
TOTAL RUN TIME: 0 days 0 hours 0 minutes 28 seconds 852 msec
