                         Program Version 4.2.1 -  RELEASE  -
|  1> ! wB97X-D3 SP def2-SVP
|  2> %pal
|  3> nprocs 16
|  4> end
|  5>
|  6> * xyz 0 1
|  7> S 	 -10.8164 	 60.4182 	 54.1614
|  8> C 	 -9.48395 	 59.3364 	 54.6473
|  9> C 	 -8.68854 	 59.8424 	 55.6246
| 10> C 	 -9.21566 	 61.1095 	 56.0413
| 11> C 	 -10.3169 	 61.6003 	 55.3584
| 12> H 	 -8.77926 	 61.7562 	 56.8532
| 13> C 	 -7.40682 	 59.2764 	 56.1921
| 14> H 	 -7.55066 	 58.2554 	 56.5534
| 15> H 	 -7.1397 	 59.8644 	 57.033
| 16> C 	 -6.11354 	 59.1568 	 55.3352
| 17> H 	 -5.48702 	 58.4565 	 55.9198
| 18> H 	 -6.36559 	 58.6434 	 54.4247
| 19> C 	 -5.27698 	 60.4573 	 55.0051
| 20> H 	 -5.85349 	 61.303 	 54.6642
| 21> H 	 -4.71507 	 60.7786 	 55.8665
| 22> H 	 -4.53324 	 60.308 	 54.2375
| 23> S 	 -11.6961 	 63.4055 	 56.9609
| 24> C 	 -11.7582 	 65.124 	 56.6964
| 25> C 	 -11.4613 	 65.3592 	 55.3715
| 26> C 	 -10.9347 	 64.2419 	 54.6168
| 27> C 	 -10.7854 	 63.0464 	 55.4913
| 28> H 	 -11.5443 	 66.4379 	 55.0455
| 29> C 	 -10.5385 	 64.2856 	 53.1795
| 30> H 	 -11.501 	 64.3661 	 52.6507
| 31> H 	 -10.0773 	 63.324 	 52.8751
| 32> C 	 -9.65684 	 65.4718 	 52.7923
| 33> H 	 -10.1651 	 66.318 	 53.193
| 34> H 	 -9.67573 	 65.6317 	 51.6788
| 35> C 	 -8.24618 	 65.1777 	 53.2191
| 36> H 	 -7.52813 	 65.9928 	 53.2336
| 37> H 	 -7.79098 	 64.3236 	 52.6405
| 38> H 	 -8.16138 	 64.8572 	 54.2714
| 39> H 	 -9.27852 	 58.4505 	 54.148
| 40> H 	 -11.8525 	 65.9299 	 57.4236
| 41> *
| 42>
| 43>                          ****END OF INPUT****

CARTESIAN COORDINATES (ANGSTROEM)
---------------------------------
  S    -10.816400   60.418200   54.161400
  C     -9.483950   59.336400   54.647300
  C     -8.688540   59.842400   55.624600
  C     -9.215660   61.109500   56.041300
  C    -10.316900   61.600300   55.358400
  H     -8.779260   61.756200   56.853200
  C     -7.406820   59.276400   56.192100
  H     -7.550660   58.255400   56.553400
  H     -7.139700   59.864400   57.033000
  C     -6.113540   59.156800   55.335200
  H     -5.487020   58.456500   55.919800
  H     -6.365590   58.643400   54.424700
  C     -5.276980   60.457300   55.005100
  H     -5.853490   61.303000   54.664200
  H     -4.715070   60.778600   55.866500
  H     -4.533240   60.308000   54.237500
  S    -11.696100   63.405500   56.960900
  C    -11.758200   65.124000   56.696400
  C    -11.461300   65.359200   55.371500
  C    -10.934700   64.241900   54.616800
  C    -10.785400   63.046400   55.491300
  H    -11.544300   66.437900   55.045500
  C    -10.538500   64.285600   53.179500
  H    -11.501000   64.366100   52.650700
  H    -10.077300   63.324000   52.875100
  C     -9.656840   65.471800   52.792300
  H    -10.165100   66.318000   53.193000
  H     -9.675730   65.631700   51.678800
  C     -8.246180   65.177700   53.219100
  H     -7.528130   65.992800   53.233600
  H     -7.790980   64.323600   52.640500
  H     -8.161380   64.857200   54.271400
  H     -9.278520   58.450500   54.148000
  H    -11.852500   65.929900   57.423600

 Total Charge           Charge          ....    0
 Multiplicity           Mult            ....    1
 Number of Electrons    NEL             ....  134
 Basis Dimension        Dim             ....  322

ORBITAL ENERGIES
----------------

  NO   OCC          E(Eh)            E(eV)
   0   2.0000     -88.970273     -2421.0042
   1   2.0000     -88.961218     -2420.7578
   2   2.0000     -10.341719      -281.4125
   3   2.0000     -10.336700      -281.2759
   4   2.0000     -10.317378      -280.7501
   5   2.0000     -10.316131      -280.7162
   6   2.0000     -10.314452      -280.6705
   7   2.0000     -10.303319      -280.3676
   8   2.0000     -10.300194      -280.2825
   9   2.0000     -10.299990      -280.2770
  10   2.0000     -10.295146      -280.1452
  11   2.0000     -10.294352      -280.1236
  12   2.0000     -10.289890      -280.0021
  13   2.0000     -10.285466      -279.8817
  14   2.0000     -10.277661      -279.6694
  15   2.0000     -10.276132      -279.6278
  16   2.0000      -8.084105      -219.9797
  17   2.0000      -8.075645      -219.7495
  18   2.0000      -6.042671      -164.4295
  19   2.0000      -6.038777      -164.3235
  20   2.0000      -6.034807      -164.2155
  21   2.0000      -6.034157      -164.1978
  22   2.0000      -6.030073      -164.0866
  23   2.0000      -6.026518      -163.9899
  24   2.0000      -0.998959       -27.1831
  25   2.0000      -0.980427       -26.6788
  26   2.0000      -0.913583       -24.8599
  27   2.0000      -0.907371       -24.6908
  28   2.0000      -0.863100       -23.4861
  29   2.0000      -0.845875       -23.0174
  30   2.0000      -0.839078       -22.8325
  31   2.0000      -0.812495       -22.1091
  32   2.0000      -0.789555       -21.4849
  33   2.0000      -0.769158       -20.9298
  34   2.0000      -0.711379       -19.3576
  35   2.0000      -0.704632       -19.1740
  36   2.0000      -0.692968       -18.8566
  37   2.0000      -0.647624       -17.6228
  38   2.0000      -0.634418       -17.2634
  39   2.0000      -0.611972       -16.6526
  40   2.0000      -0.594945       -16.1893
  41   2.0000      -0.577676       -15.7194
  42   2.0000      -0.555287       -15.1101
  43   2.0000      -0.547304       -14.8929
  44   2.0000      -0.538903       -14.6643
  45   2.0000      -0.534557       -14.5460
  46   2.0000      -0.517441       -14.0803
  47   2.0000      -0.510410       -13.8890
  48   2.0000      -0.499085       -13.5808
  49   2.0000      -0.493436       -13.4271
  50   2.0000      -0.489507       -13.3202
  51   2.0000      -0.476470       -12.9654
  52   2.0000      -0.471088       -12.8190
  53   2.0000      -0.466262       -12.6876
  54   2.0000      -0.458969       -12.4892
  55   2.0000      -0.444307       -12.0902
  56   2.0000      -0.438402       -11.9295
  57   2.0000      -0.436869       -11.8878
  58   2.0000      -0.427994       -11.6463
  59   2.0000      -0.425651       -11.5825
  60   2.0000      -0.425377       -11.5751
  61   2.0000      -0.422554       -11.4983
  62   2.0000      -0.406053       -11.0493
  63   2.0000      -0.334849        -9.1117
  64   2.0000      -0.333372        -9.0715
  65   2.0000      -0.323207        -8.7949
  66   2.0000      -0.298032        -8.1099
  67   0.0000       0.025035         0.6812
  68   0.0000       0.062301         1.6953
  69   0.0000       0.104668         2.8482
  70   0.0000       0.118464         3.2236
  71   0.0000       0.123121         3.3503

MULLIKEN ATOMIC CHARGES
-----------------------
   0 S :    0.112807
   1 C :   -0.112421
   2 C :   -0.051595
   3 C :    0.004602
   4 C :   -0.138912
   5 H :    0.035149
   6 C :    0.091658
   7 H :    0.032959
   8 H :    0.007592
   9 C :   -0.079875
  10 H :    0.033211
  11 H :    0.022406
  12 C :   -0.042412
  13 H :    0.036613
  14 H :    0.025668
  15 H :    0.029366
  16 S :    0.098897
  17 C :   -0.101275
  18 C :   -0.075759
  19 C :   -0.041004
  20 C :   -0.179798
  21 H :    0.045113
  22 C :    0.050058
  23 H :    0.042102
  24 H :    0.022950
  25 C :   -0.041104
  26 H :    0.015843
  27 H :    0.034066
  28 C :   -0.058890
  29 H :    0.027117
  30 H :    0.036398
  31 H :    0.030126
  32 H :    0.021207
  33 H :    0.067136
Sum of atomic charges:   -0.0000000

LOEWDIN ATOMIC CHARGES
----------------------
   0 S :    0.392311
   1 C :   -0.163044
   2 C :   -0.067725
   3 C :   -0.054910
   4 C :   -0.213091
   5 H :    0.039469
   6 C :   -0.028448
   7 H :    0.038062
   8 H :    0.025585
   9 C :   -0.033506
  10 H :    0.029126
  11 H :    0.017678
  12 C :   -0.068246
  13 H :    0.025938
  14 H :    0.023113
  15 H :    0.026871
  16 S :    0.407678
  17 C :   -0.198981
  18 C :   -0.087530
  19 C :   -0.051635
  20 C :   -0.196353
  21 H :    0.040005
  22 C :   -0.037238
  23 H :    0.039691
  24 H :    0.029579
  25 C :   -0.042155
  26 H :    0.017093
  27 H :    0.030623
  28 C :   -0.074501
  29 H :    0.021932
  30 H :    0.033452
  31 H :    0.028398
  32 H :    0.013216
  33 H :    0.037543

  Mayer bond orders larger than 0.100000
B(  0-S ,  1-C ) :   1.1430 B(  0-S ,  4-C ) :   1.1230 B(  1-C ,  2-C ) :   1.6199
B(  1-C , 32-H ) :   0.9737 B(  2-C ,  3-C ) :   1.2412 B(  2-C ,  6-C ) :   1.0239
B(  3-C ,  4-C ) :   1.5967 B(  3-C ,  5-H ) :   0.9772 B(  4-C , 20-C ) :   1.0129
B(  6-C ,  7-H ) :   0.9350 B(  6-C ,  8-H ) :   0.9387 B(  6-C ,  9-C ) :   1.0714
B(  9-C , 10-H ) :   0.9582 B(  9-C , 11-H ) :   0.9608 B(  9-C , 12-C ) :   1.0659
B( 12-C , 13-H ) :   0.9801 B( 12-C , 14-H ) :   0.9762 B( 12-C , 15-H ) :   0.9757
B( 16-S , 17-C ) :   1.1636 B( 16-S , 20-C ) :   1.1628 B( 17-C , 18-C ) :   1.5945
B( 17-C , 20-C ) :   0.1125 B( 17-C , 33-H ) :   0.9653 B( 18-C , 19-C ) :   1.2540
B( 18-C , 21-H ) :   0.9747 B( 19-C , 20-C ) :   1.5113 B( 19-C , 22-C ) :   1.0548
B( 22-C , 23-H ) :   0.9227 B( 22-C , 24-H ) :   0.9381 B( 22-C , 25-C ) :   1.0724
B( 25-C , 26-H ) :   0.9550 B( 25-C , 27-H ) :   0.9526 B( 25-C , 28-C ) :   1.0687
B( 28-C , 29-H ) :   0.9739 B( 28-C , 30-H ) :   0.9710 B( 28-C , 31-H ) :   0.9742

Dispersion correction           -0.014257666
FINAL SINGLE POINT ENERGY     -1339.858981488959

DIPOLE MOMENT
-------------
                                X             Y             Z
Electronic contribution:    -24.52520      -3.68418       8.30512
Nuclear contribution   :     25.17492       3.78839      -8.44750
                        -----------------------------------------
Total Dipole Moment    :      0.64972       0.10421      -0.14238
                        -----------------------------------------
Magnitude (a.u.)       :      0.67325
Magnitude (Debye)      :      1.71127

Rotational constants in cm-1:     0.018213     0.008313     0.007178
Rotational constants in MHz :   546.024641   249.214410   215.198288

                             ****ORCA TERMINATED NORMALLY****
TOTAL RUN TIME: 0 days 0 hours 0 minutes 32 seconds 857 msec
