                         Program Version 4.2.1 -  RELEASE  -
|  1> ! wB97X-D3 SP def2-SVP
|  2> %pal
|  3> nprocs 16
|  4> end
|  5>
|  6> * xyz 0 1
|  7> S 	 -102.709 	 57.9488 	 122.705
|  8> C 	 -102.951 	 56.4038 	 121.857
|  9> C 	 -102.29 	 55.3533 	 122.384
| 10> C 	 -101.622 	 55.7943 	 123.54
| 11> C 	 -101.592 	 57.1474 	 123.77
| 12> H 	 -101.166 	 55.0672 	 124.191
| 13> C 	 -102.198 	 53.9374 	 121.933
| 14> H 	 -101.148 	 53.7698 	 121.738
| 15> H 	 -102.673 	 53.8263 	 121.004
| 16> C 	 -102.675 	 52.9215 	 122.966
| 17> H 	 -102.09 	 52.9558 	 123.911
| 18> H 	 -103.713 	 53.238 	 123.131
| 19> C 	 -102.656 	 51.477 	 122.472
| 20> H 	 -103.346 	 51.4362 	 121.63
| 21> H 	 -101.679 	 51.1536 	 122.028
| 22> H 	 -102.936 	 50.7102 	 123.208
| 23> S 	 -102.121 	 58.7844 	 125.915
| 24> C 	 -100.852 	 59.1235 	 127.038
| 25> C 	 -99.6998 	 58.3323 	 126.779
| 26> C 	 -99.8418 	 57.6319 	 125.587
| 27> C 	 -101.064 	 57.8221 	 124.94
| 28> H 	 -98.9094 	 58.3773 	 127.445
| 29> C 	 -98.6289 	 56.8735 	 125.097
| 30> H 	 -97.8145 	 57.5662 	 125.067
| 31> H 	 -98.8738 	 56.5293 	 124.104
| 32> C 	 -97.938 	 55.8158 	 125.874
| 33> H 	 -97.7985 	 56.1501 	 126.888
| 34> H 	 -96.9799 	 55.6457 	 125.407
| 35> C 	 -98.6721 	 54.4217 	 125.904
| 36> H 	 -99.5916 	 54.4835 	 126.487
| 37> H 	 -98.058 	 53.5625 	 126.317
| 38> H 	 -98.9328 	 54.1859 	 124.829
| 39> H 	 -103.476 	 56.3008 	 120.928
| 40> H 	 -100.889 	 59.7028 	 127.975
| 41> *
| 42>
| 43>                          ****END OF INPUT****

CARTESIAN COORDINATES (ANGSTROEM)
---------------------------------
  S    -102.709000   57.948800  122.705000
  C    -102.951000   56.403800  121.857000
  C    -102.290000   55.353300  122.384000
  C    -101.622000   55.794300  123.540000
  C    -101.592000   57.147400  123.770000
  H    -101.166000   55.067200  124.191000
  C    -102.198000   53.937400  121.933000
  H    -101.148000   53.769800  121.738000
  H    -102.673000   53.826300  121.004000
  C    -102.675000   52.921500  122.966000
  H    -102.090000   52.955800  123.911000
  H    -103.713000   53.238000  123.131000
  C    -102.656000   51.477000  122.472000
  H    -103.346000   51.436200  121.630000
  H    -101.679000   51.153600  122.028000
  H    -102.936000   50.710200  123.208000
  S    -102.121000   58.784400  125.915000
  C    -100.852000   59.123500  127.038000
  C    -99.699800   58.332300  126.779000
  C    -99.841800   57.631900  125.587000
  C    -101.064000   57.822100  124.940000
  H    -98.909400   58.377300  127.445000
  C    -98.628900   56.873500  125.097000
  H    -97.814500   57.566200  125.067000
  H    -98.873800   56.529300  124.104000
  C    -97.938000   55.815800  125.874000
  H    -97.798500   56.150100  126.888000
  H    -96.979900   55.645700  125.407000
  C    -98.672100   54.421700  125.904000
  H    -99.591600   54.483500  126.487000
  H    -98.058000   53.562500  126.317000
  H    -98.932800   54.185900  124.829000
  H    -103.476000   56.300800  120.928000
  H    -100.889000   59.702800  127.975000

 Total Charge           Charge          ....    0
 Multiplicity           Mult            ....    1
 Number of Electrons    NEL             ....  134
 Basis Dimension        Dim             ....  322

ORBITAL ENERGIES
----------------

  NO   OCC          E(Eh)            E(eV)
   0   2.0000     -88.969738     -2420.9897
   1   2.0000     -88.965908     -2420.8854
   2   2.0000     -10.325993      -280.9846
   3   2.0000     -10.323383      -280.9135
   4   2.0000     -10.318514      -280.7810
   5   2.0000     -10.310048      -280.5507
   6   2.0000     -10.297876      -280.2194
   7   2.0000     -10.292377      -280.0698
   8   2.0000     -10.292345      -280.0689
   9   2.0000     -10.289202      -279.9834
  10   2.0000     -10.286694      -279.9152
  11   2.0000     -10.286380      -279.9066
  12   2.0000     -10.285769      -279.8900
  13   2.0000     -10.285488      -279.8824
  14   2.0000     -10.284153      -279.8460
  15   2.0000     -10.280488      -279.7463
  16   2.0000      -8.084734      -219.9968
  17   2.0000      -8.080562      -219.8833
  18   2.0000      -6.043076      -164.4405
  19   2.0000      -6.039179      -164.3344
  20   2.0000      -6.039140      -164.3334
  21   2.0000      -6.035678      -164.2391
  22   2.0000      -6.035238      -164.2272
  23   2.0000      -6.031108      -164.1148
  24   2.0000      -1.012098       -27.5406
  25   2.0000      -0.989498       -26.9256
  26   2.0000      -0.921201       -25.0672
  27   2.0000      -0.915466       -24.9111
  28   2.0000      -0.872009       -23.7286
  29   2.0000      -0.851105       -23.1597
  30   2.0000      -0.847697       -23.0670
  31   2.0000      -0.811287       -22.0762
  32   2.0000      -0.787021       -21.4159
  33   2.0000      -0.776526       -21.1303
  34   2.0000      -0.711934       -19.3727
  35   2.0000      -0.698466       -19.0062
  36   2.0000      -0.693134       -18.8611
  37   2.0000      -0.662535       -18.0285
  38   2.0000      -0.639998       -17.4152
  39   2.0000      -0.628506       -17.1025
  40   2.0000      -0.596998       -16.2451
  41   2.0000      -0.575114       -15.6496
  42   2.0000      -0.569745       -15.5035
  43   2.0000      -0.551123       -14.9968
  44   2.0000      -0.545994       -14.8572
  45   2.0000      -0.527976       -14.3669
  46   2.0000      -0.518255       -14.1024
  47   2.0000      -0.512892       -13.9565
  48   2.0000      -0.506550       -13.7839
  49   2.0000      -0.498437       -13.5632
  50   2.0000      -0.493772       -13.4362
  51   2.0000      -0.483638       -13.1605
  52   2.0000      -0.463679       -12.6173
  53   2.0000      -0.461825       -12.5669
  54   2.0000      -0.459264       -12.4972
  55   2.0000      -0.455565       -12.3965
  56   2.0000      -0.445289       -12.1169
  57   2.0000      -0.439609       -11.9624
  58   2.0000      -0.432827       -11.7778
  59   2.0000      -0.427940       -11.6448
  60   2.0000      -0.421860       -11.4794
  61   2.0000      -0.419010       -11.4018
  62   2.0000      -0.416134       -11.3236
  63   2.0000      -0.347279        -9.4500
  64   2.0000      -0.333284        -9.0691
  65   2.0000      -0.330759        -9.0004
  66   2.0000      -0.287366        -7.8196
  67   0.0000       0.028769         0.7828
  68   0.0000       0.073822         2.0088
  69   0.0000       0.106282         2.8921
  70   0.0000       0.118503         3.2246
  71   0.0000       0.124770         3.3952

MULLIKEN ATOMIC CHARGES
-----------------------
   0 S :    0.099280
   1 C :   -0.123591
   2 C :   -0.076701
   3 C :    0.020819
   4 C :   -0.147492
   5 H :   -0.014737
   6 C :    0.127245
   7 H :    0.026899
   8 H :   -0.004323
   9 C :   -0.108230
  10 H :    0.046797
  11 H :    0.039526
  12 C :   -0.047339
  13 H :    0.021911
  14 H :    0.029028
  15 H :    0.046990
  16 S :    0.129349
  17 C :   -0.104330
  18 C :   -0.041712
  19 C :   -0.008693
  20 C :   -0.129864
  21 H :   -0.007674
  22 C :    0.077894
  23 H :    0.023827
  24 H :    0.010990
  25 C :   -0.053683
  26 H :    0.020194
  27 H :    0.030245
  28 C :   -0.099568
  29 H :    0.045960
  30 H :    0.046830
  31 H :    0.032746
  32 H :    0.028207
  33 H :    0.063201
Sum of atomic charges:   -0.0000000

LOEWDIN ATOMIC CHARGES
----------------------
   0 S :    0.391638
   1 C :   -0.179340
   2 C :   -0.065251
   3 C :   -0.054782
   4 C :   -0.195741
   5 H :    0.023340
   6 C :   -0.023220
   7 H :    0.033295
   8 H :    0.022297
   9 C :   -0.040626
  10 H :    0.027653
  11 H :    0.029771
  12 C :   -0.070872
  13 H :    0.023201
  14 H :    0.027365
  15 H :    0.030254
  16 S :    0.434555
  17 C :   -0.198752
  18 C :   -0.061952
  19 C :   -0.056984
  20 C :   -0.212144
  21 H :    0.018644
  22 C :   -0.032301
  23 H :    0.036315
  24 H :    0.024394
  25 C :   -0.033320
  26 H :    0.018766
  27 H :    0.027162
  28 C :   -0.078445
  29 H :    0.023527
  30 H :    0.031402
  31 H :    0.024305
  32 H :    0.021092
  33 H :    0.034754

  Mayer bond orders larger than 0.100000
B(  0-S ,  1-C ) :   1.1231 B(  0-S ,  4-C ) :   1.1363 B(  1-C ,  2-C ) :   1.6446
B(  1-C , 32-H ) :   0.9585 B(  2-C ,  3-C ) :   1.2366 B(  2-C ,  6-C ) :   1.0268
B(  3-C ,  4-C ) :   1.5786 B(  3-C ,  5-H ) :   0.9894 B(  4-C , 20-C ) :   1.0403
B(  6-C ,  7-H ) :   0.9240 B(  6-C ,  8-H ) :   0.9320 B(  6-C ,  9-C ) :   1.0581
B(  9-C , 10-H ) :   0.9517 B(  9-C , 11-H ) :   0.9582 B(  9-C , 12-C ) :   1.0866
B( 12-C , 13-H ) :   0.9729 B( 12-C , 14-H ) :   0.9726 B( 12-C , 15-H ) :   0.9748
B( 16-S , 17-C ) :   1.1802 B( 16-S , 20-C ) :   1.1513 B( 17-C , 18-C ) :   1.5654
B( 17-C , 20-C ) :   0.1058 B( 17-C , 33-H ) :   0.9632 B( 18-C , 19-C ) :   1.2710
B( 18-C , 21-H ) :   1.0067 B( 19-C , 20-C ) :   1.5535 B( 19-C , 22-C ) :   1.0463
B( 22-C , 23-H ) :   0.9294 B( 22-C , 24-H ) :   0.9294 B( 22-C , 25-C ) :   1.0865
B( 25-C , 26-H ) :   0.9498 B( 25-C , 27-H ) :   0.9522 B( 25-C , 28-C ) :   1.0711
B( 28-C , 29-H ) :   0.9759 B( 28-C , 30-H ) :   0.9734 B( 28-C , 31-H ) :   0.9695

Dispersion correction           -0.014489761
FINAL SINGLE POINT ENERGY     -1339.875811892739

DIPOLE MOMENT
-------------
                                X             Y             Z
Electronic contribution:    -11.64585      29.24201       1.05964
Nuclear contribution   :     12.01301     -29.88759      -0.96397
                        -----------------------------------------
Total Dipole Moment    :      0.36716      -0.64557       0.09567
                        -----------------------------------------
Magnitude (a.u.)       :      0.74882
Magnitude (Debye)      :      1.90334

Rotational constants in cm-1:     0.017536     0.009528     0.006907
Rotational constants in MHz :   525.721899   285.647987   207.059461

                             ****ORCA TERMINATED NORMALLY****
TOTAL RUN TIME: 0 days 0 hours 0 minutes 36 seconds 941 msec
