                         Program Version 4.2.1 -  RELEASE  -
|  1> ! wB97X-D3 SP def2-SVP
|  2> %pal
|  3> nprocs 16
|  4> end
|  5>
|  6> * xyz 0 1
|  7> S 	 -28.3462 	 62.8036 	 104.847
|  8> C 	 -29.6894 	 63.7674 	 104.137
|  9> C 	 -30.8595 	 63.4846 	 104.879
| 10> C 	 -30.73 	 62.5408 	 105.9
| 11> C 	 -29.3993 	 62.1379 	 106.079
| 12> H 	 -31.5241 	 62.2616 	 106.572
| 13> C 	 -32.1878 	 64.1948 	 104.661
| 14> H 	 -32.1281 	 64.7711 	 103.704
| 15> H 	 -32.2742 	 64.9077 	 105.46
| 16> C 	 -33.3783 	 63.2263 	 104.546
| 17> H 	 -33.0918 	 62.3376 	 103.933
| 18> H 	 -33.5187 	 62.863 	 105.556
| 19> C 	 -34.7444 	 63.9298 	 104.101
| 20> H 	 -35.5368 	 63.1629 	 104.053
| 21> H 	 -35.0599 	 64.6846 	 104.827
| 22> H 	 -34.6913 	 64.4829 	 103.068
| 23> S 	 -29.5987 	 61.6227 	 108.78
| 24> C 	 -28.6189 	 60.3355 	 109.505
| 25> C 	 -27.7708 	 59.8717 	 108.557
| 26> C 	 -27.8646 	 60.456 	 107.248
| 27> C 	 -28.8795 	 61.3708 	 107.172
| 28> H 	 -27.0892 	 59.1211 	 108.881
| 29> C 	 -26.8318 	 60.1552 	 106.214
| 30> H 	 -25.95 	 59.6832 	 106.639
| 31> H 	 -26.4438 	 61.1308 	 105.902
| 32> C 	 -27.238 	 59.2233 	 105.064
| 33> H 	 -27.9827 	 59.8275 	 104.505
| 34> H 	 -27.7921 	 58.2864 	 105.277
| 35> C 	 -26.2194 	 58.8916 	 103.972
| 36> H 	 -25.644 	 59.6826 	 103.537
| 37> H 	 -26.6645 	 58.3502 	 103.144
| 38> H 	 -25.4518 	 58.2628 	 104.385
| 39> H 	 -29.6036 	 64.3993 	 103.303
| 40> H 	 -28.7613 	 59.9341 	 110.522
| 41> *
| 42>
| 43>                          ****END OF INPUT****

CARTESIAN COORDINATES (ANGSTROEM)
---------------------------------
  S    -28.346200   62.803600  104.847000
  C    -29.689400   63.767400  104.137000
  C    -30.859500   63.484600  104.879000
  C    -30.730000   62.540800  105.900000
  C    -29.399300   62.137900  106.079000
  H    -31.524100   62.261600  106.572000
  C    -32.187800   64.194800  104.661000
  H    -32.128100   64.771100  103.704000
  H    -32.274200   64.907700  105.460000
  C    -33.378300   63.226300  104.546000
  H    -33.091800   62.337600  103.933000
  H    -33.518700   62.863000  105.556000
  C    -34.744400   63.929800  104.101000
  H    -35.536800   63.162900  104.053000
  H    -35.059900   64.684600  104.827000
  H    -34.691300   64.482900  103.068000
  S    -29.598700   61.622700  108.780000
  C    -28.618900   60.335500  109.505000
  C    -27.770800   59.871700  108.557000
  C    -27.864600   60.456000  107.248000
  C    -28.879500   61.370800  107.172000
  H    -27.089200   59.121100  108.881000
  C    -26.831800   60.155200  106.214000
  H    -25.950000   59.683200  106.639000
  H    -26.443800   61.130800  105.902000
  C    -27.238000   59.223300  105.064000
  H    -27.982700   59.827500  104.505000
  H    -27.792100   58.286400  105.277000
  C    -26.219400   58.891600  103.972000
  H    -25.644000   59.682600  103.537000
  H    -26.664500   58.350200  103.144000
  H    -25.451800   58.262800  104.385000
  H    -29.603600   64.399300  103.303000
  H    -28.761300   59.934100  110.522000

 Total Charge           Charge          ....    0
 Multiplicity           Mult            ....    1
 Number of Electrons    NEL             ....  134
 Basis Dimension        Dim             ....  322

ORBITAL ENERGIES
----------------

  NO   OCC          E(Eh)            E(eV)
   0   2.0000     -88.970671     -2421.0150
   1   2.0000     -88.962673     -2420.7974
   2   2.0000     -10.333813      -281.1974
   3   2.0000     -10.327290      -281.0198
   4   2.0000     -10.318906      -280.7917
   5   2.0000     -10.318257      -280.7740
   6   2.0000     -10.303020      -280.3594
   7   2.0000     -10.301853      -280.3277
   8   2.0000     -10.294696      -280.1329
   9   2.0000     -10.294498      -280.1275
  10   2.0000     -10.293557      -280.1019
  11   2.0000     -10.292338      -280.0688
  12   2.0000     -10.291928      -280.0576
  13   2.0000     -10.289743      -279.9982
  14   2.0000     -10.285302      -279.8773
  15   2.0000     -10.269834      -279.4564
  16   2.0000      -8.083847      -219.9727
  17   2.0000      -8.076785      -219.7805
  18   2.0000      -6.042400      -164.4221
  19   2.0000      -6.038483      -164.3155
  20   2.0000      -6.035516      -164.2347
  21   2.0000      -6.034763      -164.2143
  22   2.0000      -6.031381      -164.1222
  23   2.0000      -6.027342      -164.0123
  24   2.0000      -1.006617       -27.3914
  25   2.0000      -0.981181       -26.6993
  26   2.0000      -0.909381       -24.7455
  27   2.0000      -0.905244       -24.6329
  28   2.0000      -0.869485       -23.6599
  29   2.0000      -0.851749       -23.1773
  30   2.0000      -0.842476       -22.9249
  31   2.0000      -0.812979       -22.1223
  32   2.0000      -0.783857       -21.3298
  33   2.0000      -0.770767       -20.9736
  34   2.0000      -0.714520       -19.4431
  35   2.0000      -0.697932       -18.9917
  36   2.0000      -0.691618       -18.8199
  37   2.0000      -0.668939       -18.2027
  38   2.0000      -0.635932       -17.3046
  39   2.0000      -0.620377       -16.8813
  40   2.0000      -0.596783       -16.2393
  41   2.0000      -0.567853       -15.4521
  42   2.0000      -0.560172       -15.2431
  43   2.0000      -0.557708       -15.1760
  44   2.0000      -0.531309       -14.4577
  45   2.0000      -0.523775       -14.2527
  46   2.0000      -0.516912       -14.0659
  47   2.0000      -0.511926       -13.9302
  48   2.0000      -0.509369       -13.8606
  49   2.0000      -0.500874       -13.6295
  50   2.0000      -0.488401       -13.2901
  51   2.0000      -0.481101       -13.0914
  52   2.0000      -0.472534       -12.8583
  53   2.0000      -0.469970       -12.7885
  54   2.0000      -0.457968       -12.4619
  55   2.0000      -0.448686       -12.2094
  56   2.0000      -0.440436       -11.9849
  57   2.0000      -0.438645       -11.9361
  58   2.0000      -0.436684       -11.8828
  59   2.0000      -0.422593       -11.4993
  60   2.0000      -0.418086       -11.3767
  61   2.0000      -0.411684       -11.2025
  62   2.0000      -0.395202       -10.7540
  63   2.0000      -0.352522        -9.5926
  64   2.0000      -0.335274        -9.1233
  65   2.0000      -0.329851        -8.9757
  66   2.0000      -0.286543        -7.7972
  67   0.0000       0.017207         0.4682
  68   0.0000       0.079527         2.1640
  69   0.0000       0.106788         2.9058
  70   0.0000       0.112620         3.0646
  71   0.0000       0.127945         3.4816

MULLIKEN ATOMIC CHARGES
-----------------------
   0 S :    0.090748
   1 C :   -0.101049
   2 C :   -0.089874
   3 C :    0.006015
   4 C :   -0.128801
   5 H :    0.017061
   6 C :    0.069351
   7 H :    0.017494
   8 H :    0.041341
   9 C :   -0.111736
  10 H :    0.051207
  11 H :    0.030477
  12 C :   -0.077337
  13 H :    0.043832
  14 H :    0.037236
  15 H :    0.049077
  16 S :    0.083418
  17 C :   -0.105630
  18 C :   -0.021937
  19 C :   -0.019634
  20 C :   -0.122292
  21 H :    0.007683
  22 C :    0.068888
  23 H :    0.009695
  24 H :    0.036117
  25 C :   -0.088949
  26 H :    0.023575
  27 H :    0.038648
  28 C :   -0.025084
  29 H :    0.018718
  30 H :    0.033423
  31 H :    0.013322
  32 H :    0.033571
  33 H :    0.071424
Sum of atomic charges:   -0.0000000

LOEWDIN ATOMIC CHARGES
----------------------
   0 S :    0.403440
   1 C :   -0.184146
   2 C :   -0.055385
   3 C :   -0.070022
   4 C :   -0.178773
   5 H :    0.029994
   6 C :   -0.032148
   7 H :    0.028792
   8 H :    0.030828
   9 C :   -0.043694
  10 H :    0.032540
  11 H :    0.020577
  12 C :   -0.074656
  13 H :    0.027980
  14 H :    0.025152
  15 H :    0.034990
  16 S :    0.378799
  17 C :   -0.180050
  18 C :   -0.066849
  19 C :   -0.058412
  20 C :   -0.181330
  21 H :    0.027547
  22 C :   -0.036727
  23 H :    0.028448
  24 H :    0.028406
  25 C :   -0.049139
  26 H :    0.020286
  27 H :    0.032190
  28 C :   -0.065599
  29 H :    0.021132
  30 H :    0.029635
  31 H :    0.017342
  32 H :    0.018977
  33 H :    0.039874

  Mayer bond orders larger than 0.100000
B(  0-S ,  1-C ) :   1.1176 B(  0-S ,  4-C ) :   1.1658 B(  1-C ,  2-C ) :   1.5816
B(  1-C ,  4-C ) :   0.1082 B(  1-C , 32-H ) :   0.9808 B(  2-C ,  3-C ) :   1.2638
B(  2-C ,  6-C ) :   1.0219 B(  3-C ,  4-C ) :   1.5140 B(  3-C ,  5-H ) :   0.9947
B(  4-C , 20-C ) :   1.0903 B(  6-C ,  7-H ) :   0.9459 B(  6-C ,  8-H ) :   0.9382
B(  6-C ,  9-C ) :   1.0524 B(  9-C , 10-H ) :   0.9647 B(  9-C , 11-H ) :   0.9484
B(  9-C , 12-C ) :   1.0728 B( 12-C , 13-H ) :   0.9769 B( 12-C , 14-H ) :   0.9747
B( 12-C , 15-H ) :   0.9763 B( 16-S , 17-C ) :   1.1269 B( 16-S , 20-C ) :   1.1228
B( 17-C , 18-C ) :   1.6350 B( 17-C , 33-H ) :   0.9645 B( 18-C , 19-C ) :   1.2235
B( 18-C , 21-H ) :   0.9934 B( 19-C , 20-C ) :   1.5836 B( 19-C , 22-C ) :   1.0411
B( 22-C , 23-H ) :   0.9316 B( 22-C , 24-H ) :   0.9319 B( 22-C , 25-C ) :   1.0453
B( 25-C , 26-H ) :   0.9530 B( 25-C , 27-H ) :   0.9576 B( 25-C , 28-C ) :   1.0897
B( 28-C , 29-H ) :   0.9725 B( 28-C , 30-H ) :   0.9730 B( 28-C , 31-H ) :   0.9726

Dispersion correction           -0.013912087
FINAL SINGLE POINT ENERGY     -1339.879068353668

DIPOLE MOMENT
-------------
                                X             Y             Z
Electronic contribution:      8.17558       4.08671      14.71997
Nuclear contribution   :     -8.30876      -4.20106     -14.78970
                        -----------------------------------------
Total Dipole Moment    :     -0.13318      -0.11436      -0.06973
                        -----------------------------------------
Magnitude (a.u.)       :      0.18888
Magnitude (Debye)      :      0.48011

Rotational constants in cm-1:     0.019070     0.008166     0.006459
Rotational constants in MHz :   571.692044   244.797344   193.635151

                             ****ORCA TERMINATED NORMALLY****
TOTAL RUN TIME: 0 days 0 hours 0 minutes 29 seconds 49 msec
