                         Program Version 4.2.1 -  RELEASE  -
|  1> ! wB97X-D3 SP def2-SVP
|  2> %pal
|  3> nprocs 16
|  4> end
|  5>
|  6> * xyz 0 1
|  7> S 	 -2.95175 	 -12.8434 	 78.214
|  8> C 	 -4.63087 	 -13.0555 	 77.7608
|  9> C 	 -5.39223 	 -13.3909 	 78.8443
| 10> C 	 -4.56177 	 -13.672 	 80.0191
| 11> C 	 -3.20309 	 -13.4004 	 79.8405
| 12> H 	 -4.87755 	 -14.0567 	 80.9803
| 13> C 	 -6.92948 	 -13.5922 	 78.8666
| 14> H 	 -7.23221 	 -14.3433 	 79.6336
| 15> H 	 -7.19319 	 -14.0132 	 77.8742
| 16> C 	 -7.84873 	 -12.329 	 78.9685
| 17> H 	 -7.56157 	 -11.8165 	 79.8406
| 18> H 	 -7.61243 	 -11.5997 	 78.1071
| 19> C 	 -9.32224 	 -12.5384 	 78.9764
| 20> H 	 -9.6823 	 -13.1981 	 78.1133
| 21> H 	 -9.69581 	 -12.9404 	 79.859
| 22> H 	 -9.82357 	 -11.5566 	 78.8104
| 23> S 	 -1.46524 	 -14.8308 	 81.5258
| 24> C 	 -0.425419 	 -13.8996 	 82.4962
| 25> C 	 -0.48553 	 -12.5418 	 82.2346
| 26> C 	 -1.5266 	 -12.1712 	 81.3618
| 27> C 	 -2.15065 	 -13.3166 	 80.8764
| 28> H 	 0.283354 	 -11.9746 	 82.68
| 29> C 	 -1.86585 	 -10.7101 	 81.0737
| 30> H 	 -1.37023 	 -10.624 	 80.0607
| 31> H 	 -1.33649 	 -9.98553 	 81.6584
| 32> C 	 -3.40333 	 -10.203 	 81.1829
| 33> H 	 -4.03044 	 -10.8165 	 80.5269
| 34> H 	 -3.39771 	 -9.17545 	 80.8276
| 35> C 	 -3.90865 	 -10.2624 	 82.6614
| 36> H 	 -3.64431 	 -11.2339 	 83.0776
| 37> H 	 -5.00904 	 -10.2388 	 82.7264
| 38> H 	 -3.43646 	 -9.53173 	 83.3299
| 39> H 	 -5.12441 	 -12.6904 	 76.8365
| 40> H 	 0.398887 	 -14.3725 	 83.1263
| 41> *
| 42>
| 43>                          ****END OF INPUT****

CARTESIAN COORDINATES (ANGSTROEM)
---------------------------------
  S     -2.951750  -12.843400   78.214000
  C     -4.630870  -13.055500   77.760800
  C     -5.392230  -13.390900   78.844300
  C     -4.561770  -13.672000   80.019100
  C     -3.203090  -13.400400   79.840500
  H     -4.877550  -14.056700   80.980300
  C     -6.929480  -13.592200   78.866600
  H     -7.232210  -14.343300   79.633600
  H     -7.193190  -14.013200   77.874200
  C     -7.848730  -12.329000   78.968500
  H     -7.561570  -11.816500   79.840600
  H     -7.612430  -11.599700   78.107100
  C     -9.322240  -12.538400   78.976400
  H     -9.682300  -13.198100   78.113300
  H     -9.695810  -12.940400   79.859000
  H     -9.823570  -11.556600   78.810400
  S     -1.465240  -14.830800   81.525800
  C     -0.425419  -13.899600   82.496200
  C     -0.485530  -12.541800   82.234600
  C     -1.526600  -12.171200   81.361800
  C     -2.150650  -13.316600   80.876400
  H      0.283354  -11.974600   82.680000
  C     -1.865850  -10.710100   81.073700
  H     -1.370230  -10.624000   80.060700
  H     -1.336490   -9.985530   81.658400
  C     -3.403330  -10.203000   81.182900
  H     -4.030440  -10.816500   80.526900
  H     -3.397710   -9.175450   80.827600
  C     -3.908650  -10.262400   82.661400
  H     -3.644310  -11.233900   83.077600
  H     -5.009040  -10.238800   82.726400
  H     -3.436460   -9.531730   83.329900
  H     -5.124410  -12.690400   76.836500
  H      0.398887  -14.372500   83.126300

 Total Charge           Charge          ....    0
 Multiplicity           Mult            ....    1
 Number of Electrons    NEL             ....  134
 Basis Dimension        Dim             ....  322

ORBITAL ENERGIES
----------------

  NO   OCC          E(Eh)            E(eV)
   0   2.0000     -88.967891     -2420.9394
   1   2.0000     -88.965999     -2420.8879
   2   2.0000     -10.328954      -281.0651
   3   2.0000     -10.327867      -281.0356
   4   2.0000     -10.317097      -280.7425
   5   2.0000     -10.315987      -280.7123
   6   2.0000     -10.307790      -280.4892
   7   2.0000     -10.306912      -280.4653
   8   2.0000     -10.301115      -280.3076
   9   2.0000     -10.298868      -280.2464
  10   2.0000     -10.296923      -280.1935
  11   2.0000     -10.292403      -280.0705
  12   2.0000     -10.288547      -279.9656
  13   2.0000     -10.287280      -279.9311
  14   2.0000     -10.280573      -279.7486
  15   2.0000     -10.277896      -279.6758
  16   2.0000      -8.082974      -219.9489
  17   2.0000      -8.080504      -219.8817
  18   2.0000      -6.041244      -164.3906
  19   2.0000      -6.039132      -164.3331
  20   2.0000      -6.037500      -164.2887
  21   2.0000      -6.034878      -164.2174
  22   2.0000      -6.033911      -164.1911
  23   2.0000      -6.031309      -164.1203
  24   2.0000      -1.005250       -27.3542
  25   2.0000      -0.984848       -26.7991
  26   2.0000      -0.907158       -24.6850
  27   2.0000      -0.896731       -24.4013
  28   2.0000      -0.867519       -23.6064
  29   2.0000      -0.850367       -23.1397
  30   2.0000      -0.843728       -22.9590
  31   2.0000      -0.809642       -22.0315
  32   2.0000      -0.782410       -21.2905
  33   2.0000      -0.771591       -20.9961
  34   2.0000      -0.706782       -19.2325
  35   2.0000      -0.695692       -18.9307
  36   2.0000      -0.685779       -18.6610
  37   2.0000      -0.657216       -17.8838
  38   2.0000      -0.637870       -17.3573
  39   2.0000      -0.611526       -16.6405
  40   2.0000      -0.591609       -16.0985
  41   2.0000      -0.569752       -15.5038
  42   2.0000      -0.561822       -15.2879
  43   2.0000      -0.544182       -14.8079
  44   2.0000      -0.539553       -14.6820
  45   2.0000      -0.517297       -14.0764
  46   2.0000      -0.512438       -13.9441
  47   2.0000      -0.510466       -13.8905
  48   2.0000      -0.503750       -13.7077
  49   2.0000      -0.493014       -13.4156
  50   2.0000      -0.485340       -13.2068
  51   2.0000      -0.477823       -13.0022
  52   2.0000      -0.470768       -12.8102
  53   2.0000      -0.465842       -12.6762
  54   2.0000      -0.461386       -12.5550
  55   2.0000      -0.449486       -12.2311
  56   2.0000      -0.444444       -12.0939
  57   2.0000      -0.435980       -11.8636
  58   2.0000      -0.429045       -11.6749
  59   2.0000      -0.423261       -11.5175
  60   2.0000      -0.421111       -11.4590
  61   2.0000      -0.416243       -11.3266
  62   2.0000      -0.410136       -11.1604
  63   2.0000      -0.334133        -9.0922
  64   2.0000      -0.331569        -9.0225
  65   2.0000      -0.326860        -8.8943
  66   2.0000      -0.302237        -8.2243
  67   0.0000       0.037107         1.0097
  68   0.0000       0.061505         1.6736
  69   0.0000       0.110332         3.0023
  70   0.0000       0.121639         3.3100
  71   0.0000       0.124449         3.3864

MULLIKEN ATOMIC CHARGES
-----------------------
   0 S :    0.112532
   1 C :   -0.120707
   2 C :   -0.081847
   3 C :    0.035992
   4 C :   -0.171535
   5 H :    0.007971
   6 C :    0.036066
   7 H :    0.036207
   8 H :    0.025346
   9 C :   -0.077825
  10 H :    0.017740
  11 H :    0.031031
  12 C :   -0.039473
  13 H :    0.033133
  14 H :    0.022500
  15 H :    0.039758
  16 S :    0.127845
  17 C :   -0.121007
  18 C :   -0.040538
  19 C :    0.009570
  20 C :   -0.203433
  21 H :    0.002785
  22 C :    0.036074
  23 H :    0.049915
  24 H :    0.014786
  25 C :   -0.047413
  26 H :    0.048000
  27 H :    0.034191
  28 C :   -0.064562
  29 H :    0.031689
  30 H :    0.039845
  31 H :    0.034308
  32 H :    0.062186
  33 H :    0.078868
Sum of atomic charges:    0.0000000

LOEWDIN ATOMIC CHARGES
----------------------
   0 S :    0.413675
   1 C :   -0.204951
   2 C :   -0.065602
   3 C :   -0.061921
   4 C :   -0.204737
   5 H :    0.028440
   6 C :   -0.035482
   7 H :    0.033675
   8 H :    0.031373
   9 C :   -0.047175
  10 H :    0.015507
  11 H :    0.030590
  12 C :   -0.066248
  13 H :    0.031584
  14 H :    0.013709
  15 H :    0.035816
  16 S :    0.418219
  17 C :   -0.209176
  18 C :   -0.074515
  19 C :   -0.049362
  20 C :   -0.202525
  21 H :    0.025741
  22 C :   -0.037244
  23 H :    0.043338
  24 H :    0.024774
  25 C :   -0.028452
  26 H :    0.025455
  27 H :    0.024282
  28 C :   -0.070841
  29 H :    0.026112
  30 H :    0.029148
  31 H :    0.025223
  32 H :    0.039305
  33 H :    0.042266

  Mayer bond orders larger than 0.100000
B(  0-S ,  1-C ) :   1.1359 B(  0-S ,  4-C ) :   1.1534 B(  1-C ,  2-C ) :   1.6404
B(  1-C , 32-H ) :   0.9579 B(  2-C ,  3-C ) :   1.2241 B(  2-C ,  6-C ) :   1.0168
B(  3-C ,  4-C ) :   1.5934 B(  3-C ,  5-H ) :   0.9945 B(  4-C , 20-C ) :   1.0101
B(  6-C ,  7-H ) :   0.9498 B(  6-C ,  8-H ) :   0.9422 B(  6-C ,  9-C ) :   1.0549
B(  9-C , 10-H ) :   0.9523 B(  9-C , 11-H ) :   0.9568 B(  9-C , 12-C ) :   1.0932
B( 12-C , 13-H ) :   0.9717 B( 12-C , 14-H ) :   0.9738 B( 12-C , 15-H ) :   0.9704
B( 16-S , 17-C ) :   1.1707 B( 16-S , 20-C ) :   1.1534 B( 17-C , 18-C ) :   1.6110
B( 17-C , 33-H ) :   0.9541 B( 18-C , 19-C ) :   1.2348 B( 18-C , 21-H ) :   0.9987
B( 19-C , 20-C ) :   1.5794 B( 19-C , 22-C ) :   1.0208 B( 22-C , 23-H ) :   0.9293
B( 22-C , 24-H ) :   0.9456 B( 22-C , 25-C ) :   1.0541 B( 25-C , 26-H ) :   0.9601
B( 25-C , 27-H ) :   0.9579 B( 25-C , 28-C ) :   1.0635 B( 28-C , 29-H ) :   0.9771
B( 28-C , 30-H ) :   0.9761 B( 28-C , 31-H ) :   0.9761

Dispersion correction           -0.015330141
FINAL SINGLE POINT ENERGY     -1339.874833609476

DIPOLE MOMENT
-------------
                                X             Y             Z
Electronic contribution:     23.76708     -14.93609      -3.22521
Nuclear contribution   :    -24.07109      15.33490       3.42380
                        -----------------------------------------
Total Dipole Moment    :     -0.30400       0.39882       0.19858
                        -----------------------------------------
Magnitude (a.u.)       :      0.53936
Magnitude (Debye)      :      1.37094

Rotational constants in cm-1:     0.021204     0.007999     0.007137
Rotational constants in MHz :   635.693684   239.790998   213.973223

                             ****ORCA TERMINATED NORMALLY****
TOTAL RUN TIME: 0 days 0 hours 0 minutes 31 seconds 905 msec
