                         Program Version 4.2.1 -  RELEASE  -
|  1> ! wB97X-D3 SP def2-SVP
|  2> %pal
|  3> nprocs 16
|  4> end
|  5>
|  6> * xyz 0 1
|  7> S 	 -38.6964 	 52.2732 	 108.458
|  8> C 	 -40.3088 	 51.845 	 108.885
|  9> C 	 -41.1894 	 52.014 	 107.835
| 10> C 	 -40.4659 	 52.4153 	 106.638
| 11> C 	 -39.1231 	 52.6263 	 106.853
| 12> H 	 -40.8685 	 52.4877 	 105.635
| 13> C 	 -42.7014 	 51.834 	 107.857
| 14> H 	 -42.9353 	 50.7564 	 108.08
| 15> H 	 -43.0388 	 52.008 	 106.783
| 16> C 	 -43.5538 	 52.6425 	 108.854
| 17> H 	 -43.0705 	 52.5495 	 109.841
| 18> H 	 -43.5274 	 53.6687 	 108.716
| 19> C 	 -45.0276 	 52.1219 	 108.67
| 20> H 	 -45.6235 	 52.5717 	 109.514
| 21> H 	 -45.4623 	 52.3219 	 107.692
| 22> H 	 -45.1178 	 50.9775 	 108.889
| 23> S 	 -38.0603 	 52.2883 	 104.429
| 24> C 	 -37.0195 	 53.5591 	 103.811
| 25> C 	 -36.7437 	 54.5514 	 104.706
| 26> C 	 -37.4637 	 54.3435 	 105.922
| 27> C 	 -38.1825 	 53.1476 	 105.916
| 28> H 	 -36.0586 	 55.3534 	 104.34
| 29> C 	 -37.3327 	 55.3535 	 107.079
| 30> H 	 -36.5358 	 55.9747 	 106.935
| 31> H 	 -37.1637 	 54.8584 	 108.006
| 32> C 	 -38.64 	 56.0338 	 107.317
| 33> H 	 -39.348 	 55.2353 	 107.501
| 34> H 	 -38.8803 	 56.708 	 106.538
| 35> C 	 -38.6516 	 57.0345 	 108.489
| 36> H 	 -38.2509 	 56.7131 	 109.44
| 37> H 	 -39.6925 	 57.3837 	 108.68
| 38> H 	 -38.102 	 57.8929 	 108.153
| 39> H 	 -40.5258 	 51.3936 	 109.866
| 40> H 	 -36.7745 	 53.5008 	 102.774
| 41> *
| 42>
| 43>                          ****END OF INPUT****

CARTESIAN COORDINATES (ANGSTROEM)
---------------------------------
  S    -38.696400   52.273200  108.458000
  C    -40.308800   51.845000  108.885000
  C    -41.189400   52.014000  107.835000
  C    -40.465900   52.415300  106.638000
  C    -39.123100   52.626300  106.853000
  H    -40.868500   52.487700  105.635000
  C    -42.701400   51.834000  107.857000
  H    -42.935300   50.756400  108.080000
  H    -43.038800   52.008000  106.783000
  C    -43.553800   52.642500  108.854000
  H    -43.070500   52.549500  109.841000
  H    -43.527400   53.668700  108.716000
  C    -45.027600   52.121900  108.670000
  H    -45.623500   52.571700  109.514000
  H    -45.462300   52.321900  107.692000
  H    -45.117800   50.977500  108.889000
  S    -38.060300   52.288300  104.429000
  C    -37.019500   53.559100  103.811000
  C    -36.743700   54.551400  104.706000
  C    -37.463700   54.343500  105.922000
  C    -38.182500   53.147600  105.916000
  H    -36.058600   55.353400  104.340000
  C    -37.332700   55.353500  107.079000
  H    -36.535800   55.974700  106.935000
  H    -37.163700   54.858400  108.006000
  C    -38.640000   56.033800  107.317000
  H    -39.348000   55.235300  107.501000
  H    -38.880300   56.708000  106.538000
  C    -38.651600   57.034500  108.489000
  H    -38.250900   56.713100  109.440000
  H    -39.692500   57.383700  108.680000
  H    -38.102000   57.892900  108.153000
  H    -40.525800   51.393600  109.866000
  H    -36.774500   53.500800  102.774000

 Total Charge           Charge          ....    0
 Multiplicity           Mult            ....    1
 Number of Electrons    NEL             ....  134
 Basis Dimension        Dim             ....  322

ORBITAL ENERGIES
----------------

  NO   OCC          E(Eh)            E(eV)
   0   2.0000     -88.964533     -2420.8480
   1   2.0000     -88.964070     -2420.8354
   2   2.0000     -10.320217      -280.8274
   3   2.0000     -10.319610      -280.8109
   4   2.0000     -10.312947      -280.6296
   5   2.0000     -10.310912      -280.5742
   6   2.0000     -10.304224      -280.3922
   7   2.0000     -10.303890      -280.3831
   8   2.0000     -10.299900      -280.2745
   9   2.0000     -10.296255      -280.1753
  10   2.0000     -10.294745      -280.1343
  11   2.0000     -10.293158      -280.0911
  12   2.0000     -10.288818      -279.9730
  13   2.0000     -10.276195      -279.6295
  14   2.0000     -10.271280      -279.4957
  15   2.0000     -10.270425      -279.4725
  16   2.0000      -8.080553      -219.8830
  17   2.0000      -8.079492      -219.8542
  18   2.0000      -6.038858      -164.3257
  19   2.0000      -6.037798      -164.2968
  20   2.0000      -6.034759      -164.2141
  21   2.0000      -6.033977      -164.1929
  22   2.0000      -6.031586      -164.1278
  23   2.0000      -6.030373      -164.0948
  24   2.0000      -1.014469       -27.6051
  25   2.0000      -0.987856       -26.8809
  26   2.0000      -0.913586       -24.8599
  27   2.0000      -0.908618       -24.7248
  28   2.0000      -0.873827       -23.7780
  29   2.0000      -0.851357       -23.1666
  30   2.0000      -0.844151       -22.9705
  31   2.0000      -0.811195       -22.0737
  32   2.0000      -0.781659       -21.2700
  33   2.0000      -0.766781       -20.8652
  34   2.0000      -0.709124       -19.2963
  35   2.0000      -0.702230       -19.1086
  36   2.0000      -0.686760       -18.6877
  37   2.0000      -0.665694       -18.1145
  38   2.0000      -0.643962       -17.5231
  39   2.0000      -0.615451       -16.7473
  40   2.0000      -0.598280       -16.2800
  41   2.0000      -0.579681       -15.7739
  42   2.0000      -0.566855       -15.4249
  43   2.0000      -0.555786       -15.1237
  44   2.0000      -0.521932       -14.2025
  45   2.0000      -0.516895       -14.0654
  46   2.0000      -0.514848       -14.0097
  47   2.0000      -0.510138       -13.8816
  48   2.0000      -0.503417       -13.6987
  49   2.0000      -0.500659       -13.6236
  50   2.0000      -0.491696       -13.3797
  51   2.0000      -0.480837       -13.0842
  52   2.0000      -0.470316       -12.7979
  53   2.0000      -0.469629       -12.7793
  54   2.0000      -0.459418       -12.5014
  55   2.0000      -0.449609       -12.2345
  56   2.0000      -0.445052       -12.1105
  57   2.0000      -0.438560       -11.9338
  58   2.0000      -0.426713       -11.6115
  59   2.0000      -0.425137       -11.5686
  60   2.0000      -0.418845       -11.3973
  61   2.0000      -0.415522       -11.3069
  62   2.0000      -0.412236       -11.2175
  63   2.0000      -0.342605        -9.3227
  64   2.0000      -0.334246        -9.0953
  65   2.0000      -0.328103        -8.9281
  66   2.0000      -0.292906        -7.9704
  67   0.0000       0.036320         0.9883
  68   0.0000       0.073985         2.0132
  69   0.0000       0.109381         2.9764
  70   0.0000       0.124333         3.3833
  71   0.0000       0.127979         3.4825

MULLIKEN ATOMIC CHARGES
-----------------------
   0 S :    0.124933
   1 C :   -0.154600
   2 C :   -0.051600
   3 C :    0.027549
   4 C :   -0.190231
   5 H :    0.013031
   6 C :    0.011769
   7 H :    0.041146
   8 H :    0.028397
   9 C :   -0.032939
  10 H :    0.028964
  11 H :    0.019143
  12 C :   -0.099016
  13 H :    0.044563
  14 H :    0.050395
  15 H :    0.043134
  16 S :    0.109033
  17 C :   -0.105904
  18 C :   -0.041252
  19 C :   -0.033808
  20 C :   -0.152258
  21 H :    0.040594
  22 C :    0.173060
  23 H :   -0.016784
  24 H :    0.004001
  25 C :   -0.091128
  26 H :    0.049405
  27 H :    0.017271
  28 C :   -0.038897
  29 H :    0.023343
  30 H :    0.033214
  31 H :    0.017967
  32 H :    0.059943
  33 H :    0.047564
Sum of atomic charges:   -0.0000000

LOEWDIN ATOMIC CHARGES
----------------------
   0 S :    0.443133
   1 C :   -0.213218
   2 C :   -0.064942
   3 C :   -0.064855
   4 C :   -0.221766
   5 H :    0.028775
   6 C :   -0.041263
   7 H :    0.036865
   8 H :    0.033648
   9 C :   -0.035970
  10 H :    0.027727
  11 H :    0.015591
  12 C :   -0.072377
  13 H :    0.031269
  14 H :    0.027077
  15 H :    0.033953
  16 S :    0.419560
  17 C :   -0.177690
  18 C :   -0.076234
  19 C :   -0.045623
  20 C :   -0.211543
  21 H :    0.045944
  22 C :   -0.019724
  23 H :    0.013350
  24 H :    0.023527
  25 C :   -0.034131
  26 H :    0.026176
  27 H :    0.020190
  28 C :   -0.063721
  29 H :    0.016662
  30 H :    0.030480
  31 H :    0.019418
  32 H :    0.031319
  33 H :    0.018391

  Mayer bond orders larger than 0.100000
B(  0-S ,  1-C ) :   1.1501 B(  0-S ,  4-C ) :   1.1772 B(  1-C ,  2-C ) :   1.5908
B(  1-C , 32-H ) :   0.9707 B(  2-C ,  3-C ) :   1.2548 B(  2-C ,  6-C ) :   1.0108
B(  3-C ,  4-C ) :   1.5659 B(  3-C ,  5-H ) :   0.9925 B(  4-C , 20-C ) :   1.0129
B(  6-C ,  7-H ) :   0.9416 B(  6-C ,  8-H ) :   0.9469 B(  6-C ,  9-C ) :   1.0564
B(  9-C , 10-H ) :   0.9563 B(  9-C , 11-H ) :   0.9555 B(  9-C , 12-C ) :   1.0635
B( 12-C , 13-H ) :   0.9748 B( 12-C , 14-H ) :   0.9757 B( 12-C , 15-H ) :   0.9760
B( 16-S , 17-C ) :   1.1600 B( 16-S , 20-C ) :   1.1543 B( 17-C , 18-C ) :   1.6141
B( 17-C , 33-H ) :   0.9701 B( 18-C , 19-C ) :   1.2295 B( 18-C , 21-H ) :   0.9879
B( 19-C , 20-C ) :   1.5907 B( 19-C , 22-C ) :   1.0417 B( 22-C , 23-H ) :   0.9275
B( 22-C , 24-H ) :   0.9267 B( 22-C , 25-C ) :   1.0654 B( 25-C , 26-H ) :   0.9583
B( 25-C , 27-H ) :   0.9550 B( 25-C , 28-C ) :   1.0841 B( 28-C , 29-H ) :   0.9743
B( 28-C , 30-H ) :   0.9746 B( 28-C , 31-H ) :   0.9767

Dispersion correction           -0.014327217
FINAL SINGLE POINT ENERGY     -1339.873854741553

DIPOLE MOMENT
-------------
                                X             Y             Z
Electronic contribution:     19.19543     -12.74705     -11.63352
Nuclear contribution   :    -19.53883      13.04604      11.66684
                        -----------------------------------------
Total Dipole Moment    :     -0.34340       0.29899       0.03332
                        -----------------------------------------
Magnitude (a.u.)       :      0.45654
Magnitude (Debye)      :      1.16043

Rotational constants in cm-1:     0.019707     0.008175     0.006903
Rotational constants in MHz :   590.786764   245.067938   206.952602

                             ****ORCA TERMINATED NORMALLY****
TOTAL RUN TIME: 0 days 0 hours 0 minutes 29 seconds 429 msec
