                         Program Version 4.2.1 -  RELEASE  -
|  1> ! wB97X-D3 SP def2-SVP
|  2> %pal
|  3> nprocs 16
|  4> end
|  5>
|  6> * xyz 0 1
|  7> S 	 1.55309 	 -4.65507 	 79.6889
|  8> C 	 2.947 	 -3.99748 	 80.5072
|  9> C 	 3.15921 	 -4.47904 	 81.772
| 10> C 	 2.24678 	 -5.53726 	 81.9935
| 11> C 	 1.49143 	 -5.96946 	 80.8887
| 12> H 	 2.22036 	 -6.13664 	 82.8809
| 13> C 	 4.16409 	 -4.04604 	 82.8205
| 14> H 	 5.1152 	 -3.78786 	 82.4009
| 15> H 	 4.31752 	 -4.87619 	 83.4774
| 16> C 	 3.75229 	 -2.7968 	 83.703
| 17> H 	 4.5676 	 -2.51264 	 84.3633
| 18> H 	 3.55763 	 -1.9949 	 82.9793
| 19> C 	 2.52508 	 -3.20762 	 84.5946
| 20> H 	 2.71625 	 -4.10466 	 85.275
| 21> H 	 2.10655 	 -2.38118 	 85.2425
| 22> H 	 1.73468 	 -3.54493 	 83.9108
| 23> S 	 -1.17214 	 -6.6034 	 80.5081
| 24> C 	 -1.623 	 -8.35311 	 80.3279
| 25> C 	 -0.497308 	 -9.11043 	 80.4897
| 26> C 	 0.672783 	 -8.40555 	 80.8515
| 27> C 	 0.479941 	 -7.03375 	 80.815
| 28> H 	 -0.606534 	 -10.2159 	 80.3929
| 29> C 	 2.0252 	 -9.03673 	 81.0618
| 30> H 	 1.79559 	 -10.0748 	 81.3008
| 31> H 	 2.42319 	 -8.5983 	 82.0304
| 32> C 	 3.01828 	 -8.79617 	 79.8513
| 33> H 	 3.30909 	 -7.77455 	 79.8133
| 34> H 	 2.57288 	 -8.89127 	 78.8435
| 35> C 	 4.20735 	 -9.74652 	 79.953
| 36> H 	 4.83646 	 -9.47942 	 80.8437
| 37> H 	 4.81716 	 -9.61933 	 79.0612
| 38> H 	 3.89858 	 -10.8029 	 79.9934
| 39> H 	 3.4535 	 -3.04232 	 80.1669
| 40> H 	 -2.637 	 -8.66315 	 80.0591
| 41> *
| 42>
| 43>                          ****END OF INPUT****

CARTESIAN COORDINATES (ANGSTROEM)
---------------------------------
  S      1.553090   -4.655070   79.688900
  C      2.947000   -3.997480   80.507200
  C      3.159210   -4.479040   81.772000
  C      2.246780   -5.537260   81.993500
  C      1.491430   -5.969460   80.888700
  H      2.220360   -6.136640   82.880900
  C      4.164090   -4.046040   82.820500
  H      5.115200   -3.787860   82.400900
  H      4.317520   -4.876190   83.477400
  C      3.752290   -2.796800   83.703000
  H      4.567600   -2.512640   84.363300
  H      3.557630   -1.994900   82.979300
  C      2.525080   -3.207620   84.594600
  H      2.716250   -4.104660   85.275000
  H      2.106550   -2.381180   85.242500
  H      1.734680   -3.544930   83.910800
  S     -1.172140   -6.603400   80.508100
  C     -1.623000   -8.353110   80.327900
  C     -0.497308   -9.110430   80.489700
  C      0.672783   -8.405550   80.851500
  C      0.479941   -7.033750   80.815000
  H     -0.606534  -10.215900   80.392900
  C      2.025200   -9.036730   81.061800
  H      1.795590  -10.074800   81.300800
  H      2.423190   -8.598300   82.030400
  C      3.018280   -8.796170   79.851300
  H      3.309090   -7.774550   79.813300
  H      2.572880   -8.891270   78.843500
  C      4.207350   -9.746520   79.953000
  H      4.836460   -9.479420   80.843700
  H      4.817160   -9.619330   79.061200
  H      3.898580  -10.802900   79.993400
  H      3.453500   -3.042320   80.166900
  H     -2.637000   -8.663150   80.059100

 Total Charge           Charge          ....    0
 Multiplicity           Mult            ....    1
 Number of Electrons    NEL             ....  134
 Basis Dimension        Dim             ....  322

ORBITAL ENERGIES
----------------

  NO   OCC          E(Eh)            E(eV)
   0   2.0000     -88.968526     -2420.9567
   1   2.0000     -88.963148     -2420.8103
   2   2.0000     -10.333504      -281.1889
   3   2.0000     -10.324269      -280.9376
   4   2.0000     -10.321793      -280.8703
   5   2.0000     -10.318677      -280.7855
   6   2.0000     -10.301564      -280.3198
   7   2.0000     -10.298685      -280.2415
   8   2.0000     -10.297032      -280.1965
   9   2.0000     -10.296429      -280.1801
  10   2.0000     -10.295629      -280.1583
  11   2.0000     -10.295254      -280.1481
  12   2.0000     -10.293972      -280.1132
  13   2.0000     -10.287773      -279.9445
  14   2.0000     -10.284039      -279.8429
  15   2.0000     -10.278087      -279.6810
  16   2.0000      -8.082799      -219.9441
  17   2.0000      -8.077377      -219.7966
  18   2.0000      -6.041233      -164.3903
  19   2.0000      -6.037593      -164.2912
  20   2.0000      -6.035913      -164.2456
  21   2.0000      -6.033431      -164.1780
  22   2.0000      -6.031987      -164.1387
  23   2.0000      -6.028106      -164.0331
  24   2.0000      -1.005361       -27.3573
  25   2.0000      -0.984077       -26.7781
  26   2.0000      -0.907654       -24.6985
  27   2.0000      -0.900386       -24.5008
  28   2.0000      -0.866349       -23.5745
  29   2.0000      -0.848387       -23.0858
  30   2.0000      -0.842929       -22.9373
  31   2.0000      -0.811767       -22.0893
  32   2.0000      -0.779106       -21.2005
  33   2.0000      -0.764695       -20.8084
  34   2.0000      -0.707049       -19.2398
  35   2.0000      -0.703077       -19.1317
  36   2.0000      -0.691690       -18.8218
  37   2.0000      -0.660593       -17.9757
  38   2.0000      -0.636476       -17.3194
  39   2.0000      -0.615570       -16.7505
  40   2.0000      -0.590473       -16.0676
  41   2.0000      -0.572746       -15.5852
  42   2.0000      -0.554222       -15.0812
  43   2.0000      -0.542959       -14.7747
  44   2.0000      -0.540105       -14.6970
  45   2.0000      -0.525085       -14.2883
  46   2.0000      -0.519290       -14.1306
  47   2.0000      -0.505002       -13.7418
  48   2.0000      -0.500310       -13.6141
  49   2.0000      -0.489846       -13.3294
  50   2.0000      -0.484867       -13.1939
  51   2.0000      -0.472354       -12.8534
  52   2.0000      -0.470471       -12.8022
  53   2.0000      -0.465633       -12.6705
  54   2.0000      -0.457629       -12.4527
  55   2.0000      -0.446622       -12.1532
  56   2.0000      -0.444186       -12.0869
  57   2.0000      -0.434984       -11.8365
  58   2.0000      -0.434691       -11.8285
  59   2.0000      -0.429476       -11.6866
  60   2.0000      -0.421512       -11.4699
  61   2.0000      -0.416350       -11.3295
  62   2.0000      -0.413389       -11.2489
  63   2.0000      -0.344613        -9.3774
  64   2.0000      -0.331306        -9.0153
  65   2.0000      -0.328829        -8.9479
  66   2.0000      -0.292288        -7.9536
  67   0.0000       0.025988         0.7072
  68   0.0000       0.057868         1.5747
  69   0.0000       0.106983         2.9111
  70   0.0000       0.125722         3.4211
  71   0.0000       0.128208         3.4887

MULLIKEN ATOMIC CHARGES
-----------------------
   0 S :    0.111681
   1 C :   -0.136011
   2 C :   -0.079326
   3 C :    0.038338
   4 C :   -0.176388
   5 H :    0.005311
   6 C :    0.078970
   7 H :    0.024649
   8 H :    0.014515
   9 C :   -0.057647
  10 H :    0.038768
  11 H :    0.036792
  12 C :   -0.113026
  13 H :    0.038824
  14 H :    0.050299
  15 H :    0.047537
  16 S :    0.090421
  17 C :   -0.114638
  18 C :   -0.037587
  19 C :   -0.043748
  20 C :   -0.163201
  21 H :    0.034385
  22 C :    0.075132
  23 H :    0.014050
  24 H :    0.033431
  25 C :   -0.061175
  26 H :    0.035450
  27 H :    0.031567
  28 C :   -0.050269
  29 H :    0.037025
  30 H :    0.031905
  31 H :    0.035592
  32 H :    0.063008
  33 H :    0.065369
Sum of atomic charges:   -0.0000000

LOEWDIN ATOMIC CHARGES
----------------------
   0 S :    0.397132
   1 C :   -0.199286
   2 C :   -0.072524
   3 C :   -0.054013
   4 C :   -0.187221
   5 H :    0.023460
   6 C :   -0.023636
   7 H :    0.029275
   8 H :    0.025166
   9 C :   -0.031555
  10 H :    0.023036
  11 H :    0.025072
  12 C :   -0.082473
  13 H :    0.030595
  14 H :    0.030519
  15 H :    0.027513
  16 S :    0.380168
  17 C :   -0.168224
  18 C :   -0.074111
  19 C :   -0.064390
  20 C :   -0.205532
  21 H :    0.040269
  22 C :   -0.031257
  23 H :    0.026675
  24 H :    0.038439
  25 C :   -0.036787
  26 H :    0.023901
  27 H :    0.028826
  28 C :   -0.068743
  29 H :    0.029386
  30 H :    0.025204
  31 H :    0.025277
  32 H :    0.037009
  33 H :    0.032830

  Mayer bond orders larger than 0.100000
B(  0-S ,  1-C ) :   1.1548 B(  0-S ,  4-C ) :   1.1316 B(  1-C ,  2-C ) :   1.6095
B(  1-C ,  4-C ) :   0.1010 B(  1-C , 32-H ) :   0.9527 B(  2-C ,  3-C ) :   1.2566
B(  2-C ,  6-C ) :   1.0213 B(  3-C ,  4-C ) :   1.5717 B(  3-C ,  5-H ) :   0.9856
B(  4-C , 20-C ) :   1.0454 B(  6-C ,  7-H ) :   0.9413 B(  6-C ,  8-H ) :   0.9415
B(  6-C ,  9-C ) :   1.0645 B(  9-C , 10-H ) :   0.9597 B(  9-C , 11-H ) :   0.9597
B(  9-C , 12-C ) :   1.0598 B( 12-C , 13-H ) :   0.9748 B( 12-C , 14-H ) :   0.9752
B( 12-C , 15-H ) :   0.9765 B( 16-S , 17-C ) :   1.1310 B( 16-S , 20-C ) :   1.1507
B( 17-C , 18-C ) :   1.6146 B( 17-C , 33-H ) :   0.9697 B( 18-C , 19-C ) :   1.2513
B( 18-C , 21-H ) :   0.9800 B( 19-C , 20-C ) :   1.5860 B( 19-C , 22-C ) :   1.0449
B( 22-C , 23-H ) :   0.9369 B( 22-C , 24-H ) :   0.9263 B( 22-C , 25-C ) :   1.0418
B( 25-C , 26-H ) :   0.9497 B( 25-C , 27-H ) :   0.9606 B( 25-C , 28-C ) :   1.0899
B( 28-C , 29-H ) :   0.9734 B( 28-C , 30-H ) :   0.9734 B( 28-C , 31-H ) :   0.9767

Dispersion correction           -0.014965922
FINAL SINGLE POINT ENERGY     -1339.879762678854

DIPOLE MOMENT
-------------
                                X             Y             Z
Electronic contribution:    -19.39759       3.58096     -12.20401
Nuclear contribution   :     19.80196      -3.75901      12.47988
                        -----------------------------------------
Total Dipole Moment    :      0.40436      -0.17804       0.27587
                        -----------------------------------------
Magnitude (a.u.)       :      0.52088
Magnitude (Debye)      :      1.32396

Rotational constants in cm-1:     0.018373     0.008869     0.007397
Rotational constants in MHz :   550.815108   265.871563   221.750844

                             ****ORCA TERMINATED NORMALLY****
TOTAL RUN TIME: 0 days 0 hours 0 minutes 35 seconds 530 msec
