                         Program Version 4.2.1 -  RELEASE  -
|  1> ! wB97X-D3 SP def2-SVP
|  2> %pal
|  3> nprocs 16
|  4> end
|  5>
|  6> * xyz 0 1
|  7> S 	 47.1394 	 11.8785 	 50.0844
|  8> C 	 46.9392 	 11.8623 	 48.3616
|  9> C 	 46.2 	 12.9865 	 47.9244
| 10> C 	 45.9383 	 13.8941 	 48.9912
| 11> C 	 46.3214 	 13.387 	 50.2133
| 12> H 	 45.5296 	 14.8843 	 48.961
| 13> C 	 46.0056 	 13.2684 	 46.4521
| 14> H 	 46.7736 	 12.6434 	 45.8871
| 15> H 	 46.2788 	 14.2796 	 46.4619
| 16> C 	 44.5142 	 12.9991 	 46.033
| 17> H 	 44.4088 	 11.9184 	 46.1162
| 18> H 	 43.8057 	 13.4645 	 46.6992
| 19> C 	 44.2393 	 13.501 	 44.576
| 20> H 	 45.0292 	 13.0758 	 44.0564
| 21> H 	 43.3367 	 13.1067 	 44.1431
| 22> H 	 44.3551 	 14.5461 	 44.4786
| 23> S 	 47.8665 	 14.1777 	 52.2902
| 24> C 	 47.1735 	 15.4749 	 53.2661
| 25> C 	 45.952 	 15.8645 	 52.938
| 26> C 	 45.4012 	 15.0512 	 51.898
| 27> C 	 46.3262 	 14.191 	 51.3994
| 28> H 	 45.5669 	 16.7154 	 53.5482
| 29> C 	 43.8748 	 15.1841 	 51.4761
| 30> H 	 43.2123 	 14.6428 	 52.2179
| 31> H 	 43.7404 	 14.5892 	 50.567
| 32> C 	 43.4945 	 16.6355 	 51.2818
| 33> H 	 43.925 	 17.1884 	 50.4938
| 34> H 	 43.7948 	 17.1291 	 52.1948
| 35> C 	 41.9297 	 16.6369 	 51.0145
| 36> H 	 41.5298 	 16.131 	 51.8747
| 37> H 	 41.653 	 16.1406 	 50.1335
| 38> H 	 41.4161 	 17.5623 	 51
| 39> H 	 47.2797 	 11.0262 	 47.7122
| 40> H 	 47.7994 	 16.0151 	 53.9341
| 41> *
| 42>
| 43>                          ****END OF INPUT****

CARTESIAN COORDINATES (ANGSTROEM)
---------------------------------
  S     47.139400   11.878500   50.084400
  C     46.939200   11.862300   48.361600
  C     46.200000   12.986500   47.924400
  C     45.938300   13.894100   48.991200
  C     46.321400   13.387000   50.213300
  H     45.529600   14.884300   48.961000
  C     46.005600   13.268400   46.452100
  H     46.773600   12.643400   45.887100
  H     46.278800   14.279600   46.461900
  C     44.514200   12.999100   46.033000
  H     44.408800   11.918400   46.116200
  H     43.805700   13.464500   46.699200
  C     44.239300   13.501000   44.576000
  H     45.029200   13.075800   44.056400
  H     43.336700   13.106700   44.143100
  H     44.355100   14.546100   44.478600
  S     47.866500   14.177700   52.290200
  C     47.173500   15.474900   53.266100
  C     45.952000   15.864500   52.938000
  C     45.401200   15.051200   51.898000
  C     46.326200   14.191000   51.399400
  H     45.566900   16.715400   53.548200
  C     43.874800   15.184100   51.476100
  H     43.212300   14.642800   52.217900
  H     43.740400   14.589200   50.567000
  C     43.494500   16.635500   51.281800
  H     43.925000   17.188400   50.493800
  H     43.794800   17.129100   52.194800
  C     41.929700   16.636900   51.014500
  H     41.529800   16.131000   51.874700
  H     41.653000   16.140600   50.133500
  H     41.416100   17.562300   51.000000
  H     47.279700   11.026200   47.712200
  H     47.799400   16.015100   53.934100

 Total Charge           Charge          ....    0
 Multiplicity           Mult            ....    1
 Number of Electrons    NEL             ....  134
 Basis Dimension        Dim             ....  322

ORBITAL ENERGIES
----------------

  NO   OCC          E(Eh)            E(eV)
   0   2.0000     -88.966222     -2420.8940
   1   2.0000     -88.960973     -2420.7511
   2   2.0000     -10.322559      -280.8911
   3   2.0000     -10.320897      -280.8459
   4   2.0000     -10.314393      -280.6689
   5   2.0000     -10.307083      -280.4700
   6   2.0000     -10.303857      -280.3822
   7   2.0000     -10.301528      -280.3188
   8   2.0000     -10.300482      -280.2904
   9   2.0000     -10.293594      -280.1029
  10   2.0000     -10.291193      -280.0376
  11   2.0000     -10.290209      -280.0108
  12   2.0000     -10.289346      -279.9873
  13   2.0000     -10.286571      -279.9118
  14   2.0000     -10.271166      -279.4926
  15   2.0000     -10.268329      -279.4154
  16   2.0000      -8.081630      -219.9123
  17   2.0000      -8.075844      -219.7549
  18   2.0000      -6.040012      -164.3571
  19   2.0000      -6.036023      -164.2485
  20   2.0000      -6.034281      -164.2011
  21   2.0000      -6.032519      -164.1532
  22   2.0000      -6.030712      -164.1040
  23   2.0000      -6.026273      -163.9832
  24   2.0000      -1.011418       -27.5221
  25   2.0000      -0.985314       -26.8118
  26   2.0000      -0.910363       -24.7722
  27   2.0000      -0.907312       -24.6892
  28   2.0000      -0.872612       -23.7450
  29   2.0000      -0.854352       -23.2481
  30   2.0000      -0.843915       -22.9641
  31   2.0000      -0.815728       -22.1971
  32   2.0000      -0.781595       -21.2683
  33   2.0000      -0.770091       -20.9552
  34   2.0000      -0.711503       -19.3610
  35   2.0000      -0.705676       -19.2024
  36   2.0000      -0.698262       -19.0007
  37   2.0000      -0.658566       -17.9205
  38   2.0000      -0.638631       -17.3780
  39   2.0000      -0.617291       -16.7973
  40   2.0000      -0.597535       -16.2597
  41   2.0000      -0.569427       -15.4949
  42   2.0000      -0.565037       -15.3754
  43   2.0000      -0.557851       -15.1799
  44   2.0000      -0.528359       -14.3774
  45   2.0000      -0.525028       -14.2868
  46   2.0000      -0.519452       -14.1350
  47   2.0000      -0.512234       -13.9386
  48   2.0000      -0.502324       -13.6689
  49   2.0000      -0.491586       -13.3767
  50   2.0000      -0.489895       -13.3307
  51   2.0000      -0.483803       -13.1650
  52   2.0000      -0.470820       -12.8117
  53   2.0000      -0.467410       -12.7189
  54   2.0000      -0.461077       -12.5465
  55   2.0000      -0.452943       -12.3252
  56   2.0000      -0.446854       -12.1595
  57   2.0000      -0.441352       -12.0098
  58   2.0000      -0.437025       -11.8921
  59   2.0000      -0.429800       -11.6954
  60   2.0000      -0.424743       -11.5578
  61   2.0000      -0.413391       -11.2489
  62   2.0000      -0.411223       -11.1900
  63   2.0000      -0.354159        -9.6372
  64   2.0000      -0.334267        -9.0959
  65   2.0000      -0.328509        -8.9392
  66   2.0000      -0.285395        -7.7660
  67   0.0000       0.030145         0.8203
  68   0.0000       0.078897         2.1469
  69   0.0000       0.104849         2.8531
  70   0.0000       0.123770         3.3680
  71   0.0000       0.132909         3.6166

MULLIKEN ATOMIC CHARGES
-----------------------
   0 S :    0.114822
   1 C :   -0.150586
   2 C :   -0.095301
   3 C :    0.023702
   4 C :   -0.152565
   5 H :    0.010928
   6 C :    0.056397
   7 H :    0.039578
   8 H :    0.018634
   9 C :   -0.087387
  10 H :    0.028928
  11 H :    0.030610
  12 C :    0.015937
  13 H :    0.003168
  14 H :    0.034108
  15 H :    0.025018
  16 S :    0.086388
  17 C :   -0.075033
  18 C :   -0.057044
  19 C :   -0.025505
  20 C :   -0.140315
  21 H :    0.042052
  22 C :    0.045602
  23 H :    0.053402
  24 H :    0.019923
  25 C :   -0.070415
  26 H :    0.028092
  27 H :    0.027587
  28 C :   -0.013233
  29 H :    0.015906
  30 H :    0.023708
  31 H :    0.020572
  32 H :    0.064968
  33 H :    0.037354
Sum of atomic charges:    0.0000000

LOEWDIN ATOMIC CHARGES
----------------------
   0 S :    0.420944
   1 C :   -0.219619
   2 C :   -0.057831
   3 C :   -0.061894
   4 C :   -0.203699
   5 H :    0.030635
   6 C :   -0.029359
   7 H :    0.038717
   8 H :    0.023398
   9 C :   -0.029751
  10 H :    0.025186
  11 H :    0.019493
  12 C :   -0.057195
  13 H :    0.016546
  14 H :    0.025424
  15 H :    0.020811
  16 S :    0.367787
  17 C :   -0.164569
  18 C :   -0.081120
  19 C :   -0.058143
  20 C :   -0.177686
  21 H :    0.045559
  22 C :   -0.026269
  23 H :    0.041325
  24 H :    0.025598
  25 C :   -0.032893
  26 H :    0.019109
  27 H :    0.021545
  28 C :   -0.056479
  29 H :    0.023269
  30 H :    0.019089
  31 H :    0.019050
  32 H :    0.034527
  33 H :    0.018496

  Mayer bond orders larger than 0.100000
B(  0-S ,  1-C ) :   1.1408 B(  0-S ,  4-C ) :   1.1648 B(  1-C ,  2-C ) :   1.5799
B(  1-C , 32-H ) :   0.9651 B(  2-C ,  3-C ) :   1.2546 B(  2-C ,  6-C ) :   1.0116
B(  3-C ,  4-C ) :   1.5541 B(  3-C ,  5-H ) :   0.9921 B(  4-C , 20-C ) :   1.0553
B(  6-C ,  7-H ) :   0.9460 B(  6-C ,  8-H ) :   0.9412 B(  6-C ,  9-C ) :   1.0469
B(  9-C , 10-H ) :   0.9575 B(  9-C , 11-H ) :   0.9646 B(  9-C , 12-C ) :   1.0720
B( 12-C , 13-H ) :   0.9697 B( 12-C , 14-H ) :   0.9755 B( 12-C , 15-H ) :   0.9774
B( 16-S , 17-C ) :   1.1195 B( 16-S , 20-C ) :   1.1135 B( 17-C , 18-C ) :   1.7144
B( 17-C , 33-H ) :   0.9624 B( 18-C , 19-C ) :   1.1546 B( 18-C , 21-H ) :   0.9782
B( 19-C , 20-C ) :   1.6815 B( 19-C , 22-C ) :   1.0098 B( 22-C , 23-H ) :   0.9450
B( 22-C , 24-H ) :   0.9379 B( 22-C , 25-C ) :   1.0478 B( 25-C , 26-H ) :   0.9613
B( 25-C , 27-H ) :   0.9571 B( 25-C , 28-C ) :   1.0711 B( 28-C , 29-H ) :   0.9760
B( 28-C , 30-H ) :   0.9773 B( 28-C , 31-H ) :   0.9750

Dispersion correction           -0.013565339
FINAL SINGLE POINT ENERGY     -1339.859803509351

DIPOLE MOMENT
-------------
                                X             Y             Z
Electronic contribution:     23.22037     -11.18390      18.46713
Nuclear contribution   :    -23.60571      11.62654     -18.80651
                        -----------------------------------------
Total Dipole Moment    :     -0.38533       0.44264      -0.33938
                        -----------------------------------------
Magnitude (a.u.)       :      0.67793
Magnitude (Debye)      :      1.72315

Rotational constants in cm-1:     0.016272     0.009222     0.006273
Rotational constants in MHz :   487.818058   276.476052   188.067659

                             ****ORCA TERMINATED NORMALLY****
TOTAL RUN TIME: 0 days 0 hours 0 minutes 31 seconds 786 msec
