                         Program Version 4.2.1 -  RELEASE  -
|  1> ! wB97X-D3 SP def2-SVP
|  2> %pal
|  3> nprocs 16
|  4> end
|  5>
|  6> * xyz 0 1
|  7> S 	 -95.2781 	 40.4148 	 123.082
|  8> C 	 -93.9122 	 39.7993 	 122.155
|  9> C 	 -93.9306 	 40.2979 	 120.879
| 10> C 	 -95.0695 	 41.062 	 120.619
| 11> C 	 -95.9059 	 41.3268 	 121.69
| 12> H 	 -95.3383 	 41.4723 	 119.667
| 13> C 	 -92.9015 	 40.0067 	 119.866
| 14> H 	 -92.2614 	 40.9094 	 119.71
| 15> H 	 -93.326 	 39.8103 	 118.882
| 16> C 	 -92.0747 	 38.8055 	 120.225
| 17> H 	 -91.5167 	 39.0862 	 121.05
| 18> H 	 -92.7013 	 37.8982 	 120.457
| 19> C 	 -91.1117 	 38.3671 	 119.043
| 20> H 	 -90.2552 	 39.0646 	 118.978
| 21> H 	 -90.7083 	 37.3965 	 119.244
| 22> H 	 -91.6707 	 38.2375 	 118.09
| 23> S 	 -98.6851 	 41.2405 	 121.975
| 24> C 	 -99.6049 	 42.6893 	 121.909
| 25> C 	 -98.7985 	 43.7816 	 121.609
| 26> C 	 -97.417 	 43.4127 	 121.448
| 27> C 	 -97.1553 	 42.0802 	 121.719
| 28> H 	 -99.1422 	 44.8018 	 121.606
| 29> C 	 -96.4021 	 44.5137 	 121.105
| 30> H 	 -95.3276 	 44.211 	 121.15
| 31> H 	 -96.4687 	 45.1651 	 121.975
| 32> C 	 -96.65 	 45.3255 	 119.859
| 33> H 	 -97.543 	 45.9094 	 119.982
| 34> H 	 -96.8422 	 44.6905 	 118.985
| 35> C 	 -95.4034 	 46.0308 	 119.284
| 36> H 	 -94.6789 	 45.2208 	 119.003
| 37> H 	 -94.9437 	 46.6546 	 120.017
| 38> H 	 -95.6246 	 46.6137 	 118.429
| 39> H 	 -93.1017 	 39.182 	 122.557
| 40> H 	 -100.616 	 42.7308 	 122.176
| 41> *
| 42>
| 43>                          ****END OF INPUT****

CARTESIAN COORDINATES (ANGSTROEM)
---------------------------------
  S    -95.278100   40.414800  123.082000
  C    -93.912200   39.799300  122.155000
  C    -93.930600   40.297900  120.879000
  C    -95.069500   41.062000  120.619000
  C    -95.905900   41.326800  121.690000
  H    -95.338300   41.472300  119.667000
  C    -92.901500   40.006700  119.866000
  H    -92.261400   40.909400  119.710000
  H    -93.326000   39.810300  118.882000
  C    -92.074700   38.805500  120.225000
  H    -91.516700   39.086200  121.050000
  H    -92.701300   37.898200  120.457000
  C    -91.111700   38.367100  119.043000
  H    -90.255200   39.064600  118.978000
  H    -90.708300   37.396500  119.244000
  H    -91.670700   38.237500  118.090000
  S    -98.685100   41.240500  121.975000
  C    -99.604900   42.689300  121.909000
  C    -98.798500   43.781600  121.609000
  C    -97.417000   43.412700  121.448000
  C    -97.155300   42.080200  121.719000
  H    -99.142200   44.801800  121.606000
  C    -96.402100   44.513700  121.105000
  H    -95.327600   44.211000  121.150000
  H    -96.468700   45.165100  121.975000
  C    -96.650000   45.325500  119.859000
  H    -97.543000   45.909400  119.982000
  H    -96.842200   44.690500  118.985000
  C    -95.403400   46.030800  119.284000
  H    -94.678900   45.220800  119.003000
  H    -94.943700   46.654600  120.017000
  H    -95.624600   46.613700  118.429000
  H    -93.101700   39.182000  122.557000
  H    -100.616000   42.730800  122.176000

 Total Charge           Charge          ....    0
 Multiplicity           Mult            ....    1
 Number of Electrons    NEL             ....  134
 Basis Dimension        Dim             ....  322

ORBITAL ENERGIES
----------------

  NO   OCC          E(Eh)            E(eV)
   0   2.0000     -88.963340     -2420.8155
   1   2.0000     -88.963276     -2420.8138
   2   2.0000     -10.329822      -281.0887
   3   2.0000     -10.326505      -280.9985
   4   2.0000     -10.315571      -280.7010
   5   2.0000     -10.313589      -280.6470
   6   2.0000     -10.306335      -280.4496
   7   2.0000     -10.294867      -280.1376
   8   2.0000     -10.292841      -280.0824
   9   2.0000     -10.291398      -280.0432
  10   2.0000     -10.289134      -279.9816
  11   2.0000     -10.288832      -279.9734
  12   2.0000     -10.286167      -279.9008
  13   2.0000     -10.283756      -279.8352
  14   2.0000     -10.283162      -279.8191
  15   2.0000     -10.278183      -279.6836
  16   2.0000      -8.078549      -219.8285
  17   2.0000      -8.077417      -219.7977
  18   2.0000      -6.037061      -164.2768
  19   2.0000      -6.035939      -164.2463
  20   2.0000      -6.032898      -164.1635
  21   2.0000      -6.031955      -164.1378
  22   2.0000      -6.029347      -164.0669
  23   2.0000      -6.028256      -164.0372
  24   2.0000      -1.004969       -27.3466
  25   2.0000      -0.986507       -26.8442
  26   2.0000      -0.917882       -24.9768
  27   2.0000      -0.910559       -24.7776
  28   2.0000      -0.866803       -23.5869
  29   2.0000      -0.851597       -23.1731
  30   2.0000      -0.845702       -23.0127
  31   2.0000      -0.813150       -22.1269
  32   2.0000      -0.783205       -21.3121
  33   2.0000      -0.771671       -20.9982
  34   2.0000      -0.715823       -19.4785
  35   2.0000      -0.700913       -19.0728
  36   2.0000      -0.693010       -18.8578
  37   2.0000      -0.661126       -17.9902
  38   2.0000      -0.638985       -17.3877
  39   2.0000      -0.614326       -16.7167
  40   2.0000      -0.601702       -16.3731
  41   2.0000      -0.579880       -15.7793
  42   2.0000      -0.572779       -15.5861
  43   2.0000      -0.565329       -15.3834
  44   2.0000      -0.529423       -14.4063
  45   2.0000      -0.522107       -14.2072
  46   2.0000      -0.520217       -14.1558
  47   2.0000      -0.512683       -13.9508
  48   2.0000      -0.509786       -13.8720
  49   2.0000      -0.500049       -13.6070
  50   2.0000      -0.492610       -13.4046
  51   2.0000      -0.474970       -12.9246
  52   2.0000      -0.472333       -12.8528
  53   2.0000      -0.464805       -12.6480
  54   2.0000      -0.459293       -12.4980
  55   2.0000      -0.454129       -12.3575
  56   2.0000      -0.442104       -12.0303
  57   2.0000      -0.433777       -11.8037
  58   2.0000      -0.431731       -11.7480
  59   2.0000      -0.428650       -11.6642
  60   2.0000      -0.424660       -11.5556
  61   2.0000      -0.419861       -11.4250
  62   2.0000      -0.403218       -10.9721
  63   2.0000      -0.338791        -9.2190
  64   2.0000      -0.329843        -8.9755
  65   2.0000      -0.326789        -8.8924
  66   2.0000      -0.300914        -8.1883
  67   0.0000       0.034275         0.9327
  68   0.0000       0.066902         1.8205
  69   0.0000       0.118834         3.2336
  70   0.0000       0.127633         3.4731
  71   0.0000       0.131499         3.5783

MULLIKEN ATOMIC CHARGES
-----------------------
   0 S :    0.106465
   1 C :   -0.136128
   2 C :   -0.076348
   3 C :    0.054566
   4 C :   -0.173569
   5 H :   -0.004546
   6 C :    0.085856
   7 H :    0.043070
   8 H :    0.017439
   9 C :   -0.138008
  10 H :    0.024133
  11 H :    0.050041
  12 C :   -0.033388
  13 H :    0.038025
  14 H :    0.023822
  15 H :    0.037539
  16 S :    0.111847
  17 C :   -0.072052
  18 C :   -0.032952
  19 C :   -0.012444
  20 C :   -0.170637
  21 H :    0.020458
  22 C :    0.056209
  23 H :    0.025086
  24 H :    0.030271
  25 C :   -0.082364
  26 H :    0.024422
  27 H :    0.027512
  28 C :   -0.040768
  29 H :    0.038144
  30 H :    0.022984
  31 H :    0.032242
  32 H :    0.057234
  33 H :    0.045838
Sum of atomic charges:    0.0000000

LOEWDIN ATOMIC CHARGES
----------------------
   0 S :    0.390563
   1 C :   -0.193403
   2 C :   -0.074019
   3 C :   -0.052992
   4 C :   -0.187836
   5 H :    0.027480
   6 C :   -0.034974
   7 H :    0.040548
   8 H :    0.028701
   9 C :   -0.040058
  10 H :    0.011989
  11 H :    0.033175
  12 C :   -0.063517
  13 H :    0.027167
  14 H :    0.020966
  15 H :    0.028436
  16 S :    0.416165
  17 C :   -0.179429
  18 C :   -0.071856
  19 C :   -0.045667
  20 C :   -0.208132
  21 H :    0.029660
  22 C :   -0.038010
  23 H :    0.032828
  24 H :    0.034560
  25 C :   -0.046364
  26 H :    0.017278
  27 H :    0.028048
  28 C :   -0.055912
  29 H :    0.032804
  30 H :    0.015957
  31 H :    0.022305
  32 H :    0.033324
  33 H :    0.020214

  Mayer bond orders larger than 0.100000
B(  0-S ,  1-C ) :   1.1350 B(  0-S ,  4-C ) :   1.1451 B(  1-C ,  2-C ) :   1.6059
B(  1-C ,  4-C ) :   0.1001 B(  1-C , 32-H ) :   0.9567 B(  2-C ,  3-C ) :   1.2567
B(  2-C ,  6-C ) :   1.0219 B(  3-C ,  4-C ) :   1.5737 B(  3-C ,  5-H ) :   1.0030
B(  4-C , 20-C ) :   1.0313 B(  6-C ,  7-H ) :   0.9196 B(  6-C ,  8-H ) :   0.9410
B(  6-C ,  9-C ) :   1.0858 B(  9-C , 10-H ) :   0.9419 B(  9-C , 11-H ) :   0.9598
B(  9-C , 12-C ) :   1.0846 B( 12-C , 13-H ) :   0.9756 B( 12-C , 14-H ) :   0.9749
B( 12-C , 15-H ) :   0.9752 B( 16-S , 17-C ) :   1.1759 B( 16-S , 20-C ) :   1.1364
B( 17-C , 18-C ) :   1.5808 B( 17-C , 33-H ) :   0.9753 B( 18-C , 19-C ) :   1.2443
B( 18-C , 21-H ) :   0.9930 B( 19-C , 20-C ) :   1.6076 B( 19-C , 22-C ) :   1.0343
B( 22-C , 23-H ) :   0.9432 B( 22-C , 24-H ) :   0.9295 B( 22-C , 25-C ) :   1.0549
B( 25-C , 26-H ) :   0.9528 B( 25-C , 27-H ) :   0.9622 B( 25-C , 28-C ) :   1.0791
B( 28-C , 29-H ) :   0.9755 B( 28-C , 30-H ) :   0.9764 B( 28-C , 31-H ) :   0.9752

Dispersion correction           -0.013373832
FINAL SINGLE POINT ENERGY     -1339.884938692405

DIPOLE MOMENT
-------------
                                X             Y             Z
Electronic contribution:    -20.33324      -7.83372      18.10730
Nuclear contribution   :     20.67481       8.18297     -18.54793
                        -----------------------------------------
Total Dipole Moment    :      0.34157       0.34925      -0.44063
                        -----------------------------------------
Magnitude (a.u.)       :      0.65787
Magnitude (Debye)      :      1.67218

Rotational constants in cm-1:     0.018930     0.007657     0.005965
Rotational constants in MHz :   567.508651   229.556728   178.836710

                             ****ORCA TERMINATED NORMALLY****
TOTAL RUN TIME: 0 days 0 hours 0 minutes 32 seconds 543 msec
