                         Program Version 4.2.1 -  RELEASE  -
|  1> ! wB97X-D3 SP def2-SVP
|  2> %pal
|  3> nprocs 16
|  4> end
|  5>
|  6> * xyz 0 1
|  7> S 	 -73.3189 	 51.3326 	 137.1
|  8> C 	 -73.8044 	 49.7116 	 137.507
|  9> C 	 -75.0913 	 49.4248 	 137.118
| 10> C 	 -75.6849 	 50.5232 	 136.395
| 11> C 	 -74.844 	 51.6262 	 136.318
| 12> H 	 -76.5953 	 50.5712 	 135.863
| 13> C 	 -75.8055 	 48.0869 	 137.351
| 14> H 	 -75.1904 	 47.4795 	 138.06
| 15> H 	 -75.8199 	 47.4885 	 136.443
| 16> C 	 -77.3062 	 48.1307 	 137.776
| 17> H 	 -77.8587 	 48.6304 	 136.918
| 18> H 	 -77.6505 	 47.0832 	 137.918
| 19> C 	 -77.5005 	 48.9283 	 139.116
| 20> H 	 -77.0144 	 49.8608 	 139.049
| 21> H 	 -78.5762 	 49.2174 	 139.27
| 22> H 	 -77.0984 	 48.3757 	 139.979
| 23> S 	 -75.1768 	 52.7842 	 133.826
| 24> C 	 -75.5798 	 54.4571 	 133.663
| 25> C 	 -75.9454 	 54.9205 	 134.894
| 26> C 	 -75.6775 	 54.0246 	 135.956
| 27> C 	 -75.2017 	 52.7899 	 135.557
| 28> H 	 -76.3607 	 55.8753 	 134.954
| 29> C 	 -75.9033 	 54.4804 	 137.385
| 30> H 	 -75.8338 	 55.5489 	 137.571
| 31> H 	 -75.106 	 54.0578 	 137.956
| 32> C 	 -77.2107 	 53.8704 	 137.971
| 33> H 	 -77.3421 	 52.7814 	 137.817
| 34> H 	 -77.9756 	 54.3233 	 137.342
| 35> C 	 -77.2879 	 54.3767 	 139.43
| 36> H 	 -78.3781 	 54.3097 	 139.727
| 37> H 	 -76.9403 	 55.3903 	 139.606
| 38> H 	 -76.7238 	 53.7069 	 140.066
| 39> H 	 -73.0328 	 49.0573 	 137.905
| 40> H 	 -75.5716 	 54.9486 	 132.715
| 41> *
| 42>
| 43>                          ****END OF INPUT****

CARTESIAN COORDINATES (ANGSTROEM)
---------------------------------
  S    -73.318900   51.332600  137.100000
  C    -73.804400   49.711600  137.507000
  C    -75.091300   49.424800  137.118000
  C    -75.684900   50.523200  136.395000
  C    -74.844000   51.626200  136.318000
  H    -76.595300   50.571200  135.863000
  C    -75.805500   48.086900  137.351000
  H    -75.190400   47.479500  138.060000
  H    -75.819900   47.488500  136.443000
  C    -77.306200   48.130700  137.776000
  H    -77.858700   48.630400  136.918000
  H    -77.650500   47.083200  137.918000
  C    -77.500500   48.928300  139.116000
  H    -77.014400   49.860800  139.049000
  H    -78.576200   49.217400  139.270000
  H    -77.098400   48.375700  139.979000
  S    -75.176800   52.784200  133.826000
  C    -75.579800   54.457100  133.663000
  C    -75.945400   54.920500  134.894000
  C    -75.677500   54.024600  135.956000
  C    -75.201700   52.789900  135.557000
  H    -76.360700   55.875300  134.954000
  C    -75.903300   54.480400  137.385000
  H    -75.833800   55.548900  137.571000
  H    -75.106000   54.057800  137.956000
  C    -77.210700   53.870400  137.971000
  H    -77.342100   52.781400  137.817000
  H    -77.975600   54.323300  137.342000
  C    -77.287900   54.376700  139.430000
  H    -78.378100   54.309700  139.727000
  H    -76.940300   55.390300  139.606000
  H    -76.723800   53.706900  140.066000
  H    -73.032800   49.057300  137.905000
  H    -75.571600   54.948600  132.715000

 Total Charge           Charge          ....    0
 Multiplicity           Mult            ....    1
 Number of Electrons    NEL             ....  134
 Basis Dimension        Dim             ....  322

ORBITAL ENERGIES
----------------

  NO   OCC          E(Eh)            E(eV)
   0   2.0000     -88.968157     -2420.9466
   1   2.0000     -88.958991     -2420.6972
   2   2.0000     -10.326881      -281.0087
   3   2.0000     -10.318927      -280.7923
   4   2.0000     -10.315857      -280.7087
   5   2.0000     -10.312140      -280.6076
   6   2.0000     -10.307266      -280.4750
   7   2.0000     -10.299681      -280.2686
   8   2.0000     -10.297201      -280.2011
   9   2.0000     -10.296794      -280.1900
  10   2.0000     -10.294590      -280.1300
  11   2.0000     -10.284641      -279.8593
  12   2.0000     -10.283823      -279.8371
  13   2.0000     -10.283087      -279.8170
  14   2.0000     -10.278472      -279.6914
  15   2.0000     -10.277265      -279.6586
  16   2.0000      -8.083173      -219.9543
  17   2.0000      -8.074714      -219.7241
  18   2.0000      -6.041537      -164.3986
  19   2.0000      -6.037617      -164.2919
  20   2.0000      -6.034093      -164.1960
  21   2.0000      -6.033102      -164.1690
  22   2.0000      -6.028992      -164.0572
  23   2.0000      -6.025631      -163.9658
  24   2.0000      -1.011387       -27.5212
  25   2.0000      -0.988963       -26.9111
  26   2.0000      -0.906299       -24.6616
  27   2.0000      -0.904250       -24.6059
  28   2.0000      -0.874242       -23.7893
  29   2.0000      -0.845474       -23.0065
  30   2.0000      -0.843220       -22.9452
  31   2.0000      -0.814932       -22.1754
  32   2.0000      -0.780480       -21.2379
  33   2.0000      -0.767630       -20.8883
  34   2.0000      -0.707871       -19.2622
  35   2.0000      -0.697265       -18.9736
  36   2.0000      -0.689458       -18.7611
  37   2.0000      -0.665325       -18.1044
  38   2.0000      -0.648860       -17.6564
  39   2.0000      -0.618506       -16.8304
  40   2.0000      -0.598496       -16.2859
  41   2.0000      -0.568804       -15.4779
  42   2.0000      -0.561035       -15.2665
  43   2.0000      -0.547325       -14.8935
  44   2.0000      -0.539309       -14.6754
  45   2.0000      -0.522060       -14.2060
  46   2.0000      -0.516868       -14.0647
  47   2.0000      -0.511569       -13.9205
  48   2.0000      -0.507360       -13.8060
  49   2.0000      -0.497567       -13.5395
  50   2.0000      -0.489938       -13.3319
  51   2.0000      -0.478779       -13.0282
  52   2.0000      -0.472528       -12.8582
  53   2.0000      -0.467266       -12.7150
  54   2.0000      -0.460645       -12.5348
  55   2.0000      -0.454218       -12.3599
  56   2.0000      -0.446577       -12.1520
  57   2.0000      -0.430061       -11.7026
  58   2.0000      -0.426405       -11.6031
  59   2.0000      -0.425016       -11.5653
  60   2.0000      -0.422512       -11.4971
  61   2.0000      -0.413799       -11.2600
  62   2.0000      -0.405310       -11.0290
  63   2.0000      -0.334361        -9.0984
  64   2.0000      -0.332555        -9.0493
  65   2.0000      -0.322624        -8.7791
  66   2.0000      -0.305291        -8.3074
  67   0.0000       0.047239         1.2854
  68   0.0000       0.052581         1.4308
  69   0.0000       0.114432         3.1138
  70   0.0000       0.124160         3.3786
  71   0.0000       0.131912         3.5895

MULLIKEN ATOMIC CHARGES
-----------------------
   0 S :    0.127084
   1 C :   -0.150938
   2 C :   -0.043117
   3 C :    0.031384
   4 C :   -0.174749
   5 H :    0.006186
   6 C :    0.058446
   7 H :    0.020930
   8 H :    0.040671
   9 C :   -0.117151
  10 H :    0.045742
  11 H :    0.046070
  12 C :   -0.053217
  13 H :    0.030595
  14 H :    0.038411
  15 H :    0.038508
  16 S :    0.103971
  17 C :   -0.093999
  18 C :   -0.007761
  19 C :   -0.021539
  20 C :   -0.175444
  21 H :   -0.006436
  22 C :    0.075799
  23 H :    0.023637
  24 H :    0.005887
  25 C :   -0.091934
  26 H :    0.044460
  27 H :    0.018166
  28 C :   -0.037471
  29 H :    0.037282
  30 H :    0.031474
  31 H :    0.036185
  32 H :    0.057420
  33 H :    0.055449
Sum of atomic charges:   -0.0000000

LOEWDIN ATOMIC CHARGES
----------------------
   0 S :    0.418887
   1 C :   -0.196752
   2 C :   -0.062570
   3 C :   -0.052960
   4 C :   -0.200815
   5 H :    0.025669
   6 C :   -0.037334
   7 H :    0.029750
   8 H :    0.033365
   9 C :   -0.043534
  10 H :    0.029107
  11 H :    0.030135
  12 C :   -0.070442
  13 H :    0.017793
  14 H :    0.031044
  15 H :    0.028417
  16 S :    0.421106
  17 C :   -0.181715
  18 C :   -0.071393
  19 C :   -0.053597
  20 C :   -0.216553
  21 H :    0.021667
  22 C :   -0.030133
  23 H :    0.028402
  24 H :    0.021857
  25 C :   -0.038010
  26 H :    0.029324
  27 H :    0.018490
  28 C :   -0.065824
  29 H :    0.031516
  30 H :    0.023621
  31 H :    0.025123
  32 H :    0.029032
  33 H :    0.027325

  Mayer bond orders larger than 0.100000
B(  0-S ,  1-C ) :   1.1474 B(  0-S ,  4-C ) :   1.1550 B(  1-C ,  2-C ) :   1.6092
B(  1-C , 32-H ) :   0.9693 B(  2-C ,  3-C ) :   1.2099 B(  2-C ,  6-C ) :   1.0174
B(  3-C ,  4-C ) :   1.5862 B(  3-C ,  5-H ) :   0.9999 B(  4-C , 20-C ) :   1.0350
B(  6-C ,  7-H ) :   0.9447 B(  6-C ,  8-H ) :   0.9380 B(  6-C ,  9-C ) :   1.0683
B(  9-C , 10-H ) :   0.9527 B(  9-C , 11-H ) :   0.9576 B(  9-C , 12-C ) :   1.0696
B( 12-C , 13-H ) :   0.9758 B( 12-C , 14-H ) :   0.9760 B( 12-C , 15-H ) :   0.9750
B( 16-S , 17-C ) :   1.1786 B( 16-S , 20-C ) :   1.1463 B( 17-C , 18-C ) :   1.5582
B( 17-C , 20-C ) :   0.1017 B( 17-C , 33-H ) :   0.9758 B( 18-C , 19-C ) :   1.2651
B( 18-C , 21-H ) :   1.0080 B( 19-C , 20-C ) :   1.5720 B( 19-C , 22-C ) :   1.0408
B( 22-C , 23-H ) :   0.9458 B( 22-C , 24-H ) :   0.9256 B( 22-C , 25-C ) :   1.0509
B( 25-C , 26-H ) :   0.9572 B( 25-C , 27-H ) :   0.9583 B( 25-C , 28-C ) :   1.0690
B( 28-C , 29-H ) :   0.9753 B( 28-C , 30-H ) :   0.9724 B( 28-C , 31-H ) :   0.9768

Dispersion correction           -0.015224346
FINAL SINGLE POINT ENERGY     -1339.886252017187

DIPOLE MOMENT
-------------
                                X             Y             Z
Electronic contribution:     17.90236       4.39562     -19.24401
Nuclear contribution   :    -18.22009      -4.46579      19.42787
                        -----------------------------------------
Total Dipole Moment    :     -0.31773      -0.07016       0.18386
                        -----------------------------------------
Magnitude (a.u.)       :      0.37374
Magnitude (Debye)      :      0.94996

Rotational constants in cm-1:     0.017370     0.009637     0.007887
Rotational constants in MHz :   520.743487   288.895838   236.448715

                             ****ORCA TERMINATED NORMALLY****
TOTAL RUN TIME: 0 days 0 hours 0 minutes 34 seconds 343 msec
