                         Program Version 4.2.1 -  RELEASE  -
|  1> ! wB97X-D3 SP def2-SVP
|  2> %pal
|  3> nprocs 16
|  4> end
|  5>
|  6> * xyz 0 1
|  7> S 	 7.3451 	 -10.2039 	 93.6486
|  8> C 	 9.02732 	 -9.77232 	 93.7883
|  9> C 	 9.69768 	 -9.95488 	 92.5898
| 10> C 	 8.79705 	 -10.4743 	 91.5573
| 11> C 	 7.49512 	 -10.4789 	 91.9339
| 12> H 	 9.14498 	 -10.7691 	 90.5688
| 13> C 	 11.1884 	 -9.83565 	 92.3026
| 14> H 	 11.543 	 -10.8895 	 92.0554
| 15> H 	 11.6639 	 -9.49868 	 93.1795
| 16> C 	 11.7483 	 -8.84868 	 91.2376
| 17> H 	 12.8531 	 -8.86766 	 91.2139
| 18> H 	 11.3978 	 -9.26052 	 90.2938
| 19> C 	 11.2598 	 -7.40682 	 91.4088
| 20> H 	 10.2092 	 -7.30527 	 91.4847
| 21> H 	 11.7064 	 -7.00255 	 92.3609
| 22> H 	 11.4789 	 -6.75274 	 90.5024
| 23> S 	 5.91405 	 -12.6504 	 91.3224
| 24> C 	 5.37086 	 -12.8387 	 89.6645
| 25> C 	 5.39834 	 -11.6058 	 89.0243
| 26> C 	 6.06886 	 -10.589 	 89.7808
| 27> C 	 6.51774 	 -11.0159 	 91.0463
| 28> H 	 5.0728 	 -11.508 	 88.0526
| 29> C 	 6.1855 	 -9.16573 	 89.2036
| 30> H 	 6.30659 	 -9.27695 	 88.0886
| 31> H 	 7.16529 	 -8.77846 	 89.5422
| 32> C 	 5.06314 	 -8.19154 	 89.5397
| 33> H 	 4.17746 	 -8.39726 	 88.9404
| 34> H 	 5.29333 	 -7.16167 	 89.2131
| 35> C 	 4.85156 	 -7.93202 	 91.1382
| 36> H 	 4.77663 	 -8.83467 	 91.8311
| 37> H 	 3.98685 	 -7.20828 	 91.2115
| 38> H 	 5.75865 	 -7.39658 	 91.4038
| 39> H 	 9.52692 	 -9.58671 	 94.6553
| 40> H 	 4.97559 	 -13.6768 	 89.1622
| 41> *
| 42>
| 43>                          ****END OF INPUT****

CARTESIAN COORDINATES (ANGSTROEM)
---------------------------------
  S      7.345100  -10.203900   93.648600
  C      9.027320   -9.772320   93.788300
  C      9.697680   -9.954880   92.589800
  C      8.797050  -10.474300   91.557300
  C      7.495120  -10.478900   91.933900
  H      9.144980  -10.769100   90.568800
  C     11.188400   -9.835650   92.302600
  H     11.543000  -10.889500   92.055400
  H     11.663900   -9.498680   93.179500
  C     11.748300   -8.848680   91.237600
  H     12.853100   -8.867660   91.213900
  H     11.397800   -9.260520   90.293800
  C     11.259800   -7.406820   91.408800
  H     10.209200   -7.305270   91.484700
  H     11.706400   -7.002550   92.360900
  H     11.478900   -6.752740   90.502400
  S      5.914050  -12.650400   91.322400
  C      5.370860  -12.838700   89.664500
  C      5.398340  -11.605800   89.024300
  C      6.068860  -10.589000   89.780800
  C      6.517740  -11.015900   91.046300
  H      5.072800  -11.508000   88.052600
  C      6.185500   -9.165730   89.203600
  H      6.306590   -9.276950   88.088600
  H      7.165290   -8.778460   89.542200
  C      5.063140   -8.191540   89.539700
  H      4.177460   -8.397260   88.940400
  H      5.293330   -7.161670   89.213100
  C      4.851560   -7.932020   91.138200
  H      4.776630   -8.834670   91.831100
  H      3.986850   -7.208280   91.211500
  H      5.758650   -7.396580   91.403800
  H      9.526920   -9.586710   94.655300
  H      4.975590  -13.676800   89.162200

 Total Charge           Charge          ....    0
 Multiplicity           Mult            ....    1
 Number of Electrons    NEL             ....  134
 Basis Dimension        Dim             ....  322

ORBITAL ENERGIES
----------------

  NO   OCC          E(Eh)            E(eV)
   0   2.0000     -88.969367     -2420.9796
   1   2.0000     -88.964588     -2420.8495
   2   2.0000     -10.327271      -281.0193
   3   2.0000     -10.326201      -280.9902
   4   2.0000     -10.316263      -280.7198
   5   2.0000     -10.311511      -280.5905
   6   2.0000     -10.306113      -280.4436
   7   2.0000     -10.305903      -280.4379
   8   2.0000     -10.296112      -280.1715
   9   2.0000     -10.295888      -280.1654
  10   2.0000     -10.294338      -280.1232
  11   2.0000     -10.291727      -280.0521
  12   2.0000     -10.291445      -280.0444
  13   2.0000     -10.287910      -279.9483
  14   2.0000     -10.286205      -279.9019
  15   2.0000     -10.282179      -279.7923
  16   2.0000      -8.084172      -219.9815
  17   2.0000      -8.079012      -219.8411
  18   2.0000      -6.042808      -164.4332
  19   2.0000      -6.038753      -164.3228
  20   2.0000      -6.037605      -164.2916
  21   2.0000      -6.034708      -164.2128
  22   2.0000      -6.033506      -164.1800
  23   2.0000      -6.029750      -164.0778
  24   2.0000      -1.008927       -27.4543
  25   2.0000      -0.982235       -26.7280
  26   2.0000      -0.909497       -24.7487
  27   2.0000      -0.896578       -24.3971
  28   2.0000      -0.876695       -23.8561
  29   2.0000      -0.846699       -23.0398
  30   2.0000      -0.836950       -22.7746
  31   2.0000      -0.813745       -22.1431
  32   2.0000      -0.780865       -21.2484
  33   2.0000      -0.769795       -20.9472
  34   2.0000      -0.712214       -19.3803
  35   2.0000      -0.699611       -19.0374
  36   2.0000      -0.691429       -18.8147
  37   2.0000      -0.662268       -18.0212
  38   2.0000      -0.643453       -17.5092
  39   2.0000      -0.622482       -16.9386
  40   2.0000      -0.585547       -15.9336
  41   2.0000      -0.570298       -15.5186
  42   2.0000      -0.553048       -15.0492
  43   2.0000      -0.545453       -14.8425
  44   2.0000      -0.542060       -14.7502
  45   2.0000      -0.536589       -14.6013
  46   2.0000      -0.517319       -14.0770
  47   2.0000      -0.509259       -13.8576
  48   2.0000      -0.506399       -13.7798
  49   2.0000      -0.495566       -13.4850
  50   2.0000      -0.493348       -13.4247
  51   2.0000      -0.476573       -12.9682
  52   2.0000      -0.466521       -12.6947
  53   2.0000      -0.460046       -12.5185
  54   2.0000      -0.455673       -12.3995
  55   2.0000      -0.450819       -12.2674
  56   2.0000      -0.448748       -12.2110
  57   2.0000      -0.432905       -11.7799
  58   2.0000      -0.428786       -11.6679
  59   2.0000      -0.424153       -11.5418
  60   2.0000      -0.414682       -11.2841
  61   2.0000      -0.412708       -11.2304
  62   2.0000      -0.405768       -11.0415
  63   2.0000      -0.343708        -9.3528
  64   2.0000      -0.327663        -8.9162
  65   2.0000      -0.325474        -8.8566
  66   2.0000      -0.299902        -8.1608
  67   0.0000       0.034575         0.9408
  68   0.0000       0.057070         1.5530
  69   0.0000       0.109879         2.9900
  70   0.0000       0.118220         3.2169
  71   0.0000       0.125860         3.4248

MULLIKEN ATOMIC CHARGES
-----------------------
   0 S :    0.111667
   1 C :   -0.068665
   2 C :   -0.102399
   3 C :    0.025061
   4 C :   -0.142749
   5 H :    0.023612
   6 C :    0.056333
   7 H :    0.054146
   8 H :   -0.001506
   9 C :   -0.058816
  10 H :    0.042183
  11 H :    0.017280
  12 C :   -0.076310
  13 H :    0.032740
  14 H :    0.036441
  15 H :    0.045109
  16 S :    0.108489
  17 C :   -0.076019
  18 C :   -0.006039
  19 C :   -0.052277
  20 C :   -0.158915
  21 H :   -0.010845
  22 C :    0.060728
  23 H :    0.027979
  24 H :    0.020547
  25 C :   -0.059697
  26 H :    0.026717
  27 H :    0.026779
  28 C :   -0.096933
  29 H :    0.062559
  30 H :    0.047034
  31 H :    0.034999
  32 H :    0.008344
  33 H :    0.042424
Sum of atomic charges:    0.0000000

LOEWDIN ATOMIC CHARGES
----------------------
   0 S :    0.409295
   1 C :   -0.182413
   2 C :   -0.058411
   3 C :   -0.047083
   4 C :   -0.207133
   5 H :    0.033001
   6 C :   -0.035170
   7 H :    0.044381
   8 H :    0.017772
   9 C :   -0.041083
  10 H :    0.030536
  11 H :    0.016557
  12 C :   -0.072911
  13 H :    0.019291
  14 H :    0.029986
  15 H :    0.035903
  16 S :    0.400750
  17 C :   -0.175187
  18 C :   -0.063726
  19 C :   -0.049413
  20 C :   -0.198171
  21 H :    0.017201
  22 C :   -0.039254
  23 H :    0.034030
  24 H :    0.028742
  25 C :   -0.042652
  26 H :    0.019267
  27 H :    0.028016
  28 C :   -0.073423
  29 H :    0.030477
  30 H :    0.032496
  31 H :    0.023652
  32 H :    0.009962
  33 H :    0.024715

  Mayer bond orders larger than 0.100000
B(  0-S ,  1-C ) :   1.1295 B(  0-S ,  4-C ) :   1.1253 B(  1-C ,  2-C ) :   1.6302
B(  1-C , 32-H ) :   0.9757 B(  2-C ,  3-C ) :   1.2086 B(  2-C ,  6-C ) :   1.0286
B(  3-C ,  4-C ) :   1.5969 B(  3-C ,  5-H ) :   0.9943 B(  4-C , 20-C ) :   1.0464
B(  6-C ,  7-H ) :   0.9415 B(  6-C ,  8-H ) :   0.9380 B(  6-C ,  9-C ) :   1.0618
B(  9-C , 10-H ) :   0.9575 B(  9-C , 11-H ) :   0.9553 B(  9-C , 12-C ) :   1.0734
B( 12-C , 13-H ) :   0.9745 B( 12-C , 14-H ) :   0.9754 B( 12-C , 15-H ) :   0.9735
B( 16-S , 17-C ) :   1.1611 B( 16-S , 20-C ) :   1.1278 B( 17-C , 18-C ) :   1.5949
B( 17-C , 20-C ) :   0.1008 B( 17-C , 33-H ) :   0.9721 B( 18-C , 19-C ) :   1.2530
B( 18-C , 21-H ) :   0.9995 B( 19-C , 20-C ) :   1.5837 B( 19-C , 22-C ) :   1.0367
B( 22-C , 23-H ) :   0.9359 B( 22-C , 24-H ) :   0.9329 B( 22-C , 25-C ) :   1.0763
B( 25-C , 26-H ) :   0.9594 B( 25-C , 27-H ) :   0.9546 B( 25-C , 28-C ) :   1.0463
B( 28-C , 29-H ) :   0.9757 B( 28-C , 30-H ) :   0.9763 B( 28-C , 31-H ) :   0.9780

Dispersion correction           -0.015377846
FINAL SINGLE POINT ENERGY     -1339.861674086963

DIPOLE MOMENT
-------------
                                X             Y             Z
Electronic contribution:    -10.87197     -20.02483       9.84767
Nuclear contribution   :     11.31681      20.22567     -10.35186
                        -----------------------------------------
Total Dipole Moment    :      0.44485       0.20084      -0.50418
                        -----------------------------------------
Magnitude (a.u.)       :      0.70173
Magnitude (Debye)      :      1.78366

Rotational constants in cm-1:     0.018658     0.009014     0.008052
Rotational constants in MHz :   559.356871   270.222937   241.407673

                             ****ORCA TERMINATED NORMALLY****
TOTAL RUN TIME: 0 days 0 hours 0 minutes 33 seconds 87 msec
