                         Program Version 4.2.1 -  RELEASE  -
|  1> ! wB97X-D3 SP def2-SVP
|  2> %pal
|  3> nprocs 16
|  4> end
|  5>
|  6> * xyz 0 1
|  7> S 	 -22.3062 	 32.0821 	 46.5409
|  8> C 	 -20.593 	 31.6248 	 46.8685
|  9> C 	 -20.1174 	 30.6189 	 46.0084
| 10> C 	 -21.1081 	 30.2842 	 45.0412
| 11> C 	 -22.2503 	 31.0613 	 45.099
| 12> H 	 -20.9538 	 29.6146 	 44.2534
| 13> C 	 -18.7867 	 29.8367 	 46.1984
| 14> H 	 -19.1703 	 28.9246 	 46.6583
| 15> H 	 -18.0698 	 30.3161 	 47.0031
| 16> C 	 -18.0141 	 29.6198 	 44.9076
| 17> H 	 -18.5962 	 29.1796 	 44.1032
| 18> H 	 -17.4861 	 30.5181 	 44.559
| 19> C 	 -16.8284 	 28.6829 	 45.0477
| 20> H 	 -17.1708 	 27.7039 	 45.3309
| 21> H 	 -16.199 	 28.7607 	 44.2515
| 22> H 	 -16.2743 	 28.9559 	 45.9194
| 23> S 	 -24.5935 	 32.0958 	 44.2663
| 24> C 	 -25.6556 	 31.3086 	 43.1112
| 25> C 	 -24.9669 	 30.2745 	 42.4735
| 26> C 	 -23.708 	 29.9744 	 43.1608
| 27> C 	 -23.3535 	 30.9159 	 44.1634
| 28> H 	 -25.4865 	 29.7542 	 41.6972
| 29> C 	 -22.7992 	 28.9057 	 42.7271
| 30> H 	 -23.3679 	 28.2364 	 42.0272
| 31> H 	 -22.68 	 28.1662 	 43.5639
| 32> C 	 -21.6044 	 29.2034 	 41.7368
| 33> H 	 -20.9845 	 30.0708 	 42.0369
| 34> H 	 -22.0466 	 29.4991 	 40.7883
| 35> C 	 -20.7504 	 27.9848 	 41.5224
| 36> H 	 -20.1834 	 27.7307 	 42.3789
| 37> H 	 -20.1845 	 27.967 	 40.5395
| 38> H 	 -21.4374 	 27.1443 	 41.3894
| 39> H 	 -20.033 	 32.0437 	 47.6909
| 40> H 	 -26.6479 	 31.6522 	 42.8975
| 41> *
| 42>
| 43>                          ****END OF INPUT****

CARTESIAN COORDINATES (ANGSTROEM)
---------------------------------
  S    -22.306200   32.082100   46.540900
  C    -20.593000   31.624800   46.868500
  C    -20.117400   30.618900   46.008400
  C    -21.108100   30.284200   45.041200
  C    -22.250300   31.061300   45.099000
  H    -20.953800   29.614600   44.253400
  C    -18.786700   29.836700   46.198400
  H    -19.170300   28.924600   46.658300
  H    -18.069800   30.316100   47.003100
  C    -18.014100   29.619800   44.907600
  H    -18.596200   29.179600   44.103200
  H    -17.486100   30.518100   44.559000
  C    -16.828400   28.682900   45.047700
  H    -17.170800   27.703900   45.330900
  H    -16.199000   28.760700   44.251500
  H    -16.274300   28.955900   45.919400
  S    -24.593500   32.095800   44.266300
  C    -25.655600   31.308600   43.111200
  C    -24.966900   30.274500   42.473500
  C    -23.708000   29.974400   43.160800
  C    -23.353500   30.915900   44.163400
  H    -25.486500   29.754200   41.697200
  C    -22.799200   28.905700   42.727100
  H    -23.367900   28.236400   42.027200
  H    -22.680000   28.166200   43.563900
  C    -21.604400   29.203400   41.736800
  H    -20.984500   30.070800   42.036900
  H    -22.046600   29.499100   40.788300
  C    -20.750400   27.984800   41.522400
  H    -20.183400   27.730700   42.378900
  H    -20.184500   27.967000   40.539500
  H    -21.437400   27.144300   41.389400
  H    -20.033000   32.043700   47.690900
  H    -26.647900   31.652200   42.897500

 Total Charge           Charge          ....    0
 Multiplicity           Mult            ....    1
 Number of Electrons    NEL             ....  134
 Basis Dimension        Dim             ....  322

ORBITAL ENERGIES
----------------

  NO   OCC          E(Eh)            E(eV)
   0   2.0000     -88.970877     -2421.0206
   1   2.0000     -88.962099     -2420.7818
   2   2.0000     -10.333674      -281.1936
   3   2.0000     -10.328700      -281.0582
   4   2.0000     -10.318173      -280.7718
   5   2.0000     -10.318155      -280.7713
   6   2.0000     -10.309296      -280.5302
   7   2.0000     -10.308011      -280.4952
   8   2.0000     -10.307922      -280.4928
   9   2.0000     -10.300418      -280.2886
  10   2.0000     -10.296876      -280.1923
  11   2.0000     -10.292915      -280.0845
  12   2.0000     -10.289255      -279.9849
  13   2.0000     -10.286881      -279.9203
  14   2.0000     -10.281266      -279.7675
  15   2.0000     -10.265695      -279.3438
  16   2.0000      -8.084150      -219.9809
  17   2.0000      -8.077563      -219.8017
  18   2.0000      -6.042794      -164.4328
  19   2.0000      -6.039095      -164.3321
  20   2.0000      -6.036050      -164.2493
  21   2.0000      -6.034617      -164.2103
  22   2.0000      -6.031754      -164.1324
  23   2.0000      -6.028551      -164.0452
  24   2.0000      -1.005079       -27.3496
  25   2.0000      -0.977630       -26.6027
  26   2.0000      -0.914949       -24.8970
  27   2.0000      -0.910976       -24.7889
  28   2.0000      -0.872080       -23.7305
  29   2.0000      -0.856607       -23.3095
  30   2.0000      -0.847967       -23.0743
  31   2.0000      -0.816724       -22.2242
  32   2.0000      -0.781553       -21.2671
  33   2.0000      -0.767158       -20.8754
  34   2.0000      -0.709791       -19.3144
  35   2.0000      -0.700268       -19.0553
  36   2.0000      -0.692765       -18.8511
  37   2.0000      -0.668163       -18.1816
  38   2.0000      -0.636548       -17.3214
  39   2.0000      -0.626006       -17.0345
  40   2.0000      -0.593005       -16.1365
  41   2.0000      -0.573225       -15.5982
  42   2.0000      -0.567302       -15.4371
  43   2.0000      -0.564401       -15.3581
  44   2.0000      -0.541249       -14.7281
  45   2.0000      -0.529305       -14.4031
  46   2.0000      -0.516688       -14.0598
  47   2.0000      -0.511317       -13.9136
  48   2.0000      -0.505362       -13.7516
  49   2.0000      -0.500193       -13.6110
  50   2.0000      -0.493701       -13.4343
  51   2.0000      -0.480922       -13.0866
  52   2.0000      -0.469268       -12.7694
  53   2.0000      -0.464488       -12.6394
  54   2.0000      -0.455331       -12.3902
  55   2.0000      -0.452430       -12.3113
  56   2.0000      -0.445601       -12.1254
  57   2.0000      -0.442522       -12.0416
  58   2.0000      -0.439499       -11.9594
  59   2.0000      -0.426061       -11.5937
  60   2.0000      -0.419849       -11.4247
  61   2.0000      -0.411467       -11.1966
  62   2.0000      -0.402091       -10.9415
  63   2.0000      -0.359363        -9.7788
  64   2.0000      -0.335006        -9.1160
  65   2.0000      -0.325242        -8.8503
  66   2.0000      -0.278609        -7.5813
  67   0.0000       0.015729         0.4280
  68   0.0000       0.086561         2.3555
  69   0.0000       0.092159         2.5078
  70   0.0000       0.117006         3.1839
  71   0.0000       0.124387         3.3847

MULLIKEN ATOMIC CHARGES
-----------------------
   0 S :    0.108451
   1 C :   -0.134831
   2 C :   -0.034061
   3 C :   -0.000272
   4 C :   -0.065507
   5 H :   -0.037407
   6 C :    0.027411
   7 H :    0.048065
   8 H :    0.044101
   9 C :   -0.105246
  10 H :    0.037410
  11 H :    0.037202
  12 C :    0.019449
  13 H :    0.013691
  14 H :    0.019928
  15 H :    0.001440
  16 S :    0.081081
  17 C :   -0.097242
  18 C :   -0.006219
  19 C :   -0.063300
  20 C :   -0.107957
  21 H :    0.018232
  22 C :   -0.036270
  23 H :    0.010684
  24 H :    0.050439
  25 C :   -0.050351
  26 H :    0.040323
  27 H :    0.025303
  28 C :   -0.034749
  29 H :    0.028833
  30 H :    0.049481
  31 H :    0.011702
  32 H :    0.044031
  33 H :    0.056153
Sum of atomic charges:    0.0000000

LOEWDIN ATOMIC CHARGES
----------------------
   0 S :    0.375037
   1 C :   -0.183360
   2 C :   -0.052389
   3 C :   -0.057905
   4 C :   -0.177811
   5 H :    0.019759
   6 C :   -0.033377
   7 H :    0.036539
   8 H :    0.043228
   9 C :   -0.045151
  10 H :    0.022804
  11 H :    0.032052
  12 C :   -0.051032
  13 H :    0.020313
  14 H :    0.014292
  15 H :    0.019885
  16 S :    0.413873
  17 C :   -0.182553
  18 C :   -0.063770
  19 C :   -0.067612
  20 C :   -0.196501
  21 H :    0.030851
  22 C :   -0.061021
  23 H :    0.034524
  24 H :    0.039696
  25 C :   -0.039488
  26 H :    0.021418
  27 H :    0.026662
  28 C :   -0.067850
  29 H :    0.017084
  30 H :    0.038061
  31 H :    0.023896
  32 H :    0.023649
  33 H :    0.026198

  Mayer bond orders larger than 0.100000
B(  0-S ,  1-C ) :   1.1148 B(  0-S ,  4-C ) :   1.1276 B(  1-C ,  2-C ) :   1.6170
B(  1-C , 32-H ) :   0.9689 B(  2-C ,  3-C ) :   1.2312 B(  2-C ,  6-C ) :   1.0032
B(  3-C ,  4-C ) :   1.5694 B(  3-C ,  5-H ) :   0.9980 B(  4-C , 20-C ) :   1.1080
B(  6-C ,  7-H ) :   0.9434 B(  6-C ,  8-H ) :   0.9432 B(  6-C ,  9-C ) :   1.0647
B(  9-C , 10-H ) :   0.9551 B(  9-C , 11-H ) :   0.9558 B(  9-C , 12-C ) :   1.0927
B( 12-C , 13-H ) :   0.9721 B( 12-C , 14-H ) :   0.9744 B( 12-C , 15-H ) :   0.9656
B( 16-S , 17-C ) :   1.1651 B( 16-S , 20-C ) :   1.1440 B( 17-C , 18-C ) :   1.5814
B( 17-C , 33-H ) :   0.9721 B( 18-C , 19-C ) :   1.2509 B( 18-C , 21-H ) :   0.9939
B( 19-C , 20-C ) :   1.5250 B( 19-C , 22-C ) :   1.0808 B( 22-C , 23-H ) :   0.9229
B( 22-C , 24-H ) :   0.9283 B( 22-C , 25-C ) :   1.0251 B( 25-C , 26-H ) :   0.9602
B( 25-C , 27-H ) :   0.9518 B( 25-C , 28-C ) :   1.0778 B( 28-C , 29-H ) :   0.9751
B( 28-C , 30-H ) :   0.9706 B( 28-C , 31-H ) :   0.9644

Dispersion correction           -0.014503349
FINAL SINGLE POINT ENERGY     -1339.856829873512

DIPOLE MOMENT
-------------
                                X             Y             Z
Electronic contribution:    -25.18248      20.75451      11.73484
Nuclear contribution   :     25.57364     -21.34026     -12.07242
                        -----------------------------------------
Total Dipole Moment    :      0.39116      -0.58575      -0.33758
                        -----------------------------------------
Magnitude (a.u.)       :      0.78107
Magnitude (Debye)      :      1.98531

Rotational constants in cm-1:     0.018218     0.009794     0.006536
Rotational constants in MHz :   546.151019   293.628815   195.929843

                             ****ORCA TERMINATED NORMALLY****
TOTAL RUN TIME: 0 days 0 hours 0 minutes 29 seconds 754 msec
