                         Program Version 4.2.1 -  RELEASE  -
|  1> ! wB97X-D3 SP def2-SVP
|  2> %pal
|  3> nprocs 16
|  4> end
|  5>
|  6> * xyz 0 1
|  7> S 	 -67.7788 	 39.1368 	 118.396
|  8> C 	 -69.3841 	 39.2708 	 119.162
|  9> C 	 -70.3328 	 39.6864 	 118.207
| 10> C 	 -69.7369 	 39.8409 	 116.903
| 11> C 	 -68.3586 	 39.5807 	 116.796
| 12> H 	 -70.2342 	 40.1069 	 115.961
| 13> C 	 -71.8175 	 39.8995 	 118.416
| 14> H 	 -72.3354 	 39.0626 	 117.986
| 15> H 	 -72.0923 	 40.7502 	 117.793
| 16> C 	 -72.3411 	 39.979 	 119.911
| 17> H 	 -72.0012 	 39.1384 	 120.479
| 18> H 	 -71.9165 	 40.8639 	 120.331
| 19> C 	 -73.8595 	 40.0545 	 119.984
| 20> H 	 -74.3571 	 39.0067 	 120.035
| 21> H 	 -74.1983 	 40.7024 	 120.823
| 22> H 	 -74.1746 	 40.5743 	 119.103
| 23> S 	 -66.8986 	 38.2785 	 114.896
| 24> C 	 -66.1969 	 39.1588 	 113.6
| 25> C 	 -66.6038 	 40.4325 	 113.612
| 26> C 	 -67.258 	 40.8643 	 114.8
| 27> C 	 -67.5025 	 39.7325 	 115.607
| 28> H 	 -66.1474 	 41.1538 	 112.936
| 29> C 	 -67.9044 	 42.2247 	 115.021
| 30> H 	 -67.7897 	 42.663 	 116.059
| 31> H 	 -68.9648 	 42.0423 	 114.862
| 32> C 	 -67.403 	 43.2034 	 113.997
| 33> H 	 -67.6617 	 42.6844 	 113.028
| 34> H 	 -66.3422 	 43.2512 	 114.155
| 35> C 	 -67.975 	 44.6843 	 113.985
| 36> H 	 -67.3649 	 45.4098 	 113.367
| 37> H 	 -67.8832 	 45.1059 	 115.037
| 38> H 	 -69.0093 	 44.7193 	 113.632
| 39> H 	 -69.533 	 38.8294 	 120.17
| 40> H 	 -65.631 	 38.6904 	 112.712
| 41> *
| 42>
| 43>                          ****END OF INPUT****

CARTESIAN COORDINATES (ANGSTROEM)
---------------------------------
  S    -67.778800   39.136800  118.396000
  C    -69.384100   39.270800  119.162000
  C    -70.332800   39.686400  118.207000
  C    -69.736900   39.840900  116.903000
  C    -68.358600   39.580700  116.796000
  H    -70.234200   40.106900  115.961000
  C    -71.817500   39.899500  118.416000
  H    -72.335400   39.062600  117.986000
  H    -72.092300   40.750200  117.793000
  C    -72.341100   39.979000  119.911000
  H    -72.001200   39.138400  120.479000
  H    -71.916500   40.863900  120.331000
  C    -73.859500   40.054500  119.984000
  H    -74.357100   39.006700  120.035000
  H    -74.198300   40.702400  120.823000
  H    -74.174600   40.574300  119.103000
  S    -66.898600   38.278500  114.896000
  C    -66.196900   39.158800  113.600000
  C    -66.603800   40.432500  113.612000
  C    -67.258000   40.864300  114.800000
  C    -67.502500   39.732500  115.607000
  H    -66.147400   41.153800  112.936000
  C    -67.904400   42.224700  115.021000
  H    -67.789700   42.663000  116.059000
  H    -68.964800   42.042300  114.862000
  C    -67.403000   43.203400  113.997000
  H    -67.661700   42.684400  113.028000
  H    -66.342200   43.251200  114.155000
  C    -67.975000   44.684300  113.985000
  H    -67.364900   45.409800  113.367000
  H    -67.883200   45.105900  115.037000
  H    -69.009300   44.719300  113.632000
  H    -69.533000   38.829400  120.170000
  H    -65.631000   38.690400  112.712000

 Total Charge           Charge          ....    0
 Multiplicity           Mult            ....    1
 Number of Electrons    NEL             ....  134
 Basis Dimension        Dim             ....  322

ORBITAL ENERGIES
----------------

  NO   OCC          E(Eh)            E(eV)
   0   2.0000     -88.965871     -2420.8844
   1   2.0000     -88.961322     -2420.7606
   2   2.0000     -10.331353      -281.1304
   3   2.0000     -10.325969      -280.9839
   4   2.0000     -10.321837      -280.8715
   5   2.0000     -10.317508      -280.7537
   6   2.0000     -10.309341      -280.5314
   7   2.0000     -10.306774      -280.4616
   8   2.0000     -10.297629      -280.2127
   9   2.0000     -10.295623      -280.1582
  10   2.0000     -10.294544      -280.1288
  11   2.0000     -10.292822      -280.0819
  12   2.0000     -10.290203      -280.0107
  13   2.0000     -10.287799      -279.9452
  14   2.0000     -10.286336      -279.9054
  15   2.0000     -10.285817      -279.8913
  16   2.0000      -8.081724      -219.9149
  17   2.0000      -8.075410      -219.7431
  18   2.0000      -6.040032      -164.3576
  19   2.0000      -6.036018      -164.2484
  20   2.0000      -6.033958      -164.1923
  21   2.0000      -6.032672      -164.1573
  22   2.0000      -6.029842      -164.0803
  23   2.0000      -6.026334      -163.9849
  24   2.0000      -1.009185       -27.4613
  25   2.0000      -0.979605       -26.6564
  26   2.0000      -0.913158       -24.8483
  27   2.0000      -0.908243       -24.7145
  28   2.0000      -0.868082       -23.6217
  29   2.0000      -0.845996       -23.0207
  30   2.0000      -0.844063       -22.9681
  31   2.0000      -0.810414       -22.0525
  32   2.0000      -0.780712       -21.2443
  33   2.0000      -0.768307       -20.9067
  34   2.0000      -0.709195       -19.2982
  35   2.0000      -0.700709       -19.0673
  36   2.0000      -0.689665       -18.7667
  37   2.0000      -0.643621       -17.5138
  38   2.0000      -0.638765       -17.3817
  39   2.0000      -0.611217       -16.6321
  40   2.0000      -0.596958       -16.2440
  41   2.0000      -0.575536       -15.6611
  42   2.0000      -0.571904       -15.5623
  43   2.0000      -0.562549       -15.3077
  44   2.0000      -0.520442       -14.1620
  45   2.0000      -0.516221       -14.0471
  46   2.0000      -0.514042       -13.9878
  47   2.0000      -0.508691       -13.8422
  48   2.0000      -0.504493       -13.7280
  49   2.0000      -0.496001       -13.4969
  50   2.0000      -0.493673       -13.4335
  51   2.0000      -0.479772       -13.0553
  52   2.0000      -0.472991       -12.8707
  53   2.0000      -0.465002       -12.6533
  54   2.0000      -0.455727       -12.4010
  55   2.0000      -0.451634       -12.2896
  56   2.0000      -0.445434       -12.1209
  57   2.0000      -0.434957       -11.8358
  58   2.0000      -0.433231       -11.7888
  59   2.0000      -0.425289       -11.5727
  60   2.0000      -0.419281       -11.4092
  61   2.0000      -0.416667       -11.3381
  62   2.0000      -0.410755       -11.1772
  63   2.0000      -0.341472        -9.2919
  64   2.0000      -0.325089        -8.8461
  65   2.0000      -0.325029        -8.8445
  66   2.0000      -0.302831        -8.2405
  67   0.0000       0.033321         0.9067
  68   0.0000       0.064924         1.7667
  69   0.0000       0.118113         3.2140
  70   0.0000       0.125700         3.4205
  71   0.0000       0.126567         3.4441

MULLIKEN ATOMIC CHARGES
-----------------------
   0 S :    0.097076
   1 C :   -0.163041
   2 C :   -0.068587
   3 C :    0.021325
   4 C :   -0.163168
   5 H :    0.019328
   6 C :    0.041490
   7 H :    0.035519
   8 H :    0.032028
   9 C :   -0.063432
  10 H :    0.029302
  11 H :    0.028955
  12 C :   -0.064082
  13 H :    0.053887
  14 H :    0.040766
  15 H :    0.021995
  16 S :    0.126656
  17 C :   -0.109655
  18 C :   -0.054414
  19 C :   -0.053275
  20 C :   -0.179623
  21 H :    0.034400
  22 C :    0.084514
  23 H :    0.048122
  24 H :    0.031685
  25 C :   -0.151217
  26 H :    0.046637
  27 H :    0.038518
  28 C :   -0.048054
  29 H :    0.044271
  30 H :    0.036516
  31 H :    0.042179
  32 H :    0.077398
  33 H :    0.085981
Sum of atomic charges:   -0.0000000

LOEWDIN ATOMIC CHARGES
----------------------
   0 S :    0.388428
   1 C :   -0.201900
   2 C :   -0.061723
   3 C :   -0.067296
   4 C :   -0.200720
   5 H :    0.032017
   6 C :   -0.032597
   7 H :    0.032343
   8 H :    0.032118
   9 C :   -0.036829
  10 H :    0.020509
  11 H :    0.021895
  12 C :   -0.071178
  13 H :    0.037608
  14 H :    0.032162
  15 H :    0.020104
  16 S :    0.438071
  17 C :   -0.206085
  18 C :   -0.090155
  19 C :   -0.049365
  20 C :   -0.213603
  21 H :    0.033899
  22 C :   -0.034509
  23 H :    0.039988
  24 H :    0.032028
  25 C :   -0.051296
  26 H :    0.030842
  27 H :    0.022316
  28 C :   -0.073652
  29 H :    0.033257
  30 H :    0.030608
  31 H :    0.024745
  32 H :    0.036772
  33 H :    0.051197

  Mayer bond orders larger than 0.100000
B(  0-S ,  1-C ) :   1.1408 B(  0-S ,  4-C ) :   1.1576 B(  1-C ,  2-C ) :   1.5826
B(  1-C ,  4-C ) :   0.1036 B(  1-C , 32-H ) :   0.9642 B(  2-C ,  3-C ) :   1.2520
B(  2-C ,  6-C ) :   1.0176 B(  3-C ,  4-C ) :   1.5743 B(  3-C ,  5-H ) :   0.9888
B(  4-C , 20-C ) :   1.0146 B(  6-C ,  7-H ) :   0.9375 B(  6-C ,  8-H ) :   0.9389
B(  6-C ,  9-C ) :   1.0702 B(  9-C , 10-H ) :   0.9539 B(  9-C , 11-H ) :   0.9593
B(  9-C , 12-C ) :   1.0836 B( 12-C , 13-H ) :   0.9744 B( 12-C , 14-H ) :   0.9739
B( 12-C , 15-H ) :   0.9749 B( 16-S , 17-C ) :   1.1632 B( 16-S , 20-C ) :   1.1808
B( 17-C , 18-C ) :   1.6139 B( 17-C , 33-H ) :   0.9498 B( 18-C , 19-C ) :   1.2723
B( 18-C , 21-H ) :   0.9661 B( 19-C , 20-C ) :   1.5683 B( 19-C , 22-C ) :   1.0340
B( 22-C , 23-H ) :   0.9288 B( 22-C , 24-H ) :   0.9284 B( 22-C , 25-C ) :   1.0816
B( 25-C , 26-H ) :   0.9412 B( 25-C , 27-H ) :   0.9605 B( 25-C , 28-C ) :   1.0711
B( 28-C , 29-H ) :   0.9754 B( 28-C , 30-H ) :   0.9728 B( 28-C , 31-H ) :   0.9758

Dispersion correction           -0.013245650
FINAL SINGLE POINT ENERGY     -1339.872720166405

DIPOLE MOMENT
-------------
                                X             Y             Z
Electronic contribution:     19.80813     -19.85074      -1.68649
Nuclear contribution   :    -20.32168      20.23947       1.44746
                        -----------------------------------------
Total Dipole Moment    :     -0.51355       0.38873      -0.23903
                        -----------------------------------------
Magnitude (a.u.)       :      0.68701
Magnitude (Debye)      :      1.74625

Rotational constants in cm-1:     0.018571     0.007232     0.005753
Rotational constants in MHz :   556.739891   216.812379   172.478534

                             ****ORCA TERMINATED NORMALLY****
TOTAL RUN TIME: 0 days 0 hours 0 minutes 31 seconds 412 msec
