                         Program Version 4.2.1 -  RELEASE  -
|  1> ! wB97X-D3 SP def2-SVP
|  2> %pal
|  3> nprocs 16
|  4> end
|  5>
|  6> * xyz 0 1
|  7> S 	 -0.531054 	 -27.7086 	 84.7045
|  8> C 	 0.559624 	 -29.0285 	 84.1827
|  9> C 	 1.66533 	 -28.5429 	 83.4923
| 10> C 	 1.56169 	 -27.1656 	 83.2239
| 11> C 	 0.509064 	 -26.5431 	 83.8939
| 12> H 	 2.32398 	 -26.622 	 82.6541
| 13> C 	 2.78262 	 -29.4812 	 83.0794
| 14> H 	 2.39348 	 -30.3988 	 83.3164
| 15> H 	 3.64628 	 -29.444 	 83.7341
| 16> C 	 3.12259 	 -29.4713 	 81.6149
| 17> H 	 2.17802 	 -29.4579 	 81.0962
| 18> H 	 3.54657 	 -28.4545 	 81.3343
| 19> C 	 3.99284 	 -30.6321 	 81.1031
| 20> H 	 3.75139 	 -31.5924 	 81.5262
| 21> H 	 3.78889 	 -30.6557 	 79.9929
| 22> H 	 5.12252 	 -30.4589 	 81.1657
| 23> S 	 1.59734 	 -24.2606 	 84.8998
| 24> C 	 0.826692 	 -22.7358 	 84.5248
| 25> C 	 -0.521571 	 -22.9457 	 84.1443
| 26> C 	 -0.779135 	 -24.304 	 83.8509
| 27> C 	 0.333049 	 -25.1267 	 84.0257
| 28> H 	 -1.1969 	 -22.1743 	 83.9914
| 29> C 	 -2.13193 	 -24.7859 	 83.322
| 30> H 	 -2.90906 	 -24.2901 	 83.8997
| 31> H 	 -2.30497 	 -25.8284 	 83.5243
| 32> C 	 -2.30148 	 -24.5098 	 81.77
| 33> H 	 -3.08833 	 -25.1356 	 81.3997
| 34> H 	 -1.45921 	 -24.7591 	 81.1288
| 35> C 	 -2.7804 	 -23.0994 	 81.4515
| 36> H 	 -2.3202 	 -22.3833 	 82.1314
| 37> H 	 -3.87934 	 -23.0236 	 81.7735
| 38> H 	 -2.45125 	 -22.8109 	 80.423
| 39> H 	 0.551513 	 -30.1274 	 84.2858
| 40> H 	 1.11583 	 -21.7452 	 84.6292
| 41> *
| 42>
| 43>                          ****END OF INPUT****

CARTESIAN COORDINATES (ANGSTROEM)
---------------------------------
  S     -0.531054  -27.708600   84.704500
  C      0.559624  -29.028500   84.182700
  C      1.665330  -28.542900   83.492300
  C      1.561690  -27.165600   83.223900
  C      0.509064  -26.543100   83.893900
  H      2.323980  -26.622000   82.654100
  C      2.782620  -29.481200   83.079400
  H      2.393480  -30.398800   83.316400
  H      3.646280  -29.444000   83.734100
  C      3.122590  -29.471300   81.614900
  H      2.178020  -29.457900   81.096200
  H      3.546570  -28.454500   81.334300
  C      3.992840  -30.632100   81.103100
  H      3.751390  -31.592400   81.526200
  H      3.788890  -30.655700   79.992900
  H      5.122520  -30.458900   81.165700
  S      1.597340  -24.260600   84.899800
  C      0.826692  -22.735800   84.524800
  C     -0.521571  -22.945700   84.144300
  C     -0.779135  -24.304000   83.850900
  C      0.333049  -25.126700   84.025700
  H     -1.196900  -22.174300   83.991400
  C     -2.131930  -24.785900   83.322000
  H     -2.909060  -24.290100   83.899700
  H     -2.304970  -25.828400   83.524300
  C     -2.301480  -24.509800   81.770000
  H     -3.088330  -25.135600   81.399700
  H     -1.459210  -24.759100   81.128800
  C     -2.780400  -23.099400   81.451500
  H     -2.320200  -22.383300   82.131400
  H     -3.879340  -23.023600   81.773500
  H     -2.451250  -22.810900   80.423000
  H      0.551513  -30.127400   84.285800
  H      1.115830  -21.745200   84.629200

 Total Charge           Charge          ....    0
 Multiplicity           Mult            ....    1
 Number of Electrons    NEL             ....  134
 Basis Dimension        Dim             ....  322

ORBITAL ENERGIES
----------------

  NO   OCC          E(Eh)            E(eV)
   0   2.0000     -88.972558     -2421.0664
   1   2.0000     -88.968700     -2420.9614
   2   2.0000     -10.328841      -281.0621
   3   2.0000     -10.321556      -280.8638
   4   2.0000     -10.316758      -280.7333
   5   2.0000     -10.315041      -280.6865
   6   2.0000     -10.302000      -280.3317
   7   2.0000     -10.297034      -280.1965
   8   2.0000     -10.294588      -280.1300
   9   2.0000     -10.292617      -280.0764
  10   2.0000     -10.289689      -279.9967
  11   2.0000     -10.289236      -279.9844
  12   2.0000     -10.289023      -279.9785
  13   2.0000     -10.282426      -279.7990
  14   2.0000     -10.282016      -279.7879
  15   2.0000     -10.282011      -279.7877
  16   2.0000      -8.085646      -220.0216
  17   2.0000      -8.082672      -219.9407
  18   2.0000      -6.044330      -164.4746
  19   2.0000      -6.041208      -164.3896
  20   2.0000      -6.040358      -164.3665
  21   2.0000      -6.037369      -164.2852
  22   2.0000      -6.036344      -164.2573
  23   2.0000      -6.033353      -164.1759
  24   2.0000      -1.004281       -27.3279
  25   2.0000      -0.980405       -26.6782
  26   2.0000      -0.916142       -24.9295
  27   2.0000      -0.902781       -24.5659
  28   2.0000      -0.868382       -23.6299
  29   2.0000      -0.850004       -23.1298
  30   2.0000      -0.843489       -22.9525
  31   2.0000      -0.814572       -22.1656
  32   2.0000      -0.783694       -21.3254
  33   2.0000      -0.769096       -20.9282
  34   2.0000      -0.715027       -19.4569
  35   2.0000      -0.696265       -18.9463
  36   2.0000      -0.688871       -18.7451
  37   2.0000      -0.670719       -18.2512
  38   2.0000      -0.631074       -17.1724
  39   2.0000      -0.619579       -16.8596
  40   2.0000      -0.593763       -16.1571
  41   2.0000      -0.573925       -15.6173
  42   2.0000      -0.558762       -15.2047
  43   2.0000      -0.547297       -14.8927
  44   2.0000      -0.536210       -14.5910
  45   2.0000      -0.527056       -14.3419
  46   2.0000      -0.525333       -14.2950
  47   2.0000      -0.507863       -13.8197
  48   2.0000      -0.498808       -13.5732
  49   2.0000      -0.494563       -13.4578
  50   2.0000      -0.488684       -13.2978
  51   2.0000      -0.477100       -12.9825
  52   2.0000      -0.471803       -12.8384
  53   2.0000      -0.465216       -12.6592
  54   2.0000      -0.460470       -12.5300
  55   2.0000      -0.451848       -12.2954
  56   2.0000      -0.442518       -12.0415
  57   2.0000      -0.437253       -11.8983
  58   2.0000      -0.431654       -11.7459
  59   2.0000      -0.428553       -11.6615
  60   2.0000      -0.420725       -11.4485
  61   2.0000      -0.412636       -11.2284
  62   2.0000      -0.409018       -11.1299
  63   2.0000      -0.336750        -9.1634
  64   2.0000      -0.330848        -9.0028
  65   2.0000      -0.328311        -8.9338
  66   2.0000      -0.292766        -7.9666
  67   0.0000       0.022244         0.6053
  68   0.0000       0.064600         1.7578
  69   0.0000       0.099690         2.7127
  70   0.0000       0.114464         3.1147
  71   0.0000       0.128021         3.4836

MULLIKEN ATOMIC CHARGES
-----------------------
   0 S :    0.127345
   1 C :   -0.116277
   2 C :   -0.140572
   3 C :    0.027730
   4 C :   -0.159707
   5 H :    0.019949
   6 C :    0.168795
   7 H :   -0.039095
   8 H :    0.034708
   9 C :   -0.113066
  10 H :    0.027598
  11 H :    0.035874
  12 C :   -0.064612
  13 H :    0.034204
  14 H :    0.041775
  15 H :    0.049677
  16 S :    0.130151
  17 C :   -0.052711
  18 C :   -0.038383
  19 C :   -0.020593
  20 C :   -0.170242
  21 H :   -0.001554
  22 C :    0.078681
  23 H :    0.023214
  24 H :    0.009908
  25 C :   -0.052887
  26 H :    0.023942
  27 H :    0.033597
  28 C :   -0.065861
  29 H :    0.004497
  30 H :    0.039495
  31 H :    0.048784
  32 H :    0.048981
  33 H :    0.026653
Sum of atomic charges:   -0.0000000

LOEWDIN ATOMIC CHARGES
----------------------
   0 S :    0.400592
   1 C :   -0.198453
   2 C :   -0.060421
   3 C :   -0.059244
   4 C :   -0.195437
   5 H :    0.034483
   6 C :   -0.028496
   7 H :    0.014228
   8 H :    0.032911
   9 C :   -0.048083
  10 H :    0.024426
  11 H :    0.028842
  12 C :   -0.072503
  13 H :    0.021240
  14 H :    0.036521
  15 H :    0.034793
  16 S :    0.416696
  17 C :   -0.176244
  18 C :   -0.060215
  19 C :   -0.050236
  20 C :   -0.203131
  21 H :    0.015904
  22 C :   -0.026352
  23 H :    0.031545
  24 H :    0.017916
  25 C :   -0.039177
  26 H :    0.021358
  27 H :    0.026491
  28 C :   -0.075355
  29 H :    0.014741
  30 H :    0.034209
  31 H :    0.034330
  32 H :    0.035252
  33 H :    0.016870

  Mayer bond orders larger than 0.100000
B(  0-S ,  1-C ) :   1.1262 B(  0-S ,  4-C ) :   1.1347 B(  1-C ,  2-C ) :   1.6268
B(  1-C , 32-H ) :   0.9529 B(  2-C ,  3-C ) :   1.2483 B(  2-C ,  6-C ) :   1.0256
B(  3-C ,  4-C ) :   1.5477 B(  3-C ,  5-H ) :   0.9933 B(  4-C , 20-C ) :   1.0824
B(  6-C ,  7-H ) :   0.9148 B(  6-C ,  8-H ) :   0.9260 B(  6-C ,  9-C ) :   1.0662
B(  9-C , 10-H ) :   0.9589 B(  9-C , 11-H ) :   0.9497 B(  9-C , 12-C ) :   1.0795
B( 12-C , 13-H ) :   0.9757 B( 12-C , 14-H ) :   0.9758 B( 12-C , 15-H ) :   0.9747
B( 16-S , 17-C ) :   1.1633 B( 16-S , 20-C ) :   1.1390 B( 17-C , 18-C ) :   1.5754
B( 17-C , 20-C ) :   0.1104 B( 17-C , 33-H ) :   0.9759 B( 18-C , 19-C ) :   1.2676
B( 18-C , 21-H ) :   0.9932 B( 19-C , 20-C ) :   1.5545 B( 19-C , 22-C ) :   1.0496
B( 22-C , 23-H ) :   0.9399 B( 22-C , 24-H ) :   0.9307 B( 22-C , 25-C ) :   1.0542
B( 25-C , 26-H ) :   0.9592 B( 25-C , 27-H ) :   0.9625 B( 25-C , 28-C ) :   1.0716
B( 28-C , 29-H ) :   0.9768 B( 28-C , 30-H ) :   0.9732 B( 28-C , 31-H ) :   0.9717

Dispersion correction           -0.014022833
FINAL SINGLE POINT ENERGY     -1339.854448327833

DIPOLE MOMENT
-------------
                                X             Y             Z
Electronic contribution:      0.21370       6.31739      19.31777
Nuclear contribution   :     -0.18083      -6.42815     -19.66509
                        -----------------------------------------
Total Dipole Moment    :      0.03287      -0.11076      -0.34732
                        -----------------------------------------
Magnitude (a.u.)       :      0.36603
Magnitude (Debye)      :      0.93038

Rotational constants in cm-1:     0.021144     0.007116     0.006630
Rotational constants in MHz :   633.894110   213.338338   198.749301

                             ****ORCA TERMINATED NORMALLY****
TOTAL RUN TIME: 0 days 0 hours 0 minutes 31 seconds 86 msec
