                         Program Version 4.2.1 -  RELEASE  -
|  1> ! wB97X-D3 SP def2-SVP
|  2> %pal
|  3> nprocs 16
|  4> end
|  5>
|  6> * xyz 0 1
|  7> S 	 8.14426 	 -13.0406 	 64.4669
|  8> C 	 8.26173 	 -13.0636 	 66.181
|  9> C 	 7.13492 	 -12.4835 	 66.8087
| 10> C 	 6.1935 	 -12.0383 	 65.8631
| 11> C 	 6.61363 	 -12.194 	 64.5423
| 12> H 	 5.23743 	 -11.5502 	 66.092
| 13> C 	 6.95308 	 -12.4937 	 68.294
| 14> H 	 6.29366 	 -11.6804 	 68.5932
| 15> H 	 7.86239 	 -12.114 	 68.8257
| 16> C 	 6.42347 	 -13.8684 	 68.898
| 17> H 	 7.25124 	 -14.5869 	 68.9199
| 18> H 	 6.25949 	 -13.7333 	 69.9186
| 19> C 	 5.0767 	 -14.3319 	 68.4593
| 20> H 	 5.12863 	 -14.7186 	 67.4204
| 21> H 	 4.58858 	 -15.1153 	 69.0401
| 22> H 	 4.26825 	 -13.5552 	 68.519
| 23> S 	 6.62626 	 -10.8412 	 62.1125
| 24> C 	 5.18911 	 -10.8323 	 61.1781
| 25> C 	 4.13233 	 -11.5225 	 61.784
| 26> C 	 4.54125 	 -12.1169 	 62.9634
| 27> C 	 5.86007 	 -11.948 	 63.3215
| 28> H 	 3.14024 	 -11.3857 	 61.4335
| 29> C 	 3.57004 	 -12.8695 	 63.8395
| 30> H 	 2.88295 	 -12.098 	 64.373
| 31> H 	 4.15226 	 -13.4271 	 64.5417
| 32> C 	 2.75141 	 -13.9454 	 63.0539
| 33> H 	 3.40797 	 -14.4199 	 62.3875
| 34> H 	 2.05824 	 -13.4426 	 62.3527
| 35> C 	 1.8603 	 -14.9574 	 63.8284
| 36> H 	 1.56775 	 -15.7238 	 63.1175
| 37> H 	 0.918523 	 -14.5485 	 63.985
| 38> H 	 2.33515 	 -15.3108 	 64.7148
| 39> H 	 9.13212 	 -13.4539 	 66.7386
| 40> H 	 5.11692 	 -10.2159 	 60.2517
| 41> *
| 42>
| 43>                          ****END OF INPUT****

CARTESIAN COORDINATES (ANGSTROEM)
---------------------------------
  S      8.144260  -13.040600   64.466900
  C      8.261730  -13.063600   66.181000
  C      7.134920  -12.483500   66.808700
  C      6.193500  -12.038300   65.863100
  C      6.613630  -12.194000   64.542300
  H      5.237430  -11.550200   66.092000
  C      6.953080  -12.493700   68.294000
  H      6.293660  -11.680400   68.593200
  H      7.862390  -12.114000   68.825700
  C      6.423470  -13.868400   68.898000
  H      7.251240  -14.586900   68.919900
  H      6.259490  -13.733300   69.918600
  C      5.076700  -14.331900   68.459300
  H      5.128630  -14.718600   67.420400
  H      4.588580  -15.115300   69.040100
  H      4.268250  -13.555200   68.519000
  S      6.626260  -10.841200   62.112500
  C      5.189110  -10.832300   61.178100
  C      4.132330  -11.522500   61.784000
  C      4.541250  -12.116900   62.963400
  C      5.860070  -11.948000   63.321500
  H      3.140240  -11.385700   61.433500
  C      3.570040  -12.869500   63.839500
  H      2.882950  -12.098000   64.373000
  H      4.152260  -13.427100   64.541700
  C      2.751410  -13.945400   63.053900
  H      3.407970  -14.419900   62.387500
  H      2.058240  -13.442600   62.352700
  C      1.860300  -14.957400   63.828400
  H      1.567750  -15.723800   63.117500
  H      0.918523  -14.548500   63.985000
  H      2.335150  -15.310800   64.714800
  H      9.132120  -13.453900   66.738600
  H      5.116920  -10.215900   60.251700

 Total Charge           Charge          ....    0
 Multiplicity           Mult            ....    1
 Number of Electrons    NEL             ....  134
 Basis Dimension        Dim             ....  322

ORBITAL ENERGIES
----------------

  NO   OCC          E(Eh)            E(eV)
   0   2.0000     -88.968113     -2420.9454
   1   2.0000     -88.962783     -2420.8004
   2   2.0000     -10.327690      -281.0307
   3   2.0000     -10.324122      -280.9336
   4   2.0000     -10.320821      -280.8438
   5   2.0000     -10.314916      -280.6831
   6   2.0000     -10.300012      -280.2776
   7   2.0000     -10.297938      -280.2211
   8   2.0000     -10.297130      -280.1992
   9   2.0000     -10.295717      -280.1607
  10   2.0000     -10.293542      -280.1015
  11   2.0000     -10.288202      -279.9562
  12   2.0000     -10.285495      -279.8826
  13   2.0000     -10.281726      -279.7800
  14   2.0000     -10.281151      -279.7644
  15   2.0000     -10.270588      -279.4769
  16   2.0000      -8.083181      -219.9545
  17   2.0000      -8.077622      -219.8033
  18   2.0000      -6.041454      -164.3963
  19   2.0000      -6.037564      -164.2905
  20   2.0000      -6.035911      -164.2455
  21   2.0000      -6.034254      -164.2004
  22   2.0000      -6.032109      -164.1420
  23   2.0000      -6.028613      -164.0469
  24   2.0000      -1.006281       -27.3823
  25   2.0000      -0.985793       -26.8248
  26   2.0000      -0.908797       -24.7296
  27   2.0000      -0.903598       -24.5882
  28   2.0000      -0.866805       -23.5870
  29   2.0000      -0.855493       -23.2792
  30   2.0000      -0.849838       -23.1253
  31   2.0000      -0.811838       -22.0912
  32   2.0000      -0.785066       -21.3627
  33   2.0000      -0.768608       -20.9149
  34   2.0000      -0.707263       -19.2456
  35   2.0000      -0.701317       -19.0838
  36   2.0000      -0.693915       -18.8824
  37   2.0000      -0.658259       -17.9121
  38   2.0000      -0.639503       -17.4017
  39   2.0000      -0.615513       -16.7490
  40   2.0000      -0.594394       -16.1743
  41   2.0000      -0.572582       -15.5807
  42   2.0000      -0.561963       -15.2918
  43   2.0000      -0.548807       -14.9338
  44   2.0000      -0.543758       -14.7964
  45   2.0000      -0.526042       -14.3143
  46   2.0000      -0.511694       -13.9239
  47   2.0000      -0.511128       -13.9085
  48   2.0000      -0.500463       -13.6183
  49   2.0000      -0.494960       -13.4685
  50   2.0000      -0.490439       -13.3455
  51   2.0000      -0.480790       -13.0830
  52   2.0000      -0.473648       -12.8886
  53   2.0000      -0.468760       -12.7556
  54   2.0000      -0.456722       -12.4281
  55   2.0000      -0.452484       -12.3127
  56   2.0000      -0.447464       -12.1761
  57   2.0000      -0.431515       -11.7421
  58   2.0000      -0.425679       -11.5833
  59   2.0000      -0.423815       -11.5326
  60   2.0000      -0.415811       -11.3148
  61   2.0000      -0.414662       -11.2835
  62   2.0000      -0.411688       -11.2026
  63   2.0000      -0.342087        -9.3087
  64   2.0000      -0.334566        -9.1040
  65   2.0000      -0.330953        -9.0057
  66   2.0000      -0.287847        -7.8327
  67   0.0000       0.029682         0.8077
  68   0.0000       0.064023         1.7422
  69   0.0000       0.113763         3.0957
  70   0.0000       0.121743         3.3128
  71   0.0000       0.126627         3.4457

MULLIKEN ATOMIC CHARGES
-----------------------
   0 S :    0.129769
   1 C :   -0.129695
   2 C :   -0.084651
   3 C :    0.024649
   4 C :   -0.164499
   5 H :    0.020922
   6 C :    0.040325
   7 H :    0.012309
   8 H :    0.033087
   9 C :   -0.020946
  10 H :    0.028460
  11 H :    0.009305
  12 C :   -0.077431
  13 H :    0.045704
  14 H :    0.032685
  15 H :    0.028953
  16 S :    0.097363
  17 C :   -0.106812
  18 C :   -0.029025
  19 C :   -0.045483
  20 C :   -0.146147
  21 H :    0.013167
  22 C :    0.070797
  23 H :    0.052384
  24 H :    0.024189
  25 C :   -0.117121
  26 H :    0.021539
  27 H :    0.015320
  28 C :    0.020231
  29 H :    0.023591
  30 H :    0.009130
  31 H :    0.034861
  32 H :    0.058668
  33 H :    0.074402
Sum of atomic charges:    0.0000000

LOEWDIN ATOMIC CHARGES
----------------------
   0 S :    0.432256
   1 C :   -0.210739
   2 C :   -0.071180
   3 C :   -0.058949
   4 C :   -0.204301
   5 H :    0.036935
   6 C :   -0.037384
   7 H :    0.027600
   8 H :    0.038559
   9 C :   -0.039976
  10 H :    0.026305
  11 H :    0.019013
  12 C :   -0.074294
  13 H :    0.027248
  14 H :    0.028382
  15 H :    0.030550
  16 S :    0.399294
  17 C :   -0.186942
  18 C :   -0.076877
  19 C :   -0.057030
  20 C :   -0.193650
  21 H :    0.029727
  22 C :   -0.030994
  23 H :    0.040519
  24 H :    0.024306
  25 C :   -0.041036
  26 H :    0.016605
  27 H :    0.020919
  28 C :   -0.055643
  29 H :    0.032973
  30 H :    0.017386
  31 H :    0.021806
  32 H :    0.032941
  33 H :    0.035674

  Mayer bond orders larger than 0.100000
B(  0-S ,  1-C ) :   1.1702 B(  0-S ,  4-C ) :   1.1734 B(  1-C ,  2-C ) :   1.5509
B(  1-C ,  4-C ) :   0.1100 B(  1-C , 32-H ) :   0.9669 B(  2-C ,  3-C ) :   1.2840
B(  2-C ,  6-C ) :   1.0356 B(  3-C ,  4-C ) :   1.5308 B(  3-C ,  5-H ) :   0.9971
B(  4-C , 20-C ) :   1.0197 B(  6-C ,  7-H ) :   0.9385 B(  6-C ,  8-H ) :   0.9395
B(  6-C ,  9-C ) :   1.0678 B(  9-C , 10-H ) :   0.9567 B(  9-C , 11-H ) :   0.9494
B(  9-C , 12-C ) :   1.0753 B( 12-C , 13-H ) :   0.9740 B( 12-C , 14-H ) :   0.9725
B( 12-C , 15-H ) :   0.9698 B( 16-S , 17-C ) :   1.1996 B( 16-S , 20-C ) :   1.1240
B( 17-C , 18-C ) :   1.5558 B( 17-C , 20-C ) :   0.1079 B( 17-C , 33-H ) :   0.9598
B( 18-C , 19-C ) :   1.2626 B( 18-C , 21-H ) :   1.0043 B( 19-C , 20-C ) :   1.5971
B( 19-C , 22-C ) :   1.0398 B( 22-C , 23-H ) :   0.9321 B( 22-C , 24-H ) :   0.9337
B( 22-C , 25-C ) :   1.0587 B( 25-C , 26-H ) :   0.9633 B( 25-C , 27-H ) :   0.9503
B( 25-C , 28-C ) :   1.0876 B( 28-C , 29-H ) :   0.9684 B( 28-C , 30-H ) :   0.9726
B( 28-C , 31-H ) :   0.9772

Dispersion correction           -0.014532792
FINAL SINGLE POINT ENERGY     -1339.872495157004

DIPOLE MOMENT
-------------
                                X             Y             Z
Electronic contribution:     20.84030      13.42335     -17.56875
Nuclear contribution   :    -21.40873     -13.47960      18.03446
                        -----------------------------------------
Total Dipole Moment    :     -0.56843      -0.05625       0.46571
                        -----------------------------------------
Magnitude (a.u.)       :      0.73700
Magnitude (Debye)      :      1.87329

Rotational constants in cm-1:     0.016780     0.009746     0.006805
Rotational constants in MHz :   503.066728   292.176752   203.994645

                             ****ORCA TERMINATED NORMALLY****
TOTAL RUN TIME: 0 days 0 hours 0 minutes 30 seconds 702 msec
