                         Program Version 4.2.1 -  RELEASE  -
|  1> ! wB97X-D3 SP def2-SVP
|  2> %pal
|  3> nprocs 16
|  4> end
|  5>
|  6> * xyz 0 1
|  7> S 	 -13.5413 	 39.5664 	 31.9062
|  8> C 	 -14.6629 	 39.5116 	 33.2423
|  9> C 	 -13.9537 	 39.2369 	 34.4205
| 10> C 	 -12.5666 	 39.2324 	 34.3702
| 11> C 	 -12.2157 	 39.4697 	 33.0293
| 12> H 	 -11.8833 	 39.1885 	 35.1577
| 13> C 	 -14.7277 	 38.9772 	 35.7356
| 14> H 	 -15.6191 	 39.4891 	 35.6582
| 15> H 	 -14.2899 	 39.4562 	 36.596
| 16> C 	 -15.2562 	 37.5542 	 36.027
| 17> H 	 -16.1785 	 37.3886 	 36.6665
| 18> H 	 -15.6834 	 37.165 	 35.0285
| 19> C 	 -14.1687 	 36.6002 	 36.4794
| 20> H 	 -13.2844 	 36.549 	 35.8531
| 21> H 	 -13.7696 	 36.786 	 37.4996
| 22> H 	 -14.6269 	 35.6448 	 36.5519
| 23> S 	 -10.0461 	 40.9485 	 32.0265
| 24> C 	 -8.63584 	 40.045 	 31.5544
| 25> C 	 -8.82505 	 38.656 	 31.7671
| 26> C 	 -9.99972 	 38.3484 	 32.4812
| 27> C 	 -10.8775 	 39.4838 	 32.5529
| 28> H 	 -8.03507 	 37.8644 	 31.481
| 29> C 	 -10.4522 	 36.8983 	 32.7391
| 30> H 	 -9.85366 	 36.3196 	 31.9946
| 31> H 	 -11.5163 	 36.8629 	 32.4599
| 32> C 	 -10.0887 	 36.3427 	 34.1872
| 33> H 	 -10.7751 	 35.5141 	 34.3301
| 34> H 	 -10.3346 	 37.1058 	 34.8728
| 35> C 	 -8.70215 	 35.8571 	 34.3735
| 36> H 	 -8.60072 	 34.8575 	 34.0354
| 37> H 	 -8.40009 	 35.9473 	 35.4805
| 38> H 	 -8.02437 	 36.4799 	 33.7925
| 39> H 	 -15.6938 	 39.5653 	 33.2207
| 40> H 	 -7.69192 	 40.4464 	 31.2846
| 41> *
| 42>
| 43>                          ****END OF INPUT****

CARTESIAN COORDINATES (ANGSTROEM)
---------------------------------
  S    -13.541300   39.566400   31.906200
  C    -14.662900   39.511600   33.242300
  C    -13.953700   39.236900   34.420500
  C    -12.566600   39.232400   34.370200
  C    -12.215700   39.469700   33.029300
  H    -11.883300   39.188500   35.157700
  C    -14.727700   38.977200   35.735600
  H    -15.619100   39.489100   35.658200
  H    -14.289900   39.456200   36.596000
  C    -15.256200   37.554200   36.027000
  H    -16.178500   37.388600   36.666500
  H    -15.683400   37.165000   35.028500
  C    -14.168700   36.600200   36.479400
  H    -13.284400   36.549000   35.853100
  H    -13.769600   36.786000   37.499600
  H    -14.626900   35.644800   36.551900
  S    -10.046100   40.948500   32.026500
  C     -8.635840   40.045000   31.554400
  C     -8.825050   38.656000   31.767100
  C     -9.999720   38.348400   32.481200
  C    -10.877500   39.483800   32.552900
  H     -8.035070   37.864400   31.481000
  C    -10.452200   36.898300   32.739100
  H     -9.853660   36.319600   31.994600
  H    -11.516300   36.862900   32.459900
  C    -10.088700   36.342700   34.187200
  H    -10.775100   35.514100   34.330100
  H    -10.334600   37.105800   34.872800
  C     -8.702150   35.857100   34.373500
  H     -8.600720   34.857500   34.035400
  H     -8.400090   35.947300   35.480500
  H     -8.024370   36.479900   33.792500
  H    -15.693800   39.565300   33.220700
  H     -7.691920   40.446400   31.284600

 Total Charge           Charge          ....    0
 Multiplicity           Mult            ....    1
 Number of Electrons    NEL             ....  134
 Basis Dimension        Dim             ....  322

ORBITAL ENERGIES
----------------

  NO   OCC          E(Eh)            E(eV)
   0   2.0000     -88.973904     -2421.1030
   1   2.0000     -88.970973     -2421.0232
   2   2.0000     -10.327264      -281.0191
   3   2.0000     -10.323426      -280.9147
   4   2.0000     -10.318042      -280.7682
   5   2.0000     -10.310351      -280.5589
   6   2.0000     -10.303934      -280.3843
   7   2.0000     -10.302062      -280.3333
   8   2.0000     -10.301315      -280.3130
   9   2.0000     -10.296404      -280.1794
  10   2.0000     -10.295728      -280.1610
  11   2.0000     -10.292775      -280.0806
  12   2.0000     -10.282084      -279.7897
  13   2.0000     -10.280626      -279.7500
  14   2.0000     -10.277386      -279.6619
  15   2.0000     -10.270413      -279.4721
  16   2.0000      -8.088316      -220.0943
  17   2.0000      -8.085046      -220.0053
  18   2.0000      -6.046635      -164.5373
  19   2.0000      -6.043410      -164.4495
  20   2.0000      -6.042810      -164.4332
  21   2.0000      -6.039484      -164.3427
  22   2.0000      -6.039367      -164.3395
  23   2.0000      -6.036178      -164.2527
  24   2.0000      -1.007965       -27.4281
  25   2.0000      -0.981285       -26.7021
  26   2.0000      -0.907089       -24.6831
  27   2.0000      -0.905742       -24.6465
  28   2.0000      -0.867778       -23.6134
  29   2.0000      -0.855588       -23.2817
  30   2.0000      -0.852297       -23.1922
  31   2.0000      -0.811985       -22.0952
  32   2.0000      -0.784192       -21.3389
  33   2.0000      -0.766667       -20.8621
  34   2.0000      -0.709736       -19.3129
  35   2.0000      -0.694878       -18.9086
  36   2.0000      -0.691410       -18.8142
  37   2.0000      -0.655275       -17.8309
  38   2.0000      -0.648900       -17.6575
  39   2.0000      -0.616050       -16.7636
  40   2.0000      -0.589639       -16.0449
  41   2.0000      -0.566766       -15.4225
  42   2.0000      -0.552569       -15.0362
  43   2.0000      -0.550226       -14.9724
  44   2.0000      -0.546502       -14.8711
  45   2.0000      -0.538375       -14.6499
  46   2.0000      -0.513932       -13.9848
  47   2.0000      -0.513099       -13.9621
  48   2.0000      -0.504110       -13.7175
  49   2.0000      -0.498385       -13.5617
  50   2.0000      -0.487965       -13.2782
  51   2.0000      -0.480681       -13.0800
  52   2.0000      -0.473923       -12.8961
  53   2.0000      -0.467021       -12.7083
  54   2.0000      -0.459208       -12.4957
  55   2.0000      -0.449394       -12.2286
  56   2.0000      -0.447361       -12.1733
  57   2.0000      -0.436691       -11.8830
  58   2.0000      -0.432423       -11.7668
  59   2.0000      -0.421143       -11.4599
  60   2.0000      -0.417075       -11.3492
  61   2.0000      -0.412167       -11.2156
  62   2.0000      -0.402506       -10.9527
  63   2.0000      -0.343537        -9.3481
  64   2.0000      -0.332443        -9.0462
  65   2.0000      -0.322167        -8.7666
  66   2.0000      -0.294142        -8.0040
  67   0.0000       0.029037         0.7901
  68   0.0000       0.052154         1.4192
  69   0.0000       0.114278         3.1097
  70   0.0000       0.118864         3.2345
  71   0.0000       0.125618         3.4182

MULLIKEN ATOMIC CHARGES
-----------------------
   0 S :    0.139382
   1 C :   -0.077288
   2 C :   -0.091464
   3 C :    0.074686
   4 C :   -0.191643
   5 H :    0.004421
   6 C :    0.114181
   7 H :   -0.010406
   8 H :    0.018340
   9 C :   -0.113237
  10 H :    0.041875
  11 H :    0.025064
  12 C :   -0.037668
  13 H :    0.031075
  14 H :    0.023053
  15 H :    0.020299
  16 S :    0.136877
  17 C :   -0.093102
  18 C :   -0.066982
  19 C :   -0.018624
  20 C :   -0.195496
  21 H :    0.051538
  22 C :    0.011670
  23 H :    0.025656
  24 H :    0.046107
  25 C :   -0.039547
  26 H :    0.032047
  27 H :    0.015697
  28 C :   -0.036051
  29 H :    0.027716
  30 H :    0.046691
  31 H :    0.020265
  32 H :    0.015751
  33 H :    0.049120
Sum of atomic charges:   -0.0000000

LOEWDIN ATOMIC CHARGES
----------------------
   0 S :    0.431971
   1 C :   -0.195923
   2 C :   -0.050694
   3 C :   -0.045356
   4 C :   -0.194950
   5 H :    0.027772
   6 C :   -0.033969
   7 H :    0.021342
   8 H :    0.025856
   9 C :   -0.049222
  10 H :    0.032214
  11 H :    0.029258
  12 C :   -0.072138
  13 H :    0.022592
  14 H :    0.024494
  15 H :    0.021204
  16 S :    0.421402
  17 C :   -0.194421
  18 C :   -0.084334
  19 C :   -0.054796
  20 C :   -0.218702
  21 H :    0.043214
  22 C :   -0.028390
  23 H :    0.030706
  24 H :    0.034332
  25 C :   -0.037983
  26 H :    0.025284
  27 H :    0.014523
  28 C :   -0.064629
  29 H :    0.020687
  30 H :    0.040195
  31 H :    0.022040
  32 H :    0.013008
  33 H :    0.023412

  Mayer bond orders larger than 0.100000
B(  0-S ,  1-C ) :   1.1350 B(  0-S ,  4-C ) :   1.1892 B(  1-C ,  2-C ) :   1.5799
B(  1-C ,  4-C ) :   0.1077 B(  1-C , 32-H ) :   0.9773 B(  2-C ,  3-C ) :   1.2679
B(  2-C ,  6-C ) :   1.0269 B(  3-C ,  4-C ) :   1.5101 B(  3-C ,  5-H ) :   1.0096
B(  4-C , 20-C ) :   1.0608 B(  6-C ,  7-H ) :   0.9241 B(  6-C ,  8-H ) :   0.9474
B(  6-C ,  9-C ) :   1.0536 B(  9-C , 10-H ) :   0.9581 B(  9-C , 11-H ) :   0.9503
B(  9-C , 12-C ) :   1.0844 B( 12-C , 13-H ) :   0.9752 B( 12-C , 14-H ) :   0.9728
B( 12-C , 15-H ) :   0.9719 B( 16-S , 17-C ) :   1.1756 B( 16-S , 20-C ) :   1.1603
B( 17-C , 18-C ) :   1.5530 B( 17-C , 20-C ) :   0.1217 B( 17-C , 33-H ) :   0.9722
B( 18-C , 19-C ) :   1.3155 B( 18-C , 21-H ) :   0.9645 B( 19-C , 20-C ) :   1.5120
B( 19-C , 22-C ) :   1.0270 B( 22-C , 23-H ) :   0.9510 B( 22-C , 24-H ) :   0.9367
B( 22-C , 25-C ) :   1.0475 B( 25-C , 26-H ) :   0.9555 B( 25-C , 27-H ) :   0.9604
B( 25-C , 28-C ) :   1.0797 B( 28-C , 29-H ) :   0.9733 B( 28-C , 30-H ) :   0.9716
B( 28-C , 31-H ) :   0.9751

Dispersion correction           -0.015521074
FINAL SINGLE POINT ENERGY     -1339.852698515322

DIPOLE MOMENT
-------------
                                X             Y             Z
Electronic contribution:      1.68065      22.73436     -19.66655
Nuclear contribution   :     -1.70151     -23.15604      20.00786
                        -----------------------------------------
Total Dipole Moment    :     -0.02086      -0.42168       0.34131
                        -----------------------------------------
Magnitude (a.u.)       :      0.54290
Magnitude (Debye)      :      1.37995

Rotational constants in cm-1:     0.018057     0.009982     0.007159
Rotational constants in MHz :   541.335453   299.265224   214.628410

                             ****ORCA TERMINATED NORMALLY****
TOTAL RUN TIME: 0 days 0 hours 0 minutes 35 seconds 660 msec
