                         Program Version 4.2.1 -  RELEASE  -
|  1> ! wB97X-D3 SP def2-SVP
|  2> %pal
|  3> nprocs 16
|  4> end
|  5>
|  6> * xyz 0 1
|  7> S 	 -79.4554 	 43.6572 	 124.015
|  8> C 	 -80.9442 	 43.0264 	 123.356
|  9> C 	 -80.774 	 42.9225 	 121.948
| 10> C 	 -79.5744 	 43.563 	 121.523
| 11> C 	 -78.8111 	 44.0833 	 122.5
| 12> H 	 -79.2856 	 43.6497 	 120.459
| 13> C 	 -81.7993 	 42.4612 	 120.96
| 14> H 	 -81.857 	 43.3038 	 120.266
| 15> H 	 -82.7364 	 42.4846 	 121.533
| 16> C 	 -81.5669 	 41.1019 	 120.251
| 17> H 	 -82.3295 	 40.9336 	 119.429
| 18> H 	 -80.6095 	 41.2608 	 119.777
| 19> C 	 -81.7458 	 39.9683 	 121.28
| 20> H 	 -82.5646 	 40.2784 	 121.999
| 21> H 	 -81.99 	 38.9999 	 120.914
| 22> H 	 -80.7448 	 39.9194 	 121.733
| 23> S 	 -77.8344 	 46.4471 	 121.744
| 24> C 	 -76.1082 	 46.6418 	 121.703
| 25> C 	 -75.4786 	 45.4209 	 121.92
| 26> C 	 -76.3492 	 44.3609 	 122.281
| 27> C 	 -77.6382 	 44.8353 	 122.327
| 28> H 	 -74.3999 	 45.4222 	 121.981
| 29> C 	 -75.8481 	 42.9633 	 122.578
| 30> H 	 -76.1909 	 42.7159 	 123.604
| 31> H 	 -74.79 	 42.9965 	 122.618
| 32> C 	 -76.2702 	 41.7861 	 121.595
| 33> H 	 -77.364 	 41.8964 	 121.499
| 34> H 	 -76.1261 	 40.8196 	 122.14
| 35> C 	 -75.4827 	 41.89 	 120.237
| 36> H 	 -74.4197 	 41.6289 	 120.36
| 37> H 	 -75.535 	 42.9067 	 119.815
| 38> H 	 -75.9653 	 41.3174 	 119.502
| 39> H 	 -81.8768 	 42.5666 	 123.752
| 40> H 	 -75.5518 	 47.5304 	 121.443
| 41> *
| 42>
| 43>                          ****END OF INPUT****

CARTESIAN COORDINATES (ANGSTROEM)
---------------------------------
  S    -79.455400   43.657200  124.015000
  C    -80.944200   43.026400  123.356000
  C    -80.774000   42.922500  121.948000
  C    -79.574400   43.563000  121.523000
  C    -78.811100   44.083300  122.500000
  H    -79.285600   43.649700  120.459000
  C    -81.799300   42.461200  120.960000
  H    -81.857000   43.303800  120.266000
  H    -82.736400   42.484600  121.533000
  C    -81.566900   41.101900  120.251000
  H    -82.329500   40.933600  119.429000
  H    -80.609500   41.260800  119.777000
  C    -81.745800   39.968300  121.280000
  H    -82.564600   40.278400  121.999000
  H    -81.990000   38.999900  120.914000
  H    -80.744800   39.919400  121.733000
  S    -77.834400   46.447100  121.744000
  C    -76.108200   46.641800  121.703000
  C    -75.478600   45.420900  121.920000
  C    -76.349200   44.360900  122.281000
  C    -77.638200   44.835300  122.327000
  H    -74.399900   45.422200  121.981000
  C    -75.848100   42.963300  122.578000
  H    -76.190900   42.715900  123.604000
  H    -74.790000   42.996500  122.618000
  C    -76.270200   41.786100  121.595000
  H    -77.364000   41.896400  121.499000
  H    -76.126100   40.819600  122.140000
  C    -75.482700   41.890000  120.237000
  H    -74.419700   41.628900  120.360000
  H    -75.535000   42.906700  119.815000
  H    -75.965300   41.317400  119.502000
  H    -81.876800   42.566600  123.752000
  H    -75.551800   47.530400  121.443000

 Total Charge           Charge          ....    0
 Multiplicity           Mult            ....    1
 Number of Electrons    NEL             ....  134
 Basis Dimension        Dim             ....  322

ORBITAL ENERGIES
----------------

  NO   OCC          E(Eh)            E(eV)
   0   2.0000     -88.968522     -2420.9566
   1   2.0000     -88.966469     -2420.9007
   2   2.0000     -10.318526      -280.7814
   3   2.0000     -10.315867      -280.7090
   4   2.0000     -10.315616      -280.7022
   5   2.0000     -10.315116      -280.6886
   6   2.0000     -10.300559      -280.2925
   7   2.0000     -10.298493      -280.2362
   8   2.0000     -10.294165      -280.1185
   9   2.0000     -10.293539      -280.1014
  10   2.0000     -10.291782      -280.0536
  11   2.0000     -10.291241      -280.0389
  12   2.0000     -10.290520      -280.0193
  13   2.0000     -10.287207      -279.9291
  14   2.0000     -10.281410      -279.7714
  15   2.0000     -10.277956      -279.6774
  16   2.0000      -8.083758      -219.9702
  17   2.0000      -8.081690      -219.9140
  18   2.0000      -6.042159      -164.4155
  19   2.0000      -6.040240      -164.3633
  20   2.0000      -6.038222      -164.3084
  21   2.0000      -6.035973      -164.2472
  22   2.0000      -6.034578      -164.2092
  23   2.0000      -6.032506      -164.1528
  24   2.0000      -1.018368       -27.7112
  25   2.0000      -0.989655       -26.9299
  26   2.0000      -0.914473       -24.8841
  27   2.0000      -0.900549       -24.5052
  28   2.0000      -0.873305       -23.7638
  29   2.0000      -0.849172       -23.1072
  30   2.0000      -0.845781       -23.0149
  31   2.0000      -0.811770       -22.0894
  32   2.0000      -0.783476       -21.3195
  33   2.0000      -0.771841       -21.0029
  34   2.0000      -0.714135       -19.4326
  35   2.0000      -0.699857       -19.0441
  36   2.0000      -0.690250       -18.7826
  37   2.0000      -0.664830       -18.0910
  38   2.0000      -0.633995       -17.2519
  39   2.0000      -0.620373       -16.8812
  40   2.0000      -0.590148       -16.0587
  41   2.0000      -0.568306       -15.4644
  42   2.0000      -0.553719       -15.0675
  43   2.0000      -0.549167       -14.9436
  44   2.0000      -0.545298       -14.8383
  45   2.0000      -0.537818       -14.6348
  46   2.0000      -0.519656       -14.1406
  47   2.0000      -0.507977       -13.8228
  48   2.0000      -0.503627       -13.7044
  49   2.0000      -0.491395       -13.3715
  50   2.0000      -0.487014       -13.2523
  51   2.0000      -0.477416       -12.9912
  52   2.0000      -0.473499       -12.8846
  53   2.0000      -0.469022       -12.7627
  54   2.0000      -0.463950       -12.6247
  55   2.0000      -0.443579       -12.0704
  56   2.0000      -0.441347       -12.0097
  57   2.0000      -0.435437       -11.8488
  58   2.0000      -0.431197       -11.7335
  59   2.0000      -0.425841       -11.5877
  60   2.0000      -0.424463       -11.5502
  61   2.0000      -0.420842       -11.4517
  62   2.0000      -0.408296       -11.1103
  63   2.0000      -0.337021        -9.1708
  64   2.0000      -0.329451        -8.9648
  65   2.0000      -0.322660        -8.7800
  66   2.0000      -0.305152        -8.3036
  67   0.0000       0.045540         1.2392
  68   0.0000       0.050624         1.3776
  69   0.0000       0.107776         2.9327
  70   0.0000       0.125049         3.4028
  71   0.0000       0.127404         3.4668

MULLIKEN ATOMIC CHARGES
-----------------------
   0 S :    0.130398
   1 C :   -0.108408
   2 C :   -0.135948
   3 C :    0.030119
   4 C :   -0.181191
   5 H :    0.019315
   6 C :    0.026153
   7 H :    0.035316
   8 H :    0.012189
   9 C :   -0.061705
  10 H :    0.040014
  11 H :    0.029241
  12 C :   -0.051220
  13 H :    0.035790
  14 H :    0.031334
  15 H :    0.048728
  16 S :    0.135363
  17 C :   -0.092236
  18 C :   -0.046939
  19 C :   -0.014409
  20 C :   -0.190743
  21 H :    0.015789
  22 C :    0.096508
  23 H :    0.033236
  24 H :    0.001276
  25 C :   -0.086435
  26 H :    0.041192
  27 H :    0.038512
  28 C :   -0.040691
  29 H :    0.040997
  30 H :    0.035287
  31 H :    0.024223
  32 H :    0.056230
  33 H :    0.052715
Sum of atomic charges:    0.0000000

LOEWDIN ATOMIC CHARGES
----------------------
   0 S :    0.435858
   1 C :   -0.217848
   2 C :   -0.067569
   3 C :   -0.072867
   4 C :   -0.221665
   5 H :    0.033371
   6 C :   -0.036954
   7 H :    0.033726
   8 H :    0.025427
   9 C :   -0.041034
  10 H :    0.028685
  11 H :    0.021244
  12 C :   -0.066130
  13 H :    0.031815
  14 H :    0.018661
  15 H :    0.033933
  16 S :    0.434808
  17 C :   -0.191842
  18 C :   -0.071059
  19 C :   -0.052446
  20 C :   -0.213568
  21 H :    0.028641
  22 C :   -0.028671
  23 H :    0.035932
  24 H :    0.020352
  25 C :   -0.037758
  26 H :    0.025850
  27 H :    0.028945
  28 C :   -0.066596
  29 H :    0.028906
  30 H :    0.030420
  31 H :    0.018701
  32 H :    0.041136
  33 H :    0.029597

  Mayer bond orders larger than 0.100000
B(  0-S ,  1-C ) :   1.1428 B(  0-S ,  4-C ) :   1.1587 B(  1-C ,  2-C ) :   1.5855
B(  1-C , 32-H ) :   0.9602 B(  2-C ,  3-C ) :   1.2536 B(  2-C ,  6-C ) :   1.0167
B(  3-C ,  4-C ) :   1.5777 B(  3-C ,  5-H ) :   0.9916 B(  4-C , 20-C ) :   1.0193
B(  6-C ,  7-H ) :   0.9456 B(  6-C ,  8-H ) :   0.9434 B(  6-C ,  9-C ) :   1.0609
B(  9-C , 10-H ) :   0.9580 B(  9-C , 11-H ) :   0.9619 B(  9-C , 12-C ) :   1.0502
B( 12-C , 13-H ) :   0.9760 B( 12-C , 14-H ) :   0.9781 B( 12-C , 15-H ) :   0.9771
B( 16-S , 17-C ) :   1.1561 B( 16-S , 20-C ) :   1.1622 B( 17-C , 18-C ) :   1.6110
B( 17-C , 20-C ) :   0.1024 B( 17-C , 33-H ) :   0.9678 B( 18-C , 19-C ) :   1.2513
B( 18-C , 21-H ) :   0.9840 B( 19-C , 20-C ) :   1.5845 B( 19-C , 22-C ) :   1.0423
B( 22-C , 23-H ) :   0.9288 B( 22-C , 24-H ) :   0.9322 B( 22-C , 25-C ) :   1.0592
B( 25-C , 26-H ) :   0.9609 B( 25-C , 27-H ) :   0.9562 B( 25-C , 28-C ) :   1.0607
B( 28-C , 29-H ) :   0.9760 B( 28-C , 30-H ) :   0.9772 B( 28-C , 31-H ) :   0.9750

Dispersion correction           -0.015713829
FINAL SINGLE POINT ENERGY     -1339.868958923412

DIPOLE MOMENT
-------------
                                X             Y             Z
Electronic contribution:      1.13442      22.69182      12.03657
Nuclear contribution   :     -1.02256     -23.04057     -12.45139
                        -----------------------------------------
Total Dipole Moment    :      0.11186      -0.34875      -0.41482
                        -----------------------------------------
Magnitude (a.u.)       :      0.55337
Magnitude (Debye)      :      1.40655

Rotational constants in cm-1:     0.019956     0.009240     0.007778
Rotational constants in MHz :   598.260135   277.012081   233.191091

                             ****ORCA TERMINATED NORMALLY****
TOTAL RUN TIME: 0 days 0 hours 0 minutes 36 seconds 105 msec
