                         Program Version 4.2.1 -  RELEASE  -
|  1> ! wB97X-D3 SP def2-SVP
|  2> %pal
|  3> nprocs 16
|  4> end
|  5>
|  6> * xyz 0 1
|  7> S 	 -19.045 	 34.087 	 37.6918
|  8> C 	 -19.6281 	 34.6026 	 36.1056
|  9> C 	 -20.6883 	 33.8218 	 35.6516
| 10> C 	 -21.0207 	 32.8053 	 36.61
| 11> C 	 -20.2995 	 32.8903 	 37.7544
| 12> H 	 -21.7811 	 32.0527 	 36.5324
| 13> C 	 -21.3833 	 33.9698 	 34.3426
| 14> H 	 -20.5599 	 33.7159 	 33.6154
| 15> H 	 -21.7676 	 34.9961 	 34.208
| 16> C 	 -22.5028 	 32.9697 	 34.0264
| 17> H 	 -22.028 	 31.9779 	 34.0001
| 18> H 	 -23.3396 	 33.0371 	 34.739
| 19> C 	 -23.2865 	 33.1633 	 32.7492
| 20> H 	 -23.8321 	 34.1023 	 32.7228
| 21> H 	 -22.6579 	 32.9626 	 31.856
| 22> H 	 -24.095 	 32.4379 	 32.7592
| 23> S 	 -22.1268 	 31.8628 	 39.6185
| 24> C 	 -21.6227 	 30.5671 	 40.6814
| 25> C 	 -20.3169 	 30.3038 	 40.5332
| 26> C 	 -19.6656 	 31.1091 	 39.5603
| 27> C 	 -20.5344 	 32.0358 	 38.9462
| 28> H 	 -19.8911 	 29.4347 	 41.0663
| 29> C 	 -18.3547 	 30.7652 	 38.9358
| 30> H 	 -17.7732 	 30.3491 	 39.8082
| 31> H 	 -17.8635 	 31.6167 	 38.5637
| 32> C 	 -18.4504 	 29.7393 	 37.7874
| 33> H 	 -17.5138 	 29.5263 	 37.2185
| 34> H 	 -18.9383 	 30.2103 	 36.9518
| 35> C 	 -19.0305 	 28.3612 	 38.1113
| 36> H 	 -20.0215 	 28.3822 	 38.4541
| 37> H 	 -18.4645 	 27.9069 	 38.9147
| 38> H 	 -19.0293 	 27.7409 	 37.1825
| 39> H 	 -19.2153 	 35.3918 	 35.5229
| 40> H 	 -22.2118 	 29.9744 	 41.3314
| 41> *
| 42>
| 43>                          ****END OF INPUT****

CARTESIAN COORDINATES (ANGSTROEM)
---------------------------------
  S    -19.045000   34.087000   37.691800
  C    -19.628100   34.602600   36.105600
  C    -20.688300   33.821800   35.651600
  C    -21.020700   32.805300   36.610000
  C    -20.299500   32.890300   37.754400
  H    -21.781100   32.052700   36.532400
  C    -21.383300   33.969800   34.342600
  H    -20.559900   33.715900   33.615400
  H    -21.767600   34.996100   34.208000
  C    -22.502800   32.969700   34.026400
  H    -22.028000   31.977900   34.000100
  H    -23.339600   33.037100   34.739000
  C    -23.286500   33.163300   32.749200
  H    -23.832100   34.102300   32.722800
  H    -22.657900   32.962600   31.856000
  H    -24.095000   32.437900   32.759200
  S    -22.126800   31.862800   39.618500
  C    -21.622700   30.567100   40.681400
  C    -20.316900   30.303800   40.533200
  C    -19.665600   31.109100   39.560300
  C    -20.534400   32.035800   38.946200
  H    -19.891100   29.434700   41.066300
  C    -18.354700   30.765200   38.935800
  H    -17.773200   30.349100   39.808200
  H    -17.863500   31.616700   38.563700
  C    -18.450400   29.739300   37.787400
  H    -17.513800   29.526300   37.218500
  H    -18.938300   30.210300   36.951800
  C    -19.030500   28.361200   38.111300
  H    -20.021500   28.382200   38.454100
  H    -18.464500   27.906900   38.914700
  H    -19.029300   27.740900   37.182500
  H    -19.215300   35.391800   35.522900
  H    -22.211800   29.974400   41.331400

 Total Charge           Charge          ....    0
 Multiplicity           Mult            ....    1
 Number of Electrons    NEL             ....  134
 Basis Dimension        Dim             ....  322

ORBITAL ENERGIES
----------------

  NO   OCC          E(Eh)            E(eV)
   0   2.0000     -88.969682     -2420.9881
   1   2.0000     -88.966449     -2420.9002
   2   2.0000     -10.327252      -281.0188
   3   2.0000     -10.326036      -280.9857
   4   2.0000     -10.312745      -280.6240
   5   2.0000     -10.310364      -280.5593
   6   2.0000     -10.303090      -280.3613
   7   2.0000     -10.298124      -280.2262
   8   2.0000     -10.297202      -280.2011
   9   2.0000     -10.290477      -280.0181
  10   2.0000     -10.289748      -279.9983
  11   2.0000     -10.289202      -279.9834
  12   2.0000     -10.286300      -279.9045
  13   2.0000     -10.281321      -279.7690
  14   2.0000     -10.280700      -279.7521
  15   2.0000     -10.270419      -279.4723
  16   2.0000      -8.083901      -219.9741
  17   2.0000      -8.081065      -219.8969
  18   2.0000      -6.042400      -164.4220
  19   2.0000      -6.039522      -164.3438
  20   2.0000      -6.038512      -164.3163
  21   2.0000      -6.035523      -164.2349
  22   2.0000      -6.034691      -164.2123
  23   2.0000      -6.031947      -164.1376
  24   2.0000      -1.008411       -27.4403
  25   2.0000      -0.987469       -26.8704
  26   2.0000      -0.916588       -24.9416
  27   2.0000      -0.905884       -24.6504
  28   2.0000      -0.872742       -23.7485
  29   2.0000      -0.854625       -23.2555
  30   2.0000      -0.843617       -22.9560
  31   2.0000      -0.821686       -22.3592
  32   2.0000      -0.784529       -21.3481
  33   2.0000      -0.771831       -21.0026
  34   2.0000      -0.712221       -19.3805
  35   2.0000      -0.695756       -18.9325
  36   2.0000      -0.684499       -18.6262
  37   2.0000      -0.661651       -18.0044
  38   2.0000      -0.635139       -17.2830
  39   2.0000      -0.620091       -16.8735
  40   2.0000      -0.588388       -16.0109
  41   2.0000      -0.584896       -15.9158
  42   2.0000      -0.570949       -15.5363
  43   2.0000      -0.551364       -15.0034
  44   2.0000      -0.546279       -14.8650
  45   2.0000      -0.523555       -14.2466
  46   2.0000      -0.517698       -14.0873
  47   2.0000      -0.511900       -13.9295
  48   2.0000      -0.505084       -13.7440
  49   2.0000      -0.494076       -13.4445
  50   2.0000      -0.486146       -13.2287
  51   2.0000      -0.479000       -13.0343
  52   2.0000      -0.473235       -12.8774
  53   2.0000      -0.466994       -12.7075
  54   2.0000      -0.462150       -12.5757
  55   2.0000      -0.455501       -12.3948
  56   2.0000      -0.441561       -12.0155
  57   2.0000      -0.439505       -11.9595
  58   2.0000      -0.434645       -11.8273
  59   2.0000      -0.428483       -11.6596
  60   2.0000      -0.423163       -11.5149
  61   2.0000      -0.410981       -11.1834
  62   2.0000      -0.398888       -10.8543
  63   2.0000      -0.343959        -9.3596
  64   2.0000      -0.335769        -9.1367
  65   2.0000      -0.327953        -8.9241
  66   2.0000      -0.293296        -7.9810
  67   0.0000       0.032251         0.8776
  68   0.0000       0.071690         1.9508
  69   0.0000       0.112201         3.0531
  70   0.0000       0.121486         3.3058
  71   0.0000       0.132832         3.6145

MULLIKEN ATOMIC CHARGES
-----------------------
   0 S :    0.122858
   1 C :   -0.123419
   2 C :   -0.080144
   3 C :    0.010013
   4 C :   -0.134837
   5 H :    0.010193
   6 C :    0.066256
   7 H :    0.046137
   8 H :    0.041858
   9 C :   -0.132543
  10 H :    0.037247
  11 H :    0.035667
  12 C :   -0.023038
  13 H :    0.030736
  14 H :    0.035718
  15 H :    0.026121
  16 S :    0.113129
  17 C :   -0.074782
  18 C :   -0.050955
  19 C :   -0.046341
  20 C :   -0.159895
  21 H :    0.028114
  22 C :    0.104222
  23 H :    0.027463
  24 H :    0.004521
  25 C :   -0.065178
  26 H :    0.022648
  27 H :    0.013344
  28 C :   -0.041170
  29 H :    0.027629
  30 H :    0.022577
  31 H :    0.037465
  32 H :    0.031098
  33 H :    0.037285
Sum of atomic charges:    0.0000000

LOEWDIN ATOMIC CHARGES
----------------------
   0 S :    0.413405
   1 C :   -0.192571
   2 C :   -0.059136
   3 C :   -0.065409
   4 C :   -0.193275
   5 H :    0.028576
   6 C :   -0.040815
   7 H :    0.045429
   8 H :    0.035423
   9 C :   -0.050693
  10 H :    0.027383
  11 H :    0.027005
  12 C :   -0.062662
  13 H :    0.024858
  14 H :    0.025422
  15 H :    0.027896
  16 S :    0.415551
  17 C :   -0.182986
  18 C :   -0.075312
  19 C :   -0.063760
  20 C :   -0.200778
  21 H :    0.037915
  22 C :   -0.031598
  23 H :    0.033476
  24 H :    0.016494
  25 C :   -0.045024
  26 H :    0.029322
  27 H :    0.021655
  28 C :   -0.063808
  29 H :    0.015094
  30 H :    0.021824
  31 H :    0.033783
  32 H :    0.021533
  33 H :    0.025782

  Mayer bond orders larger than 0.100000
B(  0-S ,  1-C ) :   1.1303 B(  0-S ,  4-C ) :   1.1537 B(  1-C ,  2-C ) :   1.6232
B(  1-C , 32-H ) :   0.9783 B(  2-C ,  3-C ) :   1.2305 B(  2-C ,  6-C ) :   1.0062
B(  3-C ,  4-C ) :   1.5783 B(  3-C ,  5-H ) :   0.9951 B(  4-C , 20-C ) :   1.0080
B(  6-C ,  7-H ) :   0.9299 B(  6-C ,  8-H ) :   0.9384 B(  6-C ,  9-C ) :   1.1013
B(  9-C , 10-H ) :   0.9450 B(  9-C , 11-H ) :   0.9522 B(  9-C , 12-C ) :   1.0940
B( 12-C , 13-H ) :   0.9717 B( 12-C , 14-H ) :   0.9722 B( 12-C , 15-H ) :   0.9712
B( 16-S , 17-C ) :   1.1471 B( 16-S , 20-C ) :   1.1551 B( 17-C , 18-C ) :   1.6261
B( 17-C , 33-H ) :   0.9674 B( 18-C , 19-C ) :   1.2565 B( 18-C , 21-H ) :   0.9827
B( 19-C , 20-C ) :   1.5539 B( 19-C , 22-C ) :   1.0646 B( 22-C , 23-H ) :   0.9343
B( 22-C , 24-H ) :   0.9172 B( 22-C , 25-C ) :   1.0672 B( 25-C , 26-H ) :   0.9538
B( 25-C , 27-H ) :   0.9488 B( 25-C , 28-C ) :   1.0820 B( 28-C , 29-H ) :   0.9721
B( 28-C , 30-H ) :   0.9744 B( 28-C , 31-H ) :   0.9715

Dispersion correction           -0.015059170
FINAL SINGLE POINT ENERGY     -1339.882877501985

DIPOLE MOMENT
-------------
                                X             Y             Z
Electronic contribution:      1.38187      12.04378      18.94791
Nuclear contribution   :     -1.52541     -12.39912     -19.47747
                        -----------------------------------------
Total Dipole Moment    :     -0.14353      -0.35534      -0.52956
                        -----------------------------------------
Magnitude (a.u.)       :      0.65369
Magnitude (Debye)      :      1.66154

Rotational constants in cm-1:     0.019125     0.008062     0.007799
Rotational constants in MHz :   573.351046   241.680747   233.802091

                             ****ORCA TERMINATED NORMALLY****
TOTAL RUN TIME: 0 days 0 hours 0 minutes 36 seconds 740 msec
