                         Program Version 4.2.1 -  RELEASE  -
|  1> ! wB97X-D3 SP def2-SVP
|  2> %pal
|  3> nprocs 16
|  4> end
|  5>
|  6> * xyz 0 1
|  7> S 	 -2.47608 	 76.2135 	 56.0425
|  8> C 	 -2.59378 	 74.698 	 56.8667
|  9> C 	 -1.48829 	 73.864 	 56.4995
| 10> C 	 -0.589853 	 74.4701 	 55.6252
| 11> C 	 -0.88432 	 75.7961 	 55.3813
| 12> H 	 0.330122 	 74.0998 	 55.2341
| 13> C 	 -1.26721 	 72.4497 	 56.9706
| 14> H 	 -0.535464 	 72.0286 	 56.2348
| 15> H 	 -2.21653 	 71.9814 	 56.8169
| 16> C 	 -0.832779 	 72.2033 	 58.4325
| 17> H 	 0.0261955 	 72.8585 	 58.6991
| 18> H 	 -1.50728 	 72.6744 	 59.1391
| 19> C 	 -0.450066 	 70.8048 	 58.7629
| 20> H 	 -0.0465251 	 70.6934 	 59.7628
| 21> H 	 -1.26403 	 70.0907 	 58.6136
| 22> H 	 0.355118 	 70.3646 	 58.061
| 23> S 	 -0.754775 	 77.04 	 52.9959
| 24> C 	 0.661817 	 77.9661 	 52.5929
| 25> C 	 1.75407 	 77.7373 	 53.4534
| 26> C 	 1.32688 	 76.9632 	 54.5973
| 27> C 	 -0.0321874 	 76.5964 	 54.4961
| 28> H 	 2.63202 	 78.2563 	 53.3088
| 29> C 	 2.30272 	 76.6147 	 55.6942
| 30> H 	 2.74042 	 75.6514 	 55.4728
| 31> H 	 1.6437 	 76.5177 	 56.5254
| 32> C 	 3.43712 	 77.5527 	 55.9814
| 33> H 	 4.08455 	 77.5448 	 55.1054
| 34> H 	 3.981 	 77.1946 	 56.8694
| 35> C 	 2.94651 	 78.911 	 56.481
| 36> H 	 3.82395 	 79.5507 	 56.4436
| 37> H 	 2.50991 	 78.794 	 57.4708
| 38> H 	 2.28274 	 79.3873 	 55.8266
| 39> H 	 -3.46233 	 74.4296 	 57.552
| 40> H 	 0.771318 	 78.4922 	 51.6404
| 41> *
| 42>
| 43>                          ****END OF INPUT****

CARTESIAN COORDINATES (ANGSTROEM)
---------------------------------
  S     -2.476080   76.213500   56.042500
  C     -2.593780   74.698000   56.866700
  C     -1.488290   73.864000   56.499500
  C     -0.589853   74.470100   55.625200
  C     -0.884320   75.796100   55.381300
  H      0.330122   74.099800   55.234100
  C     -1.267210   72.449700   56.970600
  H     -0.535464   72.028600   56.234800
  H     -2.216530   71.981400   56.816900
  C     -0.832779   72.203300   58.432500
  H      0.026195   72.858500   58.699100
  H     -1.507280   72.674400   59.139100
  C     -0.450066   70.804800   58.762900
  H     -0.046525   70.693400   59.762800
  H     -1.264030   70.090700   58.613600
  H      0.355118   70.364600   58.061000
  S     -0.754775   77.040000   52.995900
  C      0.661817   77.966100   52.592900
  C      1.754070   77.737300   53.453400
  C      1.326880   76.963200   54.597300
  C     -0.032187   76.596400   54.496100
  H      2.632020   78.256300   53.308800
  C      2.302720   76.614700   55.694200
  H      2.740420   75.651400   55.472800
  H      1.643700   76.517700   56.525400
  C      3.437120   77.552700   55.981400
  H      4.084550   77.544800   55.105400
  H      3.981000   77.194600   56.869400
  C      2.946510   78.911000   56.481000
  H      3.823950   79.550700   56.443600
  H      2.509910   78.794000   57.470800
  H      2.282740   79.387300   55.826600
  H     -3.462330   74.429600   57.552000
  H      0.771318   78.492200   51.640400

 Total Charge           Charge          ....    0
 Multiplicity           Mult            ....    1
 Number of Electrons    NEL             ....  134
 Basis Dimension        Dim             ....  322

ORBITAL ENERGIES
----------------

  NO   OCC          E(Eh)            E(eV)
   0   2.0000     -88.970882     -2421.0208
   1   2.0000     -88.966164     -2420.8924
   2   2.0000     -10.326084      -280.9870
   3   2.0000     -10.323471      -280.9159
   4   2.0000     -10.322543      -280.8907
   5   2.0000     -10.316190      -280.7178
   6   2.0000     -10.305766      -280.4342
   7   2.0000     -10.301339      -280.3137
   8   2.0000     -10.290999      -280.0323
   9   2.0000     -10.290778      -280.0263
  10   2.0000     -10.287289      -279.9314
  11   2.0000     -10.286380      -279.9066
  12   2.0000     -10.284188      -279.8470
  13   2.0000     -10.282755      -279.8080
  14   2.0000     -10.281385      -279.7707
  15   2.0000     -10.268647      -279.4241
  16   2.0000      -8.085018      -220.0045
  17   2.0000      -8.081469      -219.9080
  18   2.0000      -6.043442      -164.4504
  19   2.0000      -6.039751      -164.3500
  20   2.0000      -6.039454      -164.3419
  21   2.0000      -6.036066      -164.2497
  22   2.0000      -6.035962      -164.2469
  23   2.0000      -6.032386      -164.1496
  24   2.0000      -1.005315       -27.3560
  25   2.0000      -0.982382       -26.7320
  26   2.0000      -0.917281       -24.9605
  27   2.0000      -0.909523       -24.7494
  28   2.0000      -0.866726       -23.5848
  29   2.0000      -0.857298       -23.3283
  30   2.0000      -0.848715       -23.0947
  31   2.0000      -0.812965       -22.1219
  32   2.0000      -0.783863       -21.3300
  33   2.0000      -0.764927       -20.8147
  34   2.0000      -0.704732       -19.1767
  35   2.0000      -0.703614       -19.1463
  36   2.0000      -0.688982       -18.7481
  37   2.0000      -0.659824       -17.9547
  38   2.0000      -0.643627       -17.5140
  39   2.0000      -0.617308       -16.7978
  40   2.0000      -0.593634       -16.1536
  41   2.0000      -0.566160       -15.4060
  42   2.0000      -0.562547       -15.3077
  43   2.0000      -0.552503       -15.0344
  44   2.0000      -0.543233       -14.7821
  45   2.0000      -0.526045       -14.3144
  46   2.0000      -0.523904       -14.2561
  47   2.0000      -0.512825       -13.9547
  48   2.0000      -0.505571       -13.7573
  49   2.0000      -0.497809       -13.5461
  50   2.0000      -0.490408       -13.3447
  51   2.0000      -0.477593       -12.9960
  52   2.0000      -0.467222       -12.7137
  53   2.0000      -0.465481       -12.6664
  54   2.0000      -0.462085       -12.5740
  55   2.0000      -0.449831       -12.2405
  56   2.0000      -0.447627       -12.1805
  57   2.0000      -0.438035       -11.9196
  58   2.0000      -0.434604       -11.8262
  59   2.0000      -0.426912       -11.6169
  60   2.0000      -0.422503       -11.4969
  61   2.0000      -0.410991       -11.1836
  62   2.0000      -0.402819       -10.9613
  63   2.0000      -0.344507        -9.3745
  64   2.0000      -0.329964        -8.9788
  65   2.0000      -0.322813        -8.7842
  66   2.0000      -0.291042        -7.9197
  67   0.0000       0.031216         0.8494
  68   0.0000       0.062480         1.7002
  69   0.0000       0.112036         3.0487
  70   0.0000       0.123630         3.3642
  71   0.0000       0.134386         3.6568

MULLIKEN ATOMIC CHARGES
-----------------------
   0 S :    0.128738
   1 C :   -0.157586
   2 C :   -0.081564
   3 C :    0.042731
   4 C :   -0.175520
   5 H :    0.008225
   6 C :    0.073977
   7 H :    0.025585
   8 H :    0.023811
   9 C :   -0.051331
  10 H :    0.017983
  11 H :    0.016928
  12 C :   -0.050492
  13 H :    0.038161
  14 H :    0.026313
  15 H :    0.032103
  16 S :    0.124571
  17 C :   -0.103091
  18 C :   -0.019198
  19 C :   -0.063341
  20 C :   -0.187533
  21 H :   -0.002435
  22 C :    0.110996
  23 H :    0.035811
  24 H :    0.014851
  25 C :   -0.098580
  26 H :    0.032264
  27 H :    0.034551
  28 C :   -0.024563
  29 H :    0.026141
  30 H :    0.038775
  31 H :    0.022723
  32 H :    0.080881
  33 H :    0.059115
Sum of atomic charges:   -0.0000000

LOEWDIN ATOMIC CHARGES
----------------------
   0 S :    0.416319
   1 C :   -0.223342
   2 C :   -0.064830
   3 C :   -0.056099
   4 C :   -0.201584
   5 H :    0.031315
   6 C :   -0.031790
   7 H :    0.034943
   8 H :    0.028536
   9 C :   -0.052712
  10 H :    0.028246
  11 H :    0.023933
  12 C :   -0.071076
  13 H :    0.027909
  14 H :    0.022440
  15 H :    0.033463
  16 S :    0.428162
  17 C :   -0.190029
  18 C :   -0.064416
  19 C :   -0.048161
  20 C :   -0.212963
  21 H :    0.017747
  22 C :   -0.035295
  23 H :    0.032569
  24 H :    0.027831
  25 C :   -0.043131
  26 H :    0.021055
  27 H :    0.033506
  28 C :   -0.057635
  29 H :    0.028098
  30 H :    0.030077
  31 H :    0.014843
  32 H :    0.044842
  33 H :    0.027229

  Mayer bond orders larger than 0.100000
B(  0-S ,  1-C ) :   1.1615 B(  0-S ,  4-C ) :   1.1626 B(  1-C ,  2-C ) :   1.5385
B(  1-C ,  4-C ) :   0.1099 B(  1-C , 32-H ) :   0.9640 B(  2-C ,  3-C ) :   1.2887
B(  2-C ,  6-C ) :   1.0215 B(  3-C ,  4-C ) :   1.5328 B(  3-C ,  5-H ) :   0.9978
B(  4-C , 20-C ) :   1.0348 B(  6-C ,  7-H ) :   0.9457 B(  6-C ,  8-H ) :   0.9304
B(  6-C ,  9-C ) :   1.0602 B(  9-C , 10-H ) :   0.9488 B(  9-C , 11-H ) :   0.9474
B(  9-C , 12-C ) :   1.0910 B( 12-C , 13-H ) :   0.9715 B( 12-C , 14-H ) :   0.9733
B( 12-C , 15-H ) :   0.9710 B( 16-S , 17-C ) :   1.1695 B( 16-S , 20-C ) :   1.1662
B( 17-C , 18-C ) :   1.5991 B( 17-C , 33-H ) :   0.9628 B( 18-C , 19-C ) :   1.2372
B( 18-C , 21-H ) :   0.9961 B( 19-C , 20-C ) :   1.5902 B( 19-C , 22-C ) :   1.0271
B( 22-C , 23-H ) :   0.9245 B( 22-C , 24-H ) :   0.9244 B( 22-C , 25-C ) :   1.0952
B( 25-C , 26-H ) :   0.9472 B( 25-C , 27-H ) :   0.9519 B( 25-C , 28-C ) :   1.0779
B( 28-C , 29-H ) :   0.9723 B( 28-C , 30-H ) :   0.9735 B( 28-C , 31-H ) :   0.9771

Dispersion correction           -0.014027624
FINAL SINGLE POINT ENERGY     -1339.868760410287

DIPOLE MOMENT
-------------
                                X             Y             Z
Electronic contribution:    -17.18537      11.61410     -17.34377
Nuclear contribution   :     17.64784     -11.92277      17.59465
                        -----------------------------------------
Total Dipole Moment    :      0.46247      -0.30868       0.25088
                        -----------------------------------------
Magnitude (a.u.)       :      0.61000
Magnitude (Debye)      :      1.55050

Rotational constants in cm-1:     0.019019     0.007893     0.006426
Rotational constants in MHz :   570.177526   236.626246   192.647959

                             ****ORCA TERMINATED NORMALLY****
TOTAL RUN TIME: 0 days 0 hours 0 minutes 32 seconds 115 msec
