                         Program Version 4.2.1 -  RELEASE  -
|  1> ! wB97X-D3 SP def2-SVP
|  2> %pal
|  3> nprocs 16
|  4> end
|  5>
|  6> * xyz 0 1
|  7> S 	 -35.6002 	 40.1721 	 97.7556
|  8> C 	 -34.5715 	 39.4182 	 98.931
|  9> C 	 -33.3261 	 39.3541 	 98.3608
| 10> C 	 -33.2307 	 39.6342 	 96.9218
| 11> C 	 -34.4872 	 39.9731 	 96.4655
| 12> H 	 -32.4628 	 39.7772 	 96.2598
| 13> C 	 -32.0754 	 39.1489 	 99.1492
| 14> H 	 -31.4661 	 38.4379 	 98.7055
| 15> H 	 -32.273 	 38.7684 	 100.105
| 16> C 	 -31.15 	 40.3503 	 99.2615
| 17> H 	 -30.8453 	 40.6861 	 98.2176
| 18> H 	 -31.6332 	 41.296 	 99.5771
| 19> C 	 -29.9559 	 40.1783 	 100.097
| 20> H 	 -29.2551 	 39.5303 	 99.6131
| 21> H 	 -29.3615 	 41.1182 	 100.057
| 22> H 	 -30.0527 	 39.7825 	 101.102
| 23> S 	 -34.9491 	 42.1905 	 94.9697
| 24> C 	 -35.614 	 42.1175 	 93.4204
| 25> C 	 -35.5434 	 40.8339 	 92.9175
| 26> C 	 -35.1465 	 39.8722 	 93.9164
| 27> C 	 -34.8274 	 40.4964 	 95.1444
| 28> H 	 -35.9157 	 40.6366 	 91.9557
| 29> C 	 -35.2527 	 38.3383 	 93.7507
| 30> H 	 -34.32 	 37.717 	 94.0485
| 31> H 	 -35.1103 	 38.1975 	 92.6897
| 32> C 	 -36.4911 	 37.6293 	 94.3934
| 33> H 	 -37.4797 	 37.8671 	 94.0977
| 34> H 	 -36.5229 	 37.7326 	 95.5093
| 35> C 	 -36.3811 	 36.0853 	 94.2494
| 36> H 	 -37.2383 	 35.549 	 94.5182
| 37> H 	 -35.5702 	 35.6947 	 94.906
| 38> H 	 -36.124 	 35.7644 	 93.2702
| 39> H 	 -34.7759 	 39.1618 	 99.9696
| 40> H 	 -35.9508 	 42.9819 	 92.8387
| 41> *
| 42>
| 43>                          ****END OF INPUT****

CARTESIAN COORDINATES (ANGSTROEM)
---------------------------------
  S    -35.600200   40.172100   97.755600
  C    -34.571500   39.418200   98.931000
  C    -33.326100   39.354100   98.360800
  C    -33.230700   39.634200   96.921800
  C    -34.487200   39.973100   96.465500
  H    -32.462800   39.777200   96.259800
  C    -32.075400   39.148900   99.149200
  H    -31.466100   38.437900   98.705500
  H    -32.273000   38.768400  100.105000
  C    -31.150000   40.350300   99.261500
  H    -30.845300   40.686100   98.217600
  H    -31.633200   41.296000   99.577100
  C    -29.955900   40.178300  100.097000
  H    -29.255100   39.530300   99.613100
  H    -29.361500   41.118200  100.057000
  H    -30.052700   39.782500  101.102000
  S    -34.949100   42.190500   94.969700
  C    -35.614000   42.117500   93.420400
  C    -35.543400   40.833900   92.917500
  C    -35.146500   39.872200   93.916400
  C    -34.827400   40.496400   95.144400
  H    -35.915700   40.636600   91.955700
  C    -35.252700   38.338300   93.750700
  H    -34.320000   37.717000   94.048500
  H    -35.110300   38.197500   92.689700
  C    -36.491100   37.629300   94.393400
  H    -37.479700   37.867100   94.097700
  H    -36.522900   37.732600   95.509300
  C    -36.381100   36.085300   94.249400
  H    -37.238300   35.549000   94.518200
  H    -35.570200   35.694700   94.906000
  H    -36.124000   35.764400   93.270200
  H    -34.775900   39.161800   99.969600
  H    -35.950800   42.981900   92.838700

 Total Charge           Charge          ....    0
 Multiplicity           Mult            ....    1
 Number of Electrons    NEL             ....  134
 Basis Dimension        Dim             ....  322

ORBITAL ENERGIES
----------------

  NO   OCC          E(Eh)            E(eV)
   0   2.0000     -88.964147     -2420.8375
   1   2.0000     -88.962617     -2420.7959
   2   2.0000     -10.326565      -281.0001
   3   2.0000     -10.321793      -280.8703
   4   2.0000     -10.313257      -280.6380
   5   2.0000     -10.312806      -280.6257
   6   2.0000     -10.308653      -280.5127
   7   2.0000     -10.302719      -280.3512
   8   2.0000     -10.300957      -280.3033
   9   2.0000     -10.291724      -280.0521
  10   2.0000     -10.291270      -280.0397
  11   2.0000     -10.285920      -279.8941
  12   2.0000     -10.285240      -279.8756
  13   2.0000     -10.275940      -279.6225
  14   2.0000     -10.273446      -279.5547
  15   2.0000     -10.267168      -279.3838
  16   2.0000      -8.080794      -219.8896
  17   2.0000      -8.078210      -219.8193
  18   2.0000      -6.039033      -164.3304
  19   2.0000      -6.036803      -164.2698
  20   2.0000      -6.034835      -164.2162
  21   2.0000      -6.032534      -164.1536
  22   2.0000      -6.031913      -164.1367
  23   2.0000      -6.028854      -164.0535
  24   2.0000      -1.014679       -27.6108
  25   2.0000      -0.991774       -26.9875
  26   2.0000      -0.919270       -25.0146
  27   2.0000      -0.897296       -24.4167
  28   2.0000      -0.875526       -23.8243
  29   2.0000      -0.850894       -23.1540
  30   2.0000      -0.848503       -23.0889
  31   2.0000      -0.820713       -22.3327
  32   2.0000      -0.783184       -21.3115
  33   2.0000      -0.769659       -20.9435
  34   2.0000      -0.707804       -19.2603
  35   2.0000      -0.698113       -18.9966
  36   2.0000      -0.690766       -18.7967
  37   2.0000      -0.660831       -17.9821
  38   2.0000      -0.654559       -17.8115
  39   2.0000      -0.619203       -16.8494
  40   2.0000      -0.596695       -16.2369
  41   2.0000      -0.576522       -15.6880
  42   2.0000      -0.562440       -15.3048
  43   2.0000      -0.549749       -14.9594
  44   2.0000      -0.529001       -14.3948
  45   2.0000      -0.524693       -14.2776
  46   2.0000      -0.520130       -14.1534
  47   2.0000      -0.516441       -14.0531
  48   2.0000      -0.511390       -13.9156
  49   2.0000      -0.503896       -13.7117
  50   2.0000      -0.497756       -13.5446
  51   2.0000      -0.478935       -13.0325
  52   2.0000      -0.473546       -12.8858
  53   2.0000      -0.463993       -12.6259
  54   2.0000      -0.452290       -12.3074
  55   2.0000      -0.450452       -12.2574
  56   2.0000      -0.445220       -12.1151
  57   2.0000      -0.436075       -11.8662
  58   2.0000      -0.434675       -11.8281
  59   2.0000      -0.422073       -11.4852
  60   2.0000      -0.418469       -11.3871
  61   2.0000      -0.405182       -11.0256
  62   2.0000      -0.401721       -10.9314
  63   2.0000      -0.337033        -9.1711
  64   2.0000      -0.330041        -8.9809
  65   2.0000      -0.320241        -8.7142
  66   2.0000      -0.306429        -8.3384
  67   0.0000       0.042698         1.1619
  68   0.0000       0.058550         1.5932
  69   0.0000       0.113878         3.0988
  70   0.0000       0.122004         3.3199
  71   0.0000       0.140447         3.8218

MULLIKEN ATOMIC CHARGES
-----------------------
   0 S :    0.113601
   1 C :   -0.106508
   2 C :   -0.095352
   3 C :    0.083322
   4 C :   -0.148984
   5 H :   -0.013557
   6 C :    0.151913
   7 H :   -0.002207
   8 H :   -0.011319
   9 C :   -0.112442
  10 H :    0.020815
  11 H :    0.024221
  12 C :   -0.023620
  13 H :    0.008241
  14 H :    0.032810
  15 H :    0.036993
  16 S :    0.134515
  17 C :   -0.105057
  18 C :   -0.022709
  19 C :   -0.009497
  20 C :   -0.199946
  21 H :    0.000250
  22 C :    0.043211
  23 H :    0.035377
  24 H :    0.011118
  25 C :   -0.036931
  26 H :    0.022165
  27 H :    0.039193
  28 C :   -0.051964
  29 H :    0.020077
  30 H :    0.028953
  31 H :    0.012820
  32 H :    0.054463
  33 H :    0.066038
Sum of atomic charges:   -0.0000000

LOEWDIN ATOMIC CHARGES
----------------------
   0 S :    0.426550
   1 C :   -0.206698
   2 C :   -0.052505
   3 C :   -0.047527
   4 C :   -0.199244
   5 H :    0.020435
   6 C :   -0.029065
   7 H :    0.022050
   8 H :    0.019014
   9 C :   -0.048019
  10 H :    0.027928
  11 H :    0.023015
  12 C :   -0.069862
  13 H :    0.019878
  14 H :    0.037029
  15 H :    0.025215
  16 S :    0.456363
  17 C :   -0.209310
  18 C :   -0.070377
  19 C :   -0.054365
  20 C :   -0.225081
  21 H :    0.023152
  22 C :   -0.041788
  23 H :    0.043293
  24 H :    0.026455
  25 C :   -0.035721
  26 H :    0.017628
  27 H :    0.033011
  28 C :   -0.063542
  29 H :    0.017693
  30 H :    0.027512
  31 H :    0.014303
  32 H :    0.037200
  33 H :    0.035379

  Mayer bond orders larger than 0.100000
B(  0-S ,  1-C ) :   1.1224 B(  0-S ,  4-C ) :   1.1717 B(  1-C ,  2-C ) :   1.6208
B(  1-C , 32-H ) :   0.9726 B(  2-C ,  3-C ) :   1.1871 B(  2-C ,  6-C ) :   1.0536
B(  3-C ,  4-C ) :   1.5856 B(  3-C ,  5-H ) :   1.0096 B(  4-C , 20-C ) :   1.0032
B(  6-C ,  7-H ) :   0.9234 B(  6-C ,  8-H ) :   0.9351 B(  6-C ,  9-C ) :   1.0554
B(  9-C , 10-H ) :   0.9447 B(  9-C , 11-H ) :   0.9550 B(  9-C , 12-C ) :   1.1038
B( 12-C , 13-H ) :   0.9661 B( 12-C , 14-H ) :   0.9657 B( 12-C , 15-H ) :   0.9729
B( 16-S , 17-C ) :   1.1860 B( 16-S , 20-C ) :   1.1872 B( 17-C , 18-C ) :   1.5715
B( 17-C , 33-H ) :   0.9653 B( 18-C , 19-C ) :   1.2754 B( 18-C , 21-H ) :   0.9996
B( 19-C , 20-C ) :   1.5537 B( 19-C , 22-C ) :   1.0416 B( 22-C , 23-H ) :   0.9409
B( 22-C , 24-H ) :   0.9311 B( 22-C , 25-C ) :   1.0428 B( 25-C , 26-H ) :   0.9633
B( 25-C , 27-H ) :   0.9572 B( 25-C , 28-C ) :   1.0755 B( 28-C , 29-H ) :   0.9749
B( 28-C , 30-H ) :   0.9767 B( 28-C , 31-H ) :   0.9766

Dispersion correction           -0.013950020
FINAL SINGLE POINT ENERGY     -1339.850834089162

DIPOLE MOMENT
-------------
                                X             Y             Z
Electronic contribution:    -11.83885      16.48120      -4.26772
Nuclear contribution   :     12.13508     -16.65561       4.22915
                        -----------------------------------------
Total Dipole Moment    :      0.29623      -0.17441      -0.03856
                        -----------------------------------------
Magnitude (a.u.)       :      0.34591
Magnitude (Debye)      :      0.87924

Rotational constants in cm-1:     0.019298     0.008076     0.006781
Rotational constants in MHz :   578.538615   242.108025   203.291338

                             ****ORCA TERMINATED NORMALLY****
TOTAL RUN TIME: 0 days 0 hours 0 minutes 27 seconds 444 msec
