                         Program Version 4.2.1 -  RELEASE  -
|  1> ! wB97X-D3 SP def2-SVP
|  2> %pal
|  3> nprocs 16
|  4> end
|  5>
|  6> * xyz 0 1
|  7> S 	 -18.3327 	 -2.23518 	 87.3215
|  8> C 	 -18.1052 	 -1.00959 	 86.0977
|  9> C 	 -16.806 	 -0.591919 	 86.0127
| 10> C 	 -15.9022 	 -1.40317 	 86.7679
| 11> C 	 -16.6151 	 -2.32985 	 87.5277
| 12> H 	 -14.8385 	 -1.27112 	 86.8861
| 13> C 	 -16.416 	 0.759545 	 85.2171
| 14> H 	 -15.3767 	 0.9282 	 85.6211
| 15> H 	 -17.0408 	 1.64124 	 85.4792
| 16> C 	 -16.303 	 0.552886 	 83.6566
| 17> H 	 -17.2726 	 0.25551 	 83.2235
| 18> H 	 -16.0305 	 1.44521 	 83.2253
| 19> C 	 -15.3168 	 -0.607012 	 83.2432
| 20> H 	 -15.5219 	 -1.60698 	 83.612
| 21> H 	 -15.3135 	 -0.631205 	 82.1317
| 22> H 	 -14.3033 	 -0.306015 	 83.4786
| 23> S 	 -14.3739 	 -3.8088 	 87.9974
| 24> C 	 -14.3796 	 -4.8552 	 89.387
| 25> C 	 -15.5545 	 -4.87753 	 90.0713
| 26> C 	 -16.4297 	 -3.90248 	 89.6243
| 27> C 	 -15.991 	 -3.25771 	 88.4483
| 28> H 	 -15.7217 	 -5.67946 	 90.7999
| 29> C 	 -17.8492 	 -3.80561 	 90.2102
| 30> H 	 -18.4287 	 -4.63136 	 89.9026
| 31> H 	 -18.2943 	 -2.87289 	 89.7941
| 32> C 	 -17.9447 	 -3.77806 	 91.7568
| 33> H 	 -17.2244 	 -3.02427 	 92.0853
| 34> H 	 -17.3364 	 -4.53727 	 92.1498
| 35> C 	 -19.369 	 -3.71785 	 92.3119
| 36> H 	 -19.8771 	 -4.71532 	 92.1618
| 37> H 	 -20.0444 	 -2.93524 	 91.9966
| 38> H 	 -19.2477 	 -3.59871 	 93.3926
| 39> H 	 -18.9223 	 -0.463065 	 85.5851
| 40> H 	 -13.6209 	 -5.53553 	 89.6582
| 41> *
| 42>
| 43>                          ****END OF INPUT****

CARTESIAN COORDINATES (ANGSTROEM)
---------------------------------
  S    -18.332700   -2.235180   87.321500
  C    -18.105200   -1.009590   86.097700
  C    -16.806000   -0.591919   86.012700
  C    -15.902200   -1.403170   86.767900
  C    -16.615100   -2.329850   87.527700
  H    -14.838500   -1.271120   86.886100
  C    -16.416000    0.759545   85.217100
  H    -15.376700    0.928200   85.621100
  H    -17.040800    1.641240   85.479200
  C    -16.303000    0.552886   83.656600
  H    -17.272600    0.255510   83.223500
  H    -16.030500    1.445210   83.225300
  C    -15.316800   -0.607012   83.243200
  H    -15.521900   -1.606980   83.612000
  H    -15.313500   -0.631205   82.131700
  H    -14.303300   -0.306015   83.478600
  S    -14.373900   -3.808800   87.997400
  C    -14.379600   -4.855200   89.387000
  C    -15.554500   -4.877530   90.071300
  C    -16.429700   -3.902480   89.624300
  C    -15.991000   -3.257710   88.448300
  H    -15.721700   -5.679460   90.799900
  C    -17.849200   -3.805610   90.210200
  H    -18.428700   -4.631360   89.902600
  H    -18.294300   -2.872890   89.794100
  C    -17.944700   -3.778060   91.756800
  H    -17.224400   -3.024270   92.085300
  H    -17.336400   -4.537270   92.149800
  C    -19.369000   -3.717850   92.311900
  H    -19.877100   -4.715320   92.161800
  H    -20.044400   -2.935240   91.996600
  H    -19.247700   -3.598710   93.392600
  H    -18.922300   -0.463065   85.585100
  H    -13.620900   -5.535530   89.658200

 Total Charge           Charge          ....    0
 Multiplicity           Mult            ....    1
 Number of Electrons    NEL             ....  134
 Basis Dimension        Dim             ....  322

ORBITAL ENERGIES
----------------

  NO   OCC          E(Eh)            E(eV)
   0   2.0000     -88.969916     -2420.9945
   1   2.0000     -88.968733     -2420.9623
   2   2.0000     -10.329672      -281.0847
   3   2.0000     -10.327729      -281.0318
   4   2.0000     -10.309744      -280.5424
   5   2.0000     -10.309039      -280.5232
   6   2.0000     -10.306367      -280.4505
   7   2.0000     -10.303592      -280.3750
   8   2.0000     -10.300715      -280.2967
   9   2.0000     -10.294709      -280.1333
  10   2.0000     -10.287839      -279.9463
  11   2.0000     -10.287242      -279.9301
  12   2.0000     -10.287182      -279.9285
  13   2.0000     -10.284339      -279.8511
  14   2.0000     -10.281283      -279.7679
  15   2.0000     -10.277526      -279.6657
  16   2.0000      -8.084365      -219.9868
  17   2.0000      -8.083106      -219.9525
  18   2.0000      -6.042826      -164.4337
  19   2.0000      -6.041518      -164.3981
  20   2.0000      -6.038991      -164.3293
  21   2.0000      -6.037767      -164.2960
  22   2.0000      -6.035103      -164.2235
  23   2.0000      -6.033908      -164.1910
  24   2.0000      -1.009537       -27.4709
  25   2.0000      -0.986275       -26.8379
  26   2.0000      -0.906205       -24.6591
  27   2.0000      -0.896662       -24.3994
  28   2.0000      -0.870226       -23.6801
  29   2.0000      -0.853520       -23.2255
  30   2.0000      -0.842388       -22.9225
  31   2.0000      -0.809873       -22.0378
  32   2.0000      -0.781207       -21.2577
  33   2.0000      -0.769596       -20.9418
  34   2.0000      -0.711117       -19.3505
  35   2.0000      -0.702090       -19.1048
  36   2.0000      -0.697490       -18.9797
  37   2.0000      -0.661506       -18.0005
  38   2.0000      -0.635182       -17.2842
  39   2.0000      -0.607283       -16.5250
  40   2.0000      -0.597848       -16.2683
  41   2.0000      -0.567631       -15.4460
  42   2.0000      -0.558476       -15.1969
  43   2.0000      -0.542701       -14.7677
  44   2.0000      -0.537781       -14.6338
  45   2.0000      -0.521416       -14.1885
  46   2.0000      -0.511398       -13.9158
  47   2.0000      -0.508072       -13.8253
  48   2.0000      -0.505751       -13.7622
  49   2.0000      -0.493398       -13.4260
  50   2.0000      -0.485567       -13.2130
  51   2.0000      -0.484433       -13.1821
  52   2.0000      -0.476469       -12.9654
  53   2.0000      -0.468731       -12.7548
  54   2.0000      -0.461830       -12.5670
  55   2.0000      -0.454223       -12.3600
  56   2.0000      -0.445605       -12.1255
  57   2.0000      -0.434893       -11.8340
  58   2.0000      -0.430141       -11.7047
  59   2.0000      -0.424411       -11.5488
  60   2.0000      -0.418761       -11.3951
  61   2.0000      -0.411155       -11.1881
  62   2.0000      -0.405205       -11.0262
  63   2.0000      -0.356281        -9.6949
  64   2.0000      -0.335984        -9.1426
  65   2.0000      -0.334263        -9.0958
  66   2.0000      -0.278467        -7.5775
  67   0.0000       0.021675         0.5898
  68   0.0000       0.081935         2.2296
  69   0.0000       0.104479         2.8430
  70   0.0000       0.113801         3.0967
  71   0.0000       0.139031         3.7832

MULLIKEN ATOMIC CHARGES
-----------------------
   0 S :    0.114406
   1 C :   -0.127550
   2 C :   -0.081791
   3 C :   -0.014482
   4 C :   -0.121694
   5 H :    0.020336
   6 C :    0.025952
   7 H :    0.026940
   8 H :    0.051809
   9 C :   -0.035216
  10 H :    0.029753
  11 H :    0.015330
  12 C :   -0.077328
  13 H :    0.056848
  14 H :    0.031693
  15 H :    0.022222
  16 S :    0.105563
  17 C :   -0.064016
  18 C :   -0.061314
  19 C :   -0.039462
  20 C :   -0.137964
  21 H :    0.034263
  22 C :    0.054797
  23 H :    0.029320
  24 H :    0.030985
  25 C :   -0.072864
  26 H :    0.012934
  27 H :   -0.001968
  28 C :   -0.035349
  29 H :    0.040667
  30 H :    0.043487
  31 H :    0.034518
  32 H :    0.056361
  33 H :    0.032813
Sum of atomic charges:   -0.0000000

LOEWDIN ATOMIC CHARGES
----------------------
   0 S :    0.429920
   1 C :   -0.211498
   2 C :   -0.060163
   3 C :   -0.076610
   4 C :   -0.190169
   5 H :    0.027479
   6 C :   -0.028532
   7 H :    0.031060
   8 H :    0.033810
   9 C :   -0.031181
  10 H :    0.023740
  11 H :    0.011393
  12 C :   -0.066195
  13 H :    0.027881
  14 H :    0.029744
  15 H :    0.019397
  16 S :    0.412920
  17 C :   -0.179882
  18 C :   -0.075172
  19 C :   -0.061660
  20 C :   -0.186271
  21 H :    0.038882
  22 C :   -0.033362
  23 H :    0.023655
  24 H :    0.017997
  25 C :   -0.050238
  26 H :    0.027261
  27 H :    0.015562
  28 C :   -0.065494
  29 H :    0.033715
  30 H :    0.026817
  31 H :    0.031716
  32 H :    0.033954
  33 H :    0.019525

  Mayer bond orders larger than 0.100000
B(  0-S ,  1-C ) :   1.1245 B(  0-S ,  4-C ) :   1.1581 B(  1-C ,  2-C ) :   1.6358
B(  1-C , 32-H ) :   0.9608 B(  2-C ,  3-C ) :   1.2535 B(  2-C ,  6-C ) :   0.9879
B(  3-C ,  4-C ) :   1.5338 B(  3-C ,  5-H ) :   0.9892 B(  4-C , 20-C ) :   1.0846
B(  6-C ,  7-H ) :   0.9479 B(  6-C ,  8-H ) :   0.9552 B(  6-C ,  9-C ) :   1.0625
B(  9-C , 10-H ) :   0.9614 B(  9-C , 11-H ) :   0.9589 B(  9-C , 12-C ) :   1.0711
B( 12-C , 13-H ) :   0.9759 B( 12-C , 14-H ) :   0.9750 B( 12-C , 15-H ) :   0.9781
B( 16-S , 17-C ) :   1.1526 B( 16-S , 20-C ) :   1.1426 B( 17-C , 18-C ) :   1.6249
B( 17-C , 33-H ) :   0.9655 B( 18-C , 19-C ) :   1.2492 B( 18-C , 21-H ) :   0.9839
B( 19-C , 20-C ) :   1.5554 B( 19-C , 22-C ) :   1.0362 B( 22-C , 23-H ) :   0.9417
B( 22-C , 24-H ) :   0.9300 B( 22-C , 25-C ) :   1.0575 B( 25-C , 26-H ) :   0.9501
B( 25-C , 27-H ) :   0.9474 B( 25-C , 28-C ) :   1.0741 B( 28-C , 29-H ) :   0.9720
B( 28-C , 30-H ) :   0.9775 B( 28-C , 31-H ) :   0.9718

Dispersion correction           -0.013841596
FINAL SINGLE POINT ENERGY     -1339.867297631549

DIPOLE MOMENT
-------------
                                X             Y             Z
Electronic contribution:      5.43249      -6.91232      -0.25930
Nuclear contribution   :     -5.49566       7.01768       0.38147
                        -----------------------------------------
Total Dipole Moment    :     -0.06317       0.10536       0.12216
                        -----------------------------------------
Magnitude (a.u.)       :      0.17325
Magnitude (Debye)      :      0.44036

Rotational constants in cm-1:     0.023071     0.007665     0.006039
Rotational constants in MHz :   691.652329   229.792446   181.051312

                             ****ORCA TERMINATED NORMALLY****
TOTAL RUN TIME: 0 days 0 hours 0 minutes 33 seconds 188 msec
