                         Program Version 4.2.1 -  RELEASE  -
|  1> ! wB97X-D3 SP def2-SVP
|  2> %pal
|  3> nprocs 16
|  4> end
|  5>
|  6> * xyz 0 1
|  7> S 	 2.13222 	 -11.1528 	 54.6003
|  8> C 	 0.832663 	 -11.2624 	 53.3543
|  9> C 	 0.572927 	 -12.5514 	 52.9969
| 10> C 	 1.38365 	 -13.4988 	 53.7259
| 11> C 	 2.22059 	 -12.9086 	 54.6644
| 12> H 	 1.40436 	 -14.6146 	 53.5642
| 13> C 	 -0.267936 	 -12.988 	 51.8382
| 14> H 	 0.441057 	 -13.5122 	 51.1482
| 15> H 	 -0.654857 	 -12.1766 	 51.2367
| 16> C 	 -1.43476 	 -14.0477 	 52.1574
| 17> H 	 -1.61456 	 -14.7039 	 51.3141
| 18> H 	 -1.05234 	 -14.6472 	 53.0306
| 19> C 	 -2.70285 	 -13.3289 	 52.5695
| 20> H 	 -3.55185 	 -13.9873 	 52.481
| 21> H 	 -2.67161 	 -13.0013 	 53.5771
| 22> H 	 -2.85876 	 -12.4691 	 51.9113
| 23> S 	 4.65418 	 -13.3361 	 55.3171
| 24> C 	 5.14186 	 -14.6726 	 56.2745
| 25> C 	 4.00955 	 -15.4099 	 56.6656
| 26> C 	 2.78154 	 -14.8066 	 56.2979
| 27> C 	 3.01891 	 -13.6518 	 55.5679
| 28> H 	 4.16129 	 -16.3356 	 57.2298
| 29> C 	 1.50233 	 -15.5206 	 56.4939
| 30> H 	 1.64344 	 -16.3533 	 57.1248
| 31> H 	 1.1809 	 -15.9754 	 55.5715
| 32> C 	 0.39398 	 -14.6791 	 57.1194
| 33> H 	 0.22402 	 -13.7971 	 56.5168
| 34> H 	 0.716892 	 -14.4812 	 58.1303
| 35> C 	 -0.888458 	 -15.4207 	 57.2295
| 36> H 	 -1.74548 	 -14.8922 	 57.5735
| 37> H 	 -0.832084 	 -16.2669 	 57.9689
| 38> H 	 -1.21801 	 -15.7466 	 56.2598
| 39> H 	 0.340464 	 -10.4143 	 52.9469
| 40> H 	 6.11523 	 -14.9019 	 56.4515
| 41> *
| 42>
| 43>                          ****END OF INPUT****

CARTESIAN COORDINATES (ANGSTROEM)
---------------------------------
  S      2.132220  -11.152800   54.600300
  C      0.832663  -11.262400   53.354300
  C      0.572927  -12.551400   52.996900
  C      1.383650  -13.498800   53.725900
  C      2.220590  -12.908600   54.664400
  H      1.404360  -14.614600   53.564200
  C     -0.267936  -12.988000   51.838200
  H      0.441057  -13.512200   51.148200
  H     -0.654857  -12.176600   51.236700
  C     -1.434760  -14.047700   52.157400
  H     -1.614560  -14.703900   51.314100
  H     -1.052340  -14.647200   53.030600
  C     -2.702850  -13.328900   52.569500
  H     -3.551850  -13.987300   52.481000
  H     -2.671610  -13.001300   53.577100
  H     -2.858760  -12.469100   51.911300
  S      4.654180  -13.336100   55.317100
  C      5.141860  -14.672600   56.274500
  C      4.009550  -15.409900   56.665600
  C      2.781540  -14.806600   56.297900
  C      3.018910  -13.651800   55.567900
  H      4.161290  -16.335600   57.229800
  C      1.502330  -15.520600   56.493900
  H      1.643440  -16.353300   57.124800
  H      1.180900  -15.975400   55.571500
  C      0.393980  -14.679100   57.119400
  H      0.224020  -13.797100   56.516800
  H      0.716892  -14.481200   58.130300
  C     -0.888458  -15.420700   57.229500
  H     -1.745480  -14.892200   57.573500
  H     -0.832084  -16.266900   57.968900
  H     -1.218010  -15.746600   56.259800
  H      0.340464  -10.414300   52.946900
  H      6.115230  -14.901900   56.451500

 Total Charge           Charge          ....    0
 Multiplicity           Mult            ....    1
 Number of Electrons    NEL             ....  134
 Basis Dimension        Dim             ....  322

ORBITAL ENERGIES
----------------

  NO   OCC          E(Eh)            E(eV)
   0   2.0000     -88.966115     -2420.8911
   1   2.0000     -88.964303     -2420.8418
   2   2.0000     -10.327356      -281.0216
   3   2.0000     -10.315597      -280.7017
   4   2.0000     -10.313147      -280.6350
   5   2.0000     -10.308585      -280.5108
   6   2.0000     -10.301839      -280.3273
   7   2.0000     -10.300249      -280.2840
   8   2.0000     -10.297280      -280.2032
   9   2.0000     -10.296847      -280.1914
  10   2.0000     -10.295164      -280.1457
  11   2.0000     -10.293389      -280.0974
  12   2.0000     -10.281947      -279.7860
  13   2.0000     -10.275366      -279.6069
  14   2.0000     -10.271572      -279.5037
  15   2.0000     -10.270199      -279.4663
  16   2.0000      -8.081106      -219.8981
  17   2.0000      -8.079978      -219.8674
  18   2.0000      -6.039349      -164.3391
  19   2.0000      -6.038628      -164.3194
  20   2.0000      -6.035107      -164.2236
  21   2.0000      -6.034714      -164.2129
  22   2.0000      -6.032231      -164.1453
  23   2.0000      -6.030544      -164.0994
  24   2.0000      -1.017600       -27.6903
  25   2.0000      -0.982460       -26.7341
  26   2.0000      -0.919996       -25.0344
  27   2.0000      -0.908275       -24.7154
  28   2.0000      -0.874651       -23.8005
  29   2.0000      -0.859786       -23.3960
  30   2.0000      -0.845599       -23.0099
  31   2.0000      -0.811236       -22.0749
  32   2.0000      -0.783490       -21.3198
  33   2.0000      -0.774556       -21.0768
  34   2.0000      -0.711325       -19.3561
  35   2.0000      -0.698867       -19.0171
  36   2.0000      -0.692633       -18.8475
  37   2.0000      -0.672322       -18.2948
  38   2.0000      -0.638281       -17.3685
  39   2.0000      -0.619812       -16.8659
  40   2.0000      -0.601190       -16.3592
  41   2.0000      -0.578840       -15.7510
  42   2.0000      -0.567199       -15.4343
  43   2.0000      -0.548300       -14.9200
  44   2.0000      -0.535784       -14.5794
  45   2.0000      -0.525454       -14.2983
  46   2.0000      -0.522693       -14.2232
  47   2.0000      -0.516898       -14.0655
  48   2.0000      -0.507761       -13.8169
  49   2.0000      -0.497924       -13.5492
  50   2.0000      -0.495139       -13.4734
  51   2.0000      -0.487045       -13.2532
  52   2.0000      -0.471301       -12.8248
  53   2.0000      -0.465327       -12.6622
  54   2.0000      -0.459769       -12.5110
  55   2.0000      -0.447000       -12.1635
  56   2.0000      -0.445204       -12.1146
  57   2.0000      -0.434723       -11.8294
  58   2.0000      -0.428895       -11.6708
  59   2.0000      -0.425873       -11.5886
  60   2.0000      -0.423834       -11.5331
  61   2.0000      -0.421157       -11.4603
  62   2.0000      -0.414197       -11.2709
  63   2.0000      -0.344394        -9.3714
  64   2.0000      -0.329932        -8.9779
  65   2.0000      -0.327450        -8.9104
  66   2.0000      -0.292759        -7.9664
  67   0.0000       0.030694         0.8352
  68   0.0000       0.069709         1.8969
  69   0.0000       0.106940         2.9100
  70   0.0000       0.117212         3.1895
  71   0.0000       0.127217         3.4617

MULLIKEN ATOMIC CHARGES
-----------------------
   0 S :    0.101804
   1 C :   -0.122045
   2 C :   -0.036294
   3 C :   -0.010177
   4 C :   -0.155286
   5 H :    0.040999
   6 C :    0.023216
   7 H :    0.045073
   8 H :    0.016640
   9 C :   -0.098129
  10 H :    0.034342
  11 H :    0.036532
  12 C :   -0.018148
  13 H :    0.028047
  14 H :    0.030152
  15 H :    0.023382
  16 S :    0.121244
  17 C :   -0.057307
  18 C :   -0.062604
  19 C :   -0.018590
  20 C :   -0.141761
  21 H :    0.024778
  22 C :    0.100437
  23 H :   -0.010809
  24 H :    0.014591
  25 C :   -0.059527
  26 H :    0.045669
  27 H :    0.025261
  28 C :   -0.029342
  29 H :    0.019765
  30 H :    0.024834
  31 H :    0.012296
  32 H :    0.033737
  33 H :    0.017218
Sum of atomic charges:    0.0000000

LOEWDIN ATOMIC CHARGES
----------------------
   0 S :    0.372689
   1 C :   -0.175574
   2 C :   -0.065105
   3 C :   -0.070161
   4 C :   -0.197855
   5 H :    0.040307
   6 C :   -0.032669
   7 H :    0.040834
   8 H :    0.023470
   9 C :   -0.039236
  10 H :    0.022224
  11 H :    0.027879
  12 C :   -0.062229
  13 H :    0.024439
  14 H :    0.022998
  15 H :    0.023803
  16 S :    0.466125
  17 C :   -0.184890
  18 C :   -0.066237
  19 C :   -0.054790
  20 C :   -0.221736
  21 H :    0.033302
  22 C :   -0.026364
  23 H :    0.023544
  24 H :    0.026211
  25 C :   -0.034087
  26 H :    0.027053
  27 H :    0.026073
  28 C :   -0.066159
  29 H :    0.022134
  30 H :    0.027645
  31 H :    0.018799
  32 H :    0.021709
  33 H :    0.005855

  Mayer bond orders larger than 0.100000
B(  0-S ,  1-C ) :   1.1030 B(  0-S ,  4-C ) :   1.1337 B(  1-C ,  2-C ) :   1.6454
B(  1-C , 32-H ) :   0.9728 B(  2-C ,  3-C ) :   1.1977 B(  2-C ,  6-C ) :   1.0306
B(  3-C ,  4-C ) :   1.5984 B(  3-C ,  5-H ) :   0.9801 B(  4-C , 20-C ) :   1.0275
B(  6-C ,  7-H ) :   0.9405 B(  6-C ,  8-H ) :   0.9502 B(  6-C ,  9-C ) :   1.0508
B(  9-C , 10-H ) :   0.9604 B(  9-C , 11-H ) :   0.9601 B(  9-C , 12-C ) :   1.0737
B( 12-C , 13-H ) :   0.9736 B( 12-C , 14-H ) :   0.9766 B( 12-C , 15-H ) :   0.9769
B( 16-S , 17-C ) :   1.1895 B( 16-S , 20-C ) :   1.1901 B( 17-C , 18-C ) :   1.5476
B( 17-C , 20-C ) :   0.1054 B( 17-C , 33-H ) :   0.9873 B( 18-C , 19-C ) :   1.2789
B( 18-C , 21-H ) :   0.9931 B( 19-C , 20-C ) :   1.5334 B( 19-C , 22-C ) :   1.0612
B( 22-C , 23-H ) :   0.9191 B( 22-C , 24-H ) :   0.9239 B( 22-C , 25-C ) :   1.0659
B( 25-C , 26-H ) :   0.9543 B( 25-C , 27-H ) :   0.9519 B( 25-C , 28-C ) :   1.1043
B( 28-C , 29-H ) :   0.9694 B( 28-C , 30-H ) :   0.9694 B( 28-C , 31-H ) :   0.9691

Dispersion correction           -0.014957405
FINAL SINGLE POINT ENERGY     -1339.876341021321

DIPOLE MOMENT
-------------
                                X             Y             Z
Electronic contribution:     27.78746      13.57736       2.32785
Nuclear contribution   :    -28.16426     -14.14139      -2.55237
                        -----------------------------------------
Total Dipole Moment    :     -0.37680      -0.56403      -0.22452
                        -----------------------------------------
Magnitude (a.u.)       :      0.71451
Magnitude (Debye)      :      1.81613

Rotational constants in cm-1:     0.018369     0.009923     0.007485
Rotational constants in MHz :   550.676747   297.494980   224.409199

                             ****ORCA TERMINATED NORMALLY****
TOTAL RUN TIME: 0 days 0 hours 0 minutes 30 seconds 519 msec
