                         Program Version 4.2.1 -  RELEASE  -
|  1> ! wB97X-D3 SP def2-SVP
|  2> %pal
|  3> nprocs 16
|  4> end
|  5>
|  6> * xyz 0 1
|  7> S 	 -40.831 	 13.3119 	 75.7839
|  8> C 	 -39.7608 	 14.2478 	 74.8231
|  9> C 	 -40.2824 	 15.5286 	 74.6328
| 10> C 	 -41.642 	 15.6091 	 75.0859
| 11> C 	 -42.1538 	 14.4653 	 75.7036
| 12> H 	 -42.2089 	 16.4574 	 74.9055
| 13> C 	 -39.6906 	 16.6135 	 73.8288
| 14> H 	 -40.4506 	 16.925 	 73.1259
| 15> H 	 -38.9765 	 16.2466 	 73.1242
| 16> C 	 -39.0803 	 17.8416 	 74.59
| 17> H 	 -39.8749 	 18.2962 	 75.1841
| 18> H 	 -38.3281 	 17.4298 	 75.2528
| 19> C 	 -38.6128 	 19.0164 	 73.6515
| 20> H 	 -39.3145 	 19.3006 	 72.8563
| 21> H 	 -38.2982 	 19.7991 	 74.3088
| 22> H 	 -37.7055 	 18.7216 	 73.1993
| 23> S 	 -43.7504 	 14.1906 	 77.9636
| 24> C 	 -45.4177 	 14.5568 	 77.8979
| 25> C 	 -45.8703 	 14.681 	 76.5838
| 26> C 	 -44.7666 	 14.5884 	 75.7146
| 27> C 	 -43.511 	 14.363 	 76.2429
| 28> H 	 -46.8683 	 15.0302 	 76.3128
| 29> C 	 -44.956 	 14.8421 	 74.2074
| 30> H 	 -45.6117 	 14.0686 	 73.769
| 31> H 	 -44.009 	 14.5735 	 73.7176
| 32> C 	 -45.417 	 16.2933 	 73.8843
| 33> H 	 -44.7375 	 17.1031 	 74.3634
| 34> H 	 -46.387 	 16.3897 	 74.2938
| 35> C 	 -45.3969 	 16.7933 	 72.3787
| 36> H 	 -44.547 	 16.7356 	 71.6889
| 37> H 	 -45.7572 	 17.8603 	 72.4561
| 38> H 	 -46.1545 	 16.2371 	 71.8767
| 39> H 	 -38.8217 	 13.9807 	 74.5257
| 40> H 	 -46.0871 	 14.6483 	 78.7451
| 41> *
| 42>
| 43>                          ****END OF INPUT****

CARTESIAN COORDINATES (ANGSTROEM)
---------------------------------
  S    -40.831000   13.311900   75.783900
  C    -39.760800   14.247800   74.823100
  C    -40.282400   15.528600   74.632800
  C    -41.642000   15.609100   75.085900
  C    -42.153800   14.465300   75.703600
  H    -42.208900   16.457400   74.905500
  C    -39.690600   16.613500   73.828800
  H    -40.450600   16.925000   73.125900
  H    -38.976500   16.246600   73.124200
  C    -39.080300   17.841600   74.590000
  H    -39.874900   18.296200   75.184100
  H    -38.328100   17.429800   75.252800
  C    -38.612800   19.016400   73.651500
  H    -39.314500   19.300600   72.856300
  H    -38.298200   19.799100   74.308800
  H    -37.705500   18.721600   73.199300
  S    -43.750400   14.190600   77.963600
  C    -45.417700   14.556800   77.897900
  C    -45.870300   14.681000   76.583800
  C    -44.766600   14.588400   75.714600
  C    -43.511000   14.363000   76.242900
  H    -46.868300   15.030200   76.312800
  C    -44.956000   14.842100   74.207400
  H    -45.611700   14.068600   73.769000
  H    -44.009000   14.573500   73.717600
  C    -45.417000   16.293300   73.884300
  H    -44.737500   17.103100   74.363400
  H    -46.387000   16.389700   74.293800
  C    -45.396900   16.793300   72.378700
  H    -44.547000   16.735600   71.688900
  H    -45.757200   17.860300   72.456100
  H    -46.154500   16.237100   71.876700
  H    -38.821700   13.980700   74.525700
  H    -46.087100   14.648300   78.745100

 Total Charge           Charge          ....    0
 Multiplicity           Mult            ....    1
 Number of Electrons    NEL             ....  134
 Basis Dimension        Dim             ....  322

ORBITAL ENERGIES
----------------

  NO   OCC          E(Eh)            E(eV)
   0   2.0000     -88.967027     -2420.9159
   1   2.0000     -88.964139     -2420.8373
   2   2.0000     -10.333784      -281.1966
   3   2.0000     -10.326180      -280.9896
   4   2.0000     -10.318911      -280.7919
   5   2.0000     -10.310333      -280.5584
   6   2.0000     -10.301188      -280.3096
   7   2.0000     -10.298241      -280.2294
   8   2.0000     -10.297293      -280.2036
   9   2.0000     -10.294345      -280.1234
  10   2.0000     -10.290785      -280.0265
  11   2.0000     -10.289710      -279.9972
  12   2.0000     -10.289355      -279.9876
  13   2.0000     -10.285533      -279.8836
  14   2.0000     -10.283127      -279.8181
  15   2.0000     -10.278233      -279.6849
  16   2.0000      -8.081971      -219.9216
  17   2.0000      -8.079833      -219.8634
  18   2.0000      -6.040557      -164.3719
  19   2.0000      -6.038221      -164.3083
  20   2.0000      -6.036195      -164.2532
  21   2.0000      -6.034041      -164.1946
  22   2.0000      -6.032892      -164.1633
  23   2.0000      -6.030805      -164.1066
  24   2.0000      -1.009890       -27.4805
  25   2.0000      -0.990352       -26.9488
  26   2.0000      -0.908536       -24.7225
  27   2.0000      -0.898311       -24.4443
  28   2.0000      -0.871946       -23.7268
  29   2.0000      -0.850430       -23.1414
  30   2.0000      -0.845751       -23.0141
  31   2.0000      -0.817018       -22.2322
  32   2.0000      -0.781413       -21.2633
  33   2.0000      -0.772027       -21.0079
  34   2.0000      -0.707869       -19.2621
  35   2.0000      -0.703974       -19.1561
  36   2.0000      -0.698323       -19.0023
  37   2.0000      -0.661528       -18.0011
  38   2.0000      -0.647799       -17.6275
  39   2.0000      -0.624081       -16.9821
  40   2.0000      -0.592780       -16.1304
  41   2.0000      -0.575784       -15.6679
  42   2.0000      -0.561351       -15.2751
  43   2.0000      -0.553028       -15.0487
  44   2.0000      -0.529813       -14.4169
  45   2.0000      -0.527509       -14.3542
  46   2.0000      -0.516568       -14.0565
  47   2.0000      -0.515472       -14.0267
  48   2.0000      -0.509308       -13.8590
  49   2.0000      -0.505148       -13.7458
  50   2.0000      -0.489654       -13.3242
  51   2.0000      -0.481693       -13.1075
  52   2.0000      -0.473678       -12.8894
  53   2.0000      -0.470478       -12.8024
  54   2.0000      -0.459858       -12.5134
  55   2.0000      -0.450356       -12.2548
  56   2.0000      -0.441388       -12.0108
  57   2.0000      -0.437722       -11.9110
  58   2.0000      -0.428936       -11.6720
  59   2.0000      -0.424474       -11.5505
  60   2.0000      -0.419280       -11.4092
  61   2.0000      -0.414950       -11.2914
  62   2.0000      -0.399690       -10.8761
  63   2.0000      -0.345619        -9.4048
  64   2.0000      -0.331289        -9.0148
  65   2.0000      -0.325892        -8.8680
  66   2.0000      -0.296765        -8.0754
  67   0.0000       0.037035         1.0078
  68   0.0000       0.059741         1.6256
  69   0.0000       0.117054         3.1852
  70   0.0000       0.128294         3.4911
  71   0.0000       0.130324         3.5463

MULLIKEN ATOMIC CHARGES
-----------------------
   0 S :    0.120758
   1 C :   -0.070217
   2 C :   -0.076119
   3 C :    0.062582
   4 C :   -0.147373
   5 H :   -0.023144
   6 C :    0.047753
   7 H :    0.014682
   8 H :    0.002755
   9 C :   -0.083638
  10 H :    0.029317
  11 H :    0.035220
  12 C :   -0.021998
  13 H :    0.044608
  14 H :    0.033356
  15 H :    0.014445
  16 S :    0.113142
  17 C :   -0.092855
  18 C :   -0.033131
  19 C :   -0.063242
  20 C :   -0.135692
  21 H :    0.029948
  22 C :    0.066445
  23 H :    0.032554
  24 H :    0.021612
  25 C :   -0.103861
  26 H :    0.046193
  27 H :    0.023588
  28 C :   -0.061028
  29 H :    0.045146
  30 H :    0.040732
  31 H :    0.018549
  32 H :    0.009675
  33 H :    0.059237
Sum of atomic charges:   -0.0000000

LOEWDIN ATOMIC CHARGES
----------------------
   0 S :    0.421951
   1 C :   -0.186088
   2 C :   -0.063996
   3 C :   -0.042369
   4 C :   -0.201062
   5 H :    0.016844
   6 C :   -0.041352
   7 H :    0.029748
   8 H :    0.024280
   9 C :   -0.031635
  10 H :    0.022025
  11 H :    0.024970
  12 C :   -0.061101
  13 H :    0.030754
  14 H :    0.027722
  15 H :    0.017670
  16 S :    0.431129
  17 C :   -0.187882
  18 C :   -0.080645
  19 C :   -0.053951
  20 C :   -0.208918
  21 H :    0.035653
  22 C :   -0.039503
  23 H :    0.032346
  24 H :    0.027949
  25 C :   -0.039850
  26 H :    0.032151
  27 H :    0.016625
  28 C :   -0.074498
  29 H :    0.027758
  30 H :    0.034901
  31 H :    0.016627
  32 H :    0.010845
  33 H :    0.030902

  Mayer bond orders larger than 0.100000
B(  0-S ,  1-C ) :   1.1601 B(  0-S ,  4-C ) :   1.1486 B(  1-C ,  2-C ) :   1.5628
B(  1-C , 32-H ) :   0.9816 B(  2-C ,  3-C ) :   1.2719 B(  2-C ,  6-C ) :   1.0381
B(  3-C ,  4-C ) :   1.5358 B(  3-C ,  5-H ) :   1.0058 B(  4-C , 20-C ) :   1.0349
B(  6-C ,  7-H ) :   0.9388 B(  6-C ,  8-H ) :   0.9410 B(  6-C ,  9-C ) :   1.0476
B(  9-C , 10-H ) :   0.9627 B(  9-C , 11-H ) :   0.9582 B(  9-C , 12-C ) :   1.0726
B( 12-C , 13-H ) :   0.9760 B( 12-C , 14-H ) :   0.9744 B( 12-C , 15-H ) :   0.9749
B( 16-S , 17-C ) :   1.2049 B( 16-S , 20-C ) :   1.1314 B( 17-C , 18-C ) :   1.5554
B( 17-C , 33-H ) :   0.9659 B( 18-C , 19-C ) :   1.2736 B( 18-C , 21-H ) :   0.9921
B( 19-C , 20-C ) :   1.5997 B( 19-C , 22-C ) :   1.0393 B( 22-C , 23-H ) :   0.9382
B( 22-C , 24-H ) :   0.9383 B( 22-C , 25-C ) :   1.0432 B( 25-C , 26-H ) :   0.9637
B( 25-C , 27-H ) :   0.9550 B( 25-C , 28-C ) :   1.0683 B( 28-C , 29-H ) :   0.9796
B( 28-C , 30-H ) :   0.9760 B( 28-C , 31-H ) :   0.9753

Dispersion correction           -0.014011599
FINAL SINGLE POINT ENERGY     -1339.862290532155

DIPOLE MOMENT
-------------
                                X             Y             Z
Electronic contribution:     -1.19041     -23.16911      21.26626
Nuclear contribution   :      1.09389      23.77518     -21.74031
                        -----------------------------------------
Total Dipole Moment    :     -0.09652       0.60606      -0.47405
                        -----------------------------------------
Magnitude (a.u.)       :      0.77547
Magnitude (Debye)      :      1.97108

Rotational constants in cm-1:     0.016461     0.008659     0.006675
Rotational constants in MHz :   493.491452   259.604784   200.100969

                             ****ORCA TERMINATED NORMALLY****
TOTAL RUN TIME: 0 days 0 hours 0 minutes 29 seconds 644 msec
