                         Program Version 4.2.1 -  RELEASE  -
|  1> ! wB97X-D3 SP def2-SVP
|  2> %pal
|  3> nprocs 16
|  4> end
|  5>
|  6> * xyz 0 1
|  7> S 	 -2.8321 	 -13.3425 	 70.3531
|  8> C 	 -4.55697 	 -12.8993 	 70.7686
|  9> C 	 -5.00905 	 -11.846 	 70.0369
| 10> C 	 -3.99103 	 -11.4756 	 69.1401
| 11> C 	 -2.78205 	 -12.1721 	 69.0607
| 12> H 	 -4.16675 	 -10.7014 	 68.4985
| 13> C 	 -6.35684 	 -11.1456 	 70.0883
| 14> H 	 -6.78998 	 -11.2273 	 71.0817
| 15> H 	 -7.1595 	 -11.5989 	 69.5146
| 16> C 	 -6.38672 	 -9.64913 	 69.8008
| 17> H 	 -5.64884 	 -9.21562 	 70.4916
| 18> H 	 -5.88903 	 -9.45994 	 68.8172
| 19> C 	 -7.77841 	 -9.00776 	 69.9471
| 20> H 	 -8.44479 	 -9.32712 	 69.1493
| 21> H 	 -8.27341 	 -9.27244 	 70.9148
| 22> H 	 -7.83655 	 -7.9175 	 69.967
| 23> S 	 -1.32323 	 -10.3125 	 67.7577
| 24> C 	 0.0979496 	 -10.6859 	 66.8801
| 25> C 	 0.398331 	 -12.0571 	 66.9456
| 26> C 	 -0.589116 	 -12.8108 	 67.6883
| 27> C 	 -1.57326 	 -11.977 	 68.2393
| 28> H 	 1.29273 	 -12.3984 	 66.4609
| 29> C 	 -0.57829 	 -14.2515 	 67.7094
| 30> H 	 -0.0552053 	 -14.5728 	 66.7786
| 31> H 	 -1.57399 	 -14.6629 	 67.611
| 32> C 	 0.0562441 	 -14.896 	 68.865
| 33> H 	 -0.214487 	 -14.4537 	 69.8005
| 34> H 	 1.15678 	 -14.7412 	 68.8077
| 35> C 	 -0.108522 	 -16.4412 	 69.0697
| 36> H 	 -1.17911 	 -16.6182 	 69.0892
| 37> H 	 0.204408 	 -16.7637 	 70.105
| 38> H 	 0.326718 	 -17.0524 	 68.2763
| 39> H 	 -5.1356 	 -13.3523 	 71.4871
| 40> H 	 0.647773 	 -9.89174 	 66.3479
| 41> *
| 42>
| 43>                          ****END OF INPUT****

CARTESIAN COORDINATES (ANGSTROEM)
---------------------------------
  S     -2.832100  -13.342500   70.353100
  C     -4.556970  -12.899300   70.768600
  C     -5.009050  -11.846000   70.036900
  C     -3.991030  -11.475600   69.140100
  C     -2.782050  -12.172100   69.060700
  H     -4.166750  -10.701400   68.498500
  C     -6.356840  -11.145600   70.088300
  H     -6.789980  -11.227300   71.081700
  H     -7.159500  -11.598900   69.514600
  C     -6.386720   -9.649130   69.800800
  H     -5.648840   -9.215620   70.491600
  H     -5.889030   -9.459940   68.817200
  C     -7.778410   -9.007760   69.947100
  H     -8.444790   -9.327120   69.149300
  H     -8.273410   -9.272440   70.914800
  H     -7.836550   -7.917500   69.967000
  S     -1.323230  -10.312500   67.757700
  C      0.097950  -10.685900   66.880100
  C      0.398331  -12.057100   66.945600
  C     -0.589116  -12.810800   67.688300
  C     -1.573260  -11.977000   68.239300
  H      1.292730  -12.398400   66.460900
  C     -0.578290  -14.251500   67.709400
  H     -0.055205  -14.572800   66.778600
  H     -1.573990  -14.662900   67.611000
  C      0.056244  -14.896000   68.865000
  H     -0.214487  -14.453700   69.800500
  H      1.156780  -14.741200   68.807700
  C     -0.108522  -16.441200   69.069700
  H     -1.179110  -16.618200   69.089200
  H      0.204408  -16.763700   70.105000
  H      0.326718  -17.052400   68.276300
  H     -5.135600  -13.352300   71.487100
  H      0.647773   -9.891740   66.347900

 Total Charge           Charge          ....    0
 Multiplicity           Mult            ....    1
 Number of Electrons    NEL             ....  134
 Basis Dimension        Dim             ....  322

ORBITAL ENERGIES
----------------

  NO   OCC          E(Eh)            E(eV)
   0   2.0000     -88.967604     -2420.9316
   1   2.0000     -88.966488     -2420.9012
   2   2.0000     -10.336449      -281.2691
   3   2.0000     -10.333307      -281.1836
   4   2.0000     -10.321394      -280.8594
   5   2.0000     -10.313069      -280.6329
   6   2.0000     -10.307796      -280.4894
   7   2.0000     -10.301764      -280.3252
   8   2.0000     -10.299399      -280.2609
   9   2.0000     -10.295027      -280.1419
  10   2.0000     -10.293501      -280.1004
  11   2.0000     -10.287389      -279.9341
  12   2.0000     -10.285152      -279.8732
  13   2.0000     -10.283549      -279.8296
  14   2.0000     -10.279777      -279.7269
  15   2.0000     -10.279523      -279.7200
  16   2.0000      -8.081875      -219.9190
  17   2.0000      -8.080761      -219.8887
  18   2.0000      -6.040231      -164.3630
  19   2.0000      -6.039442      -164.3416
  20   2.0000      -6.036168      -164.2525
  21   2.0000      -6.035444      -164.2328
  22   2.0000      -6.032891      -164.1633
  23   2.0000      -6.031491      -164.1252
  24   2.0000      -1.007405       -27.4129
  25   2.0000      -0.985377       -26.8135
  26   2.0000      -0.920918       -25.0594
  27   2.0000      -0.914905       -24.8958
  28   2.0000      -0.871564       -23.7165
  29   2.0000      -0.852152       -23.1882
  30   2.0000      -0.842172       -22.9167
  31   2.0000      -0.811488       -22.0817
  32   2.0000      -0.789099       -21.4725
  33   2.0000      -0.777749       -21.1636
  34   2.0000      -0.713422       -19.4132
  35   2.0000      -0.699114       -19.0238
  36   2.0000      -0.690990       -18.8028
  37   2.0000      -0.673172       -18.3179
  38   2.0000      -0.638418       -17.3722
  39   2.0000      -0.629064       -17.1177
  40   2.0000      -0.605917       -16.4878
  41   2.0000      -0.575339       -15.6558
  42   2.0000      -0.567069       -15.4307
  43   2.0000      -0.562474       -15.3057
  44   2.0000      -0.527652       -14.3581
  45   2.0000      -0.522007       -14.2045
  46   2.0000      -0.518282       -14.1032
  47   2.0000      -0.509632       -13.8678
  48   2.0000      -0.507778       -13.8173
  49   2.0000      -0.502146       -13.6641
  50   2.0000      -0.492322       -13.3968
  51   2.0000      -0.480505       -13.0752
  52   2.0000      -0.473035       -12.8719
  53   2.0000      -0.470042       -12.7905
  54   2.0000      -0.461460       -12.5570
  55   2.0000      -0.453091       -12.3292
  56   2.0000      -0.446841       -12.1592
  57   2.0000      -0.441640       -12.0176
  58   2.0000      -0.430010       -11.7012
  59   2.0000      -0.420043       -11.4299
  60   2.0000      -0.418300       -11.3825
  61   2.0000      -0.414713       -11.2849
  62   2.0000      -0.405478       -11.0336
  63   2.0000      -0.354687        -9.6515
  64   2.0000      -0.333701        -9.0805
  65   2.0000      -0.331263        -9.0141
  66   2.0000      -0.287078        -7.8118
  67   0.0000       0.020604         0.5607
  68   0.0000       0.078277         2.1300
  69   0.0000       0.102307         2.7839
  70   0.0000       0.116071         3.1584
  71   0.0000       0.129095         3.5129

MULLIKEN ATOMIC CHARGES
-----------------------
   0 S :    0.081335
   1 C :   -0.098459
   2 C :   -0.028046
   3 C :    0.018214
   4 C :   -0.099066
   5 H :   -0.047537
   6 C :    0.082514
   7 H :    0.009218
   8 H :    0.034669
   9 C :   -0.116189
  10 H :    0.033689
  11 H :    0.044098
  12 C :   -0.050818
  13 H :    0.036220
  14 H :    0.031166
  15 H :    0.039406
  16 S :    0.107023
  17 C :   -0.108176
  18 C :   -0.030088
  19 C :   -0.030210
  20 C :   -0.133134
  21 H :    0.018381
  22 C :    0.080022
  23 H :    0.021726
  24 H :    0.020284
  25 C :   -0.086984
  26 H :    0.020098
  27 H :    0.020563
  28 C :   -0.049520
  29 H :    0.020887
  30 H :    0.041974
  31 H :    0.038635
  32 H :    0.005188
  33 H :    0.072918
Sum of atomic charges:   -0.0000000

LOEWDIN ATOMIC CHARGES
----------------------
   0 S :    0.386058
   1 C :   -0.153088
   2 C :   -0.056646
   3 C :   -0.066496
   4 C :   -0.189712
   5 H :    0.003103
   6 C :   -0.032565
   7 H :    0.030184
   8 H :    0.032370
   9 C :   -0.047339
  10 H :    0.026793
  11 H :    0.025781
  12 C :   -0.069268
  13 H :    0.026810
  14 H :    0.030340
  15 H :    0.030314
  16 S :    0.432824
  17 C :   -0.198125
  18 C :   -0.068194
  19 C :   -0.050799
  20 C :   -0.195617
  21 H :    0.030622
  22 C :   -0.045251
  23 H :    0.039129
  24 H :    0.031029
  25 C :   -0.045628
  26 H :    0.012477
  27 H :    0.024294
  28 C :   -0.066822
  29 H :    0.020619
  30 H :    0.035213
  31 H :    0.023129
  32 H :    0.009433
  33 H :    0.035028

  Mayer bond orders larger than 0.100000
B(  0-S ,  1-C ) :   1.1293 B(  0-S ,  4-C ) :   1.1342 B(  1-C ,  2-C ) :   1.6194
B(  1-C , 32-H ) :   0.9745 B(  2-C ,  3-C ) :   1.2686 B(  2-C ,  6-C ) :   1.0064
B(  3-C ,  4-C ) :   1.5569 B(  3-C ,  5-H ) :   0.9992 B(  4-C , 20-C ) :   1.0512
B(  6-C ,  7-H ) :   0.9364 B(  6-C ,  8-H ) :   0.9355 B(  6-C ,  9-C ) :   1.0612
B(  9-C , 10-H ) :   0.9597 B(  9-C , 11-H ) :   0.9494 B(  9-C , 12-C ) :   1.0766
B( 12-C , 13-H ) :   0.9743 B( 12-C , 14-H ) :   0.9731 B( 12-C , 15-H ) :   0.9747
B( 16-S , 17-C ) :   1.1840 B( 16-S , 20-C ) :   1.1506 B( 17-C , 18-C ) :   1.5740
B( 17-C , 33-H ) :   0.9658 B( 18-C , 19-C ) :   1.2487 B( 18-C , 21-H ) :   0.9961
B( 19-C , 20-C ) :   1.5484 B( 19-C , 22-C ) :   1.0705 B( 22-C , 23-H ) :   0.9195
B( 22-C , 24-H ) :   0.9243 B( 22-C , 25-C ) :   1.0696 B( 25-C , 26-H ) :   0.9525
B( 25-C , 27-H ) :   0.9486 B( 25-C , 28-C ) :   1.0804 B( 28-C , 29-H ) :   0.9733
B( 28-C , 30-H ) :   0.9740 B( 28-C , 31-H ) :   0.9769

Dispersion correction           -0.013826462
FINAL SINGLE POINT ENERGY     -1339.873264955375

DIPOLE MOMENT
-------------
                                X             Y             Z
Electronic contribution:     10.20134       4.47934      -2.37673
Nuclear contribution   :    -10.44701      -4.36859       2.22237
                        -----------------------------------------
Total Dipole Moment    :     -0.24566       0.11076      -0.15435
                        -----------------------------------------
Magnitude (a.u.)       :      0.31055
Magnitude (Debye)      :      0.78936

Rotational constants in cm-1:     0.021403     0.007955     0.005992
Rotational constants in MHz :   641.648543   238.494982   179.629973

                             ****ORCA TERMINATED NORMALLY****
TOTAL RUN TIME: 0 days 0 hours 0 minutes 35 seconds 470 msec
