                         Program Version 4.2.1 -  RELEASE  -
|  1> ! wB97X-D3 SP def2-SVP
|  2> %pal
|  3> nprocs 16
|  4> end
|  5>
|  6> * xyz 0 1
|  7> S 	 8.74315 	 23.3635 	 35.2081
|  8> C 	 9.52884 	 22.1974 	 34.1776
|  9> C 	 10.1208 	 21.1409 	 34.925
| 10> C 	 9.95939 	 21.3441 	 36.3086
| 11> C 	 9.29051 	 22.5006 	 36.6789
| 12> H 	 10.0996 	 20.541 	 37.0121
| 13> C 	 10.8747 	 19.9522 	 34.3591
| 14> H 	 11.4403 	 20.2455 	 33.4942
| 15> H 	 10.2059 	 19.0381 	 34.1244
| 16> C 	 11.9329 	 19.3316 	 35.3278
| 17> H 	 12.6508 	 20.0315 	 35.6806
| 18> H 	 11.5225 	 18.9744 	 36.2867
| 19> C 	 12.6696 	 18.2224 	 34.5534
| 20> H 	 13.4248 	 17.7024 	 35.2382
| 21> H 	 11.8809 	 17.4924 	 34.2751
| 22> H 	 13.2301 	 18.6002 	 33.7115
| 23> S 	 7.51059 	 23.731 	 38.0973
| 24> C 	 7.55328 	 23.8315 	 39.8132
| 25> C 	 8.70926 	 23.3244 	 40.3504
| 26> C 	 9.55963 	 22.8266 	 39.3062
| 27> C 	 8.97473 	 22.8979 	 38.0259
| 28> H 	 8.93272 	 23.1958 	 41.3662
| 29> C 	 10.8818 	 22.1197 	 39.6579
| 30> H 	 11.3925 	 21.9614 	 38.6692
| 31> H 	 10.6373 	 21.1602 	 40.155
| 32> C 	 11.7737 	 22.944 	 40.5943
| 33> H 	 11.2499 	 23.3825 	 41.4249
| 34> H 	 12.1943 	 23.8071 	 40.073
| 35> C 	 12.864 	 22.0923 	 41.2634
| 36> H 	 12.805 	 22.3615 	 42.285
| 37> H 	 13.8215 	 22.4388 	 40.9286
| 38> H 	 12.7349 	 20.9833 	 41.2113
| 39> H 	 9.58828 	 22.1564 	 33.0834
| 40> H 	 6.70652 	 24.3397 	 40.3193
| 41> *
| 42>
| 43>                          ****END OF INPUT****

CARTESIAN COORDINATES (ANGSTROEM)
---------------------------------
  S      8.743150   23.363500   35.208100
  C      9.528840   22.197400   34.177600
  C     10.120800   21.140900   34.925000
  C      9.959390   21.344100   36.308600
  C      9.290510   22.500600   36.678900
  H     10.099600   20.541000   37.012100
  C     10.874700   19.952200   34.359100
  H     11.440300   20.245500   33.494200
  H     10.205900   19.038100   34.124400
  C     11.932900   19.331600   35.327800
  H     12.650800   20.031500   35.680600
  H     11.522500   18.974400   36.286700
  C     12.669600   18.222400   34.553400
  H     13.424800   17.702400   35.238200
  H     11.880900   17.492400   34.275100
  H     13.230100   18.600200   33.711500
  S      7.510590   23.731000   38.097300
  C      7.553280   23.831500   39.813200
  C      8.709260   23.324400   40.350400
  C      9.559630   22.826600   39.306200
  C      8.974730   22.897900   38.025900
  H      8.932720   23.195800   41.366200
  C     10.881800   22.119700   39.657900
  H     11.392500   21.961400   38.669200
  H     10.637300   21.160200   40.155000
  C     11.773700   22.944000   40.594300
  H     11.249900   23.382500   41.424900
  H     12.194300   23.807100   40.073000
  C     12.864000   22.092300   41.263400
  H     12.805000   22.361500   42.285000
  H     13.821500   22.438800   40.928600
  H     12.734900   20.983300   41.211300
  H      9.588280   22.156400   33.083400
  H      6.706520   24.339700   40.319300

 Total Charge           Charge          ....    0
 Multiplicity           Mult            ....    1
 Number of Electrons    NEL             ....  134
 Basis Dimension        Dim             ....  322

ORBITAL ENERGIES
----------------

  NO   OCC          E(Eh)            E(eV)
   0   2.0000     -88.972960     -2421.0773
   1   2.0000     -88.960661     -2420.7427
   2   2.0000     -10.332443      -281.1601
   3   2.0000     -10.322260      -280.8830
   4   2.0000     -10.318424      -280.7786
   5   2.0000     -10.316793      -280.7342
   6   2.0000     -10.304361      -280.3959
   7   2.0000     -10.301544      -280.3193
   8   2.0000     -10.300716      -280.2967
   9   2.0000     -10.296281      -280.1760
  10   2.0000     -10.291913      -280.0572
  11   2.0000     -10.288653      -279.9685
  12   2.0000     -10.286487      -279.9096
  13   2.0000     -10.286215      -279.9021
  14   2.0000     -10.281985      -279.7870
  15   2.0000     -10.273264      -279.5497
  16   2.0000      -8.086474      -220.0441
  17   2.0000      -8.077890      -219.8106
  18   2.0000      -6.045162      -164.4972
  19   2.0000      -6.041098      -164.3866
  20   2.0000      -6.037170      -164.2797
  21   2.0000      -6.036195      -164.2532
  22   2.0000      -6.031978      -164.1385
  23   2.0000      -6.028779      -164.0514
  24   2.0000      -1.013528       -27.5795
  25   2.0000      -0.983385       -26.7593
  26   2.0000      -0.911665       -24.8077
  27   2.0000      -0.907509       -24.6946
  28   2.0000      -0.873830       -23.7781
  29   2.0000      -0.854074       -23.2405
  30   2.0000      -0.845916       -23.0185
  31   2.0000      -0.813129       -22.1264
  32   2.0000      -0.777078       -21.1454
  33   2.0000      -0.764626       -20.8065
  34   2.0000      -0.711040       -19.3484
  35   2.0000      -0.697309       -18.9748
  36   2.0000      -0.690535       -18.7904
  37   2.0000      -0.666209       -18.1285
  38   2.0000      -0.634514       -17.2660
  39   2.0000      -0.622784       -16.9468
  40   2.0000      -0.599230       -16.3059
  41   2.0000      -0.573120       -15.5954
  42   2.0000      -0.566930       -15.4270
  43   2.0000      -0.562779       -15.3140
  44   2.0000      -0.525766       -14.3068
  45   2.0000      -0.522426       -14.2159
  46   2.0000      -0.518604       -14.1119
  47   2.0000      -0.504772       -13.7355
  48   2.0000      -0.503789       -13.7088
  49   2.0000      -0.499524       -13.5927
  50   2.0000      -0.488439       -13.2911
  51   2.0000      -0.484236       -13.1767
  52   2.0000      -0.468023       -12.7356
  53   2.0000      -0.463239       -12.6054
  54   2.0000      -0.459192       -12.4953
  55   2.0000      -0.454009       -12.3542
  56   2.0000      -0.446807       -12.1582
  57   2.0000      -0.441913       -12.0251
  58   2.0000      -0.433181       -11.7874
  59   2.0000      -0.427003       -11.6194
  60   2.0000      -0.418547       -11.3892
  61   2.0000      -0.415191       -11.2979
  62   2.0000      -0.407771       -11.0960
  63   2.0000      -0.358859        -9.7650
  64   2.0000      -0.334596        -9.1048
  65   2.0000      -0.326203        -8.8764
  66   2.0000      -0.279947        -7.6177
  67   0.0000       0.022908         0.6234
  68   0.0000       0.077116         2.0984
  69   0.0000       0.103548         2.8177
  70   0.0000       0.116211         3.1623
  71   0.0000       0.133605         3.6356

MULLIKEN ATOMIC CHARGES
-----------------------
   0 S :    0.122374
   1 C :   -0.116440
   2 C :   -0.079193
   3 C :   -0.012902
   4 C :   -0.107409
   5 H :    0.019893
   6 C :    0.037723
   7 H :    0.026598
   8 H :    0.056357
   9 C :   -0.105587
  10 H :    0.022225
  11 H :    0.030649
  12 C :   -0.061955
  13 H :    0.041366
  14 H :    0.035644
  15 H :    0.039689
  16 S :    0.089793
  17 C :   -0.098397
  18 C :   -0.001340
  19 C :   -0.066564
  20 C :   -0.142635
  21 H :    0.005965
  22 C :    0.045664
  23 H :    0.042678
  24 H :    0.041937
  25 C :   -0.096978
  26 H :    0.016564
  27 H :    0.033986
  28 C :   -0.025401
  29 H :    0.014623
  30 H :    0.029192
  31 H :    0.041569
  32 H :    0.049370
  33 H :    0.070941
Sum of atomic charges:    0.0000000

LOEWDIN ATOMIC CHARGES
----------------------
   0 S :    0.397932
   1 C :   -0.207702
   2 C :   -0.065486
   3 C :   -0.070463
   4 C :   -0.184095
   5 H :    0.031203
   6 C :   -0.034354
   7 H :    0.029110
   8 H :    0.044227
   9 C :   -0.046791
  10 H :    0.017222
  11 H :    0.021746
  12 C :   -0.066454
  13 H :    0.033125
  14 H :    0.027216
  15 H :    0.022958
  16 S :    0.442265
  17 C :   -0.193128
  18 C :   -0.065182
  19 C :   -0.058342
  20 C :   -0.215928
  21 H :    0.024654
  22 C :   -0.034701
  23 H :    0.037235
  24 H :    0.032051
  25 C :   -0.042868
  26 H :    0.017103
  27 H :    0.028589
  28 C :   -0.064579
  29 H :    0.021791
  30 H :    0.024512
  31 H :    0.030457
  32 H :    0.033942
  33 H :    0.032736

  Mayer bond orders larger than 0.100000
B(  0-S ,  1-C ) :   1.1405 B(  0-S ,  4-C ) :   1.1332 B(  1-C ,  2-C ) :   1.5916
B(  1-C ,  4-C ) :   0.1040 B(  1-C , 32-H ) :   0.9654 B(  2-C ,  3-C ) :   1.2893
B(  2-C ,  6-C ) :   1.0176 B(  3-C ,  4-C ) :   1.5485 B(  3-C ,  5-H ) :   0.9863
B(  4-C , 20-C ) :   1.0820 B(  6-C ,  7-H ) :   0.9473 B(  6-C ,  8-H ) :   0.9327
B(  6-C ,  9-C ) :   1.0711 B(  9-C , 10-H ) :   0.9559 B(  9-C , 11-H ) :   0.9466
B(  9-C , 12-C ) :   1.0824 B( 12-C , 13-H ) :   0.9725 B( 12-C , 14-H ) :   0.9744
B( 12-C , 15-H ) :   0.9761 B( 16-S , 17-C ) :   1.1820 B( 16-S , 20-C ) :   1.1561
B( 17-C , 18-C ) :   1.5631 B( 17-C , 33-H ) :   0.9664 B( 18-C , 19-C ) :   1.2623
B( 18-C , 21-H ) :   1.0017 B( 19-C , 20-C ) :   1.5509 B( 19-C , 22-C ) :   1.0336
B( 22-C , 23-H ) :   0.9363 B( 22-C , 24-H ) :   0.9418 B( 22-C , 25-C ) :   1.0605
B( 25-C , 26-H ) :   0.9716 B( 25-C , 27-H ) :   0.9564 B( 25-C , 28-C ) :   1.0613
B( 28-C , 29-H ) :   0.9809 B( 28-C , 30-H ) :   0.9770 B( 28-C , 31-H ) :   0.9778

Dispersion correction           -0.013218282
FINAL SINGLE POINT ENERGY     -1339.870967589568

DIPOLE MOMENT
-------------
                                X             Y             Z
Electronic contribution:    -25.33430      18.99931      -6.90997
Nuclear contribution   :     25.73294     -19.42288       7.20095
                        -----------------------------------------
Total Dipole Moment    :      0.39864      -0.42357       0.29098
                        -----------------------------------------
Magnitude (a.u.)       :      0.65038
Magnitude (Debye)      :      1.65313

Rotational constants in cm-1:     0.015649     0.009285     0.006192
Rotational constants in MHz :   469.143826   278.355476   185.635029

                             ****ORCA TERMINATED NORMALLY****
TOTAL RUN TIME: 0 days 0 hours 0 minutes 34 seconds 43 msec
