                         Program Version 4.2.1 -  RELEASE  -
|  1> ! wB97X-D3 SP def2-SVP
|  2> %pal
|  3> nprocs 16
|  4> end
|  5>
|  6> * xyz 0 1
|  7> S 	 57.337 	 4.89702 	 80.2793
|  8> C 	 57.8571 	 3.55038 	 79.3046
|  9> C 	 56.9653 	 2.48693 	 79.4319
| 10> C 	 55.8648 	 2.83731 	 80.2627
| 11> C 	 56.0156 	 4.00907 	 80.9811
| 12> H 	 54.9517 	 2.35879 	 80.4601
| 13> C 	 56.9964 	 1.22574 	 78.7159
| 14> H 	 57.3824 	 1.3833 	 77.6194
| 15> H 	 55.9455 	 0.902639 	 78.6964
| 16> C 	 57.865 	 0.132287 	 79.3755
| 17> H 	 58.1901 	 -0.566604 	 78.5931
| 18> H 	 58.8016 	 0.484738 	 79.6845
| 19> C 	 57.2031 	 -0.691271 	 80.4561
| 20> H 	 57.8565 	 -1.25972 	 81.0833
| 21> H 	 56.7192 	 0.062311 	 81.1108
| 22> H 	 56.3796 	 -1.39418 	 80.1446
| 23> S 	 54.88 	 6.4978 	 81.8511
| 24> C 	 53.4284 	 6.33734 	 82.7731
| 25> C 	 53.3378 	 5.12187 	 83.3419
| 26> C 	 54.1888 	 4.1418 	 82.6982
| 27> C 	 55.0206 	 4.71635 	 81.7782
| 28> H 	 52.5893 	 5.05323 	 84.0945
| 29> C 	 54.1813 	 2.70289 	 83.2407
| 30> H 	 55.0719 	 2.16125 	 82.8211
| 31> H 	 53.3546 	 2.07181 	 82.7831
| 32> C 	 54.1966 	 2.68404 	 84.8135
| 33> H 	 53.2945 	 3.19729 	 85.2537
| 34> H 	 55.0527 	 3.30965 	 85.1105
| 35> C 	 54.5251 	 1.26056 	 85.3339
| 36> H 	 55.2343 	 0.726441 	 84.7325
| 37> H 	 53.5346 	 0.737472 	 85.2726
| 38> H 	 54.9061 	 1.3299 	 86.3591
| 39> H 	 58.7853 	 3.45583 	 78.6926
| 40> H 	 52.7704 	 7.21907 	 82.9627
| 41> *
| 42>
| 43>                          ****END OF INPUT****

CARTESIAN COORDINATES (ANGSTROEM)
---------------------------------
  S     57.337000    4.897020   80.279300
  C     57.857100    3.550380   79.304600
  C     56.965300    2.486930   79.431900
  C     55.864800    2.837310   80.262700
  C     56.015600    4.009070   80.981100
  H     54.951700    2.358790   80.460100
  C     56.996400    1.225740   78.715900
  H     57.382400    1.383300   77.619400
  H     55.945500    0.902639   78.696400
  C     57.865000    0.132287   79.375500
  H     58.190100   -0.566604   78.593100
  H     58.801600    0.484738   79.684500
  C     57.203100   -0.691271   80.456100
  H     57.856500   -1.259720   81.083300
  H     56.719200    0.062311   81.110800
  H     56.379600   -1.394180   80.144600
  S     54.880000    6.497800   81.851100
  C     53.428400    6.337340   82.773100
  C     53.337800    5.121870   83.341900
  C     54.188800    4.141800   82.698200
  C     55.020600    4.716350   81.778200
  H     52.589300    5.053230   84.094500
  C     54.181300    2.702890   83.240700
  H     55.071900    2.161250   82.821100
  H     53.354600    2.071810   82.783100
  C     54.196600    2.684040   84.813500
  H     53.294500    3.197290   85.253700
  H     55.052700    3.309650   85.110500
  C     54.525100    1.260560   85.333900
  H     55.234300    0.726441   84.732500
  H     53.534600    0.737472   85.272600
  H     54.906100    1.329900   86.359100
  H     58.785300    3.455830   78.692600
  H     52.770400    7.219070   82.962700

 Total Charge           Charge          ....    0
 Multiplicity           Mult            ....    1
 Number of Electrons    NEL             ....  134
 Basis Dimension        Dim             ....  322

ORBITAL ENERGIES
----------------

  NO   OCC          E(Eh)            E(eV)
   0   2.0000     -88.964886     -2420.8576
   1   2.0000     -88.962265     -2420.7863
   2   2.0000     -10.328359      -281.0489
   3   2.0000     -10.327156      -281.0162
   4   2.0000     -10.316799      -280.7344
   5   2.0000     -10.316259      -280.7197
   6   2.0000     -10.305728      -280.4331
   7   2.0000     -10.303831      -280.3815
   8   2.0000     -10.298201      -280.2283
   9   2.0000     -10.297529      -280.2100
  10   2.0000     -10.296204      -280.1739
  11   2.0000     -10.289741      -279.9981
  12   2.0000     -10.289375      -279.9881
  13   2.0000     -10.282902      -279.8120
  14   2.0000     -10.282337      -279.7966
  15   2.0000     -10.279443      -279.7179
  16   2.0000      -8.079880      -219.8647
  17   2.0000      -8.077405      -219.7974
  18   2.0000      -6.038396      -164.3131
  19   2.0000      -6.036078      -164.2500
  20   2.0000      -6.034328      -164.2024
  21   2.0000      -6.032263      -164.1462
  22   2.0000      -6.030650      -164.1023
  23   2.0000      -6.027556      -164.0181
  24   2.0000      -1.010582       -27.4993
  25   2.0000      -0.989045       -26.9133
  26   2.0000      -0.917518       -24.9669
  27   2.0000      -0.902805       -24.5666
  28   2.0000      -0.872871       -23.7520
  29   2.0000      -0.853746       -23.2316
  30   2.0000      -0.842989       -22.9389
  31   2.0000      -0.817813       -22.2538
  32   2.0000      -0.780895       -21.2492
  33   2.0000      -0.769485       -20.9388
  34   2.0000      -0.709856       -19.3162
  35   2.0000      -0.701350       -19.0847
  36   2.0000      -0.697308       -18.9747
  37   2.0000      -0.656040       -17.8517
  38   2.0000      -0.638489       -17.3742
  39   2.0000      -0.614859       -16.7312
  40   2.0000      -0.596375       -16.2282
  41   2.0000      -0.574530       -15.6337
  42   2.0000      -0.559654       -15.2290
  43   2.0000      -0.554342       -15.0844
  44   2.0000      -0.540129       -14.6977
  45   2.0000      -0.525109       -14.2889
  46   2.0000      -0.516618       -14.0579
  47   2.0000      -0.513647       -13.9771
  48   2.0000      -0.503804       -13.7092
  49   2.0000      -0.495590       -13.4857
  50   2.0000      -0.489117       -13.3095
  51   2.0000      -0.476793       -12.9742
  52   2.0000      -0.475052       -12.9268
  53   2.0000      -0.466050       -12.6819
  54   2.0000      -0.461032       -12.5453
  55   2.0000      -0.451429       -12.2840
  56   2.0000      -0.444261       -12.0889
  57   2.0000      -0.440163       -11.9775
  58   2.0000      -0.435123       -11.8403
  59   2.0000      -0.426871       -11.6157
  60   2.0000      -0.416276       -11.3274
  61   2.0000      -0.409348       -11.1389
  62   2.0000      -0.407267       -11.0823
  63   2.0000      -0.360304        -9.8044
  64   2.0000      -0.330678        -8.9982
  65   2.0000      -0.324708        -8.8357
  66   2.0000      -0.283837        -7.7236
  67   0.0000       0.023232         0.6322
  68   0.0000       0.071925         1.9572
  69   0.0000       0.101844         2.7713
  70   0.0000       0.113815         3.0971
  71   0.0000       0.130542         3.5522

MULLIKEN ATOMIC CHARGES
-----------------------
   0 S :    0.091685
   1 C :   -0.117842
   2 C :   -0.061056
   3 C :    0.002477
   4 C :   -0.138306
   5 H :   -0.000915
   6 C :    0.003757
   7 H :    0.048873
   8 H :    0.032419
   9 C :   -0.014624
  10 H :    0.018108
  11 H :    0.008315
  12 C :   -0.061805
  13 H :    0.030395
  14 H :    0.021897
  15 H :    0.038572
  16 S :    0.092353
  17 C :   -0.116089
  18 C :   -0.011802
  19 C :   -0.044611
  20 C :   -0.111681
  21 H :    0.008810
  22 C :    0.016892
  23 H :    0.031954
  24 H :    0.046246
  25 C :   -0.122664
  26 H :    0.051688
  27 H :    0.041375
  28 C :   -0.036143
  29 H :    0.033186
  30 H :    0.039163
  31 H :    0.044207
  32 H :    0.061189
  33 H :    0.073977
Sum of atomic charges:   -0.0000000

LOEWDIN ATOMIC CHARGES
----------------------
   0 S :    0.411820
   1 C :   -0.206341
   2 C :   -0.071305
   3 C :   -0.064069
   4 C :   -0.185416
   5 H :    0.022641
   6 C :   -0.037920
   7 H :    0.045675
   8 H :    0.035466
   9 C :   -0.040462
  10 H :    0.024557
  11 H :    0.017563
  12 C :   -0.070870
  13 H :    0.022964
  14 H :    0.025069
  15 H :    0.029967
  16 S :    0.376976
  17 C :   -0.181974
  18 C :   -0.071953
  19 C :   -0.054999
  20 C :   -0.187494
  21 H :    0.027722
  22 C :   -0.042510
  23 H :    0.030732
  24 H :    0.033909
  25 C :   -0.045179
  26 H :    0.029000
  27 H :    0.027686
  28 C :   -0.064293
  29 H :    0.022795
  30 H :    0.032122
  31 H :    0.029403
  32 H :    0.039881
  33 H :    0.038837

  Mayer bond orders larger than 0.100000
B(  0-S ,  1-C ) :   1.1500 B(  0-S ,  4-C ) :   1.1484 B(  1-C ,  2-C ) :   1.5839
B(  1-C , 32-H ) :   0.9630 B(  2-C ,  3-C ) :   1.2453 B(  2-C ,  6-C ) :   1.0389
B(  3-C ,  4-C ) :   1.5528 B(  3-C ,  5-H ) :   0.9953 B(  4-C , 20-C ) :   1.0789
B(  6-C ,  7-H ) :   0.9394 B(  6-C ,  8-H ) :   0.9450 B(  6-C ,  9-C ) :   1.0580
B(  9-C , 10-H ) :   0.9511 B(  9-C , 11-H ) :   0.9541 B(  9-C , 12-C ) :   1.0795
B( 12-C , 13-H ) :   0.9720 B( 12-C , 14-H ) :   0.9750 B( 12-C , 15-H ) :   0.9742
B( 16-S , 17-C ) :   1.1404 B( 16-S , 20-C ) :   1.1010 B( 17-C , 18-C ) :   1.6573
B( 17-C , 33-H ) :   0.9608 B( 18-C , 19-C ) :   1.1802 B( 18-C , 21-H ) :   0.9978
B( 19-C , 20-C ) :   1.6369 B( 19-C , 22-C ) :   1.0369 B( 22-C , 23-H ) :   0.9355
B( 22-C , 24-H ) :   0.9342 B( 22-C , 25-C ) :   1.0501 B( 25-C , 26-H ) :   0.9526
B( 25-C , 27-H ) :   0.9603 B( 25-C , 28-C ) :   1.0725 B( 28-C , 29-H ) :   0.9757
B( 28-C , 30-H ) :   0.9771 B( 28-C , 31-H ) :   0.9761

Dispersion correction           -0.014094654
FINAL SINGLE POINT ENERGY     -1339.860332301698

DIPOLE MOMENT
-------------
                                X             Y             Z
Electronic contribution:      1.37222      29.82820      -7.85959
Nuclear contribution   :     -1.59428     -30.39830       8.05869
                        -----------------------------------------
Total Dipole Moment    :     -0.22206      -0.57010       0.19911
                        -----------------------------------------
Magnitude (a.u.)       :      0.64341
Magnitude (Debye)      :      1.63541

Rotational constants in cm-1:     0.016903     0.009741     0.006612
Rotational constants in MHz :   506.751343   292.035005   198.230717

                             ****ORCA TERMINATED NORMALLY****
TOTAL RUN TIME: 0 days 0 hours 0 minutes 30 seconds 894 msec
