                         Program Version 4.2.1 -  RELEASE  -
|  1> ! wB97X-D3 SP def2-SVP
|  2> %pal
|  3> nprocs 16
|  4> end
|  5>
|  6> * xyz 0 1
|  7> S 	 -3.14037 	 -16.4315 	 89.1764
|  8> C 	 -4.39092 	 -15.7822 	 90.1777
|  9> C 	 -5.30187 	 -15.0016 	 89.4684
| 10> C 	 -5.07 	 -15.071 	 88.0214
| 11> C 	 -3.90499 	 -15.7546 	 87.7083
| 12> H 	 -5.6938 	 -14.7182 	 87.1702
| 13> C 	 -6.45682 	 -14.3557 	 90.0957
| 14> H 	 -6.67248 	 -13.4792 	 89.524
| 15> H 	 -6.03608 	 -14.0023 	 91.0359
| 16> C 	 -7.69141 	 -15.2184 	 90.2065
| 17> H 	 -7.99947 	 -15.6081 	 89.2798
| 18> H 	 -7.65494 	 -16.0362 	 90.9455
| 19> C 	 -8.91287 	 -14.4605 	 90.6752
| 20> H 	 -9.7291 	 -15.2085 	 90.8656
| 21> H 	 -8.79477 	 -14.0319 	 91.6718
| 22> H 	 -9.38217 	 -13.8054 	 89.9489
| 23> S 	 -1.75345 	 -15.6082 	 85.9885
| 24> C 	 -1.95948 	 -15.7814 	 84.273
| 25> C 	 -3.26215 	 -16.1842 	 84.0431
| 26> C 	 -4.08259 	 -16.2554 	 85.1981
| 27> C 	 -3.40862 	 -16.0576 	 86.3581
| 28> H 	 -3.47678 	 -16.4274 	 83.0305
| 29> C 	 -5.53762 	 -16.846 	 84.9941
| 30> H 	 -5.94925 	 -17.1544 	 85.9755
| 31> H 	 -5.50994 	 -17.7188 	 84.2731
| 32> C 	 -6.6372 	 -15.9693 	 84.2238
| 33> H 	 -7.11685 	 -15.4023 	 85.0007
| 34> H 	 -7.29482 	 -16.6802 	 83.6993
| 35> C 	 -6.08675 	 -14.9048 	 83.2874
| 36> H 	 -6.94845 	 -14.348 	 82.9131
| 37> H 	 -5.66737 	 -15.3607 	 82.4271
| 38> H 	 -5.34362 	 -14.2434 	 83.8399
| 39> H 	 -4.51851 	 -15.9605 	 91.2278
| 40> H 	 -1.23686 	 -15.9912 	 83.5866
| 41> *
| 42>
| 43>                          ****END OF INPUT****

CARTESIAN COORDINATES (ANGSTROEM)
---------------------------------
  S     -3.140370  -16.431500   89.176400
  C     -4.390920  -15.782200   90.177700
  C     -5.301870  -15.001600   89.468400
  C     -5.070000  -15.071000   88.021400
  C     -3.904990  -15.754600   87.708300
  H     -5.693800  -14.718200   87.170200
  C     -6.456820  -14.355700   90.095700
  H     -6.672480  -13.479200   89.524000
  H     -6.036080  -14.002300   91.035900
  C     -7.691410  -15.218400   90.206500
  H     -7.999470  -15.608100   89.279800
  H     -7.654940  -16.036200   90.945500
  C     -8.912870  -14.460500   90.675200
  H     -9.729100  -15.208500   90.865600
  H     -8.794770  -14.031900   91.671800
  H     -9.382170  -13.805400   89.948900
  S     -1.753450  -15.608200   85.988500
  C     -1.959480  -15.781400   84.273000
  C     -3.262150  -16.184200   84.043100
  C     -4.082590  -16.255400   85.198100
  C     -3.408620  -16.057600   86.358100
  H     -3.476780  -16.427400   83.030500
  C     -5.537620  -16.846000   84.994100
  H     -5.949250  -17.154400   85.975500
  H     -5.509940  -17.718800   84.273100
  C     -6.637200  -15.969300   84.223800
  H     -7.116850  -15.402300   85.000700
  H     -7.294820  -16.680200   83.699300
  C     -6.086750  -14.904800   83.287400
  H     -6.948450  -14.348000   82.913100
  H     -5.667370  -15.360700   82.427100
  H     -5.343620  -14.243400   83.839900
  H     -4.518510  -15.960500   91.227800
  H     -1.236860  -15.991200   83.586600

 Total Charge           Charge          ....    0
 Multiplicity           Mult            ....    1
 Number of Electrons    NEL             ....  134
 Basis Dimension        Dim             ....  322

ORBITAL ENERGIES
----------------

  NO   OCC          E(Eh)            E(eV)
   0   2.0000     -88.967701     -2420.9342
   1   2.0000     -88.960828     -2420.7472
   2   2.0000     -10.333921      -281.2003
   3   2.0000     -10.328164      -281.0436
   4   2.0000     -10.313752      -280.6515
   5   2.0000     -10.308475      -280.5079
   6   2.0000     -10.305311      -280.4218
   7   2.0000     -10.303714      -280.3783
   8   2.0000     -10.302843      -280.3546
   9   2.0000     -10.302489      -280.3450
  10   2.0000     -10.290511      -280.0190
  11   2.0000     -10.288851      -279.9739
  12   2.0000     -10.285895      -279.8934
  13   2.0000     -10.284329      -279.8508
  14   2.0000     -10.278308      -279.6870
  15   2.0000     -10.277689      -279.6701
  16   2.0000      -8.082089      -219.9248
  17   2.0000      -8.076099      -219.7618
  18   2.0000      -6.040686      -164.3754
  19   2.0000      -6.036648      -164.2655
  20   2.0000      -6.034689      -164.2122
  21   2.0000      -6.032771      -164.1601
  22   2.0000      -6.030410      -164.0958
  23   2.0000      -6.026832      -163.9984
  24   2.0000      -1.007501       -27.4155
  25   2.0000      -0.984865       -26.7995
  26   2.0000      -0.921163       -25.0661
  27   2.0000      -0.899917       -24.4880
  28   2.0000      -0.874446       -23.7949
  29   2.0000      -0.854321       -23.2473
  30   2.0000      -0.844290       -22.9743
  31   2.0000      -0.820431       -22.3251
  32   2.0000      -0.781209       -21.2578
  33   2.0000      -0.772863       -21.0307
  34   2.0000      -0.708109       -19.2686
  35   2.0000      -0.702615       -19.1191
  36   2.0000      -0.684237       -18.6190
  37   2.0000      -0.666754       -18.1433
  38   2.0000      -0.643069       -17.4988
  39   2.0000      -0.616354       -16.7718
  40   2.0000      -0.585591       -15.9347
  41   2.0000      -0.577102       -15.7037
  42   2.0000      -0.569869       -15.5069
  43   2.0000      -0.568183       -15.4611
  44   2.0000      -0.537175       -14.6173
  45   2.0000      -0.531880       -14.4732
  46   2.0000      -0.524856       -14.2821
  47   2.0000      -0.514430       -13.9984
  48   2.0000      -0.507484       -13.8093
  49   2.0000      -0.498381       -13.5616
  50   2.0000      -0.490396       -13.3443
  51   2.0000      -0.477630       -12.9970
  52   2.0000      -0.475551       -12.9404
  53   2.0000      -0.465383       -12.6637
  54   2.0000      -0.458231       -12.4691
  55   2.0000      -0.444732       -12.1018
  56   2.0000      -0.440467       -11.9857
  57   2.0000      -0.432960       -11.7814
  58   2.0000      -0.427199       -11.6247
  59   2.0000      -0.424956       -11.5636
  60   2.0000      -0.422191       -11.4884
  61   2.0000      -0.414245       -11.2722
  62   2.0000      -0.409766       -11.1503
  63   2.0000      -0.351668        -9.5694
  64   2.0000      -0.329349        -8.9620
  65   2.0000      -0.328247        -8.9320
  66   2.0000      -0.294955        -8.0261
  67   0.0000       0.027905         0.7593
  68   0.0000       0.070687         1.9235
  69   0.0000       0.108530         2.9533
  70   0.0000       0.117955         3.2097
  71   0.0000       0.120847         3.2884

MULLIKEN ATOMIC CHARGES
-----------------------
   0 S :    0.114770
   1 C :   -0.103611
   2 C :   -0.117230
   3 C :    0.014635
   4 C :   -0.146295
   5 H :    0.027334
   6 C :    0.105477
   7 H :    0.012147
   8 H :    0.020469
   9 C :   -0.028024
  10 H :    0.012987
  11 H :    0.028745
  12 C :   -0.075397
  13 H :    0.024074
  14 H :    0.030374
  15 H :    0.035220
  16 S :    0.084529
  17 C :   -0.043127
  18 C :   -0.058267
  19 C :   -0.039603
  20 C :   -0.114042
  21 H :    0.010491
  22 C :    0.007215
  23 H :    0.042243
  24 H :    0.042066
  25 C :   -0.089959
  26 H :    0.021716
  27 H :    0.037727
  28 C :   -0.048890
  29 H :    0.034787
  30 H :    0.018051
  31 H :    0.063003
  32 H :    0.043029
  33 H :    0.033356
Sum of atomic charges:   -0.0000000

LOEWDIN ATOMIC CHARGES
----------------------
   0 S :    0.398861
   1 C :   -0.198991
   2 C :   -0.060479
   3 C :   -0.060419
   4 C :   -0.183868
   5 H :    0.039869
   6 C :   -0.036495
   7 H :    0.030783
   8 H :    0.034909
   9 C :   -0.034647
  10 H :    0.020712
  11 H :    0.029927
  12 C :   -0.070679
  13 H :    0.030275
  14 H :    0.023041
  15 H :    0.020974
  16 S :    0.405774
  17 C :   -0.179836
  18 C :   -0.058996
  19 C :   -0.069452
  20 C :   -0.194290
  21 H :    0.025220
  22 C :   -0.034557
  23 H :    0.029777
  24 H :    0.037312
  25 C :   -0.041035
  26 H :    0.015516
  27 H :    0.026451
  28 C :   -0.067880
  29 H :    0.028259
  30 H :    0.013987
  31 H :    0.038596
  32 H :    0.027115
  33 H :    0.014262

  Mayer bond orders larger than 0.100000
B(  0-S ,  1-C ) :   1.1378 B(  0-S ,  4-C ) :   1.1357 B(  1-C ,  2-C ) :   1.6254
B(  1-C , 32-H ) :   0.9682 B(  2-C ,  3-C ) :   1.2048 B(  2-C ,  6-C ) :   1.0434
B(  3-C ,  4-C ) :   1.6136 B(  3-C ,  5-H ) :   0.9832 B(  4-C , 20-C ) :   1.0001
B(  6-C ,  7-H ) :   0.9302 B(  6-C ,  8-H ) :   0.9282 B(  6-C ,  9-C ) :   1.0723
B(  9-C , 10-H ) :   0.9521 B(  9-C , 11-H ) :   0.9551 B(  9-C , 12-C ) :   1.0927
B( 12-C , 13-H ) :   0.9728 B( 12-C , 14-H ) :   0.9726 B( 12-C , 15-H ) :   0.9753
B( 16-S , 17-C ) :   1.1561 B( 16-S , 20-C ) :   1.1400 B( 17-C , 18-C ) :   1.6199
B( 17-C , 33-H ) :   0.9689 B( 18-C , 19-C ) :   1.2285 B( 18-C , 21-H ) :   0.9926
B( 19-C , 20-C ) :   1.6212 B( 19-C , 22-C ) :   1.0168 B( 22-C , 23-H ) :   0.9532
B( 22-C , 24-H ) :   0.9519 B( 22-C , 25-C ) :   1.0454 B( 25-C , 26-H ) :   0.9551
B( 25-C , 27-H ) :   0.9611 B( 25-C , 28-C ) :   1.1112 B( 28-C , 29-H ) :   0.9698
B( 28-C , 30-H ) :   0.9716 B( 28-C , 31-H ) :   0.9602

Dispersion correction           -0.014359546
FINAL SINGLE POINT ENERGY     -1339.859367181229

DIPOLE MOMENT
-------------
                                X             Y             Z
Electronic contribution:     29.95149      -5.30848       2.58454
Nuclear contribution   :    -30.75027       5.24650      -2.77201
                        -----------------------------------------
Total Dipole Moment    :     -0.79878      -0.06197      -0.18747
                        -----------------------------------------
Magnitude (a.u.)       :      0.82282
Magnitude (Debye)      :      2.09144

Rotational constants in cm-1:     0.018764     0.008729     0.006364
Rotational constants in MHz :   562.543922   261.695562   190.782886

                             ****ORCA TERMINATED NORMALLY****
TOTAL RUN TIME: 0 days 0 hours 0 minutes 33 seconds 694 msec
