                         Program Version 4.2.1 -  RELEASE  -
|  1> ! wB97X-D3 SP def2-SVP
|  2> %pal
|  3> nprocs 16
|  4> end
|  5>
|  6> * xyz 0 1
|  7> S 	 -34.5865 	 71.3953 	 144.935
|  8> C 	 -33.5981 	 72.5684 	 145.839
|  9> C 	 -33.0892 	 71.944 	 146.963
| 10> C 	 -33.463 	 70.5458 	 146.999
| 11> C 	 -34.2269 	 70.0569 	 146.013
| 12> H 	 -33.1279 	 69.9136 	 147.813
| 13> C 	 -32.2198 	 72.537 	 148.08
| 14> H 	 -31.8569 	 73.528 	 147.832
| 15> H 	 -31.2959 	 71.9127 	 148.156
| 16> C 	 -32.879 	 72.6755 	 149.518
| 17> H 	 -32.9194 	 71.7081 	 149.859
| 18> H 	 -32.2675 	 73.1693 	 150.303
| 19> C 	 -34.3189 	 73.1864 	 149.562
| 20> H 	 -34.3717 	 74.1406 	 149.042
| 21> H 	 -34.9736 	 72.4904 	 149.06
| 22> H 	 -34.6787 	 73.2932 	 150.533
| 23> S 	 -36.3996 	 68.3048 	 145.948
| 24> C 	 -36.2269 	 66.7126 	 145.347
| 25> C 	 -34.9144 	 66.4552 	 145.093
| 26> C 	 -34.0195 	 67.5302 	 145.334
| 27> C 	 -34.6852 	 68.6947 	 145.681
| 28> H 	 -34.5662 	 65.4237 	 144.817
| 29> C 	 -32.4771 	 67.3941 	 145.055
| 30> H 	 -32.0597 	 68.3711 	 144.915
| 31> H 	 -32.3144 	 66.9383 	 144.06
| 32> C 	 -31.5606 	 66.9282 	 146.207
| 33> H 	 -31.9948 	 66.0692 	 146.711
| 34> H 	 -31.5956 	 67.6765 	 147.035
| 35> C 	 -30.1005 	 66.6326 	 145.743
| 36> H 	 -30.3048 	 65.9766 	 144.87
| 37> H 	 -29.4316 	 66.0527 	 146.424
| 38> H 	 -29.6067 	 67.5727 	 145.517
| 39> H 	 -33.381 	 73.5793 	 145.553
| 40> H 	 -37.0397 	 66.0026 	 145.373
| 41> *
| 42>
| 43>                          ****END OF INPUT****

CARTESIAN COORDINATES (ANGSTROEM)
---------------------------------
  S    -34.586500   71.395300  144.935000
  C    -33.598100   72.568400  145.839000
  C    -33.089200   71.944000  146.963000
  C    -33.463000   70.545800  146.999000
  C    -34.226900   70.056900  146.013000
  H    -33.127900   69.913600  147.813000
  C    -32.219800   72.537000  148.080000
  H    -31.856900   73.528000  147.832000
  H    -31.295900   71.912700  148.156000
  C    -32.879000   72.675500  149.518000
  H    -32.919400   71.708100  149.859000
  H    -32.267500   73.169300  150.303000
  C    -34.318900   73.186400  149.562000
  H    -34.371700   74.140600  149.042000
  H    -34.973600   72.490400  149.060000
  H    -34.678700   73.293200  150.533000
  S    -36.399600   68.304800  145.948000
  C    -36.226900   66.712600  145.347000
  C    -34.914400   66.455200  145.093000
  C    -34.019500   67.530200  145.334000
  C    -34.685200   68.694700  145.681000
  H    -34.566200   65.423700  144.817000
  C    -32.477100   67.394100  145.055000
  H    -32.059700   68.371100  144.915000
  H    -32.314400   66.938300  144.060000
  C    -31.560600   66.928200  146.207000
  H    -31.994800   66.069200  146.711000
  H    -31.595600   67.676500  147.035000
  C    -30.100500   66.632600  145.743000
  H    -30.304800   65.976600  144.870000
  H    -29.431600   66.052700  146.424000
  H    -29.606700   67.572700  145.517000
  H    -33.381000   73.579300  145.553000
  H    -37.039700   66.002600  145.373000

 Total Charge           Charge          ....    0
 Multiplicity           Mult            ....    1
 Number of Electrons    NEL             ....  134
 Basis Dimension        Dim             ....  322

ORBITAL ENERGIES
----------------

  NO   OCC          E(Eh)            E(eV)
   0   2.0000     -88.964406     -2420.8446
   1   2.0000     -88.961365     -2420.7618
   2   2.0000     -10.333268      -281.1825
   3   2.0000     -10.330789      -281.1151
   4   2.0000     -10.320494      -280.8349
   5   2.0000     -10.316670      -280.7309
   6   2.0000     -10.310883      -280.5734
   7   2.0000     -10.306654      -280.4583
   8   2.0000     -10.301146      -280.3084
   9   2.0000     -10.295676      -280.1596
  10   2.0000     -10.295577      -280.1569
  11   2.0000     -10.293017      -280.0872
  12   2.0000     -10.291456      -280.0448
  13   2.0000     -10.287005      -279.9236
  14   2.0000     -10.283385      -279.8251
  15   2.0000     -10.266827      -279.3746
  16   2.0000      -8.079771      -219.8618
  17   2.0000      -8.075950      -219.7578
  18   2.0000      -6.038222      -164.3084
  19   2.0000      -6.034725      -164.2132
  20   2.0000      -6.034109      -164.1964
  21   2.0000      -6.030615      -164.1014
  22   2.0000      -6.030324      -164.0934
  23   2.0000      -6.026540      -163.9905
  24   2.0000      -1.008359       -27.4388
  25   2.0000      -0.987742       -26.8778
  26   2.0000      -0.905603       -24.6427
  27   2.0000      -0.903499       -24.5855
  28   2.0000      -0.870215       -23.6797
  29   2.0000      -0.848825       -23.0977
  30   2.0000      -0.840932       -22.8829
  31   2.0000      -0.817794       -22.2533
  32   2.0000      -0.783186       -21.3116
  33   2.0000      -0.775473       -21.1017
  34   2.0000      -0.708138       -19.2694
  35   2.0000      -0.699360       -19.0305
  36   2.0000      -0.694489       -18.8980
  37   2.0000      -0.657971       -17.9043
  38   2.0000      -0.644051       -17.5255
  39   2.0000      -0.623371       -16.9628
  40   2.0000      -0.602870       -16.4049
  41   2.0000      -0.565462       -15.3870
  42   2.0000      -0.559595       -15.2273
  43   2.0000      -0.550322       -14.9750
  44   2.0000      -0.544949       -14.8288
  45   2.0000      -0.523278       -14.2391
  46   2.0000      -0.515411       -14.0251
  47   2.0000      -0.510809       -13.8998
  48   2.0000      -0.506721       -13.7886
  49   2.0000      -0.503598       -13.7036
  50   2.0000      -0.486542       -13.2395
  51   2.0000      -0.474345       -12.9076
  52   2.0000      -0.472843       -12.8667
  53   2.0000      -0.466139       -12.6843
  54   2.0000      -0.464165       -12.6306
  55   2.0000      -0.451192       -12.2776
  56   2.0000      -0.441873       -12.0240
  57   2.0000      -0.438962       -11.9448
  58   2.0000      -0.429954       -11.6996
  59   2.0000      -0.421069       -11.4579
  60   2.0000      -0.414221       -11.2715
  61   2.0000      -0.411481       -11.1970
  62   2.0000      -0.408394       -11.1130
  63   2.0000      -0.340034        -9.2528
  64   2.0000      -0.335295        -9.1238
  65   2.0000      -0.326899        -8.8954
  66   2.0000      -0.311540        -8.4774
  67   0.0000       0.040355         1.0981
  68   0.0000       0.057602         1.5674
  69   0.0000       0.120257         3.2724
  70   0.0000       0.122921         3.3449
  71   0.0000       0.126343         3.4380

MULLIKEN ATOMIC CHARGES
-----------------------
   0 S :    0.092858
   1 C :   -0.108398
   2 C :   -0.102104
   3 C :    0.029153
   4 C :   -0.135056
   5 H :    0.009789
   6 C :    0.056213
   7 H :    0.016484
   8 H :    0.043034
   9 C :   -0.074192
  10 H :    0.002027
  11 H :    0.034653
  12 C :   -0.016943
  13 H :    0.024265
  14 H :    0.035802
  15 H :    0.021433
  16 S :    0.105450
  17 C :   -0.080440
  18 C :   -0.051716
  19 C :    0.004109
  20 C :   -0.177868
  21 H :    0.033257
  22 C :    0.045561
  23 H :    0.017811
  24 H :    0.036996
  25 C :   -0.076005
  26 H :    0.019602
  27 H :    0.025551
  28 C :   -0.063728
  29 H :    0.037288
  30 H :    0.046491
  31 H :    0.042348
  32 H :    0.044735
  33 H :    0.061539
Sum of atomic charges:   -0.0000000

LOEWDIN ATOMIC CHARGES
----------------------
   0 S :    0.388193
   1 C :   -0.176414
   2 C :   -0.067388
   3 C :   -0.063730
   4 C :   -0.194271
   5 H :    0.028956
   6 C :   -0.029907
   7 H :    0.023995
   8 H :    0.038065
   9 C :   -0.040446
  10 H :    0.008559
  11 H :    0.029721
  12 C :   -0.056293
  13 H :    0.023754
  14 H :    0.027393
  15 H :    0.018588
  16 S :    0.414382
  17 C :   -0.190294
  18 C :   -0.083024
  19 C :   -0.048869
  20 C :   -0.194826
  21 H :    0.038736
  22 C :   -0.034105
  23 H :    0.030549
  24 H :    0.033579
  25 C :   -0.044374
  26 H :    0.016238
  27 H :    0.022637
  28 C :   -0.068197
  29 H :    0.031029
  30 H :    0.031791
  31 H :    0.025501
  32 H :    0.028908
  33 H :    0.031566

  Mayer bond orders larger than 0.100000
B(  0-S ,  1-C ) :   1.1350 B(  0-S ,  4-C ) :   1.1331 B(  1-C ,  2-C ) :   1.6232
B(  1-C , 32-H ) :   0.9716 B(  2-C ,  3-C ) :   1.2103 B(  2-C ,  6-C ) :   1.0236
B(  3-C ,  4-C ) :   1.6291 B(  3-C ,  5-H ) :   1.0016 B(  4-C , 20-C ) :   0.9880
B(  6-C ,  7-H ) :   0.9459 B(  6-C ,  8-H ) :   0.9479 B(  6-C ,  9-C ) :   1.0497
B(  9-C , 10-H ) :   0.9537 B(  9-C , 11-H ) :   0.9598 B(  9-C , 12-C ) :   1.0874
B( 12-C , 13-H ) :   0.9787 B( 12-C , 14-H ) :   0.9685 B( 12-C , 15-H ) :   0.9726
B( 16-S , 17-C ) :   1.1686 B( 16-S , 20-C ) :   1.1555 B( 17-C , 18-C ) :   1.5858
B( 17-C , 20-C ) :   0.1021 B( 17-C , 33-H ) :   0.9703 B( 18-C , 19-C ) :   1.2597
B( 18-C , 21-H ) :   0.9832 B( 19-C , 20-C ) :   1.6014 B( 19-C , 22-C ) :   1.0311
B( 22-C , 23-H ) :   0.9349 B( 22-C , 24-H ) :   0.9497 B( 22-C , 25-C ) :   1.0425
B( 25-C , 26-H ) :   0.9613 B( 25-C , 27-H ) :   0.9540 B( 25-C , 28-C ) :   1.0613
B( 28-C , 29-H ) :   0.9773 B( 28-C , 30-H ) :   0.9761 B( 28-C , 31-H ) :   0.9784

Dispersion correction           -0.014371581
FINAL SINGLE POINT ENERGY     -1339.875585820531

DIPOLE MOMENT
-------------
                                X             Y             Z
Electronic contribution:    -20.43219      -0.45125     -13.35809
Nuclear contribution   :     20.96097       0.22923      13.73645
                        -----------------------------------------
Total Dipole Moment    :      0.52878      -0.22202       0.37835
                        -----------------------------------------
Magnitude (a.u.)       :      0.68706
Magnitude (Debye)      :      1.74636

Rotational constants in cm-1:     0.016936     0.008730     0.007009
Rotational constants in MHz :   507.730521   261.708797   210.118200

                             ****ORCA TERMINATED NORMALLY****
TOTAL RUN TIME: 0 days 0 hours 0 minutes 34 seconds 178 msec
