                         Program Version 4.2.1 -  RELEASE  -
|  1> ! wB97X-D3 SP def2-SVP
|  2> %pal
|  3> nprocs 16
|  4> end
|  5>
|  6> * xyz 0 1
|  7> S 	 -40.5916 	 14.9449 	 75.7017
|  8> C 	 -40.3132 	 16.5995 	 75.6469
|  9> C 	 -41.4618 	 17.4294 	 75.4652
| 10> C 	 -42.6396 	 16.5672 	 75.4731
| 11> C 	 -42.3267 	 15.2654 	 75.66
| 12> H 	 -43.6909 	 16.9086 	 75.5126
| 13> C 	 -41.5627 	 18.9246 	 75.2945
| 14> H 	 -41.2704 	 19.3294 	 76.2655
| 15> H 	 -42.6442 	 19.2026 	 75.2966
| 16> C 	 -40.8923 	 19.6262 	 74.1117
| 17> H 	 -39.9075 	 19.3706 	 74.3174
| 18> H 	 -41.1108 	 19.1415 	 73.0894
| 19> C 	 -41.0577 	 21.1756 	 74.0841
| 20> H 	 -40.8763 	 21.6895 	 75.0149
| 21> H 	 -40.4983 	 21.7482 	 73.4163
| 22> H 	 -42.024 	 21.3938 	 73.6628
| 23> S 	 -42.6356 	 12.7506 	 76.8091
| 24> C 	 -43.9882 	 11.7363 	 76.4114
| 25> C 	 -44.7694 	 12.3939 	 75.5199
| 26> C 	 -44.3118 	 13.7061 	 75.1023
| 27> C 	 -43.1203 	 14.0458 	 75.7173
| 28> H 	 -45.6658 	 11.9342 	 75.2262
| 29> C 	 -45.0884 	 14.5132 	 74.0988
| 30> H 	 -44.4141 	 14.6033 	 73.1917
| 31> H 	 -45.1867 	 15.5417 	 74.5148
| 32> C 	 -46.5503 	 14.0701 	 73.7338
| 33> H 	 -47.1881 	 13.8555 	 74.5736
| 34> H 	 -46.5762 	 13.2244 	 73.0349
| 35> C 	 -47.1084 	 15.2308 	 72.8841
| 36> H 	 -46.5416 	 15.5172 	 72.0024
| 37> H 	 -47.5208 	 16.0407 	 73.5134
| 38> H 	 -48.0033 	 14.893 	 72.4987
| 39> H 	 -39.3177 	 17.0542 	 75.9131
| 40> H 	 -44.3085 	 10.854 	 76.9172
| 41> *
| 42>
| 43>                          ****END OF INPUT****

CARTESIAN COORDINATES (ANGSTROEM)
---------------------------------
  S    -40.591600   14.944900   75.701700
  C    -40.313200   16.599500   75.646900
  C    -41.461800   17.429400   75.465200
  C    -42.639600   16.567200   75.473100
  C    -42.326700   15.265400   75.660000
  H    -43.690900   16.908600   75.512600
  C    -41.562700   18.924600   75.294500
  H    -41.270400   19.329400   76.265500
  H    -42.644200   19.202600   75.296600
  C    -40.892300   19.626200   74.111700
  H    -39.907500   19.370600   74.317400
  H    -41.110800   19.141500   73.089400
  C    -41.057700   21.175600   74.084100
  H    -40.876300   21.689500   75.014900
  H    -40.498300   21.748200   73.416300
  H    -42.024000   21.393800   73.662800
  S    -42.635600   12.750600   76.809100
  C    -43.988200   11.736300   76.411400
  C    -44.769400   12.393900   75.519900
  C    -44.311800   13.706100   75.102300
  C    -43.120300   14.045800   75.717300
  H    -45.665800   11.934200   75.226200
  C    -45.088400   14.513200   74.098800
  H    -44.414100   14.603300   73.191700
  H    -45.186700   15.541700   74.514800
  C    -46.550300   14.070100   73.733800
  H    -47.188100   13.855500   74.573600
  H    -46.576200   13.224400   73.034900
  C    -47.108400   15.230800   72.884100
  H    -46.541600   15.517200   72.002400
  H    -47.520800   16.040700   73.513400
  H    -48.003300   14.893000   72.498700
  H    -39.317700   17.054200   75.913100
  H    -44.308500   10.854000   76.917200

 Total Charge           Charge          ....    0
 Multiplicity           Mult            ....    1
 Number of Electrons    NEL             ....  134
 Basis Dimension        Dim             ....  322

ORBITAL ENERGIES
----------------

  NO   OCC          E(Eh)            E(eV)
   0   2.0000     -88.965672     -2420.8790
   1   2.0000     -88.959946     -2420.7232
   2   2.0000     -10.324809      -280.9523
   3   2.0000     -10.322804      -280.8978
   4   2.0000     -10.314807      -280.6802
   5   2.0000     -10.309853      -280.5454
   6   2.0000     -10.307770      -280.4887
   7   2.0000     -10.299591      -280.2661
   8   2.0000     -10.298738      -280.2429
   9   2.0000     -10.296732      -280.1883
  10   2.0000     -10.295162      -280.1456
  11   2.0000     -10.293585      -280.1027
  12   2.0000     -10.291244      -280.0390
  13   2.0000     -10.284638      -279.8592
  14   2.0000     -10.274953      -279.5957
  15   2.0000     -10.273515      -279.5566
  16   2.0000      -8.081649      -219.9129
  17   2.0000      -8.074823      -219.7271
  18   2.0000      -6.039949      -164.3554
  19   2.0000      -6.036119      -164.2511
  20   2.0000      -6.033444      -164.1784
  21   2.0000      -6.032396      -164.1498
  22   2.0000      -6.029237      -164.0639
  23   2.0000      -6.025508      -163.9624
  24   2.0000      -1.008207       -27.4347
  25   2.0000      -0.983697       -26.7678
  26   2.0000      -0.909709       -24.7544
  27   2.0000      -0.907239       -24.6872
  28   2.0000      -0.869855       -23.6699
  29   2.0000      -0.856709       -23.3122
  30   2.0000      -0.846624       -23.0378
  31   2.0000      -0.817568       -22.2472
  32   2.0000      -0.782353       -21.2889
  33   2.0000      -0.768535       -20.9129
  34   2.0000      -0.713673       -19.4200
  35   2.0000      -0.706876       -19.2351
  36   2.0000      -0.693145       -18.8614
  37   2.0000      -0.656393       -17.8614
  38   2.0000      -0.635349       -17.2887
  39   2.0000      -0.616518       -16.7763
  40   2.0000      -0.596587       -16.2340
  41   2.0000      -0.572345       -15.5743
  42   2.0000      -0.567680       -15.4474
  43   2.0000      -0.558024       -15.1846
  44   2.0000      -0.530000       -14.4220
  45   2.0000      -0.525690       -14.3048
  46   2.0000      -0.517114       -14.0714
  47   2.0000      -0.506117       -13.7721
  48   2.0000      -0.502156       -13.6644
  49   2.0000      -0.498649       -13.5689
  50   2.0000      -0.485713       -13.2169
  51   2.0000      -0.478969       -13.0334
  52   2.0000      -0.474457       -12.9106
  53   2.0000      -0.464605       -12.6426
  54   2.0000      -0.457361       -12.4454
  55   2.0000      -0.452258       -12.3066
  56   2.0000      -0.449021       -12.2185
  57   2.0000      -0.440357       -11.9827
  58   2.0000      -0.435801       -11.8587
  59   2.0000      -0.431789       -11.7496
  60   2.0000      -0.420314       -11.4373
  61   2.0000      -0.409805       -11.1514
  62   2.0000      -0.403470       -10.9790
  63   2.0000      -0.354553        -9.6479
  64   2.0000      -0.330515        -8.9938
  65   2.0000      -0.324046        -8.8177
  66   2.0000      -0.283940        -7.7264
  67   0.0000       0.029687         0.8078
  68   0.0000       0.077522         2.1095
  69   0.0000       0.106189         2.8895
  70   0.0000       0.122386         3.3303
  71   0.0000       0.138884         3.7792

MULLIKEN ATOMIC CHARGES
-----------------------
   0 S :    0.121584
   1 C :   -0.129773
   2 C :   -0.108237
   3 C :   -0.015359
   4 C :   -0.136636
   5 H :    0.034347
   6 C :    0.048164
   7 H :    0.032160
   8 H :    0.011930
   9 C :   -0.047587
  10 H :    0.009040
  11 H :    0.047859
  12 C :   -0.017725
  13 H :    0.028743
  14 H :    0.011100
  15 H :    0.022231
  16 S :    0.090199
  17 C :   -0.059313
  18 C :   -0.038117
  19 C :   -0.029409
  20 C :   -0.132913
  21 H :   -0.004537
  22 C :    0.016123
  23 H :    0.057268
  24 H :    0.030541
  25 C :   -0.084460
  26 H :    0.038821
  27 H :    0.035593
  28 C :   -0.014821
  29 H :    0.041148
  30 H :    0.032868
  31 H :   -0.006195
  32 H :    0.065956
  33 H :    0.049406
Sum of atomic charges:   -0.0000000

LOEWDIN ATOMIC CHARGES
----------------------
   0 S :    0.431198
   1 C :   -0.230480
   2 C :   -0.059781
   3 C :   -0.066055
   4 C :   -0.182028
   5 H :    0.038995
   6 C :   -0.040571
   7 H :    0.035467
   8 H :    0.028566
   9 C :   -0.038064
  10 H :    0.011940
  11 H :    0.038406
  12 C :   -0.065543
  13 H :    0.027004
  14 H :    0.021198
  15 H :    0.026826
  16 S :    0.395505
  17 C :   -0.186162
  18 C :   -0.069812
  19 C :   -0.061842
  20 C :   -0.204317
  21 H :    0.019781
  22 C :   -0.040177
  23 H :    0.046967
  24 H :    0.032810
  25 C :   -0.035161
  26 H :    0.025167
  27 H :    0.026023
  28 C :   -0.065037
  29 H :    0.029990
  30 H :    0.030071
  31 H :    0.014147
  32 H :    0.034445
  33 H :    0.030524

  Mayer bond orders larger than 0.100000
B(  0-S ,  1-C ) :   1.1664 B(  0-S ,  4-C ) :   1.1435 B(  1-C ,  2-C ) :   1.5991
B(  1-C , 32-H ) :   0.9566 B(  2-C ,  3-C ) :   1.2348 B(  2-C ,  6-C ) :   1.0229
B(  3-C ,  4-C ) :   1.6184 B(  3-C ,  5-H ) :   0.9814 B(  4-C , 20-C ) :   1.0401
B(  6-C ,  7-H ) :   0.9316 B(  6-C ,  8-H ) :   0.9421 B(  6-C ,  9-C ) :   1.0455
B(  9-C , 10-H ) :   0.9563 B(  9-C , 11-H ) :   0.9583 B(  9-C , 12-C ) :   1.0737
B( 12-C , 13-H ) :   0.9750 B( 12-C , 14-H ) :   0.9724 B( 12-C , 15-H ) :   0.9740
B( 16-S , 17-C ) :   1.1401 B( 16-S , 20-C ) :   1.1342 B( 17-C , 18-C ) :   1.6157
B( 17-C , 33-H ) :   0.9663 B( 18-C , 19-C ) :   1.2414 B( 18-C , 21-H ) :   0.9941
B( 19-C , 20-C ) :   1.5973 B( 19-C , 22-C ) :   1.0308 B( 22-C , 23-H ) :   0.9264
B( 22-C , 24-H ) :   0.9397 B( 22-C , 25-C ) :   1.0773 B( 25-C , 26-H ) :   0.9534
B( 25-C , 27-H ) :   0.9503 B( 25-C , 28-C ) :   1.0961 B( 28-C , 29-H ) :   0.9723
B( 28-C , 30-H ) :   0.9689 B( 28-C , 31-H ) :   0.9645

Dispersion correction           -0.013151008
FINAL SINGLE POINT ENERGY     -1339.856003741316

DIPOLE MOMENT
-------------
                                X             Y             Z
Electronic contribution:     13.98927     -23.58336      15.05035
Nuclear contribution   :    -14.57276      24.04058     -15.31788
                        -----------------------------------------
Total Dipole Moment    :     -0.58348       0.45722      -0.26753
                        -----------------------------------------
Magnitude (a.u.)       :      0.78808
Magnitude (Debye)      :      2.00315

Rotational constants in cm-1:     0.017956     0.007932     0.005690
Rotational constants in MHz :   538.313799   237.786517   170.582044

                             ****ORCA TERMINATED NORMALLY****
TOTAL RUN TIME: 0 days 0 hours 0 minutes 28 seconds 519 msec
