                         Program Version 4.2.1 -  RELEASE  -
|  1> ! wB97X-D3 SP def2-SVP
|  2> %pal
|  3> nprocs 16
|  4> end
|  5>
|  6> * xyz 0 1
|  7> S 	 -5.98393 	 44.0627 	 39.6567
|  8> C 	 -4.57503 	 42.9513 	 39.4979
|  9> C 	 -4.56054 	 41.9933 	 40.4916
| 10> C 	 -5.63381 	 42.1802 	 41.4304
| 11> C 	 -6.51503 	 43.2132 	 41.1592
| 12> H 	 -5.85854 	 41.5453 	 42.2617
| 13> C 	 -3.59617 	 40.8257 	 40.5264
| 14> H 	 -2.67057 	 41.1941 	 40.1337
| 15> H 	 -4.07666 	 40.059 	 39.9414
| 16> C 	 -3.16004 	 40.1782 	 41.8899
| 17> H 	 -2.99888 	 40.9926 	 42.585
| 18> H 	 -3.9597 	 39.6562 	 42.3265
| 19> C 	 -1.90051 	 39.261 	 41.82
| 20> H 	 -1.03444 	 39.8391 	 41.5082
| 21> H 	 -1.78027 	 38.7814 	 42.6986
| 22> H 	 -2.07546 	 38.3882 	 41.048
| 23> S 	 -8.99449 	 44.1611 	 40.789
| 24> C 	 -10.07 	 44.2448 	 42.1319
| 25> C 	 -9.55715 	 43.7089 	 43.2977
| 26> C 	 -8.13534 	 43.3162 	 43.1911
| 27> C 	 -7.73598 	 43.5538 	 41.8617
| 28> H 	 -10.2118 	 43.6436 	 44.1578
| 29> C 	 -7.35956 	 42.7297 	 44.3213
| 30> H 	 -6.32862 	 42.857 	 44.1413
| 31> H 	 -7.61096 	 41.6283 	 44.1237
| 32> C 	 -7.71572 	 43.2248 	 45.7933
| 33> H 	 -8.85272 	 43.277 	 46.0109
| 34> H 	 -7.35522 	 44.2662 	 45.9867
| 35> C 	 -7.22501 	 42.2896 	 46.9092
| 36> H 	 -6.1551 	 42.1721 	 46.801
| 37> H 	 -7.7545 	 41.3628 	 46.8662
| 38> H 	 -7.4557 	 42.6379 	 47.8667
| 39> H 	 -3.93299 	 43.0465 	 38.6601
| 40> H 	 -11.1357 	 44.5165 	 41.9192
| 41> *
| 42>
| 43>                          ****END OF INPUT****

CARTESIAN COORDINATES (ANGSTROEM)
---------------------------------
  S     -5.983930   44.062700   39.656700
  C     -4.575030   42.951300   39.497900
  C     -4.560540   41.993300   40.491600
  C     -5.633810   42.180200   41.430400
  C     -6.515030   43.213200   41.159200
  H     -5.858540   41.545300   42.261700
  C     -3.596170   40.825700   40.526400
  H     -2.670570   41.194100   40.133700
  H     -4.076660   40.059000   39.941400
  C     -3.160040   40.178200   41.889900
  H     -2.998880   40.992600   42.585000
  H     -3.959700   39.656200   42.326500
  C     -1.900510   39.261000   41.820000
  H     -1.034440   39.839100   41.508200
  H     -1.780270   38.781400   42.698600
  H     -2.075460   38.388200   41.048000
  S     -8.994490   44.161100   40.789000
  C    -10.070000   44.244800   42.131900
  C     -9.557150   43.708900   43.297700
  C     -8.135340   43.316200   43.191100
  C     -7.735980   43.553800   41.861700
  H    -10.211800   43.643600   44.157800
  C     -7.359560   42.729700   44.321300
  H     -6.328620   42.857000   44.141300
  H     -7.610960   41.628300   44.123700
  C     -7.715720   43.224800   45.793300
  H     -8.852720   43.277000   46.010900
  H     -7.355220   44.266200   45.986700
  C     -7.225010   42.289600   46.909200
  H     -6.155100   42.172100   46.801000
  H     -7.754500   41.362800   46.866200
  H     -7.455700   42.637900   47.866700
  H     -3.932990   43.046500   38.660100
  H    -11.135700   44.516500   41.919200

 Total Charge           Charge          ....    0
 Multiplicity           Mult            ....    1
 Number of Electrons    NEL             ....  134
 Basis Dimension        Dim             ....  322

ORBITAL ENERGIES
----------------

  NO   OCC          E(Eh)            E(eV)
   0   2.0000     -88.964141     -2420.8374
   1   2.0000     -88.962061     -2420.7807
   2   2.0000     -10.331654      -281.1386
   3   2.0000     -10.327688      -281.0307
   4   2.0000     -10.317637      -280.7572
   5   2.0000     -10.314448      -280.6704
   6   2.0000     -10.313279      -280.6386
   7   2.0000     -10.306129      -280.4440
   8   2.0000     -10.305410      -280.4245
   9   2.0000     -10.303958      -280.3849
  10   2.0000     -10.298240      -280.2293
  11   2.0000     -10.291237      -280.0388
  12   2.0000     -10.290703      -280.0243
  13   2.0000     -10.285964      -279.8953
  14   2.0000     -10.284191      -279.8471
  15   2.0000     -10.274366      -279.5797
  16   2.0000      -8.079541      -219.8555
  17   2.0000      -8.075266      -219.7392
  18   2.0000      -6.037985      -164.3019
  19   2.0000      -6.034095      -164.1961
  20   2.0000      -6.033963      -164.1925
  21   2.0000      -6.030186      -164.0897
  22   2.0000      -6.030104      -164.0875
  23   2.0000      -6.025819      -163.9709
  24   2.0000      -1.000781       -27.2326
  25   2.0000      -0.973992       -26.5037
  26   2.0000      -0.908500       -24.7216
  27   2.0000      -0.905555       -24.6414
  28   2.0000      -0.868319       -23.6282
  29   2.0000      -0.858093       -23.3499
  30   2.0000      -0.839889       -22.8545
  31   2.0000      -0.814128       -22.1536
  32   2.0000      -0.786583       -21.4040
  33   2.0000      -0.771336       -20.9891
  34   2.0000      -0.712529       -19.3889
  35   2.0000      -0.701848       -19.0983
  36   2.0000      -0.691099       -18.8058
  37   2.0000      -0.655537       -17.8381
  38   2.0000      -0.637558       -17.3488
  39   2.0000      -0.619536       -16.8584
  40   2.0000      -0.597919       -16.2702
  41   2.0000      -0.575514       -15.6605
  42   2.0000      -0.562906       -15.3175
  43   2.0000      -0.557082       -15.1590
  44   2.0000      -0.534812       -14.5530
  45   2.0000      -0.526699       -14.3322
  46   2.0000      -0.520810       -14.1720
  47   2.0000      -0.509991       -13.8776
  48   2.0000      -0.502702       -13.6792
  49   2.0000      -0.497736       -13.5441
  50   2.0000      -0.490444       -13.3457
  51   2.0000      -0.480175       -13.0662
  52   2.0000      -0.471970       -12.8429
  53   2.0000      -0.466407       -12.6916
  54   2.0000      -0.457825       -12.4580
  55   2.0000      -0.452872       -12.3233
  56   2.0000      -0.446795       -12.1579
  57   2.0000      -0.434507       -11.8235
  58   2.0000      -0.431854       -11.7514
  59   2.0000      -0.429435       -11.6855
  60   2.0000      -0.420820       -11.4511
  61   2.0000      -0.417796       -11.3688
  62   2.0000      -0.416025       -11.3206
  63   2.0000      -0.355478        -9.6731
  64   2.0000      -0.329599        -8.9689
  65   2.0000      -0.326465        -8.8836
  66   2.0000      -0.280291        -7.6271
  67   0.0000       0.023560         0.6411
  68   0.0000       0.077973         2.1218
  69   0.0000       0.099237         2.7004
  70   0.0000       0.122447         3.3319
  71   0.0000       0.134703         3.6655

MULLIKEN ATOMIC CHARGES
-----------------------
   0 S :    0.075472
   1 C :   -0.131552
   2 C :   -0.061528
   3 C :   -0.008832
   4 C :   -0.113045
   5 H :   -0.006447
   6 C :    0.078869
   7 H :    0.020229
   8 H :    0.048897
   9 C :   -0.091645
  10 H :    0.023507
  11 H :    0.017836
  12 C :   -0.026870
  13 H :    0.041940
  14 H :    0.015879
  15 H :    0.036475
  16 S :    0.101410
  17 C :   -0.103188
  18 C :   -0.042893
  19 C :   -0.054583
  20 C :   -0.137101
  21 H :    0.020617
  22 C :    0.050451
  23 H :    0.032284
  24 H :    0.066365
  25 C :   -0.121336
  26 H :    0.040207
  27 H :    0.050394
  28 C :   -0.009238
  29 H :    0.032298
  30 H :    0.024285
  31 H :    0.019148
  32 H :    0.037920
  33 H :    0.073777
Sum of atomic charges:    0.0000000

LOEWDIN ATOMIC CHARGES
----------------------
   0 S :    0.347696
   1 C :   -0.174857
   2 C :   -0.057896
   3 C :   -0.074780
   4 C :   -0.168396
   5 H :    0.023750
   6 C :   -0.026600
   7 H :    0.028778
   8 H :    0.036063
   9 C :   -0.039022
  10 H :    0.022164
  11 H :    0.012867
  12 C :   -0.053864
  13 H :    0.026453
  14 H :    0.010404
  15 H :    0.036990
  16 S :    0.407979
  17 C :   -0.197932
  18 C :   -0.072371
  19 C :   -0.047090
  20 C :   -0.195725
  21 H :    0.029635
  22 C :   -0.036655
  23 H :    0.027215
  24 H :    0.051846
  25 C :   -0.042709
  26 H :    0.030654
  27 H :    0.031361
  28 C :   -0.058605
  29 H :    0.023749
  30 H :    0.023375
  31 H :    0.020053
  32 H :    0.019664
  33 H :    0.035807

  Mayer bond orders larger than 0.100000
B(  0-S ,  1-C ) :   1.1129 B(  0-S ,  4-C ) :   1.1218 B(  1-C ,  2-C ) :   1.6308
B(  1-C , 32-H ) :   0.9784 B(  2-C ,  3-C ) :   1.2157 B(  2-C ,  6-C ) :   1.0158
B(  3-C ,  4-C ) :   1.5915 B(  3-C ,  5-H ) :   0.9912 B(  4-C , 20-C ) :   1.0769
B(  6-C ,  7-H ) :   0.9458 B(  6-C ,  8-H ) :   0.9340 B(  6-C ,  9-C ) :   1.0666
B(  9-C , 10-H ) :   0.9592 B(  9-C , 11-H ) :   0.9492 B(  9-C , 12-C ) :   1.0888
B( 12-C , 13-H ) :   0.9759 B( 12-C , 14-H ) :   0.9730 B( 12-C , 15-H ) :   0.9745
B( 16-S , 17-C ) :   1.1500 B( 16-S , 20-C ) :   1.1382 B( 17-C , 18-C ) :   1.6327
B( 17-C , 33-H ) :   0.9606 B( 18-C , 19-C ) :   1.2003 B( 18-C , 21-H ) :   0.9890
B( 19-C , 20-C ) :   1.5923 B( 19-C , 22-C ) :   1.0438 B( 22-C , 23-H ) :   0.9281
B( 22-C , 24-H ) :   0.9279 B( 22-C , 25-C ) :   1.0378 B( 25-C , 26-H ) :   0.9588
B( 25-C , 27-H ) :   0.9581 B( 25-C , 28-C ) :   1.0834 B( 28-C , 29-H ) :   0.9757
B( 28-C , 30-H ) :   0.9752 B( 28-C , 31-H ) :   0.9723

Dispersion correction           -0.013224879
FINAL SINGLE POINT ENERGY     -1339.865374084232

DIPOLE MOMENT
-------------
                                X             Y             Z
Electronic contribution:    -15.29719      18.52234     -22.05901
Nuclear contribution   :     15.39962     -19.14133      22.71009
                        -----------------------------------------
Total Dipole Moment    :      0.10244      -0.61899       0.65107
                        -----------------------------------------
Magnitude (a.u.)       :      0.90418
Magnitude (Debye)      :      2.29825

Rotational constants in cm-1:     0.015256     0.008946     0.005905
Rotational constants in MHz :   457.366478   268.190019   177.041564

                             ****ORCA TERMINATED NORMALLY****
TOTAL RUN TIME: 0 days 0 hours 0 minutes 30 seconds 892 msec
