                         Program Version 4.2.1 -  RELEASE  -
|  1> ! wB97X-D3 SP def2-SVP
|  2> %pal
|  3> nprocs 16
|  4> end
|  5>
|  6> * xyz 0 1
|  7> S 	 40.6125 	 26.0866 	 95.7014
|  8> C 	 39.9279 	 26.0959 	 94.1327
|  9> C 	 40.5017 	 25.0539 	 93.3561
| 10> C 	 41.2738 	 24.1398 	 94.1256
| 11> C 	 41.333 	 24.5696 	 95.469
| 12> H 	 41.8341 	 23.2732 	 93.77
| 13> C 	 40.2879 	 24.7066 	 91.9236
| 14> H 	 40.7218 	 23.7477 	 91.6632
| 15> H 	 40.917 	 25.3616 	 91.3564
| 16> C 	 38.8778 	 24.7579 	 91.3185
| 17> H 	 38.4283 	 25.7773 	 91.3092
| 18> H 	 38.9168 	 24.473 	 90.2509
| 19> C 	 37.8798 	 23.7759 	 92.0546
| 20> H 	 37.885 	 24.0127 	 93.1146
| 21> H 	 36.8798 	 23.9634 	 91.681
| 22> H 	 38.3045 	 22.7794 	 91.9727
| 23> S 	 42.9432 	 25.1077 	 97.6182
| 24> C 	 43.7097 	 23.7647 	 98.4473
| 25> C 	 43.0247 	 22.5648 	 98.2387
| 26> C 	 42.1435 	 22.6327 	 97.1298
| 27> C 	 42.0324 	 23.9709 	 96.6094
| 28> H 	 43.3935 	 21.7372 	 98.8913
| 29> C 	 41.3186 	 21.446 	 96.6499
| 30> H 	 41.5368 	 20.6311 	 97.2609
| 31> H 	 41.6632 	 21.1073 	 95.6702
| 32> C 	 39.84 	 21.5737 	 96.3774
| 33> H 	 39.3436 	 20.7048 	 95.9649
| 34> H 	 39.5587 	 22.3344 	 95.6327
| 35> C 	 39.2173 	 21.938 	 97.6971
| 36> H 	 39.2549 	 21.1107 	 98.483
| 37> H 	 38.1117 	 21.9759 	 97.4925
| 38> H 	 39.5246 	 22.8826 	 98.1858
| 39> H 	 39.4462 	 26.9403 	 93.6757
| 40> H 	 44.4889 	 23.9502 	 99.1225
| 41> *
| 42>
| 43>                          ****END OF INPUT****

CARTESIAN COORDINATES (ANGSTROEM)
---------------------------------
  S     40.612500   26.086600   95.701400
  C     39.927900   26.095900   94.132700
  C     40.501700   25.053900   93.356100
  C     41.273800   24.139800   94.125600
  C     41.333000   24.569600   95.469000
  H     41.834100   23.273200   93.770000
  C     40.287900   24.706600   91.923600
  H     40.721800   23.747700   91.663200
  H     40.917000   25.361600   91.356400
  C     38.877800   24.757900   91.318500
  H     38.428300   25.777300   91.309200
  H     38.916800   24.473000   90.250900
  C     37.879800   23.775900   92.054600
  H     37.885000   24.012700   93.114600
  H     36.879800   23.963400   91.681000
  H     38.304500   22.779400   91.972700
  S     42.943200   25.107700   97.618200
  C     43.709700   23.764700   98.447300
  C     43.024700   22.564800   98.238700
  C     42.143500   22.632700   97.129800
  C     42.032400   23.970900   96.609400
  H     43.393500   21.737200   98.891300
  C     41.318600   21.446000   96.649900
  H     41.536800   20.631100   97.260900
  H     41.663200   21.107300   95.670200
  C     39.840000   21.573700   96.377400
  H     39.343600   20.704800   95.964900
  H     39.558700   22.334400   95.632700
  C     39.217300   21.938000   97.697100
  H     39.254900   21.110700   98.483000
  H     38.111700   21.975900   97.492500
  H     39.524600   22.882600   98.185800
  H     39.446200   26.940300   93.675700
  H     44.488900   23.950200   99.122500

 Total Charge           Charge          ....    0
 Multiplicity           Mult            ....    1
 Number of Electrons    NEL             ....  134
 Basis Dimension        Dim             ....  322

ORBITAL ENERGIES
----------------

  NO   OCC          E(Eh)            E(eV)
   0   2.0000     -88.969572     -2420.9851
   1   2.0000     -88.966329     -2420.8969
   2   2.0000     -10.333037      -281.1762
   3   2.0000     -10.329825      -281.0888
   4   2.0000     -10.316551      -280.7276
   5   2.0000     -10.314413      -280.6694
   6   2.0000     -10.311358      -280.5863
   7   2.0000     -10.304297      -280.3942
   8   2.0000     -10.302464      -280.3443
   9   2.0000     -10.295563      -280.1565
  10   2.0000     -10.291849      -280.0554
  11   2.0000     -10.287141      -279.9273
  12   2.0000     -10.284349      -279.8514
  13   2.0000     -10.279258      -279.7128
  14   2.0000     -10.274506      -279.5835
  15   2.0000     -10.273704      -279.5617
  16   2.0000      -8.085744      -220.0243
  17   2.0000      -8.080946      -219.8937
  18   2.0000      -6.044036      -164.4666
  19   2.0000      -6.040029      -164.3575
  20   2.0000      -6.039256      -164.3365
  21   2.0000      -6.036674      -164.2663
  22   2.0000      -6.035609      -164.2373
  23   2.0000      -6.031788      -164.1333
  24   2.0000      -1.011039       -27.5118
  25   2.0000      -0.983344       -26.7581
  26   2.0000      -0.913951       -24.8699
  27   2.0000      -0.911338       -24.7988
  28   2.0000      -0.864897       -23.5351
  29   2.0000      -0.851431       -23.1686
  30   2.0000      -0.845073       -22.9956
  31   2.0000      -0.808189       -21.9919
  32   2.0000      -0.783138       -21.3103
  33   2.0000      -0.771377       -20.9902
  34   2.0000      -0.707406       -19.2495
  35   2.0000      -0.701745       -19.0954
  36   2.0000      -0.686110       -18.6700
  37   2.0000      -0.662960       -18.0400
  38   2.0000      -0.640173       -17.4200
  39   2.0000      -0.610769       -16.6199
  40   2.0000      -0.592144       -16.1131
  41   2.0000      -0.572744       -15.5851
  42   2.0000      -0.555759       -15.1230
  43   2.0000      -0.554018       -15.0756
  44   2.0000      -0.548437       -14.9237
  45   2.0000      -0.535620       -14.5749
  46   2.0000      -0.512461       -13.9448
  47   2.0000      -0.504391       -13.7252
  48   2.0000      -0.503302       -13.6956
  49   2.0000      -0.496790       -13.5183
  50   2.0000      -0.488506       -13.2929
  51   2.0000      -0.483884       -13.1671
  52   2.0000      -0.474626       -12.9152
  53   2.0000      -0.464638       -12.6434
  54   2.0000      -0.456958       -12.4345
  55   2.0000      -0.451432       -12.2841
  56   2.0000      -0.442497       -12.0410
  57   2.0000      -0.437177       -11.8962
  58   2.0000      -0.428256       -11.6534
  59   2.0000      -0.420017       -11.4293
  60   2.0000      -0.418806       -11.3963
  61   2.0000      -0.411754       -11.2044
  62   2.0000      -0.403000       -10.9662
  63   2.0000      -0.348614        -9.4863
  64   2.0000      -0.333940        -9.0870
  65   2.0000      -0.326607        -8.8874
  66   2.0000      -0.279125        -7.5954
  67   0.0000       0.019480         0.5301
  68   0.0000       0.061119         1.6631
  69   0.0000       0.100303         2.7294
  70   0.0000       0.117787         3.2051
  71   0.0000       0.132091         3.5944

MULLIKEN ATOMIC CHARGES
-----------------------
   0 S :    0.122545
   1 C :   -0.096672
   2 C :   -0.117087
   3 C :    0.006813
   4 C :   -0.141721
   5 H :    0.024220
   6 C :    0.086764
   7 H :    0.010409
   8 H :    0.027465
   9 C :   -0.106396
  10 H :    0.028922
  11 H :    0.032956
  12 C :   -0.045828
  13 H :    0.039056
  14 H :    0.039590
  15 H :    0.028536
  16 S :    0.092898
  17 C :   -0.092439
  18 C :   -0.049275
  19 C :   -0.029824
  20 C :   -0.149902
  21 H :    0.043221
  22 C :    0.120567
  23 H :   -0.005367
  24 H :    0.018472
  25 C :   -0.051193
  26 H :    0.021329
  27 H :    0.043751
  28 C :   -0.100843
  29 H :    0.026606
  30 H :    0.024673
  31 H :    0.058208
  32 H :    0.047534
  33 H :    0.042011
Sum of atomic charges:   -0.0000000

LOEWDIN ATOMIC CHARGES
----------------------
   0 S :    0.455373
   1 C :   -0.228383
   2 C :   -0.053805
   3 C :   -0.070856
   4 C :   -0.206292
   5 H :    0.036009
   6 C :   -0.038717
   7 H :    0.029007
   8 H :    0.033995
   9 C :   -0.041745
  10 H :    0.021490
  11 H :    0.026019
  12 C :   -0.064175
  13 H :    0.024600
  14 H :    0.025846
  15 H :    0.023395
  16 S :    0.393245
  17 C :   -0.171807
  18 C :   -0.074712
  19 C :   -0.049672
  20 C :   -0.192481
  21 H :    0.045004
  22 C :   -0.030806
  23 H :    0.022080
  24 H :    0.032964
  25 C :   -0.046167
  26 H :    0.027475
  27 H :    0.030656
  28 C :   -0.077675
  29 H :    0.024948
  30 H :    0.024985
  31 H :    0.029261
  32 H :    0.025737
  33 H :    0.015205

  Mayer bond orders larger than 0.100000
B(  0-S ,  1-C ) :   1.1490 B(  0-S ,  4-C ) :   1.2059 B(  1-C ,  2-C ) :   1.5547
B(  1-C ,  4-C ) :   0.1069 B(  1-C , 32-H ) :   0.9701 B(  2-C ,  3-C ) :   1.2766
B(  2-C ,  6-C ) :   1.0289 B(  3-C ,  4-C ) :   1.5004 B(  3-C ,  5-H ) :   0.9995
B(  4-C , 20-C ) :   1.0525 B(  6-C ,  7-H ) :   0.9448 B(  6-C ,  8-H ) :   0.9173
B(  6-C ,  9-C ) :   1.0814 B(  9-C , 10-H ) :   0.9557 B(  9-C , 11-H ) :   0.9553
B(  9-C , 12-C ) :   1.0666 B( 12-C , 13-H ) :   0.9760 B( 12-C , 14-H ) :   0.9759
B( 12-C , 15-H ) :   0.9775 B( 16-S , 17-C ) :   1.1675 B( 16-S , 20-C ) :   1.1493
B( 17-C , 18-C ) :   1.5867 B( 17-C , 20-C ) :   0.1165 B( 17-C , 33-H ) :   0.9769
B( 18-C , 19-C ) :   1.2445 B( 18-C , 21-H ) :   0.9852 B( 19-C , 20-C ) :   1.5371
B( 19-C , 22-C ) :   1.0447 B( 22-C , 23-H ) :   0.9325 B( 22-C , 24-H ) :   0.9192
B( 22-C , 25-C ) :   1.0797 B( 25-C , 26-H ) :   0.9471 B( 25-C , 27-H ) :   0.9435
B( 25-C , 28-C ) :   1.0826 B( 28-C , 29-H ) :   0.9743 B( 28-C , 30-H ) :   0.9732
B( 28-C , 31-H ) :   0.9741

Dispersion correction           -0.015577129
FINAL SINGLE POINT ENERGY     -1339.860816190445

DIPOLE MOMENT
-------------
                                X             Y             Z
Electronic contribution:     16.80509      15.80657      13.68331
Nuclear contribution   :    -16.75801     -16.19411     -14.01675
                        -----------------------------------------
Total Dipole Moment    :      0.04708      -0.38754      -0.33343
                        -----------------------------------------
Magnitude (a.u.)       :      0.51340
Magnitude (Debye)      :      1.30497

Rotational constants in cm-1:     0.022143     0.009086     0.007411
Rotational constants in MHz :   663.825481   272.389566   222.181038

                             ****ORCA TERMINATED NORMALLY****
TOTAL RUN TIME: 0 days 0 hours 0 minutes 31 seconds 933 msec
