                         Program Version 4.2.1 -  RELEASE  -
|  1> ! wB97X-D3 SP def2-SVP
|  2> %pal
|  3> nprocs 16
|  4> end
|  5>
|  6> * xyz 0 1
|  7> S 	 13.8548 	 -0.981928 	 84.2721
|  8> C 	 14.7867 	 0.0219336 	 83.0574
|  9> C 	 14.3133 	 1.28785 	 82.8788
| 10> C 	 13.2988 	 1.54751 	 83.8232
| 11> C 	 12.9113 	 0.492698 	 84.6393
| 12> H 	 12.76 	 2.4426 	 84.1611
| 13> C 	 14.7562 	 2.24148 	 81.7677
| 14> H 	 15.0259 	 1.66386 	 80.8899
| 15> H 	 15.7571 	 2.63411 	 82.0495
| 16> C 	 13.8408 	 3.48477 	 81.465
| 17> H 	 13.6756 	 3.95847 	 82.4345
| 18> H 	 14.2757 	 4.26248 	 80.8049
| 19> C 	 12.4495 	 3.2404 	 80.9748
| 20> H 	 12.5042 	 2.43236 	 80.251
| 21> H 	 11.772 	 2.8397 	 81.7105
| 22> H 	 12.0275 	 4.18618 	 80.524
| 23> S 	 12.6324 	 0.555745 	 87.4037
| 24> C 	 11.0246 	 0.617378 	 88.0622
| 25> C 	 10.086 	 0.640133 	 87.067
| 26> C 	 10.568 	 0.477663 	 85.7722
| 27> C 	 12.0091 	 0.450562 	 85.7532
| 28> H 	 9.07024 	 0.76822 	 87.3808
| 29> C 	 9.65815 	 0.545512 	 84.56
| 30> H 	 8.84358 	 -0.275091 	 84.6534
| 31> H 	 10.1909 	 0.306144 	 83.6769
| 32> C 	 9.14585 	 1.8896 	 84.244
| 33> H 	 10.0208 	 2.63363 	 84.1803
| 34> H 	 8.47851 	 2.25393 	 85.0375
| 35> C 	 8.4458 	 2.06342 	 82.7934
| 36> H 	 8.39654 	 3.04539 	 82.4842
| 37> H 	 7.39789 	 1.7286 	 82.7822
| 38> H 	 8.99136 	 1.54471 	 82.0223
| 39> H 	 15.5823 	 -0.400746 	 82.5307
| 40> H 	 10.9825 	 0.539268 	 89.1302
| 41> *
| 42>
| 43>                          ****END OF INPUT****

CARTESIAN COORDINATES (ANGSTROEM)
---------------------------------
  S     13.854800   -0.981928   84.272100
  C     14.786700    0.021934   83.057400
  C     14.313300    1.287850   82.878800
  C     13.298800    1.547510   83.823200
  C     12.911300    0.492698   84.639300
  H     12.760000    2.442600   84.161100
  C     14.756200    2.241480   81.767700
  H     15.025900    1.663860   80.889900
  H     15.757100    2.634110   82.049500
  C     13.840800    3.484770   81.465000
  H     13.675600    3.958470   82.434500
  H     14.275700    4.262480   80.804900
  C     12.449500    3.240400   80.974800
  H     12.504200    2.432360   80.251000
  H     11.772000    2.839700   81.710500
  H     12.027500    4.186180   80.524000
  S     12.632400    0.555745   87.403700
  C     11.024600    0.617378   88.062200
  C     10.086000    0.640133   87.067000
  C     10.568000    0.477663   85.772200
  C     12.009100    0.450562   85.753200
  H      9.070240    0.768220   87.380800
  C      9.658150    0.545512   84.560000
  H      8.843580   -0.275091   84.653400
  H     10.190900    0.306144   83.676900
  C      9.145850    1.889600   84.244000
  H     10.020800    2.633630   84.180300
  H      8.478510    2.253930   85.037500
  C      8.445800    2.063420   82.793400
  H      8.396540    3.045390   82.484200
  H      7.397890    1.728600   82.782200
  H      8.991360    1.544710   82.022300
  H     15.582300   -0.400746   82.530700
  H     10.982500    0.539268   89.130200

 Total Charge           Charge          ....    0
 Multiplicity           Mult            ....    1
 Number of Electrons    NEL             ....  134
 Basis Dimension        Dim             ....  322

ORBITAL ENERGIES
----------------

  NO   OCC          E(Eh)            E(eV)
   0   2.0000     -88.964302     -2420.8417
   1   2.0000     -88.963115     -2420.8094
   2   2.0000     -10.328064      -281.0409
   3   2.0000     -10.327480      -281.0250
   4   2.0000     -10.316033      -280.7135
   5   2.0000     -10.314596      -280.6744
   6   2.0000     -10.307366      -280.4777
   7   2.0000     -10.306814      -280.4627
   8   2.0000     -10.302744      -280.3519
   9   2.0000     -10.297919      -280.2206
  10   2.0000     -10.295750      -280.1616
  11   2.0000     -10.291756      -280.0529
  12   2.0000     -10.291395      -280.0431
  13   2.0000     -10.289980      -280.0046
  14   2.0000     -10.276792      -279.6457
  15   2.0000     -10.276364      -279.6341
  16   2.0000      -8.079246      -219.8475
  17   2.0000      -8.076403      -219.7701
  18   2.0000      -6.037536      -164.2897
  19   2.0000      -6.034866      -164.2171
  20   2.0000      -6.033611      -164.1829
  21   2.0000      -6.031291      -164.1198
  22   2.0000      -6.030337      -164.0938
  23   2.0000      -6.027114      -164.0061
  24   2.0000      -1.002326       -27.2747
  25   2.0000      -0.980237       -26.6736
  26   2.0000      -0.910992       -24.7894
  27   2.0000      -0.909762       -24.7559
  28   2.0000      -0.873436       -23.7674
  29   2.0000      -0.846881       -23.0448
  30   2.0000      -0.841504       -22.8985
  31   2.0000      -0.815695       -22.1962
  32   2.0000      -0.789665       -21.4879
  33   2.0000      -0.775036       -21.0898
  34   2.0000      -0.710005       -19.3202
  35   2.0000      -0.696198       -18.9445
  36   2.0000      -0.691775       -18.8241
  37   2.0000      -0.655917       -17.8484
  38   2.0000      -0.650625       -17.7044
  39   2.0000      -0.619381       -16.8542
  40   2.0000      -0.607041       -16.5184
  41   2.0000      -0.564653       -15.3650
  42   2.0000      -0.557936       -15.1822
  43   2.0000      -0.549143       -14.9429
  44   2.0000      -0.541120       -14.7246
  45   2.0000      -0.523631       -14.2487
  46   2.0000      -0.519463       -14.1353
  47   2.0000      -0.514229       -13.9929
  48   2.0000      -0.507766       -13.8170
  49   2.0000      -0.494660       -13.4604
  50   2.0000      -0.486457       -13.2372
  51   2.0000      -0.483146       -13.1471
  52   2.0000      -0.473576       -12.8867
  53   2.0000      -0.466050       -12.6819
  54   2.0000      -0.459334       -12.4991
  55   2.0000      -0.452875       -12.3234
  56   2.0000      -0.438585       -11.9345
  57   2.0000      -0.434227       -11.8159
  58   2.0000      -0.432664       -11.7734
  59   2.0000      -0.425211       -11.5706
  60   2.0000      -0.422596       -11.4994
  61   2.0000      -0.413506       -11.2521
  62   2.0000      -0.407293       -11.0830
  63   2.0000      -0.340289        -9.2597
  64   2.0000      -0.330036        -8.9807
  65   2.0000      -0.318147        -8.6572
  66   2.0000      -0.305088        -8.3019
  67   0.0000       0.032676         0.8892
  68   0.0000       0.052498         1.4286
  69   0.0000       0.102814         2.7977
  70   0.0000       0.121022         3.2932
  71   0.0000       0.124536         3.3888

MULLIKEN ATOMIC CHARGES
-----------------------
   0 S :    0.091850
   1 C :   -0.118825
   2 C :   -0.031060
   3 C :    0.027190
   4 C :   -0.203825
   5 H :    0.020592
   6 C :    0.075973
   7 H :    0.026874
   8 H :    0.041589
   9 C :   -0.087260
  10 H :    0.028107
  11 H :    0.040749
  12 C :   -0.051672
  13 H :    0.021168
  14 H :    0.026376
  15 H :    0.046395
  16 S :    0.112694
  17 C :   -0.102994
  18 C :   -0.023696
  19 C :    0.000543
  20 C :   -0.192148
  21 H :    0.013949
  22 C :    0.108456
  23 H :    0.045619
  24 H :    0.005064
  25 C :   -0.126038
  26 H :    0.037960
  27 H :    0.031779
  28 C :   -0.027068
  29 H :    0.016911
  30 H :    0.033323
  31 H :    0.029164
  32 H :    0.022108
  33 H :    0.060154
Sum of atomic charges:   -0.0000000

LOEWDIN ATOMIC CHARGES
----------------------
   0 S :    0.354928
   1 C :   -0.150945
   2 C :   -0.063424
   3 C :   -0.062744
   4 C :   -0.186361
   5 H :    0.037443
   6 C :   -0.030657
   7 H :    0.029384
   8 H :    0.041883
   9 C :   -0.048455
  10 H :    0.024927
  11 H :    0.033077
  12 C :   -0.071012
  13 H :    0.022670
  14 H :    0.019342
  15 H :    0.035974
  16 S :    0.413748
  17 C :   -0.178235
  18 C :   -0.074447
  19 C :   -0.044524
  20 C :   -0.213347
  21 H :    0.030757
  22 C :   -0.040624
  23 H :    0.042222
  24 H :    0.025293
  25 C :   -0.040344
  26 H :    0.031115
  27 H :    0.020408
  28 C :   -0.060862
  29 H :    0.015651
  30 H :    0.027410
  31 H :    0.023467
  32 H :    0.011734
  33 H :    0.024549

  Mayer bond orders larger than 0.100000
B(  0-S ,  1-C ) :   1.1325 B(  0-S ,  4-C ) :   1.1201 B(  1-C ,  2-C ) :   1.6470
B(  1-C ,  4-C ) :   0.1045 B(  1-C , 32-H ) :   0.9775 B(  2-C ,  3-C ) :   1.1854
B(  2-C ,  6-C ) :   0.9924 B(  3-C ,  4-C ) :   1.6432 B(  3-C ,  5-H ) :   0.9801
B(  4-C , 20-C ) :   1.0385 B(  6-C ,  7-H ) :   0.9452 B(  6-C ,  8-H ) :   0.9328
B(  6-C ,  9-C ) :   1.0752 B(  9-C , 10-H ) :   0.9481 B(  9-C , 11-H ) :   0.9590
B(  9-C , 12-C ) :   1.0816 B( 12-C , 13-H ) :   0.9735 B( 12-C , 14-H ) :   0.9718
B( 12-C , 15-H ) :   0.9728 B( 16-S , 17-C ) :   1.1793 B( 16-S , 20-C ) :   1.1681
B( 17-C , 18-C ) :   1.5523 B( 17-C , 20-C ) :   0.1160 B( 17-C , 33-H ) :   0.9747
B( 18-C , 19-C ) :   1.2744 B( 18-C , 21-H ) :   0.9994 B( 19-C , 20-C ) :   1.5262
B( 19-C , 22-C ) :   1.0603 B( 22-C , 23-H ) :   0.9290 B( 22-C , 24-H ) :   0.9159
B( 22-C , 25-C ) :   1.0647 B( 25-C , 26-H ) :   0.9518 B( 25-C , 27-H ) :   0.9568
B( 25-C , 28-C ) :   1.0715 B( 28-C , 29-H ) :   0.9783 B( 28-C , 30-H ) :   0.9760
B( 28-C , 31-H ) :   0.9748

Dispersion correction           -0.015302734
FINAL SINGLE POINT ENERGY     -1339.860915248070

DIPOLE MOMENT
-------------
                                X             Y             Z
Electronic contribution:     13.53774     -16.93703      21.70873
Nuclear contribution   :    -13.78075      17.41951     -22.03321
                        -----------------------------------------
Total Dipole Moment    :     -0.24301       0.48249      -0.32448
                        -----------------------------------------
Magnitude (a.u.)       :      0.63019
Magnitude (Debye)      :      1.60181

Rotational constants in cm-1:     0.016100     0.010508     0.007397
Rotational constants in MHz :   482.676486   315.014609   221.751988

                             ****ORCA TERMINATED NORMALLY****
TOTAL RUN TIME: 0 days 0 hours 0 minutes 36 seconds 956 msec
