                         Program Version 4.2.1 -  RELEASE  -
|  1> ! wB97X-D3 SP def2-SVP
|  2> %pal
|  3> nprocs 16
|  4> end
|  5>
|  6> * xyz 0 1
|  7> S 	 25.159 	 32.0986 	 57.0902
|  8> C 	 24.5716 	 30.6953 	 57.9123
|  9> C 	 24.9515 	 30.7303 	 59.2364
| 10> C 	 25.4412 	 32.0343 	 59.6013
| 11> C 	 25.6834 	 32.8873 	 58.539
| 12> H 	 25.7089 	 32.3573 	 60.5994
| 13> C 	 24.8328 	 29.6 	 60.2505
| 14> H 	 25.6408 	 29.664 	 60.928
| 15> H 	 25.0243 	 28.6281 	 59.8002
| 16> C 	 23.4961 	 29.6561 	 60.9985
| 17> H 	 23.5019 	 30.7065 	 61.4329
| 18> H 	 22.5929 	 29.5685 	 60.3429
| 19> C 	 23.4797 	 28.6859 	 62.1551
| 20> H 	 23.1804 	 27.6601 	 61.9128
| 21> H 	 24.4455 	 28.6082 	 62.5858
| 22> H 	 22.9339 	 29.0415 	 63.0104
| 23> S 	 27.6382 	 34.3955 	 59.6452
| 24> C 	 27.6162 	 36.1532 	 59.4716
| 25> C 	 26.6391 	 36.5006 	 58.5725
| 26> C 	 25.8852 	 35.4367 	 58.056
| 27> C 	 26.2181 	 34.2297 	 58.6273
| 28> H 	 26.4877 	 37.5395 	 58.3354
| 29> C 	 24.7649 	 35.6128 	 57.0777
| 30> H 	 24.6674 	 34.7355 	 56.4306
| 31> H 	 25.0243 	 36.3592 	 56.3097
| 32> C 	 23.4189 	 36.0315 	 57.5979
| 33> H 	 22.8738 	 36.3858 	 56.7551
| 34> H 	 23.4999 	 36.721 	 58.4454
| 35> C 	 22.6699 	 34.7898 	 58.1214
| 36> H 	 22.9488 	 33.9643 	 57.5412
| 37> H 	 21.6218 	 35.1074 	 58.0251
| 38> H 	 22.8769 	 34.571 	 59.1468
| 39> H 	 24.061 	 29.908 	 57.3456
| 40> H 	 28.4508 	 36.8566 	 59.665
| 41> *
| 42>
| 43>                          ****END OF INPUT****

CARTESIAN COORDINATES (ANGSTROEM)
---------------------------------
  S     25.159000   32.098600   57.090200
  C     24.571600   30.695300   57.912300
  C     24.951500   30.730300   59.236400
  C     25.441200   32.034300   59.601300
  C     25.683400   32.887300   58.539000
  H     25.708900   32.357300   60.599400
  C     24.832800   29.600000   60.250500
  H     25.640800   29.664000   60.928000
  H     25.024300   28.628100   59.800200
  C     23.496100   29.656100   60.998500
  H     23.501900   30.706500   61.432900
  H     22.592900   29.568500   60.342900
  C     23.479700   28.685900   62.155100
  H     23.180400   27.660100   61.912800
  H     24.445500   28.608200   62.585800
  H     22.933900   29.041500   63.010400
  S     27.638200   34.395500   59.645200
  C     27.616200   36.153200   59.471600
  C     26.639100   36.500600   58.572500
  C     25.885200   35.436700   58.056000
  C     26.218100   34.229700   58.627300
  H     26.487700   37.539500   58.335400
  C     24.764900   35.612800   57.077700
  H     24.667400   34.735500   56.430600
  H     25.024300   36.359200   56.309700
  C     23.418900   36.031500   57.597900
  H     22.873800   36.385800   56.755100
  H     23.499900   36.721000   58.445400
  C     22.669900   34.789800   58.121400
  H     22.948800   33.964300   57.541200
  H     21.621800   35.107400   58.025100
  H     22.876900   34.571000   59.146800
  H     24.061000   29.908000   57.345600
  H     28.450800   36.856600   59.665000

 Total Charge           Charge          ....    0
 Multiplicity           Mult            ....    1
 Number of Electrons    NEL             ....  134
 Basis Dimension        Dim             ....  322

ORBITAL ENERGIES
----------------

  NO   OCC          E(Eh)            E(eV)
   0   2.0000     -88.966118     -2420.8911
   1   2.0000     -88.965588     -2420.8767
   2   2.0000     -10.328788      -281.0606
   3   2.0000     -10.327832      -281.0346
   4   2.0000     -10.318281      -280.7747
   5   2.0000     -10.315478      -280.6984
   6   2.0000     -10.303678      -280.3773
   7   2.0000     -10.299360      -280.2598
   8   2.0000     -10.294132      -280.1176
   9   2.0000     -10.292158      -280.0639
  10   2.0000     -10.291024      -280.0330
  11   2.0000     -10.288852      -279.9739
  12   2.0000     -10.282848      -279.8105
  13   2.0000     -10.275950      -279.6228
  14   2.0000     -10.271110      -279.4911
  15   2.0000     -10.258511      -279.1483
  16   2.0000      -8.080519      -219.8821
  17   2.0000      -8.080393      -219.8787
  18   2.0000      -6.039018      -164.3300
  19   2.0000      -6.038934      -164.3278
  20   2.0000      -6.034919      -164.2185
  21   2.0000      -6.034879      -164.2174
  22   2.0000      -6.031394      -164.1226
  23   2.0000      -6.031177      -164.1167
  24   2.0000      -1.012039       -27.5390
  25   2.0000      -0.989201       -26.9175
  26   2.0000      -0.914913       -24.8961
  27   2.0000      -0.912927       -24.8420
  28   2.0000      -0.874973       -23.8092
  29   2.0000      -0.851935       -23.1823
  30   2.0000      -0.845255       -23.0006
  31   2.0000      -0.814767       -22.1709
  32   2.0000      -0.783597       -21.3228
  33   2.0000      -0.772316       -21.0158
  34   2.0000      -0.704868       -19.1804
  35   2.0000      -0.700742       -19.0682
  36   2.0000      -0.690019       -18.7764
  37   2.0000      -0.666634       -18.1400
  38   2.0000      -0.643242       -17.5035
  39   2.0000      -0.618795       -16.8383
  40   2.0000      -0.602432       -16.3930
  41   2.0000      -0.571820       -15.5600
  42   2.0000      -0.560855       -15.2616
  43   2.0000      -0.554075       -15.0771
  44   2.0000      -0.541299       -14.7295
  45   2.0000      -0.523085       -14.2339
  46   2.0000      -0.518936       -14.1210
  47   2.0000      -0.512468       -13.9450
  48   2.0000      -0.509295       -13.8586
  49   2.0000      -0.504475       -13.7275
  50   2.0000      -0.495246       -13.4763
  51   2.0000      -0.477560       -12.9951
  52   2.0000      -0.467956       -12.7337
  53   2.0000      -0.464618       -12.6429
  54   2.0000      -0.462296       -12.5797
  55   2.0000      -0.450094       -12.2477
  56   2.0000      -0.440976       -11.9996
  57   2.0000      -0.440002       -11.9731
  58   2.0000      -0.431041       -11.7292
  59   2.0000      -0.422288       -11.4910
  60   2.0000      -0.417333       -11.3562
  61   2.0000      -0.414533       -11.2800
  62   2.0000      -0.400458       -10.8970
  63   2.0000      -0.351937        -9.5767
  64   2.0000      -0.333622        -9.0783
  65   2.0000      -0.327282        -8.9058
  66   2.0000      -0.291801        -7.9403
  67   0.0000       0.025992         0.7073
  68   0.0000       0.075200         2.0463
  69   0.0000       0.109248         2.9728
  70   0.0000       0.121036         3.2936
  71   0.0000       0.129211         3.5160

MULLIKEN ATOMIC CHARGES
-----------------------
   0 S :    0.099460
   1 C :   -0.139571
   2 C :   -0.076334
   3 C :    0.004341
   4 C :   -0.127720
   5 H :    0.011905
   6 C :    0.094178
   7 H :    0.008689
   8 H :    0.020066
   9 C :   -0.103728
  10 H :    0.032866
  11 H :    0.044082
  12 C :   -0.001908
  13 H :    0.035300
  14 H :    0.002981
  15 H :    0.025628
  16 S :    0.101990
  17 C :   -0.095610
  18 C :   -0.052617
  19 C :    0.001415
  20 C :   -0.161654
  21 H :    0.015295
  22 C :    0.032061
  23 H :    0.016494
  24 H :    0.013767
  25 C :   -0.044675
  26 H :    0.022577
  27 H :    0.030852
  28 C :   -0.019106
  29 H :    0.010233
  30 H :    0.029547
  31 H :    0.031580
  32 H :    0.062004
  33 H :    0.075609
Sum of atomic charges:   -0.0000000

LOEWDIN ATOMIC CHARGES
----------------------
   0 S :    0.429330
   1 C :   -0.201516
   2 C :   -0.059520
   3 C :   -0.067022
   4 C :   -0.203340
   5 H :    0.025674
   6 C :   -0.029088
   7 H :    0.024731
   8 H :    0.028025
   9 C :   -0.042492
  10 H :    0.032452
  11 H :    0.029760
  12 C :   -0.069305
  13 H :    0.026855
  14 H :    0.020230
  15 H :    0.026730
  16 S :    0.405511
  17 C :   -0.195230
  18 C :   -0.065151
  19 C :   -0.061053
  20 C :   -0.186377
  21 H :    0.030744
  22 C :   -0.043205
  23 H :    0.020705
  24 H :    0.031547
  25 C :   -0.032074
  26 H :    0.021310
  27 H :    0.026701
  28 C :   -0.057308
  29 H :    0.007008
  30 H :    0.028007
  31 H :    0.022025
  32 H :    0.033007
  33 H :    0.042325

  Mayer bond orders larger than 0.100000
B(  0-S ,  1-C ) :   1.1492 B(  0-S ,  4-C ) :   1.1517 B(  1-C ,  2-C ) :   1.5862
B(  1-C , 32-H ) :   0.9726 B(  2-C ,  3-C ) :   1.2462 B(  2-C ,  6-C ) :   1.0269
B(  3-C ,  4-C ) :   1.5638 B(  3-C ,  5-H ) :   0.9898 B(  4-C , 20-C ) :   1.0436
B(  6-C ,  7-H ) :   0.9345 B(  6-C ,  8-H ) :   0.9408 B(  6-C ,  9-C ) :   1.0614
B(  9-C , 10-H ) :   0.9565 B(  9-C , 11-H ) :   0.9590 B(  9-C , 12-C ) :   1.0798
B( 12-C , 13-H ) :   0.9737 B( 12-C , 14-H ) :   0.9667 B( 12-C , 15-H ) :   0.9718
B( 16-S , 17-C ) :   1.1413 B( 16-S , 20-C ) :   1.1527 B( 17-C , 18-C ) :   1.6094
B( 17-C , 20-C ) :   0.1016 B( 17-C , 33-H ) :   0.9582 B( 18-C , 19-C ) :   1.2606
B( 18-C , 21-H ) :   0.9877 B( 19-C , 20-C ) :   1.5635 B( 19-C , 22-C ) :   1.0511
B( 22-C , 23-H ) :   0.9322 B( 22-C , 24-H ) :   0.9238 B( 22-C , 25-C ) :   1.0867
B( 25-C , 26-H ) :   0.9535 B( 25-C , 27-H ) :   0.9542 B( 25-C , 28-C ) :   1.0798
B( 28-C , 29-H ) :   0.9747 B( 28-C , 30-H ) :   0.9761 B( 28-C , 31-H ) :   0.9763

Dispersion correction           -0.015095881
FINAL SINGLE POINT ENERGY     -1339.880833339247

DIPOLE MOMENT
-------------
                                X             Y             Z
Electronic contribution:     18.22329       6.78264      -8.24168
Nuclear contribution   :    -18.42588      -6.81086       8.34130
                        -----------------------------------------
Total Dipole Moment    :     -0.20259      -0.02821       0.09962
                        -----------------------------------------
Magnitude (a.u.)       :      0.22751
Magnitude (Debye)      :      0.57829

Rotational constants in cm-1:     0.021088     0.008272     0.007220
Rotational constants in MHz :   632.215382   247.998964   216.444479

                             ****ORCA TERMINATED NORMALLY****
TOTAL RUN TIME: 0 days 0 hours 0 minutes 34 seconds 684 msec
