                         Program Version 4.2.1 -  RELEASE  -
|  1> ! wB97X-D3 SP def2-SVP
|  2> %pal
|  3> nprocs 16
|  4> end
|  5>
|  6> * xyz 0 1
|  7> S 	 -14.8486 	 -7.55204 	 84.5819
|  8> C 	 -15.7924 	 -8.95396 	 84.0814
|  9> C 	 -14.9975 	 -9.96872 	 83.5838
| 10> C 	 -13.6018 	 -9.69252 	 83.7146
| 11> C 	 -13.3507 	 -8.45721 	 84.4248
| 12> H 	 -12.765 	 -10.2409 	 83.4176
| 13> C 	 -15.4684 	 -11.3022 	 82.9187
| 14> H 	 -16.4665 	 -11.5918 	 83.281
| 15> H 	 -14.7793 	 -11.9936 	 83.4741
| 16> C 	 -15.4368 	 -11.256 	 81.435
| 17> H 	 -16.0881 	 -10.4635 	 80.9943
| 18> H 	 -14.4233 	 -11.0028 	 81.1298
| 19> C 	 -15.8259 	 -12.6209 	 80.9025
| 20> H 	 -15.0692 	 -13.3617 	 81.2754
| 21> H 	 -16.7924 	 -12.8051 	 81.3254
| 22> H 	 -15.967 	 -12.4973 	 79.7996
| 23> S 	 -11.9508 	 -7.50271 	 86.4538
| 24> C 	 -10.466 	 -6.69888 	 86.3149
| 25> C 	 -10.1334 	 -6.58108 	 85.0032
| 26> C 	 -11.0623 	 -7.24477 	 84.1409
| 27> C 	 -12.1185 	 -7.82274 	 84.8066
| 28> H 	 -9.24547 	 -5.9617 	 84.7765
| 29> C 	 -10.847 	 -7.21248 	 82.6375
| 30> H 	 -10.5911 	 -8.19731 	 82.2988
| 31> H 	 -9.94209 	 -6.72822 	 82.4526
| 32> C 	 -12.0734 	 -6.6549 	 81.7894
| 33> H 	 -12.1285 	 -5.53431 	 81.9272
| 34> H 	 -13.0033 	 -7.1353 	 82.0297
| 35> C 	 -11.9034 	 -6.84635 	 80.3492
| 36> H 	 -10.9131 	 -6.39114 	 80.0898
| 37> H 	 -12.6481 	 -6.41713 	 79.7421
| 38> H 	 -11.8914 	 -7.82641 	 80.0321
| 39> H 	 -16.864 	 -8.87154 	 83.9189
| 40> H 	 -9.88855 	 -6.24202 	 87.146
| 41> *
| 42>
| 43>                          ****END OF INPUT****

CARTESIAN COORDINATES (ANGSTROEM)
---------------------------------
  S    -14.848600   -7.552040   84.581900
  C    -15.792400   -8.953960   84.081400
  C    -14.997500   -9.968720   83.583800
  C    -13.601800   -9.692520   83.714600
  C    -13.350700   -8.457210   84.424800
  H    -12.765000  -10.240900   83.417600
  C    -15.468400  -11.302200   82.918700
  H    -16.466500  -11.591800   83.281000
  H    -14.779300  -11.993600   83.474100
  C    -15.436800  -11.256000   81.435000
  H    -16.088100  -10.463500   80.994300
  H    -14.423300  -11.002800   81.129800
  C    -15.825900  -12.620900   80.902500
  H    -15.069200  -13.361700   81.275400
  H    -16.792400  -12.805100   81.325400
  H    -15.967000  -12.497300   79.799600
  S    -11.950800   -7.502710   86.453800
  C    -10.466000   -6.698880   86.314900
  C    -10.133400   -6.581080   85.003200
  C    -11.062300   -7.244770   84.140900
  C    -12.118500   -7.822740   84.806600
  H     -9.245470   -5.961700   84.776500
  C    -10.847000   -7.212480   82.637500
  H    -10.591100   -8.197310   82.298800
  H     -9.942090   -6.728220   82.452600
  C    -12.073400   -6.654900   81.789400
  H    -12.128500   -5.534310   81.927200
  H    -13.003300   -7.135300   82.029700
  C    -11.903400   -6.846350   80.349200
  H    -10.913100   -6.391140   80.089800
  H    -12.648100   -6.417130   79.742100
  H    -11.891400   -7.826410   80.032100
  H    -16.864000   -8.871540   83.918900
  H     -9.888550   -6.242020   87.146000

 Total Charge           Charge          ....    0
 Multiplicity           Mult            ....    1
 Number of Electrons    NEL             ....  134
 Basis Dimension        Dim             ....  322

ORBITAL ENERGIES
----------------

  NO   OCC          E(Eh)            E(eV)
   0   2.0000     -88.966887     -2420.9121
   1   2.0000     -88.958619     -2420.6871
   2   2.0000     -10.334033      -281.2033
   3   2.0000     -10.316663      -280.7307
   4   2.0000     -10.313991      -280.6580
   5   2.0000     -10.310855      -280.5726
   6   2.0000     -10.304968      -280.4124
   7   2.0000     -10.300856      -280.3005
   8   2.0000     -10.298104      -280.2257
   9   2.0000     -10.297480      -280.2087
  10   2.0000     -10.290294      -280.0131
  11   2.0000     -10.286455      -279.9087
  12   2.0000     -10.284388      -279.8524
  13   2.0000     -10.282809      -279.8095
  14   2.0000     -10.280871      -279.7567
  15   2.0000     -10.260783      -279.2101
  16   2.0000      -8.080987      -219.8948
  17   2.0000      -8.075953      -219.7579
  18   2.0000      -6.039416      -164.3409
  19   2.0000      -6.035614      -164.2374
  20   2.0000      -6.034205      -164.1991
  21   2.0000      -6.031825      -164.1343
  22   2.0000      -6.029920      -164.0825
  23   2.0000      -6.026956      -164.0018
  24   2.0000      -1.017076       -27.6760
  25   2.0000      -0.983583       -26.7647
  26   2.0000      -0.919836       -25.0300
  27   2.0000      -0.907839       -24.7036
  28   2.0000      -0.875604       -23.8264
  29   2.0000      -0.856643       -23.3104
  30   2.0000      -0.847161       -23.0524
  31   2.0000      -0.812561       -22.1109
  32   2.0000      -0.780655       -21.2427
  33   2.0000      -0.770410       -20.9639
  34   2.0000      -0.706378       -19.2215
  35   2.0000      -0.696937       -18.9646
  36   2.0000      -0.692082       -18.8325
  37   2.0000      -0.661265       -17.9939
  38   2.0000      -0.644366       -17.5341
  39   2.0000      -0.619148       -16.8479
  40   2.0000      -0.594136       -16.1673
  41   2.0000      -0.571427       -15.5493
  42   2.0000      -0.568324       -15.4649
  43   2.0000      -0.563908       -15.3447
  44   2.0000      -0.534863       -14.5544
  45   2.0000      -0.526381       -14.3235
  46   2.0000      -0.514727       -14.0064
  47   2.0000      -0.510876       -13.9016
  48   2.0000      -0.509614       -13.8673
  49   2.0000      -0.501431       -13.6446
  50   2.0000      -0.491666       -13.3789
  51   2.0000      -0.487866       -13.2755
  52   2.0000      -0.469236       -12.7686
  53   2.0000      -0.465934       -12.6787
  54   2.0000      -0.463714       -12.6183
  55   2.0000      -0.448425       -12.2023
  56   2.0000      -0.442561       -12.0427
  57   2.0000      -0.435663       -11.8550
  58   2.0000      -0.425105       -11.5677
  59   2.0000      -0.422335       -11.4923
  60   2.0000      -0.420457       -11.4412
  61   2.0000      -0.414719       -11.2851
  62   2.0000      -0.406691       -11.0666
  63   2.0000      -0.338614        -9.2142
  64   2.0000      -0.333103        -9.0642
  65   2.0000      -0.323427        -8.8009
  66   2.0000      -0.298545        -8.1238
  67   0.0000       0.033489         0.9113
  68   0.0000       0.064635         1.7588
  69   0.0000       0.112730         3.0675
  70   0.0000       0.127792         3.4774
  71   0.0000       0.134439         3.6583

MULLIKEN ATOMIC CHARGES
-----------------------
   0 S :    0.118421
   1 C :   -0.121259
   2 C :   -0.081638
   3 C :    0.062063
   4 C :   -0.191877
   5 H :   -0.008752
   6 C :    0.028480
   7 H :    0.016454
   8 H :    0.042796
   9 C :   -0.068529
  10 H :    0.036204
  11 H :    0.019050
  12 C :   -0.024440
  13 H :    0.046136
  14 H :    0.019266
  15 H :    0.044402
  16 S :    0.118723
  17 C :   -0.102229
  18 C :   -0.064642
  19 C :   -0.024182
  20 C :   -0.172437
  21 H :    0.029085
  22 C :    0.128194
  23 H :    0.011633
  24 H :   -0.017084
  25 C :   -0.072671
  26 H :    0.037837
  27 H :    0.039917
  28 C :   -0.009587
  29 H :    0.016289
  30 H :    0.019831
  31 H :    0.003969
  32 H :    0.051661
  33 H :    0.068918
Sum of atomic charges:   -0.0000000

LOEWDIN ATOMIC CHARGES
----------------------
   0 S :    0.408588
   1 C :   -0.201235
   2 C :   -0.061455
   3 C :   -0.054038
   4 C :   -0.191892
   5 H :    0.021054
   6 C :   -0.033426
   7 H :    0.026371
   8 H :    0.039361
   9 C :   -0.047378
  10 H :    0.030951
  11 H :    0.020534
  12 C :   -0.063509
  13 H :    0.034217
  14 H :    0.019171
  15 H :    0.032513
  16 S :    0.462003
  17 C :   -0.209708
  18 C :   -0.085800
  19 C :   -0.054365
  20 C :   -0.236688
  21 H :    0.038222
  22 C :   -0.024317
  23 H :    0.027878
  24 H :    0.019448
  25 C :   -0.035760
  26 H :    0.032175
  27 H :    0.021328
  28 C :   -0.061074
  29 H :    0.026547
  30 H :    0.021493
  31 H :    0.010755
  32 H :    0.027615
  33 H :    0.040421

  Mayer bond orders larger than 0.100000
B(  0-S ,  1-C ) :   1.1377 B(  0-S ,  4-C ) :   1.1765 B(  1-C ,  2-C ) :   1.6107
B(  1-C ,  4-C ) :   0.1093 B(  1-C , 32-H ) :   0.9668 B(  2-C ,  3-C ) :   1.2450
B(  2-C ,  6-C ) :   0.9941 B(  3-C ,  4-C ) :   1.5469 B(  3-C ,  5-H ) :   1.0067
B(  4-C , 20-C ) :   1.0324 B(  6-C ,  7-H ) :   0.9439 B(  6-C ,  8-H ) :   0.9467
B(  6-C ,  9-C ) :   1.0667 B(  9-C , 10-H ) :   0.9508 B(  9-C , 11-H ) :   0.9513
B(  9-C , 12-C ) :   1.0811 B( 12-C , 13-H ) :   0.9731 B( 12-C , 14-H ) :   0.9722
B( 12-C , 15-H ) :   0.9730 B( 16-S , 17-C ) :   1.1864 B( 16-S , 20-C ) :   1.1697
B( 17-C , 18-C ) :   1.5858 B( 17-C , 33-H ) :   0.9618 B( 18-C , 19-C ) :   1.2652
B( 18-C , 21-H ) :   0.9893 B( 19-C , 20-C ) :   1.5591 B( 19-C , 22-C ) :   1.0446
B( 22-C , 23-H ) :   0.9305 B( 22-C , 24-H ) :   0.9195 B( 22-C , 25-C ) :   1.0514
B( 25-C , 26-H ) :   0.9549 B( 25-C , 27-H ) :   0.9547 B( 25-C , 28-C ) :   1.1019
B( 28-C , 29-H ) :   0.9695 B( 28-C , 30-H ) :   0.9684 B( 28-C , 31-H ) :   0.9704

Dispersion correction           -0.014401617
FINAL SINGLE POINT ENERGY     -1339.862968373589

DIPOLE MOMENT
-------------
                                X             Y             Z
Electronic contribution:      2.23558      11.16790      26.70828
Nuclear contribution   :     -2.14288     -11.31291     -27.26712
                        -----------------------------------------
Total Dipole Moment    :      0.09270      -0.14501      -0.55884
                        -----------------------------------------
Magnitude (a.u.)       :      0.58474
Magnitude (Debye)      :      1.48630

Rotational constants in cm-1:     0.020239     0.008437     0.006937
Rotational constants in MHz :   606.749091   252.930197   207.973463

                             ****ORCA TERMINATED NORMALLY****
TOTAL RUN TIME: 0 days 0 hours 0 minutes 33 seconds 806 msec
