                         Program Version 4.2.1 -  RELEASE  -
|  1> ! wB97X-D3 SP def2-SVP
|  2> %pal
|  3> nprocs 16
|  4> end
|  5>
|  6> * xyz 0 1
|  7> S 	 -38.824 	 35.1819 	 83.1615
|  8> C 	 -38.3232 	 36.7007 	 83.7895
|  9> C 	 -38.8422 	 37.7294 	 82.9637
| 10> C 	 -39.7744 	 37.2621 	 82.018
| 11> C 	 -39.9394 	 35.9155 	 82.0208
| 12> H 	 -40.3689 	 37.8186 	 81.3457
| 13> C 	 -38.5851 	 39.227 	 83.2434
| 14> H 	 -39.4549 	 39.7388 	 83.5393
| 15> H 	 -38.4567 	 39.6392 	 82.2234
| 16> C 	 -37.3889 	 39.5321 	 84.1738
| 17> H 	 -37.6027 	 39.0964 	 85.1827
| 18> H 	 -36.4744 	 38.9824 	 83.9616
| 19> C 	 -37.0566 	 41.0172 	 84.2339
| 20> H 	 -36.8942 	 41.3776 	 83.2359
| 21> H 	 -37.8952 	 41.4742 	 84.6567
| 22> H 	 -36.1957 	 41.2823 	 84.8433
| 23> S 	 -41.9007 	 34.139 	 81.9719
| 24> C 	 -42.8239 	 33.7419 	 80.4881
| 25> C 	 -42.1218 	 34.265 	 79.3999
| 26> C 	 -40.9367 	 35.0851 	 79.7652
| 27> C 	 -40.8192 	 35.1508 	 81.1538
| 28> H 	 -42.4203 	 34.0476 	 78.412
| 29> C 	 -40.0051 	 35.7575 	 78.8139
| 30> H 	 -39.8596 	 36.7943 	 79.1135
| 31> H 	 -40.4909 	 35.8003 	 77.8086
| 32> C 	 -38.6548 	 34.926 	 78.6557
| 33> H 	 -38.9214 	 33.896 	 78.3942
| 34> H 	 -38.2389 	 34.9865 	 79.7179
| 35> C 	 -37.5618 	 35.4538 	 77.7214
| 36> H 	 -37.9559 	 35.4798 	 76.7146
| 37> H 	 -36.7145 	 34.7382 	 77.6819
| 38> H 	 -37.1917 	 36.4449 	 78.0772
| 39> H 	 -37.6958 	 36.779 	 84.6774
| 40> H 	 -43.7511 	 33.1646 	 80.4046
| 41> *
| 42>
| 43>                          ****END OF INPUT****

CARTESIAN COORDINATES (ANGSTROEM)
---------------------------------
  S    -38.824000   35.181900   83.161500
  C    -38.323200   36.700700   83.789500
  C    -38.842200   37.729400   82.963700
  C    -39.774400   37.262100   82.018000
  C    -39.939400   35.915500   82.020800
  H    -40.368900   37.818600   81.345700
  C    -38.585100   39.227000   83.243400
  H    -39.454900   39.738800   83.539300
  H    -38.456700   39.639200   82.223400
  C    -37.388900   39.532100   84.173800
  H    -37.602700   39.096400   85.182700
  H    -36.474400   38.982400   83.961600
  C    -37.056600   41.017200   84.233900
  H    -36.894200   41.377600   83.235900
  H    -37.895200   41.474200   84.656700
  H    -36.195700   41.282300   84.843300
  S    -41.900700   34.139000   81.971900
  C    -42.823900   33.741900   80.488100
  C    -42.121800   34.265000   79.399900
  C    -40.936700   35.085100   79.765200
  C    -40.819200   35.150800   81.153800
  H    -42.420300   34.047600   78.412000
  C    -40.005100   35.757500   78.813900
  H    -39.859600   36.794300   79.113500
  H    -40.490900   35.800300   77.808600
  C    -38.654800   34.926000   78.655700
  H    -38.921400   33.896000   78.394200
  H    -38.238900   34.986500   79.717900
  C    -37.561800   35.453800   77.721400
  H    -37.955900   35.479800   76.714600
  H    -36.714500   34.738200   77.681900
  H    -37.191700   36.444900   78.077200
  H    -37.695800   36.779000   84.677400
  H    -43.751100   33.164600   80.404600

 Total Charge           Charge          ....    0
 Multiplicity           Mult            ....    1
 Number of Electrons    NEL             ....  134
 Basis Dimension        Dim             ....  322

ORBITAL ENERGIES
----------------

  NO   OCC          E(Eh)            E(eV)
   0   2.0000     -88.964462     -2420.8461
   1   2.0000     -88.963540     -2420.8210
   2   2.0000     -10.325805      -280.9794
   3   2.0000     -10.323374      -280.9133
   4   2.0000     -10.322681      -280.8944
   5   2.0000     -10.315542      -280.7002
   6   2.0000     -10.307738      -280.4878
   7   2.0000     -10.305579      -280.4291
   8   2.0000     -10.299865      -280.2736
   9   2.0000     -10.295656      -280.1590
  10   2.0000     -10.293745      -280.1071
  11   2.0000     -10.291188      -280.0375
  12   2.0000     -10.289779      -279.9991
  13   2.0000     -10.288518      -279.9648
  14   2.0000     -10.280808      -279.7550
  15   2.0000     -10.272224      -279.5214
  16   2.0000      -8.079569      -219.8563
  17   2.0000      -8.078725      -219.8333
  18   2.0000      -6.037978      -164.3017
  19   2.0000      -6.037363      -164.2850
  20   2.0000      -6.033897      -164.1907
  21   2.0000      -6.032963      -164.1653
  22   2.0000      -6.030553      -164.0997
  23   2.0000      -6.029509      -164.0713
  24   2.0000      -1.010620       -27.5004
  25   2.0000      -0.983435       -26.7606
  26   2.0000      -0.909374       -24.7453
  27   2.0000      -0.900598       -24.5065
  28   2.0000      -0.870607       -23.6904
  29   2.0000      -0.855513       -23.2797
  30   2.0000      -0.844750       -22.9868
  31   2.0000      -0.819034       -22.2871
  32   2.0000      -0.779094       -21.2002
  33   2.0000      -0.765033       -20.8176
  34   2.0000      -0.713886       -19.4258
  35   2.0000      -0.695182       -18.9169
  36   2.0000      -0.684037       -18.6136
  37   2.0000      -0.667237       -18.1564
  38   2.0000      -0.649802       -17.6820
  39   2.0000      -0.615450       -16.7472
  40   2.0000      -0.588926       -16.0255
  41   2.0000      -0.568130       -15.4596
  42   2.0000      -0.564255       -15.3542
  43   2.0000      -0.560873       -15.2621
  44   2.0000      -0.529880       -14.4188
  45   2.0000      -0.522516       -14.2184
  46   2.0000      -0.518663       -14.1135
  47   2.0000      -0.515477       -14.0268
  48   2.0000      -0.505416       -13.7531
  49   2.0000      -0.504368       -13.7246
  50   2.0000      -0.494054       -13.4439
  51   2.0000      -0.485659       -13.2155
  52   2.0000      -0.477144       -12.9837
  53   2.0000      -0.460925       -12.5424
  54   2.0000      -0.455792       -12.4027
  55   2.0000      -0.447965       -12.1898
  56   2.0000      -0.445058       -12.1107
  57   2.0000      -0.438476       -11.9315
  58   2.0000      -0.430188       -11.7060
  59   2.0000      -0.424134       -11.5413
  60   2.0000      -0.420000       -11.4288
  61   2.0000      -0.415536       -11.3073
  62   2.0000      -0.406092       -11.0503
  63   2.0000      -0.346917        -9.4401
  64   2.0000      -0.330241        -8.9863
  65   2.0000      -0.322122        -8.7654
  66   2.0000      -0.295160        -8.0317
  67   0.0000       0.033361         0.9078
  68   0.0000       0.067390         1.8338
  69   0.0000       0.114607         3.1186
  70   0.0000       0.118851         3.2341
  71   0.0000       0.128862         3.5065

MULLIKEN ATOMIC CHARGES
-----------------------
   0 S :    0.120027
   1 C :   -0.146228
   2 C :   -0.071274
   3 C :    0.045756
   4 C :   -0.144860
   5 H :   -0.003193
   6 C :    0.071090
   7 H :    0.025940
   8 H :    0.020264
   9 C :   -0.111992
  10 H :    0.027919
  11 H :    0.025533
  12 C :    0.006864
  13 H :    0.025828
  14 H :    0.016520
  15 H :    0.033365
  16 S :    0.109701
  17 C :   -0.103066
  18 C :   -0.019456
  19 C :   -0.038636
  20 C :   -0.182208
  21 H :    0.003946
  22 C :    0.079730
  23 H :    0.023292
  24 H :    0.015790
  25 C :   -0.122502
  26 H :    0.034444
  27 H :    0.045572
  28 C :   -0.028158
  29 H :    0.026399
  30 H :    0.041193
  31 H :    0.040589
  32 H :    0.063008
  33 H :    0.068800
Sum of atomic charges:    0.0000000

LOEWDIN ATOMIC CHARGES
----------------------
   0 S :    0.415389
   1 C :   -0.213247
   2 C :   -0.057710
   3 C :   -0.061689
   4 C :   -0.194298
   5 H :    0.027453
   6 C :   -0.028796
   7 H :    0.025953
   8 H :    0.033412
   9 C :   -0.046738
  10 H :    0.024195
  11 H :    0.021345
  12 C :   -0.054631
  13 H :    0.023970
  14 H :    0.017985
  15 H :    0.028502
  16 S :    0.420216
  17 C :   -0.184268
  18 C :   -0.059476
  19 C :   -0.055903
  20 C :   -0.217057
  21 H :    0.021672
  22 C :   -0.038376
  23 H :    0.028567
  24 H :    0.029029
  25 C :   -0.042770
  26 H :    0.024270
  27 H :    0.031029
  28 C :   -0.069389
  29 H :    0.020626
  30 H :    0.032355
  31 H :    0.030216
  32 H :    0.030878
  33 H :    0.037284

  Mayer bond orders larger than 0.100000
B(  0-S ,  1-C ) :   1.1510 B(  0-S ,  4-C ) :   1.1539 B(  1-C ,  2-C ) :   1.5676
B(  1-C ,  4-C ) :   0.1024 B(  1-C , 32-H ) :   0.9692 B(  2-C ,  3-C ) :   1.2540
B(  2-C ,  6-C ) :   1.0079 B(  3-C ,  4-C ) :   1.5820 B(  3-C ,  5-H ) :   1.0062
B(  4-C , 20-C ) :   1.0135 B(  6-C ,  7-H ) :   0.9425 B(  6-C ,  8-H ) :   0.9376
B(  6-C ,  9-C ) :   1.0627 B(  9-C , 10-H ) :   0.9465 B(  9-C , 11-H ) :   0.9600
B(  9-C , 12-C ) :   1.0827 B( 12-C , 13-H ) :   0.9756 B( 12-C , 14-H ) :   0.9743
B( 12-C , 15-H ) :   0.9724 B( 16-S , 17-C ) :   1.1365 B( 16-S , 20-C ) :   1.1646
B( 17-C , 18-C ) :   1.6128 B( 17-C , 33-H ) :   0.9699 B( 18-C , 19-C ) :   1.2249
B( 18-C , 21-H ) :   0.9924 B( 19-C , 20-C ) :   1.5739 B( 19-C , 22-C ) :   1.0651
B( 22-C , 23-H ) :   0.9309 B( 22-C , 24-H ) :   0.9265 B( 22-C , 25-C ) :   1.0449
B( 25-C , 26-H ) :   0.9563 B( 25-C , 27-H ) :   0.9593 B( 25-C , 28-C ) :   1.0862
B( 28-C , 29-H ) :   0.9732 B( 28-C , 30-H ) :   0.9723 B( 28-C , 31-H ) :   0.9731

Dispersion correction           -0.014047451
FINAL SINGLE POINT ENERGY     -1339.881370802082

DIPOLE MOMENT
-------------
                                X             Y             Z
Electronic contribution:    -16.08633     -19.61384       8.35757
Nuclear contribution   :     16.18044      20.07338      -8.69412
                        -----------------------------------------
Total Dipole Moment    :      0.09411       0.45954      -0.33656
                        -----------------------------------------
Magnitude (a.u.)       :      0.57732
Magnitude (Debye)      :      1.46744

Rotational constants in cm-1:     0.020211     0.007688     0.006433
Rotational constants in MHz :   605.909950   230.487904   192.864166

                             ****ORCA TERMINATED NORMALLY****
TOTAL RUN TIME: 0 days 0 hours 0 minutes 27 seconds 869 msec
