                         Program Version 4.2.1 -  RELEASE  -
|  1> ! wB97X-D3 SP def2-SVP
|  2> %pal
|  3> nprocs 16
|  4> end
|  5>
|  6> * xyz 0 1
|  7> S 	 23.1013 	 6.07066 	 76.3902
|  8> C 	 23.8584 	 4.5845 	 75.8776
|  9> C 	 24.9096 	 4.21609 	 76.6698
| 10> C 	 25.2305 	 5.25961 	 77.6005
| 11> C 	 24.4699 	 6.40246 	 77.432
| 12> H 	 26.0412 	 5.28937 	 78.3488
| 13> C 	 25.6725 	 2.89098 	 76.4437
| 14> H 	 26.7091 	 2.97417 	 76.9051
| 15> H 	 25.7857 	 2.88895 	 75.3312
| 16> C 	 25.108 	 1.56246 	 76.9731
| 17> H 	 25.7206 	 0.840068 	 76.3939
| 18> H 	 25.269 	 1.39816 	 78.051
| 19> C 	 23.6315 	 1.40912 	 76.6395
| 20> H 	 23.5309 	 1.39808 	 75.6242
| 21> H 	 23.3103 	 0.44877 	 77.0342
| 22> H 	 22.9708 	 2.12367 	 77.1029
| 23> S 	 23.0266 	 8.58421 	 78.0942
| 24> C 	 23.7133 	 9.71559 	 79.3109
| 25> C 	 25.0132 	 9.45068 	 79.6114
| 26> C 	 25.4901 	 8.30112 	 78.9148
| 27> C 	 24.5225 	 7.67455 	 78.0854
| 28> H 	 25.5356 	 10.1255 	 80.3156
| 29> C 	 27.0086 	 7.97686 	 78.9621
| 30> H 	 27.4455 	 9.01027 	 79.0046
| 31> H 	 27.3476 	 7.3814 	 78.1158
| 32> C 	 27.5695 	 7.37708 	 80.2776
| 33> H 	 27.3342 	 8.11227 	 81.0408
| 34> H 	 28.6302 	 7.17071 	 80.2963
| 35> C 	 26.898 	 6.01533 	 80.7414
| 36> H 	 27.2755 	 5.77811 	 81.7679
| 37> H 	 27.2598 	 5.17472 	 80.1287
| 38> H 	 25.8173 	 6.01602 	 80.761
| 39> H 	 23.5811 	 4.12921 	 74.9086
| 40> H 	 23.1521 	 10.5892 	 79.6975
| 41> *
| 42>
| 43>                          ****END OF INPUT****

CARTESIAN COORDINATES (ANGSTROEM)
---------------------------------
  S     23.101300    6.070660   76.390200
  C     23.858400    4.584500   75.877600
  C     24.909600    4.216090   76.669800
  C     25.230500    5.259610   77.600500
  C     24.469900    6.402460   77.432000
  H     26.041200    5.289370   78.348800
  C     25.672500    2.890980   76.443700
  H     26.709100    2.974170   76.905100
  H     25.785700    2.888950   75.331200
  C     25.108000    1.562460   76.973100
  H     25.720600    0.840068   76.393900
  H     25.269000    1.398160   78.051000
  C     23.631500    1.409120   76.639500
  H     23.530900    1.398080   75.624200
  H     23.310300    0.448770   77.034200
  H     22.970800    2.123670   77.102900
  S     23.026600    8.584210   78.094200
  C     23.713300    9.715590   79.310900
  C     25.013200    9.450680   79.611400
  C     25.490100    8.301120   78.914800
  C     24.522500    7.674550   78.085400
  H     25.535600   10.125500   80.315600
  C     27.008600    7.976860   78.962100
  H     27.445500    9.010270   79.004600
  H     27.347600    7.381400   78.115800
  C     27.569500    7.377080   80.277600
  H     27.334200    8.112270   81.040800
  H     28.630200    7.170710   80.296300
  C     26.898000    6.015330   80.741400
  H     27.275500    5.778110   81.767900
  H     27.259800    5.174720   80.128700
  H     25.817300    6.016020   80.761000
  H     23.581100    4.129210   74.908600
  H     23.152100   10.589200   79.697500

 Total Charge           Charge          ....    0
 Multiplicity           Mult            ....    1
 Number of Electrons    NEL             ....  134
 Basis Dimension        Dim             ....  322

ORBITAL ENERGIES
----------------

  NO   OCC          E(Eh)            E(eV)
   0   2.0000     -88.965972     -2420.8872
   1   2.0000     -88.961180     -2420.7568
   2   2.0000     -10.330624      -281.1106
   3   2.0000     -10.327685      -281.0306
   4   2.0000     -10.322961      -280.9020
   5   2.0000     -10.311760      -280.5973
   6   2.0000     -10.311465      -280.5892
   7   2.0000     -10.301921      -280.3295
   8   2.0000     -10.300830      -280.2998
   9   2.0000     -10.299463      -280.2626
  10   2.0000     -10.299396      -280.2608
  11   2.0000     -10.295919      -280.1662
  12   2.0000     -10.291075      -280.0344
  13   2.0000     -10.289703      -279.9970
  14   2.0000     -10.281812      -279.7823
  15   2.0000     -10.263988      -279.2973
  16   2.0000      -8.080393      -219.8787
  17   2.0000      -8.076722      -219.7788
  18   2.0000      -6.039009      -164.3298
  19   2.0000      -6.035205      -164.2263
  20   2.0000      -6.035095      -164.2233
  21   2.0000      -6.031425      -164.1234
  22   2.0000      -6.030908      -164.1094
  23   2.0000      -6.027163      -164.0075
  24   2.0000      -1.008593       -27.4452
  25   2.0000      -0.981671       -26.7126
  26   2.0000      -0.911107       -24.7925
  27   2.0000      -0.900992       -24.5172
  28   2.0000      -0.874347       -23.7922
  29   2.0000      -0.847310       -23.0565
  30   2.0000      -0.840381       -22.8679
  31   2.0000      -0.814172       -22.1547
  32   2.0000      -0.783300       -21.3147
  33   2.0000      -0.772729       -21.0270
  34   2.0000      -0.712373       -19.3847
  35   2.0000      -0.692965       -18.8565
  36   2.0000      -0.689174       -18.7534
  37   2.0000      -0.659589       -17.9483
  38   2.0000      -0.634952       -17.2779
  39   2.0000      -0.616133       -16.7658
  40   2.0000      -0.591276       -16.0894
  41   2.0000      -0.565877       -15.3983
  42   2.0000      -0.553884       -15.0719
  43   2.0000      -0.551050       -14.9948
  44   2.0000      -0.543616       -14.7925
  45   2.0000      -0.535733       -14.5780
  46   2.0000      -0.519492       -14.1361
  47   2.0000      -0.511067       -13.9068
  48   2.0000      -0.501255       -13.6398
  49   2.0000      -0.493617       -13.4320
  50   2.0000      -0.490640       -13.3510
  51   2.0000      -0.478728       -13.0269
  52   2.0000      -0.471110       -12.8195
  53   2.0000      -0.466309       -12.6889
  54   2.0000      -0.459221       -12.4960
  55   2.0000      -0.452361       -12.3094
  56   2.0000      -0.445237       -12.1155
  57   2.0000      -0.439238       -11.9523
  58   2.0000      -0.428116       -11.6496
  59   2.0000      -0.420253       -11.4357
  60   2.0000      -0.418702       -11.3935
  61   2.0000      -0.411563       -11.1992
  62   2.0000      -0.407817       -11.0973
  63   2.0000      -0.363534        -9.8923
  64   2.0000      -0.337715        -9.1897
  65   2.0000      -0.324674        -8.8348
  66   2.0000      -0.275733        -7.5031
  67   0.0000       0.013622         0.3707
  68   0.0000       0.075933         2.0662
  69   0.0000       0.087497         2.3809
  70   0.0000       0.115129         3.1328
  71   0.0000       0.131153         3.5688

MULLIKEN ATOMIC CHARGES
-----------------------
   0 S :    0.078717
   1 C :   -0.135023
   2 C :   -0.064862
   3 C :    0.014241
   4 C :   -0.111810
   5 H :   -0.027087
   6 C :    0.007413
   7 H :    0.032172
   8 H :    0.042648
   9 C :   -0.064175
  10 H :    0.034867
  11 H :    0.037719
  12 C :   -0.009841
  13 H :    0.003062
  14 H :    0.020220
  15 H :    0.047484
  16 S :    0.075678
  17 C :   -0.100261
  18 C :   -0.035747
  19 C :   -0.062386
  20 C :   -0.101843
  21 H :    0.038178
  22 C :    0.044128
  23 H :    0.039964
  24 H :    0.039640
  25 C :   -0.075712
  26 H :    0.022943
  27 H :    0.039108
  28 C :   -0.093600
  29 H :    0.033518
  30 H :    0.046565
  31 H :    0.051906
  32 H :    0.064126
  33 H :    0.068052
Sum of atomic charges:   -0.0000000

LOEWDIN ATOMIC CHARGES
----------------------
   0 S :    0.385586
   1 C :   -0.194759
   2 C :   -0.066378
   3 C :   -0.068309
   4 C :   -0.181576
   5 H :    0.031720
   6 C :   -0.039690
   7 H :    0.035134
   8 H :    0.037037
   9 C :   -0.038660
  10 H :    0.031368
  11 H :    0.025690
  12 C :   -0.057481
  13 H :    0.009620
  14 H :    0.026073
  15 H :    0.027700
  16 S :    0.377329
  17 C :   -0.168290
  18 C :   -0.075799
  19 C :   -0.058714
  20 C :   -0.192465
  21 H :    0.042661
  22 C :   -0.032969
  23 H :    0.041799
  24 H :    0.027812
  25 C :   -0.039301
  26 H :    0.019850
  27 H :    0.025872
  28 C :   -0.074797
  29 H :    0.030472
  30 H :    0.021298
  31 H :    0.024438
  32 H :    0.032296
  33 H :    0.035434

  Mayer bond orders larger than 0.100000
B(  0-S ,  1-C ) :   1.1275 B(  0-S ,  4-C ) :   1.1316 B(  1-C ,  2-C ) :   1.6246
B(  1-C , 32-H ) :   0.9635 B(  2-C ,  3-C ) :   1.2266 B(  2-C ,  6-C ) :   1.0031
B(  3-C ,  4-C ) :   1.5766 B(  3-C ,  5-H ) :   0.9844 B(  4-C , 20-C ) :   1.1088
B(  6-C ,  7-H ) :   0.9432 B(  6-C ,  8-H ) :   0.9476 B(  6-C ,  9-C ) :   1.0666
B(  9-C , 10-H ) :   0.9523 B(  9-C , 11-H ) :   0.9573 B(  9-C , 12-C ) :   1.0947
B( 12-C , 13-H ) :   0.9739 B( 12-C , 14-H ) :   0.9694 B( 12-C , 15-H ) :   0.9681
B( 16-S , 17-C ) :   1.1343 B( 16-S , 20-C ) :   1.1217 B( 17-C , 18-C ) :   1.6423
B( 17-C , 33-H ) :   0.9613 B( 18-C , 19-C ) :   1.2271 B( 18-C , 21-H ) :   0.9827
B( 19-C , 20-C ) :   1.5775 B( 19-C , 22-C ) :   1.0244 B( 22-C , 23-H ) :   0.9405
B( 22-C , 24-H ) :   0.9446 B( 22-C , 25-C ) :   1.0653 B( 25-C , 26-H ) :   0.9588
B( 25-C , 27-H ) :   0.9588 B( 25-C , 28-C ) :   1.0797 B( 28-C , 29-H ) :   0.9699
B( 28-C , 30-H ) :   0.9631 B( 28-C , 31-H ) :   0.9737

Dispersion correction           -0.014865527
FINAL SINGLE POINT ENERGY     -1339.868872864398

DIPOLE MOMENT
-------------
                                X             Y             Z
Electronic contribution:    -16.44316      19.60598      -7.73544
Nuclear contribution   :     17.02498     -19.78689       8.00985
                        -----------------------------------------
Total Dipole Moment    :      0.58182      -0.18091       0.27441
                        -----------------------------------------
Magnitude (a.u.)       :      0.66824
Magnitude (Debye)      :      1.69853

Rotational constants in cm-1:     0.020850     0.008926     0.006708
Rotational constants in MHz :   625.052533   267.608534   201.089761

                             ****ORCA TERMINATED NORMALLY****
TOTAL RUN TIME: 0 days 0 hours 0 minutes 36 seconds 171 msec
