                         Program Version 4.2.1 -  RELEASE  -
|  1> ! wB97X-D3 SP def2-SVP
|  2> %pal
|  3> nprocs 16
|  4> end
|  5>
|  6> * xyz 0 1
|  7> S 	 5.69856 	 -11.6355 	 55.9681
|  8> C 	 6.29106 	 -11.3429 	 57.6044
|  9> C 	 6.61715 	 -12.5227 	 58.2605
| 10> C 	 6.31878 	 -13.6619 	 57.4745
| 11> C 	 5.86051 	 -13.396 	 56.1983
| 12> H 	 6.49592 	 -14.6536 	 57.6476
| 13> C 	 7.045 	 -12.6451 	 59.6761
| 14> H 	 7.18613 	 -11.6664 	 60.133
| 15> H 	 8.01264 	 -13.1527 	 59.534
| 16> C 	 6.21657 	 -13.571 	 60.5896
| 17> H 	 5.14717 	 -13.4772 	 60.434
| 18> H 	 6.3682 	 -14.603 	 60.2798
| 19> C 	 6.48714 	 -13.407 	 62.0896
| 20> H 	 7.39988 	 -12.8007 	 62.3352
| 21> H 	 5.6046 	 -12.9165 	 62.6504
| 22> H 	 6.65492 	 -14.376 	 62.4931
| 23> S 	 3.9794 	 -13.9744 	 54.2639
| 24> C 	 4.08712 	 -15.5019 	 53.363
| 25> C 	 5.1284 	 -16.2605 	 53.769
| 26> C 	 5.9471 	 -15.6202 	 54.7929
| 27> C 	 5.44213 	 -14.3695 	 55.216
| 28> H 	 5.32628 	 -17.2692 	 53.396
| 29> C 	 7.16413 	 -16.3474 	 55.3073
| 30> H 	 7.03877 	 -17.3774 	 55.1355
| 31> H 	 7.09454 	 -16.2114 	 56.3901
| 32> C 	 8.5669 	 -15.8629 	 54.832
| 33> H 	 8.72847 	 -16.2045 	 53.8459
| 34> H 	 9.33244 	 -16.3001 	 55.3761
| 35> C 	 8.9293 	 -14.3398 	 55.0702
| 36> H 	 8.31671 	 -13.5796 	 54.4978
| 37> H 	 10.0038 	 -14.2023 	 54.7697
| 38> H 	 8.89438 	 -14.0692 	 56.0992
| 39> H 	 6.37901 	 -10.411 	 58.1275
| 40> H 	 3.48904 	 -15.7356 	 52.4943
| 41> *
| 42>
| 43>                          ****END OF INPUT****

CARTESIAN COORDINATES (ANGSTROEM)
---------------------------------
  S      5.698560  -11.635500   55.968100
  C      6.291060  -11.342900   57.604400
  C      6.617150  -12.522700   58.260500
  C      6.318780  -13.661900   57.474500
  C      5.860510  -13.396000   56.198300
  H      6.495920  -14.653600   57.647600
  C      7.045000  -12.645100   59.676100
  H      7.186130  -11.666400   60.133000
  H      8.012640  -13.152700   59.534000
  C      6.216570  -13.571000   60.589600
  H      5.147170  -13.477200   60.434000
  H      6.368200  -14.603000   60.279800
  C      6.487140  -13.407000   62.089600
  H      7.399880  -12.800700   62.335200
  H      5.604600  -12.916500   62.650400
  H      6.654920  -14.376000   62.493100
  S      3.979400  -13.974400   54.263900
  C      4.087120  -15.501900   53.363000
  C      5.128400  -16.260500   53.769000
  C      5.947100  -15.620200   54.792900
  C      5.442130  -14.369500   55.216000
  H      5.326280  -17.269200   53.396000
  C      7.164130  -16.347400   55.307300
  H      7.038770  -17.377400   55.135500
  H      7.094540  -16.211400   56.390100
  C      8.566900  -15.862900   54.832000
  H      8.728470  -16.204500   53.845900
  H      9.332440  -16.300100   55.376100
  C      8.929300  -14.339800   55.070200
  H      8.316710  -13.579600   54.497800
  H     10.003800  -14.202300   54.769700
  H      8.894380  -14.069200   56.099200
  H      6.379010  -10.411000   58.127500
  H      3.489040  -15.735600   52.494300

 Total Charge           Charge          ....    0
 Multiplicity           Mult            ....    1
 Number of Electrons    NEL             ....  134
 Basis Dimension        Dim             ....  322

ORBITAL ENERGIES
----------------

  NO   OCC          E(Eh)            E(eV)
   0   2.0000     -88.968530     -2420.9568
   1   2.0000     -88.963672     -2420.8246
   2   2.0000     -10.332863      -281.1715
   3   2.0000     -10.331576      -281.1365
   4   2.0000     -10.317545      -280.7547
   5   2.0000     -10.313747      -280.6513
   6   2.0000     -10.308698      -280.5139
   7   2.0000     -10.299657      -280.2679
   8   2.0000     -10.295446      -280.1533
   9   2.0000     -10.293268      -280.0941
  10   2.0000     -10.290876      -280.0290
  11   2.0000     -10.287030      -279.9243
  12   2.0000     -10.286295      -279.9043
  13   2.0000     -10.286107      -279.8992
  14   2.0000     -10.282239      -279.7940
  15   2.0000     -10.278830      -279.7012
  16   2.0000      -8.082089      -219.9248
  17   2.0000      -8.077608      -219.8029
  18   2.0000      -6.040714      -164.3762
  19   2.0000      -6.036797      -164.2696
  20   2.0000      -6.036278      -164.2555
  21   2.0000      -6.032751      -164.1595
  22   2.0000      -6.032270      -164.1464
  23   2.0000      -6.028197      -164.0356
  24   2.0000      -1.001472       -27.2515
  25   2.0000      -0.978454       -26.6251
  26   2.0000      -0.913260       -24.8511
  27   2.0000      -0.903079       -24.5740
  28   2.0000      -0.871781       -23.7224
  29   2.0000      -0.850833       -23.1523
  30   2.0000      -0.841558       -22.9000
  31   2.0000      -0.818178       -22.2638
  32   2.0000      -0.781392       -21.2628
  33   2.0000      -0.770720       -20.9724
  34   2.0000      -0.715052       -19.4575
  35   2.0000      -0.701302       -19.0834
  36   2.0000      -0.694644       -18.9022
  37   2.0000      -0.662831       -18.0365
  38   2.0000      -0.645232       -17.5576
  39   2.0000      -0.621711       -16.9176
  40   2.0000      -0.589589       -16.0435
  41   2.0000      -0.567502       -15.4425
  42   2.0000      -0.563141       -15.3238
  43   2.0000      -0.549865       -14.9626
  44   2.0000      -0.544847       -14.8260
  45   2.0000      -0.521953       -14.2031
  46   2.0000      -0.514110       -13.9897
  47   2.0000      -0.512835       -13.9550
  48   2.0000      -0.505510       -13.7556
  49   2.0000      -0.498777       -13.5724
  50   2.0000      -0.491571       -13.3763
  51   2.0000      -0.477122       -12.9832
  52   2.0000      -0.472707       -12.8630
  53   2.0000      -0.465268       -12.6606
  54   2.0000      -0.454338       -12.3632
  55   2.0000      -0.449529       -12.2323
  56   2.0000      -0.442922       -12.0525
  57   2.0000      -0.437424       -11.9029
  58   2.0000      -0.433796       -11.8042
  59   2.0000      -0.429128       -11.6772
  60   2.0000      -0.422800       -11.5050
  61   2.0000      -0.412402       -11.2220
  62   2.0000      -0.409292       -11.1374
  63   2.0000      -0.353124        -9.6090
  64   2.0000      -0.331633        -9.0242
  65   2.0000      -0.326951        -8.8968
  66   2.0000      -0.285469        -7.7680
  67   0.0000       0.020484         0.5574
  68   0.0000       0.076497         2.0816
  69   0.0000       0.103254         2.8097
  70   0.0000       0.117493         3.1971
  71   0.0000       0.137964         3.7542

MULLIKEN ATOMIC CHARGES
-----------------------
   0 S :    0.109359
   1 C :   -0.110441
   2 C :   -0.079786
   3 C :    0.045291
   4 C :   -0.137448
   5 H :   -0.038993
   6 C :    0.088124
   7 H :    0.018033
   8 H :    0.035459
   9 C :   -0.078931
  10 H :    0.032852
  11 H :    0.023942
  12 C :   -0.074327
  13 H :    0.039296
  14 H :    0.053385
  15 H :    0.030109
  16 S :    0.084430
  17 C :   -0.080228
  18 C :   -0.028808
  19 C :   -0.071588
  20 C :   -0.143386
  21 H :    0.025402
  22 C :    0.089809
  23 H :    0.006918
  24 H :    0.013763
  25 C :   -0.006773
  26 H :    0.016523
  27 H :    0.010755
  28 C :   -0.084277
  29 H :    0.055130
  30 H :    0.033596
  31 H :    0.027363
  32 H :    0.035767
  33 H :    0.059682
Sum of atomic charges:    0.0000000

LOEWDIN ATOMIC CHARGES
----------------------
   0 S :    0.385646
   1 C :   -0.193331
   2 C :   -0.061753
   3 C :   -0.053026
   4 C :   -0.175518
   5 H :    0.011768
   6 C :   -0.032071
   7 H :    0.027438
   8 H :    0.040584
   9 C :   -0.046163
  10 H :    0.026172
  11 H :    0.022241
  12 C :   -0.072946
  13 H :    0.029637
  14 H :    0.038514
  15 H :    0.022780
  16 S :    0.374000
  17 C :   -0.172408
  18 C :   -0.072944
  19 C :   -0.051412
  20 C :   -0.184919
  21 H :    0.035058
  22 C :   -0.030787
  23 H :    0.024693
  24 H :    0.029063
  25 C :   -0.026314
  26 H :    0.017980
  27 H :    0.018357
  28 C :   -0.068127
  29 H :    0.030851
  30 H :    0.030771
  31 H :    0.018012
  32 H :    0.026647
  33 H :    0.031506

  Mayer bond orders larger than 0.100000
B(  0-S ,  1-C ) :   1.1231 B(  0-S ,  4-C ) :   1.1287 B(  1-C ,  2-C ) :   1.6166
B(  1-C , 32-H ) :   0.9653 B(  2-C ,  3-C ) :   1.2155 B(  2-C ,  6-C ) :   1.0379
B(  3-C ,  4-C ) :   1.5820 B(  3-C ,  5-H ) :   1.0069 B(  4-C , 20-C ) :   1.0846
B(  6-C ,  7-H ) :   0.9447 B(  6-C ,  8-H ) :   0.9208 B(  6-C ,  9-C ) :   1.0644
B(  9-C , 10-H ) :   0.9636 B(  9-C , 11-H ) :   0.9547 B(  9-C , 12-C ) :   1.0652
B( 12-C , 13-H ) :   0.9784 B( 12-C , 14-H ) :   0.9785 B( 12-C , 15-H ) :   0.9778
B( 16-S , 17-C ) :   1.1354 B( 16-S , 20-C ) :   1.1172 B( 17-C , 18-C ) :   1.6361
B( 17-C , 33-H ) :   0.9644 B( 18-C , 19-C ) :   1.2321 B( 18-C , 21-H ) :   0.9844
B( 19-C , 20-C ) :   1.5906 B( 19-C , 22-C ) :   1.0350 B( 22-C , 23-H ) :   0.9277
B( 22-C , 24-H ) :   0.9343 B( 22-C , 25-C ) :   1.0756 B( 25-C , 26-H ) :   0.9568
B( 25-C , 27-H ) :   0.9519 B( 25-C , 28-C ) :   1.0714 B( 28-C , 29-H ) :   0.9725
B( 28-C , 30-H ) :   0.9736 B( 28-C , 31-H ) :   0.9752

Dispersion correction           -0.015244888
FINAL SINGLE POINT ENERGY     -1339.871446803945

DIPOLE MOMENT
-------------
                                X             Y             Z
Electronic contribution:    -16.66840       8.46456     -19.23916
Nuclear contribution   :     17.09519      -9.01793      19.65015
                        -----------------------------------------
Total Dipole Moment    :      0.42678      -0.55337       0.41099
                        -----------------------------------------
Magnitude (a.u.)       :      0.81072
Magnitude (Debye)      :      2.06070

Rotational constants in cm-1:     0.019564     0.008399     0.007448
Rotational constants in MHz :   586.506916   251.797632   223.274033

                             ****ORCA TERMINATED NORMALLY****
TOTAL RUN TIME: 0 days 0 hours 0 minutes 30 seconds 905 msec
