                         Program Version 4.2.1 -  RELEASE  -
|  1> ! wB97X-D3 SP def2-SVP
|  2> %pal
|  3> nprocs 16
|  4> end
|  5>
|  6> * xyz 0 1
|  7> S 	 41.2932 	 17.0829 	 81.7222
|  8> C 	 39.8377 	 17.975 	 82.2999
|  9> C 	 39.1728 	 18.5232 	 81.2279
| 10> C 	 39.8267 	 18.3719 	 80.0258
| 11> C 	 40.9986 	 17.638 	 80.081
| 12> H 	 39.369 	 18.7506 	 79.1569
| 13> C 	 37.8383 	 19.2183 	 81.2422
| 14> H 	 37.5493 	 19.7155 	 80.3391
| 15> H 	 37.7425 	 19.9838 	 82.006
| 16> C 	 36.7043 	 18.2736 	 81.6294
| 17> H 	 36.6577 	 17.3614 	 80.9795
| 18> H 	 36.8988 	 17.8516 	 82.6244
| 19> C 	 35.3981 	 19.082 	 81.5646
| 20> H 	 35.1464 	 19.3664 	 80.5924
| 21> H 	 34.7368 	 18.4315 	 82.0866
| 22> H 	 35.3754 	 19.9492 	 82.2165
| 23> S 	 43.6571 	 16.9811 	 79.3527
| 24> C 	 44.1025 	 16.7506 	 77.7062
| 25> C 	 42.9514 	 16.6982 	 76.9499
| 26> C 	 41.7123 	 17.0518 	 77.6139
| 27> C 	 41.9641 	 17.2441 	 78.9985
| 28> H 	 43.0446 	 16.4893 	 75.8944
| 29> C 	 40.4295 	 17.1749 	 76.8117
| 30> H 	 40.6193 	 17.1083 	 75.7879
| 31> H 	 40.1242 	 18.2298 	 77.012
| 32> C 	 39.2318 	 16.2619 	 77.1309
| 33> H 	 38.2684 	 16.681 	 76.8534
| 34> H 	 39.1492 	 16.2535 	 78.1974
| 35> C 	 39.4291 	 14.8719 	 76.4755
| 36> H 	 40.2425 	 14.1719 	 76.857
| 37> H 	 39.5361 	 14.9753 	 75.3542
| 38> H 	 38.462 	 14.3104 	 76.6527
| 39> H 	 39.49 	 18.0565 	 83.3498
| 40> H 	 45.0195 	 16.3768 	 77.3218
| 41> *
| 42>
| 43>                          ****END OF INPUT****

CARTESIAN COORDINATES (ANGSTROEM)
---------------------------------
  S     41.293200   17.082900   81.722200
  C     39.837700   17.975000   82.299900
  C     39.172800   18.523200   81.227900
  C     39.826700   18.371900   80.025800
  C     40.998600   17.638000   80.081000
  H     39.369000   18.750600   79.156900
  C     37.838300   19.218300   81.242200
  H     37.549300   19.715500   80.339100
  H     37.742500   19.983800   82.006000
  C     36.704300   18.273600   81.629400
  H     36.657700   17.361400   80.979500
  H     36.898800   17.851600   82.624400
  C     35.398100   19.082000   81.564600
  H     35.146400   19.366400   80.592400
  H     34.736800   18.431500   82.086600
  H     35.375400   19.949200   82.216500
  S     43.657100   16.981100   79.352700
  C     44.102500   16.750600   77.706200
  C     42.951400   16.698200   76.949900
  C     41.712300   17.051800   77.613900
  C     41.964100   17.244100   78.998500
  H     43.044600   16.489300   75.894400
  C     40.429500   17.174900   76.811700
  H     40.619300   17.108300   75.787900
  H     40.124200   18.229800   77.012000
  C     39.231800   16.261900   77.130900
  H     38.268400   16.681000   76.853400
  H     39.149200   16.253500   78.197400
  C     39.429100   14.871900   76.475500
  H     40.242500   14.171900   76.857000
  H     39.536100   14.975300   75.354200
  H     38.462000   14.310400   76.652700
  H     39.490000   18.056500   83.349800
  H     45.019500   16.376800   77.321800

 Total Charge           Charge          ....    0
 Multiplicity           Mult            ....    1
 Number of Electrons    NEL             ....  134
 Basis Dimension        Dim             ....  322

ORBITAL ENERGIES
----------------

  NO   OCC          E(Eh)            E(eV)
   0   2.0000     -88.969241     -2420.9761
   1   2.0000     -88.967747     -2420.9355
   2   2.0000     -10.337577      -281.2998
   3   2.0000     -10.335828      -281.2522
   4   2.0000     -10.318107      -280.7700
   5   2.0000     -10.313122      -280.6343
   6   2.0000     -10.309790      -280.5436
   7   2.0000     -10.294730      -280.1338
   8   2.0000     -10.292875      -280.0834
   9   2.0000     -10.291698      -280.0513
  10   2.0000     -10.290317      -280.0138
  11   2.0000     -10.288976      -279.9773
  12   2.0000     -10.286925      -279.9215
  13   2.0000     -10.286506      -279.9101
  14   2.0000     -10.286440      -279.9083
  15   2.0000     -10.272492      -279.5287
  16   2.0000      -8.082836      -219.9452
  17   2.0000      -8.082643      -219.9399
  18   2.0000      -6.041459      -164.3964
  19   2.0000      -6.041238      -164.3905
  20   2.0000      -6.037515      -164.2891
  21   2.0000      -6.037010      -164.2754
  22   2.0000      -6.033547      -164.1811
  23   2.0000      -6.033417      -164.1776
  24   2.0000      -1.005135       -27.3511
  25   2.0000      -0.986017       -26.8309
  26   2.0000      -0.918125       -24.9834
  27   2.0000      -0.908957       -24.7340
  28   2.0000      -0.867822       -23.6146
  29   2.0000      -0.850352       -23.1393
  30   2.0000      -0.843569       -22.9547
  31   2.0000      -0.814302       -22.1583
  32   2.0000      -0.782973       -21.3058
  33   2.0000      -0.772791       -21.0287
  34   2.0000      -0.711667       -19.3654
  35   2.0000      -0.702908       -19.1271
  36   2.0000      -0.691202       -18.8085
  37   2.0000      -0.661009       -17.9870
  38   2.0000      -0.638250       -17.3677
  39   2.0000      -0.629306       -17.1243
  40   2.0000      -0.593517       -16.1504
  41   2.0000      -0.577575       -15.7166
  42   2.0000      -0.563649       -15.3377
  43   2.0000      -0.552031       -15.0215
  44   2.0000      -0.545583       -14.8461
  45   2.0000      -0.526201       -14.3187
  46   2.0000      -0.515138       -14.0176
  47   2.0000      -0.505279       -13.7493
  48   2.0000      -0.504690       -13.7333
  49   2.0000      -0.498846       -13.5743
  50   2.0000      -0.490827       -13.3561
  51   2.0000      -0.481025       -13.0894
  52   2.0000      -0.476746       -12.9729
  53   2.0000      -0.467150       -12.7118
  54   2.0000      -0.461481       -12.5575
  55   2.0000      -0.456818       -12.4307
  56   2.0000      -0.441032       -12.0011
  57   2.0000      -0.435344       -11.8463
  58   2.0000      -0.429268       -11.6810
  59   2.0000      -0.423750       -11.5308
  60   2.0000      -0.421388       -11.4665
  61   2.0000      -0.416736       -11.3400
  62   2.0000      -0.413136       -11.2420
  63   2.0000      -0.352510        -9.5923
  64   2.0000      -0.336366        -9.1530
  65   2.0000      -0.327543        -8.9129
  66   2.0000      -0.285343        -7.7646
  67   0.0000       0.018869         0.5134
  68   0.0000       0.079170         2.1543
  69   0.0000       0.099396         2.7047
  70   0.0000       0.125034         3.4024
  71   0.0000       0.134200         3.6518

MULLIKEN ATOMIC CHARGES
-----------------------
   0 S :    0.096927
   1 C :   -0.147362
   2 C :   -0.041851
   3 C :    0.027540
   4 C :   -0.109694
   5 H :   -0.025389
   6 C :    0.074518
   7 H :    0.008319
   8 H :    0.018830
   9 C :   -0.130613
  10 H :    0.035166
  11 H :    0.024842
  12 C :    0.010031
  13 H :    0.030032
  14 H :    0.022384
  15 H :    0.018394
  16 S :    0.110179
  17 C :   -0.068791
  18 C :   -0.057791
  19 C :   -0.047389
  20 C :   -0.131045
  21 H :    0.016122
  22 C :    0.066591
  23 H :   -0.001374
  24 H :    0.039746
  25 C :   -0.024664
  26 H :    0.020997
  27 H :    0.027994
  28 C :   -0.111781
  29 H :    0.061844
  30 H :    0.038072
  31 H :    0.039983
  32 H :    0.057423
  33 H :    0.051812
Sum of atomic charges:    0.0000000

LOEWDIN ATOMIC CHARGES
----------------------
   0 S :    0.387272
   1 C :   -0.191145
   2 C :   -0.062002
   3 C :   -0.067973
   4 C :   -0.174014
   5 H :    0.021644
   6 C :   -0.031173
   7 H :    0.023413
   8 H :    0.030783
   9 C :   -0.036023
  10 H :    0.025794
  11 H :    0.020413
  12 C :   -0.056955
  13 H :    0.018089
  14 H :    0.027287
  15 H :    0.024985
  16 S :    0.420984
  17 C :   -0.198445
  18 C :   -0.070492
  19 C :   -0.051831
  20 C :   -0.202078
  21 H :    0.027356
  22 C :   -0.030529
  23 H :    0.019279
  24 H :    0.037816
  25 C :   -0.039667
  26 H :    0.025903
  27 H :    0.022722
  28 C :   -0.081072
  29 H :    0.036280
  30 H :    0.027566
  31 H :    0.031116
  32 H :    0.035592
  33 H :    0.029103

  Mayer bond orders larger than 0.100000
B(  0-S ,  1-C ) :   1.1210 B(  0-S ,  4-C ) :   1.1653 B(  1-C ,  2-C ) :   1.5920
B(  1-C ,  4-C ) :   0.1072 B(  1-C , 32-H ) :   0.9646 B(  2-C ,  3-C ) :   1.2982
B(  2-C ,  6-C ) :   1.0150 B(  3-C ,  4-C ) :   1.5174 B(  3-C ,  5-H ) :   1.0029
B(  4-C , 20-C ) :   1.0431 B(  6-C ,  7-H ) :   0.9502 B(  6-C ,  8-H ) :   0.9356
B(  6-C ,  9-C ) :   1.0539 B(  9-C , 10-H ) :   0.9546 B(  9-C , 11-H ) :   0.9581
B(  9-C , 12-C ) :   1.0789 B( 12-C , 13-H ) :   0.9759 B( 12-C , 14-H ) :   0.9699
B( 12-C , 15-H ) :   0.9699 B( 16-S , 17-C ) :   1.1549 B( 16-S , 20-C ) :   1.1584
B( 17-C , 18-C ) :   1.6015 B( 17-C , 33-H ) :   0.9675 B( 18-C , 19-C ) :   1.2697
B( 18-C , 21-H ) :   0.9844 B( 19-C , 20-C ) :   1.5436 B( 19-C , 22-C ) :   1.0391
B( 22-C , 23-H ) :   0.9349 B( 22-C , 24-H ) :   0.9271 B( 22-C , 25-C ) :   1.0714
B( 25-C , 26-H ) :   0.9525 B( 25-C , 27-H ) :   0.9522 B( 25-C , 28-C ) :   1.0668
B( 28-C , 29-H ) :   0.9769 B( 28-C , 30-H ) :   0.9748 B( 28-C , 31-H ) :   0.9744

Dispersion correction           -0.014242726
FINAL SINGLE POINT ENERGY     -1339.870729307610

DIPOLE MOMENT
-------------
                                X             Y             Z
Electronic contribution:     29.44369      -1.04320       8.27972
Nuclear contribution   :    -30.12822       1.11872      -8.63121
                        -----------------------------------------
Total Dipole Moment    :     -0.68454       0.07552      -0.35149
                        -----------------------------------------
Magnitude (a.u.)       :      0.77320
Magnitude (Debye)      :      1.96532

Rotational constants in cm-1:     0.020164     0.008511     0.006514
Rotational constants in MHz :   604.488087   255.153897   195.293909

                             ****ORCA TERMINATED NORMALLY****
TOTAL RUN TIME: 0 days 0 hours 0 minutes 31 seconds 3 msec
