                         Program Version 4.2.1 -  RELEASE  -
|  1> ! wB97X-D3 SP def2-SVP
|  2> %pal
|  3> nprocs 16
|  4> end
|  5>
|  6> * xyz 0 1
|  7> S 	 -11.1401 	 48.8174 	 44.3073
|  8> C 	 -12.2924 	 49.079 	 43.0254
|  9> C 	 -13.1303 	 50.1807 	 43.3212
| 10> C 	 -12.7751 	 50.8514 	 44.5718
| 11> C 	 -11.6638 	 50.2375 	 45.1807
| 12> H 	 -13.2281 	 51.7128 	 44.9615
| 13> C 	 -14.3437 	 50.5604 	 42.4462
| 14> H 	 -14.8398 	 49.639 	 42.1316
| 15> H 	 -13.9076 	 51.238 	 41.6134
| 16> C 	 -15.5209 	 51.3982 	 43.1867
| 17> H 	 -15.6521 	 51.1198 	 44.1945
| 18> H 	 -15.2332 	 52.4454 	 43.214
| 19> C 	 -16.7395 	 51.3089 	 42.3283
| 20> H 	 -17.684 	 51.7504 	 42.8184
| 21> H 	 -16.6067 	 51.8035 	 41.3074
| 22> H 	 -16.9345 	 50.2498 	 42.2623
| 23> S 	 -9.28947 	 50.857 	 46.4055
| 24> C 	 -9.23469 	 51.0497 	 48.1636
| 25> C 	 -10.4309 	 50.7269 	 48.7265
| 26> C 	 -11.4605 	 50.5031 	 47.7642
| 27> C 	 -10.9971 	 50.5353 	 46.479
| 28> H 	 -10.5336 	 50.6396 	 49.7744
| 29> C 	 -12.9185 	 50.1874 	 48.241
| 30> H 	 -12.7476 	 49.6632 	 49.188
| 31> H 	 -13.418 	 49.499 	 47.4494
| 32> C 	 -13.8785 	 51.3456 	 48.3632
| 33> H 	 -13.6058 	 52.0397 	 47.5023
| 34> H 	 -13.6452 	 51.8718 	 49.3131
| 35> C 	 -15.2982 	 50.874 	 48.4393
| 36> H 	 -15.5308 	 50.2298 	 49.3478
| 37> H 	 -15.672 	 50.2568 	 47.6481
| 38> H 	 -15.8923 	 51.7664 	 48.437
| 39> H 	 -12.3317 	 48.4406 	 42.1608
| 40> H 	 -8.44242 	 51.4978 	 48.7525
| 41> *
| 42>
| 43>                          ****END OF INPUT****

CARTESIAN COORDINATES (ANGSTROEM)
---------------------------------
  S    -11.140100   48.817400   44.307300
  C    -12.292400   49.079000   43.025400
  C    -13.130300   50.180700   43.321200
  C    -12.775100   50.851400   44.571800
  C    -11.663800   50.237500   45.180700
  H    -13.228100   51.712800   44.961500
  C    -14.343700   50.560400   42.446200
  H    -14.839800   49.639000   42.131600
  H    -13.907600   51.238000   41.613400
  C    -15.520900   51.398200   43.186700
  H    -15.652100   51.119800   44.194500
  H    -15.233200   52.445400   43.214000
  C    -16.739500   51.308900   42.328300
  H    -17.684000   51.750400   42.818400
  H    -16.606700   51.803500   41.307400
  H    -16.934500   50.249800   42.262300
  S     -9.289470   50.857000   46.405500
  C     -9.234690   51.049700   48.163600
  C    -10.430900   50.726900   48.726500
  C    -11.460500   50.503100   47.764200
  C    -10.997100   50.535300   46.479000
  H    -10.533600   50.639600   49.774400
  C    -12.918500   50.187400   48.241000
  H    -12.747600   49.663200   49.188000
  H    -13.418000   49.499000   47.449400
  C    -13.878500   51.345600   48.363200
  H    -13.605800   52.039700   47.502300
  H    -13.645200   51.871800   49.313100
  C    -15.298200   50.874000   48.439300
  H    -15.530800   50.229800   49.347800
  H    -15.672000   50.256800   47.648100
  H    -15.892300   51.766400   48.437000
  H    -12.331700   48.440600   42.160800
  H     -8.442420   51.497800   48.752500

 Total Charge           Charge          ....    0
 Multiplicity           Mult            ....    1
 Number of Electrons    NEL             ....  134
 Basis Dimension        Dim             ....  322

ORBITAL ENERGIES
----------------

  NO   OCC          E(Eh)            E(eV)
   0   2.0000     -88.965893     -2420.8850
   1   2.0000     -88.964226     -2420.8397
   2   2.0000     -10.333645      -281.1928
   3   2.0000     -10.324988      -280.9572
   4   2.0000     -10.315856      -280.7087
   5   2.0000     -10.314673      -280.6765
   6   2.0000     -10.309694      -280.5410
   7   2.0000     -10.306299      -280.4487
   8   2.0000     -10.301336      -280.3136
   9   2.0000     -10.298676      -280.2412
  10   2.0000     -10.296316      -280.1770
  11   2.0000     -10.290783      -280.0264
  12   2.0000     -10.288905      -279.9753
  13   2.0000     -10.287631      -279.9407
  14   2.0000     -10.286860      -279.9197
  15   2.0000     -10.278620      -279.6955
  16   2.0000      -8.080618      -219.8848
  17   2.0000      -8.079002      -219.8408
  18   2.0000      -6.039102      -164.3323
  19   2.0000      -6.037591      -164.2912
  20   2.0000      -6.034957      -164.2195
  21   2.0000      -6.033540      -164.1810
  22   2.0000      -6.031580      -164.1276
  23   2.0000      -6.029634      -164.0747
  24   2.0000      -1.004258       -27.3272
  25   2.0000      -0.979630       -26.6571
  26   2.0000      -0.910598       -24.7786
  27   2.0000      -0.905733       -24.6463
  28   2.0000      -0.867989       -23.6192
  29   2.0000      -0.850228       -23.1359
  30   2.0000      -0.845635       -23.0109
  31   2.0000      -0.815344       -22.1866
  32   2.0000      -0.777289       -21.1511
  33   2.0000      -0.762333       -20.7441
  34   2.0000      -0.707648       -19.2561
  35   2.0000      -0.693199       -18.8629
  36   2.0000      -0.683629       -18.6025
  37   2.0000      -0.663897       -18.0656
  38   2.0000      -0.644274       -17.5316
  39   2.0000      -0.616534       -16.7768
  40   2.0000      -0.591293       -16.0899
  41   2.0000      -0.574854       -15.6426
  42   2.0000      -0.568812       -15.4782
  43   2.0000      -0.560938       -15.2639
  44   2.0000      -0.526784       -14.3345
  45   2.0000      -0.523327       -14.2405
  46   2.0000      -0.516399       -14.0519
  47   2.0000      -0.512247       -13.9389
  48   2.0000      -0.503050       -13.6887
  49   2.0000      -0.498111       -13.5543
  50   2.0000      -0.490376       -13.3438
  51   2.0000      -0.480196       -13.0668
  52   2.0000      -0.469397       -12.7729
  53   2.0000      -0.466331       -12.6895
  54   2.0000      -0.458651       -12.4805
  55   2.0000      -0.449686       -12.2366
  56   2.0000      -0.441503       -12.0139
  57   2.0000      -0.431482       -11.7412
  58   2.0000      -0.429998       -11.7008
  59   2.0000      -0.427094       -11.6218
  60   2.0000      -0.418404       -11.3853
  61   2.0000      -0.412976       -11.2376
  62   2.0000      -0.409029       -11.1302
  63   2.0000      -0.342452        -9.3186
  64   2.0000      -0.329060        -8.9542
  65   2.0000      -0.327739        -8.9182
  66   2.0000      -0.296892        -8.0788
  67   0.0000       0.038397         1.0448
  68   0.0000       0.062252         1.6940
  69   0.0000       0.114195         3.1074
  70   0.0000       0.116999         3.1837
  71   0.0000       0.129824         3.5327

MULLIKEN ATOMIC CHARGES
-----------------------
   0 S :    0.118233
   1 C :   -0.124775
   2 C :   -0.098323
   3 C :    0.055481
   4 C :   -0.143749
   5 H :   -0.003896
   6 C :    0.001815
   7 H :    0.038291
   8 H :    0.068436
   9 C :   -0.068101
  10 H :    0.028228
  11 H :    0.027731
  12 C :   -0.075864
  13 H :    0.043770
  14 H :    0.051225
  15 H :    0.027585
  16 S :    0.107734
  17 C :   -0.089447
  18 C :   -0.024182
  19 C :   -0.012791
  20 C :   -0.191394
  21 H :    0.005200
  22 C :    0.023299
  23 H :    0.027039
  24 H :    0.041903
  25 C :   -0.069333
  26 H :    0.041997
  27 H :    0.029844
  28 C :   -0.039376
  29 H :    0.038591
  30 H :    0.026005
  31 H :    0.031762
  32 H :    0.047790
  33 H :    0.059272
Sum of atomic charges:    0.0000000

LOEWDIN ATOMIC CHARGES
----------------------
   0 S :    0.417183
   1 C :   -0.206980
   2 C :   -0.061499
   3 C :   -0.061417
   4 C :   -0.191238
   5 H :    0.021821
   6 C :   -0.034098
   7 H :    0.029156
   8 H :    0.049177
   9 C :   -0.044122
  10 H :    0.016633
  11 H :    0.021938
  12 C :   -0.073260
  13 H :    0.033861
  14 H :    0.036082
  15 H :    0.019874
  16 S :    0.401660
  17 C :   -0.177791
  18 C :   -0.067679
  19 C :   -0.058021
  20 C :   -0.209251
  21 H :    0.025817
  22 C :   -0.035608
  23 H :    0.027889
  24 H :    0.039071
  25 C :   -0.050673
  26 H :    0.031553
  27 H :    0.028130
  28 C :   -0.069211
  29 H :    0.036278
  30 H :    0.020078
  31 H :    0.026398
  32 H :    0.025219
  33 H :    0.033028

  Mayer bond orders larger than 0.100000
B(  0-S ,  1-C ) :   1.1426 B(  0-S ,  4-C ) :   1.1827 B(  1-C ,  2-C ) :   1.5945
B(  1-C ,  4-C ) :   0.1009 B(  1-C , 32-H ) :   0.9774 B(  2-C ,  3-C ) :   1.2435
B(  2-C ,  6-C ) :   1.0051 B(  3-C ,  4-C ) :   1.5547 B(  3-C ,  5-H ) :   1.0046
B(  4-C , 20-C ) :   0.9915 B(  6-C ,  7-H ) :   0.9595 B(  6-C ,  8-H ) :   0.9347
B(  6-C ,  9-C ) :   1.0621 B(  9-C , 10-H ) :   0.9598 B(  9-C , 11-H ) :   0.9479
B(  9-C , 12-C ) :   1.0894 B( 12-C , 13-H ) :   0.9698 B( 12-C , 14-H ) :   0.9711
B( 12-C , 15-H ) :   0.9765 B( 16-S , 17-C ) :   1.1413 B( 16-S , 20-C ) :   1.1439
B( 17-C , 18-C ) :   1.6303 B( 17-C , 33-H ) :   0.9649 B( 18-C , 19-C ) :   1.2338
B( 18-C , 21-H ) :   0.9932 B( 19-C , 20-C ) :   1.6253 B( 19-C , 22-C ) :   1.0263
B( 22-C , 23-H ) :   0.9347 B( 22-C , 24-H ) :   0.9399 B( 22-C , 25-C ) :   1.0661
B( 25-C , 26-H ) :   0.9529 B( 25-C , 27-H ) :   0.9450 B( 25-C , 28-C ) :   1.0867
B( 28-C , 29-H ) :   0.9689 B( 28-C , 30-H ) :   0.9731 B( 28-C , 31-H ) :   0.9714

Dispersion correction           -0.014146590
FINAL SINGLE POINT ENERGY     -1339.869867261920

DIPOLE MOMENT
-------------
                                X             Y             Z
Electronic contribution:     31.65709      -7.19811      -0.46793
Nuclear contribution   :    -32.29264       7.38492       0.69203
                        -----------------------------------------
Total Dipole Moment    :     -0.63555       0.18681       0.22409
                        -----------------------------------------
Magnitude (a.u.)       :      0.69931
Magnitude (Debye)      :      1.77751

Rotational constants in cm-1:     0.017797     0.009063     0.006602
Rotational constants in MHz :   533.528301   271.691682   197.916149

                             ****ORCA TERMINATED NORMALLY****
TOTAL RUN TIME: 0 days 0 hours 0 minutes 33 seconds 342 msec
