                         Program Version 4.2.1 -  RELEASE  -
|  1> ! wB97X-D3 SP def2-SVP
|  2> %pal
|  3> nprocs 16
|  4> end
|  5>
|  6> * xyz 0 1
|  7> S 	 4.88876 	 15.2733 	 48.5854
|  8> C 	 4.25297 	 14.2637 	 47.3289
|  9> C 	 2.89282 	 14.6746 	 47.0731
| 10> C 	 2.46742 	 15.8397 	 47.7749
| 11> C 	 3.4886 	 16.3569 	 48.5909
| 12> H 	 1.51293 	 16.3163 	 47.7994
| 13> C 	 1.84345 	 13.8366 	 46.2691
| 14> H 	 1.06788 	 13.5139 	 47.0368
| 15> H 	 2.31751 	 12.9221 	 45.9265
| 16> C 	 1.1408 	 14.6183 	 45.0161
| 17> H 	 0.724179 	 15.5279 	 45.4012
| 18> H 	 1.97489 	 14.8072 	 44.2571
| 19> C 	 0.0163618 	 13.8201 	 44.2206
| 20> H 	 -0.341785 	 14.3883 	 43.3674
| 21> H 	 0.545169 	 12.9768 	 43.8065
| 22> H 	 -0.83415 	 13.5296 	 44.8246
| 23> S 	 2.838 	 17.7878 	 50.8834
| 24> C 	 3.06708 	 19.5071 	 50.8683
| 25> C 	 3.64234 	 19.936 	 49.6945
| 26> C 	 3.86119 	 18.8694 	 48.7308
| 27> C 	 3.52426 	 17.6458 	 49.2503
| 28> H 	 4.04009 	 20.9046 	 49.5153
| 29> C 	 4.52031 	 19.1704 	 47.3855
| 30> H 	 5.51178 	 18.7663 	 47.2708
| 31> H 	 4.78032 	 20.2626 	 47.4029
| 32> C 	 3.6962 	 18.9801 	 46.0836
| 33> H 	 2.59142 	 19.2405 	 46.142
| 34> H 	 3.80269 	 17.9456 	 45.8724
| 35> C 	 4.401 	 19.6436 	 44.9379
| 36> H 	 3.92422 	 19.5302 	 43.9817
| 37> H 	 5.41441 	 19.24 	 44.8715
| 38> H 	 4.42098 	 20.7723 	 45.049
| 39> H 	 4.64908 	 13.3022 	 47.0184
| 40> H 	 2.94655 	 20.1882 	 51.6457
| 41> *
| 42>
| 43>                          ****END OF INPUT****

CARTESIAN COORDINATES (ANGSTROEM)
---------------------------------
  S      4.888760   15.273300   48.585400
  C      4.252970   14.263700   47.328900
  C      2.892820   14.674600   47.073100
  C      2.467420   15.839700   47.774900
  C      3.488600   16.356900   48.590900
  H      1.512930   16.316300   47.799400
  C      1.843450   13.836600   46.269100
  H      1.067880   13.513900   47.036800
  H      2.317510   12.922100   45.926500
  C      1.140800   14.618300   45.016100
  H      0.724179   15.527900   45.401200
  H      1.974890   14.807200   44.257100
  C      0.016362   13.820100   44.220600
  H     -0.341785   14.388300   43.367400
  H      0.545169   12.976800   43.806500
  H     -0.834150   13.529600   44.824600
  S      2.838000   17.787800   50.883400
  C      3.067080   19.507100   50.868300
  C      3.642340   19.936000   49.694500
  C      3.861190   18.869400   48.730800
  C      3.524260   17.645800   49.250300
  H      4.040090   20.904600   49.515300
  C      4.520310   19.170400   47.385500
  H      5.511780   18.766300   47.270800
  H      4.780320   20.262600   47.402900
  C      3.696200   18.980100   46.083600
  H      2.591420   19.240500   46.142000
  H      3.802690   17.945600   45.872400
  C      4.401000   19.643600   44.937900
  H      3.924220   19.530200   43.981700
  H      5.414410   19.240000   44.871500
  H      4.420980   20.772300   45.049000
  H      4.649080   13.302200   47.018400
  H      2.946550   20.188200   51.645700

 Total Charge           Charge          ....    0
 Multiplicity           Mult            ....    1
 Number of Electrons    NEL             ....  134
 Basis Dimension        Dim             ....  322

ORBITAL ENERGIES
----------------

  NO   OCC          E(Eh)            E(eV)
   0   2.0000     -88.969129     -2420.9731
   1   2.0000     -88.966433     -2420.8997
   2   2.0000     -10.330571      -281.1091
   3   2.0000     -10.324239      -280.9368
   4   2.0000     -10.321477      -280.8617
   5   2.0000     -10.313043      -280.6322
   6   2.0000     -10.311546      -280.5914
   7   2.0000     -10.304519      -280.4002
   8   2.0000     -10.304112      -280.3891
   9   2.0000     -10.300346      -280.2867
  10   2.0000     -10.297177      -280.2004
  11   2.0000     -10.293058      -280.0884
  12   2.0000     -10.290780      -280.0264
  13   2.0000     -10.282405      -279.7985
  14   2.0000     -10.280664      -279.7511
  15   2.0000     -10.276274      -279.6316
  16   2.0000      -8.083278      -219.9572
  17   2.0000      -8.080974      -219.8945
  18   2.0000      -6.041691      -164.4028
  19   2.0000      -6.039561      -164.3448
  20   2.0000      -6.037637      -164.2925
  21   2.0000      -6.035511      -164.2346
  22   2.0000      -6.034402      -164.2044
  23   2.0000      -6.031662      -164.1299
  24   2.0000      -1.002325       -27.2747
  25   2.0000      -0.979323       -26.6487
  26   2.0000      -0.907725       -24.7005
  27   2.0000      -0.890027       -24.2189
  28   2.0000      -0.867263       -23.5994
  29   2.0000      -0.851396       -23.1677
  30   2.0000      -0.845048       -22.9949
  31   2.0000      -0.811676       -22.0868
  32   2.0000      -0.777960       -21.1694
  33   2.0000      -0.764924       -20.8146
  34   2.0000      -0.707053       -19.2399
  35   2.0000      -0.694973       -18.9112
  36   2.0000      -0.687024       -18.6949
  37   2.0000      -0.664568       -18.0838
  38   2.0000      -0.643983       -17.5237
  39   2.0000      -0.614649       -16.7254
  40   2.0000      -0.598474       -16.2853
  41   2.0000      -0.563550       -15.3350
  42   2.0000      -0.558569       -15.1994
  43   2.0000      -0.557627       -15.1738
  44   2.0000      -0.523233       -14.2379
  45   2.0000      -0.519193       -14.1280
  46   2.0000      -0.515168       -14.0184
  47   2.0000      -0.509811       -13.8727
  48   2.0000      -0.507322       -13.8049
  49   2.0000      -0.497399       -13.5349
  50   2.0000      -0.493753       -13.4357
  51   2.0000      -0.474603       -12.9146
  52   2.0000      -0.466067       -12.6823
  53   2.0000      -0.461554       -12.5595
  54   2.0000      -0.455607       -12.3977
  55   2.0000      -0.450939       -12.2707
  56   2.0000      -0.445498       -12.1226
  57   2.0000      -0.436132       -11.8677
  58   2.0000      -0.432660       -11.7733
  59   2.0000      -0.423960       -11.5365
  60   2.0000      -0.420013       -11.4291
  61   2.0000      -0.414872       -11.2892
  62   2.0000      -0.404763       -11.0142
  63   2.0000      -0.336976        -9.1696
  64   2.0000      -0.329218        -8.9585
  65   2.0000      -0.319046        -8.6817
  66   2.0000      -0.309045        -8.4095
  67   0.0000       0.040508         1.1023
  68   0.0000       0.049590         1.3494
  69   0.0000       0.107777         2.9328
  70   0.0000       0.118299         3.2191
  71   0.0000       0.130544         3.5523

MULLIKEN ATOMIC CHARGES
-----------------------
   0 S :    0.121597
   1 C :   -0.108512
   2 C :   -0.112339
   3 C :    0.075355
   4 C :   -0.193835
   5 H :    0.015342
   6 C :    0.028137
   7 H :    0.051948
   8 H :    0.013860
   9 C :   -0.112173
  10 H :    0.033400
  11 H :    0.048122
  12 C :   -0.045592
  13 H :    0.037625
  14 H :    0.028753
  15 H :    0.039429
  16 S :    0.113311
  17 C :   -0.049397
  18 C :   -0.026120
  19 C :    0.000512
  20 C :   -0.188457
  21 H :    0.009467
  22 C :    0.041605
  23 H :    0.031990
  24 H :    0.003556
  25 C :   -0.055777
  26 H :    0.044084
  27 H :    0.035930
  28 C :   -0.063739
  29 H :    0.028781
  30 H :    0.031869
  31 H :    0.030224
  32 H :    0.057982
  33 H :    0.033060
Sum of atomic charges:   -0.0000000

LOEWDIN ATOMIC CHARGES
----------------------
   0 S :    0.419089
   1 C :   -0.216254
   2 C :   -0.063231
   3 C :   -0.051194
   4 C :   -0.196039
   5 H :    0.032487
   6 C :   -0.036673
   7 H :    0.038920
   8 H :    0.020781
   9 C :   -0.038430
  10 H :    0.014256
  11 H :    0.033952
  12 C :   -0.066236
  13 H :    0.028067
  14 H :    0.023791
  15 H :    0.023590
  16 S :    0.402799
  17 C :   -0.179247
  18 C :   -0.065010
  19 C :   -0.046273
  20 C :   -0.203483
  21 H :    0.024833
  22 C :   -0.032658
  23 H :    0.031870
  24 H :    0.028904
  25 C :   -0.043361
  26 H :    0.032320
  27 H :    0.023768
  28 C :   -0.067920
  29 H :    0.022746
  30 H :    0.026922
  31 H :    0.025841
  32 H :    0.031021
  33 H :    0.020052

  Mayer bond orders larger than 0.100000
B(  0-S ,  1-C ) :   1.1607 B(  0-S ,  4-C ) :   1.1708 B(  1-C ,  2-C ) :   1.5571
B(  1-C ,  4-C ) :   0.1155 B(  1-C , 32-H ) :   0.9677 B(  2-C ,  3-C ) :   1.2606
B(  2-C ,  6-C ) :   1.0234 B(  3-C ,  4-C ) :   1.5532 B(  3-C ,  5-H ) :   0.9978
B(  4-C , 20-C ) :   1.0088 B(  6-C ,  7-H ) :   0.9488 B(  6-C ,  8-H ) :   0.9479
B(  6-C ,  9-C ) :   1.0354 B(  9-C , 10-H ) :   0.9645 B(  9-C , 11-H ) :   0.9600
B(  9-C , 12-C ) :   1.0732 B( 12-C , 13-H ) :   0.9762 B( 12-C , 14-H ) :   0.9778
B( 12-C , 15-H ) :   0.9782 B( 16-S , 17-C ) :   1.1504 B( 16-S , 20-C ) :   1.1273
B( 17-C , 18-C ) :   1.6230 B( 17-C , 33-H ) :   0.9695 B( 18-C , 19-C ) :   1.2455
B( 18-C , 21-H ) :   0.9844 B( 19-C , 20-C ) :   1.6333 B( 19-C , 22-C ) :   1.0289
B( 22-C , 23-H ) :   0.9332 B( 22-C , 24-H ) :   0.9400 B( 22-C , 25-C ) :   1.0532
B( 25-C , 26-H ) :   0.9582 B( 25-C , 27-H ) :   0.9483 B( 25-C , 28-C ) :   1.0903
B( 28-C , 29-H ) :   0.9719 B( 28-C , 30-H ) :   0.9705 B( 28-C , 31-H ) :   0.9731

Dispersion correction           -0.014461371
FINAL SINGLE POINT ENERGY     -1339.869697050897

DIPOLE MOMENT
-------------
                                X             Y             Z
Electronic contribution:      8.55989      -1.02017      28.57004
Nuclear contribution   :     -8.73839       1.10260     -29.05033
                        -----------------------------------------
Total Dipole Moment    :     -0.17850       0.08243      -0.48029
                        -----------------------------------------
Magnitude (a.u.)       :      0.51898
Magnitude (Debye)      :      1.31913

Rotational constants in cm-1:     0.016997     0.008478     0.007185
Rotational constants in MHz :   509.571027   254.155944   215.403029

                             ****ORCA TERMINATED NORMALLY****
TOTAL RUN TIME: 0 days 0 hours 0 minutes 33 seconds 54 msec
