                         Program Version 4.2.1 -  RELEASE  -
|  1> ! wB97X-D3 SP def2-SVP
|  2> %pal
|  3> nprocs 16
|  4> end
|  5>
|  6> * xyz 0 1
|  7> S 	 -32.1061 	 66.9932 	 103.288
|  8> C 	 -30.492 	 66.2918 	 103.293
|  9> C 	 -29.4767 	 67.219 	 103.422
| 10> C 	 -29.9953 	 68.5194 	 103.387
| 11> C 	 -31.3641 	 68.6093 	 103.222
| 12> H 	 -29.4929 	 69.4625 	 103.562
| 13> C 	 -27.9733 	 66.8998 	 103.583
| 14> H 	 -27.8598 	 65.875 	 103.524
| 15> H 	 -27.7911 	 67.074 	 104.622
| 16> C 	 -26.9641 	 67.5417 	 102.688
| 17> H 	 -27.0196 	 68.676 	 102.846
| 18> H 	 -25.9423 	 67.2098 	 102.939
| 19> C 	 -27.1598 	 67.2048 	 101.224
| 20> H 	 -27.5322 	 66.1973 	 101.083
| 21> H 	 -27.9653 	 67.7879 	 100.802
| 22> H 	 -26.216 	 67.3989 	 100.697
| 23> S 	 -33.5391 	 69.7753 	 104.458
| 24> C 	 -33.9976 	 71.3674 	 104.019
| 25> C 	 -33.0083 	 72.0508 	 103.401
| 26> C 	 -32.017 	 71.1726 	 102.912
| 27> C 	 -32.1654 	 69.863 	 103.418
| 28> H 	 -33.0943 	 73.1414 	 103.192
| 29> C 	 -30.9432 	 71.4894 	 101.865
| 30> H 	 -30.2129 	 70.6858 	 101.713
| 31> H 	 -30.3347 	 72.3705 	 102.123
| 32> C 	 -31.4415 	 72.0063 	 100.517
| 33> H 	 -30.5754 	 72.5498 	 100.011
| 34> H 	 -32.1846 	 72.7753 	 100.695
| 35> C 	 -31.9124 	 70.9108 	 99.5562
| 36> H 	 -31.0724 	 70.2351 	 99.2752
| 37> H 	 -32.3885 	 71.2843 	 98.6781
| 38> H 	 -32.5918 	 70.2602 	 100.112
| 39> H 	 -30.2516 	 65.2666 	 103.205
| 40> H 	 -34.8022 	 71.8297 	 104.58
| 41> *
| 42>
| 43>                          ****END OF INPUT****

CARTESIAN COORDINATES (ANGSTROEM)
---------------------------------
  S    -32.106100   66.993200  103.288000
  C    -30.492000   66.291800  103.293000
  C    -29.476700   67.219000  103.422000
  C    -29.995300   68.519400  103.387000
  C    -31.364100   68.609300  103.222000
  H    -29.492900   69.462500  103.562000
  C    -27.973300   66.899800  103.583000
  H    -27.859800   65.875000  103.524000
  H    -27.791100   67.074000  104.622000
  C    -26.964100   67.541700  102.688000
  H    -27.019600   68.676000  102.846000
  H    -25.942300   67.209800  102.939000
  C    -27.159800   67.204800  101.224000
  H    -27.532200   66.197300  101.083000
  H    -27.965300   67.787900  100.802000
  H    -26.216000   67.398900  100.697000
  S    -33.539100   69.775300  104.458000
  C    -33.997600   71.367400  104.019000
  C    -33.008300   72.050800  103.401000
  C    -32.017000   71.172600  102.912000
  C    -32.165400   69.863000  103.418000
  H    -33.094300   73.141400  103.192000
  C    -30.943200   71.489400  101.865000
  H    -30.212900   70.685800  101.713000
  H    -30.334700   72.370500  102.123000
  C    -31.441500   72.006300  100.517000
  H    -30.575400   72.549800  100.011000
  H    -32.184600   72.775300  100.695000
  C    -31.912400   70.910800   99.556200
  H    -31.072400   70.235100   99.275200
  H    -32.388500   71.284300   98.678100
  H    -32.591800   70.260200  100.112000
  H    -30.251600   65.266600  103.205000
  H    -34.802200   71.829700  104.580000

 Total Charge           Charge          ....    0
 Multiplicity           Mult            ....    1
 Number of Electrons    NEL             ....  134
 Basis Dimension        Dim             ....  322

ORBITAL ENERGIES
----------------

  NO   OCC          E(Eh)            E(eV)
   0   2.0000     -88.971358     -2421.0337
   1   2.0000     -88.964406     -2420.8446
   2   2.0000     -10.333749      -281.1956
   3   2.0000     -10.328998      -281.0663
   4   2.0000     -10.313613      -280.6477
   5   2.0000     -10.310822      -280.5717
   6   2.0000     -10.305780      -280.4345
   7   2.0000     -10.302475      -280.3446
   8   2.0000     -10.296784      -280.1897
   9   2.0000     -10.292127      -280.0630
  10   2.0000     -10.291862      -280.0558
  11   2.0000     -10.290519      -280.0193
  12   2.0000     -10.285807      -279.8910
  13   2.0000     -10.285685      -279.8877
  14   2.0000     -10.273888      -279.5667
  15   2.0000     -10.269315      -279.4423
  16   2.0000      -8.085180      -220.0089
  17   2.0000      -8.080543      -219.8828
  18   2.0000      -6.043754      -164.4589
  19   2.0000      -6.039977      -164.3561
  20   2.0000      -6.038793      -164.3239
  21   2.0000      -6.035756      -164.2413
  22   2.0000      -6.034903      -164.2181
  23   2.0000      -6.031445      -164.1240
  24   2.0000      -1.011157       -27.5150
  25   2.0000      -0.989500       -26.9257
  26   2.0000      -0.917739       -24.9729
  27   2.0000      -0.907363       -24.6906
  28   2.0000      -0.869581       -23.6625
  29   2.0000      -0.851522       -23.1711
  30   2.0000      -0.845737       -23.0137
  31   2.0000      -0.816676       -22.2229
  32   2.0000      -0.787986       -21.4422
  33   2.0000      -0.775795       -21.1104
  34   2.0000      -0.704739       -19.1769
  35   2.0000      -0.693785       -18.8789
  36   2.0000      -0.691118       -18.8063
  37   2.0000      -0.652240       -17.7484
  38   2.0000      -0.641342       -17.4518
  39   2.0000      -0.624526       -16.9942
  40   2.0000      -0.603087       -16.4108
  41   2.0000      -0.567598       -15.4451
  42   2.0000      -0.559863       -15.2346
  43   2.0000      -0.548757       -14.9324
  44   2.0000      -0.547026       -14.8853
  45   2.0000      -0.535523       -14.5723
  46   2.0000      -0.517496       -14.0818
  47   2.0000      -0.509091       -13.8531
  48   2.0000      -0.498147       -13.5553
  49   2.0000      -0.492593       -13.4041
  50   2.0000      -0.488795       -13.3008
  51   2.0000      -0.480857       -13.0848
  52   2.0000      -0.472078       -12.8459
  53   2.0000      -0.468199       -12.7404
  54   2.0000      -0.459584       -12.5059
  55   2.0000      -0.449198       -12.2233
  56   2.0000      -0.444078       -12.0840
  57   2.0000      -0.441230       -12.0065
  58   2.0000      -0.431258       -11.7351
  59   2.0000      -0.427543       -11.6340
  60   2.0000      -0.423941       -11.5360
  61   2.0000      -0.415373       -11.3029
  62   2.0000      -0.403838       -10.9890
  63   2.0000      -0.354229        -9.6391
  64   2.0000      -0.335360        -9.1256
  65   2.0000      -0.332434        -9.0460
  66   2.0000      -0.288043        -7.8380
  67   0.0000       0.025583         0.6961
  68   0.0000       0.073858         2.0098
  69   0.0000       0.102350         2.7851
  70   0.0000       0.120530         3.2798
  71   0.0000       0.133933         3.6445

MULLIKEN ATOMIC CHARGES
-----------------------
   0 S :    0.109673
   1 C :   -0.101558
   2 C :   -0.099944
   3 C :    0.008309
   4 C :   -0.134764
   5 H :    0.023348
   6 C :    0.133250
   7 H :   -0.015893
   8 H :    0.031004
   9 C :   -0.090531
  10 H :    0.037911
  11 H :    0.032827
  12 C :   -0.039969
  13 H :    0.022189
  14 H :    0.032340
  15 H :    0.042627
  16 S :    0.104480
  17 C :   -0.092887
  18 C :   -0.045670
  19 C :   -0.030073
  20 C :   -0.160034
  21 H :    0.041044
  22 C :    0.051196
  23 H :    0.019682
  24 H :    0.024327
  25 C :   -0.102996
  26 H :    0.029172
  27 H :    0.022429
  28 C :   -0.030092
  29 H :    0.029139
  30 H :    0.032500
  31 H :    0.031053
  32 H :    0.027170
  33 H :    0.058740
Sum of atomic charges:    0.0000000

LOEWDIN ATOMIC CHARGES
----------------------
   0 S :    0.391022
   1 C :   -0.185768
   2 C :   -0.060020
   3 C :   -0.062675
   4 C :   -0.183500
   5 H :    0.032673
   6 C :   -0.026971
   7 H :    0.017851
   8 H :    0.035340
   9 C :   -0.045769
  10 H :    0.029089
  11 H :    0.028465
  12 C :   -0.065700
  13 H :    0.023860
  14 H :    0.025898
  15 H :    0.030360
  16 S :    0.425890
  17 C :   -0.195111
  18 C :   -0.073222
  19 C :   -0.062236
  20 C :   -0.201733
  21 H :    0.042194
  22 C :   -0.039340
  23 H :    0.028029
  24 H :    0.036016
  25 C :   -0.043483
  26 H :    0.026666
  27 H :    0.018292
  28 C :   -0.067595
  29 H :    0.028774
  30 H :    0.020398
  31 H :    0.026734
  32 H :    0.019421
  33 H :    0.026150

  Mayer bond orders larger than 0.100000
B(  0-S ,  1-C ) :   1.1353 B(  0-S ,  4-C ) :   1.1409 B(  1-C ,  2-C ) :   1.6201
B(  1-C , 32-H ) :   0.9647 B(  2-C ,  3-C ) :   1.2439 B(  2-C ,  6-C ) :   1.0065
B(  3-C ,  4-C ) :   1.5737 B(  3-C ,  5-H ) :   0.9877 B(  4-C , 20-C ) :   1.0317
B(  6-C ,  7-H ) :   0.9270 B(  6-C ,  8-H ) :   0.9299 B(  6-C ,  9-C ) :   1.0865
B(  9-C , 10-H ) :   0.9518 B(  9-C , 11-H ) :   0.9543 B(  9-C , 12-C ) :   1.0728
B( 12-C , 13-H ) :   0.9749 B( 12-C , 14-H ) :   0.9710 B( 12-C , 15-H ) :   0.9756
B( 16-S , 17-C ) :   1.1688 B( 16-S , 20-C ) :   1.1630 B( 17-C , 18-C ) :   1.6035
B( 17-C , 33-H ) :   0.9621 B( 18-C , 19-C ) :   1.2580 B( 18-C , 21-H ) :   0.9814
B( 19-C , 20-C ) :   1.5720 B( 19-C , 22-C ) :   1.0467 B( 22-C , 23-H ) :   0.9380
B( 22-C , 24-H ) :   0.9314 B( 22-C , 25-C ) :   1.0676 B( 25-C , 26-H ) :   0.9570
B( 25-C , 27-H ) :   0.9549 B( 25-C , 28-C ) :   1.0761 B( 28-C , 29-H ) :   0.9721
B( 28-C , 30-H ) :   0.9750 B( 28-C , 31-H ) :   0.9772

Dispersion correction           -0.014642124
FINAL SINGLE POINT ENERGY     -1339.878668901853

DIPOLE MOMENT
-------------
                                X             Y             Z
Electronic contribution:    -21.27578      -5.34406      17.07578
Nuclear contribution   :     21.84531       5.56830     -17.08392
                        -----------------------------------------
Total Dipole Moment    :      0.56953       0.22424      -0.00814
                        -----------------------------------------
Magnitude (a.u.)       :      0.61214
Magnitude (Debye)      :      1.55593

Rotational constants in cm-1:     0.018699     0.009279     0.007221
Rotational constants in MHz :   560.591702   278.174777   216.486454

                             ****ORCA TERMINATED NORMALLY****
TOTAL RUN TIME: 0 days 0 hours 0 minutes 30 seconds 780 msec
