                         Program Version 4.2.1 -  RELEASE  -
|  1> ! wB97X-D3 SP def2-SVP
|  2> %pal
|  3> nprocs 16
|  4> end
|  5>
|  6> * xyz 0 1
|  7> S 	 -10.3252 	 76.1134 	 46.9188
|  8> C 	 -11.7268 	 77.0743 	 47.3217
|  9> C 	 -12.7376 	 76.333 	 47.7796
| 10> C 	 -12.3219 	 74.9749 	 47.9641
| 11> C 	 -10.9967 	 74.6809 	 47.572
| 12> H 	 -12.8904 	 74.2116 	 48.4301
| 13> C 	 -13.9351 	 76.9359 	 48.489
| 14> H 	 -13.6107 	 77.8719 	 48.9341
| 15> H 	 -14.1065 	 76.3239 	 49.3682
| 16> C 	 -15.1999 	 76.923 	 47.5857
| 17> H 	 -14.9495 	 77.3434 	 46.6403
| 18> H 	 -15.4009 	 75.8745 	 47.364
| 19> C 	 -16.4611 	 77.6592 	 48.2767
| 20> H 	 -16.298 	 78.6825 	 48.6934
| 21> H 	 -17.3684 	 77.5264 	 47.6214
| 22> H 	 -16.8334 	 77.0842 	 49.1144
| 23> S 	 -8.64598 	 73.5876 	 48.6399
| 24> C 	 -8.66609 	 71.8363 	 48.8306
| 25> C 	 -9.80649 	 71.3034 	 48.3192
| 26> C 	 -10.7637 	 72.213 	 47.8494
| 27> C 	 -10.2731 	 73.4931 	 47.9326
| 28> H 	 -9.83628 	 70.2126 	 48.0492
| 29> C 	 -12.0475 	 71.7138 	 47.2603
| 30> H 	 -11.8152 	 71.0664 	 46.4462
| 31> H 	 -12.6847 	 72.4957 	 46.8233
| 32> C 	 -12.8993 	 70.9601 	 48.3654
| 33> H 	 -13.0867 	 71.6211 	 49.2152
| 34> H 	 -12.1852 	 70.1663 	 48.6706
| 35> C 	 -14.0809 	 70.273 	 47.7966
| 36> H 	 -13.7584 	 69.6245 	 46.938
| 37> H 	 -14.7916 	 71.1055 	 47.4775
| 38> H 	 -14.5762 	 69.6695 	 48.4772
| 39> H 	 -11.7945 	 78.198 	 47.2494
| 40> H 	 -7.78697 	 71.3056 	 49.0933
| 41> *
| 42>
| 43>                          ****END OF INPUT****

CARTESIAN COORDINATES (ANGSTROEM)
---------------------------------
  S    -10.325200   76.113400   46.918800
  C    -11.726800   77.074300   47.321700
  C    -12.737600   76.333000   47.779600
  C    -12.321900   74.974900   47.964100
  C    -10.996700   74.680900   47.572000
  H    -12.890400   74.211600   48.430100
  C    -13.935100   76.935900   48.489000
  H    -13.610700   77.871900   48.934100
  H    -14.106500   76.323900   49.368200
  C    -15.199900   76.923000   47.585700
  H    -14.949500   77.343400   46.640300
  H    -15.400900   75.874500   47.364000
  C    -16.461100   77.659200   48.276700
  H    -16.298000   78.682500   48.693400
  H    -17.368400   77.526400   47.621400
  H    -16.833400   77.084200   49.114400
  S     -8.645980   73.587600   48.639900
  C     -8.666090   71.836300   48.830600
  C     -9.806490   71.303400   48.319200
  C    -10.763700   72.213000   47.849400
  C    -10.273100   73.493100   47.932600
  H     -9.836280   70.212600   48.049200
  C    -12.047500   71.713800   47.260300
  H    -11.815200   71.066400   46.446200
  H    -12.684700   72.495700   46.823300
  C    -12.899300   70.960100   48.365400
  H    -13.086700   71.621100   49.215200
  H    -12.185200   70.166300   48.670600
  C    -14.080900   70.273000   47.796600
  H    -13.758400   69.624500   46.938000
  H    -14.791600   71.105500   47.477500
  H    -14.576200   69.669500   48.477200
  H    -11.794500   78.198000   47.249400
  H     -7.786970   71.305600   49.093300

 Total Charge           Charge          ....    0
 Multiplicity           Mult            ....    1
 Number of Electrons    NEL             ....  134
 Basis Dimension        Dim             ....  322

ORBITAL ENERGIES
----------------

  NO   OCC          E(Eh)            E(eV)
   0   2.0000     -88.966732     -2420.9078
   1   2.0000     -88.963506     -2420.8201
   2   2.0000     -10.326746      -281.0050
   3   2.0000     -10.324869      -280.9540
   4   2.0000     -10.314401      -280.6691
   5   2.0000     -10.311376      -280.5868
   6   2.0000     -10.297452      -280.2079
   7   2.0000     -10.293488      -280.1000
   8   2.0000     -10.293222      -280.0928
   9   2.0000     -10.292765      -280.0804
  10   2.0000     -10.291621      -280.0493
  11   2.0000     -10.291372      -280.0425
  12   2.0000     -10.291214      -280.0382
  13   2.0000     -10.289956      -280.0039
  14   2.0000     -10.288579      -279.9665
  15   2.0000     -10.280196      -279.7384
  16   2.0000      -8.081065      -219.8970
  17   2.0000      -8.079075      -219.8428
  18   2.0000      -6.039615      -164.3463
  19   2.0000      -6.037563      -164.2904
  20   2.0000      -6.035826      -164.2432
  21   2.0000      -6.033411      -164.1775
  22   2.0000      -6.031604      -164.1283
  23   2.0000      -6.029868      -164.0811
  24   2.0000      -1.011479       -27.5237
  25   2.0000      -0.989431       -26.9238
  26   2.0000      -0.913711       -24.8633
  27   2.0000      -0.908557       -24.7231
  28   2.0000      -0.870009       -23.6742
  29   2.0000      -0.858046       -23.3486
  30   2.0000      -0.841046       -22.8860
  31   2.0000      -0.810332       -22.0503
  32   2.0000      -0.783809       -21.3285
  33   2.0000      -0.774482       -21.0747
  34   2.0000      -0.710772       -19.3411
  35   2.0000      -0.703179       -19.1345
  36   2.0000      -0.696249       -18.9459
  37   2.0000      -0.662188       -18.0190
  38   2.0000      -0.635971       -17.3057
  39   2.0000      -0.618196       -16.8220
  40   2.0000      -0.602687       -16.3999
  41   2.0000      -0.571432       -15.5495
  42   2.0000      -0.566019       -15.4022
  43   2.0000      -0.549522       -14.9532
  44   2.0000      -0.530135       -14.4257
  45   2.0000      -0.525200       -14.2914
  46   2.0000      -0.520119       -14.1532
  47   2.0000      -0.516725       -14.0608
  48   2.0000      -0.501221       -13.6389
  49   2.0000      -0.496053       -13.4983
  50   2.0000      -0.492988       -13.4149
  51   2.0000      -0.479521       -13.0484
  52   2.0000      -0.467531       -12.7222
  53   2.0000      -0.465940       -12.6789
  54   2.0000      -0.458385       -12.4733
  55   2.0000      -0.455325       -12.3900
  56   2.0000      -0.447228       -12.1697
  57   2.0000      -0.440980       -11.9997
  58   2.0000      -0.437082       -11.8936
  59   2.0000      -0.428390       -11.6571
  60   2.0000      -0.420036       -11.4298
  61   2.0000      -0.414372       -11.2756
  62   2.0000      -0.409086       -11.1318
  63   2.0000      -0.352990        -9.6053
  64   2.0000      -0.333772        -9.0824
  65   2.0000      -0.329918        -8.9775
  66   2.0000      -0.287150        -7.8137
  67   0.0000       0.025321         0.6890
  68   0.0000       0.078686         2.1411
  69   0.0000       0.115822         3.1517
  70   0.0000       0.122452         3.3321
  71   0.0000       0.125734         3.4214

MULLIKEN ATOMIC CHARGES
-----------------------
   0 S :    0.106450
   1 C :   -0.156211
   2 C :   -0.052593
   3 C :    0.021685
   4 C :   -0.162669
   5 H :   -0.012281
   6 C :    0.049275
   7 H :    0.021668
   8 H :    0.019302
   9 C :   -0.051812
  10 H :    0.027368
  11 H :    0.026253
  12 C :   -0.064455
  13 H :    0.052040
  14 H :    0.040368
  15 H :    0.019754
  16 S :    0.105976
  17 C :   -0.087372
  18 C :   -0.042931
  19 C :   -0.027514
  20 C :   -0.135464
  21 H :    0.043343
  22 C :    0.065485
  23 H :    0.021710
  24 H :    0.023988
  25 C :   -0.120336
  26 H :    0.040984
  27 H :    0.025503
  28 C :   -0.005553
  29 H :    0.035635
  30 H :    0.033459
  31 H :    0.024041
  32 H :    0.066211
  33 H :    0.048695
Sum of atomic charges:   -0.0000000

LOEWDIN ATOMIC CHARGES
----------------------
   0 S :    0.414831
   1 C :   -0.199900
   2 C :   -0.075242
   3 C :   -0.056406
   4 C :   -0.206114
   5 H :    0.018583
   6 C :   -0.026377
   7 H :    0.027858
   8 H :    0.029212
   9 C :   -0.031098
  10 H :    0.018264
  11 H :    0.027076
  12 C :   -0.080700
  13 H :    0.032223
  14 H :    0.033909
  15 H :    0.022218
  16 S :    0.386411
  17 C :   -0.173973
  18 C :   -0.074465
  19 C :   -0.058462
  20 C :   -0.185280
  21 H :    0.041127
  22 C :   -0.026348
  23 H :    0.027808
  24 H :    0.027211
  25 C :   -0.041041
  26 H :    0.024225
  27 H :    0.023721
  28 C :   -0.064017
  29 H :    0.033333
  30 H :    0.032189
  31 H :    0.015330
  32 H :    0.041226
  33 H :    0.022670

  Mayer bond orders larger than 0.100000
B(  0-S ,  1-C ) :   1.1400 B(  0-S ,  4-C ) :   1.1494 B(  1-C ,  2-C ) :   1.6199
B(  1-C , 32-H ) :   0.9561 B(  2-C ,  3-C ) :   1.2527 B(  2-C ,  6-C ) :   1.0133
B(  3-C ,  4-C ) :   1.5461 B(  3-C ,  5-H ) :   0.9940 B(  4-C , 20-C ) :   1.0780
B(  6-C ,  7-H ) :   0.9566 B(  6-C ,  8-H ) :   0.9480 B(  6-C ,  9-C ) :   1.0332
B(  9-C , 10-H ) :   0.9663 B(  9-C , 11-H ) :   0.9569 B(  9-C , 12-C ) :   1.0631
B( 12-C , 13-H ) :   0.9782 B( 12-C , 14-H ) :   0.9752 B( 12-C , 15-H ) :   0.9736
B( 16-S , 17-C ) :   1.1351 B( 16-S , 20-C ) :   1.1253 B( 17-C , 18-C ) :   1.6329
B( 17-C , 33-H ) :   0.9701 B( 18-C , 19-C ) :   1.2369 B( 18-C , 21-H ) :   0.9681
B( 19-C , 20-C ) :   1.6047 B( 19-C , 22-C ) :   1.0471 B( 22-C , 23-H ) :   0.9317
B( 22-C , 24-H ) :   0.9311 B( 22-C , 25-C ) :   1.0478 B( 25-C , 26-H ) :   0.9564
B( 25-C , 27-H ) :   0.9527 B( 25-C , 28-C ) :   1.0933 B( 28-C , 29-H ) :   0.9688
B( 28-C , 30-H ) :   0.9692 B( 28-C , 31-H ) :   0.9711

Dispersion correction           -0.013760602
FINAL SINGLE POINT ENERGY     -1339.869088836802

DIPOLE MOMENT
-------------
                                X             Y             Z
Electronic contribution:     31.45158       5.08589      -1.86673
Nuclear contribution   :    -31.99451      -5.42297       2.02131
                        -----------------------------------------
Total Dipole Moment    :     -0.54293      -0.33708       0.15458
                        -----------------------------------------
Magnitude (a.u.)       :      0.65749
Magnitude (Debye)      :      1.67120

Rotational constants in cm-1:     0.017278     0.008733     0.006182
Rotational constants in MHz :   517.994115   261.795435   185.329790

                             ****ORCA TERMINATED NORMALLY****
TOTAL RUN TIME: 0 days 0 hours 0 minutes 34 seconds 46 msec
