                         Program Version 4.2.1 -  RELEASE  -
|  1> ! wB97X-D3 SP def2-SVP
|  2> %pal
|  3> nprocs 16
|  4> end
|  5>
|  6> * xyz 0 1
|  7> S 	 17.7714 	 32.1988 	 63.0962
|  8> C 	 18.9727 	 32.4548 	 61.8104
|  9> C 	 20.2825 	 32.3198 	 62.2553
| 10> C 	 20.2447 	 31.7051 	 63.5599
| 11> C 	 19.0019 	 31.6233 	 64.1631
| 12> H 	 21.1014 	 31.4419 	 64.2161
| 13> C 	 21.5234 	 32.7124 	 61.6003
| 14> H 	 22.3014 	 33.0118 	 62.3531
| 15> H 	 21.3853 	 33.538 	 60.9223
| 16> C 	 22.1147 	 31.5592 	 60.6696
| 17> H 	 22.6168 	 30.8853 	 61.2931
| 18> H 	 21.3079 	 31.0501 	 60.163
| 19> C 	 23.1025 	 32.1523 	 59.7195
| 20> H 	 22.7647 	 32.903 	 59.0208
| 21> H 	 23.9553 	 32.5123 	 60.2006
| 22> H 	 23.4258 	 31.3748 	 59.0694
| 23> S 	 16.9592 	 30.914 	 65.7711
| 24> C 	 17.1851 	 30.617 	 67.4578
| 25> C 	 18.5164 	 30.6999 	 67.8077
| 26> C 	 19.3557 	 31.159 	 66.7187
| 27> C 	 18.6687 	 31.3433 	 65.5636
| 28> H 	 18.7703 	 30.5535 	 68.8323
| 29> C 	 20.8121 	 31.4312 	 67.0004
| 30> H 	 21.3897 	 30.8701 	 66.2418
| 31> H 	 21.0681 	 31.0045 	 67.9841
| 32> C 	 21.1739 	 32.8992 	 67.1507
| 33> H 	 21.0473 	 33.4272 	 66.1665
| 34> H 	 22.2643 	 33.0776 	 67.4165
| 35> C 	 20.3964 	 33.6527 	 68.2311
| 36> H 	 20.7399 	 34.6685 	 68.471
| 37> H 	 20.6401 	 33.1354 	 69.1673
| 38> H 	 19.2682 	 33.5988 	 67.9164
| 39> H 	 18.7396 	 32.9935 	 60.8938
| 40> H 	 16.3161 	 30.4427 	 68.1
| 41> *
| 42>
| 43>                          ****END OF INPUT****

CARTESIAN COORDINATES (ANGSTROEM)
---------------------------------
  S     17.771400   32.198800   63.096200
  C     18.972700   32.454800   61.810400
  C     20.282500   32.319800   62.255300
  C     20.244700   31.705100   63.559900
  C     19.001900   31.623300   64.163100
  H     21.101400   31.441900   64.216100
  C     21.523400   32.712400   61.600300
  H     22.301400   33.011800   62.353100
  H     21.385300   33.538000   60.922300
  C     22.114700   31.559200   60.669600
  H     22.616800   30.885300   61.293100
  H     21.307900   31.050100   60.163000
  C     23.102500   32.152300   59.719500
  H     22.764700   32.903000   59.020800
  H     23.955300   32.512300   60.200600
  H     23.425800   31.374800   59.069400
  S     16.959200   30.914000   65.771100
  C     17.185100   30.617000   67.457800
  C     18.516400   30.699900   67.807700
  C     19.355700   31.159000   66.718700
  C     18.668700   31.343300   65.563600
  H     18.770300   30.553500   68.832300
  C     20.812100   31.431200   67.000400
  H     21.389700   30.870100   66.241800
  H     21.068100   31.004500   67.984100
  C     21.173900   32.899200   67.150700
  H     21.047300   33.427200   66.166500
  H     22.264300   33.077600   67.416500
  C     20.396400   33.652700   68.231100
  H     20.739900   34.668500   68.471000
  H     20.640100   33.135400   69.167300
  H     19.268200   33.598800   67.916400
  H     18.739600   32.993500   60.893800
  H     16.316100   30.442700   68.100000

 Total Charge           Charge          ....    0
 Multiplicity           Mult            ....    1
 Number of Electrons    NEL             ....  134
 Basis Dimension        Dim             ....  322

ORBITAL ENERGIES
----------------

  NO   OCC          E(Eh)            E(eV)
   0   2.0000     -88.965676     -2420.8791
   1   2.0000     -88.960789     -2420.7461
   2   2.0000     -10.328574      -281.0548
   3   2.0000     -10.328401      -281.0501
   4   2.0000     -10.318327      -280.7759
   5   2.0000     -10.314190      -280.6634
   6   2.0000     -10.305151      -280.4174
   7   2.0000     -10.303219      -280.3648
   8   2.0000     -10.297620      -280.2125
   9   2.0000     -10.294787      -280.1354
  10   2.0000     -10.294357      -280.1237
  11   2.0000     -10.293656      -280.1046
  12   2.0000     -10.292019      -280.0601
  13   2.0000     -10.284356      -279.8516
  14   2.0000     -10.282768      -279.8083
  15   2.0000     -10.267445      -279.3914
  16   2.0000      -8.080335      -219.8771
  17   2.0000      -8.076298      -219.7673
  18   2.0000      -6.038954      -164.3283
  19   2.0000      -6.034966      -164.2198
  20   2.0000      -6.034822      -164.2159
  21   2.0000      -6.030867      -164.1082
  22   2.0000      -6.030741      -164.1048
  23   2.0000      -6.026954      -164.0017
  24   2.0000      -1.009487       -27.4695
  25   2.0000      -0.984305       -26.7843
  26   2.0000      -0.917873       -24.9766
  27   2.0000      -0.912535       -24.8313
  28   2.0000      -0.873327       -23.7644
  29   2.0000      -0.852787       -23.2055
  30   2.0000      -0.843347       -22.9486
  31   2.0000      -0.813779       -22.1440
  32   2.0000      -0.783619       -21.3233
  33   2.0000      -0.775566       -21.1042
  34   2.0000      -0.709659       -19.3108
  35   2.0000      -0.701559       -19.0904
  36   2.0000      -0.682768       -18.5791
  37   2.0000      -0.671436       -18.2707
  38   2.0000      -0.638328       -17.3698
  39   2.0000      -0.617349       -16.7989
  40   2.0000      -0.592644       -16.1267
  41   2.0000      -0.577677       -15.7194
  42   2.0000      -0.563521       -15.3342
  43   2.0000      -0.555221       -15.1083
  44   2.0000      -0.552172       -15.0254
  45   2.0000      -0.524955       -14.2847
  46   2.0000      -0.516938       -14.0666
  47   2.0000      -0.512816       -13.9544
  48   2.0000      -0.501220       -13.6389
  49   2.0000      -0.498891       -13.5755
  50   2.0000      -0.488967       -13.3055
  51   2.0000      -0.476808       -12.9746
  52   2.0000      -0.469989       -12.7890
  53   2.0000      -0.466370       -12.6906
  54   2.0000      -0.459953       -12.5160
  55   2.0000      -0.453634       -12.3440
  56   2.0000      -0.446743       -12.1565
  57   2.0000      -0.441437       -12.0121
  58   2.0000      -0.434007       -11.8099
  59   2.0000      -0.427090       -11.6217
  60   2.0000      -0.421500       -11.4696
  61   2.0000      -0.409810       -11.1515
  62   2.0000      -0.406533       -11.0623
  63   2.0000      -0.357493        -9.7279
  64   2.0000      -0.333311        -9.0698
  65   2.0000      -0.324693        -8.8353
  66   2.0000      -0.284977        -7.7546
  67   0.0000       0.021598         0.5877
  68   0.0000       0.084422         2.2972
  69   0.0000       0.087856         2.3907
  70   0.0000       0.108638         2.9562
  71   0.0000       0.139172         3.7871

MULLIKEN ATOMIC CHARGES
-----------------------
   0 S :    0.094295
   1 C :   -0.105342
   2 C :   -0.082858
   3 C :   -0.013678
   4 C :   -0.095101
   5 H :    0.001925
   6 C :    0.039310
   7 H :    0.040862
   8 H :    0.015192
   9 C :   -0.047926
  10 H :    0.017681
  11 H :    0.034248
  12 C :   -0.012244
  13 H :    0.025725
  14 H :    0.015665
  15 H :    0.018797
  16 S :    0.071967
  17 C :   -0.093306
  18 C :   -0.017515
  19 C :   -0.107111
  20 C :   -0.091142
  21 H :    0.011543
  22 C :    0.076064
  23 H :    0.047860
  24 H :    0.013292
  25 C :   -0.096928
  26 H :    0.039114
  27 H :    0.034446
  28 C :   -0.084744
  29 H :    0.039797
  30 H :    0.018705
  31 H :    0.074169
  32 H :    0.048524
  33 H :    0.068713
Sum of atomic charges:   -0.0000000

LOEWDIN ATOMIC CHARGES
----------------------
   0 S :    0.398242
   1 C :   -0.194680
   2 C :   -0.056333
   3 C :   -0.074583
   4 C :   -0.196738
   5 H :    0.030438
   6 C :   -0.033615
   7 H :    0.039556
   8 H :    0.027180
   9 C :   -0.020911
  10 H :    0.017987
  11 H :    0.025030
  12 C :   -0.062080
  13 H :    0.023806
  14 H :    0.018545
  15 H :    0.026022
  16 S :    0.391323
  17 C :   -0.183468
  18 C :   -0.068344
  19 C :   -0.061838
  20 C :   -0.180011
  21 H :    0.027970
  22 C :   -0.033271
  23 H :    0.033343
  24 H :    0.031628
  25 C :   -0.052534
  26 H :    0.023950
  27 H :    0.028401
  28 C :   -0.077290
  29 H :    0.028085
  30 H :    0.021236
  31 H :    0.043722
  32 H :    0.026240
  33 H :    0.032990

  Mayer bond orders larger than 0.100000
B(  0-S ,  1-C ) :   1.1227 B(  0-S ,  4-C ) :   1.1488 B(  1-C ,  2-C ) :   1.6182
B(  1-C , 32-H ) :   0.9633 B(  2-C ,  3-C ) :   1.2194 B(  2-C ,  6-C ) :   1.0557
B(  3-C ,  4-C ) :   1.6037 B(  3-C ,  5-H ) :   0.9795 B(  4-C , 20-C ) :   1.0429
B(  6-C ,  7-H ) :   0.9357 B(  6-C ,  8-H ) :   0.9408 B(  6-C ,  9-C ) :   1.0491
B(  9-C , 10-H ) :   0.9521 B(  9-C , 11-H ) :   0.9614 B(  9-C , 12-C ) :   1.0986
B( 12-C , 13-H ) :   0.9728 B( 12-C , 14-H ) :   0.9694 B( 12-C , 15-H ) :   0.9670
B( 16-S , 17-C ) :   1.1590 B( 16-S , 20-C ) :   1.1199 B( 17-C , 18-C ) :   1.6168
B( 17-C , 33-H ) :   0.9664 B( 18-C , 19-C ) :   1.2133 B( 18-C , 21-H ) :   0.9970
B( 19-C , 20-C ) :   1.6392 B( 19-C , 22-C ) :   1.0363 B( 22-C , 23-H ) :   0.9318
B( 22-C , 24-H ) :   0.9291 B( 22-C , 25-C ) :   1.0677 B( 25-C , 26-H ) :   0.9550
B( 25-C , 27-H ) :   0.9573 B( 25-C , 28-C ) :   1.0702 B( 28-C , 29-H ) :   0.9729
B( 28-C , 30-H ) :   0.9726 B( 28-C , 31-H ) :   0.9693

Dispersion correction           -0.014363319
FINAL SINGLE POINT ENERGY     -1339.875569804618

DIPOLE MOMENT
-------------
                                X             Y             Z
Electronic contribution:    -26.31139      -7.00505       2.67177
Nuclear contribution   :     27.04284       7.19327      -2.52049
                        -----------------------------------------
Total Dipole Moment    :      0.73145       0.18822       0.15128
                        -----------------------------------------
Magnitude (a.u.)       :      0.77028
Magnitude (Debye)      :      1.95790

Rotational constants in cm-1:     0.021586     0.008025     0.006435
Rotational constants in MHz :   647.144669   240.570628   192.916732

                             ****ORCA TERMINATED NORMALLY****
TOTAL RUN TIME: 0 days 0 hours 0 minutes 35 seconds 54 msec
