                         Program Version 4.2.1 -  RELEASE  -
|  1> ! wB97X-D3 SP def2-SVP
|  2> %pal
|  3> nprocs 16
|  4> end
|  5>
|  6> * xyz 0 1
|  7> S 	 -113.404 	 53.6933 	 113.834
|  8> C 	 -111.759 	 53.4981 	 114.376
|  9> C 	 -111.299 	 54.6667 	 114.855
| 10> C 	 -112.164 	 55.7941 	 114.698
| 11> C 	 -113.389 	 55.4153 	 114.106
| 12> H 	 -112.112 	 56.7835 	 115.032
| 13> C 	 -109.931 	 54.8206 	 115.532
| 14> H 	 -109.842 	 53.928 	 116.227
| 15> H 	 -110.061 	 55.6405 	 116.289
| 16> C 	 -108.738 	 54.9739 	 114.619
| 17> H 	 -107.828 	 54.9651 	 115.257
| 18> H 	 -108.591 	 54.0391 	 114.038
| 19> C 	 -108.581 	 56.2233 	 113.758
| 20> H 	 -109.533 	 56.3304 	 113.084
| 21> H 	 -108.447 	 57.089 	 114.413
| 22> H 	 -107.636 	 56.0324 	 113.104
| 23> S 	 -114.998 	 56.4008 	 111.992
| 24> C 	 -116.226 	 57.5983 	 112.395
| 25> C 	 -116.178 	 58.0149 	 113.696
| 26> C 	 -115.111 	 57.345 	 114.364
| 27> C 	 -114.491 	 56.3027 	 113.694
| 28> H 	 -116.753 	 58.8443 	 114.12
| 29> C 	 -114.756 	 57.5944 	 115.841
| 30> H 	 -114.312 	 56.7399 	 116.251
| 31> H 	 -115.671 	 57.5393 	 116.362
| 32> C 	 -113.971 	 58.8621 	 116.199
| 33> H 	 -113.569 	 59.1317 	 115.172
| 34> H 	 -113.121 	 58.5821 	 116.925
| 35> C 	 -114.829 	 60.0855 	 116.606
| 36> H 	 -115.594 	 60.2368 	 115.789
| 37> H 	 -114.105 	 60.9315 	 116.65
| 38> H 	 -115.331 	 59.999 	 117.572
| 39> H 	 -111.184 	 52.53 	 114.18
| 40> H 	 -116.824 	 58.0845 	 111.641
| 41> *
| 42>
| 43>                          ****END OF INPUT****

CARTESIAN COORDINATES (ANGSTROEM)
---------------------------------
  S    -113.404000   53.693300  113.834000
  C    -111.759000   53.498100  114.376000
  C    -111.299000   54.666700  114.855000
  C    -112.164000   55.794100  114.698000
  C    -113.389000   55.415300  114.106000
  H    -112.112000   56.783500  115.032000
  C    -109.931000   54.820600  115.532000
  H    -109.842000   53.928000  116.227000
  H    -110.061000   55.640500  116.289000
  C    -108.738000   54.973900  114.619000
  H    -107.828000   54.965100  115.257000
  H    -108.591000   54.039100  114.038000
  C    -108.581000   56.223300  113.758000
  H    -109.533000   56.330400  113.084000
  H    -108.447000   57.089000  114.413000
  H    -107.636000   56.032400  113.104000
  S    -114.998000   56.400800  111.992000
  C    -116.226000   57.598300  112.395000
  C    -116.178000   58.014900  113.696000
  C    -115.111000   57.345000  114.364000
  C    -114.491000   56.302700  113.694000
  H    -116.753000   58.844300  114.120000
  C    -114.756000   57.594400  115.841000
  H    -114.312000   56.739900  116.251000
  H    -115.671000   57.539300  116.362000
  C    -113.971000   58.862100  116.199000
  H    -113.569000   59.131700  115.172000
  H    -113.121000   58.582100  116.925000
  C    -114.829000   60.085500  116.606000
  H    -115.594000   60.236800  115.789000
  H    -114.105000   60.931500  116.650000
  H    -115.331000   59.999000  117.572000
  H    -111.184000   52.530000  114.180000
  H    -116.824000   58.084500  111.641000

 Total Charge           Charge          ....    0
 Multiplicity           Mult            ....    1
 Number of Electrons    NEL             ....  134
 Basis Dimension        Dim             ....  322

ORBITAL ENERGIES
----------------

  NO   OCC          E(Eh)            E(eV)
   0   2.0000     -88.965732     -2420.8806
   1   2.0000     -88.964723     -2420.8532
   2   2.0000     -10.333190      -281.1804
   3   2.0000     -10.328985      -281.0660
   4   2.0000     -10.321258      -280.8557
   5   2.0000     -10.315822      -280.7078
   6   2.0000     -10.303720      -280.3785
   7   2.0000     -10.299137      -280.2538
   8   2.0000     -10.298339      -280.2321
   9   2.0000     -10.298198      -280.2282
  10   2.0000     -10.297518      -280.2097
  11   2.0000     -10.294002      -280.1140
  12   2.0000     -10.292510      -280.0734
  13   2.0000     -10.289570      -279.9934
  14   2.0000     -10.288561      -279.9660
  15   2.0000     -10.275963      -279.6232
  16   2.0000      -8.080013      -219.8683
  17   2.0000      -8.079796      -219.8624
  18   2.0000      -6.038511      -164.3162
  19   2.0000      -6.038214      -164.3082
  20   2.0000      -6.034705      -164.2127
  21   2.0000      -6.034176      -164.1983
  22   2.0000      -6.030705      -164.1038
  23   2.0000      -6.030661      -164.1026
  24   2.0000      -1.006216       -27.3805
  25   2.0000      -0.986751       -26.8509
  26   2.0000      -0.908426       -24.7195
  27   2.0000      -0.905518       -24.6404
  28   2.0000      -0.870355       -23.6836
  29   2.0000      -0.847671       -23.0663
  30   2.0000      -0.843071       -22.9411
  31   2.0000      -0.816871       -22.2282
  32   2.0000      -0.782684       -21.2979
  33   2.0000      -0.771064       -20.9817
  34   2.0000      -0.701787       -19.0966
  35   2.0000      -0.691727       -18.8229
  36   2.0000      -0.688891       -18.7457
  37   2.0000      -0.663844       -18.0641
  38   2.0000      -0.642891       -17.4939
  39   2.0000      -0.609381       -16.5821
  40   2.0000      -0.597696       -16.2641
  41   2.0000      -0.572997       -15.5920
  42   2.0000      -0.552410       -15.0318
  43   2.0000      -0.546682       -14.8760
  44   2.0000      -0.539670       -14.6852
  45   2.0000      -0.530196       -14.4274
  46   2.0000      -0.520426       -14.1615
  47   2.0000      -0.512574       -13.9478
  48   2.0000      -0.504772       -13.7355
  49   2.0000      -0.501339       -13.6421
  50   2.0000      -0.483847       -13.1662
  51   2.0000      -0.482142       -13.1198
  52   2.0000      -0.473948       -12.8968
  53   2.0000      -0.468336       -12.7441
  54   2.0000      -0.458141       -12.4667
  55   2.0000      -0.448059       -12.1923
  56   2.0000      -0.440960       -11.9991
  57   2.0000      -0.433430       -11.7942
  58   2.0000      -0.425337       -11.5740
  59   2.0000      -0.418780       -11.3956
  60   2.0000      -0.416919       -11.3449
  61   2.0000      -0.408446       -11.1144
  62   2.0000      -0.402798       -10.9607
  63   2.0000      -0.346034        -9.4161
  64   2.0000      -0.333169        -9.0660
  65   2.0000      -0.330084        -8.9820
  66   2.0000      -0.297692        -8.1006
  67   0.0000       0.027091         0.7372
  68   0.0000       0.067813         1.8453
  69   0.0000       0.111884         3.0445
  70   0.0000       0.115525         3.1436
  71   0.0000       0.130573         3.5531

MULLIKEN ATOMIC CHARGES
-----------------------
   0 S :    0.110459
   1 C :   -0.159936
   2 C :   -0.071479
   3 C :    0.071354
   4 C :   -0.189167
   5 H :   -0.018253
   6 C :    0.036713
   7 H :    0.036739
   8 H :    0.024093
   9 C :   -0.067349
  10 H :    0.024773
  11 H :    0.025718
  12 C :   -0.090816
  13 H :    0.061457
  14 H :    0.040273
  15 H :    0.054731
  16 S :    0.102302
  17 C :   -0.084494
  18 C :   -0.011894
  19 C :   -0.078818
  20 C :   -0.126609
  21 H :    0.031636
  22 C :    0.086059
  23 H :    0.007987
  24 H :    0.005667
  25 C :   -0.136525
  26 H :    0.047907
  27 H :    0.053659
  28 C :   -0.049463
  29 H :    0.035438
  30 H :    0.043995
  31 H :    0.041715
  32 H :    0.084233
  33 H :    0.057896
Sum of atomic charges:    0.0000000

LOEWDIN ATOMIC CHARGES
----------------------
   0 S :    0.413105
   1 C :   -0.210343
   2 C :   -0.073697
   3 C :   -0.055824
   4 C :   -0.192717
   5 H :    0.023347
   6 C :   -0.040890
   7 H :    0.039131
   8 H :    0.031044
   9 C :   -0.057037
  10 H :    0.026670
  11 H :    0.025030
  12 C :   -0.076717
  13 H :    0.037486
  14 H :    0.023873
  15 H :    0.041129
  16 S :    0.390072
  17 C :   -0.166638
  18 C :   -0.076705
  19 C :   -0.051044
  20 C :   -0.198170
  21 H :    0.037808
  22 C :   -0.040536
  23 H :    0.024145
  24 H :    0.023838
  25 C :   -0.055219
  26 H :    0.032440
  27 H :    0.033153
  28 C :   -0.068097
  29 H :    0.029421
  30 H :    0.031884
  31 H :    0.023021
  32 H :    0.049065
  33 H :    0.027970

  Mayer bond orders larger than 0.100000
B(  0-S ,  1-C ) :   1.1359 B(  0-S ,  4-C ) :   1.1772 B(  1-C ,  2-C ) :   1.6154
B(  1-C , 32-H ) :   0.9603 B(  2-C ,  3-C ) :   1.2334 B(  2-C ,  6-C ) :   0.9994
B(  3-C ,  4-C ) :   1.5426 B(  3-C ,  5-H ) :   1.0080 B(  4-C , 20-C ) :   1.0355
B(  6-C ,  7-H ) :   0.9431 B(  6-C ,  8-H ) :   0.9450 B(  6-C ,  9-C ) :   1.0758
B(  9-C , 10-H ) :   0.9494 B(  9-C , 11-H ) :   0.9541 B(  9-C , 12-C ) :   1.0731
B( 12-C , 13-H ) :   0.9723 B( 12-C , 14-H ) :   0.9738 B( 12-C , 15-H ) :   0.9707
B( 16-S , 17-C ) :   1.1655 B( 16-S , 20-C ) :   1.1204 B( 17-C , 18-C ) :   1.5965
B( 17-C , 33-H ) :   0.9648 B( 18-C , 19-C ) :   1.2439 B( 18-C , 21-H ) :   0.9879
B( 19-C , 20-C ) :   1.6050 B( 19-C , 22-C ) :   1.0508 B( 22-C , 23-H ) :   0.9321
B( 22-C , 24-H ) :   0.9343 B( 22-C , 25-C ) :   1.0287 B( 25-C , 26-H ) :   0.9637
B( 25-C , 27-H ) :   0.9561 B( 25-C , 28-C ) :   1.0694 B( 28-C , 29-H ) :   0.9736
B( 28-C , 30-H ) :   0.9738 B( 28-C , 31-H ) :   0.9753

Dispersion correction           -0.014775047
FINAL SINGLE POINT ENERGY     -1339.866536489686

DIPOLE MOMENT
-------------
                                X             Y             Z
Electronic contribution:    -16.21670     -14.87564     -14.77594
Nuclear contribution   :     16.51777      15.26391      15.19386
                        -----------------------------------------
Total Dipole Moment    :      0.30107       0.38827       0.41792
                        -----------------------------------------
Magnitude (a.u.)       :      0.64502
Magnitude (Debye)      :      1.63952

Rotational constants in cm-1:     0.017906     0.008760     0.006983
Rotational constants in MHz :   536.796012   262.624005   209.334294

                             ****ORCA TERMINATED NORMALLY****
TOTAL RUN TIME: 0 days 0 hours 0 minutes 35 seconds 165 msec
