                         Program Version 4.2.1 -  RELEASE  -
|  1> ! wB97X-D3 SP def2-SVP
|  2> %pal
|  3> nprocs 16
|  4> end
|  5>
|  6> * xyz 0 1
|  7> S 	 -107.471 	 52.7358 	 113.419
|  8> C 	 -108.231 	 53.7731 	 112.165
|  9> C 	 -107.35 	 54.6487 	 111.594
| 10> C 	 -106.065 	 54.6067 	 112.279
| 11> C 	 -105.941 	 53.5945 	 113.166
| 12> H 	 -105.323 	 55.3207 	 112.075
| 13> C 	 -107.885 	 55.6399 	 110.591
| 14> H 	 -107.156 	 56.4708 	 110.572
| 15> H 	 -108.807 	 56.0706 	 110.97
| 16> C 	 -107.958 	 55.1248 	 109.149
| 17> H 	 -108.42 	 54.1445 	 109.151
| 18> H 	 -108.778 	 55.6552 	 108.647
| 19> C 	 -106.633 	 55.1147 	 108.341
| 20> H 	 -105.778 	 54.6027 	 108.817
| 21> H 	 -106.9 	 54.6614 	 107.366
| 22> H 	 -106.372 	 56.142 	 108.106
| 23> S 	 -105.002 	 53.3515 	 115.773
| 24> C 	 -103.285 	 53.3013 	 116.018
| 25> C 	 -102.605 	 53.1688 	 114.823
| 26> C 	 -103.447 	 53.3195 	 113.738
| 27> C 	 -104.804 	 53.3664 	 114.04
| 28> H 	 -101.534 	 53.0522 	 114.785
| 29> C 	 -102.802 	 53.1973 	 112.333
| 30> H 	 -101.963 	 53.94 	 112.194
| 31> H 	 -103.484 	 53.5135 	 111.617
| 32> C 	 -102.266 	 51.7962 	 111.805
| 33> H 	 -101.804 	 51.2557 	 112.658
| 34> H 	 -101.409 	 51.9414 	 111.083
| 35> C 	 -103.369 	 50.8923 	 111.216
| 36> H 	 -103.789 	 51.3469 	 110.318
| 37> H 	 -104.144 	 50.6072 	 111.923
| 38> H 	 -102.834 	 50.0094 	 110.91
| 39> H 	 -109.249 	 53.6374 	 111.874
| 40> H 	 -102.962 	 53.2825 	 117.038
| 41> *
| 42>
| 43>                          ****END OF INPUT****

CARTESIAN COORDINATES (ANGSTROEM)
---------------------------------
  S    -107.471000   52.735800  113.419000
  C    -108.231000   53.773100  112.165000
  C    -107.350000   54.648700  111.594000
  C    -106.065000   54.606700  112.279000
  C    -105.941000   53.594500  113.166000
  H    -105.323000   55.320700  112.075000
  C    -107.885000   55.639900  110.591000
  H    -107.156000   56.470800  110.572000
  H    -108.807000   56.070600  110.970000
  C    -107.958000   55.124800  109.149000
  H    -108.420000   54.144500  109.151000
  H    -108.778000   55.655200  108.647000
  C    -106.633000   55.114700  108.341000
  H    -105.778000   54.602700  108.817000
  H    -106.900000   54.661400  107.366000
  H    -106.372000   56.142000  108.106000
  S    -105.002000   53.351500  115.773000
  C    -103.285000   53.301300  116.018000
  C    -102.605000   53.168800  114.823000
  C    -103.447000   53.319500  113.738000
  C    -104.804000   53.366400  114.040000
  H    -101.534000   53.052200  114.785000
  C    -102.802000   53.197300  112.333000
  H    -101.963000   53.940000  112.194000
  H    -103.484000   53.513500  111.617000
  C    -102.266000   51.796200  111.805000
  H    -101.804000   51.255700  112.658000
  H    -101.409000   51.941400  111.083000
  C    -103.369000   50.892300  111.216000
  H    -103.789000   51.346900  110.318000
  H    -104.144000   50.607200  111.923000
  H    -102.834000   50.009400  110.910000
  H    -109.249000   53.637400  111.874000
  H    -102.962000   53.282500  117.038000

 Total Charge           Charge          ....    0
 Multiplicity           Mult            ....    1
 Number of Electrons    NEL             ....  134
 Basis Dimension        Dim             ....  322

ORBITAL ENERGIES
----------------

  NO   OCC          E(Eh)            E(eV)
   0   2.0000     -88.964977     -2420.8601
   1   2.0000     -88.963545     -2420.8211
   2   2.0000     -10.328237      -281.0456
   3   2.0000     -10.324924      -280.9555
   4   2.0000     -10.316161      -280.7170
   5   2.0000     -10.311574      -280.5922
   6   2.0000     -10.300346      -280.2867
   7   2.0000     -10.299252      -280.2569
   8   2.0000     -10.293311      -280.0952
   9   2.0000     -10.293204      -280.0923
  10   2.0000     -10.291833      -280.0550
  11   2.0000     -10.290094      -280.0077
  12   2.0000     -10.289092      -279.9804
  13   2.0000     -10.287658      -279.9414
  14   2.0000     -10.284993      -279.8689
  15   2.0000     -10.271469      -279.5009
  16   2.0000      -8.080347      -219.8774
  17   2.0000      -8.077531      -219.8008
  18   2.0000      -6.038655      -164.3201
  19   2.0000      -6.036160      -164.2523
  20   2.0000      -6.034717      -164.2130
  21   2.0000      -6.032305      -164.1474
  22   2.0000      -6.031327      -164.1207
  23   2.0000      -6.028070      -164.0321
  24   2.0000      -1.008373       -27.4392
  25   2.0000      -0.983264       -26.7560
  26   2.0000      -0.911177       -24.7944
  27   2.0000      -0.896443       -24.3934
  28   2.0000      -0.868679       -23.6380
  29   2.0000      -0.850906       -23.1543
  30   2.0000      -0.842307       -22.9203
  31   2.0000      -0.815681       -22.1958
  32   2.0000      -0.782597       -21.2956
  33   2.0000      -0.771387       -20.9905
  34   2.0000      -0.705057       -19.1856
  35   2.0000      -0.701935       -19.1006
  36   2.0000      -0.692101       -18.8330
  37   2.0000      -0.661761       -18.0074
  38   2.0000      -0.641144       -17.4464
  39   2.0000      -0.619929       -16.8691
  40   2.0000      -0.602357       -16.3910
  41   2.0000      -0.569248       -15.4900
  42   2.0000      -0.555828       -15.1249
  43   2.0000      -0.544454       -14.8154
  44   2.0000      -0.537930       -14.6378
  45   2.0000      -0.526358       -14.3229
  46   2.0000      -0.514556       -14.0018
  47   2.0000      -0.510348       -13.8873
  48   2.0000      -0.502695       -13.6790
  49   2.0000      -0.495369       -13.4797
  50   2.0000      -0.492163       -13.3924
  51   2.0000      -0.476941       -12.9782
  52   2.0000      -0.469196       -12.7675
  53   2.0000      -0.468124       -12.7383
  54   2.0000      -0.458175       -12.4676
  55   2.0000      -0.447139       -12.1673
  56   2.0000      -0.442000       -12.0274
  57   2.0000      -0.433412       -11.7937
  58   2.0000      -0.431933       -11.7535
  59   2.0000      -0.423173       -11.5151
  60   2.0000      -0.422670       -11.5014
  61   2.0000      -0.414041       -11.2666
  62   2.0000      -0.409613       -11.1461
  63   2.0000      -0.349616        -9.5135
  64   2.0000      -0.333809        -9.0834
  65   2.0000      -0.329897        -8.9769
  66   2.0000      -0.290739        -7.9114
  67   0.0000       0.030249         0.8231
  68   0.0000       0.070315         1.9134
  69   0.0000       0.107669         2.9298
  70   0.0000       0.122497         3.3333
  71   0.0000       0.128301         3.4913

MULLIKEN ATOMIC CHARGES
-----------------------
   0 S :    0.085388
   1 C :   -0.120647
   2 C :   -0.086069
   3 C :    0.050682
   4 C :   -0.136918
   5 H :   -0.000955
   6 C :    0.050221
   7 H :    0.012418
   8 H :    0.039444
   9 C :   -0.062315
  10 H :    0.013876
  11 H :    0.020448
  12 C :   -0.049149
  13 H :    0.052049
  14 H :    0.039316
  15 H :    0.029792
  16 S :    0.107847
  17 C :   -0.101292
  18 C :   -0.005262
  19 C :   -0.042700
  20 C :   -0.133133
  21 H :    0.020452
  22 C :    0.077252
  23 H :    0.029180
  24 H :   -0.014877
  25 C :   -0.105608
  26 H :    0.025689
  27 H :    0.036411
  28 C :   -0.036256
  29 H :    0.032408
  30 H :    0.049334
  31 H :    0.026066
  32 H :    0.041236
  33 H :    0.055673
Sum of atomic charges:    0.0000000

LOEWDIN ATOMIC CHARGES
----------------------
   0 S :    0.363132
   1 C :   -0.168951
   2 C :   -0.061516
   3 C :   -0.052834
   4 C :   -0.179573
   5 H :    0.024238
   6 C :   -0.033582
   7 H :    0.029171
   8 H :    0.034418
   9 C :   -0.046193
  10 H :    0.019244
  11 H :    0.026584
  12 C :   -0.064328
  13 H :    0.030479
  14 H :    0.033518
  15 H :    0.023333
  16 S :    0.419559
  17 C :   -0.177578
  18 C :   -0.067669
  19 C :   -0.059257
  20 C :   -0.205890
  21 H :    0.034005
  22 C :   -0.034217
  23 H :    0.035242
  24 H :    0.011933
  25 C :   -0.042541
  26 H :    0.021692
  27 H :    0.029441
  28 C :   -0.062974
  29 H :    0.024003
  30 H :    0.029688
  31 H :    0.025075
  32 H :    0.020256
  33 H :    0.022093

  Mayer bond orders larger than 0.100000
B(  0-S ,  1-C ) :   1.1141 B(  0-S ,  4-C ) :   1.1240 B(  1-C ,  2-C ) :   1.6514
B(  1-C , 32-H ) :   0.9698 B(  2-C ,  3-C ) :   1.2073 B(  2-C ,  6-C ) :   1.0157
B(  3-C ,  4-C ) :   1.6114 B(  3-C ,  5-H ) :   0.9977 B(  4-C , 20-C ) :   1.0317
B(  6-C ,  7-H ) :   0.9420 B(  6-C ,  8-H ) :   0.9485 B(  6-C ,  9-C ) :   1.0592
B(  9-C , 10-H ) :   0.9577 B(  9-C , 11-H ) :   0.9516 B(  9-C , 12-C ) :   1.0735
B( 12-C , 13-H ) :   0.9772 B( 12-C , 14-H ) :   0.9723 B( 12-C , 15-H ) :   0.9748
B( 16-S , 17-C ) :   1.1854 B( 16-S , 20-C ) :   1.1496 B( 17-C , 18-C ) :   1.5399
B( 17-C , 20-C ) :   0.1066 B( 17-C , 33-H ) :   0.9749 B( 18-C , 19-C ) :   1.2794
B( 18-C , 21-H ) :   0.9995 B( 19-C , 20-C ) :   1.5674 B( 19-C , 22-C ) :   1.0476
B( 22-C , 23-H ) :   0.9389 B( 22-C , 24-H ) :   0.9320 B( 22-C , 25-C ) :   1.0511
B( 25-C , 26-H ) :   0.9598 B( 25-C , 27-H ) :   0.9566 B( 25-C , 28-C ) :   1.0793
B( 28-C , 29-H ) :   0.9750 B( 28-C , 30-H ) :   0.9776 B( 28-C , 31-H ) :   0.9719

Dispersion correction           -0.014497993
FINAL SINGLE POINT ENERGY     -1339.883689828893

DIPOLE MOMENT
-------------
                                X             Y             Z
Electronic contribution:     -6.70056      -1.96036      27.31185
Nuclear contribution   :      6.91716       2.24946     -27.80317
                        -----------------------------------------
Total Dipole Moment    :      0.21659       0.28911      -0.49132
                        -----------------------------------------
Magnitude (a.u.)       :      0.60983
Magnitude (Debye)      :      1.55006

Rotational constants in cm-1:     0.018893     0.008972     0.007119
Rotational constants in MHz :   566.388459   268.980931   213.423383

                             ****ORCA TERMINATED NORMALLY****
TOTAL RUN TIME: 0 days 0 hours 0 minutes 33 seconds 690 msec
