                         Program Version 4.2.1 -  RELEASE  -
|  1> ! wB97X-D3 SP def2-SVP
|  2> %pal
|  3> nprocs 16
|  4> end
|  5>
|  6> * xyz 0 1
|  7> S 	 -33.2356 	 71.9385 	 144.55
|  8> C 	 -32.0345 	 72.8773 	 145.456
|  9> C 	 -31.5714 	 72.1243 	 146.558
| 10> C 	 -32.087 	 70.76 	 146.476
| 11> C 	 -32.9956 	 70.505 	 145.45
| 12> H 	 -31.9099 	 69.9926 	 147.196
| 13> C 	 -30.7255 	 72.5529 	 147.801
| 14> H 	 -30.1672 	 73.4159 	 147.435
| 15> H 	 -30.018 	 71.7457 	 148.015
| 16> C 	 -31.6008 	 72.9298 	 149.029
| 17> H 	 -32.3836 	 72.1967 	 149.316
| 18> H 	 -30.9491 	 72.9792 	 149.895
| 19> C 	 -32.243 	 74.2975 	 148.789
| 20> H 	 -31.4334 	 74.9487 	 148.536
| 21> H 	 -32.9582 	 74.3398 	 147.948
| 22> H 	 -32.7539 	 74.6523 	 149.667
| 23> S 	 -35.521 	 69.4713 	 145.947
| 24> C 	 -35.7613 	 67.7932 	 145.806
| 25> C 	 -34.5966 	 67.1847 	 145.355
| 26> C 	 -33.5405 	 68.0256 	 145.089
| 27> C 	 -33.8614 	 69.3107 	 145.407
| 28> H 	 -34.6384 	 66.1876 	 145.152
| 29> C 	 -32.217 	 67.568 	 144.58
| 30> H 	 -31.8208 	 66.983 	 145.367
| 31> H 	 -31.5484 	 68.3634 	 144.446
| 32> C 	 -32.3531 	 66.7908 	 143.234
| 33> H 	 -32.5867 	 67.5487 	 142.485
| 34> H 	 -33.1859 	 66.1062 	 143.205
| 35> C 	 -31.1514 	 65.9041 	 143
| 36> H 	 -31.2994 	 65.2076 	 142.228
| 37> H 	 -30.7742 	 65.4584 	 143.885
| 38> H 	 -30.3905 	 66.5882 	 142.592
| 39> H 	 -31.783 	 73.9123 	 145.428
| 40> H 	 -36.7007 	 67.1795 	 145.879
| 41> *
| 42>
| 43>                          ****END OF INPUT****

CARTESIAN COORDINATES (ANGSTROEM)
---------------------------------
  S    -33.235600   71.938500  144.550000
  C    -32.034500   72.877300  145.456000
  C    -31.571400   72.124300  146.558000
  C    -32.087000   70.760000  146.476000
  C    -32.995600   70.505000  145.450000
  H    -31.909900   69.992600  147.196000
  C    -30.725500   72.552900  147.801000
  H    -30.167200   73.415900  147.435000
  H    -30.018000   71.745700  148.015000
  C    -31.600800   72.929800  149.029000
  H    -32.383600   72.196700  149.316000
  H    -30.949100   72.979200  149.895000
  C    -32.243000   74.297500  148.789000
  H    -31.433400   74.948700  148.536000
  H    -32.958200   74.339800  147.948000
  H    -32.753900   74.652300  149.667000
  S    -35.521000   69.471300  145.947000
  C    -35.761300   67.793200  145.806000
  C    -34.596600   67.184700  145.355000
  C    -33.540500   68.025600  145.089000
  C    -33.861400   69.310700  145.407000
  H    -34.638400   66.187600  145.152000
  C    -32.217000   67.568000  144.580000
  H    -31.820800   66.983000  145.367000
  H    -31.548400   68.363400  144.446000
  C    -32.353100   66.790800  143.234000
  H    -32.586700   67.548700  142.485000
  H    -33.185900   66.106200  143.205000
  C    -31.151400   65.904100  143.000000
  H    -31.299400   65.207600  142.228000
  H    -30.774200   65.458400  143.885000
  H    -30.390500   66.588200  142.592000
  H    -31.783000   73.912300  145.428000
  H    -36.700700   67.179500  145.879000

 Total Charge           Charge          ....    0
 Multiplicity           Mult            ....    1
 Number of Electrons    NEL             ....  134
 Basis Dimension        Dim             ....  322

ORBITAL ENERGIES
----------------

  NO   OCC          E(Eh)            E(eV)
   0   2.0000     -88.967805     -2420.9371
   1   2.0000     -88.965356     -2420.8704
   2   2.0000     -10.325267      -280.9648
   3   2.0000     -10.320331      -280.8305
   4   2.0000     -10.317467      -280.7526
   5   2.0000     -10.315093      -280.6879
   6   2.0000     -10.307689      -280.4865
   7   2.0000     -10.300635      -280.2945
   8   2.0000     -10.290949      -280.0309
   9   2.0000     -10.290879      -280.0291
  10   2.0000     -10.290595      -280.0213
  11   2.0000     -10.282351      -279.7970
  12   2.0000     -10.280949      -279.7588
  13   2.0000     -10.277138      -279.6551
  14   2.0000     -10.273565      -279.5579
  15   2.0000     -10.268779      -279.4277
  16   2.0000      -8.082299      -219.9305
  17   2.0000      -8.080762      -219.8887
  18   2.0000      -6.040918      -164.3817
  19   2.0000      -6.039135      -164.3332
  20   2.0000      -6.036663      -164.2659
  21   2.0000      -6.035125      -164.2241
  22   2.0000      -6.033113      -164.1694
  23   2.0000      -6.031675      -164.1302
  24   2.0000      -1.011065       -27.5125
  25   2.0000      -0.984422       -26.7875
  26   2.0000      -0.914463       -24.8838
  27   2.0000      -0.909010       -24.7354
  28   2.0000      -0.865728       -23.5577
  29   2.0000      -0.858453       -23.3597
  30   2.0000      -0.841334       -22.8939
  31   2.0000      -0.809707       -22.0332
  32   2.0000      -0.783862       -21.3300
  33   2.0000      -0.775929       -21.1141
  34   2.0000      -0.706339       -19.2205
  35   2.0000      -0.702139       -19.1062
  36   2.0000      -0.695584       -18.9278
  37   2.0000      -0.660882       -17.9835
  38   2.0000      -0.637930       -17.3589
  39   2.0000      -0.616359       -16.7720
  40   2.0000      -0.599360       -16.3094
  41   2.0000      -0.570470       -15.5233
  42   2.0000      -0.564204       -15.3528
  43   2.0000      -0.553122       -15.0512
  44   2.0000      -0.539717       -14.6864
  45   2.0000      -0.531925       -14.4744
  46   2.0000      -0.518965       -14.1217
  47   2.0000      -0.517180       -14.0732
  48   2.0000      -0.505900       -13.7662
  49   2.0000      -0.501905       -13.6575
  50   2.0000      -0.482539       -13.1306
  51   2.0000      -0.475440       -12.9374
  52   2.0000      -0.470649       -12.8070
  53   2.0000      -0.465403       -12.6643
  54   2.0000      -0.452845       -12.3225
  55   2.0000      -0.450754       -12.2656
  56   2.0000      -0.446372       -12.1464
  57   2.0000      -0.441727       -12.0200
  58   2.0000      -0.440387       -11.9836
  59   2.0000      -0.428275       -11.6540
  60   2.0000      -0.421522       -11.4702
  61   2.0000      -0.412787       -11.2325
  62   2.0000      -0.410551       -11.1717
  63   2.0000      -0.335479        -9.1288
  64   2.0000      -0.330888        -9.0039
  65   2.0000      -0.325164        -8.8482
  66   2.0000      -0.301380        -8.2010
  67   0.0000       0.040331         1.0975
  68   0.0000       0.064537         1.7561
  69   0.0000       0.118259         3.2180
  70   0.0000       0.127030         3.4567
  71   0.0000       0.134975         3.6728

MULLIKEN ATOMIC CHARGES
-----------------------
   0 S :    0.115610
   1 C :   -0.099863
   2 C :   -0.132254
   3 C :    0.044521
   4 C :   -0.171213
   5 H :    0.001349
   6 C :    0.057134
   7 H :    0.023565
   8 H :    0.038363
   9 C :   -0.057987
  10 H :    0.041941
  11 H :    0.029995
  12 C :   -0.052113
  13 H :    0.014947
  14 H :    0.043915
  15 H :    0.033242
  16 S :    0.132032
  17 C :   -0.105537
  18 C :   -0.031549
  19 C :   -0.008386
  20 C :   -0.195430
  21 H :   -0.028124
  22 C :    0.145978
  23 H :    0.016994
  24 H :    0.013454
  25 C :   -0.110224
  26 H :    0.037066
  27 H :    0.021690
  28 C :   -0.000690
  29 H :    0.022273
  30 H :    0.027081
  31 H :    0.022500
  32 H :    0.037034
  33 H :    0.072686
Sum of atomic charges:   -0.0000000

LOEWDIN ATOMIC CHARGES
----------------------
   0 S :    0.420228
   1 C :   -0.202716
   2 C :   -0.056298
   3 C :   -0.059976
   4 C :   -0.218751
   5 H :    0.023131
   6 C :   -0.026544
   7 H :    0.028778
   8 H :    0.032309
   9 C :   -0.038140
  10 H :    0.029273
  11 H :    0.023645
  12 C :   -0.063325
  13 H :    0.018596
  14 H :    0.028585
  15 H :    0.024196
  16 S :    0.429907
  17 C :   -0.210048
  18 C :   -0.067268
  19 C :   -0.055500
  20 C :   -0.203133
  21 H :    0.011670
  22 C :   -0.014824
  23 H :    0.027660
  24 H :    0.024518
  25 C :   -0.033864
  26 H :    0.028881
  27 H :    0.016782
  28 C :   -0.058223
  29 H :    0.019206
  30 H :    0.021390
  31 H :    0.029865
  32 H :    0.024788
  33 H :    0.045200

  Mayer bond orders larger than 0.100000
B(  0-S ,  1-C ) :   1.1393 B(  0-S ,  4-C ) :   1.1577 B(  1-C ,  2-C ) :   1.6037
B(  1-C , 32-H ) :   0.9679 B(  2-C ,  3-C ) :   1.2541 B(  2-C ,  6-C ) :   1.0136
B(  3-C ,  4-C ) :   1.5696 B(  3-C ,  5-H ) :   0.9925 B(  4-C , 20-C ) :   1.0051
B(  6-C ,  7-H ) :   0.9449 B(  6-C ,  8-H ) :   0.9452 B(  6-C ,  9-C ) :   1.0607
B(  9-C , 10-H ) :   0.9581 B(  9-C , 11-H ) :   0.9560 B(  9-C , 12-C ) :   1.0713
B( 12-C , 13-H ) :   0.9760 B( 12-C , 14-H ) :   0.9761 B( 12-C , 15-H ) :   0.9728
B( 16-S , 17-C ) :   1.1716 B( 16-S , 20-C ) :   1.1562 B( 17-C , 18-C ) :   1.5862
B( 17-C , 33-H ) :   0.9585 B( 18-C , 19-C ) :   1.2678 B( 18-C , 21-H ) :   1.0023
B( 19-C , 20-C ) :   1.5863 B( 19-C , 22-C ) :   1.0419 B( 22-C , 23-H ) :   0.9303
B( 22-C , 24-H ) :   0.9224 B( 22-C , 25-C ) :   1.0473 B( 25-C , 26-H ) :   0.9573
B( 25-C , 27-H ) :   0.9688 B( 25-C , 28-C ) :   1.0752 B( 28-C , 29-H ) :   0.9738
B( 28-C , 30-H ) :   0.9761 B( 28-C , 31-H ) :   0.9716

Dispersion correction           -0.014179525
FINAL SINGLE POINT ENERGY     -1339.870494449719

DIPOLE MOMENT
-------------
                                X             Y             Z
Electronic contribution:    -15.97549       3.61278      -5.13141
Nuclear contribution   :     16.30767      -3.87747       5.45957
                        -----------------------------------------
Total Dipole Moment    :      0.33218      -0.26469       0.32816
                        -----------------------------------------
Magnitude (a.u.)       :      0.53674
Magnitude (Debye)      :      1.36428

Rotational constants in cm-1:     0.021137     0.007588     0.006684
Rotational constants in MHz :   633.659718   227.486238   200.390795

                             ****ORCA TERMINATED NORMALLY****
TOTAL RUN TIME: 0 days 0 hours 0 minutes 34 seconds 980 msec
