                         Program Version 4.2.1 -  RELEASE  -
|  1> ! wB97X-D3 SP def2-SVP
|  2> %pal
|  3> nprocs 16
|  4> end
|  5>
|  6> * xyz 0 1
|  7> S 	 -0.462076 	 3.40005 	 82.0759
|  8> C 	 0.769963 	 3.72409 	 80.9316
|  9> C 	 0.283874 	 4.34283 	 79.7743
| 10> C 	 -1.18271 	 4.40552 	 79.8202
| 11> C 	 -1.74917 	 3.90576 	 80.9979
| 12> H 	 -1.85607 	 4.8644 	 79.1551
| 13> C 	 1.10951 	 4.74783 	 78.5205
| 14> H 	 1.17334 	 3.78454 	 78.042
| 15> H 	 2.16362 	 5.14666 	 78.8866
| 16> C 	 0.515322 	 5.82619 	 77.658
| 17> H 	 -0.534031 	 5.63704 	 77.657
| 18> H 	 0.526991 	 6.84305 	 78.0266
| 19> C 	 1.08743 	 6.00919 	 76.1935
| 20> H 	 0.368151 	 6.59922 	 75.6075
| 21> H 	 1.84791 	 6.7675 	 76.0508
| 22> H 	 1.49915 	 5.12727 	 75.7088
| 23> S 	 -4.10742 	 2.53177 	 81.0458
| 24> C 	 -5.59263 	 3.33525 	 81.4967
| 25> C 	 -5.3456 	 4.69504 	 81.7294
| 26> C 	 -3.90524 	 5.014 	 81.7282
| 27> C 	 -3.12349 	 3.94932 	 81.3243
| 28> H 	 -6.11484 	 5.36835 	 82.0398
| 29> C 	 -3.29751 	 6.30914 	 82.234
| 30> H 	 -2.16568 	 6.25746 	 82.302
| 31> H 	 -3.57484 	 6.45094 	 83.2882
| 32> C 	 -3.77748 	 7.56765 	 81.4349
| 33> H 	 -4.85084 	 7.69178 	 81.701
| 34> H 	 -3.74544 	 7.35148 	 80.3753
| 35> C 	 -2.91858 	 8.86649 	 81.7612
| 36> H 	 -3.1797 	 9.65492 	 81.0259
| 37> H 	 -1.87057 	 8.80066 	 81.6173
| 38> H 	 -3.0384 	 9.24243 	 82.7804
| 39> H 	 1.79179 	 3.48346 	 81.1458
| 40> H 	 -6.56903 	 2.8641 	 81.5713
| 41> *
| 42>
| 43>                          ****END OF INPUT****

CARTESIAN COORDINATES (ANGSTROEM)
---------------------------------
  S     -0.462076    3.400050   82.075900
  C      0.769963    3.724090   80.931600
  C      0.283874    4.342830   79.774300
  C     -1.182710    4.405520   79.820200
  C     -1.749170    3.905760   80.997900
  H     -1.856070    4.864400   79.155100
  C      1.109510    4.747830   78.520500
  H      1.173340    3.784540   78.042000
  H      2.163620    5.146660   78.886600
  C      0.515322    5.826190   77.658000
  H     -0.534031    5.637040   77.657000
  H      0.526991    6.843050   78.026600
  C      1.087430    6.009190   76.193500
  H      0.368151    6.599220   75.607500
  H      1.847910    6.767500   76.050800
  H      1.499150    5.127270   75.708800
  S     -4.107420    2.531770   81.045800
  C     -5.592630    3.335250   81.496700
  C     -5.345600    4.695040   81.729400
  C     -3.905240    5.014000   81.728200
  C     -3.123490    3.949320   81.324300
  H     -6.114840    5.368350   82.039800
  C     -3.297510    6.309140   82.234000
  H     -2.165680    6.257460   82.302000
  H     -3.574840    6.450940   83.288200
  C     -3.777480    7.567650   81.434900
  H     -4.850840    7.691780   81.701000
  H     -3.745440    7.351480   80.375300
  C     -2.918580    8.866490   81.761200
  H     -3.179700    9.654920   81.025900
  H     -1.870570    8.800660   81.617300
  H     -3.038400    9.242430   82.780400
  H      1.791790    3.483460   81.145800
  H     -6.569030    2.864100   81.571300

 Total Charge           Charge          ....    0
 Multiplicity           Mult            ....    1
 Number of Electrons    NEL             ....  134
 Basis Dimension        Dim             ....  322

ORBITAL ENERGIES
----------------

  NO   OCC          E(Eh)            E(eV)
   0   2.0000     -88.964819     -2420.8558
   1   2.0000     -88.962699     -2420.7981
   2   2.0000     -10.324326      -280.9392
   3   2.0000     -10.323046      -280.9043
   4   2.0000     -10.319723      -280.8140
   5   2.0000     -10.313640      -280.6484
   6   2.0000     -10.310259      -280.5564
   7   2.0000     -10.307037      -280.4687
   8   2.0000     -10.304625      -280.4031
   9   2.0000     -10.299737      -280.2701
  10   2.0000     -10.295771      -280.1622
  11   2.0000     -10.294612      -280.1306
  12   2.0000     -10.294200      -280.1194
  13   2.0000     -10.288078      -279.9528
  14   2.0000     -10.282338      -279.7967
  15   2.0000     -10.280520      -279.7472
  16   2.0000      -8.080030      -219.8688
  17   2.0000      -8.077633      -219.8036
  18   2.0000      -6.038497      -164.3158
  19   2.0000      -6.036179      -164.2528
  20   2.0000      -6.034284      -164.2012
  21   2.0000      -6.032000      -164.1391
  22   2.0000      -6.030993      -164.1117
  23   2.0000      -6.028444      -164.0423
  24   2.0000      -1.005097       -27.3501
  25   2.0000      -0.980041       -26.6683
  26   2.0000      -0.908249       -24.7147
  27   2.0000      -0.898036       -24.4368
  28   2.0000      -0.874062       -23.7844
  29   2.0000      -0.843837       -22.9620
  30   2.0000      -0.840589       -22.8736
  31   2.0000      -0.812947       -22.1214
  32   2.0000      -0.782337       -21.2885
  33   2.0000      -0.770953       -20.9787
  34   2.0000      -0.714331       -19.4379
  35   2.0000      -0.702356       -19.1121
  36   2.0000      -0.692547       -18.8451
  37   2.0000      -0.658726       -17.9248
  38   2.0000      -0.649323       -17.6690
  39   2.0000      -0.613557       -16.6957
  40   2.0000      -0.592733       -16.1291
  41   2.0000      -0.566880       -15.4256
  42   2.0000      -0.559899       -15.2356
  43   2.0000      -0.554306       -15.0834
  44   2.0000      -0.531779       -14.4704
  45   2.0000      -0.520643       -14.1674
  46   2.0000      -0.516515       -14.0551
  47   2.0000      -0.510383       -13.8882
  48   2.0000      -0.506892       -13.7932
  49   2.0000      -0.496106       -13.4997
  50   2.0000      -0.487639       -13.2693
  51   2.0000      -0.480169       -13.0661
  52   2.0000      -0.471405       -12.8276
  53   2.0000      -0.468087       -12.7373
  54   2.0000      -0.459620       -12.5069
  55   2.0000      -0.454621       -12.3709
  56   2.0000      -0.443232       -12.0610
  57   2.0000      -0.439792       -11.9674
  58   2.0000      -0.434680       -11.8283
  59   2.0000      -0.423730       -11.5303
  60   2.0000      -0.418240       -11.3809
  61   2.0000      -0.411739       -11.2040
  62   2.0000      -0.399234       -10.8637
  63   2.0000      -0.333007        -9.0616
  64   2.0000      -0.325723        -8.8634
  65   2.0000      -0.317883        -8.6500
  66   2.0000      -0.311961        -8.4889
  67   0.0000       0.043290         1.1780
  68   0.0000       0.056163         1.5283
  69   0.0000       0.112922         3.0728
  70   0.0000       0.124706         3.3934
  71   0.0000       0.131973         3.5912

MULLIKEN ATOMIC CHARGES
-----------------------
   0 S :    0.124056
   1 C :   -0.121135
   2 C :   -0.088659
   3 C :    0.052861
   4 C :   -0.197934
   5 H :    0.002604
   6 C :    0.062528
   7 H :    0.052826
   8 H :    0.049578
   9 C :   -0.074257
  10 H :    0.020813
  11 H :    0.027480
  12 C :   -0.052696
  13 H :    0.024489
  14 H :    0.018433
  15 H :    0.040316
  16 S :    0.111739
  17 C :   -0.097005
  18 C :   -0.022895
  19 C :   -0.011983
  20 C :   -0.184885
  21 H :    0.016286
  22 C :    0.037082
  23 H :    0.041073
  24 H :    0.035590
  25 C :   -0.097829
  26 H :    0.038653
  27 H :    0.034107
  28 C :   -0.048145
  29 H :    0.033842
  30 H :    0.025313
  31 H :    0.035974
  32 H :    0.044381
  33 H :    0.067398
Sum of atomic charges:    0.0000000

LOEWDIN ATOMIC CHARGES
----------------------
   0 S :    0.423944
   1 C :   -0.205808
   2 C :   -0.061828
   3 C :   -0.052608
   4 C :   -0.207694
   5 H :    0.022324
   6 C :   -0.034093
   7 H :    0.037726
   8 H :    0.043097
   9 C :   -0.047028
  10 H :    0.019028
  11 H :    0.029854
  12 C :   -0.075299
  13 H :    0.033716
  14 H :    0.024943
  15 H :    0.024888
  16 S :    0.409581
  17 C :   -0.182740
  18 C :   -0.071170
  19 C :   -0.047440
  20 C :   -0.214819
  21 H :    0.025694
  22 C :   -0.039748
  23 H :    0.035477
  24 H :    0.032978
  25 C :   -0.036987
  26 H :    0.026872
  27 H :    0.021413
  28 C :   -0.070216
  29 H :    0.030962
  30 H :    0.020406
  31 H :    0.026317
  32 H :    0.024383
  33 H :    0.033876

  Mayer bond orders larger than 0.100000
B(  0-S ,  1-C ) :   1.1639 B(  0-S ,  4-C ) :   1.1475 B(  1-C ,  2-C ) :   1.5958
B(  1-C , 32-H ) :   0.9756 B(  2-C ,  3-C ) :   1.2309 B(  2-C ,  6-C ) :   0.9981
B(  3-C ,  4-C ) :   1.5895 B(  3-C ,  5-H ) :   0.9927 B(  4-C , 20-C ) :   1.0397
B(  6-C ,  7-H ) :   0.9404 B(  6-C ,  8-H ) :   0.9478 B(  6-C ,  9-C ) :   1.0673
B(  9-C , 10-H ) :   0.9567 B(  9-C , 11-H ) :   0.9538 B(  9-C , 12-C ) :   1.0727
B( 12-C , 13-H ) :   0.9689 B( 12-C , 14-H ) :   0.9741 B( 12-C , 15-H ) :   0.9802
B( 16-S , 17-C ) :   1.1621 B( 16-S , 20-C ) :   1.1334 B( 17-C , 18-C ) :   1.6064
B( 17-C , 33-H ) :   0.9694 B( 18-C , 19-C ) :   1.2197 B( 18-C , 21-H ) :   0.9904
B( 19-C , 20-C ) :   1.6123 B( 19-C , 22-C ) :   1.0472 B( 22-C , 23-H ) :   0.9415
B( 22-C , 24-H ) :   0.9369 B( 22-C , 25-C ) :   1.0388 B( 25-C , 26-H ) :   0.9573
B( 25-C , 27-H ) :   0.9652 B( 25-C , 28-C ) :   1.0740 B( 28-C , 29-H ) :   0.9762
B( 28-C , 30-H ) :   0.9771 B( 28-C , 31-H ) :   0.9767

Dispersion correction           -0.014037238
FINAL SINGLE POINT ENERGY     -1339.865076224248

DIPOLE MOMENT
-------------
                                X             Y             Z
Electronic contribution:     -7.34420     -25.18303      13.74019
Nuclear contribution   :      7.38991      25.79815     -13.96792
                        -----------------------------------------
Total Dipole Moment    :      0.04571       0.61511      -0.22773
                        -----------------------------------------
Magnitude (a.u.)       :      0.65751
Magnitude (Debye)      :      1.67125

Rotational constants in cm-1:     0.015813     0.008661     0.007165
Rotational constants in MHz :   474.051661   259.641088   214.793331

                             ****ORCA TERMINATED NORMALLY****
TOTAL RUN TIME: 0 days 0 hours 0 minutes 31 seconds 523 msec
