                         Program Version 4.2.1 -  RELEASE  -
|  1> ! wB97X-D3 SP def2-SVP
|  2> %pal
|  3> nprocs 16
|  4> end
|  5>
|  6> * xyz 0 1
|  7> S 	 -30.5573 	 59.6552 	 104.8
|  8> C 	 -30.0728 	 59.0011 	 106.323
|  9> C 	 -30.2676 	 59.9341 	 107.35
| 10> C 	 -30.7993 	 61.1122 	 106.853
| 11> C 	 -30.9448 	 61.1811 	 105.458
| 12> H 	 -30.9087 	 61.8472 	 107.628
| 13> C 	 -30.0911 	 59.6982 	 108.822
| 14> H 	 -30.1522 	 58.6488 	 109.06
| 15> H 	 -30.9981 	 60.1876 	 109.267
| 16> C 	 -28.7601 	 60.2919 	 109.433
| 17> H 	 -28.6872 	 61.3911 	 109.274
| 18> H 	 -28.908 	 60.1818 	 110.437
| 19> C 	 -27.5185 	 59.6188 	 109.013
| 20> H 	 -27.741 	 58.5647 	 108.901
| 21> H 	 -27.2556 	 59.9186 	 107.986
| 22> H 	 -26.6572 	 59.9193 	 109.553
| 23> S 	 -32.8138 	 62.1557 	 103.651
| 24> C 	 -32.6849 	 63.7808 	 103.048
| 25> C 	 -31.5094 	 64.3693 	 103.512
| 26> C 	 -30.7502 	 63.5727 	 104.493
| 27> C 	 -31.3562 	 62.3574 	 104.668
| 28> H 	 -31.1907 	 65.3474 	 103.341
| 29> C 	 -29.5834 	 64.0337 	 105.247
| 30> H 	 -29.5973 	 63.7345 	 106.295
| 31> H 	 -29.563 	 65.0439 	 105.068
| 32> C 	 -28.2607 	 63.6412 	 104.58
| 33> H 	 -28.2793 	 63.8435 	 103.489
| 34> H 	 -28.0636 	 62.5586 	 104.723
| 35> C 	 -26.9743 	 64.2355 	 105.186
| 36> H 	 -26.1186 	 64.2593 	 104.486
| 37> H 	 -26.5925 	 63.7688 	 106.077
| 38> H 	 -27.037 	 65.2841 	 105.425
| 39> H 	 -29.639 	 58.016 	 106.385
| 40> H 	 -33.3958 	 64.192 	 102.327
| 41> *
| 42>
| 43>                          ****END OF INPUT****

CARTESIAN COORDINATES (ANGSTROEM)
---------------------------------
  S    -30.557300   59.655200  104.800000
  C    -30.072800   59.001100  106.323000
  C    -30.267600   59.934100  107.350000
  C    -30.799300   61.112200  106.853000
  C    -30.944800   61.181100  105.458000
  H    -30.908700   61.847200  107.628000
  C    -30.091100   59.698200  108.822000
  H    -30.152200   58.648800  109.060000
  H    -30.998100   60.187600  109.267000
  C    -28.760100   60.291900  109.433000
  H    -28.687200   61.391100  109.274000
  H    -28.908000   60.181800  110.437000
  C    -27.518500   59.618800  109.013000
  H    -27.741000   58.564700  108.901000
  H    -27.255600   59.918600  107.986000
  H    -26.657200   59.919300  109.553000
  S    -32.813800   62.155700  103.651000
  C    -32.684900   63.780800  103.048000
  C    -31.509400   64.369300  103.512000
  C    -30.750200   63.572700  104.493000
  C    -31.356200   62.357400  104.668000
  H    -31.190700   65.347400  103.341000
  C    -29.583400   64.033700  105.247000
  H    -29.597300   63.734500  106.295000
  H    -29.563000   65.043900  105.068000
  C    -28.260700   63.641200  104.580000
  H    -28.279300   63.843500  103.489000
  H    -28.063600   62.558600  104.723000
  C    -26.974300   64.235500  105.186000
  H    -26.118600   64.259300  104.486000
  H    -26.592500   63.768800  106.077000
  H    -27.037000   65.284100  105.425000
  H    -29.639000   58.016000  106.385000
  H    -33.395800   64.192000  102.327000

 Total Charge           Charge          ....    0
 Multiplicity           Mult            ....    1
 Number of Electrons    NEL             ....  134
 Basis Dimension        Dim             ....  322

ORBITAL ENERGIES
----------------

  NO   OCC          E(Eh)            E(eV)
   0   2.0000     -88.968095     -2420.9450
   1   2.0000     -88.962047     -2420.7804
   2   2.0000     -10.329094      -281.0689
   3   2.0000     -10.325423      -280.9690
   4   2.0000     -10.322431      -280.8876
   5   2.0000     -10.311525      -280.5909
   6   2.0000     -10.301419      -280.3159
   7   2.0000     -10.297013      -280.1960
   8   2.0000     -10.295882      -280.1652
   9   2.0000     -10.293772      -280.1078
  10   2.0000     -10.287705      -279.9427
  11   2.0000     -10.287563      -279.9388
  12   2.0000     -10.283825      -279.8371
  13   2.0000     -10.281703      -279.7794
  14   2.0000     -10.274205      -279.5753
  15   2.0000     -10.272113      -279.5184
  16   2.0000      -8.083621      -219.9665
  17   2.0000      -8.076697      -219.7781
  18   2.0000      -6.041875      -164.4078
  19   2.0000      -6.037771      -164.2961
  20   2.0000      -6.035238      -164.2272
  21   2.0000      -6.034863      -164.2170
  22   2.0000      -6.031212      -164.1176
  23   2.0000      -6.027442      -164.0150
  24   2.0000      -1.008674       -27.4474
  25   2.0000      -0.984408       -26.7871
  26   2.0000      -0.916834       -24.9483
  27   2.0000      -0.915075       -24.9005
  28   2.0000      -0.868634       -23.6367
  29   2.0000      -0.856424       -23.3045
  30   2.0000      -0.847613       -23.0647
  31   2.0000      -0.809692       -22.0328
  32   2.0000      -0.787282       -21.4230
  33   2.0000      -0.775941       -21.1144
  34   2.0000      -0.708098       -19.2683
  35   2.0000      -0.700331       -19.0570
  36   2.0000      -0.691453       -18.8154
  37   2.0000      -0.669456       -18.2168
  38   2.0000      -0.638800       -17.3826
  39   2.0000      -0.627654       -17.0793
  40   2.0000      -0.599785       -16.3210
  41   2.0000      -0.574634       -15.6366
  42   2.0000      -0.565158       -15.3787
  43   2.0000      -0.559865       -15.2347
  44   2.0000      -0.541430       -14.7331
  45   2.0000      -0.521112       -14.1802
  46   2.0000      -0.520051       -14.1513
  47   2.0000      -0.513861       -13.9829
  48   2.0000      -0.507245       -13.8028
  49   2.0000      -0.498310       -13.5597
  50   2.0000      -0.489309       -13.3148
  51   2.0000      -0.481294       -13.0967
  52   2.0000      -0.472340       -12.8530
  53   2.0000      -0.462249       -12.5784
  54   2.0000      -0.461730       -12.5643
  55   2.0000      -0.452752       -12.3200
  56   2.0000      -0.448012       -12.1910
  57   2.0000      -0.439885       -11.9699
  58   2.0000      -0.430991       -11.7279
  59   2.0000      -0.427547       -11.6342
  60   2.0000      -0.422421       -11.4946
  61   2.0000      -0.412724       -11.2308
  62   2.0000      -0.410129       -11.1602
  63   2.0000      -0.338183        -9.2024
  64   2.0000      -0.333301        -9.0696
  65   2.0000      -0.326023        -8.8715
  66   2.0000      -0.295053        -8.0288
  67   0.0000       0.037250         1.0136
  68   0.0000       0.063373         1.7245
  69   0.0000       0.116401         3.1674
  70   0.0000       0.120525         3.2796
  71   0.0000       0.125237         3.4079

MULLIKEN ATOMIC CHARGES
-----------------------
   0 S :    0.135807
   1 C :   -0.147785
   2 C :   -0.084804
   3 C :    0.047556
   4 C :   -0.145573
   5 H :   -0.004860
   6 C :    0.019304
   7 H :    0.023211
   8 H :    0.038711
   9 C :   -0.040382
  10 H :    0.023269
  11 H :    0.010004
  12 C :   -0.011895
  13 H :    0.021249
  14 H :    0.022946
  15 H :    0.033750
  16 S :    0.095310
  17 C :   -0.086723
  18 C :    0.004047
  19 C :   -0.065459
  20 C :   -0.176822
  21 H :   -0.008885
  22 C :    0.175336
  23 H :    0.036973
  24 H :   -0.017649
  25 C :   -0.119827
  26 H :    0.037398
  27 H :    0.041444
  28 C :   -0.038777
  29 H :    0.028964
  30 H :    0.027328
  31 H :    0.009353
  32 H :    0.046520
  33 H :    0.070961
Sum of atomic charges:    0.0000000

LOEWDIN ATOMIC CHARGES
----------------------
   0 S :    0.449729
   1 C :   -0.210643
   2 C :   -0.070959
   3 C :   -0.066806
   4 C :   -0.216545
   5 H :    0.026064
   6 C :   -0.027195
   7 H :    0.027190
   8 H :    0.040208
   9 C :   -0.035631
  10 H :    0.025345
  11 H :    0.011006
  12 C :   -0.063409
  13 H :    0.024957
  14 H :    0.029008
  15 H :    0.025634
  16 S :    0.388954
  17 C :   -0.185638
  18 C :   -0.062950
  19 C :   -0.047817
  20 C :   -0.185068
  21 H :    0.016436
  22 C :   -0.025831
  23 H :    0.037940
  24 H :    0.021668
  25 C :   -0.039076
  26 H :    0.029156
  27 H :    0.029267
  28 C :   -0.073827
  29 H :    0.031308
  30 H :    0.021712
  31 H :    0.016905
  32 H :    0.023930
  33 H :    0.034976

  Mayer bond orders larger than 0.100000
B(  0-S ,  1-C ) :   1.1751 B(  0-S ,  4-C ) :   1.1954 B(  1-C ,  2-C ) :   1.5217
B(  1-C ,  4-C ) :   0.1113 B(  1-C , 32-H ) :   0.9746 B(  2-C ,  3-C ) :   1.3470
B(  2-C ,  6-C ) :   1.0163 B(  3-C ,  4-C ) :   1.4829 B(  3-C ,  5-H ) :   0.9898
B(  4-C , 20-C ) :   1.0142 B(  6-C ,  7-H ) :   0.9442 B(  6-C ,  8-H ) :   0.9427
B(  6-C ,  9-C ) :   1.0711 B(  9-C , 10-H ) :   0.9532 B(  9-C , 11-H ) :   0.9529
B(  9-C , 12-C ) :   1.0840 B( 12-C , 13-H ) :   0.9718 B( 12-C , 14-H ) :   0.9680
B( 12-C , 15-H ) :   0.9694 B( 16-S , 17-C ) :   1.1517 B( 16-S , 20-C ) :   1.1330
B( 17-C , 18-C ) :   1.6006 B( 17-C , 33-H ) :   0.9689 B( 18-C , 19-C ) :   1.2293
B( 18-C , 21-H ) :   0.9890 B( 19-C , 20-C ) :   1.6264 B( 19-C , 22-C ) :   1.0668
B( 22-C , 23-H ) :   0.9311 B( 22-C , 24-H ) :   0.8971 B( 22-C , 25-C ) :   1.0626
B( 25-C , 26-H ) :   0.9575 B( 25-C , 27-H ) :   0.9579 B( 25-C , 28-C ) :   1.0760
B( 28-C , 29-H ) :   0.9739 B( 28-C , 30-H ) :   0.9769 B( 28-C , 31-H ) :   0.9716

Dispersion correction           -0.014630239
FINAL SINGLE POINT ENERGY     -1339.870717054753

DIPOLE MOMENT
-------------
                                X             Y             Z
Electronic contribution:    -23.29602      -6.06802     -17.51984
Nuclear contribution   :     23.74204       6.34158      17.96389
                        -----------------------------------------
Total Dipole Moment    :      0.44603       0.27356       0.44404
                        -----------------------------------------
Magnitude (a.u.)       :      0.68626
Magnitude (Debye)      :      1.74433

Rotational constants in cm-1:     0.018696     0.009284     0.007120
Rotational constants in MHz :   560.505751   278.329669   213.441317

                             ****ORCA TERMINATED NORMALLY****
TOTAL RUN TIME: 0 days 0 hours 0 minutes 29 seconds 615 msec
