                         Program Version 4.2.1 -  RELEASE  -
|  1> ! wB97X-D3 SP def2-SVP
|  2> %pal
|  3> nprocs 16
|  4> end
|  5>
|  6> * xyz 0 1
|  7> S 	 -43.6716 	 40.7246 	 85.0664
|  8> C 	 -44.7976 	 40.5782 	 86.3863
|  9> C 	 -45.521 	 39.409 	 86.3628
| 10> C 	 -45.2648 	 38.6138 	 85.1752
| 11> C 	 -44.2721 	 39.1729 	 84.3753
| 12> H 	 -45.8349 	 37.8276 	 84.7742
| 13> C 	 -46.8032 	 39.159 	 87.0931
| 14> H 	 -46.7263 	 39.0066 	 88.1862
| 15> H 	 -47.0557 	 38.1719 	 86.7643
| 16> C 	 -47.9265 	 40.1093 	 86.5941
| 17> H 	 -48.8506 	 39.8474 	 87.1018
| 18> H 	 -47.698 	 41.1729 	 86.8975
| 19> C 	 -48.1515 	 40.1483 	 85.0462
| 20> H 	 -49.1894 	 40.5462 	 84.8047
| 21> H 	 -47.5398 	 40.8895 	 84.6165
| 22> H 	 -48.0573 	 39.1324 	 84.532
| 23> S 	 -42.1502 	 38.533 	 82.7218
| 24> C 	 -42.5107 	 37.8093 	 81.1569
| 25> C 	 -43.8364 	 37.9079 	 80.814
| 26> C 	 -44.6371 	 38.3441 	 81.9451
| 27> C 	 -43.8788 	 38.6264 	 83.0625
| 28> H 	 -44.2267 	 37.7579 	 79.8078
| 29> C 	 -46.1118 	 38.6321 	 81.8173
| 30> H 	 -46.425 	 37.9469 	 82.6481
| 31> H 	 -46.5127 	 38.2086 	 80.8384
| 32> C 	 -46.7026 	 40.0661 	 82.059
| 33> H 	 -46.2633 	 40.556 	 82.9308
| 34> H 	 -47.7314 	 39.9036 	 82.1825
| 35> C 	 -46.3944 	 41.0182 	 80.8552
| 36> H 	 -45.3338 	 41.1211 	 80.7103
| 37> H 	 -46.8099 	 41.9989 	 81.0558
| 38> H 	 -46.8503 	 40.5996 	 79.9603
| 39> H 	 -45.0774 	 41.4374 	 87.0474
| 40> H 	 -41.7604 	 37.4769 	 80.5169
| 41> *
| 42>
| 43>                          ****END OF INPUT****

CARTESIAN COORDINATES (ANGSTROEM)
---------------------------------
  S    -43.671600   40.724600   85.066400
  C    -44.797600   40.578200   86.386300
  C    -45.521000   39.409000   86.362800
  C    -45.264800   38.613800   85.175200
  C    -44.272100   39.172900   84.375300
  H    -45.834900   37.827600   84.774200
  C    -46.803200   39.159000   87.093100
  H    -46.726300   39.006600   88.186200
  H    -47.055700   38.171900   86.764300
  C    -47.926500   40.109300   86.594100
  H    -48.850600   39.847400   87.101800
  H    -47.698000   41.172900   86.897500
  C    -48.151500   40.148300   85.046200
  H    -49.189400   40.546200   84.804700
  H    -47.539800   40.889500   84.616500
  H    -48.057300   39.132400   84.532000
  S    -42.150200   38.533000   82.721800
  C    -42.510700   37.809300   81.156900
  C    -43.836400   37.907900   80.814000
  C    -44.637100   38.344100   81.945100
  C    -43.878800   38.626400   83.062500
  H    -44.226700   37.757900   79.807800
  C    -46.111800   38.632100   81.817300
  H    -46.425000   37.946900   82.648100
  H    -46.512700   38.208600   80.838400
  C    -46.702600   40.066100   82.059000
  H    -46.263300   40.556000   82.930800
  H    -47.731400   39.903600   82.182500
  C    -46.394400   41.018200   80.855200
  H    -45.333800   41.121100   80.710300
  H    -46.809900   41.998900   81.055800
  H    -46.850300   40.599600   79.960300
  H    -45.077400   41.437400   87.047400
  H    -41.760400   37.476900   80.516900

 Total Charge           Charge          ....    0
 Multiplicity           Mult            ....    1
 Number of Electrons    NEL             ....  134
 Basis Dimension        Dim             ....  322

ORBITAL ENERGIES
----------------

  NO   OCC          E(Eh)            E(eV)
   0   2.0000     -88.970824     -2421.0192
   1   2.0000     -88.964205     -2420.8391
   2   2.0000     -10.334511      -281.2163
   3   2.0000     -10.325726      -280.9773
   4   2.0000     -10.317169      -280.7444
   5   2.0000     -10.314454      -280.6706
   6   2.0000     -10.304518      -280.4002
   7   2.0000     -10.300663      -280.2953
   8   2.0000     -10.300353      -280.2869
   9   2.0000     -10.296916      -280.1933
  10   2.0000     -10.296341      -280.1777
  11   2.0000     -10.294484      -280.1271
  12   2.0000     -10.292074      -280.0616
  13   2.0000     -10.286528      -279.9107
  14   2.0000     -10.284550      -279.8568
  15   2.0000     -10.273314      -279.5511
  16   2.0000      -8.084538      -219.9915
  17   2.0000      -8.078857      -219.8369
  18   2.0000      -6.043182      -164.4434
  19   2.0000      -6.039174      -164.3343
  20   2.0000      -6.037398      -164.2860
  21   2.0000      -6.035228      -164.2269
  22   2.0000      -6.033589      -164.1823
  23   2.0000      -6.029393      -164.0681
  24   2.0000      -1.002212       -27.2716
  25   2.0000      -0.981316       -26.7030
  26   2.0000      -0.909089       -24.7376
  27   2.0000      -0.902189       -24.5498
  28   2.0000      -0.866138       -23.5688
  29   2.0000      -0.849701       -23.1215
  30   2.0000      -0.842065       -22.9138
  31   2.0000      -0.814052       -22.1515
  32   2.0000      -0.781933       -21.2775
  33   2.0000      -0.769380       -20.9359
  34   2.0000      -0.709210       -19.2986
  35   2.0000      -0.705201       -19.1895
  36   2.0000      -0.684855       -18.6359
  37   2.0000      -0.667882       -18.1740
  38   2.0000      -0.642345       -17.4791
  39   2.0000      -0.607898       -16.5418
  40   2.0000      -0.589394       -16.0382
  41   2.0000      -0.571606       -15.5542
  42   2.0000      -0.551179       -14.9983
  43   2.0000      -0.548842       -14.9347
  44   2.0000      -0.545620       -14.8471
  45   2.0000      -0.534897       -14.5553
  46   2.0000      -0.519834       -14.1454
  47   2.0000      -0.509694       -13.8695
  48   2.0000      -0.497808       -13.5461
  49   2.0000      -0.492746       -13.4083
  50   2.0000      -0.482613       -13.1326
  51   2.0000      -0.477398       -12.9907
  52   2.0000      -0.471914       -12.8414
  53   2.0000      -0.467706       -12.7269
  54   2.0000      -0.456215       -12.4142
  55   2.0000      -0.450089       -12.2475
  56   2.0000      -0.443980       -12.0813
  57   2.0000      -0.441430       -12.0119
  58   2.0000      -0.433650       -11.8002
  59   2.0000      -0.425799       -11.5866
  60   2.0000      -0.417888       -11.3713
  61   2.0000      -0.414472       -11.2784
  62   2.0000      -0.410844       -11.1796
  63   2.0000      -0.349099        -9.4995
  64   2.0000      -0.332437        -9.0461
  65   2.0000      -0.326635        -8.8882
  66   2.0000      -0.288572        -7.8525
  67   0.0000       0.030164         0.8208
  68   0.0000       0.058213         1.5841
  69   0.0000       0.102372         2.7857
  70   0.0000       0.116250         3.1633
  71   0.0000       0.122974         3.3463

MULLIKEN ATOMIC CHARGES
-----------------------
   0 S :    0.110233
   1 C :   -0.143304
   2 C :   -0.065351
   3 C :    0.024724
   4 C :   -0.144771
   5 H :    0.003941
   6 C :    0.066931
   7 H :    0.041458
   8 H :    0.006546
   9 C :   -0.065263
  10 H :    0.031888
  11 H :    0.030273
  12 C :   -0.083592
  13 H :    0.035906
  14 H :    0.033034
  15 H :    0.047560
  16 S :    0.098727
  17 C :   -0.066610
  18 C :   -0.022661
  19 C :   -0.049301
  20 C :   -0.178867
  21 H :    0.023916
  22 C :    0.011951
  23 H :    0.029611
  24 H :    0.027528
  25 C :   -0.054210
  26 H :    0.053689
  27 H :    0.033404
  28 C :   -0.034254
  29 H :    0.038126
  30 H :    0.032352
  31 H :    0.019712
  32 H :    0.071028
  33 H :    0.035646
Sum of atomic charges:    0.0000000

LOEWDIN ATOMIC CHARGES
----------------------
   0 S :    0.384996
   1 C :   -0.204604
   2 C :   -0.065317
   3 C :   -0.052804
   4 C :   -0.175733
   5 H :    0.022270
   6 C :   -0.037334
   7 H :    0.035930
   8 H :    0.024865
   9 C :   -0.035922
  10 H :    0.021155
  11 H :    0.026113
  12 C :   -0.071334
  13 H :    0.034724
  14 H :    0.018383
  15 H :    0.030473
  16 S :    0.390922
  17 C :   -0.165232
  18 C :   -0.068526
  19 C :   -0.059536
  20 C :   -0.198761
  21 H :    0.034794
  22 C :   -0.041193
  23 H :    0.036606
  24 H :    0.033600
  25 C :   -0.027978
  26 H :    0.025987
  27 H :    0.017916
  28 C :   -0.058408
  29 H :    0.025094
  30 H :    0.024471
  31 H :    0.019783
  32 H :    0.039748
  33 H :    0.014853

  Mayer bond orders larger than 0.100000
B(  0-S ,  1-C ) :   1.1301 B(  0-S ,  4-C ) :   1.1273 B(  1-C ,  2-C ) :   1.6313
B(  1-C , 32-H ) :   0.9594 B(  2-C ,  3-C ) :   1.2062 B(  2-C ,  6-C ) :   1.0336
B(  3-C ,  4-C ) :   1.6068 B(  3-C ,  5-H ) :   0.9975 B(  4-C , 20-C ) :   1.0421
B(  6-C ,  7-H ) :   0.9381 B(  6-C ,  8-H ) :   0.9399 B(  6-C ,  9-C ) :   1.0627
B(  9-C , 10-H ) :   0.9604 B(  9-C , 11-H ) :   0.9582 B(  9-C , 12-C ) :   1.0679
B( 12-C , 13-H ) :   0.9692 B( 12-C , 14-H ) :   0.9709 B( 12-C , 15-H ) :   0.9686
B( 16-S , 17-C ) :   1.1509 B( 16-S , 20-C ) :   1.1228 B( 17-C , 18-C ) :   1.6154
B( 17-C , 33-H ) :   0.9753 B( 18-C , 19-C ) :   1.2276 B( 18-C , 21-H ) :   0.9891
B( 19-C , 20-C ) :   1.6128 B( 19-C , 22-C ) :   1.0201 B( 22-C , 23-H ) :   0.9264
B( 22-C , 24-H ) :   0.9387 B( 22-C , 25-C ) :   1.0651 B( 25-C , 26-H ) :   0.9474
B( 25-C , 27-H ) :   0.9482 B( 25-C , 28-C ) :   1.0719 B( 28-C , 29-H ) :   0.9792
B( 28-C , 30-H ) :   0.9754 B( 28-C , 31-H ) :   0.9760

Dispersion correction           -0.017875383
FINAL SINGLE POINT ENERGY     -1339.867700566520

DIPOLE MOMENT
-------------
                                X             Y             Z
Electronic contribution:     27.16080      -4.35988       2.47032
Nuclear contribution   :    -27.94989       4.45069      -2.67468
                        -----------------------------------------
Total Dipole Moment    :     -0.78910       0.09081      -0.20436
                        -----------------------------------------
Magnitude (a.u.)       :      0.82017
Magnitude (Debye)      :      2.08472

Rotational constants in cm-1:     0.020540     0.010571     0.008326
Rotational constants in MHz :   615.774852   316.907361   249.617481

                             ****ORCA TERMINATED NORMALLY****
TOTAL RUN TIME: 0 days 0 hours 0 minutes 34 seconds 810 msec
