                         Program Version 4.2.1 -  RELEASE  -
|  1> ! wB97X-D3 SP def2-SVP
|  2> %pal
|  3> nprocs 16
|  4> end
|  5>
|  6> * xyz 0 1
|  7> S 	 -37.2006 	 25.4546 	 76.5016
|  8> C 	 -36.6866 	 25.7601 	 78.1049
|  9> C 	 -37.6104 	 25.2119 	 79.0321
| 10> C 	 -38.6679 	 24.515 	 78.393
| 11> C 	 -38.671 	 24.6574 	 77.039
| 12> H 	 -39.6026 	 24.0918 	 78.7962
| 13> C 	 -37.3913 	 25.2717 	 80.5009
| 14> H 	 -36.384 	 25.7432 	 80.6175
| 15> H 	 -37.2572 	 24.292 	 80.9553
| 16> C 	 -38.5264 	 26.0446 	 81.245
| 17> H 	 -38.8297 	 26.9829 	 80.7675
| 18> H 	 -39.4324 	 25.4839 	 81.1505
| 19> C 	 -38.2712 	 26.3453 	 82.6675
| 20> H 	 -37.4515 	 27.0911 	 82.6181
| 21> H 	 -39.1421 	 26.8509 	 83.1887
| 22> H 	 -37.9009 	 25.5152 	 83.2458
| 23> S 	 -39.3345 	 22.3813 	 75.8063
| 24> C 	 -40.8404 	 22.4952 	 74.864
| 25> C 	 -41.3772 	 23.7395 	 74.6478
| 26> C 	 -40.628 	 24.6942 	 75.3082
| 27> C 	 -39.5851 	 24.1116 	 76.0777
| 28> H 	 -42.2929 	 23.8968 	 74.1124
| 29> C 	 -41.0151 	 26.1155 	 75.3323
| 30> H 	 -40.4536 	 26.6141 	 74.5322
| 31> H 	 -40.657 	 26.5332 	 76.234
| 32> C 	 -42.513 	 26.4194 	 75.3523
| 33> H 	 -42.9586 	 26.1501 	 74.3636
| 34> H 	 -42.6234 	 27.5047 	 75.3921
| 35> C 	 -43.2813 	 25.6779 	 76.5018
| 36> H 	 -43.1079 	 24.6088 	 76.4262
| 37> H 	 -44.3665 	 25.8235 	 76.4526
| 38> H 	 -43.0187 	 26.108 	 77.4026
| 39> H 	 -35.8238 	 26.326 	 78.3174
| 40> H 	 -41.3358 	 21.6233 	 74.4402
| 41> *
| 42>
| 43>                          ****END OF INPUT****

CARTESIAN COORDINATES (ANGSTROEM)
---------------------------------
  S    -37.200600   25.454600   76.501600
  C    -36.686600   25.760100   78.104900
  C    -37.610400   25.211900   79.032100
  C    -38.667900   24.515000   78.393000
  C    -38.671000   24.657400   77.039000
  H    -39.602600   24.091800   78.796200
  C    -37.391300   25.271700   80.500900
  H    -36.384000   25.743200   80.617500
  H    -37.257200   24.292000   80.955300
  C    -38.526400   26.044600   81.245000
  H    -38.829700   26.982900   80.767500
  H    -39.432400   25.483900   81.150500
  C    -38.271200   26.345300   82.667500
  H    -37.451500   27.091100   82.618100
  H    -39.142100   26.850900   83.188700
  H    -37.900900   25.515200   83.245800
  S    -39.334500   22.381300   75.806300
  C    -40.840400   22.495200   74.864000
  C    -41.377200   23.739500   74.647800
  C    -40.628000   24.694200   75.308200
  C    -39.585100   24.111600   76.077700
  H    -42.292900   23.896800   74.112400
  C    -41.015100   26.115500   75.332300
  H    -40.453600   26.614100   74.532200
  H    -40.657000   26.533200   76.234000
  C    -42.513000   26.419400   75.352300
  H    -42.958600   26.150100   74.363600
  H    -42.623400   27.504700   75.392100
  C    -43.281300   25.677900   76.501800
  H    -43.107900   24.608800   76.426200
  H    -44.366500   25.823500   76.452600
  H    -43.018700   26.108000   77.402600
  H    -35.823800   26.326000   78.317400
  H    -41.335800   21.623300   74.440200

 Total Charge           Charge          ....    0
 Multiplicity           Mult            ....    1
 Number of Electrons    NEL             ....  134
 Basis Dimension        Dim             ....  322

ORBITAL ENERGIES
----------------

  NO   OCC          E(Eh)            E(eV)
   0   2.0000     -88.970220     -2421.0028
   1   2.0000     -88.959555     -2420.7125
   2   2.0000     -10.321323      -280.8575
   3   2.0000     -10.319014      -280.7946
   4   2.0000     -10.316764      -280.7334
   5   2.0000     -10.310134      -280.5530
   6   2.0000     -10.300393      -280.2879
   7   2.0000     -10.299970      -280.2764
   8   2.0000     -10.292395      -280.0703
   9   2.0000     -10.291996      -280.0594
  10   2.0000     -10.290413      -280.0164
  11   2.0000     -10.288082      -279.9529
  12   2.0000     -10.282765      -279.8083
  13   2.0000     -10.279728      -279.7256
  14   2.0000     -10.277732      -279.6713
  15   2.0000     -10.274126      -279.5732
  16   2.0000      -8.084127      -219.9803
  17   2.0000      -8.075151      -219.7360
  18   2.0000      -6.042315      -164.4197
  19   2.0000      -6.039112      -164.3326
  20   2.0000      -6.034892      -164.2178
  21   2.0000      -6.033401      -164.1772
  22   2.0000      -6.029399      -164.0683
  23   2.0000      -6.026282      -163.9835
  24   2.0000      -1.007265       -27.4091
  25   2.0000      -0.984344       -26.7854
  26   2.0000      -0.914273       -24.8786
  27   2.0000      -0.910733       -24.7823
  28   2.0000      -0.872729       -23.7482
  29   2.0000      -0.852431       -23.1958
  30   2.0000      -0.847259       -23.0551
  31   2.0000      -0.818164       -22.2634
  32   2.0000      -0.785859       -21.3843
  33   2.0000      -0.762520       -20.7492
  34   2.0000      -0.709910       -19.3176
  35   2.0000      -0.698325       -19.0024
  36   2.0000      -0.689665       -18.7667
  37   2.0000      -0.664253       -18.0753
  38   2.0000      -0.647393       -17.6164
  39   2.0000      -0.612486       -16.6666
  40   2.0000      -0.597358       -16.2549
  41   2.0000      -0.570515       -15.5245
  42   2.0000      -0.559440       -15.2231
  43   2.0000      -0.553514       -15.0619
  44   2.0000      -0.542283       -14.7563
  45   2.0000      -0.527903       -14.3650
  46   2.0000      -0.522004       -14.2045
  47   2.0000      -0.514429       -13.9983
  48   2.0000      -0.500937       -13.6312
  49   2.0000      -0.490260       -13.3406
  50   2.0000      -0.488763       -13.2999
  51   2.0000      -0.480756       -13.0820
  52   2.0000      -0.467129       -12.7112
  53   2.0000      -0.461966       -12.5707
  54   2.0000      -0.459289       -12.4979
  55   2.0000      -0.452624       -12.3165
  56   2.0000      -0.446132       -12.1399
  57   2.0000      -0.441527       -12.0146
  58   2.0000      -0.435156       -11.8412
  59   2.0000      -0.426659       -11.6100
  60   2.0000      -0.421144       -11.4599
  61   2.0000      -0.415161       -11.2971
  62   2.0000      -0.407506       -11.0888
  63   2.0000      -0.343333        -9.3426
  64   2.0000      -0.333606        -9.0779
  65   2.0000      -0.311331        -8.4717
  66   2.0000      -0.298793        -8.1306
  67   0.0000       0.037028         1.0076
  68   0.0000       0.058921         1.6033
  69   0.0000       0.102294         2.7836
  70   0.0000       0.125649         3.4191
  71   0.0000       0.130399         3.5484

MULLIKEN ATOMIC CHARGES
-----------------------
   0 S :    0.112426
   1 C :   -0.108088
   2 C :   -0.088079
   3 C :    0.041565
   4 C :   -0.198020
   5 H :    0.027177
   6 C :    0.074248
   7 H :    0.012041
   8 H :    0.035065
   9 C :   -0.073970
  10 H :    0.023815
  11 H :    0.014689
  12 C :   -0.047033
  13 H :    0.023815
  14 H :    0.046122
  15 H :    0.027674
  16 S :    0.132899
  17 C :   -0.074284
  18 C :   -0.048433
  19 C :   -0.016275
  20 C :   -0.210125
  21 H :    0.016693
  22 C :    0.123041
  23 H :    0.045640
  24 H :    0.011395
  25 C :   -0.115822
  26 H :    0.026244
  27 H :    0.032197
  28 C :   -0.021862
  29 H :    0.045850
  30 H :    0.030801
  31 H :    0.017519
  32 H :    0.036625
  33 H :    0.044449
Sum of atomic charges:   -0.0000000

LOEWDIN ATOMIC CHARGES
----------------------
   0 S :    0.416021
   1 C :   -0.203009
   2 C :   -0.063704
   3 C :   -0.066807
   4 C :   -0.206629
   5 H :    0.040311
   6 C :   -0.031721
   7 H :    0.030739
   8 H :    0.032744
   9 C :   -0.047365
  10 H :    0.027128
  11 H :    0.016417
  12 C :   -0.069207
  13 H :    0.026651
  14 H :    0.035190
  15 H :    0.020037
  16 S :    0.400414
  17 C :   -0.165364
  18 C :   -0.071729
  19 C :   -0.045973
  20 C :   -0.205917
  21 H :    0.034195
  22 C :   -0.034267
  23 H :    0.042099
  24 H :    0.026959
  25 C :   -0.040011
  26 H :    0.018932
  27 H :    0.026684
  28 C :   -0.057245
  29 H :    0.029076
  30 H :    0.029538
  31 H :    0.015409
  32 H :    0.018216
  33 H :    0.022189

  Mayer bond orders larger than 0.100000
B(  0-S ,  1-C ) :   1.1635 B(  0-S ,  4-C ) :   1.1563 B(  1-C ,  2-C ) :   1.5700
B(  1-C ,  4-C ) :   0.1024 B(  1-C , 32-H ) :   0.9763 B(  2-C ,  3-C ) :   1.2383
B(  2-C ,  6-C ) :   1.0452 B(  3-C ,  4-C ) :   1.5958 B(  3-C ,  5-H ) :   0.9869
B(  4-C , 20-C ) :   1.0256 B(  6-C ,  7-H ) :   0.9418 B(  6-C ,  8-H ) :   0.9332
B(  6-C ,  9-C ) :   1.0433 B(  9-C , 10-H ) :   0.9560 B(  9-C , 11-H ) :   0.9512
B(  9-C , 12-C ) :   1.0954 B( 12-C , 13-H ) :   0.9753 B( 12-C , 14-H ) :   0.9710
B( 12-C , 15-H ) :   0.9711 B( 16-S , 17-C ) :   1.1521 B( 16-S , 20-C ) :   1.1504
B( 17-C , 18-C ) :   1.6189 B( 17-C , 20-C ) :   0.1105 B( 17-C , 33-H ) :   0.9598
B( 18-C , 19-C ) :   1.2457 B( 18-C , 21-H ) :   0.9909 B( 19-C , 20-C ) :   1.5741
B( 19-C , 22-C ) :   1.0449 B( 22-C , 23-H ) :   0.9168 B( 22-C , 24-H ) :   0.9249
B( 22-C , 25-C ) :   1.0743 B( 25-C , 26-H ) :   0.9509 B( 25-C , 27-H ) :   0.9562
B( 25-C , 28-C ) :   1.0690 B( 28-C , 29-H ) :   0.9719 B( 28-C , 30-H ) :   0.9734
B( 28-C , 31-H ) :   0.9760

Dispersion correction           -0.014416459
FINAL SINGLE POINT ENERGY     -1339.871814082502

DIPOLE MOMENT
-------------
                                X             Y             Z
Electronic contribution:     13.40867     -13.40783     -17.78260
Nuclear contribution   :    -13.84605      13.65356      18.02192
                        -----------------------------------------
Total Dipole Moment    :     -0.43738       0.24573       0.23932
                        -----------------------------------------
Magnitude (a.u.)       :      0.55584
Magnitude (Debye)      :      1.41283

Rotational constants in cm-1:     0.019182     0.008094     0.006974
Rotational constants in MHz :   575.051503   242.652017   209.076875

                             ****ORCA TERMINATED NORMALLY****
TOTAL RUN TIME: 0 days 0 hours 0 minutes 30 seconds 718 msec
