                         Program Version 4.2.1 -  RELEASE  -
|  1> ! wB97X-D3 SP def2-SVP
|  2> %pal
|  3> nprocs 16
|  4> end
|  5>
|  6> * xyz 0 1
|  7> S 	 -13.3987 	 54.2146 	 29.2208
|  8> C 	 -12.6215 	 53.1608 	 27.9732
|  9> C 	 -11.4689 	 52.5718 	 28.5668
| 10> C 	 -11.3763 	 52.8004 	 29.9909
| 11> C 	 -12.2871 	 53.6597 	 30.5173
| 12> H 	 -10.6529 	 52.5531 	 30.7011
| 13> C 	 -10.5992 	 51.4977 	 27.9028
| 14> H 	 -9.63265 	 51.6424 	 28.2961
| 15> H 	 -10.5096 	 51.7751 	 26.8178
| 16> C 	 -10.9653 	 50.0385 	 28.0659
| 17> H 	 -11.2381 	 49.8265 	 29.1306
| 18> H 	 -11.8528 	 49.8265 	 27.5159
| 19> C 	 -9.71843 	 49.2514 	 27.6001
| 20> H 	 -9.48602 	 49.3836 	 26.6147
| 21> H 	 -8.82816 	 49.719 	 28.0366
| 22> H 	 -9.78325 	 48.1919 	 27.8787
| 23> S 	 -11.6346 	 55.8763 	 31.9921
| 24> C 	 -11.7504 	 55.7314 	 33.7339
| 25> C 	 -12.168 	 54.4973 	 34.1191
| 26> C 	 -12.3725 	 53.5816 	 33.006
| 27> C 	 -12.2102 	 54.2452 	 31.8309
| 28> H 	 -12.3559 	 54.277 	 35.1104
| 29> C 	 -12.7473 	 52.1709 	 33.1842
| 30> H 	 -11.9171 	 51.6547 	 33.786
| 31> H 	 -12.7183 	 51.5645 	 32.3133
| 32> C 	 -14.2459 	 51.9628 	 33.6858
| 33> H 	 -14.9431 	 52.5402 	 33.0066
| 34> H 	 -14.441 	 52.5022 	 34.592
| 35> C 	 -14.6286 	 50.4506 	 33.765
| 36> H 	 -14.062 	 49.853 	 33.1069
| 37> H 	 -15.6889 	 50.1986 	 33.5502
| 38> H 	 -14.397 	 50.0513 	 34.7284
| 39> H 	 -12.99 	 53.1122 	 26.9834
| 40> H 	 -11.7154 	 56.6724 	 34.4166
| 41> *
| 42>
| 43>                          ****END OF INPUT****

CARTESIAN COORDINATES (ANGSTROEM)
---------------------------------
  S    -13.398700   54.214600   29.220800
  C    -12.621500   53.160800   27.973200
  C    -11.468900   52.571800   28.566800
  C    -11.376300   52.800400   29.990900
  C    -12.287100   53.659700   30.517300
  H    -10.652900   52.553100   30.701100
  C    -10.599200   51.497700   27.902800
  H     -9.632650   51.642400   28.296100
  H    -10.509600   51.775100   26.817800
  C    -10.965300   50.038500   28.065900
  H    -11.238100   49.826500   29.130600
  H    -11.852800   49.826500   27.515900
  C     -9.718430   49.251400   27.600100
  H     -9.486020   49.383600   26.614700
  H     -8.828160   49.719000   28.036600
  H     -9.783250   48.191900   27.878700
  S    -11.634600   55.876300   31.992100
  C    -11.750400   55.731400   33.733900
  C    -12.168000   54.497300   34.119100
  C    -12.372500   53.581600   33.006000
  C    -12.210200   54.245200   31.830900
  H    -12.355900   54.277000   35.110400
  C    -12.747300   52.170900   33.184200
  H    -11.917100   51.654700   33.786000
  H    -12.718300   51.564500   32.313300
  C    -14.245900   51.962800   33.685800
  H    -14.943100   52.540200   33.006600
  H    -14.441000   52.502200   34.592000
  C    -14.628600   50.450600   33.765000
  H    -14.062000   49.853000   33.106900
  H    -15.688900   50.198600   33.550200
  H    -14.397000   50.051300   34.728400
  H    -12.990000   53.112200   26.983400
  H    -11.715400   56.672400   34.416600

 Total Charge           Charge          ....    0
 Multiplicity           Mult            ....    1
 Number of Electrons    NEL             ....  134
 Basis Dimension        Dim             ....  322

ORBITAL ENERGIES
----------------

  NO   OCC          E(Eh)            E(eV)
   0   2.0000     -88.963870     -2420.8300
   1   2.0000     -88.961309     -2420.7603
   2   2.0000     -10.324791      -280.9518
   3   2.0000     -10.324144      -280.9342
   4   2.0000     -10.322370      -280.8860
   5   2.0000     -10.319843      -280.8172
   6   2.0000     -10.310086      -280.5517
   7   2.0000     -10.300632      -280.2944
   8   2.0000     -10.295420      -280.1526
   9   2.0000     -10.294789      -280.1355
  10   2.0000     -10.289818      -280.0002
  11   2.0000     -10.288691      -279.9695
  12   2.0000     -10.288430      -279.9624
  13   2.0000     -10.287231      -279.9298
  14   2.0000     -10.276406      -279.6352
  15   2.0000     -10.274167      -279.5743
  16   2.0000      -8.079211      -219.8465
  17   2.0000      -8.074630      -219.7219
  18   2.0000      -6.037753      -164.2956
  19   2.0000      -6.033791      -164.1878
  20   2.0000      -6.033303      -164.1745
  21   2.0000      -6.029724      -164.0771
  22   2.0000      -6.029234      -164.0638
  23   2.0000      -6.025406      -163.9596
  24   2.0000      -1.007638       -27.4192
  25   2.0000      -0.975560       -26.5463
  26   2.0000      -0.913414       -24.8553
  27   2.0000      -0.904102       -24.6019
  28   2.0000      -0.871951       -23.7270
  29   2.0000      -0.850272       -23.1371
  30   2.0000      -0.841381       -22.8952
  31   2.0000      -0.816559       -22.2197
  32   2.0000      -0.780649       -21.2425
  33   2.0000      -0.767487       -20.8844
  34   2.0000      -0.711636       -19.3646
  35   2.0000      -0.708482       -19.2788
  36   2.0000      -0.696506       -18.9529
  37   2.0000      -0.662264       -18.0211
  38   2.0000      -0.652644       -17.7593
  39   2.0000      -0.615043       -16.7362
  40   2.0000      -0.600964       -16.3531
  41   2.0000      -0.569589       -15.4993
  42   2.0000      -0.559481       -15.2242
  43   2.0000      -0.548674       -14.9302
  44   2.0000      -0.530272       -14.4294
  45   2.0000      -0.523454       -14.2439
  46   2.0000      -0.519634       -14.1400
  47   2.0000      -0.513855       -13.9827
  48   2.0000      -0.503660       -13.7053
  49   2.0000      -0.493729       -13.4350
  50   2.0000      -0.492250       -13.3948
  51   2.0000      -0.475380       -12.9358
  52   2.0000      -0.470847       -12.8124
  53   2.0000      -0.463615       -12.6156
  54   2.0000      -0.454920       -12.3790
  55   2.0000      -0.452516       -12.3136
  56   2.0000      -0.443933       -12.0800
  57   2.0000      -0.440448       -11.9852
  58   2.0000      -0.437560       -11.9066
  59   2.0000      -0.430298       -11.7090
  60   2.0000      -0.422164       -11.4877
  61   2.0000      -0.409290       -11.1373
  62   2.0000      -0.407893       -11.0993
  63   2.0000      -0.342524        -9.3206
  64   2.0000      -0.328105        -8.9282
  65   2.0000      -0.324472        -8.8293
  66   2.0000      -0.303788        -8.2665
  67   0.0000       0.036733         0.9996
  68   0.0000       0.062838         1.7099
  69   0.0000       0.117107         3.1866
  70   0.0000       0.120560         3.2806
  71   0.0000       0.125222         3.4075

MULLIKEN ATOMIC CHARGES
-----------------------
   0 S :    0.078335
   1 C :   -0.110470
   2 C :   -0.063585
   3 C :    0.069431
   4 C :   -0.181491
   5 H :   -0.007345
   6 C :    0.021533
   7 H :    0.006490
   8 H :    0.028853
   9 C :   -0.029808
  10 H :    0.030882
  11 H :    0.022107
  12 C :   -0.012192
  13 H :    0.006924
  14 H :    0.015031
  15 H :    0.043322
  16 S :    0.117918
  17 C :   -0.123469
  18 C :    0.008525
  19 C :   -0.031886
  20 C :   -0.164582
  21 H :   -0.009773
  22 C :    0.057433
  23 H :    0.044116
  24 H :    0.010041
  25 C :   -0.091131
  26 H :    0.040593
  27 H :    0.021964
  28 C :   -0.014903
  29 H :    0.012308
  30 H :    0.041116
  31 H :    0.023636
  32 H :    0.048294
  33 H :    0.091783
Sum of atomic charges:   -0.0000000

LOEWDIN ATOMIC CHARGES
----------------------
   0 S :    0.355629
   1 C :   -0.168226
   2 C :   -0.057274
   3 C :   -0.057789
   4 C :   -0.177480
   5 H :    0.025128
   6 C :   -0.036567
   7 H :    0.020231
   8 H :    0.033692
   9 C :   -0.033435
  10 H :    0.028500
  11 H :    0.019700
  12 C :   -0.057588
  13 H :    0.013323
  14 H :    0.027997
  15 H :    0.029437
  16 S :    0.404458
  17 C :   -0.194311
  18 C :   -0.058924
  19 C :   -0.054850
  20 C :   -0.204465
  21 H :    0.018857
  22 C :   -0.039254
  23 H :    0.042346
  24 H :    0.023567
  25 C :   -0.035382
  26 H :    0.034183
  27 H :    0.016181
  28 C :   -0.064637
  29 H :    0.017858
  30 H :    0.033193
  31 H :    0.023306
  32 H :    0.022462
  33 H :    0.050134

  Mayer bond orders larger than 0.100000
B(  0-S ,  1-C ) :   1.1306 B(  0-S ,  4-C ) :   1.1195 B(  1-C ,  2-C ) :   1.5908
B(  1-C , 32-H ) :   0.9836 B(  2-C ,  3-C ) :   1.2014 B(  2-C ,  6-C ) :   1.0352
B(  3-C ,  4-C ) :   1.6235 B(  3-C ,  5-H ) :   0.9938 B(  4-C , 20-C ) :   1.0260
B(  6-C ,  7-H ) :   0.9397 B(  6-C ,  8-H ) :   0.9420 B(  6-C ,  9-C ) :   1.0613
B(  9-C , 10-H ) :   0.9562 B(  9-C , 11-H ) :   0.9535 B(  9-C , 12-C ) :   1.0666
B( 12-C , 13-H ) :   0.9730 B( 12-C , 14-H ) :   0.9729 B( 12-C , 15-H ) :   0.9734
B( 16-S , 17-C ) :   1.1333 B( 16-S , 20-C ) :   1.1390 B( 17-C , 18-C ) :   1.6490
B( 17-C , 33-H ) :   0.9515 B( 18-C , 19-C ) :   1.1925 B( 18-C , 21-H ) :   1.0038
B( 19-C , 20-C ) :   1.6308 B( 19-C , 22-C ) :   1.0729 B( 22-C , 23-H ) :   0.9312
B( 22-C , 24-H ) :   0.9222 B( 22-C , 25-C ) :   1.0375 B( 25-C , 26-H ) :   0.9585
B( 25-C , 27-H ) :   0.9652 B( 25-C , 28-C ) :   1.0622 B( 28-C , 29-H ) :   0.9759
B( 28-C , 30-H ) :   0.9775 B( 28-C , 31-H ) :   0.9759

Dispersion correction           -0.013969325
FINAL SINGLE POINT ENERGY     -1339.858590953479

DIPOLE MOMENT
-------------
                                X             Y             Z
Electronic contribution:     -1.97293      28.13777      -0.36651
Nuclear contribution   :      2.13717     -28.72577       0.53415
                        -----------------------------------------
Total Dipole Moment    :      0.16424      -0.58800       0.16765
                        -----------------------------------------
Magnitude (a.u.)       :      0.63311
Magnitude (Debye)      :      1.60923

Rotational constants in cm-1:     0.016815     0.008440     0.006855
Rotational constants in MHz :   504.089385   253.021582   205.500873

                             ****ORCA TERMINATED NORMALLY****
TOTAL RUN TIME: 0 days 0 hours 0 minutes 33 seconds 24 msec
