                         Program Version 4.2.1 -  RELEASE  -
|  1> ! wB97X-D3 SP def2-SVP
|  2> %pal
|  3> nprocs 16
|  4> end
|  5>
|  6> * xyz 0 1
|  7> S 	 -0.57332 	 -13.1901 	 70.4659
|  8> C 	 0.33637 	 -14.0663 	 69.2313
|  9> C 	 0.913297 	 -15.2451 	 69.7945
| 10> C 	 0.730623 	 -15.3034 	 71.2278
| 11> C 	 -0.129106 	 -14.3139 	 71.6555
| 12> H 	 1.08154 	 -16.0468 	 71.9468
| 13> C 	 1.61046 	 -16.448 	 69.0889
| 14> H 	 0.74249 	 -17.0174 	 68.6033
| 15> H 	 2.06722 	 -17.0284 	 69.857
| 16> C 	 2.71765 	 -16.0994 	 68.0586
| 17> H 	 2.27167 	 -15.4522 	 67.2793
| 18> H 	 3.50617 	 -15.6265 	 68.6456
| 19> C 	 3.14719 	 -17.4051 	 67.5191
| 20> H 	 3.85616 	 -17.9238 	 68.2438
| 21> H 	 2.33633 	 -18.0977 	 67.2743
| 22> H 	 3.89033 	 -17.2223 	 66.7599
| 23> S 	 -2.34909 	 -13.7926 	 73.196
| 24> C 	 -2.19638 	 -13.4574 	 74.8701
| 25> C 	 -1.00151 	 -13.8129 	 75.329
| 26> C 	 -0.0525502 	 -14.1697 	 74.3029
| 27> C 	 -0.652767 	 -14.1598 	 73.044
| 28> H 	 -0.937749 	 -13.8822 	 76.3531
| 29> C 	 1.46032 	 -14.3822 	 74.596
| 30> H 	 1.9833 	 -14.5636 	 73.6053
| 31> H 	 1.47607 	 -15.2833 	 75.1482
| 32> C 	 2.14854 	 -13.3158 	 75.453
| 33> H 	 1.60547 	 -13.2698 	 76.3584
| 34> H 	 2.05648 	 -12.3061 	 74.9904
| 35> C 	 3.57919 	 -13.6037 	 75.8023
| 36> H 	 4.27768 	 -13.6502 	 74.9745
| 37> H 	 3.73138 	 -14.4674 	 76.491
| 38> H 	 3.89578 	 -12.7799 	 76.4138
| 39> H 	 0.571618 	 -13.7855 	 68.2277
| 40> H 	 -2.97216 	 -13.1336 	 75.5464
| 41> *
| 42>
| 43>                          ****END OF INPUT****

CARTESIAN COORDINATES (ANGSTROEM)
---------------------------------
  S     -0.573320  -13.190100   70.465900
  C      0.336370  -14.066300   69.231300
  C      0.913297  -15.245100   69.794500
  C      0.730623  -15.303400   71.227800
  C     -0.129106  -14.313900   71.655500
  H      1.081540  -16.046800   71.946800
  C      1.610460  -16.448000   69.088900
  H      0.742490  -17.017400   68.603300
  H      2.067220  -17.028400   69.857000
  C      2.717650  -16.099400   68.058600
  H      2.271670  -15.452200   67.279300
  H      3.506170  -15.626500   68.645600
  C      3.147190  -17.405100   67.519100
  H      3.856160  -17.923800   68.243800
  H      2.336330  -18.097700   67.274300
  H      3.890330  -17.222300   66.759900
  S     -2.349090  -13.792600   73.196000
  C     -2.196380  -13.457400   74.870100
  C     -1.001510  -13.812900   75.329000
  C     -0.052550  -14.169700   74.302900
  C     -0.652767  -14.159800   73.044000
  H     -0.937749  -13.882200   76.353100
  C      1.460320  -14.382200   74.596000
  H      1.983300  -14.563600   73.605300
  H      1.476070  -15.283300   75.148200
  C      2.148540  -13.315800   75.453000
  H      1.605470  -13.269800   76.358400
  H      2.056480  -12.306100   74.990400
  C      3.579190  -13.603700   75.802300
  H      4.277680  -13.650200   74.974500
  H      3.731380  -14.467400   76.491000
  H      3.895780  -12.779900   76.413800
  H      0.571618  -13.785500   68.227700
  H     -2.972160  -13.133600   75.546400

 Total Charge           Charge          ....    0
 Multiplicity           Mult            ....    1
 Number of Electrons    NEL             ....  134
 Basis Dimension        Dim             ....  322

ORBITAL ENERGIES
----------------

  NO   OCC          E(Eh)            E(eV)
   0   2.0000     -88.969683     -2420.9882
   1   2.0000     -88.959435     -2420.7093
   2   2.0000     -10.326260      -280.9918
   3   2.0000     -10.325929      -280.9828
   4   2.0000     -10.314695      -280.6771
   5   2.0000     -10.307257      -280.4747
   6   2.0000     -10.305856      -280.4366
   7   2.0000     -10.304670      -280.4043
   8   2.0000     -10.296851      -280.1916
   9   2.0000     -10.292627      -280.0766
  10   2.0000     -10.291660      -280.0503
  11   2.0000     -10.287963      -279.9497
  12   2.0000     -10.282594      -279.8036
  13   2.0000     -10.280897      -279.7574
  14   2.0000     -10.279323      -279.7146
  15   2.0000     -10.276028      -279.6249
  16   2.0000      -8.084583      -219.9927
  17   2.0000      -8.075354      -219.7416
  18   2.0000      -6.043106      -164.4413
  19   2.0000      -6.038953      -164.3283
  20   2.0000      -6.035414      -164.2320
  21   2.0000      -6.033848      -164.1893
  22   2.0000      -6.029747      -164.0778
  23   2.0000      -6.026001      -163.9758
  24   2.0000      -1.009056       -27.4578
  25   2.0000      -0.985551       -26.8182
  26   2.0000      -0.916424       -24.9372
  27   2.0000      -0.908644       -24.7255
  28   2.0000      -0.869419       -23.6581
  29   2.0000      -0.853662       -23.2293
  30   2.0000      -0.846280       -23.0284
  31   2.0000      -0.815128       -22.1808
  32   2.0000      -0.779921       -21.2227
  33   2.0000      -0.770390       -20.9634
  34   2.0000      -0.703258       -19.1366
  35   2.0000      -0.699694       -19.0396
  36   2.0000      -0.689543       -18.7634
  37   2.0000      -0.656305       -17.8590
  38   2.0000      -0.637320       -17.3424
  39   2.0000      -0.613907       -16.7052
  40   2.0000      -0.592718       -16.1287
  41   2.0000      -0.578527       -15.7425
  42   2.0000      -0.571237       -15.5442
  43   2.0000      -0.566990       -15.4286
  44   2.0000      -0.531290       -14.4571
  45   2.0000      -0.523191       -14.2368
  46   2.0000      -0.514875       -14.0105
  47   2.0000      -0.509758       -13.8712
  48   2.0000      -0.505384       -13.7522
  49   2.0000      -0.494183       -13.4474
  50   2.0000      -0.493177       -13.4200
  51   2.0000      -0.478365       -13.0170
  52   2.0000      -0.474895       -12.9226
  53   2.0000      -0.469780       -12.7834
  54   2.0000      -0.457844       -12.4586
  55   2.0000      -0.451986       -12.2992
  56   2.0000      -0.445391       -12.1197
  57   2.0000      -0.436398       -11.8750
  58   2.0000      -0.427296       -11.6273
  59   2.0000      -0.425833       -11.5875
  60   2.0000      -0.421832       -11.4786
  61   2.0000      -0.415940       -11.3183
  62   2.0000      -0.407024       -11.0757
  63   2.0000      -0.347394        -9.4531
  64   2.0000      -0.330114        -8.9829
  65   2.0000      -0.325740        -8.8638
  66   2.0000      -0.289631        -7.8813
  67   0.0000       0.035080         0.9546
  68   0.0000       0.077257         2.1023
  69   0.0000       0.116980         3.1832
  70   0.0000       0.122091         3.3223
  71   0.0000       0.131895         3.5890

MULLIKEN ATOMIC CHARGES
-----------------------
   0 S :    0.136239
   1 C :   -0.114573
   2 C :   -0.096258
   3 C :    0.012109
   4 C :   -0.139632
   5 H :    0.024802
   6 C :    0.013456
   7 H :    0.061177
   8 H :    0.015078
   9 C :   -0.075259
  10 H :    0.040105
  11 H :    0.039714
  12 C :   -0.035690
  13 H :    0.025301
  14 H :    0.042795
  15 H :    0.023602
  16 S :    0.098350
  17 C :   -0.083603
  18 C :   -0.023335
  19 C :   -0.027213
  20 C :   -0.173327
  21 H :   -0.010695
  22 C :    0.081087
  23 H :    0.031751
  24 H :    0.014983
  25 C :   -0.071797
  26 H :    0.014406
  27 H :    0.040027
  28 C :   -0.038140
  29 H :    0.034058
  30 H :    0.030065
  31 H :    0.023153
  32 H :    0.036758
  33 H :    0.050508
Sum of atomic charges:   -0.0000000

LOEWDIN ATOMIC CHARGES
----------------------
   0 S :    0.436249
   1 C :   -0.212564
   2 C :   -0.052694
   3 C :   -0.074892
   4 C :   -0.208359
   5 H :    0.034786
   6 C :   -0.031161
   7 H :    0.043427
   8 H :    0.022428
   9 C :   -0.042598
  10 H :    0.024985
  11 H :    0.031125
  12 C :   -0.072618
  13 H :    0.033042
  14 H :    0.028238
  15 H :    0.023954
  16 S :    0.409046
  17 C :   -0.189214
  18 C :   -0.071383
  19 C :   -0.055421
  20 C :   -0.199594
  21 H :    0.019014
  22 C :   -0.032105
  23 H :    0.034155
  24 H :    0.025065
  25 C :   -0.041493
  26 H :    0.018860
  27 H :    0.031802
  28 C :   -0.066238
  29 H :    0.023556
  30 H :    0.028583
  31 H :    0.027621
  32 H :    0.022626
  33 H :    0.031772

  Mayer bond orders larger than 0.100000
B(  0-S ,  1-C ) :   1.1268 B(  0-S ,  4-C ) :   1.1846 B(  1-C ,  2-C ) :   1.5934
B(  1-C , 32-H ) :   0.9755 B(  2-C ,  3-C ) :   1.2493 B(  2-C ,  6-C ) :   1.0028
B(  3-C ,  4-C ) :   1.5619 B(  3-C ,  5-H ) :   0.9868 B(  4-C , 20-C ) :   1.0053
B(  6-C ,  7-H ) :   0.9400 B(  6-C ,  8-H ) :   0.9502 B(  6-C ,  9-C ) :   1.0663
B(  9-C , 10-H ) :   0.9530 B(  9-C , 11-H ) :   0.9535 B(  9-C , 12-C ) :   1.0998
B( 12-C , 13-H ) :   0.9665 B( 12-C , 14-H ) :   0.9711 B( 12-C , 15-H ) :   0.9658
B( 16-S , 17-C ) :   1.1413 B( 16-S , 20-C ) :   1.1464 B( 17-C , 18-C ) :   1.6565
B( 17-C , 33-H ) :   0.9633 B( 18-C , 19-C ) :   1.2037 B( 18-C , 21-H ) :   0.9994
B( 19-C , 20-C ) :   1.6172 B( 19-C , 22-C ) :   1.0323 B( 22-C , 23-H ) :   0.9368
B( 22-C , 24-H ) :   0.9255 B( 22-C , 25-C ) :   1.0741 B( 25-C , 26-H ) :   0.9443
B( 25-C , 27-H ) :   0.9550 B( 25-C , 28-C ) :   1.1013 B( 28-C , 29-H ) :   0.9744
B( 28-C , 30-H ) :   0.9708 B( 28-C , 31-H ) :   0.9691

Dispersion correction           -0.013121401
FINAL SINGLE POINT ENERGY     -1339.865988831154

DIPOLE MOMENT
-------------
                                X             Y             Z
Electronic contribution:    -26.47771      11.02735       0.46731
Nuclear contribution   :     27.04935     -11.33016      -0.22868
                        -----------------------------------------
Total Dipole Moment    :      0.57164      -0.30281       0.23863
                        -----------------------------------------
Magnitude (a.u.)       :      0.68950
Magnitude (Debye)      :      1.75257

Rotational constants in cm-1:     0.018456     0.007606     0.005909
Rotational constants in MHz :   553.310875   228.013222   177.157344

                             ****ORCA TERMINATED NORMALLY****
TOTAL RUN TIME: 0 days 0 hours 0 minutes 33 seconds 214 msec
