                         Program Version 4.2.1 -  RELEASE  -
|  1> ! wB97X-D3 SP def2-SVP
|  2> %pal
|  3> nprocs 16
|  4> end
|  5>
|  6> * xyz 0 1
|  7> S 	 -108.939 	 56.4918 	 115.59
|  8> C 	 -108.733 	 57.245 	 114.064
|  9> C 	 -108.172 	 56.3942 	 113.052
| 10> C 	 -107.887 	 55.1134 	 113.701
| 11> C 	 -108.412 	 54.9173 	 114.949
| 12> H 	 -107.512 	 54.1672 	 113.3
| 13> C 	 -107.732 	 56.5586 	 111.593
| 14> H 	 -106.725 	 56.4994 	 111.392
| 15> H 	 -108.037 	 57.5708 	 111.314
| 16> C 	 -108.49 	 55.7098 	 110.657
| 17> H 	 -108.505 	 54.6656 	 110.792
| 18> H 	 -109.471 	 56.0338 	 110.819
| 19> C 	 -108.275 	 56.102 	 109.235
| 20> H 	 -109.079 	 55.9006 	 108.625
| 21> H 	 -108.066 	 57.165 	 109.189
| 22> H 	 -107.382 	 55.5842 	 108.822
| 23> S 	 -107.328 	 53.672 	 117.14
| 24> C 	 -107.992 	 52.0823 	 117.636
| 25> C 	 -108.58 	 51.523 	 116.608
| 26> C 	 -108.798 	 52.3948 	 115.49
| 27> C 	 -108.349 	 53.6928 	 115.71
| 28> H 	 -108.751 	 50.4817 	 116.757
| 29> C 	 -109.538 	 51.7882 	 114.289
| 30> H 	 -108.853 	 51.11 	 113.81
| 31> H 	 -109.65 	 52.6016 	 113.508
| 32> C 	 -110.843 	 51.1193 	 114.585
| 33> H 	 -110.722 	 50.2024 	 115.104
| 34> H 	 -111.293 	 50.8207 	 113.638
| 35> C 	 -111.797 	 51.9955 	 115.44
| 36> H 	 -112.737 	 51.5402 	 115.74
| 37> H 	 -112.106 	 52.8213 	 114.89
| 38> H 	 -111.395 	 52.4534 	 116.395
| 39> H 	 -109.033 	 58.202 	 113.797
| 40> H 	 -107.648 	 51.6045 	 118.569
| 41> *
| 42>
| 43>                          ****END OF INPUT****

CARTESIAN COORDINATES (ANGSTROEM)
---------------------------------
  S    -108.939000   56.491800  115.590000
  C    -108.733000   57.245000  114.064000
  C    -108.172000   56.394200  113.052000
  C    -107.887000   55.113400  113.701000
  C    -108.412000   54.917300  114.949000
  H    -107.512000   54.167200  113.300000
  C    -107.732000   56.558600  111.593000
  H    -106.725000   56.499400  111.392000
  H    -108.037000   57.570800  111.314000
  C    -108.490000   55.709800  110.657000
  H    -108.505000   54.665600  110.792000
  H    -109.471000   56.033800  110.819000
  C    -108.275000   56.102000  109.235000
  H    -109.079000   55.900600  108.625000
  H    -108.066000   57.165000  109.189000
  H    -107.382000   55.584200  108.822000
  S    -107.328000   53.672000  117.140000
  C    -107.992000   52.082300  117.636000
  C    -108.580000   51.523000  116.608000
  C    -108.798000   52.394800  115.490000
  C    -108.349000   53.692800  115.710000
  H    -108.751000   50.481700  116.757000
  C    -109.538000   51.788200  114.289000
  H    -108.853000   51.110000  113.810000
  H    -109.650000   52.601600  113.508000
  C    -110.843000   51.119300  114.585000
  H    -110.722000   50.202400  115.104000
  H    -111.293000   50.820700  113.638000
  C    -111.797000   51.995500  115.440000
  H    -112.737000   51.540200  115.740000
  H    -112.106000   52.821300  114.890000
  H    -111.395000   52.453400  116.395000
  H    -109.033000   58.202000  113.797000
  H    -107.648000   51.604500  118.569000

 Total Charge           Charge          ....    0
 Multiplicity           Mult            ....    1
 Number of Electrons    NEL             ....  134
 Basis Dimension        Dim             ....  322

ORBITAL ENERGIES
----------------

  NO   OCC          E(Eh)            E(eV)
   0   2.0000     -88.968914     -2420.9672
   1   2.0000     -88.954121     -2420.5647
   2   2.0000     -10.327897      -281.0364
   3   2.0000     -10.326133      -280.9884
   4   2.0000     -10.319017      -280.7947
   5   2.0000     -10.313528      -280.6454
   6   2.0000     -10.312358      -280.6135
   7   2.0000     -10.306734      -280.4605
   8   2.0000     -10.293562      -280.1021
   9   2.0000     -10.292920      -280.0846
  10   2.0000     -10.288567      -279.9661
  11   2.0000     -10.285146      -279.8731
  12   2.0000     -10.283773      -279.8357
  13   2.0000     -10.270037      -279.4619
  14   2.0000     -10.269321      -279.4424
  15   2.0000     -10.268922      -279.4316
  16   2.0000      -8.083524      -219.9639
  17   2.0000      -8.069090      -219.5711
  18   2.0000      -6.042092      -164.4137
  19   2.0000      -6.038038      -164.3034
  20   2.0000      -6.034222      -164.1995
  21   2.0000      -6.027709      -164.0223
  22   2.0000      -6.023853      -163.9174
  23   2.0000      -6.019412      -163.7965
  24   2.0000      -1.005477       -27.3604
  25   2.0000      -0.983599       -26.7651
  26   2.0000      -0.930469       -25.3194
  27   2.0000      -0.908926       -24.7331
  28   2.0000      -0.878821       -23.9139
  29   2.0000      -0.851128       -23.1604
  30   2.0000      -0.836264       -22.7559
  31   2.0000      -0.819640       -22.3035
  32   2.0000      -0.784687       -21.3524
  33   2.0000      -0.776135       -21.1197
  34   2.0000      -0.712478       -19.3875
  35   2.0000      -0.703773       -19.1506
  36   2.0000      -0.695225       -18.9180
  37   2.0000      -0.656210       -17.8564
  38   2.0000      -0.649932       -17.6856
  39   2.0000      -0.618074       -16.8187
  40   2.0000      -0.597672       -16.2635
  41   2.0000      -0.586228       -15.9521
  42   2.0000      -0.573092       -15.5946
  43   2.0000      -0.555251       -15.1091
  44   2.0000      -0.538771       -14.6607
  45   2.0000      -0.529472       -14.4077
  46   2.0000      -0.518185       -14.1005
  47   2.0000      -0.506875       -13.7928
  48   2.0000      -0.505428       -13.7534
  49   2.0000      -0.505153       -13.7459
  50   2.0000      -0.492929       -13.4133
  51   2.0000      -0.475994       -12.9525
  52   2.0000      -0.466083       -12.6828
  53   2.0000      -0.465376       -12.6635
  54   2.0000      -0.455592       -12.3973
  55   2.0000      -0.447713       -12.1829
  56   2.0000      -0.442587       -12.0434
  57   2.0000      -0.439246       -11.9525
  58   2.0000      -0.434610       -11.8263
  59   2.0000      -0.426332       -11.6011
  60   2.0000      -0.417437       -11.3590
  61   2.0000      -0.414290       -11.2734
  62   2.0000      -0.409043       -11.1306
  63   2.0000      -0.346398        -9.4260
  64   2.0000      -0.327540        -8.9128
  65   2.0000      -0.323571        -8.8048
  66   2.0000      -0.298718        -8.1285
  67   0.0000       0.032107         0.8737
  68   0.0000       0.064164         1.7460
  69   0.0000       0.106091         2.8869
  70   0.0000       0.121464         3.3052
  71   0.0000       0.129863         3.5338

MULLIKEN ATOMIC CHARGES
-----------------------
   0 S :    0.130832
   1 C :   -0.073302
   2 C :   -0.108656
   3 C :    0.038005
   4 C :   -0.184267
   5 H :    0.018946
   6 C :    0.119986
   7 H :    0.022366
   8 H :    0.000547
   9 C :   -0.057371
  10 H :    0.022865
  11 H :    0.003030
  12 C :   -0.015827
  13 H :    0.020460
  14 H :    0.014433
  15 H :    0.027878
  16 S :    0.068095
  17 C :   -0.102190
  18 C :   -0.019692
  19 C :   -0.031155
  20 C :   -0.166383
  21 H :    0.014974
  22 C :    0.074556
  23 H :    0.030362
  24 H :    0.024993
  25 C :   -0.040441
  26 H :    0.018994
  27 H :    0.027702
  28 C :   -0.051283
  29 H :    0.023676
  30 H :    0.011015
  31 H :    0.050012
  32 H :    0.021207
  33 H :    0.065635
Sum of atomic charges:    0.0000000

LOEWDIN ATOMIC CHARGES
----------------------
   0 S :    0.415390
   1 C :   -0.192362
   2 C :   -0.054161
   3 C :   -0.055079
   4 C :   -0.199573
   5 H :    0.031847
   6 C :   -0.019873
   7 H :    0.020161
   8 H :    0.030494
   9 C :   -0.041240
  10 H :    0.016709
  11 H :    0.022473
  12 C :   -0.052031
  13 H :    0.016015
  14 H :    0.024208
  15 H :    0.026855
  16 S :    0.362339
  17 C :   -0.159727
  18 C :   -0.075575
  19 C :   -0.051900
  20 C :   -0.193178
  21 H :    0.034198
  22 C :   -0.034830
  23 H :    0.031946
  24 H :    0.032744
  25 C :   -0.038738
  26 H :    0.016793
  27 H :    0.029733
  28 C :   -0.069308
  29 H :    0.024162
  30 H :    0.015503
  31 H :    0.037324
  32 H :    0.014275
  33 H :    0.034407

  Mayer bond orders larger than 0.100000
B(  0-S ,  1-C ) :   1.1618 B(  0-S ,  4-C ) :   1.1157 B(  1-C ,  2-C ) :   1.6045
B(  1-C , 32-H ) :   0.9720 B(  2-C ,  3-C ) :   1.2066 B(  2-C ,  6-C ) :   1.0275
B(  3-C ,  4-C ) :   1.6266 B(  3-C ,  5-H ) :   0.9793 B(  4-C , 20-C ) :   1.0533
B(  6-C ,  7-H ) :   0.9481 B(  6-C ,  8-H ) :   0.9278 B(  6-C ,  9-C ) :   1.0649
B(  9-C , 10-H ) :   0.9572 B(  9-C , 11-H ) :   0.9455 B(  9-C , 12-C ) :   1.0993
B( 12-C , 13-H ) :   0.9747 B( 12-C , 14-H ) :   0.9680 B( 12-C , 15-H ) :   0.9708
B( 16-S , 17-C ) :   1.1166 B( 16-S , 20-C ) :   1.1366 B( 17-C , 18-C ) :   1.6706
B( 17-C , 33-H ) :   0.9643 B( 18-C , 19-C ) :   1.1733 B( 18-C , 21-H ) :   0.9962
B( 19-C , 20-C ) :   1.6210 B( 19-C , 22-C ) :   1.0383 B( 22-C , 23-H ) :   0.9306
B( 22-C , 24-H ) :   0.9334 B( 22-C , 25-C ) :   1.0820 B( 25-C , 26-H ) :   0.9500
B( 25-C , 27-H ) :   0.9505 B( 25-C , 28-C ) :   1.0733 B( 28-C , 29-H ) :   0.9752
B( 28-C , 30-H ) :   0.9757 B( 28-C , 31-H ) :   0.9701

Dispersion correction           -0.014337800
FINAL SINGLE POINT ENERGY     -1339.837827637549

DIPOLE MOMENT
-------------
                                X             Y             Z
Electronic contribution:      9.89703       7.06423      24.03416
Nuclear contribution   :    -10.04465      -7.48016     -24.66825
                        -----------------------------------------
Total Dipole Moment    :     -0.14762      -0.41593      -0.63409
                        -----------------------------------------
Magnitude (a.u.)       :      0.77257
Magnitude (Debye)      :      1.96371

Rotational constants in cm-1:     0.018885     0.008400     0.006889
Rotational constants in MHz :   566.163419   251.834584   206.513238

                             ****ORCA TERMINATED NORMALLY****
TOTAL RUN TIME: 0 days 0 hours 0 minutes 33 seconds 639 msec
