                         Program Version 4.2.1 -  RELEASE  -
|  1> ! wB97X-D3 SP def2-SVP
|  2> %pal
|  3> nprocs 16
|  4> end
|  5>
|  6> * xyz 0 1
|  7> S 	 -44.0089 	 25.0829 	 92.062
|  8> C 	 -44.072 	 23.3951 	 92.3987
|  9> C 	 -43.0704 	 22.7245 	 91.6647
| 10> C 	 -42.4359 	 23.5724 	 90.6897
| 11> C 	 -42.8188 	 24.8748 	 90.8346
| 12> H 	 -41.723 	 23.2564 	 89.9575
| 13> C 	 -42.7517 	 21.2643 	 91.6371
| 14> H 	 -42.747 	 20.891 	 92.6745
| 15> H 	 -41.737 	 21.1108 	 91.2427
| 16> C 	 -43.7681 	 20.257 	 91.103
| 17> H 	 -43.9145 	 19.3272 	 91.6363
| 18> H 	 -44.7703 	 20.7292 	 91.2247
| 19> C 	 -43.575 	 19.7984 	 89.6657
| 20> H 	 -43.3418 	 20.6328 	 89.031
| 21> H 	 -42.721 	 19.144 	 89.6634
| 22> H 	 -44.5566 	 19.3435 	 89.3279
| 23> S 	 -43.553 	 26.3485 	 88.4839
| 24> C 	 -42.3016 	 27.3634 	 87.7519
| 25> C 	 -41.162 	 27.462 	 88.5667
| 26> C 	 -41.2663 	 26.6166 	 89.7507
| 27> C 	 -42.4885 	 25.9014 	 89.822
| 28> H 	 -40.2807 	 28.0552 	 88.3024
| 29> C 	 -40.3354 	 26.7387 	 90.9717
| 30> H 	 -40.6599 	 26.1005 	 91.8531
| 31> H 	 -40.5494 	 27.6664 	 91.367
| 32> C 	 -38.8157 	 26.5106 	 90.6743
| 33> H 	 -38.2754 	 26.6248 	 91.6859
| 34> H 	 -38.5173 	 27.3539 	 90.0771
| 35> C 	 -38.5679 	 25.1382 	 90.0314
| 36> H 	 -38.8736 	 24.2967 	 90.5692
| 37> H 	 -37.5535 	 24.8653 	 89.7409
| 38> H 	 -39.0406 	 25.2255 	 89.0631
| 39> H 	 -44.622 	 22.9235 	 93.1323
| 40> H 	 -42.2738 	 27.8425 	 86.8333
| 41> *
| 42>
| 43>                          ****END OF INPUT****

CARTESIAN COORDINATES (ANGSTROEM)
---------------------------------
  S    -44.008900   25.082900   92.062000
  C    -44.072000   23.395100   92.398700
  C    -43.070400   22.724500   91.664700
  C    -42.435900   23.572400   90.689700
  C    -42.818800   24.874800   90.834600
  H    -41.723000   23.256400   89.957500
  C    -42.751700   21.264300   91.637100
  H    -42.747000   20.891000   92.674500
  H    -41.737000   21.110800   91.242700
  C    -43.768100   20.257000   91.103000
  H    -43.914500   19.327200   91.636300
  H    -44.770300   20.729200   91.224700
  C    -43.575000   19.798400   89.665700
  H    -43.341800   20.632800   89.031000
  H    -42.721000   19.144000   89.663400
  H    -44.556600   19.343500   89.327900
  S    -43.553000   26.348500   88.483900
  C    -42.301600   27.363400   87.751900
  C    -41.162000   27.462000   88.566700
  C    -41.266300   26.616600   89.750700
  C    -42.488500   25.901400   89.822000
  H    -40.280700   28.055200   88.302400
  C    -40.335400   26.738700   90.971700
  H    -40.659900   26.100500   91.853100
  H    -40.549400   27.666400   91.367000
  C    -38.815700   26.510600   90.674300
  H    -38.275400   26.624800   91.685900
  H    -38.517300   27.353900   90.077100
  C    -38.567900   25.138200   90.031400
  H    -38.873600   24.296700   90.569200
  H    -37.553500   24.865300   89.740900
  H    -39.040600   25.225500   89.063100
  H    -44.622000   22.923500   93.132300
  H    -42.273800   27.842500   86.833300

 Total Charge           Charge          ....    0
 Multiplicity           Mult            ....    1
 Number of Electrons    NEL             ....  134
 Basis Dimension        Dim             ....  322

ORBITAL ENERGIES
----------------

  NO   OCC          E(Eh)            E(eV)
   0   2.0000     -88.970202     -2421.0023
   1   2.0000     -88.969631     -2420.9867
   2   2.0000     -10.328420      -281.0506
   3   2.0000     -10.324947      -280.9561
   4   2.0000     -10.318649      -280.7847
   5   2.0000     -10.311623      -280.5935
   6   2.0000     -10.307338      -280.4769
   7   2.0000     -10.303053      -280.3603
   8   2.0000     -10.300637      -280.2946
   9   2.0000     -10.293366      -280.0967
  10   2.0000     -10.290754      -280.0257
  11   2.0000     -10.290593      -280.0213
  12   2.0000     -10.288545      -279.9655
  13   2.0000     -10.283054      -279.8161
  14   2.0000     -10.274234      -279.5761
  15   2.0000     -10.269991      -279.4607
  16   2.0000      -8.084955      -220.0028
  17   2.0000      -8.083731      -219.9695
  18   2.0000      -6.043348      -164.4479
  19   2.0000      -6.042377      -164.4214
  20   2.0000      -6.039242      -164.3361
  21   2.0000      -6.038360      -164.3121
  22   2.0000      -6.035943      -164.2464
  23   2.0000      -6.034467      -164.2062
  24   2.0000      -1.006147       -27.3787
  25   2.0000      -0.978043       -26.6139
  26   2.0000      -0.912677       -24.8352
  27   2.0000      -0.901499       -24.5310
  28   2.0000      -0.866926       -23.5903
  29   2.0000      -0.853384       -23.2218
  30   2.0000      -0.840971       -22.8840
  31   2.0000      -0.815632       -22.1945
  32   2.0000      -0.783216       -21.3124
  33   2.0000      -0.772491       -21.0205
  34   2.0000      -0.706708       -19.2305
  35   2.0000      -0.698831       -19.0162
  36   2.0000      -0.694137       -18.8884
  37   2.0000      -0.651257       -17.7216
  38   2.0000      -0.648595       -17.6492
  39   2.0000      -0.614406       -16.7188
  40   2.0000      -0.593942       -16.1620
  41   2.0000      -0.573869       -15.6158
  42   2.0000      -0.553065       -15.0497
  43   2.0000      -0.551141       -14.9973
  44   2.0000      -0.538068       -14.6416
  45   2.0000      -0.537255       -14.6194
  46   2.0000      -0.521879       -14.2011
  47   2.0000      -0.516945       -14.0668
  48   2.0000      -0.505964       -13.7680
  49   2.0000      -0.492117       -13.3912
  50   2.0000      -0.486198       -13.2301
  51   2.0000      -0.478911       -13.0318
  52   2.0000      -0.469075       -12.7642
  53   2.0000      -0.465188       -12.6584
  54   2.0000      -0.461527       -12.5588
  55   2.0000      -0.445197       -12.1144
  56   2.0000      -0.440885       -11.9971
  57   2.0000      -0.437605       -11.9078
  58   2.0000      -0.436936       -11.8896
  59   2.0000      -0.421997       -11.4831
  60   2.0000      -0.419157       -11.4058
  61   2.0000      -0.407391       -11.0857
  62   2.0000      -0.401958       -10.9378
  63   2.0000      -0.339986        -9.2515
  64   2.0000      -0.328261        -8.9324
  65   2.0000      -0.319467        -8.6931
  66   2.0000      -0.304723        -8.2919
  67   0.0000       0.041031         1.1165
  68   0.0000       0.052300         1.4232
  69   0.0000       0.113659         3.0928
  70   0.0000       0.116910         3.1813
  71   0.0000       0.131769         3.5856

MULLIKEN ATOMIC CHARGES
-----------------------
   0 S :    0.129133
   1 C :   -0.082791
   2 C :   -0.089331
   3 C :    0.040604
   4 C :   -0.170644
   5 H :    0.014100
   6 C :    0.060648
   7 H :    0.025561
   8 H :    0.024430
   9 C :   -0.084941
  10 H :    0.024021
  11 H :    0.021156
  12 C :   -0.052913
  13 H :    0.026608
  14 H :    0.030505
  15 H :    0.045488
  16 S :    0.126616
  17 C :   -0.070199
  18 C :   -0.041203
  19 C :   -0.047159
  20 C :   -0.161362
  21 H :    0.031888
  22 C :    0.053103
  23 H :    0.037743
  24 H :    0.020916
  25 C :   -0.091597
  26 H :    0.039842
  27 H :    0.027811
  28 C :   -0.021713
  29 H :    0.025482
  30 H :    0.022251
  31 H :    0.032483
  32 H :    0.019428
  33 H :    0.034039
Sum of atomic charges:    0.0000000

LOEWDIN ATOMIC CHARGES
----------------------
   0 S :    0.436743
   1 C :   -0.197280
   2 C :   -0.057595
   3 C :   -0.049962
   4 C :   -0.209063
   5 H :    0.032165
   6 C :   -0.044317
   7 H :    0.041561
   8 H :    0.030402
   9 C :   -0.048376
  10 H :    0.021214
  11 H :    0.025944
  12 C :   -0.065005
  13 H :    0.018932
  14 H :    0.020528
  15 H :    0.036118
  16 S :    0.398841
  17 C :   -0.173178
  18 C :   -0.073244
  19 C :   -0.051044
  20 C :   -0.203786
  21 H :    0.033623
  22 C :   -0.032052
  23 H :    0.037519
  24 H :    0.022788
  25 C :   -0.040505
  26 H :    0.030901
  27 H :    0.018034
  28 C :   -0.066242
  29 H :    0.018948
  30 H :    0.026480
  31 H :    0.028961
  32 H :    0.013048
  33 H :    0.018896

  Mayer bond orders larger than 0.100000
B(  0-S ,  1-C ) :   1.1536 B(  0-S ,  4-C ) :   1.1630 B(  1-C ,  2-C ) :   1.5729
B(  1-C , 32-H ) :   0.9791 B(  2-C ,  3-C ) :   1.2458 B(  2-C ,  6-C ) :   1.0586
B(  3-C ,  4-C ) :   1.5746 B(  3-C ,  5-H ) :   0.9971 B(  4-C , 20-C ) :   1.0034
B(  6-C ,  7-H ) :   0.9236 B(  6-C ,  8-H ) :   0.9468 B(  6-C ,  9-C ) :   1.0442
B(  9-C , 10-H ) :   0.9626 B(  9-C , 11-H ) :   0.9516 B(  9-C , 12-C ) :   1.0818
B( 12-C , 13-H ) :   0.9781 B( 12-C , 14-H ) :   0.9783 B( 12-C , 15-H ) :   0.9731
B( 16-S , 17-C ) :   1.1515 B( 16-S , 20-C ) :   1.1308 B( 17-C , 18-C ) :   1.6187
B( 17-C , 33-H ) :   0.9725 B( 18-C , 19-C ) :   1.2354 B( 18-C , 21-H ) :   0.9817
B( 19-C , 20-C ) :   1.6029 B( 19-C , 22-C ) :   1.0220 B( 22-C , 23-H ) :   0.9371
B( 22-C , 24-H ) :   0.9440 B( 22-C , 25-C ) :   1.0587 B( 25-C , 26-H ) :   0.9573
B( 25-C , 27-H ) :   0.9611 B( 25-C , 28-C ) :   1.0699 B( 28-C , 29-H ) :   0.9768
B( 28-C , 30-H ) :   0.9728 B( 28-C , 31-H ) :   0.9675

Dispersion correction           -0.014938999
FINAL SINGLE POINT ENERGY     -1339.857611471536

DIPOLE MOMENT
-------------
                                X             Y             Z
Electronic contribution:    -15.47877      17.51491      -0.68234
Nuclear contribution   :     15.88419     -17.78119       0.74403
                        -----------------------------------------
Total Dipole Moment    :      0.40542      -0.26628       0.06169
                        -----------------------------------------
Magnitude (a.u.)       :      0.48895
Magnitude (Debye)      :      1.24282

Rotational constants in cm-1:     0.018591     0.008249     0.007526
Rotational constants in MHz :   557.338273   247.303693   225.622208

                             ****ORCA TERMINATED NORMALLY****
TOTAL RUN TIME: 0 days 0 hours 0 minutes 28 seconds 479 msec
