                         Program Version 4.2.1 -  RELEASE  -
|  1> ! wB97X-D3 SP def2-SVP
|  2> %pal
|  3> nprocs 16
|  4> end
|  5>
|  6> * xyz 0 1
|  7> S 	 5.67465 	 21.7909 	 39.9934
|  8> C 	 5.70129 	 20.6221 	 38.7657
|  9> C 	 6.99974 	 20.2922 	 38.3822
| 10> C 	 7.98797 	 21.0798 	 39.0592
| 11> C 	 7.40789 	 21.9255 	 39.9957
| 12> H 	 9.06701 	 20.9311 	 38.8789
| 13> C 	 7.50065 	 19.1882 	 37.4931
| 14> H 	 8.54962 	 18.9881 	 37.7066
| 15> H 	 7.46639 	 19.7694 	 36.5553
| 16> C 	 6.69913 	 17.8495 	 37.2409
| 17> H 	 6.17848 	 17.5551 	 38.0782
| 18> H 	 5.84494 	 17.9879 	 36.6386
| 19> C 	 7.56447 	 16.7293 	 36.6129
| 20> H 	 7.06793 	 15.7833 	 36.7481
| 21> H 	 7.73289 	 16.9662 	 35.5541
| 22> H 	 8.48509 	 16.4579 	 37.0853
| 23> S 	 7.24819 	 23.1278 	 42.3781
| 24> C 	 8.54084 	 24.0797 	 43.0179
| 25> C 	 9.67109 	 24.0121 	 42.2237
| 26> C 	 9.49321 	 23.159 	 41.0964
| 27> C 	 8.18941 	 22.6346 	 41.0058
| 28> H 	 10.535 	 24.5834 	 42.615
| 29> C 	 10.5761 	 23.0571 	 40.0403
| 30> H 	 10.6868 	 22.0177 	 39.9484
| 31> H 	 11.4455 	 23.5311 	 40.429
| 32> C 	 10.2396 	 23.5886 	 38.6424
| 33> H 	 10.1279 	 24.6804 	 38.5631
| 34> H 	 9.22922 	 23.4436 	 38.284
| 35> C 	 11.3561 	 23.2477 	 37.5992
| 36> H 	 12.3044 	 23.7204 	 37.7696
| 37> H 	 11.0716 	 23.4687 	 36.5477
| 38> H 	 11.5664 	 22.2036 	 37.6576
| 39> H 	 4.74715 	 20.2443 	 38.2961
| 40> H 	 8.46101 	 24.6717 	 43.8905
| 41> *
| 42>
| 43>                          ****END OF INPUT****

CARTESIAN COORDINATES (ANGSTROEM)
---------------------------------
  S      5.674650   21.790900   39.993400
  C      5.701290   20.622100   38.765700
  C      6.999740   20.292200   38.382200
  C      7.987970   21.079800   39.059200
  C      7.407890   21.925500   39.995700
  H      9.067010   20.931100   38.878900
  C      7.500650   19.188200   37.493100
  H      8.549620   18.988100   37.706600
  H      7.466390   19.769400   36.555300
  C      6.699130   17.849500   37.240900
  H      6.178480   17.555100   38.078200
  H      5.844940   17.987900   36.638600
  C      7.564470   16.729300   36.612900
  H      7.067930   15.783300   36.748100
  H      7.732890   16.966200   35.554100
  H      8.485090   16.457900   37.085300
  S      7.248190   23.127800   42.378100
  C      8.540840   24.079700   43.017900
  C      9.671090   24.012100   42.223700
  C      9.493210   23.159000   41.096400
  C      8.189410   22.634600   41.005800
  H     10.535000   24.583400   42.615000
  C     10.576100   23.057100   40.040300
  H     10.686800   22.017700   39.948400
  H     11.445500   23.531100   40.429000
  C     10.239600   23.588600   38.642400
  H     10.127900   24.680400   38.563100
  H      9.229220   23.443600   38.284000
  C     11.356100   23.247700   37.599200
  H     12.304400   23.720400   37.769600
  H     11.071600   23.468700   36.547700
  H     11.566400   22.203600   37.657600
  H      4.747150   20.244300   38.296100
  H      8.461010   24.671700   43.890500

 Total Charge           Charge          ....    0
 Multiplicity           Mult            ....    1
 Number of Electrons    NEL             ....  134
 Basis Dimension        Dim             ....  322

ORBITAL ENERGIES
----------------

  NO   OCC          E(Eh)            E(eV)
   0   2.0000     -88.968966     -2420.9686
   1   2.0000     -88.962575     -2420.7947
   2   2.0000     -10.330396      -281.1044
   3   2.0000     -10.327183      -281.0169
   4   2.0000     -10.313175      -280.6358
   5   2.0000     -10.309417      -280.5335
   6   2.0000     -10.304940      -280.4117
   7   2.0000     -10.302103      -280.3345
   8   2.0000     -10.294688      -280.1327
   9   2.0000     -10.294422      -280.1255
  10   2.0000     -10.294020      -280.1145
  11   2.0000     -10.287364      -279.9334
  12   2.0000     -10.284313      -279.8504
  13   2.0000     -10.282858      -279.8108
  14   2.0000     -10.278844      -279.7016
  15   2.0000     -10.276773      -279.6452
  16   2.0000      -8.084490      -219.9902
  17   2.0000      -8.078194      -219.8188
  18   2.0000      -6.043056      -164.4399
  19   2.0000      -6.038815      -164.3245
  20   2.0000      -6.036559      -164.2631
  21   2.0000      -6.035243      -164.2273
  22   2.0000      -6.032513      -164.1530
  23   2.0000      -6.029144      -164.0613
  24   2.0000      -1.011869       -27.5344
  25   2.0000      -0.987631       -26.8748
  26   2.0000      -0.909520       -24.7493
  27   2.0000      -0.906635       -24.6708
  28   2.0000      -0.870084       -23.6762
  29   2.0000      -0.858373       -23.3575
  30   2.0000      -0.847762       -23.0688
  31   2.0000      -0.812984       -22.1224
  32   2.0000      -0.780857       -21.2482
  33   2.0000      -0.770371       -20.9629
  34   2.0000      -0.722375       -19.6568
  35   2.0000      -0.711951       -19.3732
  36   2.0000      -0.692182       -18.8352
  37   2.0000      -0.668050       -18.1786
  38   2.0000      -0.635129       -17.2827
  39   2.0000      -0.617401       -16.8003
  40   2.0000      -0.593603       -16.1527
  41   2.0000      -0.566239       -15.4082
  42   2.0000      -0.564320       -15.3559
  43   2.0000      -0.559012       -15.2115
  44   2.0000      -0.528593       -14.3837
  45   2.0000      -0.522734       -14.2243
  46   2.0000      -0.514858       -14.0100
  47   2.0000      -0.510915       -13.9027
  48   2.0000      -0.504834       -13.7372
  49   2.0000      -0.500821       -13.6280
  50   2.0000      -0.490254       -13.3405
  51   2.0000      -0.484954       -13.1963
  52   2.0000      -0.473519       -12.8851
  53   2.0000      -0.469381       -12.7725
  54   2.0000      -0.462145       -12.5756
  55   2.0000      -0.455462       -12.3937
  56   2.0000      -0.447047       -12.1648
  57   2.0000      -0.444517       -12.0959
  58   2.0000      -0.433129       -11.7860
  59   2.0000      -0.430237       -11.7074
  60   2.0000      -0.416550       -11.3349
  61   2.0000      -0.413884       -11.2623
  62   2.0000      -0.404206       -10.9990
  63   2.0000      -0.361489        -9.8366
  64   2.0000      -0.333046        -9.0626
  65   2.0000      -0.322842        -8.7850
  66   2.0000      -0.276618        -7.5272
  67   0.0000       0.022616         0.6154
  68   0.0000       0.085197         2.3183
  69   0.0000       0.107235         2.9180
  70   0.0000       0.123932         3.3723
  71   0.0000       0.135983         3.7003

MULLIKEN ATOMIC CHARGES
-----------------------
   0 S :    0.123233
   1 C :   -0.156997
   2 C :   -0.074239
   3 C :   -0.038155
   4 C :   -0.085552
   5 H :    0.025277
   6 C :    0.030028
   7 H :    0.028707
   8 H :    0.046437
   9 C :   -0.000096
  10 H :    0.001854
  11 H :    0.007651
  12 C :   -0.055996
  13 H :    0.025004
  14 H :    0.043738
  15 H :    0.025800
  16 S :    0.087428
  17 C :   -0.085978
  18 C :   -0.053676
  19 C :   -0.064849
  20 C :   -0.134289
  21 H :    0.032814
  22 C :    0.138359
  23 H :    0.013961
  24 H :    0.011269
  25 C :   -0.088212
  26 H :    0.017712
  27 H :    0.033012
  28 C :   -0.039672
  29 H :    0.027421
  30 H :    0.038207
  31 H :    0.010556
  32 H :    0.068069
  33 H :    0.041175
Sum of atomic charges:    0.0000000

LOEWDIN ATOMIC CHARGES
----------------------
   0 S :    0.431758
   1 C :   -0.239967
   2 C :   -0.059815
   3 C :   -0.066645
   4 C :   -0.199543
   5 H :    0.036065
   6 C :   -0.037015
   7 H :    0.029869
   8 H :    0.045478
   9 C :   -0.034052
  10 H :    0.012771
  11 H :    0.021918
  12 C :   -0.063383
  13 H :    0.028979
  14 H :    0.029843
  15 H :    0.022354
  16 S :    0.416916
  17 C :   -0.189180
  18 C :   -0.077529
  19 C :   -0.058851
  20 C :   -0.192051
  21 H :    0.041046
  22 C :   -0.020867
  23 H :    0.023542
  24 H :    0.029070
  25 C :   -0.050506
  26 H :    0.027721
  27 H :    0.027617
  28 C :   -0.064006
  29 H :    0.021926
  30 H :    0.031669
  31 H :    0.014665
  32 H :    0.039628
  33 H :    0.020571

  Mayer bond orders larger than 0.100000
B(  0-S ,  1-C ) :   1.1363 B(  0-S ,  4-C ) :   1.1644 B(  1-C ,  2-C ) :   1.5802
B(  1-C , 32-H ) :   0.9620 B(  2-C ,  3-C ) :   1.2874 B(  2-C ,  6-C ) :   1.0090
B(  3-C ,  4-C ) :   1.5099 B(  3-C ,  5-H ) :   0.9892 B(  4-C , 20-C ) :   1.0911
B(  6-C ,  7-H ) :   0.9564 B(  6-C ,  8-H ) :   0.9265 B(  6-C ,  9-C ) :   1.0494
B(  9-C , 10-H ) :   0.9592 B(  9-C , 11-H ) :   0.9435 B(  9-C , 12-C ) :   1.0859
B( 12-C , 13-H ) :   0.9712 B( 12-C , 14-H ) :   0.9794 B( 12-C , 15-H ) :   0.9770
B( 16-S , 17-C ) :   1.1687 B( 16-S , 20-C ) :   1.1438 B( 17-C , 18-C ) :   1.6007
B( 17-C , 33-H ) :   0.9714 B( 18-C , 19-C ) :   1.2618 B( 18-C , 21-H ) :   0.9880
B( 19-C , 20-C ) :   1.5465 B( 19-C , 22-C ) :   1.0384 B( 22-C , 23-H ) :   0.9278
B( 22-C , 24-H ) :   0.9311 B( 22-C , 25-C ) :   1.0541 B( 25-C , 26-H ) :   0.9464
B( 25-C , 27-H ) :   0.9570 B( 25-C , 28-C ) :   1.0690 B( 28-C , 29-H ) :   0.9771
B( 28-C , 30-H ) :   0.9748 B( 28-C , 31-H ) :   0.9775

Dispersion correction           -0.014032834
FINAL SINGLE POINT ENERGY     -1339.857934896402

DIPOLE MOMENT
-------------
                                X             Y             Z
Electronic contribution:    -15.98092      13.05507      22.68850
Nuclear contribution   :     16.35520     -13.26616     -23.08344
                        -----------------------------------------
Total Dipole Moment    :      0.37429      -0.21109      -0.39494
                        -----------------------------------------
Magnitude (a.u.)       :      0.58363
Magnitude (Debye)      :      1.48347

Rotational constants in cm-1:     0.018960     0.008425     0.006374
Rotational constants in MHz :   568.405018   252.566416   191.083236

                             ****ORCA TERMINATED NORMALLY****
TOTAL RUN TIME: 0 days 0 hours 0 minutes 33 seconds 268 msec
