                         Program Version 4.2.1 -  RELEASE  -
|  1> ! wB97X-D3 SP def2-SVP
|  2> %pal
|  3> nprocs 16
|  4> end
|  5>
|  6> * xyz 0 1
|  7> S 	 -47.6657 	 65.0247 	 125.361
|  8> C 	 -47.2233 	 63.3208 	 125.459
|  9> C 	 -46.8436 	 62.9358 	 126.719
| 10> C 	 -47.0864 	 64.0016 	 127.675
| 11> C 	 -47.5224 	 65.1684 	 127.114
| 12> H 	 -46.8326 	 64.0213 	 128.773
| 13> C 	 -46.6776 	 61.5314 	 127.288
| 14> H 	 -46.1143 	 61.0456 	 126.553
| 15> H 	 -47.6411 	 61.0039 	 127.253
| 16> C 	 -45.9926 	 61.4878 	 128.666
| 17> H 	 -44.9404 	 61.7677 	 128.431
| 18> H 	 -46.3914 	 62.064 	 129.46
| 19> C 	 -45.8735 	 60.0681 	 129.207
| 20> H 	 -46.7731 	 59.6448 	 129.595
| 21> H 	 -45.4633 	 59.4527 	 128.46
| 22> H 	 -45.0401 	 60.0646 	 129.997
| 23> S 	 -47.8196 	 67.8942 	 126.777
| 24> C 	 -48.7363 	 68.7331 	 127.98
| 25> C 	 -49.3228 	 67.8949 	 128.907
| 26> C 	 -48.9491 	 66.5205 	 128.767
| 27> C 	 -47.9897 	 66.4254 	 127.777
| 28> H 	 -49.9079 	 68.2932 	 129.666
| 29> C 	 -49.4043 	 65.4712 	 129.74
| 30> H 	 -50.0373 	 65.9842 	 130.505
| 31> H 	 -48.5524 	 65.0262 	 130.308
| 32> C 	 -50.2303 	 64.3084 	 129.122
| 33> H 	 -49.5928 	 63.6834 	 128.541
| 34> H 	 -50.9901 	 64.7299 	 128.443
| 35> C 	 -51.053 	 63.4604 	 130.174
| 36> H 	 -51.6961 	 64.111 	 130.856
| 37> H 	 -50.4089 	 62.6907 	 130.724
| 38> H 	 -51.7711 	 62.7096 	 129.746
| 39> H 	 -47.2424 	 62.7136 	 124.541
| 40> H 	 -48.959 	 69.741 	 127.969
| 41> *
| 42>
| 43>                          ****END OF INPUT****

CARTESIAN COORDINATES (ANGSTROEM)
---------------------------------
  S    -47.665700   65.024700  125.361000
  C    -47.223300   63.320800  125.459000
  C    -46.843600   62.935800  126.719000
  C    -47.086400   64.001600  127.675000
  C    -47.522400   65.168400  127.114000
  H    -46.832600   64.021300  128.773000
  C    -46.677600   61.531400  127.288000
  H    -46.114300   61.045600  126.553000
  H    -47.641100   61.003900  127.253000
  C    -45.992600   61.487800  128.666000
  H    -44.940400   61.767700  128.431000
  H    -46.391400   62.064000  129.460000
  C    -45.873500   60.068100  129.207000
  H    -46.773100   59.644800  129.595000
  H    -45.463300   59.452700  128.460000
  H    -45.040100   60.064600  129.997000
  S    -47.819600   67.894200  126.777000
  C    -48.736300   68.733100  127.980000
  C    -49.322800   67.894900  128.907000
  C    -48.949100   66.520500  128.767000
  C    -47.989700   66.425400  127.777000
  H    -49.907900   68.293200  129.666000
  C    -49.404300   65.471200  129.740000
  H    -50.037300   65.984200  130.505000
  H    -48.552400   65.026200  130.308000
  C    -50.230300   64.308400  129.122000
  H    -49.592800   63.683400  128.541000
  H    -50.990100   64.729900  128.443000
  C    -51.053000   63.460400  130.174000
  H    -51.696100   64.111000  130.856000
  H    -50.408900   62.690700  130.724000
  H    -51.771100   62.709600  129.746000
  H    -47.242400   62.713600  124.541000
  H    -48.959000   69.741000  127.969000

 Total Charge           Charge          ....    0
 Multiplicity           Mult            ....    1
 Number of Electrons    NEL             ....  134
 Basis Dimension        Dim             ....  322

ORBITAL ENERGIES
----------------

  NO   OCC          E(Eh)            E(eV)
   0   2.0000     -88.969022     -2420.9702
   1   2.0000     -88.962262     -2420.7862
   2   2.0000     -10.328838      -281.0620
   3   2.0000     -10.326981      -281.0114
   4   2.0000     -10.314521      -280.6724
   5   2.0000     -10.310972      -280.5758
   6   2.0000     -10.305302      -280.4215
   7   2.0000     -10.301682      -280.3230
   8   2.0000     -10.300969      -280.3036
   9   2.0000     -10.294401      -280.1249
  10   2.0000     -10.291829      -280.0549
  11   2.0000     -10.290797      -280.0268
  12   2.0000     -10.288984      -279.9775
  13   2.0000     -10.288080      -279.9529
  14   2.0000     -10.288004      -279.9508
  15   2.0000     -10.277116      -279.6545
  16   2.0000      -8.083632      -219.9668
  17   2.0000      -8.076852      -219.7823
  18   2.0000      -6.042042      -164.4123
  19   2.0000      -6.038421      -164.3138
  20   2.0000      -6.035462      -164.2333
  21   2.0000      -6.034251      -164.2003
  22   2.0000      -6.031493      -164.1253
  23   2.0000      -6.027406      -164.0140
  24   2.0000      -1.004955       -27.3462
  25   2.0000      -0.981947       -26.7201
  26   2.0000      -0.913834       -24.8667
  27   2.0000      -0.904491       -24.6125
  28   2.0000      -0.866993       -23.5921
  29   2.0000      -0.849758       -23.1231
  30   2.0000      -0.843330       -22.9482
  31   2.0000      -0.813894       -22.1472
  32   2.0000      -0.781206       -21.2577
  33   2.0000      -0.770922       -20.9779
  34   2.0000      -0.710678       -19.3385
  35   2.0000      -0.699933       -19.0462
  36   2.0000      -0.685102       -18.6426
  37   2.0000      -0.664439       -18.0803
  38   2.0000      -0.640544       -17.4301
  39   2.0000      -0.617020       -16.7900
  40   2.0000      -0.598095       -16.2750
  41   2.0000      -0.577744       -15.7212
  42   2.0000      -0.565192       -15.3797
  43   2.0000      -0.555880       -15.1263
  44   2.0000      -0.526349       -14.3227
  45   2.0000      -0.518140       -14.0993
  46   2.0000      -0.512542       -13.9470
  47   2.0000      -0.509323       -13.8594
  48   2.0000      -0.502783       -13.6814
  49   2.0000      -0.495485       -13.4828
  50   2.0000      -0.488801       -13.3010
  51   2.0000      -0.479218       -13.0402
  52   2.0000      -0.465012       -12.6536
  53   2.0000      -0.461978       -12.5711
  54   2.0000      -0.459818       -12.5123
  55   2.0000      -0.456534       -12.4229
  56   2.0000      -0.446769       -12.1572
  57   2.0000      -0.438047       -11.9199
  58   2.0000      -0.429407       -11.6848
  59   2.0000      -0.426493       -11.6055
  60   2.0000      -0.423166       -11.5149
  61   2.0000      -0.414049       -11.2669
  62   2.0000      -0.411822       -11.2063
  63   2.0000      -0.349673        -9.5151
  64   2.0000      -0.334773        -9.1096
  65   2.0000      -0.328018        -8.9258
  66   2.0000      -0.287684        -7.8283
  67   0.0000       0.027391         0.7454
  68   0.0000       0.067368         1.8332
  69   0.0000       0.095664         2.6032
  70   0.0000       0.114880         3.1260
  71   0.0000       0.134368         3.6563

MULLIKEN ATOMIC CHARGES
-----------------------
   0 S :    0.090145
   1 C :   -0.156160
   2 C :   -0.043083
   3 C :   -0.064237
   4 C :   -0.111473
   5 H :    0.043306
   6 C :    0.082213
   7 H :    0.005133
   8 H :    0.044028
   9 C :   -0.109587
  10 H :    0.039374
  11 H :    0.038590
  12 C :   -0.027987
  13 H :    0.035058
  14 H :    0.011245
  15 H :    0.034490
  16 S :    0.097180
  17 C :   -0.046777
  18 C :   -0.011598
  19 C :   -0.015514
  20 C :   -0.141684
  21 H :   -0.008954
  22 C :    0.036815
  23 H :    0.019551
  24 H :    0.046465
  25 C :   -0.058877
  26 H :    0.040650
  27 H :    0.037039
  28 C :   -0.107212
  29 H :    0.046870
  30 H :    0.035671
  31 H :    0.037354
  32 H :    0.057359
  33 H :    0.024605
Sum of atomic charges:   -0.0000000

LOEWDIN ATOMIC CHARGES
----------------------
   0 S :    0.380067
   1 C :   -0.194045
   2 C :   -0.065226
   3 C :   -0.084254
   4 C :   -0.180103
   5 H :    0.041366
   6 C :   -0.028281
   7 H :    0.023401
   8 H :    0.035092
   9 C :   -0.040098
  10 H :    0.035612
  11 H :    0.017943
  12 C :   -0.060443
  13 H :    0.018823
  14 H :    0.016072
  15 H :    0.035538
  16 S :    0.397870
  17 C :   -0.173027
  18 C :   -0.058543
  19 C :   -0.049116
  20 C :   -0.182035
  21 H :    0.019274
  22 C :   -0.033978
  23 H :    0.032946
  24 H :    0.036520
  25 C :   -0.037310
  26 H :    0.020844
  27 H :    0.029297
  28 C :   -0.087756
  29 H :    0.030419
  30 H :    0.028815
  31 H :    0.030168
  32 H :    0.030373
  33 H :    0.013776

  Mayer bond orders larger than 0.100000
B(  0-S ,  1-C ) :   1.1275 B(  0-S ,  4-C ) :   1.1309 B(  1-C ,  2-C ) :   1.6376
B(  1-C , 32-H ) :   0.9705 B(  2-C ,  3-C ) :   1.1959 B(  2-C ,  6-C ) :   1.0173
B(  3-C ,  4-C ) :   1.6475 B(  3-C ,  5-H ) :   0.9775 B(  4-C , 20-C ) :   1.0256
B(  6-C ,  7-H ) :   0.9275 B(  6-C ,  8-H ) :   0.9437 B(  6-C ,  9-C ) :   1.0685
B(  9-C , 10-H ) :   0.9572 B(  9-C , 11-H ) :   0.9530 B(  9-C , 12-C ) :   1.0930
B( 12-C , 13-H ) :   0.9763 B( 12-C , 14-H ) :   0.9698 B( 12-C , 15-H ) :   0.9732
B( 16-S , 17-C ) :   1.1507 B( 16-S , 20-C ) :   1.1302 B( 17-C , 18-C ) :   1.6245
B( 17-C , 33-H ) :   0.9727 B( 18-C , 19-C ) :   1.2351 B( 18-C , 21-H ) :   0.9981
B( 19-C , 20-C ) :   1.5962 B( 19-C , 22-C ) :   1.0355 B( 22-C , 23-H ) :   0.9375
B( 22-C , 24-H ) :   0.9393 B( 22-C , 25-C ) :   1.0470 B( 25-C , 26-H ) :   0.9548
B( 25-C , 27-H ) :   0.9583 B( 25-C , 28-C ) :   1.0742 B( 28-C , 29-H ) :   0.9741
B( 28-C , 30-H ) :   0.9743 B( 28-C , 31-H ) :   0.9756

Dispersion correction           -0.014615332
FINAL SINGLE POINT ENERGY     -1339.863461847402

DIPOLE MOMENT
-------------
                                X             Y             Z
Electronic contribution:      3.93225      26.12300     -19.67035
Nuclear contribution   :     -4.18356     -26.57668      20.10927
                        -----------------------------------------
Total Dipole Moment    :     -0.25131      -0.45367       0.43892
                        -----------------------------------------
Magnitude (a.u.)       :      0.67943
Magnitude (Debye)      :      1.72698

Rotational constants in cm-1:     0.018278     0.009379     0.007104
Rotational constants in MHz :   547.962680   281.184668   212.962089

                             ****ORCA TERMINATED NORMALLY****
TOTAL RUN TIME: 0 days 0 hours 0 minutes 34 seconds 474 msec
