                         Program Version 4.2.1 -  RELEASE  -
|  1> ! wB97X-D3 SP def2-SVP
|  2> %pal
|  3> nprocs 16
|  4> end
|  5>
|  6> * xyz 0 1
|  7> S 	 39.6156 	 6.55023 	 85.4116
|  8> C 	 40.4531 	 6.60063 	 83.8812
|  9> C 	 41.6173 	 7.32238 	 84.052
| 10> C 	 41.8677 	 7.74963 	 85.3484
| 11> C 	 40.8442 	 7.50854 	 86.2265
| 12> H 	 42.6908 	 8.47134 	 85.6168
| 13> C 	 42.6522 	 7.49738 	 82.9825
| 14> H 	 42.2473 	 7.24265 	 81.9912
| 15> H 	 43.3323 	 6.70249 	 83.0056
| 16> C 	 43.283 	 8.89502 	 82.9958
| 17> H 	 43.9594 	 8.98726 	 83.8019
| 18> H 	 43.9739 	 8.95772 	 82.1461
| 19> C 	 42.3682 	 10.033 	 82.9464
| 20> H 	 41.5474 	 9.8209 	 83.6043
| 21> H 	 42.897 	 10.9183 	 83.2696
| 22> H 	 42.0348 	 10.1579 	 81.9434
| 23> S 	 39.2308 	 9.03312 	 87.7504
| 24> C 	 39.7585 	 9.51092 	 89.3875
| 25> C 	 41.0244 	 9.05962 	 89.6537
| 26> C 	 41.6044 	 8.25683 	 88.5953
| 27> C 	 40.6847 	 8.07707 	 87.555
| 28> H 	 41.4786 	 9.32261 	 90.6006
| 29> C 	 42.9242 	 7.56207 	 88.7612
| 30> H 	 43.2306 	 7.12068 	 87.8284
| 31> H 	 42.7625 	 6.64455 	 89.3943
| 32> C 	 44.1665 	 8.44445 	 89.2244
| 33> H 	 43.8691 	 8.77738 	 90.2103
| 34> H 	 44.2103 	 9.33453 	 88.5124
| 35> C 	 45.5112 	 7.69622 	 89.4582
| 36> H 	 46.2242 	 8.44692 	 89.7851
| 37> H 	 46.0914 	 7.49732 	 88.4705
| 38> H 	 45.52 	 6.83672 	 90.1719
| 39> H 	 40.0838 	 6.34307 	 82.9654
| 40> H 	 39.1502 	 10.0941 	 90.0047
| 41> *
| 42>
| 43>                          ****END OF INPUT****

CARTESIAN COORDINATES (ANGSTROEM)
---------------------------------
  S     39.615600    6.550230   85.411600
  C     40.453100    6.600630   83.881200
  C     41.617300    7.322380   84.052000
  C     41.867700    7.749630   85.348400
  C     40.844200    7.508540   86.226500
  H     42.690800    8.471340   85.616800
  C     42.652200    7.497380   82.982500
  H     42.247300    7.242650   81.991200
  H     43.332300    6.702490   83.005600
  C     43.283000    8.895020   82.995800
  H     43.959400    8.987260   83.801900
  H     43.973900    8.957720   82.146100
  C     42.368200   10.033000   82.946400
  H     41.547400    9.820900   83.604300
  H     42.897000   10.918300   83.269600
  H     42.034800   10.157900   81.943400
  S     39.230800    9.033120   87.750400
  C     39.758500    9.510920   89.387500
  C     41.024400    9.059620   89.653700
  C     41.604400    8.256830   88.595300
  C     40.684700    8.077070   87.555000
  H     41.478600    9.322610   90.600600
  C     42.924200    7.562070   88.761200
  H     43.230600    7.120680   87.828400
  H     42.762500    6.644550   89.394300
  C     44.166500    8.444450   89.224400
  H     43.869100    8.777380   90.210300
  H     44.210300    9.334530   88.512400
  C     45.511200    7.696220   89.458200
  H     46.224200    8.446920   89.785100
  H     46.091400    7.497320   88.470500
  H     45.520000    6.836720   90.171900
  H     40.083800    6.343070   82.965400
  H     39.150200   10.094100   90.004700

 Total Charge           Charge          ....    0
 Multiplicity           Mult            ....    1
 Number of Electrons    NEL             ....  134
 Basis Dimension        Dim             ....  322

ORBITAL ENERGIES
----------------

  NO   OCC          E(Eh)            E(eV)
   0   2.0000     -88.964866     -2420.8571
   1   2.0000     -88.964395     -2420.8442
   2   2.0000     -10.328718      -281.0587
   3   2.0000     -10.328115      -281.0423
   4   2.0000     -10.316146      -280.7166
   5   2.0000     -10.308427      -280.5066
   6   2.0000     -10.305924      -280.4384
   7   2.0000     -10.301647      -280.3221
   8   2.0000     -10.296776      -280.1895
   9   2.0000     -10.294177      -280.1188
  10   2.0000     -10.293708      -280.1060
  11   2.0000     -10.292841      -280.0825
  12   2.0000     -10.289720      -279.9975
  13   2.0000     -10.283425      -279.8262
  14   2.0000     -10.275018      -279.5975
  15   2.0000     -10.262701      -279.2623
  16   2.0000      -8.079475      -219.8537
  17   2.0000      -8.078820      -219.8359
  18   2.0000      -6.037970      -164.3015
  19   2.0000      -6.037349      -164.2846
  20   2.0000      -6.033890      -164.1905
  21   2.0000      -6.033413      -164.1775
  22   2.0000      -6.030352      -164.0942
  23   2.0000      -6.029514      -164.0714
  24   2.0000      -1.008499       -27.4427
  25   2.0000      -0.983804       -26.7707
  26   2.0000      -0.919770       -25.0282
  27   2.0000      -0.899726       -24.4828
  28   2.0000      -0.874108       -23.7857
  29   2.0000      -0.850940       -23.1552
  30   2.0000      -0.845606       -23.0101
  31   2.0000      -0.820415       -22.3246
  32   2.0000      -0.784804       -21.3556
  33   2.0000      -0.772572       -21.0227
  34   2.0000      -0.710612       -19.3367
  35   2.0000      -0.699151       -19.0249
  36   2.0000      -0.695721       -18.9315
  37   2.0000      -0.657134       -17.8815
  38   2.0000      -0.640797       -17.4370
  39   2.0000      -0.627288       -17.0694
  40   2.0000      -0.599537       -16.3142
  41   2.0000      -0.569550       -15.4982
  42   2.0000      -0.563284       -15.3277
  43   2.0000      -0.561890       -15.2898
  44   2.0000      -0.540675       -14.7125
  45   2.0000      -0.521594       -14.1933
  46   2.0000      -0.520075       -14.1520
  47   2.0000      -0.512399       -13.9431
  48   2.0000      -0.507944       -13.8219
  49   2.0000      -0.497631       -13.5412
  50   2.0000      -0.485798       -13.2192
  51   2.0000      -0.479890       -13.0585
  52   2.0000      -0.473115       -12.8741
  53   2.0000      -0.462339       -12.5809
  54   2.0000      -0.458315       -12.4714
  55   2.0000      -0.454610       -12.3706
  56   2.0000      -0.444009       -12.0821
  57   2.0000      -0.440021       -11.9736
  58   2.0000      -0.435721       -11.8566
  59   2.0000      -0.428047       -11.6477
  60   2.0000      -0.414982       -11.2922
  61   2.0000      -0.408121       -11.1055
  62   2.0000      -0.403073       -10.9682
  63   2.0000      -0.349805        -9.5187
  64   2.0000      -0.329991        -8.9795
  65   2.0000      -0.328458        -8.9378
  66   2.0000      -0.292295        -7.9538
  67   0.0000       0.026507         0.7213
  68   0.0000       0.072842         1.9821
  69   0.0000       0.110733         3.0132
  70   0.0000       0.122888         3.3440
  71   0.0000       0.127059         3.4575

MULLIKEN ATOMIC CHARGES
-----------------------
   0 S :    0.105324
   1 C :   -0.067382
   2 C :   -0.134381
   3 C :    0.019620
   4 C :   -0.161432
   5 H :    0.038131
   6 C :    0.118890
   7 H :   -0.004110
   8 H :    0.022359
   9 C :   -0.096707
  10 H :    0.012687
  11 H :    0.013929
  12 C :    0.004525
  13 H :    0.039011
  14 H :    0.027105
  15 H :    0.021657
  16 S :    0.095348
  17 C :   -0.074717
  18 C :   -0.024503
  19 C :   -0.022778
  20 C :   -0.135311
  21 H :    0.022263
  22 C :    0.047841
  23 H :    0.008898
  24 H :    0.048595
  25 C :   -0.104759
  26 H :    0.028680
  27 H :    0.049843
  28 C :   -0.071655
  29 H :    0.030381
  30 H :    0.037399
  31 H :    0.058553
  32 H :    0.010639
  33 H :    0.036059
Sum of atomic charges:    0.0000000

LOEWDIN ATOMIC CHARGES
----------------------
   0 S :    0.406386
   1 C :   -0.186386
   2 C :   -0.067478
   3 C :   -0.073953
   4 C :   -0.191873
   5 H :    0.042441
   6 C :   -0.028422
   7 H :    0.028085
   8 H :    0.028851
   9 C :   -0.045674
  10 H :    0.013197
  11 H :    0.025368
  12 C :   -0.054819
  13 H :    0.025872
  14 H :    0.029174
  15 H :    0.023038
  16 S :    0.391469
  17 C :   -0.160650
  18 C :   -0.064586
  19 C :   -0.056880
  20 C :   -0.192656
  21 H :    0.032093
  22 C :   -0.042179
  23 H :    0.022975
  24 H :    0.041177
  25 C :   -0.041482
  26 H :    0.017963
  27 H :    0.035821
  28 C :   -0.082729
  29 H :    0.028735
  30 H :    0.035471
  31 H :    0.034766
  32 H :    0.011079
  33 H :    0.015809

  Mayer bond orders larger than 0.100000
B(  0-S ,  1-C ) :   1.1323 B(  0-S ,  4-C ) :   1.1627 B(  1-C ,  2-C ) :   1.5927
B(  1-C ,  4-C ) :   0.1024 B(  1-C , 32-H ) :   0.9797 B(  2-C ,  3-C ) :   1.2707
B(  2-C ,  6-C ) :   1.0216 B(  3-C ,  4-C ) :   1.5579 B(  3-C ,  5-H ) :   0.9767
B(  4-C , 20-C ) :   1.0321 B(  6-C ,  7-H ) :   0.9331 B(  6-C ,  8-H ) :   0.9344
B(  6-C ,  9-C ) :   1.0678 B(  9-C , 10-H ) :   0.9528 B(  9-C , 11-H ) :   0.9476
B(  9-C , 12-C ) :   1.0880 B( 12-C , 13-H ) :   0.9698 B( 12-C , 14-H ) :   0.9688
B( 12-C , 15-H ) :   0.9731 B( 16-S , 17-C ) :   1.1360 B( 16-S , 20-C ) :   1.1471
B( 17-C , 18-C ) :   1.6316 B( 17-C , 33-H ) :   0.9780 B( 18-C , 19-C ) :   1.2004
B( 18-C , 21-H ) :   0.9909 B( 19-C , 20-C ) :   1.5951 B( 19-C , 22-C ) :   1.0581
B( 22-C , 23-H ) :   0.9316 B( 22-C , 24-H ) :   0.9367 B( 22-C , 25-C ) :   1.0398
B( 25-C , 26-H ) :   0.9572 B( 25-C , 27-H ) :   0.9577 B( 25-C , 28-C ) :   1.0829
B( 28-C , 29-H ) :   0.9694 B( 28-C , 30-H ) :   0.9711 B( 28-C , 31-H ) :   0.9726

Dispersion correction           -0.014286055
FINAL SINGLE POINT ENERGY     -1339.865553448204

DIPOLE MOMENT
-------------
                                X             Y             Z
Electronic contribution:    -26.72894      -5.55158       3.64265
Nuclear contribution   :     27.44242       5.80467      -3.60972
                        -----------------------------------------
Total Dipole Moment    :      0.71348       0.25308       0.03293
                        -----------------------------------------
Magnitude (a.u.)       :      0.75775
Magnitude (Debye)      :      1.92605

Rotational constants in cm-1:     0.015662     0.009751     0.007389
Rotational constants in MHz :   469.531965   292.325023   221.529102

                             ****ORCA TERMINATED NORMALLY****
TOTAL RUN TIME: 0 days 0 hours 0 minutes 30 seconds 456 msec
