                         Program Version 4.2.1 -  RELEASE  -
|  1> ! wB97X-D3 SP def2-SVP
|  2> %pal
|  3> nprocs 16
|  4> end
|  5>
|  6> * xyz 0 1
|  7> S 	 49.4199 	 4.92238 	 88.2571
|  8> C 	 50.5009 	 5.62065 	 87.0346
|  9> C 	 51.703 	 6.07 	 87.583
| 10> C 	 51.6881 	 5.94026 	 89.0141
| 11> C 	 50.5605 	 5.27245 	 89.5413
| 12> H 	 52.4288 	 6.38073 	 89.6801
| 13> C 	 52.9025 	 6.61904 	 86.8722
| 14> H 	 53.5783 	 7.09674 	 87.592
| 15> H 	 52.5195 	 7.43694 	 86.2323
| 16> C 	 53.6568 	 5.57379 	 86.0894
| 17> H 	 54.0123 	 4.63228 	 86.6367
| 18> H 	 53.0281 	 5.29598 	 85.2758
| 19> C 	 54.901 	 6.16504 	 85.5228
| 20> H 	 54.6663 	 7.15473 	 85.0261
| 21> H 	 55.6734 	 6.1737 	 86.2248
| 22> H 	 55.3142 	 5.44369 	 84.7743
| 23> S 	 48.5659 	 5.8514 	 91.2133
| 24> C 	 48.7667 	 5.55683 	 92.9269
| 25> C 	 50.0078 	 5.02408 	 93.2219
| 26> C 	 50.8205 	 4.75753 	 92.0617
| 27> C 	 50.1074 	 5.05527 	 90.8827
| 28> H 	 50.2887 	 4.84641 	 94.2711
| 29> C 	 52.279 	 4.37857 	 92.1497
| 30> H 	 52.7868 	 5.31474 	 92.3829
| 31> H 	 52.4344 	 3.94291 	 91.1858
| 32> C 	 52.7576 	 3.34922 	 93.1267
| 33> H 	 52.3788 	 3.5645 	 94.1795
| 34> H 	 53.8325 	 3.39234 	 93.0467
| 35> C 	 52.3462 	 1.92036 	 92.7404
| 36> H 	 52.5355 	 1.69147 	 91.6713
| 37> H 	 51.2834 	 1.7527 	 92.7842
| 38> H 	 52.9742 	 1.20154 	 93.343
| 39> H 	 50.2974 	 5.6367 	 85.9875
| 40> H 	 48.0841 	 5.84443 	 93.7356
| 41> *
| 42>
| 43>                          ****END OF INPUT****

CARTESIAN COORDINATES (ANGSTROEM)
---------------------------------
  S     49.419900    4.922380   88.257100
  C     50.500900    5.620650   87.034600
  C     51.703000    6.070000   87.583000
  C     51.688100    5.940260   89.014100
  C     50.560500    5.272450   89.541300
  H     52.428800    6.380730   89.680100
  C     52.902500    6.619040   86.872200
  H     53.578300    7.096740   87.592000
  H     52.519500    7.436940   86.232300
  C     53.656800    5.573790   86.089400
  H     54.012300    4.632280   86.636700
  H     53.028100    5.295980   85.275800
  C     54.901000    6.165040   85.522800
  H     54.666300    7.154730   85.026100
  H     55.673400    6.173700   86.224800
  H     55.314200    5.443690   84.774300
  S     48.565900    5.851400   91.213300
  C     48.766700    5.556830   92.926900
  C     50.007800    5.024080   93.221900
  C     50.820500    4.757530   92.061700
  C     50.107400    5.055270   90.882700
  H     50.288700    4.846410   94.271100
  C     52.279000    4.378570   92.149700
  H     52.786800    5.314740   92.382900
  H     52.434400    3.942910   91.185800
  C     52.757600    3.349220   93.126700
  H     52.378800    3.564500   94.179500
  H     53.832500    3.392340   93.046700
  C     52.346200    1.920360   92.740400
  H     52.535500    1.691470   91.671300
  H     51.283400    1.752700   92.784200
  H     52.974200    1.201540   93.343000
  H     50.297400    5.636700   85.987500
  H     48.084100    5.844430   93.735600

 Total Charge           Charge          ....    0
 Multiplicity           Mult            ....    1
 Number of Electrons    NEL             ....  134
 Basis Dimension        Dim             ....  322

ORBITAL ENERGIES
----------------

  NO   OCC          E(Eh)            E(eV)
   0   2.0000     -88.966249     -2420.8947
   1   2.0000     -88.964797     -2420.8552
   2   2.0000     -10.328660      -281.0571
   3   2.0000     -10.325082      -280.9598
   4   2.0000     -10.318527      -280.7814
   5   2.0000     -10.313083      -280.6332
   6   2.0000     -10.306874      -280.4643
   7   2.0000     -10.300961      -280.3034
   8   2.0000     -10.295692      -280.1600
   9   2.0000     -10.295395      -280.1520
  10   2.0000     -10.293096      -280.0894
  11   2.0000     -10.290187      -280.0102
  12   2.0000     -10.287529      -279.9379
  13   2.0000     -10.284739      -279.8620
  14   2.0000     -10.279213      -279.7116
  15   2.0000     -10.276579      -279.6399
  16   2.0000      -8.080639      -219.8854
  17   2.0000      -8.079027      -219.8415
  18   2.0000      -6.039232      -164.3358
  19   2.0000      -6.037624      -164.2921
  20   2.0000      -6.035243      -164.2273
  21   2.0000      -6.033501      -164.1799
  22   2.0000      -6.031240      -164.1184
  23   2.0000      -6.029837      -164.0802
  24   2.0000      -1.003618       -27.3098
  25   2.0000      -0.976664       -26.5764
  26   2.0000      -0.921904       -25.0863
  27   2.0000      -0.916252       -24.9325
  28   2.0000      -0.872253       -23.7352
  29   2.0000      -0.850442       -23.1417
  30   2.0000      -0.843415       -22.9505
  31   2.0000      -0.809323       -22.0228
  32   2.0000      -0.783490       -21.3199
  33   2.0000      -0.770756       -20.9733
  34   2.0000      -0.706315       -19.2198
  35   2.0000      -0.698533       -19.0080
  36   2.0000      -0.691533       -18.8176
  37   2.0000      -0.654433       -17.8080
  38   2.0000      -0.638204       -17.3664
  39   2.0000      -0.615131       -16.7386
  40   2.0000      -0.593856       -16.1596
  41   2.0000      -0.574913       -15.6442
  42   2.0000      -0.565617       -15.3912
  43   2.0000      -0.562356       -15.3025
  44   2.0000      -0.546291       -14.8653
  45   2.0000      -0.526645       -14.3307
  46   2.0000      -0.520484       -14.1631
  47   2.0000      -0.512316       -13.9408
  48   2.0000      -0.505487       -13.7550
  49   2.0000      -0.497849       -13.5472
  50   2.0000      -0.494478       -13.4554
  51   2.0000      -0.473861       -12.8944
  52   2.0000      -0.464377       -12.6363
  53   2.0000      -0.455615       -12.3979
  54   2.0000      -0.452247       -12.3063
  55   2.0000      -0.448567       -12.2061
  56   2.0000      -0.445915       -12.1340
  57   2.0000      -0.436420       -11.8756
  58   2.0000      -0.434038       -11.8108
  59   2.0000      -0.429146       -11.6777
  60   2.0000      -0.421608       -11.4725
  61   2.0000      -0.413986       -11.2651
  62   2.0000      -0.411022       -11.1845
  63   2.0000      -0.346783        -9.4364
  64   2.0000      -0.329094        -8.9551
  65   2.0000      -0.326868        -8.8945
  66   2.0000      -0.285739        -7.7754
  67   0.0000       0.025719         0.6998
  68   0.0000       0.068716         1.8699
  69   0.0000       0.106884         2.9085
  70   0.0000       0.115390         3.1399
  71   0.0000       0.131188         3.5698

MULLIKEN ATOMIC CHARGES
-----------------------
   0 S :    0.096911
   1 C :   -0.112348
   2 C :   -0.084127
   3 C :    0.026068
   4 C :   -0.173222
   5 H :    0.014805
   6 C :    0.057408
   7 H :    0.017092
   8 H :    0.038571
   9 C :   -0.076520
  10 H :    0.045737
  11 H :    0.019321
  12 C :   -0.037686
  13 H :    0.038564
  14 H :    0.020210
  15 H :    0.028799
  16 S :    0.108704
  17 C :   -0.089739
  18 C :   -0.056820
  19 C :   -0.065423
  20 C :   -0.127318
  21 H :    0.026280
  22 C :    0.076096
  23 H :    0.048519
  24 H :    0.021807
  25 C :   -0.062953
  26 H :    0.038705
  27 H :    0.030739
  28 C :   -0.076077
  29 H :    0.025159
  30 H :    0.039669
  31 H :    0.045780
  32 H :    0.035321
  33 H :    0.061971
Sum of atomic charges:   -0.0000000

LOEWDIN ATOMIC CHARGES
----------------------
   0 S :    0.396400
   1 C :   -0.191736
   2 C :   -0.058659
   3 C :   -0.065042
   4 C :   -0.197674
   5 H :    0.030317
   6 C :   -0.035005
   7 H :    0.028999
   8 H :    0.038350
   9 C :   -0.044215
  10 H :    0.037768
  11 H :    0.018650
  12 C :   -0.065824
  13 H :    0.030631
  14 H :    0.014463
  15 H :    0.030811
  16 S :    0.406216
  17 C :   -0.188001
  18 C :   -0.077975
  19 C :   -0.049537
  20 C :   -0.207525
  21 H :    0.033062
  22 C :   -0.034986
  23 H :    0.038793
  24 H :    0.031327
  25 C :   -0.043147
  26 H :    0.028323
  27 H :    0.027788
  28 C :   -0.071508
  29 H :    0.026316
  30 H :    0.024495
  31 H :    0.032979
  32 H :    0.020370
  33 H :    0.034773

  Mayer bond orders larger than 0.100000
B(  0-S ,  1-C ) :   1.1326 B(  0-S ,  4-C ) :   1.1526 B(  1-C ,  2-C ) :   1.5989
B(  1-C ,  4-C ) :   0.1005 B(  1-C , 32-H ) :   0.9736 B(  2-C ,  3-C ) :   1.2580
B(  2-C ,  6-C ) :   1.0209 B(  3-C ,  4-C ) :   1.5479 B(  3-C ,  5-H ) :   0.9887
B(  4-C , 20-C ) :   1.0404 B(  6-C ,  7-H ) :   0.9449 B(  6-C ,  8-H ) :   0.9287
B(  6-C ,  9-C ) :   1.0718 B(  9-C , 10-H ) :   0.9543 B(  9-C , 11-H ) :   0.9511
B(  9-C , 12-C ) :   1.0959 B( 12-C , 13-H ) :   0.9679 B( 12-C , 14-H ) :   0.9746
B( 12-C , 15-H ) :   0.9705 B( 16-S , 17-C ) :   1.1501 B( 16-S , 20-C ) :   1.1349
B( 17-C , 18-C ) :   1.6255 B( 17-C , 33-H ) :   0.9625 B( 18-C , 19-C ) :   1.2262
B( 18-C , 21-H ) :   0.9855 B( 19-C , 20-C ) :   1.5916 B( 19-C , 22-C ) :   1.0396
B( 22-C , 23-H ) :   0.9258 B( 22-C , 24-H ) :   0.9282 B( 22-C , 25-C ) :   1.0886
B( 25-C , 26-H ) :   0.9479 B( 25-C , 27-H ) :   0.9485 B( 25-C , 28-C ) :   1.0787
B( 28-C , 29-H ) :   0.9706 B( 28-C , 30-H ) :   0.9769 B( 28-C , 31-H ) :   0.9753

Dispersion correction           -0.013616571
FINAL SINGLE POINT ENERGY     -1339.873410095063

DIPOLE MOMENT
-------------
                                X             Y             Z
Electronic contribution:    -26.98218       5.68186       3.18157
Nuclear contribution   :     27.71659      -5.52461      -3.04540
                        -----------------------------------------
Total Dipole Moment    :      0.73441       0.15725       0.13616
                        -----------------------------------------
Magnitude (a.u.)       :      0.76330
Magnitude (Debye)      :      1.94016

Rotational constants in cm-1:     0.019118     0.008030     0.006280
Rotational constants in MHz :   573.151814   240.735108   188.264209

                             ****ORCA TERMINATED NORMALLY****
TOTAL RUN TIME: 0 days 0 hours 0 minutes 29 seconds 428 msec
