                         Program Version 4.2.1 -  RELEASE  -
|  1> ! wB97X-D3 SP def2-SVP
|  2> %pal
|  3> nprocs 16
|  4> end
|  5>
|  6> * xyz 0 1
|  7> S 	 50.7462 	 21.9703 	 93.3548
|  8> C 	 49.9115 	 21.8563 	 91.8826
|  9> C 	 50.4417 	 20.9657 	 90.9422
| 10> C 	 51.6165 	 20.4238 	 91.4939
| 11> C 	 51.9489 	 20.8755 	 92.7213
| 12> H 	 52.3223 	 19.7992 	 91.0301
| 13> C 	 49.9047 	 20.7245 	 89.5176
| 14> H 	 50.6435 	 21.089 	 88.7794
| 15> H 	 48.9175 	 21.273 	 89.4986
| 16> C 	 49.5258 	 19.2739 	 89.2789
| 17> H 	 50.4031 	 18.6447 	 89.2807
| 18> H 	 48.9341 	 18.8535 	 90.0841
| 19> C 	 48.9225 	 18.9791 	 87.9012
| 20> H 	 48.81 	 17.8466 	 87.7958
| 21> H 	 47.9818 	 19.4459 	 87.6209
| 22> H 	 49.6971 	 19.3613 	 87.1963
| 23> S 	 54.4383 	 21.6027 	 93.3951
| 24> C 	 55.4243 	 20.4828 	 94.245
| 25> C 	 54.7805 	 19.2632 	 94.3396
| 26> C 	 53.461 	 19.2143 	 93.7954
| 27> C 	 53.1086 	 20.4412 	 93.3821
| 28> H 	 55.2842 	 18.4046 	 94.7449
| 29> C 	 52.569 	 17.9981 	 93.8399
| 30> H 	 51.928 	 18.0308 	 92.9551
| 31> H 	 52.0028 	 18.0966 	 94.7386
| 32> C 	 53.3198 	 16.6406 	 93.9758
| 33> H 	 53.9259 	 16.554 	 94.9619
| 34> H 	 54.1324 	 16.4897 	 93.1892
| 35> C 	 52.3961 	 15.4165 	 93.8622
| 36> H 	 51.8445 	 15.5137 	 92.9221
| 37> H 	 51.8386 	 15.4238 	 94.7636
| 38> H 	 52.9411 	 14.5057 	 93.8765
| 39> H 	 49.1668 	 22.6191 	 91.6336
| 40> H 	 56.4942 	 20.6214 	 94.561
| 41> *
| 42>
| 43>                          ****END OF INPUT****

CARTESIAN COORDINATES (ANGSTROEM)
---------------------------------
  S     50.746200   21.970300   93.354800
  C     49.911500   21.856300   91.882600
  C     50.441700   20.965700   90.942200
  C     51.616500   20.423800   91.493900
  C     51.948900   20.875500   92.721300
  H     52.322300   19.799200   91.030100
  C     49.904700   20.724500   89.517600
  H     50.643500   21.089000   88.779400
  H     48.917500   21.273000   89.498600
  C     49.525800   19.273900   89.278900
  H     50.403100   18.644700   89.280700
  H     48.934100   18.853500   90.084100
  C     48.922500   18.979100   87.901200
  H     48.810000   17.846600   87.795800
  H     47.981800   19.445900   87.620900
  H     49.697100   19.361300   87.196300
  S     54.438300   21.602700   93.395100
  C     55.424300   20.482800   94.245000
  C     54.780500   19.263200   94.339600
  C     53.461000   19.214300   93.795400
  C     53.108600   20.441200   93.382100
  H     55.284200   18.404600   94.744900
  C     52.569000   17.998100   93.839900
  H     51.928000   18.030800   92.955100
  H     52.002800   18.096600   94.738600
  C     53.319800   16.640600   93.975800
  H     53.925900   16.554000   94.961900
  H     54.132400   16.489700   93.189200
  C     52.396100   15.416500   93.862200
  H     51.844500   15.513700   92.922100
  H     51.838600   15.423800   94.763600
  H     52.941100   14.505700   93.876500
  H     49.166800   22.619100   91.633600
  H     56.494200   20.621400   94.561000

 Total Charge           Charge          ....    0
 Multiplicity           Mult            ....    1
 Number of Electrons    NEL             ....  134
 Basis Dimension        Dim             ....  322

ORBITAL ENERGIES
----------------

  NO   OCC          E(Eh)            E(eV)
   0   2.0000     -88.965768     -2420.8816
   1   2.0000     -88.959672     -2420.7157
   2   2.0000     -10.315651      -280.7031
   3   2.0000     -10.312028      -280.6045
   4   2.0000     -10.310504      -280.5631
   5   2.0000     -10.310051      -280.5507
   6   2.0000     -10.301590      -280.3205
   7   2.0000     -10.300269      -280.2846
   8   2.0000     -10.299380      -280.2604
   9   2.0000     -10.295502      -280.1549
  10   2.0000     -10.293660      -280.1047
  11   2.0000     -10.286523      -279.9105
  12   2.0000     -10.286371      -279.9064
  13   2.0000     -10.283933      -279.8401
  14   2.0000     -10.282125      -279.7909
  15   2.0000     -10.274326      -279.5786
  16   2.0000      -8.081708      -219.9145
  17   2.0000      -8.075125      -219.7353
  18   2.0000      -6.039881      -164.3535
  19   2.0000      -6.036183      -164.2529
  20   2.0000      -6.033590      -164.1823
  21   2.0000      -6.032630      -164.1562
  22   2.0000      -6.029568      -164.0729
  23   2.0000      -6.025863      -163.9721
  24   2.0000      -1.015735       -27.6396
  25   2.0000      -0.989126       -26.9155
  26   2.0000      -0.912714       -24.8362
  27   2.0000      -0.908642       -24.7254
  28   2.0000      -0.876699       -23.8562
  29   2.0000      -0.855025       -23.2664
  30   2.0000      -0.852121       -23.1874
  31   2.0000      -0.809904       -22.0386
  32   2.0000      -0.785350       -21.3705
  33   2.0000      -0.769423       -20.9371
  34   2.0000      -0.703417       -19.1410
  35   2.0000      -0.696127       -18.9426
  36   2.0000      -0.689191       -18.7538
  37   2.0000      -0.654021       -17.7968
  38   2.0000      -0.647525       -17.6201
  39   2.0000      -0.619138       -16.8476
  40   2.0000      -0.596687       -16.2367
  41   2.0000      -0.575450       -15.6588
  42   2.0000      -0.572807       -15.5869
  43   2.0000      -0.555614       -15.1190
  44   2.0000      -0.527468       -14.3531
  45   2.0000      -0.524947       -14.2845
  46   2.0000      -0.519678       -14.1412
  47   2.0000      -0.511988       -13.9319
  48   2.0000      -0.506878       -13.7928
  49   2.0000      -0.498711       -13.5706
  50   2.0000      -0.491215       -13.3667
  51   2.0000      -0.475796       -12.9471
  52   2.0000      -0.470807       -12.8113
  53   2.0000      -0.463714       -12.6183
  54   2.0000      -0.460822       -12.5396
  55   2.0000      -0.451299       -12.2805
  56   2.0000      -0.448320       -12.1994
  57   2.0000      -0.435710       -11.8563
  58   2.0000      -0.429826       -11.6961
  59   2.0000      -0.426435       -11.6039
  60   2.0000      -0.421193       -11.4613
  61   2.0000      -0.416790       -11.3414
  62   2.0000      -0.415916       -11.3176
  63   2.0000      -0.340319        -9.2605
  64   2.0000      -0.329555        -8.9676
  65   2.0000      -0.323138        -8.7930
  66   2.0000      -0.301371        -8.2007
  67   0.0000       0.041640         1.1331
  68   0.0000       0.068067         1.8522
  69   0.0000       0.119411         3.2493
  70   0.0000       0.126992         3.4556
  71   0.0000       0.128951         3.5089

MULLIKEN ATOMIC CHARGES
-----------------------
   0 S :    0.134595
   1 C :   -0.137041
   2 C :   -0.076492
   3 C :    0.043860
   4 C :   -0.197826
   5 H :   -0.006607
   6 C :    0.087190
   7 H :    0.047569
   8 H :    0.027372
   9 C :   -0.091509
  10 H :    0.018816
  11 H :    0.029766
  12 C :   -0.066629
  13 H :    0.047133
  14 H :    0.036057
  15 H :    0.029794
  16 S :    0.110983
  17 C :   -0.092273
  18 C :   -0.053505
  19 C :   -0.017259
  20 C :   -0.197316
  21 H :    0.006298
  22 C :    0.145389
  23 H :    0.027582
  24 H :    0.038104
  25 C :   -0.201617
  26 H :    0.043393
  27 H :    0.036767
  28 C :    0.014870
  29 H :    0.038050
  30 H :    0.024120
  31 H :    0.023942
  32 H :    0.053920
  33 H :    0.072503
Sum of atomic charges:   -0.0000000

LOEWDIN ATOMIC CHARGES
----------------------
   0 S :    0.430532
   1 C :   -0.213544
   2 C :   -0.065088
   3 C :   -0.052707
   4 C :   -0.210735
   5 H :    0.024148
   6 C :   -0.028663
   7 H :    0.036049
   8 H :    0.037830
   9 C :   -0.049860
  10 H :    0.021020
  11 H :    0.023681
  12 C :   -0.069674
  13 H :    0.036033
  14 H :    0.019408
  15 H :    0.028142
  16 S :    0.408603
  17 C :   -0.203858
  18 C :   -0.075252
  19 C :   -0.052219
  20 C :   -0.198735
  21 H :    0.024167
  22 C :   -0.023678
  23 H :    0.033351
  24 H :    0.037891
  25 C :   -0.053390
  26 H :    0.028383
  27 H :    0.023560
  28 C :   -0.057347
  29 H :    0.028634
  30 H :    0.021508
  31 H :    0.022761
  32 H :    0.026356
  33 H :    0.042691

  Mayer bond orders larger than 0.100000
B(  0-S ,  1-C ) :   1.1708 B(  0-S ,  4-C ) :   1.1396 B(  1-C ,  2-C ) :   1.6000
B(  1-C , 32-H ) :   0.9587 B(  2-C ,  3-C ) :   1.2420 B(  2-C ,  6-C ) :   1.0205
B(  3-C ,  4-C ) :   1.5992 B(  3-C ,  5-H ) :   1.0006 B(  4-C , 20-C ) :   1.0325
B(  6-C ,  7-H ) :   0.9367 B(  6-C ,  8-H ) :   0.9386 B(  6-C ,  9-C ) :   1.0678
B(  9-C , 10-H ) :   0.9513 B(  9-C , 11-H ) :   0.9555 B(  9-C , 12-C ) :   1.0793
B( 12-C , 13-H ) :   0.9744 B( 12-C , 14-H ) :   0.9781 B( 12-C , 15-H ) :   0.9725
B( 16-S , 17-C ) :   1.1507 B( 16-S , 20-C ) :   1.1435 B( 17-C , 18-C ) :   1.6139
B( 17-C , 33-H ) :   0.9587 B( 18-C , 19-C ) :   1.2276 B( 18-C , 21-H ) :   0.9863
B( 19-C , 20-C ) :   1.6337 B( 19-C , 22-C ) :   1.0374 B( 22-C , 23-H ) :   0.9266
B( 22-C , 24-H ) :   0.9218 B( 22-C , 25-C ) :   1.0589 B( 25-C , 26-H ) :   0.9467
B( 25-C , 27-H ) :   0.9634 B( 25-C , 28-C ) :   1.0823 B( 28-C , 29-H ) :   0.9745
B( 28-C , 30-H ) :   0.9744 B( 28-C , 31-H ) :   0.9719

Dispersion correction           -0.013699745
FINAL SINGLE POINT ENERGY     -1339.876803992536

DIPOLE MOMENT
-------------
                                X             Y             Z
Electronic contribution:      9.60987      25.09594      13.81752
Nuclear contribution   :     -9.64702     -25.66634     -14.11210
                        -----------------------------------------
Total Dipole Moment    :     -0.03714      -0.57040      -0.29458
                        -----------------------------------------
Magnitude (a.u.)       :      0.64305
Magnitude (Debye)      :      1.63450

Rotational constants in cm-1:     0.015935     0.008918     0.006624
Rotational constants in MHz :   477.720306   267.349298   198.578332

                             ****ORCA TERMINATED NORMALLY****
TOTAL RUN TIME: 0 days 0 hours 0 minutes 29 seconds 588 msec
