                         Program Version 4.2.1 -  RELEASE  -
|  1> ! wB97X-D3 SP def2-SVP
|  2> %pal
|  3> nprocs 16
|  4> end
|  5>
|  6> * xyz 0 1
|  7> S 	 -72.4235 	 41.125 	 126.425
|  8> C 	 -72.2556 	 42.2895 	 127.648
|  9> C 	 -71.8626 	 41.6953 	 128.86
| 10> C 	 -71.2223 	 40.4776 	 128.561
| 11> C 	 -71.462 	 39.9727 	 127.263
| 12> H 	 -70.5684 	 39.9589 	 129.249
| 13> C 	 -71.8139 	 42.3298 	 130.222
| 14> H 	 -71.7601 	 41.5028 	 130.957
| 15> H 	 -72.6967 	 42.9314 	 130.443
| 16> C 	 -70.5297 	 43.1879 	 130.389
| 17> H 	 -69.703 	 42.4828 	 130.151
| 18> H 	 -70.4433 	 43.9871 	 129.593
| 19> C 	 -70.3452 	 43.7795 	 131.81
| 20> H 	 -71.3013 	 44.3061 	 132.017
| 21> H 	 -70.357 	 42.9532 	 132.579
| 22> H 	 -69.5159 	 44.4431 	 131.891
| 23> S 	 -71.9535 	 37.3224 	 127.055
| 24> C 	 -71.2803 	 36.3969 	 125.713
| 25> C 	 -70.4336 	 37.2066 	 124.914
| 26> C 	 -70.2465 	 38.4806 	 125.428
| 27> C 	 -71.0692 	 38.7652 	 126.526
| 28> H 	 -70.0043 	 36.7588 	 124.019
| 29> C 	 -69.3772 	 39.5854 	 124.707
| 30> H 	 -68.666 	 40.0112 	 125.441
| 31> H 	 -70.0497 	 40.3028 	 124.375
| 32> C 	 -68.6098 	 39.1738 	 123.46
| 33> H 	 -69.2121 	 38.5345 	 122.86
| 34> H 	 -67.8034 	 38.4563 	 123.721
| 35> C 	 -67.8888 	 40.3492 	 122.658
| 36> H 	 -66.9264 	 40.6281 	 122.999
| 37> H 	 -68.3377 	 41.2924 	 122.611
| 38> H 	 -67.6936 	 40.0602 	 121.648
| 39> H 	 -72.6863 	 43.2805 	 127.658
| 40> H 	 -71.711 	 35.4345 	 125.353
| 41> *
| 42>
| 43>                          ****END OF INPUT****

CARTESIAN COORDINATES (ANGSTROEM)
---------------------------------
  S    -72.423500   41.125000  126.425000
  C    -72.255600   42.289500  127.648000
  C    -71.862600   41.695300  128.860000
  C    -71.222300   40.477600  128.561000
  C    -71.462000   39.972700  127.263000
  H    -70.568400   39.958900  129.249000
  C    -71.813900   42.329800  130.222000
  H    -71.760100   41.502800  130.957000
  H    -72.696700   42.931400  130.443000
  C    -70.529700   43.187900  130.389000
  H    -69.703000   42.482800  130.151000
  H    -70.443300   43.987100  129.593000
  C    -70.345200   43.779500  131.810000
  H    -71.301300   44.306100  132.017000
  H    -70.357000   42.953200  132.579000
  H    -69.515900   44.443100  131.891000
  S    -71.953500   37.322400  127.055000
  C    -71.280300   36.396900  125.713000
  C    -70.433600   37.206600  124.914000
  C    -70.246500   38.480600  125.428000
  C    -71.069200   38.765200  126.526000
  H    -70.004300   36.758800  124.019000
  C    -69.377200   39.585400  124.707000
  H    -68.666000   40.011200  125.441000
  H    -70.049700   40.302800  124.375000
  C    -68.609800   39.173800  123.460000
  H    -69.212100   38.534500  122.860000
  H    -67.803400   38.456300  123.721000
  C    -67.888800   40.349200  122.658000
  H    -66.926400   40.628100  122.999000
  H    -68.337700   41.292400  122.611000
  H    -67.693600   40.060200  121.648000
  H    -72.686300   43.280500  127.658000
  H    -71.711000   35.434500  125.353000

 Total Charge           Charge          ....    0
 Multiplicity           Mult            ....    1
 Number of Electrons    NEL             ....  134
 Basis Dimension        Dim             ....  322

ORBITAL ENERGIES
----------------

  NO   OCC          E(Eh)            E(eV)
   0   2.0000     -88.966958     -2420.9140
   1   2.0000     -88.965091     -2420.8632
   2   2.0000     -10.328883      -281.0632
   3   2.0000     -10.326990      -281.0117
   4   2.0000     -10.322892      -280.9002
   5   2.0000     -10.309925      -280.5473
   6   2.0000     -10.308430      -280.5066
   7   2.0000     -10.299768      -280.2709
   8   2.0000     -10.297000      -280.1956
   9   2.0000     -10.296135      -280.1721
  10   2.0000     -10.294628      -280.1311
  11   2.0000     -10.294595      -280.1302
  12   2.0000     -10.289620      -279.9948
  13   2.0000     -10.289135      -279.9816
  14   2.0000     -10.285036      -279.8701
  15   2.0000     -10.272391      -279.5260
  16   2.0000      -8.080944      -219.8937
  17   2.0000      -8.080931      -219.8933
  18   2.0000      -6.039300      -164.3377
  19   2.0000      -6.039238      -164.3360
  20   2.0000      -6.035372      -164.2308
  21   2.0000      -6.035116      -164.2238
  22   2.0000      -6.032062      -164.1408
  23   2.0000      -6.032029      -164.1398
  24   2.0000      -1.008967       -27.4554
  25   2.0000      -0.984253       -26.7829
  26   2.0000      -0.911441       -24.8016
  27   2.0000      -0.901517       -24.5315
  28   2.0000      -0.864099       -23.5133
  29   2.0000      -0.849409       -23.1136
  30   2.0000      -0.844454       -22.9787
  31   2.0000      -0.808998       -22.0140
  32   2.0000      -0.787750       -21.4358
  33   2.0000      -0.772060       -21.0088
  34   2.0000      -0.710733       -19.3400
  35   2.0000      -0.697111       -18.9694
  36   2.0000      -0.693126       -18.8609
  37   2.0000      -0.654686       -17.8149
  38   2.0000      -0.640669       -17.4335
  39   2.0000      -0.619985       -16.8706
  40   2.0000      -0.594248       -16.1703
  41   2.0000      -0.570926       -15.5357
  42   2.0000      -0.563257       -15.3270
  43   2.0000      -0.555450       -15.1146
  44   2.0000      -0.530712       -14.4414
  45   2.0000      -0.523833       -14.2542
  46   2.0000      -0.510427       -13.8894
  47   2.0000      -0.506486       -13.7822
  48   2.0000      -0.499212       -13.5842
  49   2.0000      -0.493134       -13.4188
  50   2.0000      -0.492585       -13.4039
  51   2.0000      -0.486224       -13.2308
  52   2.0000      -0.475826       -12.9479
  53   2.0000      -0.460487       -12.5305
  54   2.0000      -0.458867       -12.4864
  55   2.0000      -0.449145       -12.2218
  56   2.0000      -0.443289       -12.0625
  57   2.0000      -0.441574       -12.0158
  58   2.0000      -0.433167       -11.7871
  59   2.0000      -0.425304       -11.5731
  60   2.0000      -0.420417       -11.4401
  61   2.0000      -0.415733       -11.3127
  62   2.0000      -0.415527       -11.3071
  63   2.0000      -0.338258        -9.2045
  64   2.0000      -0.330801        -9.0016
  65   2.0000      -0.318507        -8.6670
  66   2.0000      -0.298263        -8.1161
  67   0.0000       0.031632         0.8608
  68   0.0000       0.053850         1.4653
  69   0.0000       0.106320         2.8931
  70   0.0000       0.123682         3.3655
  71   0.0000       0.134236         3.6527

MULLIKEN ATOMIC CHARGES
-----------------------
   0 S :    0.140693
   1 C :   -0.110938
   2 C :   -0.105039
   3 C :    0.033776
   4 C :   -0.174812
   5 H :    0.008583
   6 C :    0.056439
   7 H :    0.029576
   8 H :    0.030096
   9 C :   -0.117216
  10 H :    0.027762
  11 H :    0.036484
  12 C :   -0.026406
  13 H :    0.025726
  14 H :    0.034390
  15 H :    0.044690
  16 S :    0.118609
  17 C :   -0.105480
  18 C :   -0.085407
  19 C :   -0.001150
  20 C :   -0.186967
  21 H :    0.029642
  22 C :    0.118674
  23 H :    0.045558
  24 H :    0.019851
  25 C :   -0.104635
  26 H :    0.018864
  27 H :    0.027592
  28 C :    0.000457
  29 H :    0.014928
  30 H :    0.015410
  31 H :    0.020246
  32 H :    0.045716
  33 H :    0.074286
Sum of atomic charges:    0.0000000

LOEWDIN ATOMIC CHARGES
----------------------
   0 S :    0.455072
   1 C :   -0.213630
   2 C :   -0.064505
   3 C :   -0.060516
   4 C :   -0.221726
   5 H :    0.028548
   6 C :   -0.032987
   7 H :    0.035023
   8 H :    0.028345
   9 C :   -0.045757
  10 H :    0.023634
  11 H :    0.027012
  12 C :   -0.068739
  13 H :    0.027179
  14 H :    0.030629
  15 H :    0.023482
  16 S :    0.410183
  17 C :   -0.193180
  18 C :   -0.078089
  19 C :   -0.049896
  20 C :   -0.204457
  21 H :    0.034508
  22 C :   -0.022169
  23 H :    0.038909
  24 H :    0.020838
  25 C :   -0.041338
  26 H :    0.015232
  27 H :    0.027517
  28 C :   -0.059956
  29 H :    0.022929
  30 H :    0.018849
  31 H :    0.027202
  32 H :    0.025111
  33 H :    0.036745

  Mayer bond orders larger than 0.100000
B(  0-S ,  1-C ) :   1.1880 B(  0-S ,  4-C ) :   1.1786 B(  1-C ,  2-C ) :   1.5464
B(  1-C ,  4-C ) :   0.1137 B(  1-C , 32-H ) :   0.9666 B(  2-C ,  3-C ) :   1.2746
B(  2-C ,  6-C ) :   1.0468 B(  3-C ,  4-C ) :   1.5479 B(  3-C ,  5-H ) :   0.9968
B(  4-C , 20-C ) :   1.0099 B(  6-C ,  7-H ) :   0.9380 B(  6-C ,  8-H ) :   0.9376
B(  6-C ,  9-C ) :   1.0558 B(  9-C , 10-H ) :   0.9570 B(  9-C , 11-H ) :   0.9571
B(  9-C , 12-C ) :   1.0709 B( 12-C , 13-H ) :   0.9733 B( 12-C , 14-H ) :   0.9733
B( 12-C , 15-H ) :   0.9753 B( 16-S , 17-C ) :   1.1778 B( 16-S , 20-C ) :   1.1660
B( 17-C , 18-C ) :   1.5700 B( 17-C , 20-C ) :   0.1231 B( 17-C , 33-H ) :   0.9573
B( 18-C , 19-C ) :   1.2827 B( 18-C , 21-H ) :   0.9836 B( 19-C , 20-C ) :   1.5661
B( 19-C , 22-C ) :   1.0076 B( 22-C , 23-H ) :   0.9371 B( 22-C , 24-H ) :   0.9308
B( 22-C , 25-C ) :   1.0891 B( 25-C , 26-H ) :   0.9513 B( 25-C , 27-H ) :   0.9554
B( 25-C , 28-C ) :   1.0628 B( 28-C , 29-H ) :   0.9747 B( 28-C , 30-H ) :   0.9790
B( 28-C , 31-H ) :   0.9741

Dispersion correction           -0.013472693
FINAL SINGLE POINT ENERGY     -1339.859079076802

DIPOLE MOMENT
-------------
                                X             Y             Z
Electronic contribution:    -16.58309     -15.20260      -2.39736
Nuclear contribution   :     16.82586      15.49161       2.36932
                        -----------------------------------------
Total Dipole Moment    :      0.24277       0.28901      -0.02804
                        -----------------------------------------
Magnitude (a.u.)       :      0.37848
Magnitude (Debye)      :      0.96203

Rotational constants in cm-1:     0.019270     0.007153     0.006008
Rotational constants in MHz :   577.686775   214.435121   180.106823

                             ****ORCA TERMINATED NORMALLY****
TOTAL RUN TIME: 0 days 0 hours 0 minutes 31 seconds 457 msec
