                         Program Version 4.2.1 -  RELEASE  -
|  1> ! wB97X-D3 SP def2-SVP
|  2> %pal
|  3> nprocs 16
|  4> end
|  5>
|  6> * xyz 0 1
|  7> S 	 -3.37671 	 76.6077 	 55.9811
|  8> C 	 -3.57347 	 75.255 	 56.9993
|  9> C 	 -2.3756 	 74.5954 	 57.2222
| 10> C 	 -1.33549 	 75.2682 	 56.5274
| 11> C 	 -1.58784 	 76.5076 	 56.0073
| 12> H 	 -0.30474 	 74.9415 	 56.4535
| 13> C 	 -2.11672 	 73.4401 	 58.2113
| 14> H 	 -2.93897 	 73.5058 	 58.9936
| 15> H 	 -1.21075 	 73.6734 	 58.7909
| 16> C 	 -2.01411 	 72.0781 	 57.5452
| 17> H 	 -2.9013 	 71.8068 	 57.0632
| 18> H 	 -1.34617 	 72.2575 	 56.6833
| 19> C 	 -1.53156 	 70.8984 	 58.4478
| 20> H 	 -1.53057 	 69.9167 	 57.8999
| 21> H 	 -0.462175 	 71.1304 	 58.6928
| 22> H 	 -2.21919 	 70.7195 	 59.3115
| 23> S 	 -1.21215 	 77.9695 	 53.5989
| 24> C 	 0.368534 	 78.108 	 53.0608
| 25> C 	 1.28594 	 78.05 	 54.1144
| 26> C 	 0.703527 	 77.505 	 55.2784
| 27> C 	 -0.6796 	 77.3518 	 55.1859
| 28> H 	 2.38757 	 78.1815 	 53.9719
| 29> C 	 1.58946 	 77.1772 	 56.4924
| 30> H 	 1.81602 	 76.0567 	 56.4676
| 31> H 	 0.902577 	 77.2106 	 57.3917
| 32> C 	 2.87278 	 78.0272 	 56.7034
| 33> H 	 3.4112 	 77.9745 	 55.809
| 34> H 	 3.51307 	 77.5958 	 57.4846
| 35> C 	 2.495 	 79.466 	 57.08
| 36> H 	 3.30803 	 80.0524 	 57.5384
| 37> H 	 1.74509 	 79.4296 	 57.9463
| 38> H 	 1.88628 	 80.0037 	 56.3065
| 39> H 	 -4.55357 	 74.8952 	 57.2938
| 40> H 	 0.558974 	 78.2607 	 52.0555
| 41> *
| 42>
| 43>                          ****END OF INPUT****

CARTESIAN COORDINATES (ANGSTROEM)
---------------------------------
  S     -3.376710   76.607700   55.981100
  C     -3.573470   75.255000   56.999300
  C     -2.375600   74.595400   57.222200
  C     -1.335490   75.268200   56.527400
  C     -1.587840   76.507600   56.007300
  H     -0.304740   74.941500   56.453500
  C     -2.116720   73.440100   58.211300
  H     -2.938970   73.505800   58.993600
  H     -1.210750   73.673400   58.790900
  C     -2.014110   72.078100   57.545200
  H     -2.901300   71.806800   57.063200
  H     -1.346170   72.257500   56.683300
  C     -1.531560   70.898400   58.447800
  H     -1.530570   69.916700   57.899900
  H     -0.462175   71.130400   58.692800
  H     -2.219190   70.719500   59.311500
  S     -1.212150   77.969500   53.598900
  C      0.368534   78.108000   53.060800
  C      1.285940   78.050000   54.114400
  C      0.703527   77.505000   55.278400
  C     -0.679600   77.351800   55.185900
  H      2.387570   78.181500   53.971900
  C      1.589460   77.177200   56.492400
  H      1.816020   76.056700   56.467600
  H      0.902577   77.210600   57.391700
  C      2.872780   78.027200   56.703400
  H      3.411200   77.974500   55.809000
  H      3.513070   77.595800   57.484600
  C      2.495000   79.466000   57.080000
  H      3.308030   80.052400   57.538400
  H      1.745090   79.429600   57.946300
  H      1.886280   80.003700   56.306500
  H     -4.553570   74.895200   57.293800
  H      0.558974   78.260700   52.055500

 Total Charge           Charge          ....    0
 Multiplicity           Mult            ....    1
 Number of Electrons    NEL             ....  134
 Basis Dimension        Dim             ....  322

ORBITAL ENERGIES
----------------

  NO   OCC          E(Eh)            E(eV)
   0   2.0000     -88.967203     -2420.9207
   1   2.0000     -88.961131     -2420.7555
   2   2.0000     -10.332780      -281.1692
   3   2.0000     -10.331720      -281.1404
   4   2.0000     -10.315220      -280.6914
   5   2.0000     -10.313672      -280.6493
   6   2.0000     -10.307926      -280.4929
   7   2.0000     -10.304217      -280.3920
   8   2.0000     -10.301093      -280.3070
   9   2.0000     -10.299975      -280.2766
  10   2.0000     -10.298145      -280.2268
  11   2.0000     -10.291188      -280.0375
  12   2.0000     -10.291089      -280.0348
  13   2.0000     -10.290465      -280.0178
  14   2.0000     -10.285799      -279.8908
  15   2.0000     -10.284119      -279.8451
  16   2.0000      -8.083156      -219.9539
  17   2.0000      -8.076332      -219.7682
  18   2.0000      -6.041512      -164.3979
  19   2.0000      -6.037490      -164.2884
  20   2.0000      -6.034877      -164.2174
  21   2.0000      -6.033996      -164.1934
  22   2.0000      -6.030804      -164.1065
  23   2.0000      -6.027002      -164.0031
  24   2.0000      -1.009678       -27.4747
  25   2.0000      -0.991379       -26.9768
  26   2.0000      -0.909820       -24.7575
  27   2.0000      -0.906569       -24.6690
  28   2.0000      -0.870140       -23.6777
  29   2.0000      -0.850768       -23.1506
  30   2.0000      -0.842623       -22.9289
  31   2.0000      -0.811767       -22.0893
  32   2.0000      -0.779105       -21.2005
  33   2.0000      -0.769450       -20.9378
  34   2.0000      -0.708873       -19.2894
  35   2.0000      -0.700499       -19.0615
  36   2.0000      -0.697370       -18.9764
  37   2.0000      -0.656275       -17.8581
  38   2.0000      -0.643869       -17.5206
  39   2.0000      -0.618634       -16.8339
  40   2.0000      -0.605242       -16.4695
  41   2.0000      -0.568383       -15.4665
  42   2.0000      -0.556814       -15.1517
  43   2.0000      -0.550089       -14.9687
  44   2.0000      -0.537124       -14.6159
  45   2.0000      -0.524448       -14.2710
  46   2.0000      -0.512745       -13.9525
  47   2.0000      -0.510056       -13.8793
  48   2.0000      -0.505242       -13.7483
  49   2.0000      -0.500421       -13.6171
  50   2.0000      -0.489108       -13.3093
  51   2.0000      -0.477499       -12.9934
  52   2.0000      -0.469380       -12.7725
  53   2.0000      -0.467838       -12.7305
  54   2.0000      -0.456838       -12.4312
  55   2.0000      -0.452451       -12.3118
  56   2.0000      -0.443185       -12.0597
  57   2.0000      -0.436709       -11.8834
  58   2.0000      -0.433485       -11.7957
  59   2.0000      -0.425847       -11.5879
  60   2.0000      -0.418202       -11.3799
  61   2.0000      -0.414736       -11.2855
  62   2.0000      -0.411697       -11.2028
  63   2.0000      -0.357922        -9.7396
  64   2.0000      -0.333975        -9.0879
  65   2.0000      -0.324557        -8.8316
  66   2.0000      -0.282926        -7.6988
  67   0.0000       0.024755         0.6736
  68   0.0000       0.065773         1.7898
  69   0.0000       0.108103         2.9416
  70   0.0000       0.117225         3.1899
  71   0.0000       0.138388         3.7657

MULLIKEN ATOMIC CHARGES
-----------------------
   0 S :    0.082621
   1 C :   -0.108447
   2 C :   -0.086885
   3 C :    0.001958
   4 C :   -0.124923
   5 H :    0.002410
   6 C :    0.048094
   7 H :    0.029035
   8 H :    0.030107
   9 C :   -0.054619
  10 H :    0.010861
  11 H :    0.024714
  12 C :   -0.071294
  13 H :    0.042848
  14 H :    0.042909
  15 H :    0.046642
  16 S :    0.115734
  17 C :   -0.078508
  18 C :   -0.039845
  19 C :   -0.072264
  20 C :   -0.122967
  21 H :    0.039720
  22 C :   -0.019629
  23 H :    0.053789
  24 H :    0.041724
  25 C :   -0.011037
  26 H :    0.017577
  27 H :    0.034156
  28 C :   -0.091817
  29 H :    0.044491
  30 H :    0.027146
  31 H :    0.055861
  32 H :    0.051206
  33 H :    0.038630
Sum of atomic charges:    0.0000000

LOEWDIN ATOMIC CHARGES
----------------------
   0 S :    0.394122
   1 C :   -0.198273
   2 C :   -0.072676
   3 C :   -0.065527
   4 C :   -0.179785
   5 H :    0.026301
   6 C :   -0.031095
   7 H :    0.033148
   8 H :    0.031050
   9 C :   -0.046159
  10 H :    0.015179
  11 H :    0.027903
  12 C :   -0.073809
  13 H :    0.032031
  14 H :    0.030248
  15 H :    0.030468
  16 S :    0.428525
  17 C :   -0.182165
  18 C :   -0.084356
  19 C :   -0.055326
  20 C :   -0.197780
  21 H :    0.039035
  22 C :   -0.040871
  23 H :    0.036834
  24 H :    0.035039
  25 C :   -0.037030
  26 H :    0.012664
  27 H :    0.032649
  28 C :   -0.078825
  29 H :    0.027898
  30 H :    0.032147
  31 H :    0.034076
  32 H :    0.029587
  33 H :    0.014773

  Mayer bond orders larger than 0.100000
B(  0-S ,  1-C ) :   1.1663 B(  0-S ,  4-C ) :   1.1232 B(  1-C ,  2-C ) :   1.5969
B(  1-C , 32-H ) :   0.9668 B(  2-C ,  3-C ) :   1.2522 B(  2-C ,  6-C ) :   1.0111
B(  3-C ,  4-C ) :   1.5887 B(  3-C ,  5-H ) :   0.9838 B(  4-C , 20-C ) :   1.0515
B(  6-C ,  7-H ) :   0.9446 B(  6-C ,  8-H ) :   0.9477 B(  6-C ,  9-C ) :   1.0506
B(  9-C , 10-H ) :   0.9533 B(  9-C , 11-H ) :   0.9575 B(  9-C , 12-C ) :   1.0749
B( 12-C , 13-H ) :   0.9751 B( 12-C , 14-H ) :   0.9757 B( 12-C , 15-H ) :   0.9746
B( 16-S , 17-C ) :   1.2147 B( 16-S , 20-C ) :   1.1276 B( 17-C , 18-C ) :   1.5414
B( 17-C , 33-H ) :   0.9783 B( 18-C , 19-C ) :   1.2795 B( 18-C , 21-H ) :   0.9832
B( 19-C , 20-C ) :   1.5864 B( 19-C , 22-C ) :   1.0185 B( 22-C , 23-H ) :   0.9283
B( 22-C , 24-H ) :   0.9446 B( 22-C , 25-C ) :   1.0700 B( 25-C , 26-H ) :   0.9488
B( 25-C , 27-H ) :   0.9507 B( 25-C , 28-C ) :   1.0735 B( 28-C , 29-H ) :   0.9756
B( 28-C , 30-H ) :   0.9720 B( 28-C , 31-H ) :   0.9729

Dispersion correction           -0.013766173
FINAL SINGLE POINT ENERGY     -1339.864474628389

DIPOLE MOMENT
-------------
                                X             Y             Z
Electronic contribution:    -16.01066      13.99203     -17.01218
Nuclear contribution   :     16.57599     -14.44965      17.15028
                        -----------------------------------------
Total Dipole Moment    :      0.56533      -0.45762       0.13810
                        -----------------------------------------
Magnitude (a.u.)       :      0.74032
Magnitude (Debye)      :      1.88176

Rotational constants in cm-1:     0.018582     0.007701     0.006251
Rotational constants in MHz :   557.071372   230.862635   187.386599

                             ****ORCA TERMINATED NORMALLY****
TOTAL RUN TIME: 0 days 0 hours 0 minutes 33 seconds 198 msec
