                         Program Version 4.2.1 -  RELEASE  -
|  1> ! wB97X-D3 SP def2-SVP
|  2> %pal
|  3> nprocs 16
|  4> end
|  5>
|  6> * xyz 0 1
|  7> S 	 -3.2068 	 47.1563 	 35.1852
|  8> C 	 -2.25201 	 46.3088 	 36.3299
|  9> C 	 -1.03957 	 46.0178 	 35.8528
| 10> C 	 -0.856956 	 46.5727 	 34.5267
| 11> C 	 -1.85233 	 47.3917 	 34.154
| 12> H 	 -0.0197185 	 46.6006 	 33.8732
| 13> C 	 0.0595431 	 45.2137 	 36.5566
| 14> H 	 -0.30044 	 44.3648 	 37.0805
| 15> H 	 0.309106 	 45.767 	 37.4758
| 16> C 	 1.41783 	 44.9633 	 35.7806
| 17> H 	 1.96432 	 44.219 	 36.3951
| 18> H 	 1.18711 	 44.4716 	 34.8499
| 19> C 	 2.26746 	 46.187 	 35.5374
| 20> H 	 1.84462 	 46.9689 	 34.9765
| 21> H 	 2.61296 	 46.3812 	 36.6013
| 22> H 	 3.19987 	 45.9538 	 35.0415
| 23> S 	 -3.3787 	 48.1881 	 31.9936
| 24> C 	 -2.57127 	 49.1364 	 30.7618
| 25> C 	 -1.35644 	 49.6429 	 31.136
| 26> C 	 -0.943823 	 49.009 	 32.3307
| 27> C 	 -1.89465 	 48.1478 	 32.9154
| 28> H 	 -0.834144 	 50.3623 	 30.5989
| 29> C 	 0.451129 	 49.2237 	 33.0011
| 30> H 	 1.07924 	 48.3657 	 32.7593
| 31> H 	 0.343255 	 48.9762 	 34.101
| 32> C 	 1.23263 	 50.5862 	 32.8422
| 33> H 	 0.644286 	 51.456 	 32.8716
| 34> H 	 1.49393 	 50.5141 	 31.7767
| 35> C 	 2.37417 	 50.6984 	 33.739
| 36> H 	 3.17822 	 49.9583 	 33.6204
| 37> H 	 1.96022 	 50.7812 	 34.7874
| 38> H 	 2.90652 	 51.657 	 33.4931
| 39> H 	 -2.71858 	 45.8806 	 37.2483
| 40> H 	 -3.23573 	 49.5553 	 30.0627
| 41> *
| 42>
| 43>                          ****END OF INPUT****

CARTESIAN COORDINATES (ANGSTROEM)
---------------------------------
  S     -3.206800   47.156300   35.185200
  C     -2.252010   46.308800   36.329900
  C     -1.039570   46.017800   35.852800
  C     -0.856956   46.572700   34.526700
  C     -1.852330   47.391700   34.154000
  H     -0.019718   46.600600   33.873200
  C      0.059543   45.213700   36.556600
  H     -0.300440   44.364800   37.080500
  H      0.309106   45.767000   37.475800
  C      1.417830   44.963300   35.780600
  H      1.964320   44.219000   36.395100
  H      1.187110   44.471600   34.849900
  C      2.267460   46.187000   35.537400
  H      1.844620   46.968900   34.976500
  H      2.612960   46.381200   36.601300
  H      3.199870   45.953800   35.041500
  S     -3.378700   48.188100   31.993600
  C     -2.571270   49.136400   30.761800
  C     -1.356440   49.642900   31.136000
  C     -0.943823   49.009000   32.330700
  C     -1.894650   48.147800   32.915400
  H     -0.834144   50.362300   30.598900
  C      0.451129   49.223700   33.001100
  H      1.079240   48.365700   32.759300
  H      0.343255   48.976200   34.101000
  C      1.232630   50.586200   32.842200
  H      0.644286   51.456000   32.871600
  H      1.493930   50.514100   31.776700
  C      2.374170   50.698400   33.739000
  H      3.178220   49.958300   33.620400
  H      1.960220   50.781200   34.787400
  H      2.906520   51.657000   33.493100
  H     -2.718580   45.880600   37.248300
  H     -3.235730   49.555300   30.062700

 Total Charge           Charge          ....    0
 Multiplicity           Mult            ....    1
 Number of Electrons    NEL             ....  134
 Basis Dimension        Dim             ....  322

ORBITAL ENERGIES
----------------

  NO   OCC          E(Eh)            E(eV)
   0   2.0000     -88.964305     -2420.8418
   1   2.0000     -88.958981     -2420.6969
   2   2.0000     -10.325554      -280.9726
   3   2.0000     -10.319208      -280.7999
   4   2.0000     -10.312754      -280.6243
   5   2.0000     -10.308201      -280.5004
   6   2.0000     -10.308053      -280.4964
   7   2.0000     -10.300785      -280.2986
   8   2.0000     -10.297265      -280.2028
   9   2.0000     -10.293377      -280.0970
  10   2.0000     -10.293366      -280.0967
  11   2.0000     -10.292060      -280.0612
  12   2.0000     -10.285397      -279.8799
  13   2.0000     -10.285025      -279.8698
  14   2.0000     -10.284605      -279.8583
  15   2.0000     -10.278726      -279.6984
  16   2.0000      -8.079514      -219.8548
  17   2.0000      -8.075568      -219.7474
  18   2.0000      -6.037864      -164.2986
  19   2.0000      -6.034099      -164.1962
  20   2.0000      -6.034062      -164.1952
  21   2.0000      -6.030281      -164.0923
  22   2.0000      -6.029993      -164.0844
  23   2.0000      -6.026060      -163.9774
  24   2.0000      -1.016033       -27.6477
  25   2.0000      -0.990523       -26.9535
  26   2.0000      -0.909803       -24.7570
  27   2.0000      -0.908269       -24.7153
  28   2.0000      -0.878398       -23.9024
  29   2.0000      -0.858059       -23.3490
  30   2.0000      -0.845667       -23.0118
  31   2.0000      -0.821317       -22.3492
  32   2.0000      -0.787003       -21.4154
  33   2.0000      -0.769992       -20.9526
  34   2.0000      -0.707661       -19.2564
  35   2.0000      -0.703353       -19.1392
  36   2.0000      -0.691800       -18.8248
  37   2.0000      -0.661573       -18.0023
  38   2.0000      -0.647351       -17.6153
  39   2.0000      -0.626038       -17.0354
  40   2.0000      -0.602649       -16.3989
  41   2.0000      -0.571829       -15.5603
  42   2.0000      -0.566756       -15.4222
  43   2.0000      -0.551407       -15.0045
  44   2.0000      -0.540476       -14.7071
  45   2.0000      -0.528087       -14.3700
  46   2.0000      -0.517832       -14.0909
  47   2.0000      -0.509916       -13.8755
  48   2.0000      -0.507849       -13.8193
  49   2.0000      -0.496074       -13.4989
  50   2.0000      -0.492025       -13.3887
  51   2.0000      -0.488713       -13.2986
  52   2.0000      -0.474194       -12.9035
  53   2.0000      -0.466343       -12.6898
  54   2.0000      -0.459425       -12.5016
  55   2.0000      -0.452796       -12.3212
  56   2.0000      -0.450246       -12.2518
  57   2.0000      -0.438590       -11.9346
  58   2.0000      -0.436279       -11.8718
  59   2.0000      -0.422052       -11.4846
  60   2.0000      -0.418056       -11.3759
  61   2.0000      -0.412806       -11.2330
  62   2.0000      -0.402401       -10.9499
  63   2.0000      -0.355538        -9.6747
  64   2.0000      -0.332716        -9.0537
  65   2.0000      -0.324508        -8.8303
  66   2.0000      -0.289531        -7.8785
  67   0.0000       0.027706         0.7539
  68   0.0000       0.075747         2.0612
  69   0.0000       0.107394         2.9223
  70   0.0000       0.123732         3.3669
  71   0.0000       0.136254         3.7077

MULLIKEN ATOMIC CHARGES
-----------------------
   0 S :    0.099785
   1 C :   -0.144742
   2 C :   -0.033535
   3 C :   -0.003060
   4 C :   -0.123240
   5 H :   -0.007739
   6 C :    0.071994
   7 H :    0.011317
   8 H :    0.018079
   9 C :   -0.075445
  10 H :    0.032844
  11 H :    0.028700
  12 C :   -0.029109
  13 H :    0.024834
  14 H :    0.031916
  15 H :    0.026922
  16 S :    0.093320
  17 C :   -0.065274
  18 C :   -0.009900
  19 C :   -0.018020
  20 C :   -0.154344
  21 H :   -0.000461
  22 C :   -0.042956
  23 H :    0.042044
  24 H :    0.044911
  25 C :   -0.031357
  26 H :    0.023176
  27 H :    0.022525
  28 C :   -0.062029
  29 H :    0.037817
  30 H :    0.050620
  31 H :    0.035179
  32 H :    0.059836
  33 H :    0.045395
Sum of atomic charges:    0.0000000

LOEWDIN ATOMIC CHARGES
----------------------
   0 S :    0.413334
   1 C :   -0.208479
   2 C :   -0.061249
   3 C :   -0.064540
   4 C :   -0.197213
   5 H :    0.024174
   6 C :   -0.036595
   7 H :    0.026347
   8 H :    0.036056
   9 C :   -0.039593
  10 H :    0.031595
  11 H :    0.017018
  12 C :   -0.064901
  13 H :    0.014604
  14 H :    0.037340
  15 H :    0.026945
  16 S :    0.404573
  17 C :   -0.169697
  18 C :   -0.058852
  19 C :   -0.050337
  20 C :   -0.197927
  21 H :    0.025115
  22 C :   -0.044998
  23 H :    0.027151
  24 H :    0.031235
  25 C :   -0.045365
  26 H :    0.020377
  27 H :    0.023993
  28 C :   -0.069516
  29 H :    0.026937
  30 H :    0.036937
  31 H :    0.034244
  32 H :    0.037581
  33 H :    0.013707

  Mayer bond orders larger than 0.100000
B(  0-S ,  1-C ) :   1.1317 B(  0-S ,  4-C ) :   1.1410 B(  1-C ,  2-C ) :   1.6492
B(  1-C , 32-H ) :   0.9668 B(  2-C ,  3-C ) :   1.1992 B(  2-C ,  6-C ) :   1.0006
B(  3-C ,  4-C ) :   1.5922 B(  3-C ,  5-H ) :   1.0004 B(  4-C , 20-C ) :   1.0637
B(  6-C ,  7-H ) :   0.9357 B(  6-C ,  8-H ) :   0.9304 B(  6-C ,  9-C ) :   1.0732
B(  9-C , 10-H ) :   0.9550 B(  9-C , 11-H ) :   0.9541 B(  9-C , 12-C ) :   1.0756
B( 12-C , 13-H ) :   0.9755 B( 12-C , 14-H ) :   0.9721 B( 12-C , 15-H ) :   0.9687
B( 16-S , 17-C ) :   1.1710 B( 16-S , 20-C ) :   1.1411 B( 17-C , 18-C ) :   1.5790
B( 17-C , 20-C ) :   0.1029 B( 17-C , 33-H ) :   0.9666 B( 18-C , 19-C ) :   1.2624
B( 18-C , 21-H ) :   1.0082 B( 19-C , 20-C ) :   1.5772 B( 19-C , 22-C ) :   1.0227
B( 22-C , 23-H ) :   0.9351 B( 22-C , 24-H ) :   0.9371 B( 22-C , 25-C ) :   1.0407
B( 25-C , 26-H ) :   0.9583 B( 25-C , 27-H ) :   0.9430 B( 25-C , 28-C ) :   1.1053
B( 28-C , 29-H ) :   0.9724 B( 28-C , 30-H ) :   0.9693 B( 28-C , 31-H ) :   0.9672

Dispersion correction           -0.014746863
FINAL SINGLE POINT ENERGY     -1339.853084163839

DIPOLE MOMENT
-------------
                                X             Y             Z
Electronic contribution:    -31.26581      -2.14671      -6.97342
Nuclear contribution   :     31.97868       2.23534       7.11153
                        -----------------------------------------
Total Dipole Moment    :      0.71286       0.08864       0.13811
                        -----------------------------------------
Magnitude (a.u.)       :      0.73151
Magnitude (Debye)      :      1.85935

Rotational constants in cm-1:     0.015363     0.011015     0.007134
Rotational constants in MHz :   460.575076   330.215493   213.884008

                             ****ORCA TERMINATED NORMALLY****
TOTAL RUN TIME: 0 days 0 hours 0 minutes 35 seconds 849 msec
