                         Program Version 4.2.1 -  RELEASE  -
|  1> ! wB97X-D3 SP def2-SVP
|  2> %pal
|  3> nprocs 16
|  4> end
|  5>
|  6> * xyz 0 1
|  7> S 	 -38.7708 	 35.0532 	 85.8695
|  8> C 	 -37.4482 	 36.192 	 85.8606
|  9> C 	 -37.2661 	 36.8857 	 84.7275
| 10> C 	 -38.2723 	 36.5271 	 83.7684
| 11> C 	 -39.1969 	 35.5922 	 84.1783
| 12> H 	 -38.367 	 37.0193 	 82.825
| 13> C 	 -36.0375 	 37.7812 	 84.5109
| 14> H 	 -35.2318 	 37.1143 	 84.3345
| 15> H 	 -35.7411 	 38.3344 	 85.4184
| 16> C 	 -36.1586 	 38.8604 	 83.4564
| 17> H 	 -36.2517 	 38.4322 	 82.4727
| 18> H 	 -37.0772 	 39.4692 	 83.5544
| 19> C 	 -34.9675 	 39.7747 	 83.5138
| 20> H 	 -34.9849 	 40.5862 	 82.8175
| 21> H 	 -34.7587 	 40.2194 	 84.4927
| 22> H 	 -34.115 	 39.2069 	 83.2575
| 23> S 	 -41.8637 	 34.9809 	 84.4453
| 24> C 	 -42.8082 	 34.6916 	 82.989
| 25> C 	 -42.0413 	 34.6643 	 81.8493
| 26> C 	 -40.6659 	 34.9849 	 82.1052
| 27> C 	 -40.3893 	 35.2087 	 83.4583
| 28> H 	 -42.4628 	 34.4277 	 80.9262
| 29> C 	 -39.5514 	 34.9531 	 81.0213
| 30> H 	 -38.6608 	 34.848 	 81.633
| 31> H 	 -39.6204 	 35.9337 	 80.5116
| 32> C 	 -39.4402 	 33.8328 	 79.9851
| 33> H 	 -40.235 	 33.9665 	 79.2297
| 34> H 	 -39.6458 	 32.8941 	 80.5478
| 35> C 	 -38.2368 	 33.8028 	 79.1472
| 36> H 	 -38.3974 	 34.5815 	 78.4503
| 37> H 	 -38.0372 	 32.9045 	 78.5092
| 38> H 	 -37.3936 	 34.0733 	 79.7478
| 39> H 	 -36.7704 	 36.2277 	 86.7855
| 40> H 	 -43.7948 	 34.3161 	 83.0143
| 41> *
| 42>
| 43>                          ****END OF INPUT****

CARTESIAN COORDINATES (ANGSTROEM)
---------------------------------
  S    -38.770800   35.053200   85.869500
  C    -37.448200   36.192000   85.860600
  C    -37.266100   36.885700   84.727500
  C    -38.272300   36.527100   83.768400
  C    -39.196900   35.592200   84.178300
  H    -38.367000   37.019300   82.825000
  C    -36.037500   37.781200   84.510900
  H    -35.231800   37.114300   84.334500
  H    -35.741100   38.334400   85.418400
  C    -36.158600   38.860400   83.456400
  H    -36.251700   38.432200   82.472700
  H    -37.077200   39.469200   83.554400
  C    -34.967500   39.774700   83.513800
  H    -34.984900   40.586200   82.817500
  H    -34.758700   40.219400   84.492700
  H    -34.115000   39.206900   83.257500
  S    -41.863700   34.980900   84.445300
  C    -42.808200   34.691600   82.989000
  C    -42.041300   34.664300   81.849300
  C    -40.665900   34.984900   82.105200
  C    -40.389300   35.208700   83.458300
  H    -42.462800   34.427700   80.926200
  C    -39.551400   34.953100   81.021300
  H    -38.660800   34.848000   81.633000
  H    -39.620400   35.933700   80.511600
  C    -39.440200   33.832800   79.985100
  H    -40.235000   33.966500   79.229700
  H    -39.645800   32.894100   80.547800
  C    -38.236800   33.802800   79.147200
  H    -38.397400   34.581500   78.450300
  H    -38.037200   32.904500   78.509200
  H    -37.393600   34.073300   79.747800
  H    -36.770400   36.227700   86.785500
  H    -43.794800   34.316100   83.014300

 Total Charge           Charge          ....    0
 Multiplicity           Mult            ....    1
 Number of Electrons    NEL             ....  134
 Basis Dimension        Dim             ....  322

ORBITAL ENERGIES
----------------

  NO   OCC          E(Eh)            E(eV)
   0   2.0000     -88.965996     -2420.8878
   1   2.0000     -88.964106     -2420.8364
   2   2.0000     -10.334026      -281.2032
   3   2.0000     -10.330639      -281.1110
   4   2.0000     -10.315275      -280.6929
   5   2.0000     -10.314062      -280.6599
   6   2.0000     -10.308725      -280.5147
   7   2.0000     -10.299186      -280.2551
   8   2.0000     -10.295263      -280.1484
   9   2.0000     -10.294443      -280.1260
  10   2.0000     -10.293444      -280.0989
  11   2.0000     -10.291073      -280.0343
  12   2.0000     -10.285545      -279.8839
  13   2.0000     -10.284665      -279.8600
  14   2.0000     -10.273185      -279.5476
  15   2.0000     -10.272769      -279.5362
  16   2.0000      -8.079892      -219.8650
  17   2.0000      -8.078291      -219.8215
  18   2.0000      -6.038530      -164.3168
  19   2.0000      -6.036885      -164.2720
  20   2.0000      -6.034672      -164.2118
  21   2.0000      -6.032972      -164.1655
  22   2.0000      -6.030416      -164.0960
  23   2.0000      -6.028905      -164.0548
  24   2.0000      -1.001379       -27.2489
  25   2.0000      -0.980141       -26.6710
  26   2.0000      -0.917877       -24.9767
  27   2.0000      -0.913902       -24.8685
  28   2.0000      -0.875075       -23.8120
  29   2.0000      -0.856595       -23.3091
  30   2.0000      -0.846340       -23.0301
  31   2.0000      -0.817707       -22.2509
  32   2.0000      -0.784618       -21.3506
  33   2.0000      -0.772181       -21.0121
  34   2.0000      -0.714903       -19.4535
  35   2.0000      -0.694741       -18.9049
  36   2.0000      -0.691393       -18.8138
  37   2.0000      -0.658865       -17.9286
  38   2.0000      -0.637824       -17.3561
  39   2.0000      -0.623976       -16.9792
  40   2.0000      -0.593796       -16.1580
  41   2.0000      -0.580433       -15.7944
  42   2.0000      -0.575598       -15.6628
  43   2.0000      -0.567324       -15.4377
  44   2.0000      -0.532077       -14.4786
  45   2.0000      -0.527190       -14.3456
  46   2.0000      -0.513852       -13.9826
  47   2.0000      -0.510420       -13.8892
  48   2.0000      -0.507642       -13.8136
  49   2.0000      -0.498270       -13.5586
  50   2.0000      -0.490622       -13.3505
  51   2.0000      -0.478379       -13.0174
  52   2.0000      -0.475378       -12.9357
  53   2.0000      -0.470684       -12.8080
  54   2.0000      -0.458221       -12.4688
  55   2.0000      -0.452729       -12.3194
  56   2.0000      -0.450237       -12.2516
  57   2.0000      -0.437709       -11.9107
  58   2.0000      -0.432843       -11.7783
  59   2.0000      -0.424232       -11.5439
  60   2.0000      -0.417010       -11.3474
  61   2.0000      -0.414765       -11.2863
  62   2.0000      -0.408289       -11.1101
  63   2.0000      -0.356880        -9.7112
  64   2.0000      -0.333079        -9.0636
  65   2.0000      -0.330856        -9.0030
  66   2.0000      -0.285762        -7.7760
  67   0.0000       0.023108         0.6288
  68   0.0000       0.073559         2.0017
  69   0.0000       0.104395         2.8407
  70   0.0000       0.126791         3.4501
  71   0.0000       0.133044         3.6203

MULLIKEN ATOMIC CHARGES
-----------------------
   0 S :    0.099016
   1 C :   -0.166426
   2 C :   -0.035365
   3 C :   -0.000414
   4 C :   -0.121514
   5 H :    0.007594
   6 C :    0.060800
   7 H :    0.035088
   8 H :    0.023643
   9 C :   -0.083915
  10 H :    0.025244
  11 H :    0.035154
  12 C :   -0.014294
  13 H :    0.023688
  14 H :    0.027816
  15 H :    0.011670
  16 S :    0.092093
  17 C :   -0.071761
  18 C :   -0.008630
  19 C :   -0.046585
  20 C :   -0.158214
  21 H :   -0.003970
  22 C :    0.031898
  23 H :    0.032438
  24 H :    0.041075
  25 C :   -0.074715
  26 H :    0.017789
  27 H :    0.036169
  28 C :   -0.013186
  29 H :    0.010030
  30 H :    0.049466
  31 H :    0.019270
  32 H :    0.071571
  33 H :    0.047477
Sum of atomic charges:   -0.0000000

LOEWDIN ATOMIC CHARGES
----------------------
   0 S :    0.366218
   1 C :   -0.194226
   2 C :   -0.070326
   3 C :   -0.053638
   4 C :   -0.173426
   5 H :    0.027281
   6 C :   -0.025535
   7 H :    0.030771
   8 H :    0.034515
   9 C :   -0.044661
  10 H :    0.020666
  11 H :    0.028012
  12 C :   -0.059084
  13 H :    0.023462
  14 H :    0.025841
  15 H :    0.020167
  16 S :    0.383611
  17 C :   -0.171711
  18 C :   -0.061234
  19 C :   -0.052768
  20 C :   -0.182896
  21 H :    0.023061
  22 C :   -0.034292
  23 H :    0.030616
  24 H :    0.032341
  25 C :   -0.050377
  26 H :    0.021449
  27 H :    0.026353
  28 C :   -0.062643
  29 H :    0.021706
  30 H :    0.038550
  31 H :    0.020107
  32 H :    0.040594
  33 H :    0.021495

  Mayer bond orders larger than 0.100000
B(  0-S ,  1-C ) :   1.1273 B(  0-S ,  4-C ) :   1.1103 B(  1-C ,  2-C ) :   1.6601
B(  1-C , 32-H ) :   0.9541 B(  2-C ,  3-C ) :   1.2252 B(  2-C ,  6-C ) :   0.9998
B(  3-C ,  4-C ) :   1.5792 B(  3-C ,  5-H ) :   0.9956 B(  4-C , 20-C ) :   1.0889
B(  6-C ,  7-H ) :   0.9366 B(  6-C ,  8-H ) :   0.9479 B(  6-C ,  9-C ) :   1.0667
B(  9-C , 10-H ) :   0.9431 B(  9-C , 11-H ) :   0.9602 B(  9-C , 12-C ) :   1.0971
B( 12-C , 13-H ) :   0.9706 B( 12-C , 14-H ) :   0.9733 B( 12-C , 15-H ) :   0.9695
B( 16-S , 17-C ) :   1.1470 B( 16-S , 20-C ) :   1.1231 B( 17-C , 18-C ) :   1.6185
B( 17-C , 33-H ) :   0.9670 B( 18-C , 19-C ) :   1.2286 B( 18-C , 21-H ) :   1.0027
B( 19-C , 20-C ) :   1.6009 B( 19-C , 22-C ) :   1.0269 B( 22-C , 23-H ) :   0.9358
B( 22-C , 24-H ) :   0.9286 B( 22-C , 25-C ) :   1.0745 B( 25-C , 26-H ) :   0.9505
B( 25-C , 27-H ) :   0.9552 B( 25-C , 28-C ) :   1.0817 B( 28-C , 29-H ) :   0.9734
B( 28-C , 30-H ) :   0.9704 B( 28-C , 31-H ) :   0.9739

Dispersion correction           -0.013244308
FINAL SINGLE POINT ENERGY     -1339.874818863589

DIPOLE MOMENT
-------------
                                X             Y             Z
Electronic contribution:    -20.24305      -9.97207      21.13533
Nuclear contribution   :     20.71556      10.19889     -21.73554
                        -----------------------------------------
Total Dipole Moment    :      0.47251       0.22682      -0.60021
                        -----------------------------------------
Magnitude (a.u.)       :      0.79684
Magnitude (Debye)      :      2.02542

Rotational constants in cm-1:     0.015888     0.008541     0.006324
Rotational constants in MHz :   476.318384   256.049824   189.581647

                             ****ORCA TERMINATED NORMALLY****
TOTAL RUN TIME: 0 days 0 hours 0 minutes 28 seconds 916 msec
