                         Program Version 4.2.1 -  RELEASE  -
|  1> ! wB97X-D3 SP def2-SVP
|  2> %pal
|  3> nprocs 16
|  4> end
|  5>
|  6> * xyz 0 1
|  7> S 	 -66.5701 	 60.7517 	 128.397
|  8> C 	 -67.8031 	 61.9674 	 128.709
|  9> C 	 -68.7161 	 62.1089 	 127.704
| 10> C 	 -68.4061 	 61.143 	 126.683
| 11> C 	 -67.2976 	 60.2755 	 126.876
| 12> H 	 -69.0144 	 61.0036 	 125.878
| 13> C 	 -69.8988 	 63.0333 	 127.777
| 14> H 	 -70.2779 	 63.4643 	 126.844
| 15> H 	 -69.6022 	 63.9385 	 128.307
| 16> C 	 -71.1718 	 62.5617 	 128.557
| 17> H 	 -71.8652 	 63.4069 	 128.434
| 18> H 	 -71.5437 	 61.7408 	 127.921
| 19> C 	 -71.0471 	 61.9621 	 129.899
| 20> H 	 -72.037 	 61.8756 	 130.422
| 21> H 	 -70.6057 	 60.936 	 129.833
| 22> H 	 -70.3622 	 62.4845 	 130.602
| 23> S 	 -67.0544 	 57.5908 	 127.234
| 24> C 	 -66.3519 	 56.6774 	 125.939
| 25> C 	 -66.4232 	 57.3605 	 124.737
| 26> C 	 -66.6105 	 58.7398 	 124.907
| 27> C 	 -66.973 	 59.0203 	 126.228
| 28> H 	 -66.1541 	 56.8862 	 123.862
| 29> C 	 -66.6019 	 59.7462 	 123.763
| 30> H 	 -65.8453 	 59.4506 	 123.03
| 31> H 	 -66.319 	 60.6962 	 124.223
| 32> C 	 -67.9753 	 59.9359 	 123.074
| 33> H 	 -68.7665 	 60.2111 	 123.762
| 34> H 	 -68.1397 	 58.9748 	 122.636
| 35> C 	 -67.9423 	 61.0481 	 122.028
| 36> H 	 -67.6469 	 61.9992 	 122.482
| 37> H 	 -68.8994 	 61.1538 	 121.536
| 38> H 	 -67.2134 	 60.7124 	 121.246
| 39> H 	 -67.8751 	 62.6394 	 129.605
| 40> H 	 -66.2579 	 55.5775 	 125.961
| 41> *
| 42>
| 43>                          ****END OF INPUT****

CARTESIAN COORDINATES (ANGSTROEM)
---------------------------------
  S    -66.570100   60.751700  128.397000
  C    -67.803100   61.967400  128.709000
  C    -68.716100   62.108900  127.704000
  C    -68.406100   61.143000  126.683000
  C    -67.297600   60.275500  126.876000
  H    -69.014400   61.003600  125.878000
  C    -69.898800   63.033300  127.777000
  H    -70.277900   63.464300  126.844000
  H    -69.602200   63.938500  128.307000
  C    -71.171800   62.561700  128.557000
  H    -71.865200   63.406900  128.434000
  H    -71.543700   61.740800  127.921000
  C    -71.047100   61.962100  129.899000
  H    -72.037000   61.875600  130.422000
  H    -70.605700   60.936000  129.833000
  H    -70.362200   62.484500  130.602000
  S    -67.054400   57.590800  127.234000
  C    -66.351900   56.677400  125.939000
  C    -66.423200   57.360500  124.737000
  C    -66.610500   58.739800  124.907000
  C    -66.973000   59.020300  126.228000
  H    -66.154100   56.886200  123.862000
  C    -66.601900   59.746200  123.763000
  H    -65.845300   59.450600  123.030000
  H    -66.319000   60.696200  124.223000
  C    -67.975300   59.935900  123.074000
  H    -68.766500   60.211100  123.762000
  H    -68.139700   58.974800  122.636000
  C    -67.942300   61.048100  122.028000
  H    -67.646900   61.999200  122.482000
  H    -68.899400   61.153800  121.536000
  H    -67.213400   60.712400  121.246000
  H    -67.875100   62.639400  129.605000
  H    -66.257900   55.577500  125.961000

 Total Charge           Charge          ....    0
 Multiplicity           Mult            ....    1
 Number of Electrons    NEL             ....  134
 Basis Dimension        Dim             ....  322

ORBITAL ENERGIES
----------------

  NO   OCC          E(Eh)            E(eV)
   0   2.0000     -88.967629     -2420.9323
   1   2.0000     -88.966129     -2420.8914
   2   2.0000     -10.330896      -281.1180
   3   2.0000     -10.325370      -280.9676
   4   2.0000     -10.317080      -280.7420
   5   2.0000     -10.315365      -280.6954
   6   2.0000     -10.301202      -280.3100
   7   2.0000     -10.301067      -280.3063
   8   2.0000     -10.296350      -280.1779
   9   2.0000     -10.292709      -280.0788
  10   2.0000     -10.292177      -280.0644
  11   2.0000     -10.288735      -279.9707
  12   2.0000     -10.286214      -279.9021
  13   2.0000     -10.283720      -279.8342
  14   2.0000     -10.283002      -279.8147
  15   2.0000     -10.280073      -279.7350
  16   2.0000      -8.082625      -219.9394
  17   2.0000      -8.080530      -219.8824
  18   2.0000      -6.040982      -164.3835
  19   2.0000      -6.039018      -164.3300
  20   2.0000      -6.037237      -164.2816
  21   2.0000      -6.034963      -164.2197
  22   2.0000      -6.033371      -164.1764
  23   2.0000      -6.031425      -164.1234
  24   2.0000      -1.007673       -27.4202
  25   2.0000      -0.984701       -26.7951
  26   2.0000      -0.913980       -24.8707
  27   2.0000      -0.910346       -24.7718
  28   2.0000      -0.870727       -23.6937
  29   2.0000      -0.854679       -23.2570
  30   2.0000      -0.844900       -22.9909
  31   2.0000      -0.812003       -22.0957
  32   2.0000      -0.788239       -21.4491
  33   2.0000      -0.773040       -21.0355
  34   2.0000      -0.706707       -19.2305
  35   2.0000      -0.694712       -18.9041
  36   2.0000      -0.688634       -18.7387
  37   2.0000      -0.665465       -18.1082
  38   2.0000      -0.638923       -17.3860
  39   2.0000      -0.620664       -16.8891
  40   2.0000      -0.594654       -16.1813
  41   2.0000      -0.577796       -15.7226
  42   2.0000      -0.572370       -15.5750
  43   2.0000      -0.549461       -14.9516
  44   2.0000      -0.539720       -14.6865
  45   2.0000      -0.524291       -14.2667
  46   2.0000      -0.519072       -14.1247
  47   2.0000      -0.511200       -13.9105
  48   2.0000      -0.501944       -13.6586
  49   2.0000      -0.492617       -13.4048
  50   2.0000      -0.488760       -13.2998
  51   2.0000      -0.483884       -13.1672
  52   2.0000      -0.475586       -12.9414
  53   2.0000      -0.467996       -12.7348
  54   2.0000      -0.454950       -12.3798
  55   2.0000      -0.450554       -12.2602
  56   2.0000      -0.443624       -12.0716
  57   2.0000      -0.435778       -11.8581
  58   2.0000      -0.431893       -11.7524
  59   2.0000      -0.426105       -11.5949
  60   2.0000      -0.422851       -11.5064
  61   2.0000      -0.421787       -11.4774
  62   2.0000      -0.407049       -11.0764
  63   2.0000      -0.341001        -9.2791
  64   2.0000      -0.334636        -9.1059
  65   2.0000      -0.326515        -8.8849
  66   2.0000      -0.292536        -7.9603
  67   0.0000       0.026386         0.7180
  68   0.0000       0.064317         1.7502
  69   0.0000       0.110973         3.0197
  70   0.0000       0.115990         3.1562
  71   0.0000       0.134986         3.6732

MULLIKEN ATOMIC CHARGES
-----------------------
   0 S :    0.116651
   1 C :   -0.142061
   2 C :   -0.066852
   3 C :    0.078666
   4 C :   -0.164004
   5 H :   -0.051170
   6 C :    0.050153
   7 H :    0.024698
   8 H :    0.017987
   9 C :   -0.072504
  10 H :    0.034897
  11 H :    0.026738
  12 C :   -0.070289
  13 H :    0.047631
  14 H :    0.049901
  15 H :    0.022571
  16 S :    0.127804
  17 C :   -0.101851
  18 C :   -0.012022
  19 C :   -0.028021
  20 C :   -0.170249
  21 H :   -0.010607
  22 C :    0.066994
  23 H :    0.024295
  24 H :    0.025819
  25 C :   -0.064595
  26 H :    0.030854
  27 H :    0.018369
  28 C :   -0.039607
  29 H :    0.038074
  30 H :    0.035387
  31 H :    0.030193
  32 H :    0.060915
  33 H :    0.065235
Sum of atomic charges:    0.0000000

LOEWDIN ATOMIC CHARGES
----------------------
   0 S :    0.405926
   1 C :   -0.192873
   2 C :   -0.072511
   3 C :   -0.044207
   4 C :   -0.204538
   5 H :    0.005582
   6 C :   -0.035581
   7 H :    0.033788
   8 H :    0.029485
   9 C :   -0.046049
  10 H :    0.026346
  11 H :    0.027311
  12 C :   -0.079072
  13 H :    0.036987
  14 H :    0.035984
  15 H :    0.020309
  16 S :    0.422021
  17 C :   -0.193710
  18 C :   -0.062104
  19 C :   -0.050517
  20 C :   -0.204068
  21 H :    0.017469
  22 C :   -0.027045
  23 H :    0.030171
  24 H :    0.030167
  25 C :   -0.034877
  26 H :    0.020884
  27 H :    0.019501
  28 C :   -0.063691
  29 H :    0.026488
  30 H :    0.024586
  31 H :    0.028403
  32 H :    0.037435
  33 H :    0.031999

  Mayer bond orders larger than 0.100000
B(  0-S ,  1-C ) :   1.1538 B(  0-S ,  4-C ) :   1.1439 B(  1-C ,  2-C ) :   1.6034
B(  1-C , 32-H ) :   0.9516 B(  2-C ,  3-C ) :   1.2623 B(  2-C ,  6-C ) :   1.0310
B(  3-C ,  4-C ) :   1.5448 B(  3-C ,  5-H ) :   1.0053 B(  4-C , 20-C ) :   1.0497
B(  6-C ,  7-H ) :   0.9422 B(  6-C ,  8-H ) :   0.9354 B(  6-C ,  9-C ) :   1.0714
B(  9-C , 10-H ) :   0.9565 B(  9-C , 11-H ) :   0.9531 B(  9-C , 12-C ) :   1.0865
B( 12-C , 13-H ) :   0.9684 B( 12-C , 14-H ) :   0.9658 B( 12-C , 15-H ) :   0.9739
B( 16-S , 17-C ) :   1.1626 B( 16-S , 20-C ) :   1.1618 B( 17-C , 18-C ) :   1.5970
B( 17-C , 20-C ) :   0.1048 B( 17-C , 33-H ) :   0.9602 B( 18-C , 19-C ) :   1.2632
B( 18-C , 21-H ) :   0.9927 B( 19-C , 20-C ) :   1.5639 B( 19-C , 22-C ) :   1.0566
B( 22-C , 23-H ) :   0.9341 B( 22-C , 24-H ) :   0.9229 B( 22-C , 25-C ) :   1.0652
B( 25-C , 26-H ) :   0.9545 B( 25-C , 27-H ) :   0.9533 B( 25-C , 28-C ) :   1.0874
B( 28-C , 29-H ) :   0.9746 B( 28-C , 30-H ) :   0.9738 B( 28-C , 31-H ) :   0.9734

Dispersion correction           -0.014488600
FINAL SINGLE POINT ENERGY     -1339.873432436015

DIPOLE MOMENT
-------------
                                X             Y             Z
Electronic contribution:     16.24300     -13.88238      11.09015
Nuclear contribution   :    -16.75979      14.04413     -11.48648
                        -----------------------------------------
Total Dipole Moment    :     -0.51678       0.16176      -0.39633
                        -----------------------------------------
Magnitude (a.u.)       :      0.67105
Magnitude (Debye)      :      1.70567

Rotational constants in cm-1:     0.018177     0.008851     0.006935
Rotational constants in MHz :   544.947436   265.352365   207.918651

                             ****ORCA TERMINATED NORMALLY****
TOTAL RUN TIME: 0 days 0 hours 0 minutes 33 seconds 897 msec
