                         Program Version 4.2.1 -  RELEASE  -
|  1> ! wB97X-D3 SP def2-SVP
|  2> %pal
|  3> nprocs 16
|  4> end
|  5>
|  6> * xyz 0 1
|  7> S 	 -50.8074 	 13.3276 	 78.3505
|  8> C 	 -49.3578 	 12.3908 	 78.6023
|  9> C 	 -49.5534 	 11.5012 	 79.6266
| 10> C 	 -50.7499 	 11.7273 	 80.378
| 11> C 	 -51.5888 	 12.7026 	 79.8215
| 12> H 	 -50.9191 	 11.1774 	 81.2569
| 13> C 	 -48.5291 	 10.4594 	 79.9564
| 14> H 	 -48.2575 	 10.1324 	 78.9391
| 15> H 	 -48.8903 	 9.55009 	 80.4427
| 16> C 	 -47.2111 	 10.7577 	 80.7212
| 17> H 	 -46.6341 	 9.87952 	 80.7191
| 18> H 	 -46.6751 	 11.4967 	 80.092
| 19> C 	 -47.4062 	 11.2573 	 82.2711
| 20> H 	 -47.9932 	 10.5756 	 82.8902
| 21> H 	 -46.3935 	 11.3222 	 82.8245
| 22> H 	 -47.8723 	 12.2494 	 82.2039
| 23> S 	 -54.2372 	 13.0712 	 79.3593
| 24> C 	 -55.2535 	 13.4379 	 80.7241
| 25> C 	 -54.5823 	 13.607 	 81.9124
| 26> C 	 -53.1852 	 13.4159 	 81.7002
| 27> C 	 -52.8664 	 13.0813 	 80.4081
| 28> H 	 -55.1779 	 13.8929 	 82.8379
| 29> C 	 -52.2335 	 13.4456 	 82.8833
| 30> H 	 -52.2417 	 14.4702 	 83.2481
| 31> H 	 -51.226 	 13.3049 	 82.6069
| 32> C 	 -52.6143 	 12.5122 	 84.0735
| 33> H 	 -52.9168 	 11.4882 	 83.7094
| 34> H 	 -53.57 	 12.8692 	 84.4407
| 35> C 	 -51.5735 	 12.5021 	 85.2443
| 36> H 	 -52.0031 	 12.1233 	 86.162
| 37> H 	 -51.148 	 13.428 	 85.5161
| 38> H 	 -50.7725 	 11.7878 	 85.0161
| 39> H 	 -48.4949 	 12.3787 	 77.9387
| 40> H 	 -56.3028 	 13.4788 	 80.7201
| 41> *
| 42>
| 43>                          ****END OF INPUT****

CARTESIAN COORDINATES (ANGSTROEM)
---------------------------------
  S    -50.807400   13.327600   78.350500
  C    -49.357800   12.390800   78.602300
  C    -49.553400   11.501200   79.626600
  C    -50.749900   11.727300   80.378000
  C    -51.588800   12.702600   79.821500
  H    -50.919100   11.177400   81.256900
  C    -48.529100   10.459400   79.956400
  H    -48.257500   10.132400   78.939100
  H    -48.890300    9.550090   80.442700
  C    -47.211100   10.757700   80.721200
  H    -46.634100    9.879520   80.719100
  H    -46.675100   11.496700   80.092000
  C    -47.406200   11.257300   82.271100
  H    -47.993200   10.575600   82.890200
  H    -46.393500   11.322200   82.824500
  H    -47.872300   12.249400   82.203900
  S    -54.237200   13.071200   79.359300
  C    -55.253500   13.437900   80.724100
  C    -54.582300   13.607000   81.912400
  C    -53.185200   13.415900   81.700200
  C    -52.866400   13.081300   80.408100
  H    -55.177900   13.892900   82.837900
  C    -52.233500   13.445600   82.883300
  H    -52.241700   14.470200   83.248100
  H    -51.226000   13.304900   82.606900
  C    -52.614300   12.512200   84.073500
  H    -52.916800   11.488200   83.709400
  H    -53.570000   12.869200   84.440700
  C    -51.573500   12.502100   85.244300
  H    -52.003100   12.123300   86.162000
  H    -51.148000   13.428000   85.516100
  H    -50.772500   11.787800   85.016100
  H    -48.494900   12.378700   77.938700
  H    -56.302800   13.478800   80.720100

 Total Charge           Charge          ....    0
 Multiplicity           Mult            ....    1
 Number of Electrons    NEL             ....  134
 Basis Dimension        Dim             ....  322

ORBITAL ENERGIES
----------------

  NO   OCC          E(Eh)            E(eV)
   0   2.0000     -88.967872     -2420.9389
   1   2.0000     -88.966848     -2420.9110
   2   2.0000     -10.333579      -281.1910
   3   2.0000     -10.323329      -280.9121
   4   2.0000     -10.313381      -280.6414
   5   2.0000     -10.311973      -280.6031
   6   2.0000     -10.302433      -280.3434
   7   2.0000     -10.298151      -280.2269
   8   2.0000     -10.297470      -280.2084
   9   2.0000     -10.294187      -280.1191
  10   2.0000     -10.294012      -280.1143
  11   2.0000     -10.292554      -280.0746
  12   2.0000     -10.291039      -280.0334
  13   2.0000     -10.290790      -280.0266
  14   2.0000     -10.285794      -279.8907
  15   2.0000     -10.278957      -279.7047
  16   2.0000      -8.082334      -219.9315
  17   2.0000      -8.081966      -219.9215
  18   2.0000      -6.040758      -164.3774
  19   2.0000      -6.040678      -164.3752
  20   2.0000      -6.036862      -164.2714
  21   2.0000      -6.036441      -164.2599
  22   2.0000      -6.033026      -164.1670
  23   2.0000      -6.032662      -164.1571
  24   2.0000      -1.009303       -27.4645
  25   2.0000      -0.986115       -26.8335
  26   2.0000      -0.904455       -24.6115
  27   2.0000      -0.903051       -24.5733
  28   2.0000      -0.868983       -23.6462
  29   2.0000      -0.850606       -23.1462
  30   2.0000      -0.839579       -22.8461
  31   2.0000      -0.815060       -22.1789
  32   2.0000      -0.783016       -21.3070
  33   2.0000      -0.771739       -21.0001
  34   2.0000      -0.709438       -19.3048
  35   2.0000      -0.702567       -19.1178
  36   2.0000      -0.701573       -19.0908
  37   2.0000      -0.660205       -17.9651
  38   2.0000      -0.637421       -17.3451
  39   2.0000      -0.618031       -16.8175
  40   2.0000      -0.596361       -16.2278
  41   2.0000      -0.576088       -15.6761
  42   2.0000      -0.556073       -15.1315
  43   2.0000      -0.541680       -14.7399
  44   2.0000      -0.536463       -14.5979
  45   2.0000      -0.523569       -14.2470
  46   2.0000      -0.513355       -13.9691
  47   2.0000      -0.509188       -13.8557
  48   2.0000      -0.501990       -13.6598
  49   2.0000      -0.497741       -13.5442
  50   2.0000      -0.489134       -13.3100
  51   2.0000      -0.481022       -13.0893
  52   2.0000      -0.469736       -12.7822
  53   2.0000      -0.466865       -12.7041
  54   2.0000      -0.462875       -12.5955
  55   2.0000      -0.453174       -12.3315
  56   2.0000      -0.446019       -12.1368
  57   2.0000      -0.439369       -11.9559
  58   2.0000      -0.432642       -11.7728
  59   2.0000      -0.429170       -11.6783
  60   2.0000      -0.416166       -11.3244
  61   2.0000      -0.413832       -11.2609
  62   2.0000      -0.413132       -11.2419
  63   2.0000      -0.349553        -9.5118
  64   2.0000      -0.333171        -9.0661
  65   2.0000      -0.327758        -8.9187
  66   2.0000      -0.290666        -7.9094
  67   0.0000       0.032733         0.8907
  68   0.0000       0.068428         1.8620
  69   0.0000       0.110860         3.0166
  70   0.0000       0.121175         3.2973
  71   0.0000       0.127512         3.4698

MULLIKEN ATOMIC CHARGES
-----------------------
   0 S :    0.114247
   1 C :   -0.132835
   2 C :   -0.071148
   3 C :    0.050966
   4 C :   -0.131157
   5 H :   -0.009417
   6 C :    0.023280
   7 H :    0.025855
   8 H :    0.020667
   9 C :   -0.043424
  10 H :    0.024659
  11 H :    0.025887
  12 C :   -0.104789
  13 H :    0.034930
  14 H :    0.049631
  15 H :    0.056478
  16 S :    0.120383
  17 C :   -0.067830
  18 C :   -0.077740
  19 C :   -0.030785
  20 C :   -0.165696
  21 H :    0.053724
  22 C :    0.106313
  23 H :    0.023235
  24 H :    0.006266
  25 C :   -0.102763
  26 H :    0.036731
  27 H :    0.017005
  28 C :   -0.019363
  29 H :    0.025291
  30 H :    0.023991
  31 H :    0.033122
  32 H :    0.052943
  33 H :    0.031341
Sum of atomic charges:   -0.0000000

LOEWDIN ATOMIC CHARGES
----------------------
   0 S :    0.398426
   1 C :   -0.199293
   2 C :   -0.069360
   3 C :   -0.051675
   4 C :   -0.187294
   5 H :    0.023183
   6 C :   -0.042445
   7 H :    0.036113
   8 H :    0.028251
   9 C :   -0.030319
  10 H :    0.016435
  11 H :    0.022804
  12 C :   -0.077094
  13 H :    0.020907
  14 H :    0.036270
  15 H :    0.028934
  16 S :    0.419603
  17 C :   -0.177027
  18 C :   -0.076956
  19 C :   -0.052859
  20 C :   -0.206615
  21 H :    0.049130
  22 C :   -0.028815
  23 H :    0.033779
  24 H :    0.018491
  25 C :   -0.040181
  26 H :    0.028829
  27 H :    0.016429
  28 C :   -0.062395
  29 H :    0.027165
  30 H :    0.020039
  31 H :    0.028336
  32 H :    0.031850
  33 H :    0.017353

  Mayer bond orders larger than 0.100000
B(  0-S ,  1-C ) :   1.1353 B(  0-S ,  4-C ) :   1.1454 B(  1-C ,  2-C ) :   1.5942
B(  1-C , 32-H ) :   0.9686 B(  2-C ,  3-C ) :   1.2583 B(  2-C ,  6-C ) :   1.0190
B(  3-C ,  4-C ) :   1.5302 B(  3-C ,  5-H ) :   1.0062 B(  4-C , 20-C ) :   1.0467
B(  6-C ,  7-H ) :   0.9361 B(  6-C ,  8-H ) :   0.9466 B(  6-C ,  9-C ) :   1.0780
B(  9-C , 10-H ) :   0.9558 B(  9-C , 11-H ) :   0.9590 B(  9-C , 12-C ) :   1.0546
B( 12-C , 13-H ) :   0.9779 B( 12-C , 14-H ) :   0.9774 B( 12-C , 15-H ) :   0.9792
B( 16-S , 17-C ) :   1.1565 B( 16-S , 20-C ) :   1.1347 B( 17-C , 18-C ) :   1.6409
B( 17-C , 33-H ) :   0.9680 B( 18-C , 19-C ) :   1.2125 B( 18-C , 21-H ) :   0.9788
B( 19-C , 20-C ) :   1.6245 B( 19-C , 22-C ) :   1.0498 B( 22-C , 23-H ) :   0.9213
B( 22-C , 24-H ) :   0.9387 B( 22-C , 25-C ) :   1.0495 B( 25-C , 26-H ) :   0.9610
B( 25-C , 27-H ) :   0.9530 B( 25-C , 28-C ) :   1.0739 B( 28-C , 29-H ) :   0.9748
B( 28-C , 30-H ) :   0.9762 B( 28-C , 31-H ) :   0.9769

Dispersion correction           -0.014517741
FINAL SINGLE POINT ENERGY     -1339.873947276292

DIPOLE MOMENT
-------------
                                X             Y             Z
Electronic contribution:    -17.77096       9.15642     -25.76208
Nuclear contribution   :     17.98076      -9.45458      26.38954
                        -----------------------------------------
Total Dipole Moment    :      0.20980      -0.29816       0.62746
                        -----------------------------------------
Magnitude (a.u.)       :      0.72569
Magnitude (Debye)      :      1.84456

Rotational constants in cm-1:     0.016471     0.010033     0.006628
Rotational constants in MHz :   493.784725   300.777946   198.692682

                             ****ORCA TERMINATED NORMALLY****
TOTAL RUN TIME: 0 days 0 hours 0 minutes 30 seconds 711 msec
