                         Program Version 4.2.1 -  RELEASE  -
|  1> ! wB97X-D3 SP def2-SVP
|  2> %pal
|  3> nprocs 16
|  4> end
|  5>
|  6> * xyz 0 1
|  7> S 	 6.49662 	 22.5914 	 65.964
|  8> C 	 5.25471 	 22.3707 	 64.8184
|  9> C 	 4.56412 	 23.5212 	 64.5118
| 10> C 	 4.99725 	 24.6046 	 65.3249
| 11> C 	 6.09213 	 24.3531 	 66.082
| 12> H 	 4.57224 	 25.5444 	 65.3451
| 13> C 	 3.43411 	 23.5941 	 63.4893
| 14> H 	 2.48537 	 23.42 	 63.9226
| 15> H 	 3.62754 	 22.7184 	 62.8209
| 16> C 	 3.35824 	 24.8767 	 62.479
| 17> H 	 2.79335 	 24.6638 	 61.5806
| 18> H 	 2.8573 	 25.6426 	 62.9891
| 19> C 	 4.73741 	 25.4334 	 61.945
| 20> H 	 5.41862 	 24.5783 	 61.5865
| 21> H 	 4.60294 	 26.2109 	 61.2048
| 22> H 	 5.17076 	 25.936 	 62.8356
| 23> S 	 8.37065 	 25.6338 	 66.6386
| 24> C 	 8.52542 	 26.836 	 67.8956
| 25> C 	 7.20761 	 27.1665 	 68.2576
| 26> C 	 6.18152 	 26.3564 	 67.7224
| 27> C 	 6.70258 	 25.352 	 66.9346
| 28> H 	 7.00348 	 27.965 	 69.002
| 29> C 	 4.73227 	 26.5401 	 68.1871
| 30> H 	 4.81688 	 26.3207 	 69.2546
| 31> H 	 4.00757 	 25.8378 	 67.8194
| 32> C 	 4.10318 	 27.9718 	 68.1136
| 33> H 	 4.13881 	 28.388 	 67.0737
| 34> H 	 4.68495 	 28.6351 	 68.713
| 35> C 	 2.60625 	 27.8732 	 68.4775
| 36> H 	 2.19628 	 28.8039 	 68.3033
| 37> H 	 2.50241 	 27.6487 	 69.5652
| 38> H 	 2.02188 	 27.1402 	 67.8984
| 39> H 	 4.98786 	 21.4217 	 64.4196
| 40> H 	 9.36601 	 27.3771 	 68.2679
| 41> *
| 42>
| 43>                          ****END OF INPUT****

CARTESIAN COORDINATES (ANGSTROEM)
---------------------------------
  S      6.496620   22.591400   65.964000
  C      5.254710   22.370700   64.818400
  C      4.564120   23.521200   64.511800
  C      4.997250   24.604600   65.324900
  C      6.092130   24.353100   66.082000
  H      4.572240   25.544400   65.345100
  C      3.434110   23.594100   63.489300
  H      2.485370   23.420000   63.922600
  H      3.627540   22.718400   62.820900
  C      3.358240   24.876700   62.479000
  H      2.793350   24.663800   61.580600
  H      2.857300   25.642600   62.989100
  C      4.737410   25.433400   61.945000
  H      5.418620   24.578300   61.586500
  H      4.602940   26.210900   61.204800
  H      5.170760   25.936000   62.835600
  S      8.370650   25.633800   66.638600
  C      8.525420   26.836000   67.895600
  C      7.207610   27.166500   68.257600
  C      6.181520   26.356400   67.722400
  C      6.702580   25.352000   66.934600
  H      7.003480   27.965000   69.002000
  C      4.732270   26.540100   68.187100
  H      4.816880   26.320700   69.254600
  H      4.007570   25.837800   67.819400
  C      4.103180   27.971800   68.113600
  H      4.138810   28.388000   67.073700
  H      4.684950   28.635100   68.713000
  C      2.606250   27.873200   68.477500
  H      2.196280   28.803900   68.303300
  H      2.502410   27.648700   69.565200
  H      2.021880   27.140200   67.898400
  H      4.987860   21.421700   64.419600
  H      9.366010   27.377100   68.267900

 Total Charge           Charge          ....    0
 Multiplicity           Mult            ....    1
 Number of Electrons    NEL             ....  134
 Basis Dimension        Dim             ....  322

ORBITAL ENERGIES
----------------

  NO   OCC          E(Eh)            E(eV)
   0   2.0000     -88.967516     -2420.9292
   1   2.0000     -88.961579     -2420.7676
   2   2.0000     -10.327194      -281.0172
   3   2.0000     -10.321939      -280.8742
   4   2.0000     -10.316169      -280.7172
   5   2.0000     -10.310248      -280.5561
   6   2.0000     -10.301433      -280.3162
   7   2.0000     -10.299491      -280.2634
   8   2.0000     -10.299022      -280.2506
   9   2.0000     -10.294356      -280.1237
  10   2.0000     -10.292435      -280.0714
  11   2.0000     -10.292046      -280.0608
  12   2.0000     -10.290583      -280.0210
  13   2.0000     -10.285840      -279.8919
  14   2.0000     -10.284123      -279.8452
  15   2.0000     -10.279708      -279.7251
  16   2.0000      -8.082085      -219.9247
  17   2.0000      -8.076939      -219.7847
  18   2.0000      -6.040594      -164.3729
  19   2.0000      -6.036681      -164.2664
  20   2.0000      -6.035436      -164.2326
  21   2.0000      -6.032784      -164.1604
  22   2.0000      -6.031260      -164.1189
  23   2.0000      -6.027754      -164.0235
  24   2.0000      -1.010452       -27.4958
  25   2.0000      -0.987944       -26.8833
  26   2.0000      -0.907237       -24.6872
  27   2.0000      -0.896140       -24.3852
  28   2.0000      -0.873990       -23.7825
  29   2.0000      -0.851965       -23.1831
  30   2.0000      -0.844103       -22.9692
  31   2.0000      -0.815943       -22.2029
  32   2.0000      -0.779302       -21.2059
  33   2.0000      -0.769523       -20.9398
  34   2.0000      -0.708182       -19.2706
  35   2.0000      -0.701764       -19.0960
  36   2.0000      -0.694482       -18.8978
  37   2.0000      -0.661579       -18.0025
  38   2.0000      -0.645659       -17.5693
  39   2.0000      -0.622254       -16.9324
  40   2.0000      -0.598394       -16.2831
  41   2.0000      -0.563623       -15.3370
  42   2.0000      -0.559323       -15.2200
  43   2.0000      -0.554596       -15.0913
  44   2.0000      -0.538391       -14.6504
  45   2.0000      -0.526791       -14.3347
  46   2.0000      -0.516795       -14.0627
  47   2.0000      -0.510274       -13.8853
  48   2.0000      -0.506838       -13.7918
  49   2.0000      -0.497285       -13.5318
  50   2.0000      -0.486941       -13.2504
  51   2.0000      -0.483452       -13.1554
  52   2.0000      -0.474234       -12.9046
  53   2.0000      -0.466020       -12.6811
  54   2.0000      -0.456925       -12.4336
  55   2.0000      -0.450272       -12.2525
  56   2.0000      -0.442698       -12.0464
  57   2.0000      -0.439644       -11.9633
  58   2.0000      -0.435931       -11.8623
  59   2.0000      -0.423873       -11.5342
  60   2.0000      -0.418300       -11.3825
  61   2.0000      -0.415182       -11.2977
  62   2.0000      -0.411329       -11.1928
  63   2.0000      -0.350617        -9.5408
  64   2.0000      -0.329715        -8.9720
  65   2.0000      -0.325482        -8.8568
  66   2.0000      -0.291973        -7.9450
  67   0.0000       0.030609         0.8329
  68   0.0000       0.070779         1.9260
  69   0.0000       0.112375         3.0579
  70   0.0000       0.120759         3.2860
  71   0.0000       0.132000         3.5919

MULLIKEN ATOMIC CHARGES
-----------------------
   0 S :    0.122534
   1 C :   -0.104728
   2 C :   -0.091273
   3 C :    0.047350
   4 C :   -0.140072
   5 H :   -0.016183
   6 C :    0.076113
   7 H :    0.038898
   8 H :    0.023742
   9 C :   -0.091548
  10 H :    0.035106
  11 H :    0.021818
  12 C :   -0.082948
  13 H :    0.056480
  14 H :    0.039347
  15 H :    0.037272
  16 S :    0.106025
  17 C :   -0.073079
  18 C :   -0.078860
  19 C :    0.016143
  20 C :   -0.171500
  21 H :    0.026683
  22 C :    0.037394
  23 H :    0.035986
  24 H :    0.015395
  25 C :   -0.091754
  26 H :    0.034683
  27 H :    0.025179
  28 C :   -0.030343
  29 H :    0.018270
  30 H :    0.035322
  31 H :    0.037969
  32 H :    0.034143
  33 H :    0.050433
Sum of atomic charges:    0.0000000

LOEWDIN ATOMIC CHARGES
----------------------
   0 S :    0.401701
   1 C :   -0.196521
   2 C :   -0.069330
   3 C :   -0.044045
   4 C :   -0.183856
   5 H :    0.019201
   6 C :   -0.027776
   7 H :    0.026230
   8 H :    0.034375
   9 C :   -0.036586
  10 H :    0.023983
  11 H :    0.011830
  12 C :   -0.073161
  13 H :    0.037188
  14 H :    0.023866
  15 H :    0.027643
  16 S :    0.426932
  17 C :   -0.192774
  18 C :   -0.074632
  19 C :   -0.064754
  20 C :   -0.204606
  21 H :    0.031244
  22 C :   -0.032527
  23 H :    0.037469
  24 H :    0.023419
  25 C :   -0.035094
  26 H :    0.026383
  27 H :    0.016731
  28 C :   -0.059730
  29 H :    0.015572
  30 H :    0.030078
  31 H :    0.029050
  32 H :    0.022774
  33 H :    0.029723

  Mayer bond orders larger than 0.100000
B(  0-S ,  1-C ) :   1.1532 B(  0-S ,  4-C ) :   1.1208 B(  1-C ,  2-C ) :   1.6211
B(  1-C , 32-H ) :   0.9659 B(  2-C ,  3-C ) :   1.2316 B(  2-C ,  6-C ) :   1.0115
B(  3-C ,  4-C ) :   1.5891 B(  3-C ,  5-H ) :   1.0078 B(  4-C , 20-C ) :   1.0380
B(  6-C ,  7-H ) :   0.9468 B(  6-C ,  8-H ) :   0.9428 B(  6-C ,  9-C ) :   1.0502
B(  9-C , 10-H ) :   0.9661 B(  9-C , 11-H ) :   0.9595 B(  9-C , 12-C ) :   1.0751
B( 12-C , 13-H ) :   0.9764 B( 12-C , 14-H ) :   0.9752 B( 12-C , 15-H ) :   0.9730
B( 16-S , 17-C ) :   1.1541 B( 16-S , 20-C ) :   1.1677 B( 17-C , 18-C ) :   1.5767
B( 17-C , 20-C ) :   0.1092 B( 17-C , 33-H ) :   0.9762 B( 18-C , 19-C ) :   1.2697
B( 18-C , 21-H ) :   0.9795 B( 19-C , 20-C ) :   1.5688 B( 19-C , 22-C ) :   1.0230
B( 22-C , 23-H ) :   0.9362 B( 22-C , 24-H ) :   0.9506 B( 22-C , 25-C ) :   1.0523
B( 25-C , 26-H ) :   0.9599 B( 25-C , 27-H ) :   0.9527 B( 25-C , 28-C ) :   1.0868
B( 28-C , 29-H ) :   0.9733 B( 28-C , 30-H ) :   0.9744 B( 28-C , 31-H ) :   0.9740

Dispersion correction           -0.014272332
FINAL SINGLE POINT ENERGY     -1339.864663762911

DIPOLE MOMENT
-------------
                                X             Y             Z
Electronic contribution:     23.02781     -13.82654       6.19161
Nuclear contribution   :    -23.73759      14.23389      -6.20690
                        -----------------------------------------
Total Dipole Moment    :     -0.70978       0.40735      -0.01529
                        -----------------------------------------
Magnitude (a.u.)       :      0.81851
Magnitude (Debye)      :      2.08048

Rotational constants in cm-1:     0.015380     0.009680     0.007399
Rotational constants in MHz :   461.091859   290.196332   221.817528

                             ****ORCA TERMINATED NORMALLY****
TOTAL RUN TIME: 0 days 0 hours 0 minutes 32 seconds 646 msec
