                         Program Version 4.2.1 -  RELEASE  -
|  1> ! wB97X-D3 SP def2-SVP
|  2> %pal
|  3> nprocs 16
|  4> end
|  5>
|  6> * xyz 0 1
|  7> S 	 9.80837 	 -11.7561 	 96.1454
|  8> C 	 10.9418 	 -11.5225 	 97.467
|  9> C 	 10.3736 	 -11.2601 	 98.6691
| 10> C 	 8.98399 	 -11.0414 	 98.5463
| 11> C 	 8.44378 	 -11.3791 	 97.2571
| 12> H 	 8.27556 	 -10.6635 	 99.2167
| 13> C 	 11.2415 	 -11.1917 	 99.9464
| 14> H 	 10.8362 	 -10.336 	 100.442
| 15> H 	 12.3007 	 -10.8472 	 99.7618
| 16> C 	 11.0843 	 -12.3611 	 100.912
| 17> H 	 11.4199 	 -12.3289 	 101.913
| 18> H 	 9.99877 	 -12.5061 	 100.931
| 19> C 	 11.7921 	 -13.5581 	 100.203
| 20> H 	 12.8429 	 -13.3373 	 100.154
| 21> H 	 11.5614 	 -14.46 	 100.769
| 22> H 	 11.4756 	 -13.6857 	 99.1556
| 23> S 	 6.89416 	 -10.2624 	 95.3429
| 24> C 	 5.15974 	 -10.2404 	 95.4912
| 25> C 	 4.73117 	 -10.8891 	 96.6672
| 26> C 	 5.82257 	 -11.4737 	 97.4254
| 27> C 	 7.08613 	 -11.1922 	 96.8288
| 28> H 	 3.74284 	 -10.9668 	 96.9545
| 29> C 	 5.609 	 -11.9637 	 98.8755
| 30> H 	 6.54141 	 -12.4433 	 99.1665
| 31> H 	 4.88819 	 -12.7568 	 98.9323
| 32> C 	 5.18738 	 -10.9817 	 99.9659
| 33> H 	 4.26519 	 -10.4735 	 99.6878
| 34> H 	 5.92921 	 -10.2255 	 100.085
| 35> C 	 4.84535 	 -11.6396 	 101.299
| 36> H 	 5.68354 	 -12.1833 	 101.824
| 37> H 	 4.11065 	 -12.3821 	 101.126
| 38> H 	 4.49807 	 -10.912 	 102.02
| 39> H 	 12.0271 	 -11.7355 	 97.3653
| 40> H 	 4.55187 	 -9.61944 	 94.818
| 41> *
| 42>
| 43>                          ****END OF INPUT****

CARTESIAN COORDINATES (ANGSTROEM)
---------------------------------
  S      9.808370  -11.756100   96.145400
  C     10.941800  -11.522500   97.467000
  C     10.373600  -11.260100   98.669100
  C      8.983990  -11.041400   98.546300
  C      8.443780  -11.379100   97.257100
  H      8.275560  -10.663500   99.216700
  C     11.241500  -11.191700   99.946400
  H     10.836200  -10.336000  100.442000
  H     12.300700  -10.847200   99.761800
  C     11.084300  -12.361100  100.912000
  H     11.419900  -12.328900  101.913000
  H      9.998770  -12.506100  100.931000
  C     11.792100  -13.558100  100.203000
  H     12.842900  -13.337300  100.154000
  H     11.561400  -14.460000  100.769000
  H     11.475600  -13.685700   99.155600
  S      6.894160  -10.262400   95.342900
  C      5.159740  -10.240400   95.491200
  C      4.731170  -10.889100   96.667200
  C      5.822570  -11.473700   97.425400
  C      7.086130  -11.192200   96.828800
  H      3.742840  -10.966800   96.954500
  C      5.609000  -11.963700   98.875500
  H      6.541410  -12.443300   99.166500
  H      4.888190  -12.756800   98.932300
  C      5.187380  -10.981700   99.965900
  H      4.265190  -10.473500   99.687800
  H      5.929210  -10.225500  100.085000
  C      4.845350  -11.639600  101.299000
  H      5.683540  -12.183300  101.824000
  H      4.110650  -12.382100  101.126000
  H      4.498070  -10.912000  102.020000
  H     12.027100  -11.735500   97.365300
  H      4.551870   -9.619440   94.818000

 Total Charge           Charge          ....    0
 Multiplicity           Mult            ....    1
 Number of Electrons    NEL             ....  134
 Basis Dimension        Dim             ....  322

ORBITAL ENERGIES
----------------

  NO   OCC          E(Eh)            E(eV)
   0   2.0000     -88.969934     -2420.9950
   1   2.0000     -88.967895     -2420.9395
   2   2.0000     -10.337470      -281.2969
   3   2.0000     -10.332887      -281.1722
   4   2.0000     -10.324517      -280.9444
   5   2.0000     -10.315247      -280.6921
   6   2.0000     -10.313687      -280.6497
   7   2.0000     -10.303784      -280.3802
   8   2.0000     -10.299236      -280.2565
   9   2.0000     -10.297351      -280.2052
  10   2.0000     -10.296182      -280.1734
  11   2.0000     -10.292339      -280.0688
  12   2.0000     -10.286516      -279.9103
  13   2.0000     -10.285403      -279.8801
  14   2.0000     -10.280492      -279.7464
  15   2.0000     -10.272255      -279.5223
  16   2.0000      -8.083644      -219.9671
  17   2.0000      -8.082622      -219.9393
  18   2.0000      -6.042197      -164.4165
  19   2.0000      -6.041085      -164.3863
  20   2.0000      -6.038335      -164.3114
  21   2.0000      -6.037016      -164.2756
  22   2.0000      -6.034373      -164.2036
  23   2.0000      -6.033528      -164.1806
  24   2.0000      -1.001912       -27.2634
  25   2.0000      -0.979569       -26.6554
  26   2.0000      -0.913054       -24.8455
  27   2.0000      -0.911131       -24.7931
  28   2.0000      -0.869510       -23.6606
  29   2.0000      -0.853970       -23.2377
  30   2.0000      -0.844607       -22.9829
  31   2.0000      -0.809122       -22.0173
  32   2.0000      -0.783731       -21.3264
  33   2.0000      -0.772737       -21.0272
  34   2.0000      -0.711881       -19.3713
  35   2.0000      -0.700747       -19.0683
  36   2.0000      -0.692640       -18.8477
  37   2.0000      -0.668009       -18.1774
  38   2.0000      -0.642891       -17.4939
  39   2.0000      -0.616612       -16.7789
  40   2.0000      -0.598158       -16.2767
  41   2.0000      -0.573212       -15.5979
  42   2.0000      -0.570237       -15.5169
  43   2.0000      -0.551839       -15.0163
  44   2.0000      -0.542490       -14.7619
  45   2.0000      -0.525782       -14.3073
  46   2.0000      -0.519460       -14.1352
  47   2.0000      -0.513242       -13.9660
  48   2.0000      -0.504538       -13.7292
  49   2.0000      -0.493330       -13.4242
  50   2.0000      -0.483614       -13.1598
  51   2.0000      -0.481700       -13.1077
  52   2.0000      -0.472689       -12.8625
  53   2.0000      -0.462565       -12.5870
  54   2.0000      -0.460626       -12.5343
  55   2.0000      -0.453982       -12.3535
  56   2.0000      -0.444205       -12.0874
  57   2.0000      -0.441239       -12.0067
  58   2.0000      -0.433820       -11.8048
  59   2.0000      -0.426839       -11.6149
  60   2.0000      -0.425170       -11.5695
  61   2.0000      -0.419287       -11.4094
  62   2.0000      -0.407750       -11.0954
  63   2.0000      -0.350020        -9.5245
  64   2.0000      -0.334895        -9.1130
  65   2.0000      -0.331714        -9.0264
  66   2.0000      -0.285624        -7.7722
  67   0.0000       0.018915         0.5147
  68   0.0000       0.067760         1.8438
  69   0.0000       0.104738         2.8501
  70   0.0000       0.115347         3.1387
  71   0.0000       0.129402         3.5212

MULLIKEN ATOMIC CHARGES
-----------------------
   0 S :    0.106075
   1 C :   -0.133359
   2 C :   -0.060894
   3 C :    0.043142
   4 C :   -0.160964
   5 H :   -0.017257
   6 C :    0.048153
   7 H :    0.013586
   8 H :    0.035796
   9 C :   -0.036134
  10 H :    0.031611
  11 H :    0.025302
  12 C :   -0.063720
  13 H :    0.020903
  14 H :    0.035088
  15 H :    0.041034
  16 S :    0.108494
  17 C :   -0.099791
  18 C :   -0.008798
  19 C :   -0.014432
  20 C :   -0.162927
  21 H :   -0.003700
  22 C :    0.048392
  23 H :    0.021382
  24 H :    0.009521
  25 C :   -0.042702
  26 H :    0.021688
  27 H :    0.022556
  28 C :   -0.055401
  29 H :    0.032365
  30 H :    0.021572
  31 H :    0.038488
  32 H :    0.061955
  33 H :    0.072975
Sum of atomic charges:   -0.0000000

LOEWDIN ATOMIC CHARGES
----------------------
   0 S :    0.382281
   1 C :   -0.191778
   2 C :   -0.066178
   3 C :   -0.048715
   4 C :   -0.181847
   5 H :    0.020887
   6 C :   -0.031440
   7 H :    0.025208
   8 H :    0.033702
   9 C :   -0.034668
  10 H :    0.020459
  11 H :    0.025713
  12 C :   -0.064669
  13 H :    0.019315
  14 H :    0.022850
  15 H :    0.027539
  16 S :    0.413341
  17 C :   -0.189557
  18 C :   -0.057951
  19 C :   -0.049267
  20 C :   -0.198385
  21 H :    0.018021
  22 C :   -0.034403
  23 H :    0.028848
  24 H :    0.025370
  25 C :   -0.035856
  26 H :    0.025096
  27 H :    0.015837
  28 C :   -0.062750
  29 H :    0.028457
  30 H :    0.018673
  31 H :    0.028398
  32 H :    0.034284
  33 H :    0.033184

  Mayer bond orders larger than 0.100000
B(  0-S ,  1-C ) :   1.1361 B(  0-S ,  4-C ) :   1.1371 B(  1-C ,  2-C ) :   1.6230
B(  1-C , 32-H ) :   0.9570 B(  2-C ,  3-C ) :   1.2334 B(  2-C ,  6-C ) :   1.0068
B(  3-C ,  4-C ) :   1.5457 B(  3-C ,  5-H ) :   1.0005 B(  4-C , 20-C ) :   1.0868
B(  6-C ,  7-H ) :   0.9322 B(  6-C ,  8-H ) :   0.9513 B(  6-C ,  9-C ) :   1.0620
B(  9-C , 10-H ) :   0.9612 B(  9-C , 11-H ) :   0.9533 B(  9-C , 12-C ) :   1.0679
B( 12-C , 13-H ) :   0.9765 B( 12-C , 14-H ) :   0.9754 B( 12-C , 15-H ) :   0.9771
B( 16-S , 17-C ) :   1.1657 B( 16-S , 20-C ) :   1.1514 B( 17-C , 18-C ) :   1.5731
B( 17-C , 33-H ) :   0.9674 B( 18-C , 19-C ) :   1.2498 B( 18-C , 21-H ) :   1.0026
B( 19-C , 20-C ) :   1.5498 B( 19-C , 22-C ) :   1.0581 B( 22-C , 23-H ) :   0.9331
B( 22-C , 24-H ) :   0.9293 B( 22-C , 25-C ) :   1.0652 B( 25-C , 26-H ) :   0.9476
B( 25-C , 27-H ) :   0.9535 B( 25-C , 28-C ) :   1.0831 B( 28-C , 29-H ) :   0.9751
B( 28-C , 30-H ) :   0.9736 B( 28-C , 31-H ) :   0.9733

Dispersion correction           -0.014377696
FINAL SINGLE POINT ENERGY     -1339.869814967345

DIPOLE MOMENT
-------------
                                X             Y             Z
Electronic contribution:     -0.06591       6.77835     -29.43502
Nuclear contribution   :     -0.14478      -6.62269      30.14770
                        -----------------------------------------
Total Dipole Moment    :     -0.21069       0.15567       0.71269
                        -----------------------------------------
Magnitude (a.u.)       :      0.75930
Magnitude (Debye)      :      1.93000

Rotational constants in cm-1:     0.017201     0.009526     0.006526
Rotational constants in MHz :   515.673236   285.582562   195.636980

                             ****ORCA TERMINATED NORMALLY****
TOTAL RUN TIME: 0 days 0 hours 0 minutes 34 seconds 47 msec
