                         Program Version 4.2.1 -  RELEASE  -
|  1> ! wB97X-D3 SP def2-SVP
|  2> %pal
|  3> nprocs 16
|  4> end
|  5>
|  6> * xyz 0 1
|  7> S 	 -47.2369 	 -1.20079 	 96.3837
|  8> C 	 -48.4348 	 -2.44834 	 96.1007
|  9> C 	 -49.5079 	 -1.96455 	 95.3542
| 10> C 	 -49.4239 	 -0.557796 	 95.0942
| 11> C 	 -48.2452 	 0.00536857 	 95.5487
| 12> H 	 -50.0837 	 0.0938442 	 94.5786
| 13> C 	 -50.6559 	 -2.72987 	 94.6926
| 14> H 	 -50.3019 	 -3.19661 	 93.8329
| 15> H 	 -51.2937 	 -2.00636 	 94.3039
| 16> C 	 -51.3288 	 -3.69734 	 95.6778
| 17> H 	 -51.9151 	 -4.39611 	 95.1767
| 18> H 	 -50.661 	 -4.31214 	 96.2431
| 19> C 	 -52.2202 	 -3.05782 	 96.7164
| 20> H 	 -53.2861 	 -3.34943 	 96.6995
| 21> H 	 -51.7108 	 -3.32835 	 97.6421
| 22> H 	 -52.1151 	 -1.96596 	 96.7397
| 23> S 	 -49.1002 	 2.59236 	 95.8146
| 24> C 	 -47.8983 	 3.8728 	 95.6693
| 25> C 	 -46.7627 	 3.41849 	 94.9814
| 26> C 	 -46.6734 	 1.9821 	 95.0499
| 27> C 	 -47.834 	 1.40363 	 95.5032
| 28> H 	 -46.0759 	 4.20937 	 94.7181
| 29> C 	 -45.5321 	 1.19714 	 94.4565
| 30> H 	 -45.1187 	 0.581697 	 95.2414
| 31> H 	 -44.7495 	 1.93225 	 94.2488
| 32> C 	 -45.8241 	 0.330804 	 93.2561
| 33> H 	 -46.4147 	 0.926862 	 92.5972
| 34> H 	 -46.5269 	 -0.460624 	 93.5565
| 35> C 	 -44.617 	 -0.292801 	 92.5844
| 36> H 	 -43.9777 	 0.474678 	 92.1692
| 37> H 	 -44.9701 	 -0.882551 	 91.7435
| 38> H 	 -44.1064 	 -0.963572 	 93.2015
| 39> H 	 -48.3045 	 -3.49699 	 96.2789
| 40> H 	 -48.1246 	 4.91129 	 95.8225
| 41> *
| 42>
| 43>                          ****END OF INPUT****

CARTESIAN COORDINATES (ANGSTROEM)
---------------------------------
  S    -47.236900   -1.200790   96.383700
  C    -48.434800   -2.448340   96.100700
  C    -49.507900   -1.964550   95.354200
  C    -49.423900   -0.557796   95.094200
  C    -48.245200    0.005369   95.548700
  H    -50.083700    0.093844   94.578600
  C    -50.655900   -2.729870   94.692600
  H    -50.301900   -3.196610   93.832900
  H    -51.293700   -2.006360   94.303900
  C    -51.328800   -3.697340   95.677800
  H    -51.915100   -4.396110   95.176700
  H    -50.661000   -4.312140   96.243100
  C    -52.220200   -3.057820   96.716400
  H    -53.286100   -3.349430   96.699500
  H    -51.710800   -3.328350   97.642100
  H    -52.115100   -1.965960   96.739700
  S    -49.100200    2.592360   95.814600
  C    -47.898300    3.872800   95.669300
  C    -46.762700    3.418490   94.981400
  C    -46.673400    1.982100   95.049900
  C    -47.834000    1.403630   95.503200
  H    -46.075900    4.209370   94.718100
  C    -45.532100    1.197140   94.456500
  H    -45.118700    0.581697   95.241400
  H    -44.749500    1.932250   94.248800
  C    -45.824100    0.330804   93.256100
  H    -46.414700    0.926862   92.597200
  H    -46.526900   -0.460624   93.556500
  C    -44.617000   -0.292801   92.584400
  H    -43.977700    0.474678   92.169200
  H    -44.970100   -0.882551   91.743500
  H    -44.106400   -0.963572   93.201500
  H    -48.304500   -3.496990   96.278900
  H    -48.124600    4.911290   95.822500

 Total Charge           Charge          ....    0
 Multiplicity           Mult            ....    1
 Number of Electrons    NEL             ....  134
 Basis Dimension        Dim             ....  322

ORBITAL ENERGIES
----------------

  NO   OCC          E(Eh)            E(eV)
   0   2.0000     -88.968045     -2420.9436
   1   2.0000     -88.966283     -2420.8956
   2   2.0000     -10.331580      -281.1366
   3   2.0000     -10.325084      -280.9598
   4   2.0000     -10.319689      -280.8130
   5   2.0000     -10.313157      -280.6353
   6   2.0000     -10.305422      -280.4248
   7   2.0000     -10.302785      -280.3530
   8   2.0000     -10.300198      -280.2826
   9   2.0000     -10.291025      -280.0330
  10   2.0000     -10.283845      -279.8377
  11   2.0000     -10.283251      -279.8215
  12   2.0000     -10.274794      -279.5914
  13   2.0000     -10.274368      -279.5798
  14   2.0000     -10.270810      -279.4830
  15   2.0000     -10.268523      -279.4207
  16   2.0000      -8.081675      -219.9136
  17   2.0000      -8.080692      -219.8868
  18   2.0000      -6.040368      -164.3668
  19   2.0000      -6.039202      -164.3350
  20   2.0000      -6.036270      -164.2553
  21   2.0000      -6.035491      -164.2341
  22   2.0000      -6.032392      -164.1497
  23   2.0000      -6.031235      -164.1182
  24   2.0000      -1.005004       -27.3476
  25   2.0000      -0.980734       -26.6871
  26   2.0000      -0.914122       -24.8745
  27   2.0000      -0.910428       -24.7740
  28   2.0000      -0.868178       -23.6243
  29   2.0000      -0.854514       -23.2525
  30   2.0000      -0.848350       -23.0848
  31   2.0000      -0.812913       -22.1205
  32   2.0000      -0.786202       -21.3936
  33   2.0000      -0.773542       -21.0491
  34   2.0000      -0.710444       -19.3322
  35   2.0000      -0.704609       -19.1734
  36   2.0000      -0.689567       -18.7641
  37   2.0000      -0.667266       -18.1572
  38   2.0000      -0.641796       -17.4642
  39   2.0000      -0.610068       -16.6008
  40   2.0000      -0.592940       -16.1347
  41   2.0000      -0.576349       -15.6832
  42   2.0000      -0.567344       -15.4382
  43   2.0000      -0.553616       -15.0647
  44   2.0000      -0.542367       -14.7585
  45   2.0000      -0.523276       -14.2391
  46   2.0000      -0.521521       -14.1913
  47   2.0000      -0.517190       -14.0735
  48   2.0000      -0.510330       -13.8868
  49   2.0000      -0.492235       -13.3944
  50   2.0000      -0.488034       -13.2801
  51   2.0000      -0.479120       -13.0375
  52   2.0000      -0.472956       -12.8698
  53   2.0000      -0.467979       -12.7344
  54   2.0000      -0.462357       -12.5814
  55   2.0000      -0.446508       -12.1501
  56   2.0000      -0.441520       -12.0144
  57   2.0000      -0.434290       -11.8176
  58   2.0000      -0.427415       -11.6306
  59   2.0000      -0.425047       -11.5661
  60   2.0000      -0.423741       -11.5306
  61   2.0000      -0.412876       -11.2349
  62   2.0000      -0.409742       -11.1496
  63   2.0000      -0.349281        -9.5044
  64   2.0000      -0.331469        -9.0197
  65   2.0000      -0.330950        -9.0056
  66   2.0000      -0.286634        -7.7997
  67   0.0000       0.023933         0.6512
  68   0.0000       0.064112         1.7446
  69   0.0000       0.098609         2.6833
  70   0.0000       0.116345         3.1659
  71   0.0000       0.130954         3.5635

MULLIKEN ATOMIC CHARGES
-----------------------
   0 S :    0.105964
   1 C :   -0.118722
   2 C :   -0.106839
   3 C :    0.016601
   4 C :   -0.167132
   5 H :    0.000893
   6 C :    0.153748
   7 H :    0.021111
   8 H :   -0.001394
   9 C :   -0.044573
  10 H :    0.002175
  11 H :    0.013576
  12 C :   -0.064677
  13 H :    0.049259
  14 H :    0.024708
  15 H :    0.029677
  16 S :    0.100162
  17 C :   -0.098628
  18 C :   -0.039185
  19 C :   -0.047436
  20 C :   -0.123216
  21 H :    0.028364
  22 C :    0.087321
  23 H :    0.020047
  24 H :    0.006273
  25 C :   -0.073879
  26 H :    0.013820
  27 H :    0.037541
  28 C :    0.005001
  29 H :    0.025475
  30 H :    0.026203
  31 H :    0.021078
  32 H :    0.043022
  33 H :    0.053665
Sum of atomic charges:   -0.0000000

LOEWDIN ATOMIC CHARGES
----------------------
   0 S :    0.399364
   1 C :   -0.203940
   2 C :   -0.053304
   3 C :   -0.073017
   4 C :   -0.172939
   5 H :    0.023440
   6 C :   -0.014263
   7 H :    0.027195
   8 H :    0.022414
   9 C :   -0.037736
  10 H :    0.014950
  11 H :    0.020124
  12 C :   -0.070349
  13 H :    0.029884
  14 H :    0.030991
  15 H :    0.026551
  16 S :    0.395534
  17 C :   -0.172604
  18 C :   -0.066068
  19 C :   -0.053093
  20 C :   -0.193523
  21 H :    0.034336
  22 C :   -0.037131
  23 H :    0.025766
  24 H :    0.027835
  25 C :   -0.041806
  26 H :    0.018828
  27 H :    0.025834
  28 C :   -0.053862
  29 H :    0.023969
  30 H :    0.030340
  31 H :    0.018296
  32 H :    0.024440
  33 H :    0.023544

  Mayer bond orders larger than 0.100000
B(  0-S ,  1-C ) :   1.1241 B(  0-S ,  4-C ) :   1.1472 B(  1-C ,  2-C ) :   1.6270
B(  1-C , 32-H ) :   0.9673 B(  2-C ,  3-C ) :   1.2205 B(  2-C ,  6-C ) :   1.0045
B(  3-C ,  4-C ) :   1.5941 B(  3-C ,  5-H ) :   0.9926 B(  4-C , 20-C ) :   1.0425
B(  6-C ,  7-H ) :   0.9313 B(  6-C ,  8-H ) :   0.9415 B(  6-C ,  9-C ) :   1.0755
B(  9-C , 10-H ) :   0.9549 B(  9-C , 11-H ) :   0.9718 B(  9-C , 12-C ) :   1.0523
B( 12-C , 13-H ) :   0.9799 B( 12-C , 14-H ) :   0.9812 B( 12-C , 15-H ) :   0.9798
B( 16-S , 17-C ) :   1.1567 B( 16-S , 20-C ) :   1.1270 B( 17-C , 18-C ) :   1.6205
B( 17-C , 33-H ) :   0.9694 B( 18-C , 19-C ) :   1.2208 B( 18-C , 21-H ) :   0.9882
B( 19-C , 20-C ) :   1.5839 B( 19-C , 22-C ) :   1.0523 B( 22-C , 23-H ) :   0.9184
B( 22-C , 24-H ) :   0.9285 B( 22-C , 25-C ) :   1.0654 B( 25-C , 26-H ) :   0.9547
B( 25-C , 27-H ) :   0.9428 B( 25-C , 28-C ) :   1.0962 B( 28-C , 29-H ) :   0.9733
B( 28-C , 30-H ) :   0.9697 B( 28-C , 31-H ) :   0.9731

Dispersion correction           -0.014888256
FINAL SINGLE POINT ENERGY     -1339.864804120023

DIPOLE MOMENT
-------------
                                X             Y             Z
Electronic contribution:      1.85971      14.15219       9.38634
Nuclear contribution   :     -1.86916     -14.24531      -9.88471
                        -----------------------------------------
Total Dipole Moment    :     -0.00945      -0.09313      -0.49836
                        -----------------------------------------
Magnitude (a.u.)       :      0.50708
Magnitude (Debye)      :      1.28889

Rotational constants in cm-1:     0.020191     0.008748     0.006893
Rotational constants in MHz :   605.310479   262.268498   206.653092

                             ****ORCA TERMINATED NORMALLY****
TOTAL RUN TIME: 0 days 0 hours 0 minutes 29 seconds 306 msec
