                         Program Version 4.2.1 -  RELEASE  -
|  1> ! wB97X-D3 SP def2-SVP
|  2> %pal
|  3> nprocs 16
|  4> end
|  5>
|  6> * xyz 0 1
|  7> S 	 -3.88172 	 -4.00355 	 78.8511
|  8> C 	 -3.73109 	 -5.04731 	 80.2179
|  9> C 	 -4.89517 	 -5.78981 	 80.4656
| 10> C 	 -5.91359 	 -5.48718 	 79.4978
| 11> C 	 -5.49098 	 -4.53896 	 78.519
| 12> H 	 -6.88842 	 -5.87852 	 79.5544
| 13> C 	 -5.03363 	 -6.8963 	 81.476
| 14> H 	 -4.23966 	 -7.5552 	 81.3266
| 15> H 	 -5.8867 	 -7.46614 	 81.3962
| 16> C 	 -5.06161 	 -6.38464 	 82.9119
| 17> H 	 -4.09602 	 -5.84248 	 83.0661
| 18> H 	 -5.78026 	 -5.65461 	 83.1468
| 19> C 	 -5.1652 	 -7.53437 	 83.926
| 20> H 	 -6.01142 	 -8.22162 	 83.7474
| 21> H 	 -4.30964 	 -8.13019 	 83.9188
| 22> H 	 -5.39032 	 -7.26491 	 84.8856
| 23> S 	 -5.77508 	 -2.25853 	 77.0367
| 24> C 	 -6.88366 	 -2.26554 	 75.6702
| 25> C 	 -7.80113 	 -3.2524 	 75.8084
| 26> C 	 -7.50897 	 -4.24233 	 76.8241
| 27> C 	 -6.32856 	 -3.86673 	 77.5507
| 28> H 	 -8.57247 	 -3.2537 	 75.0779
| 29> C 	 -8.4073 	 -5.48961 	 76.9809
| 30> H 	 -7.72311 	 -6.21861 	 77.1715
| 31> H 	 -8.76796 	 -5.63154 	 75.9676
| 32> C 	 -9.43169 	 -5.48378 	 78.0804
| 33> H 	 -10.1922 	 -4.74015 	 77.8359
| 34> H 	 -8.93649 	 -5.10683 	 79.0207
| 35> C 	 -10.0856 	 -6.8718 	 78.3923
| 36> H 	 -9.56806 	 -7.6132 	 79.0464
| 37> H 	 -10.3354 	 -7.32818 	 77.4562
| 38> H 	 -11.0434 	 -6.74347 	 78.974
| 39> H 	 -2.80229 	 -5.19365 	 80.6988
| 40> H 	 -7.1073 	 -1.39575 	 75.1509
| 41> *
| 42>
| 43>                          ****END OF INPUT****

CARTESIAN COORDINATES (ANGSTROEM)
---------------------------------
  S     -3.881720   -4.003550   78.851100
  C     -3.731090   -5.047310   80.217900
  C     -4.895170   -5.789810   80.465600
  C     -5.913590   -5.487180   79.497800
  C     -5.490980   -4.538960   78.519000
  H     -6.888420   -5.878520   79.554400
  C     -5.033630   -6.896300   81.476000
  H     -4.239660   -7.555200   81.326600
  H     -5.886700   -7.466140   81.396200
  C     -5.061610   -6.384640   82.911900
  H     -4.096020   -5.842480   83.066100
  H     -5.780260   -5.654610   83.146800
  C     -5.165200   -7.534370   83.926000
  H     -6.011420   -8.221620   83.747400
  H     -4.309640   -8.130190   83.918800
  H     -5.390320   -7.264910   84.885600
  S     -5.775080   -2.258530   77.036700
  C     -6.883660   -2.265540   75.670200
  C     -7.801130   -3.252400   75.808400
  C     -7.508970   -4.242330   76.824100
  C     -6.328560   -3.866730   77.550700
  H     -8.572470   -3.253700   75.077900
  C     -8.407300   -5.489610   76.980900
  H     -7.723110   -6.218610   77.171500
  H     -8.767960   -5.631540   75.967600
  C     -9.431690   -5.483780   78.080400
  H    -10.192200   -4.740150   77.835900
  H     -8.936490   -5.106830   79.020700
  C    -10.085600   -6.871800   78.392300
  H     -9.568060   -7.613200   79.046400
  H    -10.335400   -7.328180   77.456200
  H    -11.043400   -6.743470   78.974000
  H     -2.802290   -5.193650   80.698800
  H     -7.107300   -1.395750   75.150900

 Total Charge           Charge          ....    0
 Multiplicity           Mult            ....    1
 Number of Electrons    NEL             ....  134
 Basis Dimension        Dim             ....  322

ORBITAL ENERGIES
----------------

  NO   OCC          E(Eh)            E(eV)
   0   2.0000     -88.971096     -2421.0266
   1   2.0000     -88.962152     -2420.7832
   2   2.0000     -10.335338      -281.2388
   3   2.0000     -10.332826      -281.1705
   4   2.0000     -10.312369      -280.6138
   5   2.0000     -10.310677      -280.5678
   6   2.0000     -10.306283      -280.4482
   7   2.0000     -10.304410      -280.3973
   8   2.0000     -10.295954      -280.1671
   9   2.0000     -10.294812      -280.1361
  10   2.0000     -10.290893      -280.0294
  11   2.0000     -10.287885      -279.9476
  12   2.0000     -10.286032      -279.8972
  13   2.0000     -10.283940      -279.8402
  14   2.0000     -10.281583      -279.7761
  15   2.0000     -10.267455      -279.3917
  16   2.0000      -8.086122      -220.0346
  17   2.0000      -8.076605      -219.7756
  18   2.0000      -6.044531      -164.4801
  19   2.0000      -6.040429      -164.3684
  20   2.0000      -6.037133      -164.2787
  21   2.0000      -6.035182      -164.2257
  22   2.0000      -6.031237      -164.1183
  23   2.0000      -6.027234      -164.0094
  24   2.0000      -1.005428       -27.3591
  25   2.0000      -0.980382       -26.6776
  26   2.0000      -0.919265       -25.0145
  27   2.0000      -0.910509       -24.7762
  28   2.0000      -0.871891       -23.7254
  29   2.0000      -0.853376       -23.2216
  30   2.0000      -0.843865       -22.9627
  31   2.0000      -0.815842       -22.2002
  32   2.0000      -0.788097       -21.4452
  33   2.0000      -0.775462       -21.1014
  34   2.0000      -0.712140       -19.3783
  35   2.0000      -0.710035       -19.3210
  36   2.0000      -0.697374       -18.9765
  37   2.0000      -0.666746       -18.1431
  38   2.0000      -0.641491       -17.4559
  39   2.0000      -0.623902       -16.9772
  40   2.0000      -0.593956       -16.1624
  41   2.0000      -0.577423       -15.7125
  42   2.0000      -0.570263       -15.5176
  43   2.0000      -0.561056       -15.2671
  44   2.0000      -0.532691       -14.4953
  45   2.0000      -0.524856       -14.2821
  46   2.0000      -0.516098       -14.0437
  47   2.0000      -0.514230       -13.9929
  48   2.0000      -0.504746       -13.7348
  49   2.0000      -0.501278       -13.6405
  50   2.0000      -0.499468       -13.5912
  51   2.0000      -0.486553       -13.2398
  52   2.0000      -0.471240       -12.8231
  53   2.0000      -0.466350       -12.6900
  54   2.0000      -0.460703       -12.5364
  55   2.0000      -0.451380       -12.2827
  56   2.0000      -0.445888       -12.1332
  57   2.0000      -0.441641       -12.0177
  58   2.0000      -0.438658       -11.9365
  59   2.0000      -0.428628       -11.6636
  60   2.0000      -0.425841       -11.5877
  61   2.0000      -0.413777       -11.2594
  62   2.0000      -0.409507       -11.1433
  63   2.0000      -0.361202        -9.8288
  64   2.0000      -0.332796        -9.0558
  65   2.0000      -0.328527        -8.9397
  66   2.0000      -0.278164        -7.5692
  67   0.0000       0.013778         0.3749
  68   0.0000       0.081311         2.2126
  69   0.0000       0.099739         2.7140
  70   0.0000       0.117088         3.1861
  71   0.0000       0.133320         3.6278

MULLIKEN ATOMIC CHARGES
-----------------------
   0 S :    0.121969
   1 C :   -0.116156
   2 C :   -0.080778
   3 C :    0.021546
   4 C :   -0.109690
   5 H :   -0.022055
   6 C :    0.140882
   7 H :    0.017686
   8 H :   -0.011156
   9 C :   -0.092574
  10 H :    0.024399
  11 H :    0.022010
  12 C :    0.009648
  13 H :    0.013575
  14 H :    0.015943
  15 H :    0.007249
  16 S :    0.073091
  17 C :   -0.060333
  18 C :   -0.036675
  19 C :   -0.089379
  20 C :   -0.136623
  21 H :    0.008849
  22 C :    0.140427
  23 H :   -0.003418
  24 H :    0.019073
  25 C :   -0.066579
  26 H :    0.029015
  27 H :    0.039306
  28 C :   -0.069689
  29 H :    0.042118
  30 H :    0.031008
  31 H :    0.038698
  32 H :    0.037790
  33 H :    0.040825
Sum of atomic charges:    0.0000000

LOEWDIN ATOMIC CHARGES
----------------------
   0 S :    0.437482
   1 C :   -0.202754
   2 C :   -0.050343
   3 C :   -0.057544
   4 C :   -0.202473
   5 H :    0.019044
   6 C :   -0.019425
   7 H :    0.028372
   8 H :    0.018201
   9 C :   -0.030903
  10 H :    0.025613
  11 H :    0.018513
  12 C :   -0.058014
  13 H :    0.027433
  14 H :    0.017820
  15 H :    0.014643
  16 S :    0.379022
  17 C :   -0.179530
  18 C :   -0.063817
  19 C :   -0.051248
  20 C :   -0.179503
  21 H :    0.026596
  22 C :   -0.027319
  23 H :    0.017923
  24 H :    0.031810
  25 C :   -0.041568
  26 H :    0.026914
  27 H :    0.029980
  28 C :   -0.074403
  29 H :    0.029002
  30 H :    0.020982
  31 H :    0.034428
  32 H :    0.018400
  33 H :    0.016666

  Mayer bond orders larger than 0.100000
B(  0-S ,  1-C ) :   1.1576 B(  0-S ,  4-C ) :   1.1693 B(  1-C ,  2-C ) :   1.5540
B(  1-C , 32-H ) :   0.9741 B(  2-C ,  3-C ) :   1.3045 B(  2-C ,  6-C ) :   1.0226
B(  3-C ,  4-C ) :   1.4815 B(  3-C ,  5-H ) :   0.9979 B(  4-C , 20-C ) :   1.1054
B(  6-C ,  7-H ) :   0.9369 B(  6-C ,  8-H ) :   0.9403 B(  6-C ,  9-C ) :   1.0511
B(  9-C , 10-H ) :   0.9575 B(  9-C , 11-H ) :   0.9616 B(  9-C , 12-C ) :   1.0850
B( 12-C , 13-H ) :   0.9688 B( 12-C , 14-H ) :   0.9745 B( 12-C , 15-H ) :   0.9718
B( 16-S , 17-C ) :   1.1283 B( 16-S , 20-C ) :   1.1441 B( 17-C , 18-C ) :   1.6461
B( 17-C , 33-H ) :   0.9640 B( 18-C , 19-C ) :   1.2414 B( 18-C , 21-H ) :   0.9883
B( 19-C , 20-C ) :   1.5508 B( 19-C , 22-C ) :   1.0307 B( 22-C , 23-H ) :   0.9189
B( 22-C , 24-H ) :   0.9273 B( 22-C , 25-C ) :   1.0699 B( 25-C , 26-H ) :   0.9518
B( 25-C , 27-H ) :   0.9530 B( 25-C , 28-C ) :   1.0677 B( 28-C , 29-H ) :   0.9770
B( 28-C , 30-H ) :   0.9761 B( 28-C , 31-H ) :   0.9748

Dispersion correction           -0.013677008
FINAL SINGLE POINT ENERGY     -1339.856621193673

DIPOLE MOMENT
-------------
                                X             Y             Z
Electronic contribution:     15.49786      21.86098     -17.48919
Nuclear contribution   :    -15.97523     -22.36465      17.79386
                        -----------------------------------------
Total Dipole Moment    :     -0.47737      -0.50368       0.30467
                        -----------------------------------------
Magnitude (a.u.)       :      0.75789
Magnitude (Debye)      :      1.92641

Rotational constants in cm-1:     0.018030     0.008601     0.006064
Rotational constants in MHz :   540.526029   257.846552   181.808454

                             ****ORCA TERMINATED NORMALLY****
TOTAL RUN TIME: 0 days 0 hours 0 minutes 33 seconds 80 msec
