                         Program Version 4.2.1 -  RELEASE  -
|  1> ! wB97X-D3 SP def2-SVP
|  2> %pal
|  3> nprocs 16
|  4> end
|  5>
|  6> * xyz 0 1
|  7> S 	 0.342444 	 17.7416 	 54.4354
|  8> C 	 -0.150877 	 16.5313 	 53.2049
|  9> C 	 -0.764135 	 17.1249 	 52.1227
| 10> C 	 -1.06805 	 18.4586 	 52.3638
| 11> C 	 -0.335062 	 19.067 	 53.373
| 12> H 	 -1.49646 	 19.1121 	 51.6736
| 13> C 	 -1.34779 	 16.4013 	 50.9762
| 14> H 	 -1.67328 	 17.1827 	 50.2755
| 15> H 	 -2.22499 	 15.887 	 51.3739
| 16> C 	 -0.431501 	 15.332 	 50.3425
| 17> H 	 0.393491 	 15.9164 	 49.819
| 18> H 	 -0.127893 	 14.703 	 51.1951
| 19> C 	 -1.28014 	 14.5092 	 49.4048
| 20> H 	 -0.724642 	 13.7723 	 48.8568
| 21> H 	 -2.1045 	 13.9915 	 49.9659
| 22> H 	 -1.7279 	 15.2173 	 48.702
| 23> S 	 -0.595016 	 21.2631 	 55.0736
| 24> C 	 -0.101958 	 22.846 	 54.5427
| 25> C 	 0.321692 	 22.7923 	 53.233
| 26> C 	 0.286239 	 21.4617 	 52.7151
| 27> C 	 -0.134144 	 20.5108 	 53.6078
| 28> H 	 0.563428 	 23.7362 	 52.7977
| 29> C 	 0.715063 	 21.157 	 51.294
| 30> H 	 -0.179882 	 21.1134 	 50.6789
| 31> H 	 1.1759 	 20.1957 	 51.165
| 32> C 	 1.60067 	 22.1699 	 50.561
| 33> H 	 1.19256 	 23.2234 	 50.6488
| 34> H 	 1.77968 	 21.9277 	 49.4508
| 35> C 	 2.97816 	 22.1577 	 51.2929
| 36> H 	 3.59056 	 22.7666 	 50.5869
| 37> H 	 3.28315 	 21.1508 	 51.2384
| 38> H 	 3.05514 	 22.6232 	 52.2427
| 39> H 	 0.201146 	 15.5536 	 53.2416
| 40> H 	 -0.0958532 	 23.7247 	 55.1995
| 41> *
| 42>
| 43>                          ****END OF INPUT****

CARTESIAN COORDINATES (ANGSTROEM)
---------------------------------
  S      0.342444   17.741600   54.435400
  C     -0.150877   16.531300   53.204900
  C     -0.764135   17.124900   52.122700
  C     -1.068050   18.458600   52.363800
  C     -0.335062   19.067000   53.373000
  H     -1.496460   19.112100   51.673600
  C     -1.347790   16.401300   50.976200
  H     -1.673280   17.182700   50.275500
  H     -2.224990   15.887000   51.373900
  C     -0.431501   15.332000   50.342500
  H      0.393491   15.916400   49.819000
  H     -0.127893   14.703000   51.195100
  C     -1.280140   14.509200   49.404800
  H     -0.724642   13.772300   48.856800
  H     -2.104500   13.991500   49.965900
  H     -1.727900   15.217300   48.702000
  S     -0.595016   21.263100   55.073600
  C     -0.101958   22.846000   54.542700
  C      0.321692   22.792300   53.233000
  C      0.286239   21.461700   52.715100
  C     -0.134144   20.510800   53.607800
  H      0.563428   23.736200   52.797700
  C      0.715063   21.157000   51.294000
  H     -0.179882   21.113400   50.678900
  H      1.175900   20.195700   51.165000
  C      1.600670   22.169900   50.561000
  H      1.192560   23.223400   50.648800
  H      1.779680   21.927700   49.450800
  C      2.978160   22.157700   51.292900
  H      3.590560   22.766600   50.586900
  H      3.283150   21.150800   51.238400
  H      3.055140   22.623200   52.242700
  H      0.201146   15.553600   53.241600
  H     -0.095853   23.724700   55.199500

 Total Charge           Charge          ....    0
 Multiplicity           Mult            ....    1
 Number of Electrons    NEL             ....  134
 Basis Dimension        Dim             ....  322

ORBITAL ENERGIES
----------------

  NO   OCC          E(Eh)            E(eV)
   0   2.0000     -88.964083     -2420.8358
   1   2.0000     -88.963294     -2420.8143
   2   2.0000     -10.336913      -281.2817
   3   2.0000     -10.324220      -280.9363
   4   2.0000     -10.319729      -280.8141
   5   2.0000     -10.310871      -280.5731
   6   2.0000     -10.305352      -280.4229
   7   2.0000     -10.296495      -280.1819
   8   2.0000     -10.295067      -280.1430
   9   2.0000     -10.294626      -280.1310
  10   2.0000     -10.294277      -280.1215
  11   2.0000     -10.289155      -279.9821
  12   2.0000     -10.287262      -279.9306
  13   2.0000     -10.285842      -279.8920
  14   2.0000     -10.281162      -279.7646
  15   2.0000     -10.268808      -279.4285
  16   2.0000      -8.079121      -219.8441
  17   2.0000      -8.077081      -219.7886
  18   2.0000      -6.037587      -164.2911
  19   2.0000      -6.035705      -164.2399
  20   2.0000      -6.033300      -164.1744
  21   2.0000      -6.031914      -164.1367
  22   2.0000      -6.030037      -164.0857
  23   2.0000      -6.027747      -164.0233
  24   2.0000      -1.009348       -27.4657
  25   2.0000      -0.985047       -26.8045
  26   2.0000      -0.917350       -24.9624
  27   2.0000      -0.910105       -24.7652
  28   2.0000      -0.871279       -23.7087
  29   2.0000      -0.852385       -23.1946
  30   2.0000      -0.844259       -22.9735
  31   2.0000      -0.818858       -22.2823
  32   2.0000      -0.781220       -21.2581
  33   2.0000      -0.769077       -20.9277
  34   2.0000      -0.711375       -19.3575
  35   2.0000      -0.696446       -18.9513
  36   2.0000      -0.690803       -18.7977
  37   2.0000      -0.655764       -17.8442
  38   2.0000      -0.644966       -17.5504
  39   2.0000      -0.619709       -16.8631
  40   2.0000      -0.603199       -16.4139
  41   2.0000      -0.581525       -15.8241
  42   2.0000      -0.570713       -15.5299
  43   2.0000      -0.553138       -15.0516
  44   2.0000      -0.538930       -14.6650
  45   2.0000      -0.524739       -14.2789
  46   2.0000      -0.521238       -14.1836
  47   2.0000      -0.517596       -14.0845
  48   2.0000      -0.507824       -13.8186
  49   2.0000      -0.501609       -13.6495
  50   2.0000      -0.486711       -13.2441
  51   2.0000      -0.486123       -13.2281
  52   2.0000      -0.471873       -12.8403
  53   2.0000      -0.464535       -12.6406
  54   2.0000      -0.458441       -12.4748
  55   2.0000      -0.446910       -12.1610
  56   2.0000      -0.442968       -12.0538
  57   2.0000      -0.434848       -11.8328
  58   2.0000      -0.427363       -11.6291
  59   2.0000      -0.424577       -11.5533
  60   2.0000      -0.422136       -11.4869
  61   2.0000      -0.418292       -11.3823
  62   2.0000      -0.405607       -11.0371
  63   2.0000      -0.343996        -9.3606
  64   2.0000      -0.331560        -9.0222
  65   2.0000      -0.327507        -8.9119
  66   2.0000      -0.294889        -8.0243
  67   0.0000       0.025670         0.6985
  68   0.0000       0.065253         1.7756
  69   0.0000       0.110656         3.0111
  70   0.0000       0.123067         3.3488
  71   0.0000       0.131946         3.5904

MULLIKEN ATOMIC CHARGES
-----------------------
   0 S :    0.087367
   1 C :   -0.102780
   2 C :   -0.085316
   3 C :    0.081503
   4 C :   -0.169237
   5 H :   -0.009470
   6 C :    0.026391
   7 H :    0.021559
   8 H :    0.043109
   9 C :   -0.100606
  10 H :    0.051540
  11 H :    0.034444
  12 C :   -0.023958
  13 H :    0.032747
  14 H :    0.035118
  15 H :    0.025648
  16 S :    0.110414
  17 C :   -0.108807
  18 C :   -0.036523
  19 C :   -0.029775
  20 C :   -0.147177
  21 H :    0.012854
  22 C :    0.085801
  23 H :    0.030378
  24 H :    0.030390
  25 C :   -0.142622
  26 H :    0.035251
  27 H :    0.049379
  28 C :   -0.027893
  29 H :    0.023889
  30 H :    0.022137
  31 H :    0.043529
  32 H :    0.033853
  33 H :    0.066861
Sum of atomic charges:   -0.0000000

LOEWDIN ATOMIC CHARGES
----------------------
   0 S :    0.352720
   1 C :   -0.171446
   2 C :   -0.067125
   3 C :   -0.052339
   4 C :   -0.156668
   5 H :    0.020789
   6 C :   -0.034382
   7 H :    0.027973
   8 H :    0.037188
   9 C :   -0.041400
  10 H :    0.035810
  11 H :    0.025005
  12 C :   -0.064924
  13 H :    0.020909
  14 H :    0.031163
  15 H :    0.025722
  16 S :    0.425958
  17 C :   -0.183562
  18 C :   -0.073553
  19 C :   -0.051741
  20 C :   -0.219334
  21 H :    0.030490
  22 C :   -0.039396
  23 H :    0.030020
  24 H :    0.028899
  25 C :   -0.047034
  26 H :    0.022537
  27 H :    0.036118
  28 C :   -0.060344
  29 H :    0.027365
  30 H :    0.018147
  31 H :    0.020764
  32 H :    0.010982
  33 H :    0.034689

  Mayer bond orders larger than 0.100000
B(  0-S ,  1-C ) :   1.1264 B(  0-S ,  4-C ) :   1.1315 B(  1-C ,  2-C ) :   1.6055
B(  1-C ,  4-C ) :   0.1086 B(  1-C , 32-H ) :   0.9712 B(  2-C ,  3-C ) :   1.2505
B(  2-C ,  6-C ) :   1.0232 B(  3-C ,  4-C ) :   1.5882 B(  3-C ,  5-H ) :   0.9827
B(  4-C , 20-C ) :   1.0384 B(  6-C ,  7-H ) :   0.9389 B(  6-C ,  8-H ) :   0.9383
B(  6-C ,  9-C ) :   1.0573 B(  9-C , 10-H ) :   0.9560 B(  9-C , 11-H ) :   0.9525
B(  9-C , 12-C ) :   1.0875 B( 12-C , 13-H ) :   0.9731 B( 12-C , 14-H ) :   0.9727
B( 12-C , 15-H ) :   0.9706 B( 16-S , 17-C ) :   1.1749 B( 16-S , 20-C ) :   1.1489
B( 17-C , 18-C ) :   1.5919 B( 17-C , 33-H ) :   0.9641 B( 18-C , 19-C ) :   1.2361
B( 18-C , 21-H ) :   0.9994 B( 19-C , 20-C ) :   1.5988 B( 19-C , 22-C ) :   1.0306
B( 22-C , 23-H ) :   0.9184 B( 22-C , 24-H ) :   0.9373 B( 22-C , 25-C ) :   1.0849
B( 25-C , 26-H ) :   0.9459 B( 25-C , 27-H ) :   0.9555 B( 25-C , 28-C ) :   1.0691
B( 28-C , 29-H ) :   0.9767 B( 28-C , 30-H ) :   0.9766 B( 28-C , 31-H ) :   0.9766

Dispersion correction           -0.014031718
FINAL SINGLE POINT ENERGY     -1339.862917699081

DIPOLE MOMENT
-------------
                                X             Y             Z
Electronic contribution:     -4.58702       6.10085      26.78558
Nuclear contribution   :      4.56631      -6.01826     -27.56385
                        -----------------------------------------
Total Dipole Moment    :     -0.02071       0.08259      -0.77827
                        -----------------------------------------
Magnitude (a.u.)       :      0.78292
Magnitude (Debye)      :      1.99002

Rotational constants in cm-1:     0.020562     0.007809     0.006311
Rotational constants in MHz :   616.427724   234.094758   189.206134

                             ****ORCA TERMINATED NORMALLY****
TOTAL RUN TIME: 0 days 0 hours 0 minutes 34 seconds 891 msec
