                         Program Version 4.2.1 -  RELEASE  -
|  1> ! wB97X-D3 SP def2-SVP
|  2> %pal
|  3> nprocs 16
|  4> end
|  5>
|  6> * xyz 0 1
|  7> S 	 53.5149 	 13.2552 	 62.6776
|  8> C 	 55.0997 	 13.8879 	 63.228
|  9> C 	 56.0472 	 13.8761 	 62.2164
| 10> C 	 55.4386 	 13.6133 	 60.9269
| 11> C 	 54.1056 	 13.2726 	 60.9827
| 12> H 	 55.9857 	 13.4991 	 60.0152
| 13> C 	 57.4815 	 14.2186 	 62.3918
| 14> H 	 57.7361 	 14.3007 	 63.5451
| 15> H 	 57.6984 	 15.2638 	 62.0792
| 16> C 	 58.5566 	 13.2094 	 61.9946
| 17> H 	 59.464 	 13.6855 	 62.3437
| 18> H 	 58.6626 	 12.2775 	 62.5784
| 19> C 	 58.8029 	 12.7973 	 60.5874
| 20> H 	 58.0068 	 12.09 	 60.3303
| 21> H 	 58.6651 	 13.6941 	 60.0435
| 22> H 	 59.7892 	 12.3567 	 60.4659
| 23> S 	 51.8802 	 11.7639 	 60.3625
| 24> C 	 51.675 	 11.2825 	 58.7204
| 25> C 	 52.5375 	 11.928 	 57.9048
| 26> C 	 53.4263 	 12.8434 	 58.57
| 27> C 	 53.3196 	 12.7472 	 59.918
| 28> H 	 52.4379 	 11.802 	 56.8222
| 29> C 	 54.4947 	 13.5832 	 57.7152
| 30> H 	 54.869 	 14.5021 	 58.2962
| 31> H 	 54.0089 	 14.0609 	 56.8038
| 32> C 	 55.6475 	 12.6852 	 57.2435
| 33> H 	 55.9028 	 11.9571 	 58.0358
| 34> H 	 56.5074 	 13.364 	 57.0251
| 35> C 	 55.2366 	 11.8466 	 56.06
| 36> H 	 54.8022 	 10.9199 	 56.4797
| 37> H 	 56.1209 	 11.4502 	 55.5976
| 38> H 	 54.5828 	 12.2029 	 55.2397
| 39> H 	 55.2497 	 14.1232 	 64.2265
| 40> H 	 50.9899 	 10.5042 	 58.4261
| 41> *
| 42>
| 43>                          ****END OF INPUT****

CARTESIAN COORDINATES (ANGSTROEM)
---------------------------------
  S     53.514900   13.255200   62.677600
  C     55.099700   13.887900   63.228000
  C     56.047200   13.876100   62.216400
  C     55.438600   13.613300   60.926900
  C     54.105600   13.272600   60.982700
  H     55.985700   13.499100   60.015200
  C     57.481500   14.218600   62.391800
  H     57.736100   14.300700   63.545100
  H     57.698400   15.263800   62.079200
  C     58.556600   13.209400   61.994600
  H     59.464000   13.685500   62.343700
  H     58.662600   12.277500   62.578400
  C     58.802900   12.797300   60.587400
  H     58.006800   12.090000   60.330300
  H     58.665100   13.694100   60.043500
  H     59.789200   12.356700   60.465900
  S     51.880200   11.763900   60.362500
  C     51.675000   11.282500   58.720400
  C     52.537500   11.928000   57.904800
  C     53.426300   12.843400   58.570000
  C     53.319600   12.747200   59.918000
  H     52.437900   11.802000   56.822200
  C     54.494700   13.583200   57.715200
  H     54.869000   14.502100   58.296200
  H     54.008900   14.060900   56.803800
  C     55.647500   12.685200   57.243500
  H     55.902800   11.957100   58.035800
  H     56.507400   13.364000   57.025100
  C     55.236600   11.846600   56.060000
  H     54.802200   10.919900   56.479700
  H     56.120900   11.450200   55.597600
  H     54.582800   12.202900   55.239700
  H     55.249700   14.123200   64.226500
  H     50.989900   10.504200   58.426100

 Total Charge           Charge          ....    0
 Multiplicity           Mult            ....    1
 Number of Electrons    NEL             ....  134
 Basis Dimension        Dim             ....  322

ORBITAL ENERGIES
----------------

  NO   OCC          E(Eh)            E(eV)
   0   2.0000     -88.964649     -2420.8512
   1   2.0000     -88.960926     -2420.7499
   2   2.0000     -10.331656      -281.1387
   3   2.0000     -10.326540      -280.9994
   4   2.0000     -10.314461      -280.6707
   5   2.0000     -10.312686      -280.6225
   6   2.0000     -10.305413      -280.4246
   7   2.0000     -10.304940      -280.4117
   8   2.0000     -10.304573      -280.4017
   9   2.0000     -10.303490      -280.3722
  10   2.0000     -10.294575      -280.1296
  11   2.0000     -10.293568      -280.1022
  12   2.0000     -10.290486      -280.0184
  13   2.0000     -10.282669      -279.8056
  14   2.0000     -10.278066      -279.6804
  15   2.0000     -10.272008      -279.5156
  16   2.0000      -8.078280      -219.8212
  17   2.0000      -8.076113      -219.7622
  18   2.0000      -6.037012      -164.2755
  19   2.0000      -6.034700      -164.2125
  20   2.0000      -6.033167      -164.1708
  21   2.0000      -6.030780      -164.1059
  22   2.0000      -6.028659      -164.0481
  23   2.0000      -6.026546      -163.9906
  24   2.0000      -1.006648       -27.3923
  25   2.0000      -0.979429       -26.6516
  26   2.0000      -0.916202       -24.9311
  27   2.0000      -0.911096       -24.7922
  28   2.0000      -0.877176       -23.8692
  29   2.0000      -0.854065       -23.2403
  30   2.0000      -0.841119       -22.8880
  31   2.0000      -0.818009       -22.2591
  32   2.0000      -0.786456       -21.4005
  33   2.0000      -0.776031       -21.1169
  34   2.0000      -0.709187       -19.2979
  35   2.0000      -0.698695       -19.0125
  36   2.0000      -0.690250       -18.7827
  37   2.0000      -0.663641       -18.0586
  38   2.0000      -0.640892       -17.4395
  39   2.0000      -0.618682       -16.8352
  40   2.0000      -0.600429       -16.3385
  41   2.0000      -0.570468       -15.5232
  42   2.0000      -0.553742       -15.0681
  43   2.0000      -0.547766       -14.9055
  44   2.0000      -0.545655       -14.8480
  45   2.0000      -0.538712       -14.6591
  46   2.0000      -0.521691       -14.1959
  47   2.0000      -0.513996       -13.9865
  48   2.0000      -0.504528       -13.7289
  49   2.0000      -0.503357       -13.6970
  50   2.0000      -0.498876       -13.5751
  51   2.0000      -0.489035       -13.3073
  52   2.0000      -0.476041       -12.9537
  53   2.0000      -0.461902       -12.5690
  54   2.0000      -0.456554       -12.4235
  55   2.0000      -0.444277       -12.0894
  56   2.0000      -0.441390       -12.0108
  57   2.0000      -0.436486       -11.8774
  58   2.0000      -0.429092       -11.6762
  59   2.0000      -0.417648       -11.3648
  60   2.0000      -0.416366       -11.3299
  61   2.0000      -0.410093       -11.1592
  62   2.0000      -0.402066       -10.9408
  63   2.0000      -0.365535        -9.9467
  64   2.0000      -0.334919        -9.1136
  65   2.0000      -0.326298        -8.8790
  66   2.0000      -0.281187        -7.6515
  67   0.0000       0.018989         0.5167
  68   0.0000       0.074896         2.0380
  69   0.0000       0.097097         2.6422
  70   0.0000       0.115733         3.1493
  71   0.0000       0.131095         3.5673

MULLIKEN ATOMIC CHARGES
-----------------------
   0 S :    0.078730
   1 C :   -0.091986
   2 C :   -0.028592
   3 C :   -0.015895
   4 C :   -0.080826
   5 H :   -0.007313
   6 C :    0.001512
   7 H :    0.035195
   8 H :    0.052968
   9 C :   -0.102353
  10 H :    0.012432
  11 H :    0.025287
  12 C :   -0.017036
  13 H :    0.040982
  14 H :    0.017018
  15 H :    0.040164
  16 S :    0.083043
  17 C :   -0.073111
  18 C :   -0.036945
  19 C :   -0.057177
  20 C :   -0.120364
  21 H :    0.024099
  22 C :   -0.014688
  23 H :    0.044769
  24 H :    0.040415
  25 C :   -0.070059
  26 H :    0.049844
  27 H :    0.043869
  28 C :   -0.051684
  29 H :    0.033322
  30 H :    0.021399
  31 H :    0.043002
  32 H :    0.023676
  33 H :    0.056304
Sum of atomic charges:   -0.0000000

LOEWDIN ATOMIC CHARGES
----------------------
   0 S :    0.357493
   1 C :   -0.162222
   2 C :   -0.061175
   3 C :   -0.064272
   4 C :   -0.164038
   5 H :    0.026251
   6 C :   -0.043480
   7 H :    0.048879
   8 H :    0.038730
   9 C :   -0.054636
  10 H :    0.023858
  11 H :    0.027516
  12 C :   -0.063381
  13 H :    0.025604
  14 H :    0.016503
  15 H :    0.031447
  16 S :    0.378538
  17 C :   -0.182801
  18 C :   -0.075662
  19 C :   -0.059323
  20 C :   -0.173530
  21 H :    0.033891
  22 C :   -0.041984
  23 H :    0.034552
  24 H :    0.036516
  25 C :   -0.045227
  26 H :    0.033446
  27 H :    0.028864
  28 C :   -0.076137
  29 H :    0.031697
  30 H :    0.024971
  31 H :    0.026567
  32 H :    0.012158
  33 H :    0.030388

  Mayer bond orders larger than 0.100000
B(  0-S ,  1-C ) :   1.1144 B(  0-S ,  4-C ) :   1.1143 B(  1-C ,  2-C ) :   1.6318
B(  1-C , 32-H ) :   0.9786 B(  2-C ,  3-C ) :   1.2018 B(  2-C ,  6-C ) :   1.0270
B(  3-C ,  4-C ) :   1.5865 B(  3-C ,  5-H ) :   0.9922 B(  4-C , 20-C ) :   1.1177
B(  6-C ,  7-H ) :   0.9391 B(  6-C ,  8-H ) :   0.9398 B(  6-C ,  9-C ) :   1.0722
B(  9-C , 10-H ) :   0.9486 B(  9-C , 11-H ) :   0.9523 B(  9-C , 12-C ) :   1.0939
B( 12-C , 13-H ) :   0.9709 B( 12-C , 14-H ) :   0.9701 B( 12-C , 15-H ) :   0.9660
B( 16-S , 17-C ) :   1.1393 B( 16-S , 20-C ) :   1.1052 B( 17-C , 18-C ) :   1.6452
B( 17-C , 33-H ) :   0.9673 B( 18-C , 19-C ) :   1.2051 B( 18-C , 21-H ) :   0.9826
B( 19-C , 20-C ) :   1.6356 B( 19-C , 22-C ) :   1.0464 B( 22-C , 23-H ) :   0.9403
B( 22-C , 24-H ) :   0.9397 B( 22-C , 25-C ) :   1.0492 B( 25-C , 26-H ) :   0.9499
B( 25-C , 27-H ) :   0.9590 B( 25-C , 28-C ) :   1.0816 B( 28-C , 29-H ) :   0.9678
B( 28-C , 30-H ) :   0.9646 B( 28-C , 31-H ) :   0.9759

Dispersion correction           -0.015080994
FINAL SINGLE POINT ENERGY     -1339.864130966653

DIPOLE MOMENT
-------------
                                X             Y             Z
Electronic contribution:    -26.50744      -0.66943      15.08870
Nuclear contribution   :     27.24246       0.61634     -15.53191
                        -----------------------------------------
Total Dipole Moment    :      0.73502      -0.05309      -0.44321
                        -----------------------------------------
Magnitude (a.u.)       :      0.85995
Magnitude (Debye)      :      2.18581

Rotational constants in cm-1:     0.017151     0.010657     0.007042
Rotational constants in MHz :   514.180447   319.484307   211.120107

                             ****ORCA TERMINATED NORMALLY****
TOTAL RUN TIME: 0 days 0 hours 0 minutes 32 seconds 25 msec
