                         Program Version 4.2.1 -  RELEASE  -
|  1> ! wB97X-D3 SP def2-SVP
|  2> %pal
|  3> nprocs 16
|  4> end
|  5>
|  6> * xyz 0 1
|  7> S 	 -93.9053 	 60.2996 	 128.799
|  8> C 	 -92.5695 	 61.0444 	 129.724
|  9> C 	 -93.0388 	 61.5365 	 130.913
| 10> C 	 -94.4824 	 61.6477 	 130.952
| 11> C 	 -95.1183 	 60.9759 	 129.907
| 12> H 	 -95.0228 	 62.0579 	 131.81
| 13> C 	 -92.1895 	 62.0993 	 132.047
| 14> H 	 -92.8462 	 62.166 	 132.877
| 15> H 	 -91.9963 	 63.202 	 131.786
| 16> C 	 -91.0322 	 61.2672 	 132.436
| 17> H 	 -91.323 	 60.2553 	 132.714
| 18> H 	 -90.4225 	 61.0464 	 131.561
| 19> C 	 -90.1611 	 61.7753 	 133.576
| 20> H 	 -89.8406 	 62.7826 	 133.452
| 21> H 	 -90.8442 	 61.6516 	 134.432
| 22> H 	 -89.2959 	 61.0991 	 133.713
| 23> S 	 -97.0079 	 58.9 	 129.529
| 24> C 	 -98.6672 	 59.3731 	 129.36
| 25> C 	 -98.8432 	 60.745 	 129.423
| 26> C 	 -97.6881 	 61.4643 	 129.714
| 27> C 	 -96.5496 	 60.6122 	 129.749
| 28> H 	 -99.8627 	 61.066 	 129.355
| 29> C 	 -97.764 	 62.9185 	 129.696
| 30> H 	 -98.2158 	 63.2958 	 128.782
| 31> H 	 -96.7173 	 63.2213 	 129.713
| 32> C 	 -98.5425 	 63.5818 	 130.864
| 33> H 	 -98.3492 	 63.0664 	 131.785
| 34> H 	 -99.5971 	 63.3904 	 130.805
| 35> C 	 -98.4468 	 65.12 	 131.057
| 36> H 	 -97.9136 	 65.5621 	 130.236
| 37> H 	 -97.808 	 65.3358 	 131.968
| 38> H 	 -99.4006 	 65.6005 	 130.944
| 39> H 	 -91.5676 	 61.0578 	 129.395
| 40> H 	 -99.4922 	 58.6488 	 129.138
| 41> *
| 42>
| 43>                          ****END OF INPUT****

CARTESIAN COORDINATES (ANGSTROEM)
---------------------------------
  S    -93.905300   60.299600  128.799000
  C    -92.569500   61.044400  129.724000
  C    -93.038800   61.536500  130.913000
  C    -94.482400   61.647700  130.952000
  C    -95.118300   60.975900  129.907000
  H    -95.022800   62.057900  131.810000
  C    -92.189500   62.099300  132.047000
  H    -92.846200   62.166000  132.877000
  H    -91.996300   63.202000  131.786000
  C    -91.032200   61.267200  132.436000
  H    -91.323000   60.255300  132.714000
  H    -90.422500   61.046400  131.561000
  C    -90.161100   61.775300  133.576000
  H    -89.840600   62.782600  133.452000
  H    -90.844200   61.651600  134.432000
  H    -89.295900   61.099100  133.713000
  S    -97.007900   58.900000  129.529000
  C    -98.667200   59.373100  129.360000
  C    -98.843200   60.745000  129.423000
  C    -97.688100   61.464300  129.714000
  C    -96.549600   60.612200  129.749000
  H    -99.862700   61.066000  129.355000
  C    -97.764000   62.918500  129.696000
  H    -98.215800   63.295800  128.782000
  H    -96.717300   63.221300  129.713000
  C    -98.542500   63.581800  130.864000
  H    -98.349200   63.066400  131.785000
  H    -99.597100   63.390400  130.805000
  C    -98.446800   65.120000  131.057000
  H    -97.913600   65.562100  130.236000
  H    -97.808000   65.335800  131.968000
  H    -99.400600   65.600500  130.944000
  H    -91.567600   61.057800  129.395000
  H    -99.492200   58.648800  129.138000

 Total Charge           Charge          ....    0
 Multiplicity           Mult            ....    1
 Number of Electrons    NEL             ....  134
 Basis Dimension        Dim             ....  322

ORBITAL ENERGIES
----------------

  NO   OCC          E(Eh)            E(eV)
   0   2.0000     -88.970183     -2421.0018
   1   2.0000     -88.963875     -2420.8301
   2   2.0000     -10.336582      -281.2727
   3   2.0000     -10.334776      -281.2235
   4   2.0000     -10.318038      -280.7681
   5   2.0000     -10.312991      -280.6308
   6   2.0000     -10.302545      -280.3465
   7   2.0000     -10.300560      -280.2925
   8   2.0000     -10.299317      -280.2587
   9   2.0000     -10.293186      -280.0918
  10   2.0000     -10.286896      -279.9207
  11   2.0000     -10.286450      -279.9085
  12   2.0000     -10.282005      -279.7876
  13   2.0000     -10.281560      -279.7755
  14   2.0000     -10.279764      -279.7266
  15   2.0000     -10.279063      -279.7075
  16   2.0000      -8.084350      -219.9863
  17   2.0000      -8.077758      -219.8070
  18   2.0000      -6.042785      -164.4325
  19   2.0000      -6.038962      -164.3285
  20   2.0000      -6.036479      -164.2610
  21   2.0000      -6.035200      -164.2261
  22   2.0000      -6.032401      -164.1500
  23   2.0000      -6.028332      -164.0393
  24   2.0000      -1.000867       -27.2350
  25   2.0000      -0.980834       -26.6898
  26   2.0000      -0.917695       -24.9717
  27   2.0000      -0.910107       -24.7653
  28   2.0000      -0.865791       -23.5594
  29   2.0000      -0.855105       -23.2686
  30   2.0000      -0.844466       -22.9791
  31   2.0000      -0.812654       -22.1134
  32   2.0000      -0.784589       -21.3498
  33   2.0000      -0.771340       -20.9892
  34   2.0000      -0.710031       -19.3209
  35   2.0000      -0.705112       -19.1871
  36   2.0000      -0.691686       -18.8217
  37   2.0000      -0.656926       -17.8759
  38   2.0000      -0.640086       -17.4176
  39   2.0000      -0.615761       -16.7557
  40   2.0000      -0.595875       -16.2146
  41   2.0000      -0.575061       -15.6482
  42   2.0000      -0.567420       -15.4403
  43   2.0000      -0.557584       -15.1726
  44   2.0000      -0.530398       -14.4329
  45   2.0000      -0.523064       -14.2333
  46   2.0000      -0.521658       -14.1950
  47   2.0000      -0.510210       -13.8835
  48   2.0000      -0.507980       -13.8228
  49   2.0000      -0.502765       -13.6809
  50   2.0000      -0.492214       -13.3938
  51   2.0000      -0.477902       -13.0044
  52   2.0000      -0.470743       -12.8096
  53   2.0000      -0.462629       -12.5888
  54   2.0000      -0.455672       -12.3995
  55   2.0000      -0.447801       -12.1853
  56   2.0000      -0.444357       -12.0916
  57   2.0000      -0.440390       -11.9836
  58   2.0000      -0.431983       -11.7549
  59   2.0000      -0.429725       -11.6934
  60   2.0000      -0.418243       -11.3810
  61   2.0000      -0.410711       -11.1760
  62   2.0000      -0.409122       -11.1328
  63   2.0000      -0.344938        -9.3862
  64   2.0000      -0.334594        -9.1048
  65   2.0000      -0.327667        -8.9163
  66   2.0000      -0.288014        -7.8372
  67   0.0000       0.028344         0.7713
  68   0.0000       0.062669         1.7053
  69   0.0000       0.111051         3.0218
  70   0.0000       0.123666         3.3651
  71   0.0000       0.124617         3.3910

MULLIKEN ATOMIC CHARGES
-----------------------
   0 S :    0.090152
   1 C :   -0.115541
   2 C :   -0.109579
   3 C :    0.036227
   4 C :   -0.155731
   5 H :    0.020835
   6 C :    0.093308
   7 H :   -0.002517
   8 H :    0.053735
   9 C :   -0.097189
  10 H :    0.024374
  11 H :    0.013765
  12 C :   -0.025079
  13 H :    0.030453
  14 H :    0.030209
  15 H :    0.040343
  16 S :    0.120233
  17 C :   -0.122689
  18 C :   -0.032236
  19 C :   -0.006588
  20 C :   -0.158324
  21 H :    0.013602
  22 C :    0.095425
  23 H :    0.034089
  24 H :    0.018137
  25 C :   -0.101865
  26 H :    0.017827
  27 H :    0.014061
  28 C :   -0.035556
  29 H :    0.014438
  30 H :    0.052863
  31 H :    0.034942
  32 H :    0.040713
  33 H :    0.073163
Sum of atomic charges:   -0.0000000

LOEWDIN ATOMIC CHARGES
----------------------
   0 S :    0.375856
   1 C :   -0.178197
   2 C :   -0.058328
   3 C :   -0.065667
   4 C :   -0.181265
   5 H :    0.033741
   6 C :   -0.035674
   7 H :    0.021206
   8 H :    0.044574
   9 C :   -0.049915
  10 H :    0.028921
  11 H :    0.016592
  12 C :   -0.057526
  13 H :    0.018703
  14 H :    0.028459
  15 H :    0.032241
  16 S :    0.405949
  17 C :   -0.196397
  18 C :   -0.070663
  19 C :   -0.055991
  20 C :   -0.192771
  21 H :    0.030582
  22 C :   -0.031460
  23 H :    0.034992
  24 H :    0.030248
  25 C :   -0.045912
  26 H :    0.020292
  27 H :    0.019695
  28 C :   -0.070121
  29 H :    0.022763
  30 H :    0.039063
  31 H :    0.027311
  32 H :    0.020229
  33 H :    0.038470

  Mayer bond orders larger than 0.100000
B(  0-S ,  1-C ) :   1.1145 B(  0-S ,  4-C ) :   1.1453 B(  1-C ,  2-C ) :   1.6253
B(  1-C , 32-H ) :   0.9802 B(  2-C ,  3-C ) :   1.2324 B(  2-C ,  6-C ) :   1.0149
B(  3-C ,  4-C ) :   1.5758 B(  3-C ,  5-H ) :   0.9877 B(  4-C , 20-C ) :   1.0375
B(  6-C ,  7-H ) :   0.9353 B(  6-C ,  8-H ) :   0.9309 B(  6-C ,  9-C ) :   1.0670
B(  9-C , 10-H ) :   0.9526 B(  9-C , 11-H ) :   0.9521 B(  9-C , 12-C ) :   1.0857
B( 12-C , 13-H ) :   0.9763 B( 12-C , 14-H ) :   0.9767 B( 12-C , 15-H ) :   0.9727
B( 16-S , 17-C ) :   1.1598 B( 16-S , 20-C ) :   1.1502 B( 17-C , 18-C ) :   1.6047
B( 17-C , 20-C ) :   0.1034 B( 17-C , 33-H ) :   0.9582 B( 18-C , 19-C ) :   1.2457
B( 18-C , 21-H ) :   0.9961 B( 19-C , 20-C ) :   1.5449 B( 19-C , 22-C ) :   1.0668
B( 22-C , 23-H ) :   0.9320 B( 22-C , 24-H ) :   0.9235 B( 22-C , 25-C ) :   1.0528
B( 25-C , 26-H ) :   0.9622 B( 25-C , 27-H ) :   0.9582 B( 25-C , 28-C ) :   1.0686
B( 28-C , 29-H ) :   0.9755 B( 28-C , 30-H ) :   0.9778 B( 28-C , 31-H ) :   0.9771

Dispersion correction           -0.013293564
FINAL SINGLE POINT ENERGY     -1339.867506247821

DIPOLE MOMENT
-------------
                                X             Y             Z
Electronic contribution:     -5.74347     -20.57479     -16.98988
Nuclear contribution   :      5.65642      20.98424      17.34473
                        -----------------------------------------
Total Dipole Moment    :     -0.08705       0.40945       0.35485
                        -----------------------------------------
Magnitude (a.u.)       :      0.54877
Magnitude (Debye)      :      1.39485

Rotational constants in cm-1:     0.018302     0.007550     0.005920
Rotational constants in MHz :   548.676039   226.354157   177.485374

                             ****ORCA TERMINATED NORMALLY****
TOTAL RUN TIME: 0 days 0 hours 0 minutes 34 seconds 440 msec
