                         Program Version 4.2.1 -  RELEASE  -
|  1> ! wB97X-D3 SP def2-SVP
|  2> %pal
|  3> nprocs 16
|  4> end
|  5>
|  6> * xyz 0 1
|  7> S 	 45.7553 	 20.902 	 87.0367
|  8> C 	 46.0501 	 22.605 	 87.1686
|  9> C 	 44.8263 	 23.2593 	 87.1232
| 10> C 	 43.6765 	 22.3956 	 87.1136
| 11> C 	 44.0753 	 21.0625 	 87.2381
| 12> H 	 42.5916 	 22.7154 	 87.0962
| 13> C 	 44.5798 	 24.7514 	 87.3087
| 14> H 	 43.7597 	 25.0453 	 86.6435
| 15> H 	 45.4196 	 25.1394 	 86.7587
| 16> C 	 44.4945 	 25.1418 	 88.8121
| 17> H 	 43.4927 	 25.1038 	 89.1434
| 18> H 	 44.9645 	 24.3753 	 89.436
| 19> C 	 44.9613 	 26.5442 	 89.0552
| 20> H 	 45.9588 	 26.7756 	 88.6266
| 21> H 	 44.1252 	 27.0972 	 88.6222
| 22> H 	 45.0136 	 26.6204 	 90.1085
| 23> S 	 43.2916 	 18.7057 	 86.0603
| 24> C 	 42.1844 	 17.7145 	 86.8495
| 25> C 	 41.7005 	 18.2747 	 88.0019
| 26> C 	 42.1755 	 19.5963 	 88.2194
| 27> C 	 43.1213 	 19.983 	 87.2568
| 28> H 	 41.0002 	 17.7337 	 88.6435
| 29> C 	 41.9594 	 20.3965 	 89.4718
| 30> H 	 41.1574 	 19.8247 	 89.9075
| 31> H 	 41.5368 	 21.3375 	 89.1508
| 32> C 	 43.2085 	 20.6311 	 90.3656
| 33> H 	 43.9713 	 21.1783 	 89.9138
| 34> H 	 43.6526 	 19.6867 	 90.8459
| 35> C 	 42.6774 	 21.4516 	 91.5678
| 36> H 	 42.2433 	 22.5327 	 91.3628
| 37> H 	 43.4916 	 21.6098 	 92.2537
| 38> H 	 41.9469 	 20.9638 	 92.1967
| 39> H 	 47.048 	 23.0429 	 87.1174
| 40> H 	 41.9444 	 16.7489 	 86.5857
| 41> *
| 42>
| 43>                          ****END OF INPUT****

CARTESIAN COORDINATES (ANGSTROEM)
---------------------------------
  S     45.755300   20.902000   87.036700
  C     46.050100   22.605000   87.168600
  C     44.826300   23.259300   87.123200
  C     43.676500   22.395600   87.113600
  C     44.075300   21.062500   87.238100
  H     42.591600   22.715400   87.096200
  C     44.579800   24.751400   87.308700
  H     43.759700   25.045300   86.643500
  H     45.419600   25.139400   86.758700
  C     44.494500   25.141800   88.812100
  H     43.492700   25.103800   89.143400
  H     44.964500   24.375300   89.436000
  C     44.961300   26.544200   89.055200
  H     45.958800   26.775600   88.626600
  H     44.125200   27.097200   88.622200
  H     45.013600   26.620400   90.108500
  S     43.291600   18.705700   86.060300
  C     42.184400   17.714500   86.849500
  C     41.700500   18.274700   88.001900
  C     42.175500   19.596300   88.219400
  C     43.121300   19.983000   87.256800
  H     41.000200   17.733700   88.643500
  C     41.959400   20.396500   89.471800
  H     41.157400   19.824700   89.907500
  H     41.536800   21.337500   89.150800
  C     43.208500   20.631100   90.365600
  H     43.971300   21.178300   89.913800
  H     43.652600   19.686700   90.845900
  C     42.677400   21.451600   91.567800
  H     42.243300   22.532700   91.362800
  H     43.491600   21.609800   92.253700
  H     41.946900   20.963800   92.196700
  H     47.048000   23.042900   87.117400
  H     41.944400   16.748900   86.585700

 Total Charge           Charge          ....    0
 Multiplicity           Mult            ....    1
 Number of Electrons    NEL             ....  134
 Basis Dimension        Dim             ....  322

ORBITAL ENERGIES
----------------

  NO   OCC          E(Eh)            E(eV)
   0   2.0000     -88.966871     -2420.9116
   1   2.0000     -88.962022     -2420.7797
   2   2.0000     -10.324331      -280.9393
   3   2.0000     -10.319104      -280.7971
   4   2.0000     -10.313762      -280.6517
   5   2.0000     -10.303754      -280.3794
   6   2.0000     -10.299717      -280.2696
   7   2.0000     -10.297023      -280.1962
   8   2.0000     -10.294864      -280.1375
   9   2.0000     -10.290156      -280.0094
  10   2.0000     -10.289244      -279.9846
  11   2.0000     -10.287528      -279.9379
  12   2.0000     -10.287093      -279.9260
  13   2.0000     -10.281655      -279.7781
  14   2.0000     -10.280034      -279.7339
  15   2.0000     -10.275084      -279.5993
  16   2.0000      -8.082512      -219.9363
  17   2.0000      -8.077949      -219.8122
  18   2.0000      -6.040949      -164.3826
  19   2.0000      -6.036801      -164.2697
  20   2.0000      -6.036263      -164.2551
  21   2.0000      -6.033367      -164.1763
  22   2.0000      -6.032086      -164.1414
  23   2.0000      -6.029065      -164.0592
  24   2.0000      -1.012338       -27.5471
  25   2.0000      -0.989696       -26.9310
  26   2.0000      -0.914264       -24.8784
  27   2.0000      -0.908125       -24.7113
  28   2.0000      -0.872387       -23.7389
  29   2.0000      -0.853663       -23.2294
  30   2.0000      -0.849007       -23.1027
  31   2.0000      -0.812017       -22.0961
  32   2.0000      -0.778982       -21.1972
  33   2.0000      -0.767246       -20.8778
  34   2.0000      -0.709692       -19.3117
  35   2.0000      -0.701968       -19.1015
  36   2.0000      -0.694032       -18.8856
  37   2.0000      -0.660607       -17.9760
  38   2.0000      -0.640353       -17.4249
  39   2.0000      -0.613608       -16.6971
  40   2.0000      -0.593040       -16.1374
  41   2.0000      -0.574073       -15.6213
  42   2.0000      -0.563594       -15.3362
  43   2.0000      -0.555146       -15.1063
  44   2.0000      -0.536591       -14.6014
  45   2.0000      -0.523769       -14.2525
  46   2.0000      -0.515546       -14.0287
  47   2.0000      -0.513079       -13.9616
  48   2.0000      -0.505321       -13.7505
  49   2.0000      -0.502194       -13.6654
  50   2.0000      -0.484310       -13.1787
  51   2.0000      -0.482062       -13.1176
  52   2.0000      -0.476628       -12.9697
  53   2.0000      -0.465353       -12.6629
  54   2.0000      -0.458182       -12.4678
  55   2.0000      -0.449910       -12.2427
  56   2.0000      -0.443510       -12.0685
  57   2.0000      -0.438447       -11.9308
  58   2.0000      -0.430417       -11.7122
  59   2.0000      -0.422251       -11.4900
  60   2.0000      -0.418249       -11.3811
  61   2.0000      -0.412097       -11.2137
  62   2.0000      -0.408813       -11.1244
  63   2.0000      -0.341292        -9.2870
  64   2.0000      -0.330552        -8.9948
  65   2.0000      -0.326193        -8.8762
  66   2.0000      -0.290661        -7.9093
  67   0.0000       0.031906         0.8682
  68   0.0000       0.070580         1.9206
  69   0.0000       0.118435         3.2228
  70   0.0000       0.125050         3.4028
  71   0.0000       0.135743         3.6937

MULLIKEN ATOMIC CHARGES
-----------------------
   0 S :    0.126885
   1 C :   -0.139378
   2 C :   -0.117307
   3 C :    0.000443
   4 C :   -0.156373
   5 H :    0.043353
   6 C :    0.070786
   7 H :    0.025769
   8 H :    0.009254
   9 C :   -0.048431
  10 H :    0.012810
  11 H :    0.034277
  12 C :   -0.028759
  13 H :    0.041086
  14 H :    0.037939
  15 H :    0.025314
  16 S :    0.116023
  17 C :   -0.047287
  18 C :   -0.055624
  19 C :   -0.042410
  20 C :   -0.181259
  21 H :    0.017835
  22 C :    0.098541
  23 H :    0.006841
  24 H :    0.018205
  25 C :   -0.032840
  26 H :    0.040582
  27 H :    0.047254
  28 C :   -0.087652
  29 H :    0.039639
  30 H :    0.020737
  31 H :    0.025650
  32 H :    0.057260
  33 H :    0.020836
Sum of atomic charges:    0.0000000

LOEWDIN ATOMIC CHARGES
----------------------
   0 S :    0.438076
   1 C :   -0.217325
   2 C :   -0.062086
   3 C :   -0.072201
   4 C :   -0.216424
   5 H :    0.043327
   6 C :   -0.035823
   7 H :    0.031424
   8 H :    0.024642
   9 C :   -0.036348
  10 H :    0.020198
  11 H :    0.023622
  12 C :   -0.057825
  13 H :    0.026929
  14 H :    0.031646
  15 H :    0.021828
  16 S :    0.431414
  17 C :   -0.193756
  18 C :   -0.078542
  19 C :   -0.056713
  20 C :   -0.202543
  21 H :    0.032347
  22 C :   -0.029354
  23 H :    0.028621
  24 H :    0.030643
  25 C :   -0.024978
  26 H :    0.019096
  27 H :    0.039404
  28 C :   -0.077149
  29 H :    0.032123
  30 H :    0.018812
  31 H :    0.019557
  32 H :    0.033230
  33 H :    0.014129

  Mayer bond orders larger than 0.100000
B(  0-S ,  1-C ) :   1.1373 B(  0-S ,  4-C ) :   1.1784 B(  1-C ,  2-C ) :   1.5756
B(  1-C , 32-H ) :   0.9761 B(  2-C ,  3-C ) :   1.2578 B(  2-C ,  6-C ) :   1.0293
B(  3-C ,  4-C ) :   1.5177 B(  3-C ,  5-H ) :   0.9890 B(  4-C , 20-C ) :   1.0629
B(  6-C ,  7-H ) :   0.9378 B(  6-C ,  8-H ) :   0.9453 B(  6-C ,  9-C ) :   1.0308
B(  9-C , 10-H ) :   0.9509 B(  9-C , 11-H ) :   0.9629 B(  9-C , 12-C ) :   1.0771
B( 12-C , 13-H ) :   0.9802 B( 12-C , 14-H ) :   0.9774 B( 12-C , 15-H ) :   0.9733
B( 16-S , 17-C ) :   1.1824 B( 16-S , 20-C ) :   1.1502 B( 17-C , 18-C ) :   1.5794
B( 17-C , 33-H ) :   0.9723 B( 18-C , 19-C ) :   1.2852 B( 18-C , 21-H ) :   0.9882
B( 19-C , 20-C ) :   1.5528 B( 19-C , 22-C ) :   1.0358 B( 22-C , 23-H ) :   0.9325
B( 22-C , 24-H ) :   0.9240 B( 22-C , 25-C ) :   1.0666 B( 25-C , 26-H ) :   0.9517
B( 25-C , 27-H ) :   0.9531 B( 25-C , 28-C ) :   1.0774 B( 28-C , 29-H ) :   0.9732
B( 28-C , 30-H ) :   0.9733 B( 28-C , 31-H ) :   0.9759

Dispersion correction           -0.015203619
FINAL SINGLE POINT ENERGY     -1339.860468989610

DIPOLE MOMENT
-------------
                                X             Y             Z
Electronic contribution:      4.57150     -22.67710     -20.79384
Nuclear contribution   :     -4.75011      23.01223      21.23948
                        -----------------------------------------
Total Dipole Moment    :     -0.17861       0.33513       0.44564
                        -----------------------------------------
Magnitude (a.u.)       :      0.58549
Magnitude (Debye)      :      1.48821

Rotational constants in cm-1:     0.020903     0.009121     0.007154
Rotational constants in MHz :   626.666184   273.451685   214.471992

                             ****ORCA TERMINATED NORMALLY****
TOTAL RUN TIME: 0 days 0 hours 0 minutes 30 seconds 527 msec
