                         Program Version 4.2.1 -  RELEASE  -
|  1> ! wB97X-D3 SP def2-SVP
|  2> %pal
|  3> nprocs 16
|  4> end
|  5>
|  6> * xyz 0 1
|  7> S 	 -0.32058 	 61.3035 	 48.0832
|  8> C 	 -1.65927 	 61.5855 	 49.1733
|  9> C 	 -2.86976 	 61.8438 	 48.4877
| 10> C 	 -2.72052 	 61.9735 	 47.0938
| 11> C 	 -1.42374 	 61.7019 	 46.677
| 12> H 	 -3.44451 	 62.3177 	 46.3957
| 13> C 	 -4.27182 	 61.9158 	 49.2059
| 14> H 	 -4.8259 	 62.6148 	 48.5289
| 15> H 	 -4.08823 	 62.4126 	 50.1383
| 16> C 	 -5.13637 	 60.7184 	 49.3912
| 17> H 	 -5.42048 	 60.3618 	 48.3869
| 18> H 	 -4.64532 	 59.8705 	 49.8011
| 19> C 	 -6.43357 	 61.0563 	 50.1266
| 20> H 	 -7.01989 	 61.8358 	 49.5278
| 21> H 	 -7.0133 	 60.1443 	 50.1124
| 22> H 	 -6.28316 	 61.4748 	 51.1551
| 23> S 	 0.530578 	 62.6219 	 45.1373
| 24> C 	 0.527884 	 62.2233 	 43.4911
| 25> C 	 -0.573966 	 61.5479 	 43.196
| 26> C 	 -1.51314 	 61.3786 	 44.2149
| 27> C 	 -0.973097 	 61.9013 	 45.3455
| 28> H 	 -0.584782 	 61.0371 	 42.253
| 29> C 	 -2.86293 	 60.8297 	 44.0121
| 30> H 	 -3.57564 	 61.6502 	 44.1468
| 31> H 	 -3.0824 	 60.1407 	 44.8805
| 32> C 	 -3.21607 	 60.0666 	 42.6651
| 33> H 	 -2.99182 	 60.718 	 41.7996
| 34> H 	 -4.3053 	 60.0289 	 42.5952
| 35> C 	 -2.57872 	 58.7399 	 42.5786
| 36> H 	 -2.71374 	 58.3375 	 43.5528
| 37> H 	 -1.44768 	 58.7438 	 42.4829
| 38> H 	 -3.04103 	 58.1459 	 41.7528
| 39> H 	 -1.50597 	 61.3618 	 50.2122
| 40> H 	 1.32177 	 62.4143 	 42.7298
| 41> *
| 42>
| 43>                          ****END OF INPUT****

CARTESIAN COORDINATES (ANGSTROEM)
---------------------------------
  S     -0.320580   61.303500   48.083200
  C     -1.659270   61.585500   49.173300
  C     -2.869760   61.843800   48.487700
  C     -2.720520   61.973500   47.093800
  C     -1.423740   61.701900   46.677000
  H     -3.444510   62.317700   46.395700
  C     -4.271820   61.915800   49.205900
  H     -4.825900   62.614800   48.528900
  H     -4.088230   62.412600   50.138300
  C     -5.136370   60.718400   49.391200
  H     -5.420480   60.361800   48.386900
  H     -4.645320   59.870500   49.801100
  C     -6.433570   61.056300   50.126600
  H     -7.019890   61.835800   49.527800
  H     -7.013300   60.144300   50.112400
  H     -6.283160   61.474800   51.155100
  S      0.530578   62.621900   45.137300
  C      0.527884   62.223300   43.491100
  C     -0.573966   61.547900   43.196000
  C     -1.513140   61.378600   44.214900
  C     -0.973097   61.901300   45.345500
  H     -0.584782   61.037100   42.253000
  C     -2.862930   60.829700   44.012100
  H     -3.575640   61.650200   44.146800
  H     -3.082400   60.140700   44.880500
  C     -3.216070   60.066600   42.665100
  H     -2.991820   60.718000   41.799600
  H     -4.305300   60.028900   42.595200
  C     -2.578720   58.739900   42.578600
  H     -2.713740   58.337500   43.552800
  H     -1.447680   58.743800   42.482900
  H     -3.041030   58.145900   41.752800
  H     -1.505970   61.361800   50.212200
  H      1.321770   62.414300   42.729800

 Total Charge           Charge          ....    0
 Multiplicity           Mult            ....    1
 Number of Electrons    NEL             ....  134
 Basis Dimension        Dim             ....  322

ORBITAL ENERGIES
----------------

  NO   OCC          E(Eh)            E(eV)
   0   2.0000     -88.968153     -2420.9465
   1   2.0000     -88.961137     -2420.7556
   2   2.0000     -10.328763      -281.0599
   3   2.0000     -10.315392      -280.6961
   4   2.0000     -10.309666      -280.5403
   5   2.0000     -10.305493      -280.4267
   6   2.0000     -10.304027      -280.3868
   7   2.0000     -10.297530      -280.2100
   8   2.0000     -10.291895      -280.0567
   9   2.0000     -10.291593      -280.0485
  10   2.0000     -10.291027      -280.0331
  11   2.0000     -10.290910      -280.0299
  12   2.0000     -10.287279      -279.9311
  13   2.0000     -10.282332      -279.7965
  14   2.0000     -10.280157      -279.7373
  15   2.0000     -10.276961      -279.6503
  16   2.0000      -8.081579      -219.9110
  17   2.0000      -8.078504      -219.8273
  18   2.0000      -6.040103      -164.3596
  19   2.0000      -6.036774      -164.2690
  20   2.0000      -6.036356      -164.2576
  21   2.0000      -6.032703      -164.1582
  22   2.0000      -6.032323      -164.1479
  23   2.0000      -6.029270      -164.0648
  24   2.0000      -1.024990       -27.8914
  25   2.0000      -0.980871       -26.6909
  26   2.0000      -0.915937       -24.9239
  27   2.0000      -0.911395       -24.8003
  28   2.0000      -0.877388       -23.8749
  29   2.0000      -0.861761       -23.4497
  30   2.0000      -0.848820       -23.0976
  31   2.0000      -0.813705       -22.1420
  32   2.0000      -0.783807       -21.3285
  33   2.0000      -0.766809       -20.8659
  34   2.0000      -0.707668       -19.2566
  35   2.0000      -0.699576       -19.0364
  36   2.0000      -0.697017       -18.9668
  37   2.0000      -0.661135       -17.9904
  38   2.0000      -0.641590       -17.4585
  39   2.0000      -0.622267       -16.9327
  40   2.0000      -0.600363       -16.3367
  41   2.0000      -0.569323       -15.4921
  42   2.0000      -0.563553       -15.3351
  43   2.0000      -0.553990       -15.0748
  44   2.0000      -0.534778       -14.5521
  45   2.0000      -0.526638       -14.3305
  46   2.0000      -0.520818       -14.1722
  47   2.0000      -0.510505       -13.8916
  48   2.0000      -0.507613       -13.8129
  49   2.0000      -0.503902       -13.7119
  50   2.0000      -0.491810       -13.3828
  51   2.0000      -0.479745       -13.0545
  52   2.0000      -0.469585       -12.7781
  53   2.0000      -0.464956       -12.6521
  54   2.0000      -0.462367       -12.5816
  55   2.0000      -0.453658       -12.3447
  56   2.0000      -0.445392       -12.1197
  57   2.0000      -0.442781       -12.0487
  58   2.0000      -0.434242       -11.8163
  59   2.0000      -0.421728       -11.4758
  60   2.0000      -0.417044       -11.3483
  61   2.0000      -0.414469       -11.2783
  62   2.0000      -0.411469       -11.1966
  63   2.0000      -0.355085        -9.6624
  64   2.0000      -0.330744        -9.0000
  65   2.0000      -0.330447        -8.9919
  66   2.0000      -0.282219        -7.6796
  67   0.0000       0.026803         0.7294
  68   0.0000       0.076360         2.0779
  69   0.0000       0.112291         3.0556
  70   0.0000       0.130104         3.5403
  71   0.0000       0.132732         3.6118

MULLIKEN ATOMIC CHARGES
-----------------------
   0 S :    0.102355
   1 C :   -0.132309
   2 C :   -0.053387
   3 C :    0.002427
   4 C :   -0.132024
   5 H :    0.006248
   6 C :    0.045440
   7 H :    0.019048
   8 H :    0.018052
   9 C :   -0.020796
  10 H :    0.014115
  11 H :    0.019427
  12 C :   -0.076794
  13 H :    0.035795
  14 H :    0.039186
  15 H :    0.045923
  16 S :    0.125054
  17 C :   -0.096471
  18 C :   -0.049832
  19 C :   -0.001022
  20 C :   -0.179152
  21 H :    0.006022
  22 C :   -0.007929
  23 H :    0.046152
  24 H :    0.041665
  25 C :   -0.052237
  26 H :    0.026715
  27 H :    0.024537
  28 C :   -0.038107
  29 H :    0.018886
  30 H :    0.041719
  31 H :    0.049917
  32 H :    0.050126
  33 H :    0.061253
Sum of atomic charges:    0.0000000

LOEWDIN ATOMIC CHARGES
----------------------
   0 S :    0.372810
   1 C :   -0.197051
   2 C :   -0.058123
   3 C :   -0.062245
   4 C :   -0.161261
   5 H :    0.029300
   6 C :   -0.032063
   7 H :    0.031908
   8 H :    0.024015
   9 C :   -0.044597
  10 H :    0.026039
  11 H :    0.018474
  12 C :   -0.066204
  13 H :    0.031400
  14 H :    0.026920
  15 H :    0.028636
  16 S :    0.454327
  17 C :   -0.213882
  18 C :   -0.077587
  19 C :   -0.061775
  20 C :   -0.222165
  21 H :    0.027493
  22 C :   -0.036839
  23 H :    0.034637
  24 H :    0.038125
  25 C :   -0.044144
  26 H :    0.022788
  27 H :    0.028051
  28 C :   -0.070662
  29 H :    0.022430
  30 H :    0.032800
  31 H :    0.034581
  32 H :    0.022210
  33 H :    0.041656

  Mayer bond orders larger than 0.100000
B(  0-S ,  1-C ) :   1.1382 B(  0-S ,  4-C ) :   1.1324 B(  1-C ,  2-C ) :   1.5877
B(  1-C ,  4-C ) :   0.1014 B(  1-C , 32-H ) :   0.9730 B(  2-C ,  3-C ) :   1.2491
B(  2-C ,  6-C ) :   1.0062 B(  3-C ,  4-C ) :   1.5515 B(  3-C ,  5-H ) :   0.9969
B(  4-C , 20-C ) :   1.0834 B(  6-C ,  7-H ) :   0.9420 B(  6-C ,  8-H ) :   0.9437
B(  6-C ,  9-C ) :   1.0752 B(  9-C , 10-H ) :   0.9455 B(  9-C , 11-H ) :   0.9527
B(  9-C , 12-C ) :   1.0787 B( 12-C , 13-H ) :   0.9742 B( 12-C , 14-H ) :   0.9730
B( 12-C , 15-H ) :   0.9753 B( 16-S , 17-C ) :   1.1475 B( 16-S , 20-C ) :   1.1639
B( 17-C , 18-C ) :   1.6211 B( 17-C , 33-H ) :   0.9570 B( 18-C , 19-C ) :   1.2684
B( 18-C , 21-H ) :   0.9849 B( 19-C , 20-C ) :   1.5560 B( 19-C , 22-C ) :   1.0384
B( 22-C , 23-H ) :   0.9274 B( 22-C , 24-H ) :   0.9178 B( 22-C , 25-C ) :   1.0865
B( 25-C , 26-H ) :   0.9428 B( 25-C , 27-H ) :   0.9476 B( 25-C , 28-C ) :   1.0784
B( 28-C , 29-H ) :   0.9692 B( 28-C , 30-H ) :   0.9714 B( 28-C , 31-H ) :   0.9712

Dispersion correction           -0.013755278
FINAL SINGLE POINT ENERGY     -1339.866421220505

DIPOLE MOMENT
-------------
                                X             Y             Z
Electronic contribution:     27.32012      10.56902       1.63911
Nuclear contribution   :    -27.92622     -10.83601      -1.86985
                        -----------------------------------------
Total Dipole Moment    :     -0.60610      -0.26699      -0.23074
                        -----------------------------------------
Magnitude (a.u.)       :      0.70134
Magnitude (Debye)      :      1.78266

Rotational constants in cm-1:     0.018743     0.008311     0.006240
Rotational constants in MHz :   561.912798   249.148852   187.066067

                             ****ORCA TERMINATED NORMALLY****
TOTAL RUN TIME: 0 days 0 hours 0 minutes 33 seconds 376 msec
