                         Program Version 4.2.1 -  RELEASE  -
|  1> ! wB97X-D3 SP def2-SVP
|  2> %pal
|  3> nprocs 16
|  4> end
|  5>
|  6> * xyz 0 1
|  7> S 	 48.7149 	 7.0323 	 100.369
|  8> C 	 48.415 	 8.75916 	 100.732
|  9> C 	 49.2073 	 9.60928 	 99.9288
| 10> C 	 49.9919 	 8.87124 	 98.9868
| 11> C 	 49.8178 	 7.51321 	 99.073
| 12> H 	 50.7026 	 9.30692 	 98.3113
| 13> C 	 49.3382 	 11.1237 	 100.049
| 14> H 	 48.361 	 11.571 	 99.7752
| 15> H 	 50.0262 	 11.4658 	 99.2872
| 16> C 	 49.7638 	 11.6063 	 101.469
| 17> H 	 48.8518 	 11.4986 	 102.098
| 18> H 	 50.5187 	 10.9585 	 101.877
| 19> C 	 50.2901 	 13.04 	 101.427
| 20> H 	 49.6095 	 13.8253 	 101.185
| 21> H 	 50.9202 	 13.303 	 102.296
| 22> H 	 51.0815 	 13.1218 	 100.634
| 23> S 	 50.9541 	 5.07938 	 99.3072
| 24> C 	 52.0098 	 4.43855 	 98.0656
| 25> C 	 52.1353 	 5.24361 	 97.0001
| 26> C 	 51.3647 	 6.51447 	 97.1234
| 27> C 	 50.5983 	 6.48672 	 98.3227
| 28> H 	 52.8575 	 4.99021 	 96.2154
| 29> C 	 51.4289 	 7.66483 	 96.1686
| 30> H 	 52.1961 	 8.32484 	 96.5807
| 31> H 	 50.4825 	 8.2516 	 96.178
| 32> C 	 51.7026 	 7.27962 	 94.7685
| 33> H 	 52.5956 	 6.66098 	 94.6224
| 34> H 	 51.9145 	 8.24107 	 94.3529
| 35> C 	 50.5496 	 6.65611 	 94.0348
| 36> H 	 49.6262 	 7.29443 	 94.0593
| 37> H 	 50.1163 	 5.70648 	 94.3486
| 38> H 	 50.8656 	 6.41117 	 93.0497
| 39> H 	 47.9105 	 9.13276 	 101.596
| 40> H 	 52.6302 	 3.524 	 98.1211
| 41> *
| 42>
| 43>                          ****END OF INPUT****

CARTESIAN COORDINATES (ANGSTROEM)
---------------------------------
  S     48.714900    7.032300  100.369000
  C     48.415000    8.759160  100.732000
  C     49.207300    9.609280   99.928800
  C     49.991900    8.871240   98.986800
  C     49.817800    7.513210   99.073000
  H     50.702600    9.306920   98.311300
  C     49.338200   11.123700  100.049000
  H     48.361000   11.571000   99.775200
  H     50.026200   11.465800   99.287200
  C     49.763800   11.606300  101.469000
  H     48.851800   11.498600  102.098000
  H     50.518700   10.958500  101.877000
  C     50.290100   13.040000  101.427000
  H     49.609500   13.825300  101.185000
  H     50.920200   13.303000  102.296000
  H     51.081500   13.121800  100.634000
  S     50.954100    5.079380   99.307200
  C     52.009800    4.438550   98.065600
  C     52.135300    5.243610   97.000100
  C     51.364700    6.514470   97.123400
  C     50.598300    6.486720   98.322700
  H     52.857500    4.990210   96.215400
  C     51.428900    7.664830   96.168600
  H     52.196100    8.324840   96.580700
  H     50.482500    8.251600   96.178000
  C     51.702600    7.279620   94.768500
  H     52.595600    6.660980   94.622400
  H     51.914500    8.241070   94.352900
  C     50.549600    6.656110   94.034800
  H     49.626200    7.294430   94.059300
  H     50.116300    5.706480   94.348600
  H     50.865600    6.411170   93.049700
  H     47.910500    9.132760  101.596000
  H     52.630200    3.524000   98.121100

 Total Charge           Charge          ....    0
 Multiplicity           Mult            ....    1
 Number of Electrons    NEL             ....  134
 Basis Dimension        Dim             ....  322

ORBITAL ENERGIES
----------------

  NO   OCC          E(Eh)            E(eV)
   0   2.0000     -88.969620     -2420.9864
   1   2.0000     -88.962504     -2420.7928
   2   2.0000     -10.332998      -281.1752
   3   2.0000     -10.329923      -281.0915
   4   2.0000     -10.315562      -280.7007
   5   2.0000     -10.314171      -280.6629
   6   2.0000     -10.310722      -280.5690
   7   2.0000     -10.304667      -280.4042
   8   2.0000     -10.296266      -280.1756
   9   2.0000     -10.295440      -280.1532
  10   2.0000     -10.293070      -280.0887
  11   2.0000     -10.292502      -280.0732
  12   2.0000     -10.291378      -280.0426
  13   2.0000     -10.282593      -279.8036
  14   2.0000     -10.282354      -279.7971
  15   2.0000     -10.274523      -279.5840
  16   2.0000      -8.083147      -219.9536
  17   2.0000      -8.077374      -219.7965
  18   2.0000      -6.041766      -164.4048
  19   2.0000      -6.037985      -164.3019
  20   2.0000      -6.036040      -164.2490
  21   2.0000      -6.033696      -164.1852
  22   2.0000      -6.031931      -164.1372
  23   2.0000      -6.027893      -164.0273
  24   2.0000      -1.000346       -27.2208
  25   2.0000      -0.976336       -26.5675
  26   2.0000      -0.923350       -25.1256
  27   2.0000      -0.908828       -24.7305
  28   2.0000      -0.865405       -23.5489
  29   2.0000      -0.852510       -23.1980
  30   2.0000      -0.841590       -22.9008
  31   2.0000      -0.816074       -22.2065
  32   2.0000      -0.783741       -21.3267
  33   2.0000      -0.771141       -20.9838
  34   2.0000      -0.710132       -19.3237
  35   2.0000      -0.706693       -19.2301
  36   2.0000      -0.689295       -18.7567
  37   2.0000      -0.651601       -17.7310
  38   2.0000      -0.634150       -17.2561
  39   2.0000      -0.621305       -16.9066
  40   2.0000      -0.601177       -16.3588
  41   2.0000      -0.566216       -15.4075
  42   2.0000      -0.564957       -15.3733
  43   2.0000      -0.561008       -15.2658
  44   2.0000      -0.536035       -14.5863
  45   2.0000      -0.522474       -14.2173
  46   2.0000      -0.518748       -14.1158
  47   2.0000      -0.510274       -13.8853
  48   2.0000      -0.501760       -13.6536
  49   2.0000      -0.496809       -13.5189
  50   2.0000      -0.491126       -13.3642
  51   2.0000      -0.473399       -12.8818
  52   2.0000      -0.470448       -12.8015
  53   2.0000      -0.462793       -12.5932
  54   2.0000      -0.462450       -12.5839
  55   2.0000      -0.454954       -12.3799
  56   2.0000      -0.446271       -12.1436
  57   2.0000      -0.436534       -11.8787
  58   2.0000      -0.435390       -11.8476
  59   2.0000      -0.430323       -11.7097
  60   2.0000      -0.424435       -11.5495
  61   2.0000      -0.416365       -11.3299
  62   2.0000      -0.406428       -11.0595
  63   2.0000      -0.355544        -9.6749
  64   2.0000      -0.333703        -9.0805
  65   2.0000      -0.323327        -8.7982
  66   2.0000      -0.283232        -7.7071
  67   0.0000       0.024082         0.6553
  68   0.0000       0.077489         2.1086
  69   0.0000       0.097385         2.6500
  70   0.0000       0.121906         3.3172
  71   0.0000       0.140595         3.8258

MULLIKEN ATOMIC CHARGES
-----------------------
   0 S :    0.102147
   1 C :   -0.110231
   2 C :   -0.095523
   3 C :   -0.008041
   4 C :   -0.104552
   5 H :    0.002377
   6 C :    0.063759
   7 H :    0.044109
   8 H :    0.009380
   9 C :   -0.073185
  10 H :    0.038721
  11 H :    0.038746
  12 C :   -0.055668
  13 H :    0.034552
  14 H :    0.037332
  15 H :    0.018883
  16 S :    0.080669
  17 C :   -0.079165
  18 C :   -0.043293
  19 C :   -0.081770
  20 C :   -0.118725
  21 H :    0.025556
  22 C :    0.026786
  23 H :    0.048526
  24 H :    0.039018
  25 C :   -0.028328
  26 H :    0.026454
  27 H :    0.017415
  28 C :   -0.042489
  29 H :    0.030675
  30 H :    0.030348
  31 H :    0.023611
  32 H :    0.040495
  33 H :    0.061411
Sum of atomic charges:   -0.0000000

LOEWDIN ATOMIC CHARGES
----------------------
   0 S :    0.381976
   1 C :   -0.192795
   2 C :   -0.052055
   3 C :   -0.071044
   4 C :   -0.179280
   5 H :    0.027808
   6 C :   -0.031729
   7 H :    0.037927
   8 H :    0.023196
   9 C :   -0.038118
  10 H :    0.027390
  11 H :    0.026260
  12 C :   -0.073150
  13 H :    0.021674
  14 H :    0.031073
  15 H :    0.028281
  16 S :    0.390728
  17 C :   -0.189527
  18 C :   -0.077475
  19 C :   -0.051670
  20 C :   -0.191141
  21 H :    0.034651
  22 C :   -0.041274
  23 H :    0.036003
  24 H :    0.038527
  25 C :   -0.043119
  26 H :    0.024803
  27 H :    0.027656
  28 C :   -0.067487
  29 H :    0.030894
  30 H :    0.027413
  31 H :    0.023221
  32 H :    0.021481
  33 H :    0.038903

  Mayer bond orders larger than 0.100000
B(  0-S ,  1-C ) :   1.1168 B(  0-S ,  4-C ) :   1.1448 B(  1-C ,  2-C ) :   1.6148
B(  1-C , 32-H ) :   0.9707 B(  2-C ,  3-C ) :   1.2438 B(  2-C ,  6-C ) :   1.0228
B(  3-C ,  4-C ) :   1.5785 B(  3-C ,  5-H ) :   0.9904 B(  4-C , 20-C ) :   1.0395
B(  6-C ,  7-H ) :   0.9333 B(  6-C ,  8-H ) :   0.9481 B(  6-C ,  9-C ) :   1.0517
B(  9-C , 10-H ) :   0.9519 B(  9-C , 11-H ) :   0.9624 B(  9-C , 12-C ) :   1.0854
B( 12-C , 13-H ) :   0.9760 B( 12-C , 14-H ) :   0.9744 B( 12-C , 15-H ) :   0.9716
B( 16-S , 17-C ) :   1.1302 B( 16-S , 20-C ) :   1.1288 B( 17-C , 18-C ) :   1.6783
B( 17-C , 33-H ) :   0.9554 B( 18-C , 19-C ) :   1.1938 B( 18-C , 21-H ) :   0.9827
B( 19-C , 20-C ) :   1.6150 B( 19-C , 22-C ) :   1.0427 B( 22-C , 23-H ) :   0.9179
B( 22-C , 24-H ) :   0.9338 B( 22-C , 25-C ) :   1.0873 B( 25-C , 26-H ) :   0.9446
B( 25-C , 27-H ) :   0.9427 B( 25-C , 28-C ) :   1.0884 B( 28-C , 29-H ) :   0.9690
B( 28-C , 30-H ) :   0.9726 B( 28-C , 31-H ) :   0.9716

Dispersion correction           -0.013623001
FINAL SINGLE POINT ENERGY     -1339.878417809576

DIPOLE MOMENT
-------------
                                X             Y             Z
Electronic contribution:     -4.67752     -22.66914      11.33433
Nuclear contribution   :      5.19126      23.27510     -11.67196
                        -----------------------------------------
Total Dipole Moment    :      0.51375       0.60596      -0.33763
                        -----------------------------------------
Magnitude (a.u.)       :      0.86320
Magnitude (Debye)      :      2.19409

Rotational constants in cm-1:     0.019991     0.007551     0.006165
Rotational constants in MHz :   599.329128   226.361489   184.831241

                             ****ORCA TERMINATED NORMALLY****
TOTAL RUN TIME: 0 days 0 hours 0 minutes 29 seconds 154 msec
