                         Program Version 4.2.1 -  RELEASE  -
|  1> ! wB97X-D3 SP def2-SVP
|  2> %pal
|  3> nprocs 16
|  4> end
|  5>
|  6> * xyz 0 1
|  7> S 	 46.0764 	 6.08144 	 87.5598
|  8> C 	 46.6958 	 5.72044 	 85.8599
|  9> C 	 46.8897 	 4.36178 	 85.7586
| 10> C 	 46.5509 	 3.62989 	 86.909
| 11> C 	 46.1947 	 4.40621 	 87.998
| 12> H 	 46.6624 	 2.5295 	 87.0073
| 13> C 	 47.3318 	 3.65513 	 84.4353
| 14> H 	 46.5157 	 3.60067 	 83.6455
| 15> H 	 47.5379 	 2.58935 	 84.61
| 16> C 	 48.6548 	 4.16246 	 83.8236
| 17> H 	 48.526 	 5.26396 	 83.6686
| 18> H 	 49.4408 	 4.01748 	 84.551
| 19> C 	 48.9683 	 3.50227 	 82.5181
| 20> H 	 50.0384 	 3.62042 	 82.4673
| 21> H 	 48.6054 	 2.44153 	 82.4394
| 22> H 	 48.6542 	 4.05453 	 81.664
| 23> S 	 45.9441 	 4.97854 	 90.7772
| 24> C 	 45.0133 	 3.96328 	 91.7734
| 25> C 	 44.9392 	 2.66515 	 91.1828
| 26> C 	 45.4755 	 2.65162 	 89.8162
| 27> C 	 45.7692 	 3.92015 	 89.3363
| 28> H 	 44.6973 	 1.83946 	 91.7934
| 29> C 	 45.4924 	 1.38443 	 89.0239
| 30> H 	 45.2295 	 0.682222 	 89.7174
| 31> H 	 46.5153 	 1.1067 	 88.6789
| 32> C 	 44.3976 	 1.17071 	 87.9767
| 33> H 	 44.5648 	 1.96191 	 87.2003
| 34> H 	 43.5224 	 1.36761 	 88.5391
| 35> C 	 44.283 	 -0.183998 	 87.2174
| 36> H 	 45.3148 	 -0.363882 	 86.9412
| 37> H 	 43.755 	 0.0269587 	 86.3023
| 38> H 	 43.9409 	 -1.04504 	 87.8545
| 39> H 	 46.8858 	 6.38918 	 85.0126
| 40> H 	 44.7645 	 4.15252 	 92.8263
| 41> *
| 42>
| 43>                          ****END OF INPUT****

CARTESIAN COORDINATES (ANGSTROEM)
---------------------------------
  S     46.076400    6.081440   87.559800
  C     46.695800    5.720440   85.859900
  C     46.889700    4.361780   85.758600
  C     46.550900    3.629890   86.909000
  C     46.194700    4.406210   87.998000
  H     46.662400    2.529500   87.007300
  C     47.331800    3.655130   84.435300
  H     46.515700    3.600670   83.645500
  H     47.537900    2.589350   84.610000
  C     48.654800    4.162460   83.823600
  H     48.526000    5.263960   83.668600
  H     49.440800    4.017480   84.551000
  C     48.968300    3.502270   82.518100
  H     50.038400    3.620420   82.467300
  H     48.605400    2.441530   82.439400
  H     48.654200    4.054530   81.664000
  S     45.944100    4.978540   90.777200
  C     45.013300    3.963280   91.773400
  C     44.939200    2.665150   91.182800
  C     45.475500    2.651620   89.816200
  C     45.769200    3.920150   89.336300
  H     44.697300    1.839460   91.793400
  C     45.492400    1.384430   89.023900
  H     45.229500    0.682222   89.717400
  H     46.515300    1.106700   88.678900
  C     44.397600    1.170710   87.976700
  H     44.564800    1.961910   87.200300
  H     43.522400    1.367610   88.539100
  C     44.283000   -0.183998   87.217400
  H     45.314800   -0.363882   86.941200
  H     43.755000    0.026959   86.302300
  H     43.940900   -1.045040   87.854500
  H     46.885800    6.389180   85.012600
  H     44.764500    4.152520   92.826300

 Total Charge           Charge          ....    0
 Multiplicity           Mult            ....    1
 Number of Electrons    NEL             ....  134
 Basis Dimension        Dim             ....  322

ORBITAL ENERGIES
----------------

  NO   OCC          E(Eh)            E(eV)
   0   2.0000     -88.971337     -2421.0332
   1   2.0000     -88.965734     -2420.8807
   2   2.0000     -10.336868      -281.2805
   3   2.0000     -10.334844      -281.2254
   4   2.0000     -10.323430      -280.9148
   5   2.0000     -10.321823      -280.8711
   6   2.0000     -10.309732      -280.5421
   7   2.0000     -10.303952      -280.3848
   8   2.0000     -10.300275      -280.2847
   9   2.0000     -10.299767      -280.2709
  10   2.0000     -10.295097      -280.1438
  11   2.0000     -10.287144      -279.9274
  12   2.0000     -10.284522      -279.8561
  13   2.0000     -10.283467      -279.8274
  14   2.0000     -10.283000      -279.8147
  15   2.0000     -10.277074      -279.6534
  16   2.0000      -8.084452      -219.9891
  17   2.0000      -8.080679      -219.8865
  18   2.0000      -6.043224      -164.4445
  19   2.0000      -6.039231      -164.3358
  20   2.0000      -6.039171      -164.3342
  21   2.0000      -6.035237      -164.2271
  22   2.0000      -6.035011      -164.2210
  23   2.0000      -6.031299      -164.1200
  24   2.0000      -1.004009       -27.3205
  25   2.0000      -0.982003       -26.7217
  26   2.0000      -0.914325       -24.8800
  27   2.0000      -0.912243       -24.8234
  28   2.0000      -0.869164       -23.6512
  29   2.0000      -0.852834       -23.2068
  30   2.0000      -0.840916       -22.8825
  31   2.0000      -0.811187       -22.0735
  32   2.0000      -0.786245       -21.3948
  33   2.0000      -0.776523       -21.1303
  34   2.0000      -0.707263       -19.2456
  35   2.0000      -0.696643       -18.9566
  36   2.0000      -0.687263       -18.7014
  37   2.0000      -0.666227       -18.1290
  38   2.0000      -0.634048       -17.2533
  39   2.0000      -0.619332       -16.8529
  40   2.0000      -0.592678       -16.1276
  41   2.0000      -0.574621       -15.6362
  42   2.0000      -0.572385       -15.5754
  43   2.0000      -0.560039       -15.2394
  44   2.0000      -0.527492       -14.3538
  45   2.0000      -0.522250       -14.2112
  46   2.0000      -0.520708       -14.1692
  47   2.0000      -0.514664       -14.0047
  48   2.0000      -0.502116       -13.6633
  49   2.0000      -0.500577       -13.6214
  50   2.0000      -0.493674       -13.4335
  51   2.0000      -0.489669       -13.3246
  52   2.0000      -0.477521       -12.9940
  53   2.0000      -0.467323       -12.7165
  54   2.0000      -0.456860       -12.4318
  55   2.0000      -0.450087       -12.2475
  56   2.0000      -0.443938       -12.0802
  57   2.0000      -0.434361       -11.8196
  58   2.0000      -0.426072       -11.5940
  59   2.0000      -0.423921       -11.5355
  60   2.0000      -0.420095       -11.4314
  61   2.0000      -0.414050       -11.2669
  62   2.0000      -0.404338       -11.0026
  63   2.0000      -0.356366        -9.6972
  64   2.0000      -0.335653        -9.1336
  65   2.0000      -0.324512        -8.8304
  66   2.0000      -0.285124        -7.7586
  67   0.0000       0.012392         0.3372
  68   0.0000       0.076723         2.0877
  69   0.0000       0.091904         2.5008
  70   0.0000       0.104236         2.8364
  71   0.0000       0.133170         3.6237

MULLIKEN ATOMIC CHARGES
-----------------------
   0 S :    0.104890
   1 C :   -0.135875
   2 C :   -0.043363
   3 C :   -0.020280
   4 C :   -0.108660
   5 H :    0.020365
   6 C :    0.009831
   7 H :    0.050618
   8 H :    0.016286
   9 C :   -0.104398
  10 H :    0.028647
  11 H :    0.037100
  12 C :   -0.019685
  13 H :    0.026360
  14 H :    0.043093
  15 H :    0.025186
  16 S :    0.100269
  17 C :   -0.090945
  18 C :   -0.032517
  19 C :   -0.080876
  20 C :   -0.109316
  21 H :    0.013052
  22 C :    0.086906
  23 H :   -0.023743
  24 H :    0.036489
  25 C :   -0.100300
  26 H :    0.035321
  27 H :    0.020213
  28 C :   -0.022375
  29 H :    0.013385
  30 H :    0.044147
  31 H :    0.050744
  32 H :    0.056010
  33 H :    0.073419
Sum of atomic charges:    0.0000000

LOEWDIN ATOMIC CHARGES
----------------------
   0 S :    0.386526
   1 C :   -0.178253
   2 C :   -0.062262
   3 C :   -0.077552
   4 C :   -0.186302
   5 H :    0.037075
   6 C :   -0.038164
   7 H :    0.036123
   8 H :    0.024326
   9 C :   -0.044215
  10 H :    0.024868
  11 H :    0.023806
  12 C :   -0.068029
  13 H :    0.030995
  14 H :    0.031970
  15 H :    0.023450
  16 S :    0.406312
  17 C :   -0.199694
  18 C :   -0.070225
  19 C :   -0.050124
  20 C :   -0.178890
  21 H :    0.023986
  22 C :   -0.041889
  23 H :    0.018119
  24 H :    0.029287
  25 C :   -0.039492
  26 H :    0.025204
  27 H :    0.018456
  28 C :   -0.064015
  29 H :    0.021971
  30 H :    0.031483
  31 H :    0.032472
  32 H :    0.035542
  33 H :    0.037132

  Mayer bond orders larger than 0.100000
B(  0-S ,  1-C ) :   1.1068 B(  0-S ,  4-C ) :   1.1545 B(  1-C ,  2-C ) :   1.6187
B(  1-C ,  4-C ) :   0.1016 B(  1-C , 32-H ) :   0.9666 B(  2-C ,  3-C ) :   1.2683
B(  2-C ,  6-C ) :   0.9991 B(  3-C ,  4-C ) :   1.5592 B(  3-C ,  5-H ) :   0.9748
B(  4-C , 20-C ) :   1.0692 B(  6-C ,  7-H ) :   0.9479 B(  6-C ,  8-H ) :   0.9465
B(  6-C ,  9-C ) :   1.0594 B(  9-C , 10-H ) :   0.9534 B(  9-C , 11-H ) :   0.9650
B(  9-C , 12-C ) :   1.0778 B( 12-C , 13-H ) :   0.9715 B( 12-C , 14-H ) :   0.9729
B( 12-C , 15-H ) :   0.9713 B( 16-S , 17-C ) :   1.1773 B( 16-S , 20-C ) :   1.1314
B( 17-C , 18-C ) :   1.5708 B( 17-C , 33-H ) :   0.9651 B( 18-C , 19-C ) :   1.2554
B( 18-C , 21-H ) :   0.9904 B( 19-C , 20-C ) :   1.5613 B( 19-C , 22-C ) :   1.0672
B( 22-C , 23-H ) :   0.9110 B( 22-C , 24-H ) :   0.9192 B( 22-C , 25-C ) :   1.0564
B( 25-C , 26-H ) :   0.9570 B( 25-C , 27-H ) :   0.9512 B( 25-C , 28-C ) :   1.0748
B( 28-C , 29-H ) :   0.9730 B( 28-C , 30-H ) :   0.9728 B( 28-C , 31-H ) :   0.9749

Dispersion correction           -0.013868824
FINAL SINGLE POINT ENERGY     -1339.847489570517

DIPOLE MOMENT
-------------
                                X             Y             Z
Electronic contribution:     -3.90422      21.32611      23.36070
Nuclear contribution   :      4.05313     -21.97763     -23.65904
                        -----------------------------------------
Total Dipole Moment    :      0.14891      -0.65152      -0.29834
                        -----------------------------------------
Magnitude (a.u.)       :      0.73189
Magnitude (Debye)      :      1.86032

Rotational constants in cm-1:     0.019140     0.008267     0.006156
Rotational constants in MHz :   573.804800   247.850030   184.558333

                             ****ORCA TERMINATED NORMALLY****
TOTAL RUN TIME: 0 days 0 hours 0 minutes 28 seconds 365 msec
