                         Program Version 4.2.1 -  RELEASE  -
|  1> ! wB97X-D3 SP def2-SVP
|  2> %pal
|  3> nprocs 16
|  4> end
|  5>
|  6> * xyz 0 1
|  7> S 	 -46.3987 	 66.8651 	 131.158
|  8> C 	 -46.9574 	 65.9259 	 129.774
|  9> C 	 -47.0853 	 64.5628 	 130.031
| 10> C 	 -46.7551 	 64.3221 	 131.417
| 11> C 	 -46.4531 	 65.4197 	 132.206
| 12> H 	 -46.8106 	 63.3549 	 131.899
| 13> C 	 -47.3628 	 63.4058 	 129.088
| 14> H 	 -48.1535 	 63.8202 	 128.465
| 15> H 	 -47.8023 	 62.5108 	 129.722
| 16> C 	 -46.0546 	 63.0064 	 128.329
| 17> H 	 -46.1932 	 62.2122 	 127.588
| 18> H 	 -45.7513 	 63.8833 	 127.747
| 19> C 	 -44.9192 	 62.5762 	 129.23
| 20> H 	 -45.3072 	 61.8967 	 129.968
| 21> H 	 -44.1308 	 62.1496 	 128.701
| 22> H 	 -44.4925 	 63.4693 	 129.752
| 23> S 	 -44.6021 	 66.2262 	 134.23
| 24> C 	 -45.1816 	 66.1319 	 135.891
| 25> C 	 -46.4442 	 65.6393 	 135.948
| 26> C 	 -47.0153 	 65.2356 	 134.712
| 27> C 	 -46.1637 	 65.4831 	 133.624
| 28> H 	 -46.9155 	 65.702 	 136.873
| 29> C 	 -48.4184 	 64.6701 	 134.612
| 30> H 	 -48.7432 	 64.3227 	 135.522
| 31> H 	 -48.2843 	 63.7843 	 134.012
| 32> C 	 -49.5641 	 65.4984 	 134.006
| 33> H 	 -49.383 	 65.8626 	 132.951
| 34> H 	 -49.563 	 66.4479 	 134.557
| 35> C 	 -50.8191 	 64.6793 	 133.884
| 36> H 	 -50.6649 	 63.8254 	 133.276
| 37> H 	 -51.5247 	 65.3531 	 133.397
| 38> H 	 -51.1141 	 64.2766 	 134.878
| 39> H 	 -47.1165 	 66.3002 	 128.753
| 40> H 	 -44.6344 	 66.6692 	 136.671
| 41> *
| 42>
| 43>                          ****END OF INPUT****

CARTESIAN COORDINATES (ANGSTROEM)
---------------------------------
  S    -46.398700   66.865100  131.158000
  C    -46.957400   65.925900  129.774000
  C    -47.085300   64.562800  130.031000
  C    -46.755100   64.322100  131.417000
  C    -46.453100   65.419700  132.206000
  H    -46.810600   63.354900  131.899000
  C    -47.362800   63.405800  129.088000
  H    -48.153500   63.820200  128.465000
  H    -47.802300   62.510800  129.722000
  C    -46.054600   63.006400  128.329000
  H    -46.193200   62.212200  127.588000
  H    -45.751300   63.883300  127.747000
  C    -44.919200   62.576200  129.230000
  H    -45.307200   61.896700  129.968000
  H    -44.130800   62.149600  128.701000
  H    -44.492500   63.469300  129.752000
  S    -44.602100   66.226200  134.230000
  C    -45.181600   66.131900  135.891000
  C    -46.444200   65.639300  135.948000
  C    -47.015300   65.235600  134.712000
  C    -46.163700   65.483100  133.624000
  H    -46.915500   65.702000  136.873000
  C    -48.418400   64.670100  134.612000
  H    -48.743200   64.322700  135.522000
  H    -48.284300   63.784300  134.012000
  C    -49.564100   65.498400  134.006000
  H    -49.383000   65.862600  132.951000
  H    -49.563000   66.447900  134.557000
  C    -50.819100   64.679300  133.884000
  H    -50.664900   63.825400  133.276000
  H    -51.524700   65.353100  133.397000
  H    -51.114100   64.276600  134.878000
  H    -47.116500   66.300200  128.753000
  H    -44.634400   66.669200  136.671000

 Total Charge           Charge          ....    0
 Multiplicity           Mult            ....    1
 Number of Electrons    NEL             ....  134
 Basis Dimension        Dim             ....  322

ORBITAL ENERGIES
----------------

  NO   OCC          E(Eh)            E(eV)
   0   2.0000     -88.967634     -2420.9324
   1   2.0000     -88.963026     -2420.8070
   2   2.0000     -10.331897      -281.1452
   3   2.0000     -10.330783      -281.1149
   4   2.0000     -10.319511      -280.8082
   5   2.0000     -10.317924      -280.7650
   6   2.0000     -10.307322      -280.4765
   7   2.0000     -10.307277      -280.4753
   8   2.0000     -10.303698      -280.3779
   9   2.0000     -10.294155      -280.1182
  10   2.0000     -10.289544      -279.9927
  11   2.0000     -10.287498      -279.9370
  12   2.0000     -10.284163      -279.8463
  13   2.0000     -10.282005      -279.7876
  14   2.0000     -10.276111      -279.6272
  15   2.0000     -10.269767      -279.4546
  16   2.0000      -8.081344      -219.9045
  17   2.0000      -8.076651      -219.7768
  18   2.0000      -6.040018      -164.3572
  19   2.0000      -6.036006      -164.2481
  20   2.0000      -6.035220      -164.2267
  21   2.0000      -6.031960      -164.1380
  22   2.0000      -6.031368      -164.1219
  23   2.0000      -6.027359      -164.0128
  24   2.0000      -0.997585       -27.1457
  25   2.0000      -0.977525       -26.5998
  26   2.0000      -0.911098       -24.7922
  27   2.0000      -0.910397       -24.7732
  28   2.0000      -0.867962       -23.6185
  29   2.0000      -0.852431       -23.1958
  30   2.0000      -0.843243       -22.9458
  31   2.0000      -0.813722       -22.1425
  32   2.0000      -0.784819       -21.3560
  33   2.0000      -0.770752       -20.9732
  34   2.0000      -0.706474       -19.2241
  35   2.0000      -0.700402       -19.0589
  36   2.0000      -0.691433       -18.8148
  37   2.0000      -0.659918       -17.9573
  38   2.0000      -0.636194       -17.3117
  39   2.0000      -0.613910       -16.7054
  40   2.0000      -0.597560       -16.2604
  41   2.0000      -0.571252       -15.5446
  42   2.0000      -0.565426       -15.3860
  43   2.0000      -0.555985       -15.1291
  44   2.0000      -0.543070       -14.7777
  45   2.0000      -0.531194       -14.4545
  46   2.0000      -0.514484       -13.9998
  47   2.0000      -0.506188       -13.7741
  48   2.0000      -0.500269       -13.6130
  49   2.0000      -0.496742       -13.5170
  50   2.0000      -0.489520       -13.3205
  51   2.0000      -0.478879       -13.0310
  52   2.0000      -0.469292       -12.7701
  53   2.0000      -0.465542       -12.6680
  54   2.0000      -0.458008       -12.4630
  55   2.0000      -0.448756       -12.2113
  56   2.0000      -0.442283       -12.0351
  57   2.0000      -0.434696       -11.8287
  58   2.0000      -0.431580       -11.7439
  59   2.0000      -0.426077       -11.5941
  60   2.0000      -0.421221       -11.4620
  61   2.0000      -0.415672       -11.3110
  62   2.0000      -0.405640       -11.0380
  63   2.0000      -0.339807        -9.2466
  64   2.0000      -0.331451        -9.0192
  65   2.0000      -0.328955        -8.9513
  66   2.0000      -0.294448        -8.0123
  67   0.0000       0.026350         0.7170
  68   0.0000       0.059560         1.6207
  69   0.0000       0.110209         2.9989
  70   0.0000       0.123192         3.3522
  71   0.0000       0.127970         3.4822

MULLIKEN ATOMIC CHARGES
-----------------------
   0 S :    0.115761
   1 C :   -0.127302
   2 C :   -0.105328
   3 C :    0.029499
   4 C :   -0.165877
   5 H :    0.009523
   6 C :    0.032834
   7 H :    0.036438
   8 H :    0.049796
   9 C :   -0.064734
  10 H :    0.032695
  11 H :    0.024628
  12 C :   -0.034085
  13 H :    0.023455
  14 H :    0.023966
  15 H :    0.052924
  16 S :    0.081834
  17 C :   -0.100305
  18 C :   -0.009591
  19 C :   -0.016514
  20 C :   -0.172004
  21 H :   -0.003452
  22 C :    0.125917
  23 H :   -0.015654
  24 H :    0.006130
  25 C :   -0.095986
  26 H :    0.037783
  27 H :    0.030242
  28 C :   -0.014089
  29 H :    0.022316
  30 H :    0.042329
  31 H :    0.026680
  32 H :    0.049940
  33 H :    0.070231
Sum of atomic charges:   -0.0000000

LOEWDIN ATOMIC CHARGES
----------------------
   0 S :    0.388567
   1 C :   -0.197399
   2 C :   -0.068013
   3 C :   -0.058972
   4 C :   -0.188163
   5 H :    0.026858
   6 C :   -0.035965
   7 H :    0.032750
   8 H :    0.041726
   9 C :   -0.039874
  10 H :    0.023022
  11 H :    0.024324
  12 C :   -0.060332
  13 H :    0.021581
  14 H :    0.018653
  15 H :    0.036110
  16 S :    0.361337
  17 C :   -0.173382
  18 C :   -0.071171
  19 C :   -0.040592
  20 C :   -0.180745
  21 H :    0.023683
  22 C :   -0.027397
  23 H :    0.016597
  24 H :    0.030037
  25 C :   -0.043815
  26 H :    0.031380
  27 H :    0.023727
  28 C :   -0.058468
  29 H :    0.021451
  30 H :    0.032820
  31 H :    0.024770
  32 H :    0.031085
  33 H :    0.033808

  Mayer bond orders larger than 0.100000
B(  0-S ,  1-C ) :   1.1403 B(  0-S ,  4-C ) :   1.1172 B(  1-C ,  2-C ) :   1.6240
B(  1-C , 32-H ) :   0.9597 B(  2-C ,  3-C ) :   1.2291 B(  2-C ,  6-C ) :   1.0030
B(  3-C ,  4-C ) :   1.6033 B(  3-C ,  5-H ) :   0.9872 B(  4-C , 20-C ) :   1.0749
B(  6-C ,  7-H ) :   0.9394 B(  6-C ,  8-H ) :   0.9475 B(  6-C ,  9-C ) :   1.0604
B(  9-C , 10-H ) :   0.9603 B(  9-C , 11-H ) :   0.9543 B(  9-C , 12-C ) :   1.0843
B( 12-C , 13-H ) :   0.9745 B( 12-C , 14-H ) :   0.9711 B( 12-C , 15-H ) :   0.9686
B( 16-S , 17-C ) :   1.1485 B( 16-S , 20-C ) :   1.1189 B( 17-C , 18-C ) :   1.6184
B( 17-C , 33-H ) :   0.9617 B( 18-C , 19-C ) :   1.2335 B( 18-C , 21-H ) :   1.0016
B( 19-C , 20-C ) :   1.5868 B( 19-C , 22-C ) :   1.0370 B( 22-C , 23-H ) :   0.9264
B( 22-C , 24-H ) :   0.9236 B( 22-C , 25-C ) :   1.0590 B( 25-C , 26-H ) :   0.9522
B( 25-C , 27-H ) :   0.9559 B( 25-C , 28-C ) :   1.0757 B( 28-C , 29-H ) :   0.9721
B( 28-C , 30-H ) :   0.9726 B( 28-C , 31-H ) :   0.9731

Dispersion correction           -0.015195423
FINAL SINGLE POINT ENERGY     -1339.874639438080

DIPOLE MOMENT
-------------
                                X             Y             Z
Electronic contribution:     14.38162      15.94168       7.89892
Nuclear contribution   :    -14.79869     -16.29493      -7.97025
                        -----------------------------------------
Total Dipole Moment    :     -0.41706      -0.35325      -0.07133
                        -----------------------------------------
Magnitude (a.u.)       :      0.55120
Magnitude (Debye)      :      1.40103

Rotational constants in cm-1:     0.017863     0.009243     0.007474
Rotational constants in MHz :   535.527484   277.111514   224.055529

                             ****ORCA TERMINATED NORMALLY****
TOTAL RUN TIME: 0 days 0 hours 0 minutes 36 seconds 283 msec
