                         Program Version 4.2.1 -  RELEASE  -
|  1> ! wB97X-D3 SP def2-SVP
|  2> %pal
|  3> nprocs 16
|  4> end
|  5>
|  6> * xyz 0 1
|  7> S 	 56.7576 	 2.79728 	 81.5695
|  8> C 	 56.8742 	 1.52804 	 80.4231
|  9> C 	 55.8622 	 1.66112 	 79.5044
| 10> C 	 54.8634 	 2.67913 	 79.8041
| 11> C 	 55.2364 	 3.35776 	 80.9546
| 12> H 	 54.0218 	 2.97249 	 79.2103
| 13> C 	 55.6138 	 0.746999 	 78.3057
| 14> H 	 56.6034 	 0.375304 	 77.9619
| 15> H 	 55.154 	 1.40805 	 77.4561
| 16> C 	 54.8162 	 -0.426879 	 78.588
| 17> H 	 54.643 	 -0.968291 	 77.6435
| 18> H 	 55.1143 	 -1.03308 	 79.4612
| 19> C 	 53.4289 	 -0.0458199 	 78.8489
| 20> H 	 52.8171 	 -0.969798 	 79.0467
| 21> H 	 53.2415 	 0.598657 	 79.7436
| 22> H 	 52.9772 	 0.546345 	 78.0913
| 23> S 	 55.9353 	 5.95038 	 81.1968
| 24> C 	 54.8315 	 7.20273 	 81.4408
| 25> C 	 53.5799 	 6.65531 	 81.6343
| 26> C 	 53.4789 	 5.24068 	 81.4378
| 27> C 	 54.7328 	 4.66341 	 81.2643
| 28> H 	 52.7407 	 7.27024 	 81.8793
| 29> C 	 52.188 	 4.49262 	 81.5745
| 30> H 	 52.2273 	 3.51126 	 81.0822
| 31> H 	 51.3539 	 5.00869 	 81.0905
| 32> C 	 51.8313 	 4.21651 	 83.0102
| 33> H 	 51.833 	 5.15146 	 83.6398
| 34> H 	 52.622 	 3.53973 	 83.4719
| 35> C 	 50.4376 	 3.57496 	 83.1177
| 36> H 	 50.204 	 2.87677 	 82.271
| 37> H 	 49.6629 	 4.37878 	 83.0209
| 38> H 	 50.2113 	 3.03763 	 83.981
| 39> H 	 57.721 	 0.88285 	 80.3602
| 40> H 	 54.9747 	 8.22976 	 81.5616
| 41> *
| 42>
| 43>                          ****END OF INPUT****

CARTESIAN COORDINATES (ANGSTROEM)
---------------------------------
  S     56.757600    2.797280   81.569500
  C     56.874200    1.528040   80.423100
  C     55.862200    1.661120   79.504400
  C     54.863400    2.679130   79.804100
  C     55.236400    3.357760   80.954600
  H     54.021800    2.972490   79.210300
  C     55.613800    0.746999   78.305700
  H     56.603400    0.375304   77.961900
  H     55.154000    1.408050   77.456100
  C     54.816200   -0.426879   78.588000
  H     54.643000   -0.968291   77.643500
  H     55.114300   -1.033080   79.461200
  C     53.428900   -0.045820   78.848900
  H     52.817100   -0.969798   79.046700
  H     53.241500    0.598657   79.743600
  H     52.977200    0.546345   78.091300
  S     55.935300    5.950380   81.196800
  C     54.831500    7.202730   81.440800
  C     53.579900    6.655310   81.634300
  C     53.478900    5.240680   81.437800
  C     54.732800    4.663410   81.264300
  H     52.740700    7.270240   81.879300
  C     52.188000    4.492620   81.574500
  H     52.227300    3.511260   81.082200
  H     51.353900    5.008690   81.090500
  C     51.831300    4.216510   83.010200
  H     51.833000    5.151460   83.639800
  H     52.622000    3.539730   83.471900
  C     50.437600    3.574960   83.117700
  H     50.204000    2.876770   82.271000
  H     49.662900    4.378780   83.020900
  H     50.211300    3.037630   83.981000
  H     57.721000    0.882850   80.360200
  H     54.974700    8.229760   81.561600

 Total Charge           Charge          ....    0
 Multiplicity           Mult            ....    1
 Number of Electrons    NEL             ....  134
 Basis Dimension        Dim             ....  322

ORBITAL ENERGIES
----------------

  NO   OCC          E(Eh)            E(eV)
   0   2.0000     -88.967380     -2420.9255
   1   2.0000     -88.960594     -2420.7408
   2   2.0000     -10.328148      -281.0432
   3   2.0000     -10.324815      -280.9525
   4   2.0000     -10.313827      -280.6535
   5   2.0000     -10.307186      -280.4728
   6   2.0000     -10.303533      -280.3734
   7   2.0000     -10.300700      -280.2963
   8   2.0000     -10.297353      -280.2052
   9   2.0000     -10.295166      -280.1457
  10   2.0000     -10.290870      -280.0288
  11   2.0000     -10.289630      -279.9951
  12   2.0000     -10.287571      -279.9390
  13   2.0000     -10.279286      -279.7136
  14   2.0000     -10.277668      -279.6696
  15   2.0000     -10.269840      -279.4566
  16   2.0000      -8.083082      -219.9518
  17   2.0000      -8.076340      -219.7684
  18   2.0000      -6.041542      -164.3987
  19   2.0000      -6.037338      -164.2843
  20   2.0000      -6.034902      -164.2180
  21   2.0000      -6.033939      -164.1918
  22   2.0000      -6.030452      -164.0969
  23   2.0000      -6.027205      -164.0086
  24   2.0000      -1.014986       -27.6192
  25   2.0000      -0.990484       -26.9524
  26   2.0000      -0.930951       -25.3325
  27   2.0000      -0.913906       -24.8687
  28   2.0000      -0.878838       -23.9144
  29   2.0000      -0.852381       -23.1945
  30   2.0000      -0.845205       -22.9992
  31   2.0000      -0.815378       -22.1876
  32   2.0000      -0.781786       -21.2735
  33   2.0000      -0.773032       -21.0353
  34   2.0000      -0.707035       -19.2394
  35   2.0000      -0.695690       -18.9307
  36   2.0000      -0.690437       -18.7877
  37   2.0000      -0.664982       -18.0951
  38   2.0000      -0.648900       -17.6575
  39   2.0000      -0.615526       -16.7493
  40   2.0000      -0.602061       -16.3829
  41   2.0000      -0.584397       -15.9023
  42   2.0000      -0.562042       -15.2939
  43   2.0000      -0.553626       -15.0649
  44   2.0000      -0.550479       -14.9793
  45   2.0000      -0.525786       -14.3074
  46   2.0000      -0.523061       -14.2332
  47   2.0000      -0.515738       -14.0340
  48   2.0000      -0.511249       -13.9118
  49   2.0000      -0.505136       -13.7454
  50   2.0000      -0.489235       -13.3128
  51   2.0000      -0.482029       -13.1167
  52   2.0000      -0.473047       -12.8723
  53   2.0000      -0.465450       -12.6655
  54   2.0000      -0.454983       -12.3807
  55   2.0000      -0.446490       -12.1496
  56   2.0000      -0.441510       -12.0141
  57   2.0000      -0.437390       -11.9020
  58   2.0000      -0.434168       -11.8143
  59   2.0000      -0.420794       -11.4504
  60   2.0000      -0.415170       -11.2973
  61   2.0000      -0.410539       -11.1713
  62   2.0000      -0.403030       -10.9670
  63   2.0000      -0.353989        -9.6325
  64   2.0000      -0.329195        -8.9578
  65   2.0000      -0.326202        -8.8764
  66   2.0000      -0.292078        -7.9478
  67   0.0000       0.031566         0.8590
  68   0.0000       0.070840         1.9276
  69   0.0000       0.112947         3.0734
  70   0.0000       0.123974         3.3735
  71   0.0000       0.129493         3.5237

MULLIKEN ATOMIC CHARGES
-----------------------
   0 S :    0.108286
   1 C :   -0.099951
   2 C :   -0.102809
   3 C :    0.037535
   4 C :   -0.130464
   5 H :    0.022922
   6 C :    0.013267
   7 H :    0.020435
   8 H :    0.044700
   9 C :    0.007038
  10 H :    0.033226
  11 H :    0.040182
  12 C :   -0.099762
  13 H :    0.034086
  14 H :    0.033314
  15 H :    0.007347
  16 S :    0.105958
  17 C :   -0.048393
  18 C :   -0.047133
  19 C :   -0.035564
  20 C :   -0.154203
  21 H :    0.004221
  22 C :    0.062307
  23 H :    0.017986
  24 H :    0.021947
  25 C :   -0.100767
  26 H :    0.036452
  27 H :    0.042967
  28 C :   -0.036564
  29 H :    0.025567
  30 H :    0.029241
  31 H :    0.025846
  32 H :    0.045755
  33 H :    0.035023
Sum of atomic charges:    0.0000000

LOEWDIN ATOMIC CHARGES
----------------------
   0 S :    0.429589
   1 C :   -0.204008
   2 C :   -0.059245
   3 C :   -0.050657
   4 C :   -0.205584
   5 H :    0.031629
   6 C :   -0.041323
   7 H :    0.028026
   8 H :    0.041917
   9 C :   -0.052623
  10 H :    0.036110
  11 H :    0.035377
  12 C :   -0.072950
  13 H :    0.029077
  14 H :    0.022457
  15 H :    0.012758
  16 S :    0.427306
  17 C :   -0.201661
  18 C :   -0.070175
  19 C :   -0.060989
  20 C :   -0.191333
  21 H :    0.023660
  22 C :   -0.037258
  23 H :    0.030733
  24 H :    0.029936
  25 C :   -0.044568
  26 H :    0.027377
  27 H :    0.031806
  28 C :   -0.069410
  29 H :    0.027437
  30 H :    0.028785
  31 H :    0.016353
  32 H :    0.027470
  33 H :    0.023983

  Mayer bond orders larger than 0.100000
B(  0-S ,  1-C ) :   1.1342 B(  0-S ,  4-C ) :   1.1659 B(  1-C ,  2-C ) :   1.6077
B(  1-C , 32-H ) :   0.9765 B(  2-C ,  3-C ) :   1.2410 B(  2-C ,  6-C ) :   1.0211
B(  3-C ,  4-C ) :   1.5364 B(  3-C ,  5-H ) :   0.9930 B(  4-C , 20-C ) :   1.0421
B(  6-C ,  7-H ) :   0.9346 B(  6-C ,  8-H ) :   0.9411 B(  6-C ,  9-C ) :   1.0983
B(  9-C , 10-H ) :   0.9424 B(  9-C , 11-H ) :   0.9433 B(  9-C , 12-C ) :   1.0878
B( 12-C , 13-H ) :   0.9700 B( 12-C , 14-H ) :   0.9622 B( 12-C , 15-H ) :   0.9701
B( 16-S , 17-C ) :   1.1645 B( 16-S , 20-C ) :   1.1484 B( 17-C , 18-C ) :   1.5870
B( 17-C , 33-H ) :   0.9749 B( 18-C , 19-C ) :   1.2591 B( 18-C , 21-H ) :   0.9911
B( 19-C , 20-C ) :   1.5808 B( 19-C , 22-C ) :   1.0586 B( 22-C , 23-H ) :   0.9265
B( 22-C , 24-H ) :   0.9326 B( 22-C , 25-C ) :   1.0687 B( 25-C , 26-H ) :   0.9585
B( 25-C , 27-H ) :   0.9543 B( 25-C , 28-C ) :   1.0687 B( 28-C , 29-H ) :   0.9732
B( 28-C , 30-H ) :   0.9740 B( 28-C , 31-H ) :   0.9759

Dispersion correction           -0.014354402
FINAL SINGLE POINT ENERGY     -1339.869842097563

DIPOLE MOMENT
-------------
                                X             Y             Z
Electronic contribution:     23.34982      14.91983       4.21506
Nuclear contribution   :    -23.75888     -15.11485      -4.48706
                        -----------------------------------------
Total Dipole Moment    :     -0.40906      -0.19502      -0.27200
                        -----------------------------------------
Magnitude (a.u.)       :      0.52853
Magnitude (Debye)      :      1.34343

Rotational constants in cm-1:     0.017414     0.009695     0.007133
Rotational constants in MHz :   522.059550   290.652407   213.837432

                             ****ORCA TERMINATED NORMALLY****
TOTAL RUN TIME: 0 days 0 hours 0 minutes 30 seconds 841 msec
