                         Program Version 4.2.1 -  RELEASE  -
|  1> ! wB97X-D3 SP def2-SVP
|  2> %pal
|  3> nprocs 16
|  4> end
|  5>
|  6> * xyz 0 1
|  7> S 	 -113.872 	 57.6789 	 111.241
|  8> C 	 -113.256 	 56.5712 	 110.016
|  9> C 	 -112.963 	 55.3414 	 110.542
| 10> C 	 -113.048 	 55.394 	 111.988
| 11> C 	 -113.704 	 56.465 	 112.526
| 12> H 	 -112.717 	 54.59 	 112.639
| 13> C 	 -112.374 	 54.2379 	 109.695
| 14> H 	 -111.414 	 54.0599 	 110.056
| 15> H 	 -112.333 	 54.5299 	 108.659
| 16> C 	 -113.182 	 52.8503 	 109.699
| 17> H 	 -113.374 	 52.5563 	 110.739
| 18> H 	 -114.118 	 52.9824 	 109.354
| 19> C 	 -112.509 	 51.6559 	 108.894
| 20> H 	 -112.978 	 50.6209 	 109.149
| 21> H 	 -112.743 	 51.8431 	 107.879
| 22> H 	 -111.427 	 51.673 	 108.901
| 23> S 	 -113.463 	 58.2599 	 114.574
| 24> C 	 -113.855 	 57.7979 	 116.175
| 25> C 	 -114.455 	 56.6273 	 116.272
| 26> C 	 -114.514 	 55.9734 	 114.989
| 27> C 	 -113.999 	 56.7629 	 113.968
| 28> H 	 -114.554 	 56.3463 	 117.279
| 29> C 	 -114.847 	 54.4828 	 114.846
| 30> H 	 -114.589 	 54.1743 	 113.813
| 31> H 	 -115.885 	 54.1757 	 115.025
| 32> C 	 -113.901 	 53.5421 	 115.626
| 33> H 	 -113.824 	 53.7774 	 116.665
| 34> H 	 -112.876 	 53.6958 	 115.247
| 35> C 	 -114.278 	 52.0766 	 115.357
| 36> H 	 -114.397 	 51.8921 	 114.359
| 37> H 	 -115.251 	 51.8072 	 115.847
| 38> H 	 -113.483 	 51.3588 	 115.69
| 39> H 	 -113.155 	 56.8658 	 108.983
| 40> H 	 -113.585 	 58.3562 	 117.071
| 41> *
| 42>
| 43>                          ****END OF INPUT****

CARTESIAN COORDINATES (ANGSTROEM)
---------------------------------
  S    -113.872000   57.678900  111.241000
  C    -113.256000   56.571200  110.016000
  C    -112.963000   55.341400  110.542000
  C    -113.048000   55.394000  111.988000
  C    -113.704000   56.465000  112.526000
  H    -112.717000   54.590000  112.639000
  C    -112.374000   54.237900  109.695000
  H    -111.414000   54.059900  110.056000
  H    -112.333000   54.529900  108.659000
  C    -113.182000   52.850300  109.699000
  H    -113.374000   52.556300  110.739000
  H    -114.118000   52.982400  109.354000
  C    -112.509000   51.655900  108.894000
  H    -112.978000   50.620900  109.149000
  H    -112.743000   51.843100  107.879000
  H    -111.427000   51.673000  108.901000
  S    -113.463000   58.259900  114.574000
  C    -113.855000   57.797900  116.175000
  C    -114.455000   56.627300  116.272000
  C    -114.514000   55.973400  114.989000
  C    -113.999000   56.762900  113.968000
  H    -114.554000   56.346300  117.279000
  C    -114.847000   54.482800  114.846000
  H    -114.589000   54.174300  113.813000
  H    -115.885000   54.175700  115.025000
  C    -113.901000   53.542100  115.626000
  H    -113.824000   53.777400  116.665000
  H    -112.876000   53.695800  115.247000
  C    -114.278000   52.076600  115.357000
  H    -114.397000   51.892100  114.359000
  H    -115.251000   51.807200  115.847000
  H    -113.483000   51.358800  115.690000
  H    -113.155000   56.865800  108.983000
  H    -113.585000   58.356200  117.071000

 Total Charge           Charge          ....    0
 Multiplicity           Mult            ....    1
 Number of Electrons    NEL             ....  134
 Basis Dimension        Dim             ....  322

ORBITAL ENERGIES
----------------

  NO   OCC          E(Eh)            E(eV)
   0   2.0000     -88.962806     -2420.8010
   1   2.0000     -88.962747     -2420.7994
   2   2.0000     -10.335591      -281.2457
   3   2.0000     -10.329270      -281.0737
   4   2.0000     -10.315019      -280.6859
   5   2.0000     -10.309476      -280.5351
   6   2.0000     -10.308308      -280.5033
   7   2.0000     -10.304017      -280.3865
   8   2.0000     -10.296918      -280.1934
   9   2.0000     -10.294212      -280.1198
  10   2.0000     -10.292752      -280.0800
  11   2.0000     -10.287446      -279.9356
  12   2.0000     -10.286204      -279.9018
  13   2.0000     -10.285802      -279.8909
  14   2.0000     -10.285588      -279.8851
  15   2.0000     -10.278188      -279.6837
  16   2.0000      -8.079634      -219.8580
  17   2.0000      -8.077215      -219.7922
  18   2.0000      -6.038003      -164.3024
  19   2.0000      -6.035913      -164.2455
  20   2.0000      -6.033850      -164.1894
  21   2.0000      -6.031769      -164.1328
  22   2.0000      -6.030403      -164.0956
  23   2.0000      -6.027784      -164.0243
  24   2.0000      -1.015360       -27.6293
  25   2.0000      -0.989287       -26.9199
  26   2.0000      -0.909138       -24.7389
  27   2.0000      -0.904896       -24.6235
  28   2.0000      -0.873508       -23.7694
  29   2.0000      -0.851257       -23.1639
  30   2.0000      -0.843015       -22.9396
  31   2.0000      -0.824711       -22.4415
  32   2.0000      -0.781626       -21.2691
  33   2.0000      -0.770857       -20.9761
  34   2.0000      -0.714588       -19.4449
  35   2.0000      -0.702286       -19.1102
  36   2.0000      -0.696601       -18.9555
  37   2.0000      -0.659854       -17.9555
  38   2.0000      -0.641965       -17.4687
  39   2.0000      -0.626426       -17.0459
  40   2.0000      -0.600108       -16.3298
  41   2.0000      -0.573166       -15.5966
  42   2.0000      -0.567203       -15.4344
  43   2.0000      -0.558137       -15.1877
  44   2.0000      -0.522809       -14.2263
  45   2.0000      -0.520140       -14.1537
  46   2.0000      -0.515982       -14.0406
  47   2.0000      -0.511760       -13.9257
  48   2.0000      -0.504560       -13.7298
  49   2.0000      -0.501489       -13.6462
  50   2.0000      -0.492478       -13.4010
  51   2.0000      -0.485504       -13.2112
  52   2.0000      -0.472319       -12.8525
  53   2.0000      -0.469410       -12.7733
  54   2.0000      -0.463644       -12.6164
  55   2.0000      -0.451435       -12.2842
  56   2.0000      -0.443886       -12.0788
  57   2.0000      -0.441083       -12.0025
  58   2.0000      -0.432898       -11.7798
  59   2.0000      -0.426207       -11.5977
  60   2.0000      -0.422347       -11.4927
  61   2.0000      -0.418111       -11.3774
  62   2.0000      -0.415015       -11.2931
  63   2.0000      -0.356608        -9.7038
  64   2.0000      -0.331504        -9.0207
  65   2.0000      -0.326806        -8.8929
  66   2.0000      -0.298238        -8.1155
  67   0.0000       0.035204         0.9579
  68   0.0000       0.077935         2.1207
  69   0.0000       0.113667         3.0930
  70   0.0000       0.120951         3.2912
  71   0.0000       0.124323         3.3830

MULLIKEN ATOMIC CHARGES
-----------------------
   0 S :    0.086449
   1 C :   -0.126657
   2 C :   -0.081584
   3 C :    0.025877
   4 C :   -0.124968
   5 H :    0.012940
   6 C :    0.096592
   7 H :    0.023146
   8 H :    0.016294
   9 C :   -0.063635
  10 H :    0.020691
  11 H :    0.004556
  12 C :   -0.064072
  13 H :    0.056801
  14 H :    0.021170
  15 H :    0.032855
  16 S :    0.113031
  17 C :   -0.103205
  18 C :   -0.005764
  19 C :   -0.018488
  20 C :   -0.136341
  21 H :    0.004229
  22 C :    0.041758
  23 H :    0.013722
  24 H :    0.036158
  25 C :   -0.084727
  26 H :    0.024015
  27 H :    0.024614
  28 C :   -0.033806
  29 H :    0.005595
  30 H :    0.035703
  31 H :    0.040988
  32 H :    0.051403
  33 H :    0.054660
Sum of atomic charges:   -0.0000000

LOEWDIN ATOMIC CHARGES
----------------------
   0 S :    0.376423
   1 C :   -0.181781
   2 C :   -0.063821
   3 C :   -0.064581
   4 C :   -0.178412
   5 H :    0.027893
   6 C :   -0.016731
   7 H :    0.024386
   8 H :    0.028227
   9 C :   -0.029530
  10 H :    0.019792
  11 H :    0.007095
  12 C :   -0.070565
  13 H :    0.042283
  14 H :    0.018631
  15 H :    0.022790
  16 S :    0.432356
  17 C :   -0.186879
  18 C :   -0.072770
  19 C :   -0.050055
  20 C :   -0.210435
  21 H :    0.031129
  22 C :   -0.033880
  23 H :    0.029585
  24 H :    0.029453
  25 C :   -0.038872
  26 H :    0.014308
  27 H :    0.023414
  28 C :   -0.062429
  29 H :    0.009311
  30 H :    0.030287
  31 H :    0.033324
  32 H :    0.027439
  33 H :    0.032612

  Mayer bond orders larger than 0.100000
B(  0-S ,  1-C ) :   1.1330 B(  0-S ,  4-C ) :   1.1313 B(  1-C ,  2-C ) :   1.6263
B(  1-C , 32-H ) :   0.9692 B(  2-C ,  3-C ) :   1.2085 B(  2-C ,  6-C ) :   1.0409
B(  3-C ,  4-C ) :   1.6168 B(  3-C ,  5-H ) :   0.9817 B(  4-C , 20-C ) :   1.0056
B(  6-C ,  7-H ) :   0.9365 B(  6-C ,  8-H ) :   0.9456 B(  6-C ,  9-C ) :   1.0461
B(  9-C , 10-H ) :   0.9645 B(  9-C , 11-H ) :   0.9591 B(  9-C , 12-C ) :   1.0649
B( 12-C , 13-H ) :   0.9755 B( 12-C , 14-H ) :   0.9774 B( 12-C , 15-H ) :   0.9792
B( 16-S , 17-C ) :   1.1548 B( 16-S , 20-C ) :   1.1541 B( 17-C , 18-C ) :   1.6690
B( 17-C , 33-H ) :   0.9597 B( 18-C , 19-C ) :   1.1862 B( 18-C , 21-H ) :   0.9992
B( 19-C , 20-C ) :   1.6259 B( 19-C , 22-C ) :   1.0439 B( 22-C , 23-H ) :   0.9381
B( 22-C , 24-H ) :   0.9422 B( 22-C , 25-C ) :   1.0483 B( 25-C , 26-H ) :   0.9574
B( 25-C , 27-H ) :   0.9534 B( 25-C , 28-C ) :   1.0818 B( 28-C , 29-H ) :   0.9733
B( 28-C , 30-H ) :   0.9735 B( 28-C , 31-H ) :   0.9735

Dispersion correction           -0.013759807
FINAL SINGLE POINT ENERGY     -1339.860621373623

DIPOLE MOMENT
-------------
                                X             Y             Z
Electronic contribution:     -2.24788      33.61774       4.32558
Nuclear contribution   :      2.51157     -34.28422      -4.24436
                        -----------------------------------------
Total Dipole Moment    :      0.26369      -0.66648       0.08122
                        -----------------------------------------
Magnitude (a.u.)       :      0.72133
Magnitude (Debye)      :      1.83348

Rotational constants in cm-1:     0.016986     0.009134     0.006185
Rotational constants in MHz :   509.229104   273.844258   185.416097

                             ****ORCA TERMINATED NORMALLY****
TOTAL RUN TIME: 0 days 0 hours 0 minutes 34 seconds 178 msec
