                         Program Version 4.2.1 -  RELEASE  -
|  1> ! wB97X-D3 SP def2-SVP
|  2> %pal
|  3> nprocs 16
|  4> end
|  5>
|  6> * xyz 0 1
|  7> S 	 -35.3743 	 49.8108 	 102.523
|  8> C 	 -33.9655 	 50.4745 	 103.368
|  9> C 	 -34.3108 	 51.3843 	 104.33
| 10> C 	 -35.6997 	 51.7628 	 104.257
| 11> C 	 -36.4671 	 50.9819 	 103.367
| 12> H 	 -36.0222 	 52.651 	 104.802
| 13> C 	 -33.3497 	 52.1746 	 105.167
| 14> H 	 -32.378 	 51.5934 	 105.403
| 15> H 	 -33.8688 	 52.2843 	 106.107
| 16> C 	 -33.1982 	 53.623 	 104.723
| 17> H 	 -34.1894 	 54.0396 	 104.406
| 18> H 	 -32.7535 	 54.3167 	 105.511
| 19> C 	 -32.2241 	 53.703 	 103.532
| 20> H 	 -32.1666 	 54.7332 	 103.167
| 21> H 	 -31.2124 	 53.4712 	 103.961
| 22> H 	 -32.5411 	 53.1603 	 102.596
| 23> S 	 -38.2987 	 51.3302 	 101.363
| 24> C 	 -39.9316 	 51.4229 	 101.693
| 25> C 	 -40.2069 	 51.1009 	 103.014
| 26> C 	 -39.0192 	 50.9625 	 103.825
| 27> C 	 -37.8991 	 51.1184 	 103.098
| 28> H 	 -41.274 	 51.0625 	 103.175
| 29> C 	 -38.9822 	 50.6954 	 105.322
| 30> H 	 -38.0051 	 50.4035 	 105.668
| 31> H 	 -39.581 	 49.7699 	 105.33
| 32> C 	 -39.6008 	 51.7693 	 106.155
| 33> H 	 -40.6214 	 51.9845 	 105.85
| 34> H 	 -39.098 	 52.7456 	 106.123
| 35> C 	 -39.5037 	 51.3607 	 107.556
| 36> H 	 -38.5267 	 51.0231 	 107.792
| 37> H 	 -40.2069 	 50.4672 	 107.687
| 38> H 	 -39.7123 	 52.2177 	 108.166
| 39> H 	 -32.9226 	 50.1548 	 103.174
| 40> H 	 -40.6529 	 51.6014 	 100.979
| 41> *
| 42>
| 43>                          ****END OF INPUT****

CARTESIAN COORDINATES (ANGSTROEM)
---------------------------------
  S    -35.374300   49.810800  102.523000
  C    -33.965500   50.474500  103.368000
  C    -34.310800   51.384300  104.330000
  C    -35.699700   51.762800  104.257000
  C    -36.467100   50.981900  103.367000
  H    -36.022200   52.651000  104.802000
  C    -33.349700   52.174600  105.167000
  H    -32.378000   51.593400  105.403000
  H    -33.868800   52.284300  106.107000
  C    -33.198200   53.623000  104.723000
  H    -34.189400   54.039600  104.406000
  H    -32.753500   54.316700  105.511000
  C    -32.224100   53.703000  103.532000
  H    -32.166600   54.733200  103.167000
  H    -31.212400   53.471200  103.961000
  H    -32.541100   53.160300  102.596000
  S    -38.298700   51.330200  101.363000
  C    -39.931600   51.422900  101.693000
  C    -40.206900   51.100900  103.014000
  C    -39.019200   50.962500  103.825000
  C    -37.899100   51.118400  103.098000
  H    -41.274000   51.062500  103.175000
  C    -38.982200   50.695400  105.322000
  H    -38.005100   50.403500  105.668000
  H    -39.581000   49.769900  105.330000
  C    -39.600800   51.769300  106.155000
  H    -40.621400   51.984500  105.850000
  H    -39.098000   52.745600  106.123000
  C    -39.503700   51.360700  107.556000
  H    -38.526700   51.023100  107.792000
  H    -40.206900   50.467200  107.687000
  H    -39.712300   52.217700  108.166000
  H    -32.922600   50.154800  103.174000
  H    -40.652900   51.601400  100.979000

 Total Charge           Charge          ....    0
 Multiplicity           Mult            ....    1
 Number of Electrons    NEL             ....  134
 Basis Dimension        Dim             ....  322

ORBITAL ENERGIES
----------------

  NO   OCC          E(Eh)            E(eV)
   0   2.0000     -88.966851     -2420.9111
   1   2.0000     -88.957259     -2420.6501
   2   2.0000     -10.338349      -281.3208
   3   2.0000     -10.322037      -280.8769
   4   2.0000     -10.316477      -280.7256
   5   2.0000     -10.307994      -280.4948
   6   2.0000     -10.305266      -280.4205
   7   2.0000     -10.299454      -280.2624
   8   2.0000     -10.298405      -280.2338
   9   2.0000     -10.296638      -280.1858
  10   2.0000     -10.296058      -280.1700
  11   2.0000     -10.293747      -280.1071
  12   2.0000     -10.288544      -279.9655
  13   2.0000     -10.280616      -279.7498
  14   2.0000     -10.278253      -279.6855
  15   2.0000     -10.271943      -279.5138
  16   2.0000      -8.080175      -219.8727
  17   2.0000      -8.073667      -219.6956
  18   2.0000      -6.038931      -164.3277
  19   2.0000      -6.034906      -164.2182
  20   2.0000      -6.031942      -164.1375
  21   2.0000      -6.030726      -164.1044
  22   2.0000      -6.027977      -164.0296
  23   2.0000      -6.024504      -163.9351
  24   2.0000      -1.006532       -27.3891
  25   2.0000      -0.980992       -26.6941
  26   2.0000      -0.925869       -25.1942
  27   2.0000      -0.912300       -24.8250
  28   2.0000      -0.872178       -23.7332
  29   2.0000      -0.855527       -23.2801
  30   2.0000      -0.840845       -22.8806
  31   2.0000      -0.810167       -22.0458
  32   2.0000      -0.782554       -21.2944
  33   2.0000      -0.772908       -21.0319
  34   2.0000      -0.707203       -19.2440
  35   2.0000      -0.699505       -19.0345
  36   2.0000      -0.686068       -18.6689
  37   2.0000      -0.661260       -17.9938
  38   2.0000      -0.630951       -17.1690
  39   2.0000      -0.624676       -16.9983
  40   2.0000      -0.602061       -16.3829
  41   2.0000      -0.573596       -15.6083
  42   2.0000      -0.567251       -15.4357
  43   2.0000      -0.545934       -14.8556
  44   2.0000      -0.542361       -14.7584
  45   2.0000      -0.539402       -14.6779
  46   2.0000      -0.520699       -14.1689
  47   2.0000      -0.512622       -13.9492
  48   2.0000      -0.506563       -13.7843
  49   2.0000      -0.495163       -13.4741
  50   2.0000      -0.486909       -13.2495
  51   2.0000      -0.479961       -13.0604
  52   2.0000      -0.467189       -12.7129
  53   2.0000      -0.460675       -12.5356
  54   2.0000      -0.455025       -12.3819
  55   2.0000      -0.450727       -12.2649
  56   2.0000      -0.444268       -12.0891
  57   2.0000      -0.439852       -11.9690
  58   2.0000      -0.429728       -11.6935
  59   2.0000      -0.423482       -11.5235
  60   2.0000      -0.421503       -11.4697
  61   2.0000      -0.412996       -11.2382
  62   2.0000      -0.401681       -10.9303
  63   2.0000      -0.344068        -9.3626
  64   2.0000      -0.330986        -9.0066
  65   2.0000      -0.324680        -8.8350
  66   2.0000      -0.295942        -8.0530
  67   0.0000       0.034381         0.9355
  68   0.0000       0.065534         1.7833
  69   0.0000       0.112447         3.0598
  70   0.0000       0.124423         3.3857
  71   0.0000       0.126437         3.4405

MULLIKEN ATOMIC CHARGES
-----------------------
   0 S :    0.103300
   1 C :   -0.135799
   2 C :   -0.080997
   3 C :    0.013571
   4 C :   -0.136978
   5 H :    0.022491
   6 C :    0.064809
   7 H :    0.044239
   8 H :    0.019812
   9 C :   -0.107598
  10 H :    0.039329
  11 H :    0.045831
  12 C :   -0.079872
  13 H :    0.026314
  14 H :    0.035299
  15 H :    0.053400
  16 S :    0.097437
  17 C :   -0.062722
  18 C :   -0.059140
  19 C :    0.008553
  20 C :   -0.184809
  21 H :    0.013570
  22 C :    0.071038
  23 H :    0.020267
  24 H :    0.030230
  25 C :   -0.066369
  26 H :    0.025649
  27 H :    0.022255
  28 C :   -0.004484
  29 H :    0.013521
  30 H :    0.030592
  31 H :    0.027717
  32 H :    0.059618
  33 H :    0.029925
Sum of atomic charges:   -0.0000000

LOEWDIN ATOMIC CHARGES
----------------------
   0 S :    0.368931
   1 C :   -0.191359
   2 C :   -0.070889
   3 C :   -0.059311
   4 C :   -0.176864
   5 H :    0.031436
   6 C :   -0.041615
   7 H :    0.040590
   8 H :    0.030398
   9 C :   -0.047145
  10 H :    0.027906
  11 H :    0.032642
  12 C :   -0.078718
  13 H :    0.022377
  14 H :    0.028084
  15 H :    0.032863
  16 S :    0.412517
  17 C :   -0.186529
  18 C :   -0.082287
  19 C :   -0.044568
  20 C :   -0.192049
  21 H :    0.031195
  22 C :   -0.024546
  23 H :    0.027640
  24 H :    0.039472
  25 C :   -0.045309
  26 H :    0.023985
  27 H :    0.025638
  28 C :   -0.057709
  29 H :    0.018002
  30 H :    0.032021
  31 H :    0.023118
  32 H :    0.035335
  33 H :    0.014747

  Mayer bond orders larger than 0.100000
B(  0-S ,  1-C ) :   1.1207 B(  0-S ,  4-C ) :   1.1286 B(  1-C ,  2-C ) :   1.6357
B(  1-C , 32-H ) :   0.9604 B(  2-C ,  3-C ) :   1.2202 B(  2-C ,  6-C ) :   1.0387
B(  3-C ,  4-C ) :   1.5798 B(  3-C ,  5-H ) :   0.9870 B(  4-C , 20-C ) :   1.0487
B(  6-C ,  7-H ) :   0.9464 B(  6-C ,  8-H ) :   0.9230 B(  6-C ,  9-C ) :   1.0606
B(  9-C , 10-H ) :   0.9516 B(  9-C , 11-H ) :   0.9555 B(  9-C , 12-C ) :   1.0758
B( 12-C , 13-H ) :   0.9733 B( 12-C , 14-H ) :   0.9761 B( 12-C , 15-H ) :   0.9739
B( 16-S , 17-C ) :   1.1843 B( 16-S , 20-C ) :   1.1176 B( 17-C , 18-C ) :   1.6145
B( 17-C , 33-H ) :   0.9753 B( 18-C , 19-C ) :   1.1802 B( 18-C , 21-H ) :   1.0013
B( 19-C , 20-C ) :   1.6454 B( 19-C , 22-C ) :   1.0217 B( 22-C , 23-H ) :   0.9341
B( 22-C , 24-H ) :   0.9260 B( 22-C , 25-C ) :   1.0769 B( 25-C , 26-H ) :   0.9484
B( 25-C , 27-H ) :   0.9492 B( 25-C , 28-C ) :   1.0995 B( 28-C , 29-H ) :   0.9677
B( 28-C , 30-H ) :   0.9708 B( 28-C , 31-H ) :   0.9715

Dispersion correction           -0.014066818
FINAL SINGLE POINT ENERGY     -1339.865939107058

DIPOLE MOMENT
-------------
                                X             Y             Z
Electronic contribution:     -5.38686     -11.76214     -21.30831
Nuclear contribution   :      5.28349      12.11694      21.81110
                        -----------------------------------------
Total Dipole Moment    :     -0.10336       0.35480       0.50279
                        -----------------------------------------
Magnitude (a.u.)       :      0.62399
Magnitude (Debye)      :      1.58605

Rotational constants in cm-1:     0.017854     0.008745     0.006901
Rotational constants in MHz :   535.262482   262.157936   206.889605

                             ****ORCA TERMINATED NORMALLY****
TOTAL RUN TIME: 0 days 0 hours 0 minutes 30 seconds 282 msec
