                         Program Version 4.2.1 -  RELEASE  -
|  1> ! wB97X-D3 SP def2-SVP
|  2> %pal
|  3> nprocs 16
|  4> end
|  5>
|  6> * xyz 0 1
|  7> S 	 12.3835 	 -13.3202 	 94.3526
|  8> C 	 13.596 	 -12.1482 	 94.1707
|  9> C 	 13.0849 	 -10.9284 	 93.9889
| 10> C 	 11.6401 	 -10.9071 	 94.1418
| 11> C 	 11.0995 	 -12.1471 	 94.3789
| 12> H 	 11.0587 	 -10.0129 	 94.1466
| 13> C 	 13.8657 	 -9.66116 	 93.7957
| 14> H 	 13.5531 	 -9.31629 	 92.8354
| 15> H 	 14.878 	 -9.98993 	 93.6642
| 16> C 	 13.7447 	 -8.59642 	 94.8492
| 17> H 	 14.2226 	 -7.71062 	 94.5738
| 18> H 	 12.7066 	 -8.19127 	 94.8446
| 19> C 	 14.0482 	 -9.02811 	 96.2734
| 20> H 	 14.0623 	 -8.10807 	 96.9329
| 21> H 	 13.3278 	 -9.70651 	 96.6616
| 22> H 	 15.054 	 -9.46484 	 96.473
| 23> S 	 9.18543 	 -13.3979 	 95.6287
| 24> C 	 7.53371 	 -13.3066 	 95.2346
| 25> C 	 7.3154 	 -12.3079 	 94.2716
| 26> C 	 8.5726 	 -11.8314 	 93.7349
| 27> C 	 9.64622 	 -12.3985 	 94.4021
| 28> H 	 6.3222 	 -12.0368 	 93.8772
| 29> C 	 8.53983 	 -10.845 	 92.5945
| 30> H 	 7.75958 	 -11.1361 	 91.9023
| 31> H 	 9.50977 	 -10.8942 	 92.098
| 32> C 	 8.30415 	 -9.38505 	 92.9768
| 33> H 	 8.78982 	 -9.02464 	 93.8808
| 34> H 	 7.29126 	 -9.26623 	 93.2357
| 35> C 	 8.44094 	 -8.39437 	 91.7682
| 36> H 	 9.19558 	 -8.71156 	 91.0459
| 37> H 	 8.72666 	 -7.33422 	 92.0536
| 38> H 	 7.47073 	 -8.35477 	 91.2409
| 39> H 	 14.6298 	 -12.3308 	 94.2513
| 40> H 	 6.69097 	 -13.8521 	 95.676
| 41> *
| 42>
| 43>                          ****END OF INPUT****

CARTESIAN COORDINATES (ANGSTROEM)
---------------------------------
  S     12.383500  -13.320200   94.352600
  C     13.596000  -12.148200   94.170700
  C     13.084900  -10.928400   93.988900
  C     11.640100  -10.907100   94.141800
  C     11.099500  -12.147100   94.378900
  H     11.058700  -10.012900   94.146600
  C     13.865700   -9.661160   93.795700
  H     13.553100   -9.316290   92.835400
  H     14.878000   -9.989930   93.664200
  C     13.744700   -8.596420   94.849200
  H     14.222600   -7.710620   94.573800
  H     12.706600   -8.191270   94.844600
  C     14.048200   -9.028110   96.273400
  H     14.062300   -8.108070   96.932900
  H     13.327800   -9.706510   96.661600
  H     15.054000   -9.464840   96.473000
  S      9.185430  -13.397900   95.628700
  C      7.533710  -13.306600   95.234600
  C      7.315400  -12.307900   94.271600
  C      8.572600  -11.831400   93.734900
  C      9.646220  -12.398500   94.402100
  H      6.322200  -12.036800   93.877200
  C      8.539830  -10.845000   92.594500
  H      7.759580  -11.136100   91.902300
  H      9.509770  -10.894200   92.098000
  C      8.304150   -9.385050   92.976800
  H      8.789820   -9.024640   93.880800
  H      7.291260   -9.266230   93.235700
  C      8.440940   -8.394370   91.768200
  H      9.195580   -8.711560   91.045900
  H      8.726660   -7.334220   92.053600
  H      7.470730   -8.354770   91.240900
  H     14.629800  -12.330800   94.251300
  H      6.690970  -13.852100   95.676000

 Total Charge           Charge          ....    0
 Multiplicity           Mult            ....    1
 Number of Electrons    NEL             ....  134
 Basis Dimension        Dim             ....  322

ORBITAL ENERGIES
----------------

  NO   OCC          E(Eh)            E(eV)
   0   2.0000     -88.964903     -2420.8581
   1   2.0000     -88.962050     -2420.7805
   2   2.0000     -10.326800      -281.0065
   3   2.0000     -10.319945      -280.8200
   4   2.0000     -10.314511      -280.6721
   5   2.0000     -10.302307      -280.3400
   6   2.0000     -10.302288      -280.3395
   7   2.0000     -10.296932      -280.1938
   8   2.0000     -10.291737      -280.0524
   9   2.0000     -10.290514      -280.0191
  10   2.0000     -10.288039      -279.9518
  11   2.0000     -10.286354      -279.9059
  12   2.0000     -10.283778      -279.8358
  13   2.0000     -10.283633      -279.8319
  14   2.0000     -10.283346      -279.8241
  15   2.0000     -10.278257      -279.6856
  16   2.0000      -8.082485      -219.9356
  17   2.0000      -8.078142      -219.8174
  18   2.0000      -6.040787      -164.3782
  19   2.0000      -6.036763      -164.2687
  20   2.0000      -6.036396      -164.2587
  21   2.0000      -6.033465      -164.1789
  22   2.0000      -6.032359      -164.1488
  23   2.0000      -6.028812      -164.0523
  24   2.0000      -1.020427       -27.7672
  25   2.0000      -0.997313       -27.1383
  26   2.0000      -0.917287       -24.9606
  27   2.0000      -0.911344       -24.7989
  28   2.0000      -0.874080       -23.7849
  29   2.0000      -0.852099       -23.1868
  30   2.0000      -0.845197       -22.9990
  31   2.0000      -0.817121       -22.2350
  32   2.0000      -0.783112       -21.3096
  33   2.0000      -0.774126       -21.0650
  34   2.0000      -0.710830       -19.3427
  35   2.0000      -0.703882       -19.1536
  36   2.0000      -0.693434       -18.8693
  37   2.0000      -0.668392       -18.1879
  38   2.0000      -0.641654       -17.4603
  39   2.0000      -0.623065       -16.9544
  40   2.0000      -0.595563       -16.2061
  41   2.0000      -0.569411       -15.4945
  42   2.0000      -0.564725       -15.3669
  43   2.0000      -0.556190       -15.1347
  44   2.0000      -0.543892       -14.8000
  45   2.0000      -0.521492       -14.1905
  46   2.0000      -0.520388       -14.1605
  47   2.0000      -0.512093       -13.9348
  48   2.0000      -0.505367       -13.7517
  49   2.0000      -0.501285       -13.6407
  50   2.0000      -0.494081       -13.4446
  51   2.0000      -0.483979       -13.1697
  52   2.0000      -0.473140       -12.8748
  53   2.0000      -0.466968       -12.7069
  54   2.0000      -0.457409       -12.4467
  55   2.0000      -0.450028       -12.2459
  56   2.0000      -0.445926       -12.1343
  57   2.0000      -0.440438       -11.9849
  58   2.0000      -0.437268       -11.8987
  59   2.0000      -0.425731       -11.5847
  60   2.0000      -0.421605       -11.4724
  61   2.0000      -0.415735       -11.3127
  62   2.0000      -0.407819       -11.0973
  63   2.0000      -0.351827        -9.5737
  64   2.0000      -0.328580        -8.9411
  65   2.0000      -0.326715        -8.8904
  66   2.0000      -0.297451        -8.0941
  67   0.0000       0.036771         1.0006
  68   0.0000       0.084890         2.3100
  69   0.0000       0.120646         3.2829
  70   0.0000       0.124534         3.3887
  71   0.0000       0.130323         3.5463

MULLIKEN ATOMIC CHARGES
-----------------------
   0 S :    0.114072
   1 C :   -0.105830
   2 C :   -0.116080
   3 C :    0.009405
   4 C :   -0.103839
   5 H :   -0.010765
   6 C :    0.131224
   7 H :    0.020274
   8 H :   -0.000501
   9 C :   -0.034866
  10 H :    0.008971
  11 H :    0.017051
  12 C :   -0.064364
  13 H :    0.034101
  14 H :    0.043459
  15 H :    0.030203
  16 S :    0.133672
  17 C :   -0.094340
  18 C :   -0.057489
  19 C :   -0.060084
  20 C :   -0.154665
  21 H :    0.027894
  22 C :    0.076314
  23 H :    0.025192
  24 H :    0.026468
  25 C :   -0.056400
  26 H :    0.031465
  27 H :    0.006787
  28 C :   -0.082737
  29 H :    0.031885
  30 H :    0.044487
  31 H :    0.038959
  32 H :    0.027765
  33 H :    0.062312
Sum of atomic charges:   -0.0000000

LOEWDIN ATOMIC CHARGES
----------------------
   0 S :    0.420994
   1 C :   -0.203823
   2 C :   -0.065377
   3 C :   -0.060134
   4 C :   -0.202813
   5 H :    0.023418
   6 C :   -0.027008
   7 H :    0.031792
   8 H :    0.024488
   9 C :   -0.042934
  10 H :    0.018263
  11 H :    0.029296
  12 C :   -0.068165
  13 H :    0.033954
  14 H :    0.023468
  15 H :    0.025911
  16 S :    0.480106
  17 C :   -0.213074
  18 C :   -0.070439
  19 C :   -0.058972
  20 C :   -0.230711
  21 H :    0.033491
  22 C :   -0.029372
  23 H :    0.032458
  24 H :    0.029838
  25 C :   -0.042768
  26 H :    0.021905
  27 H :    0.017952
  28 C :   -0.072117
  29 H :    0.021615
  30 H :    0.033521
  31 H :    0.027893
  32 H :    0.023163
  33 H :    0.034182

  Mayer bond orders larger than 0.100000
B(  0-S ,  1-C ) :   1.1333 B(  0-S ,  4-C ) :   1.1526 B(  1-C ,  2-C ) :   1.6293
B(  1-C , 32-H ) :   0.9693 B(  2-C ,  3-C ) :   1.2233 B(  2-C ,  6-C ) :   1.0207
B(  3-C ,  4-C ) :   1.5706 B(  3-C ,  5-H ) :   1.0101 B(  4-C , 20-C ) :   1.0009
B(  6-C ,  7-H ) :   0.9250 B(  6-C ,  8-H ) :   0.9350 B(  6-C ,  9-C ) :   1.0859
B(  9-C , 10-H ) :   0.9507 B(  9-C , 11-H ) :   0.9433 B(  9-C , 12-C ) :   1.0743
B( 12-C , 13-H ) :   0.9721 B( 12-C , 14-H ) :   0.9734 B( 12-C , 15-H ) :   0.9769
B( 16-S , 17-C ) :   1.1831 B( 16-S , 20-C ) :   1.1895 B( 17-C , 18-C ) :   1.5681
B( 17-C , 33-H ) :   0.9687 B( 18-C , 19-C ) :   1.2702 B( 18-C , 21-H ) :   0.9856
B( 19-C , 20-C ) :   1.5688 B( 19-C , 22-C ) :   1.0535 B( 22-C , 23-H ) :   0.9315
B( 22-C , 24-H ) :   0.9335 B( 22-C , 25-C ) :   1.0620 B( 25-C , 26-H ) :   0.9593
B( 25-C , 27-H ) :   0.9513 B( 25-C , 28-C ) :   1.0625 B( 28-C , 29-H ) :   0.9789
B( 28-C , 30-H ) :   0.9771 B( 28-C , 31-H ) :   0.9807

Dispersion correction           -0.014656649
FINAL SINGLE POINT ENERGY     -1339.881121348546

DIPOLE MOMENT
-------------
                                X             Y             Z
Electronic contribution:     -2.35620     -27.56577       6.88176
Nuclear contribution   :      2.23441      28.23054      -7.06398
                        -----------------------------------------
Total Dipole Moment    :     -0.12179       0.66477      -0.18222
                        -----------------------------------------
Magnitude (a.u.)       :      0.69997
Magnitude (Debye)      :      1.77919

Rotational constants in cm-1:     0.016711     0.009985     0.007258
Rotational constants in MHz :   500.992466   299.357155   217.597945

                             ****ORCA TERMINATED NORMALLY****
TOTAL RUN TIME: 0 days 0 hours 0 minutes 34 seconds 640 msec
