                         Program Version 4.2.1 -  RELEASE  -
|  1> ! wB97X-D3 SP def2-SVP
|  2> %pal
|  3> nprocs 16
|  4> end
|  5>
|  6> * xyz 0 1
|  7> S 	 -49.6882 	 6.10109 	 95.663
|  8> C 	 -50.2586 	 5.24032 	 96.9892
|  9> C 	 -50.5045 	 3.87631 	 96.6969
| 10> C 	 -50.1095 	 3.5395 	 95.3489
| 11> C 	 -49.7365 	 4.60358 	 94.6638
| 12> H 	 -50.1399 	 2.54773 	 94.843
| 13> C 	 -51.0869 	 2.82843 	 97.6928
| 14> H 	 -50.563 	 3.004 	 98.5905
| 15> H 	 -50.9646 	 1.80582 	 97.3103
| 16> C 	 -52.6487 	 2.95384 	 97.8877
| 17> H 	 -52.9938 	 2.38715 	 98.7741
| 18> H 	 -52.8515 	 4.03069 	 97.9966
| 19> C 	 -53.5747 	 2.56048 	 96.7142
| 20> H 	 -54.6187 	 2.71309 	 97.0502
| 21> H 	 -53.556 	 3.25806 	 95.89
| 22> H 	 -53.396 	 1.49626 	 96.4469
| 23> S 	 -50.7844 	 4.5594 	 92.261
| 24> C 	 -49.8668 	 4.86218 	 90.885
| 25> C 	 -48.4898 	 4.87969 	 91.1629
| 26> C 	 -48.2354 	 4.8894 	 92.5709
| 27> C 	 -49.4101 	 4.72705 	 93.2934
| 28> H 	 -47.8274 	 4.82457 	 90.3353
| 29> C 	 -46.8159 	 4.9323 	 93.1013
| 30> H 	 -46.156 	 4.08561 	 92.8183
| 31> H 	 -46.9031 	 5.00623 	 94.1577
| 32> C 	 -45.9862 	 6.22007 	 92.7696
| 33> H 	 -45.1238 	 6.39629 	 93.3964
| 34> H 	 -46.5775 	 7.09703 	 92.9362
| 35> C 	 -45.3566 	 6.20613 	 91.3565
| 36> H 	 -44.3243 	 6.63629 	 91.414
| 37> H 	 -46.0673 	 6.69907 	 90.6487
| 38> H 	 -45.2895 	 5.1707 	 91.0162
| 39> H 	 -50.3879 	 5.65122 	 98.0177
| 40> H 	 -50.1995 	 4.81552 	 89.9318
| 41> *
| 42>
| 43>                          ****END OF INPUT****

CARTESIAN COORDINATES (ANGSTROEM)
---------------------------------
  S    -49.688200    6.101090   95.663000
  C    -50.258600    5.240320   96.989200
  C    -50.504500    3.876310   96.696900
  C    -50.109500    3.539500   95.348900
  C    -49.736500    4.603580   94.663800
  H    -50.139900    2.547730   94.843000
  C    -51.086900    2.828430   97.692800
  H    -50.563000    3.004000   98.590500
  H    -50.964600    1.805820   97.310300
  C    -52.648700    2.953840   97.887700
  H    -52.993800    2.387150   98.774100
  H    -52.851500    4.030690   97.996600
  C    -53.574700    2.560480   96.714200
  H    -54.618700    2.713090   97.050200
  H    -53.556000    3.258060   95.890000
  H    -53.396000    1.496260   96.446900
  S    -50.784400    4.559400   92.261000
  C    -49.866800    4.862180   90.885000
  C    -48.489800    4.879690   91.162900
  C    -48.235400    4.889400   92.570900
  C    -49.410100    4.727050   93.293400
  H    -47.827400    4.824570   90.335300
  C    -46.815900    4.932300   93.101300
  H    -46.156000    4.085610   92.818300
  H    -46.903100    5.006230   94.157700
  C    -45.986200    6.220070   92.769600
  H    -45.123800    6.396290   93.396400
  H    -46.577500    7.097030   92.936200
  C    -45.356600    6.206130   91.356500
  H    -44.324300    6.636290   91.414000
  H    -46.067300    6.699070   90.648700
  H    -45.289500    5.170700   91.016200
  H    -50.387900    5.651220   98.017700
  H    -50.199500    4.815520   89.931800

 Total Charge           Charge          ....    0
 Multiplicity           Mult            ....    1
 Number of Electrons    NEL             ....  134
 Basis Dimension        Dim             ....  322

ORBITAL ENERGIES
----------------

  NO   OCC          E(Eh)            E(eV)
   0   2.0000     -88.965389     -2420.8713
   1   2.0000     -88.964104     -2420.8363
   2   2.0000     -10.319661      -280.8122
   3   2.0000     -10.318597      -280.7833
   4   2.0000     -10.315485      -280.6986
   5   2.0000     -10.305928      -280.4386
   6   2.0000     -10.305119      -280.4166
   7   2.0000     -10.304995      -280.4132
   8   2.0000     -10.293955      -280.1128
   9   2.0000     -10.293815      -280.1089
  10   2.0000     -10.290582      -280.0210
  11   2.0000     -10.290238      -280.0116
  12   2.0000     -10.288890      -279.9749
  13   2.0000     -10.279260      -279.7129
  14   2.0000     -10.279204      -279.7114
  15   2.0000     -10.278776      -279.6997
  16   2.0000      -8.081810      -219.9172
  17   2.0000      -8.079521      -219.8549
  18   2.0000      -6.040037      -164.3578
  19   2.0000      -6.037887      -164.2993
  20   2.0000      -6.036017      -164.2484
  21   2.0000      -6.034039      -164.1945
  22   2.0000      -6.032818      -164.1613
  23   2.0000      -6.030268      -164.0919
  24   2.0000      -1.015443       -27.6316
  25   2.0000      -0.988500       -26.8985
  26   2.0000      -0.905663       -24.6443
  27   2.0000      -0.900197       -24.4956
  28   2.0000      -0.876961       -23.8633
  29   2.0000      -0.850568       -23.1451
  30   2.0000      -0.846947       -23.0466
  31   2.0000      -0.815103       -22.1801
  32   2.0000      -0.782960       -21.3054
  33   2.0000      -0.766977       -20.8705
  34   2.0000      -0.702606       -19.1189
  35   2.0000      -0.691273       -18.8105
  36   2.0000      -0.690474       -18.7888
  37   2.0000      -0.667243       -18.1566
  38   2.0000      -0.644451       -17.5364
  39   2.0000      -0.612980       -16.6800
  40   2.0000      -0.596737       -16.2380
  41   2.0000      -0.572953       -15.5908
  42   2.0000      -0.552051       -15.0221
  43   2.0000      -0.549051       -14.9405
  44   2.0000      -0.543908       -14.8005
  45   2.0000      -0.542270       -14.7559
  46   2.0000      -0.515989       -14.0408
  47   2.0000      -0.509275       -13.8581
  48   2.0000      -0.505072       -13.7437
  49   2.0000      -0.495721       -13.4893
  50   2.0000      -0.483483       -13.1562
  51   2.0000      -0.473914       -12.8959
  52   2.0000      -0.471451       -12.8288
  53   2.0000      -0.465959       -12.6794
  54   2.0000      -0.464479       -12.6391
  55   2.0000      -0.444193       -12.0871
  56   2.0000      -0.443145       -12.0586
  57   2.0000      -0.437149       -11.8954
  58   2.0000      -0.434954       -11.8357
  59   2.0000      -0.426210       -11.5978
  60   2.0000      -0.417209       -11.3528
  61   2.0000      -0.409201       -11.1349
  62   2.0000      -0.401964       -10.9380
  63   2.0000      -0.347535        -9.4569
  64   2.0000      -0.331112        -9.0100
  65   2.0000      -0.321119        -8.7381
  66   2.0000      -0.298698        -8.1280
  67   0.0000       0.043459         1.1826
  68   0.0000       0.060964         1.6589
  69   0.0000       0.102125         2.7790
  70   0.0000       0.119576         3.2538
  71   0.0000       0.130699         3.5565

MULLIKEN ATOMIC CHARGES
-----------------------
   0 S :    0.125170
   1 C :   -0.124028
   2 C :   -0.132382
   3 C :    0.038538
   4 C :   -0.176657
   5 H :    0.033530
   6 C :    0.105918
   7 H :    0.026086
   8 H :    0.021212
   9 C :   -0.100208
  10 H :    0.039141
  11 H :    0.024076
  12 C :   -0.067447
  13 H :    0.033509
  14 H :    0.037775
  15 H :    0.038507
  16 S :    0.138987
  17 C :   -0.041772
  18 C :   -0.057339
  19 C :    0.027526
  20 C :   -0.204634
  21 H :    0.009613
  22 C :    0.069274
  23 H :    0.048016
  24 H :    0.013145
  25 C :   -0.084319
  26 H :    0.023326
  27 H :    0.023919
  28 C :   -0.077465
  29 H :    0.046230
  30 H :    0.046096
  31 H :    0.021189
  32 H :    0.063639
  33 H :    0.011831
Sum of atomic charges:   -0.0000000

LOEWDIN ATOMIC CHARGES
----------------------
   0 S :    0.410690
   1 C :   -0.225855
   2 C :   -0.063696
   3 C :   -0.062528
   4 C :   -0.190051
   5 H :    0.046067
   6 C :   -0.026127
   7 H :    0.025819
   8 H :    0.028589
   9 C :   -0.044538
  10 H :    0.025277
  11 H :    0.022748
  12 C :   -0.071563
  13 H :    0.032099
  14 H :    0.024411
  15 H :    0.024704
  16 S :    0.459819
  17 C :   -0.190916
  18 C :   -0.065349
  19 C :   -0.049312
  20 C :   -0.216582
  21 H :    0.025594
  22 C :   -0.028867
  23 H :    0.036839
  24 H :    0.025175
  25 C :   -0.041650
  26 H :    0.023050
  27 H :    0.020665
  28 C :   -0.075589
  29 H :    0.032241
  30 H :    0.028867
  31 H :    0.018125
  32 H :    0.036636
  33 H :    0.005206

  Mayer bond orders larger than 0.100000
B(  0-S ,  1-C ) :   1.1574 B(  0-S ,  4-C ) :   1.1159 B(  1-C ,  2-C ) :   1.6163
B(  1-C , 32-H ) :   0.9596 B(  2-C ,  3-C ) :   1.2078 B(  2-C ,  6-C ) :   1.0144
B(  3-C ,  4-C ) :   1.6480 B(  3-C ,  5-H ) :   0.9878 B(  4-C , 20-C ) :   1.0191
B(  6-C ,  7-H ) :   0.9401 B(  6-C ,  8-H ) :   0.9491 B(  6-C ,  9-C ) :   1.0574
B(  9-C , 10-H ) :   0.9605 B(  9-C , 11-H ) :   0.9587 B(  9-C , 12-C ) :   1.0795
B( 12-C , 13-H ) :   0.9717 B( 12-C , 14-H ) :   0.9752 B( 12-C , 15-H ) :   0.9755
B( 16-S , 17-C ) :   1.1879 B( 16-S , 20-C ) :   1.1710 B( 17-C , 18-C ) :   1.5834
B( 17-C , 20-C ) :   0.1028 B( 17-C , 33-H ) :   0.9766 B( 18-C , 19-C ) :   1.2363
B( 18-C , 21-H ) :   0.9950 B( 19-C , 20-C ) :   1.5703 B( 19-C , 22-C ) :   1.0550
B( 22-C , 23-H ) :   0.9449 B( 22-C , 24-H ) :   0.9193 B( 22-C , 25-C ) :   1.0743
B( 25-C , 26-H ) :   0.9658 B( 25-C , 27-H ) :   0.9562 B( 25-C , 28-C ) :   1.0630
B( 28-C , 29-H ) :   0.9770 B( 28-C , 30-H ) :   0.9753 B( 28-C , 31-H ) :   0.9754

Dispersion correction           -0.014456534
FINAL SINGLE POINT ENERGY     -1339.862987599602

DIPOLE MOMENT
-------------
                                X             Y             Z
Electronic contribution:     -5.02483       5.70337      -4.27920
Nuclear contribution   :      5.13671      -6.01369       4.35598
                        -----------------------------------------
Total Dipole Moment    :      0.11188      -0.31032       0.07678
                        -----------------------------------------
Magnitude (a.u.)       :      0.33869
Magnitude (Debye)      :      0.86088

Rotational constants in cm-1:     0.026046     0.007471     0.006380
Rotational constants in MHz :   780.842522   223.987144   191.278631

                             ****ORCA TERMINATED NORMALLY****
TOTAL RUN TIME: 0 days 0 hours 0 minutes 29 seconds 855 msec
