                         Program Version 4.2.1 -  RELEASE  -
|  1> ! wB97X-D3 SP def2-SVP
|  2> %pal
|  3> nprocs 16
|  4> end
|  5>
|  6> * xyz 0 1
|  7> S 	 -55.5972 	 37.9423 	 92.2657
|  8> C 	 -57.2526 	 38.1072 	 92.6512
|  9> C 	 -58.0329 	 37.7571 	 91.5417
| 10> C 	 -57.267 	 37.4854 	 90.3628
| 11> C 	 -55.8734 	 37.7064 	 90.5496
| 12> H 	 -57.6376 	 37.2812 	 89.4148
| 13> C 	 -59.5354 	 37.7733 	 91.5776
| 14> H 	 -59.8744 	 37.7448 	 90.5609
| 15> H 	 -59.7459 	 38.7277 	 92.0246
| 16> C 	 -60.1793 	 36.5953 	 92.2925
| 17> H 	 -59.6845 	 36.4305 	 93.2489
| 18> H 	 -61.2464 	 36.7796 	 92.4992
| 19> C 	 -60.1442 	 35.2886 	 91.5623
| 20> H 	 -59.0876 	 34.9803 	 91.3117
| 21> H 	 -60.509 	 34.482 	 92.2202
| 22> H 	 -60.6852 	 35.1992 	 90.6396
| 23> S 	 -53.1736 	 37.8735 	 90.3229
| 24> C 	 -52.2376 	 37.4199 	 88.8857
| 25> C 	 -53.2311 	 37.3065 	 87.8993
| 26> C 	 -54.6176 	 37.3561 	 88.3019
| 27> C 	 -54.7348 	 37.6235 	 89.6522
| 28> H 	 -52.7874 	 37.2394 	 86.8546
| 29> C 	 -55.7471 	 37.198 	 87.3136
| 30> H 	 -55.3248 	 37.4475 	 86.3245
| 31> H 	 -56.432 	 38.0353 	 87.6004
| 32> C 	 -56.3926 	 35.793 	 87.3785
| 33> H 	 -57.2992 	 35.6327 	 86.6387
| 34> H 	 -56.7042 	 35.6936 	 88.3709
| 35> C 	 -55.3035 	 34.6852 	 87.0876
| 36> H 	 -54.6435 	 34.4867 	 87.9139
| 37> H 	 -54.7101 	 34.9899 	 86.18
| 38> H 	 -55.7294 	 33.7414 	 86.908
| 39> H 	 -57.603 	 38.2893 	 93.6344
| 40> H 	 -51.157 	 37.3287 	 88.9024
| 41> *
| 42>
| 43>                          ****END OF INPUT****

CARTESIAN COORDINATES (ANGSTROEM)
---------------------------------
  S    -55.597200   37.942300   92.265700
  C    -57.252600   38.107200   92.651200
  C    -58.032900   37.757100   91.541700
  C    -57.267000   37.485400   90.362800
  C    -55.873400   37.706400   90.549600
  H    -57.637600   37.281200   89.414800
  C    -59.535400   37.773300   91.577600
  H    -59.874400   37.744800   90.560900
  H    -59.745900   38.727700   92.024600
  C    -60.179300   36.595300   92.292500
  H    -59.684500   36.430500   93.248900
  H    -61.246400   36.779600   92.499200
  C    -60.144200   35.288600   91.562300
  H    -59.087600   34.980300   91.311700
  H    -60.509000   34.482000   92.220200
  H    -60.685200   35.199200   90.639600
  S    -53.173600   37.873500   90.322900
  C    -52.237600   37.419900   88.885700
  C    -53.231100   37.306500   87.899300
  C    -54.617600   37.356100   88.301900
  C    -54.734800   37.623500   89.652200
  H    -52.787400   37.239400   86.854600
  C    -55.747100   37.198000   87.313600
  H    -55.324800   37.447500   86.324500
  H    -56.432000   38.035300   87.600400
  C    -56.392600   35.793000   87.378500
  H    -57.299200   35.632700   86.638700
  H    -56.704200   35.693600   88.370900
  C    -55.303500   34.685200   87.087600
  H    -54.643500   34.486700   87.913900
  H    -54.710100   34.989900   86.180000
  H    -55.729400   33.741400   86.908000
  H    -57.603000   38.289300   93.634400
  H    -51.157000   37.328700   88.902400

 Total Charge           Charge          ....    0
 Multiplicity           Mult            ....    1
 Number of Electrons    NEL             ....  134
 Basis Dimension        Dim             ....  322

ORBITAL ENERGIES
----------------

  NO   OCC          E(Eh)            E(eV)
   0   2.0000     -88.966607     -2420.9045
   1   2.0000     -88.960428     -2420.7363
   2   2.0000     -10.337977      -281.3106
   3   2.0000     -10.330103      -281.0964
   4   2.0000     -10.325616      -280.9743
   5   2.0000     -10.311115      -280.5797
   6   2.0000     -10.305839      -280.4361
   7   2.0000     -10.305593      -280.4295
   8   2.0000     -10.302850      -280.3548
   9   2.0000     -10.298812      -280.2449
  10   2.0000     -10.297545      -280.2104
  11   2.0000     -10.296806      -280.1903
  12   2.0000     -10.286094      -279.8988
  13   2.0000     -10.284727      -279.8617
  14   2.0000     -10.276146      -279.6282
  15   2.0000     -10.275037      -279.5980
  16   2.0000      -8.081862      -219.9186
  17   2.0000      -8.075758      -219.7526
  18   2.0000      -6.040333      -164.3658
  19   2.0000      -6.036135      -164.2516
  20   2.0000      -6.034369      -164.2035
  21   2.0000      -6.032776      -164.1602
  22   2.0000      -6.030032      -164.0855
  23   2.0000      -6.026503      -163.9895
  24   2.0000      -1.011862       -27.5342
  25   2.0000      -0.987007       -26.8578
  26   2.0000      -0.917483       -24.9660
  27   2.0000      -0.908356       -24.7176
  28   2.0000      -0.872253       -23.7352
  29   2.0000      -0.851981       -23.1836
  30   2.0000      -0.838421       -22.8146
  31   2.0000      -0.818742       -22.2791
  32   2.0000      -0.780516       -21.2389
  33   2.0000      -0.773893       -21.0587
  34   2.0000      -0.710264       -19.3273
  35   2.0000      -0.701102       -19.0779
  36   2.0000      -0.695201       -18.9174
  37   2.0000      -0.669056       -18.2059
  38   2.0000      -0.644692       -17.5430
  39   2.0000      -0.615037       -16.7360
  40   2.0000      -0.588412       -16.0115
  41   2.0000      -0.574173       -15.6240
  42   2.0000      -0.563099       -15.3227
  43   2.0000      -0.556324       -15.1383
  44   2.0000      -0.545289       -14.8381
  45   2.0000      -0.537017       -14.6130
  46   2.0000      -0.521464       -14.1898
  47   2.0000      -0.516786       -14.0625
  48   2.0000      -0.506114       -13.7721
  49   2.0000      -0.499636       -13.5958
  50   2.0000      -0.490746       -13.3539
  51   2.0000      -0.479432       -13.0460
  52   2.0000      -0.473683       -12.8896
  53   2.0000      -0.468379       -12.7452
  54   2.0000      -0.454915       -12.3789
  55   2.0000      -0.446115       -12.1394
  56   2.0000      -0.441923       -12.0253
  57   2.0000      -0.438261       -11.9257
  58   2.0000      -0.429861       -11.6971
  59   2.0000      -0.426166       -11.5966
  60   2.0000      -0.422112       -11.4862
  61   2.0000      -0.413145       -11.2423
  62   2.0000      -0.400625       -10.9016
  63   2.0000      -0.364727        -9.9247
  64   2.0000      -0.333151        -9.0655
  65   2.0000      -0.323518        -8.8034
  66   2.0000      -0.281181        -7.6513
  67   0.0000       0.011102         0.3021
  68   0.0000       0.087755         2.3879
  69   0.0000       0.099433         2.7057
  70   0.0000       0.114240         3.1086
  71   0.0000       0.138523         3.7694

MULLIKEN ATOMIC CHARGES
-----------------------
   0 S :    0.106508
   1 C :   -0.095333
   2 C :   -0.125242
   3 C :    0.041412
   4 C :   -0.131863
   5 H :   -0.019090
   6 C :    0.114165
   7 H :    0.007258
   8 H :    0.032336
   9 C :   -0.052340
  10 H :    0.022179
  11 H :    0.031569
  12 C :   -0.078425
  13 H :    0.034799
  14 H :    0.034882
  15 H :    0.026732
  16 S :    0.070254
  17 C :   -0.111616
  18 C :   -0.057514
  19 C :   -0.095142
  20 C :   -0.086219
  21 H :    0.043729
  22 C :    0.040957
  23 H :    0.028609
  24 H :    0.047538
  25 C :   -0.067327
  26 H :    0.054438
  27 H :    0.019405
  28 C :   -0.047422
  29 H :    0.044325
  30 H :    0.032938
  31 H :    0.019238
  32 H :    0.040178
  33 H :    0.074083
Sum of atomic charges:    0.0000000

LOEWDIN ATOMIC CHARGES
----------------------
   0 S :    0.429528
   1 C :   -0.206929
   2 C :   -0.058924
   3 C :   -0.063807
   4 C :   -0.181905
   5 H :    0.015495
   6 C :   -0.028492
   7 H :    0.026157
   8 H :    0.034572
   9 C :   -0.042962
  10 H :    0.023908
  11 H :    0.027083
  12 C :   -0.071966
  13 H :    0.029108
  14 H :    0.030766
  15 H :    0.018597
  16 S :    0.401010
  17 C :   -0.183834
  18 C :   -0.077139
  19 C :   -0.069738
  20 C :   -0.202370
  21 H :    0.039468
  22 C :   -0.035961
  23 H :    0.031417
  24 H :    0.036213
  25 C :   -0.038190
  26 H :    0.036996
  27 H :    0.012718
  28 C :   -0.063628
  29 H :    0.027386
  30 H :    0.028896
  31 H :    0.017492
  32 H :    0.022610
  33 H :    0.036427

  Mayer bond orders larger than 0.100000
B(  0-S ,  1-C ) :   1.1573 B(  0-S ,  4-C ) :   1.1750 B(  1-C ,  2-C ) :   1.5548
B(  1-C ,  4-C ) :   0.1077 B(  1-C , 32-H ) :   0.9773 B(  2-C ,  3-C ) :   1.2854
B(  2-C ,  6-C ) :   1.0168 B(  3-C ,  4-C ) :   1.4972 B(  3-C ,  5-H ) :   0.9928
B(  4-C , 20-C ) :   1.0986 B(  6-C ,  7-H ) :   0.9392 B(  6-C ,  8-H ) :   0.9382
B(  6-C ,  9-C ) :   1.0718 B(  9-C , 10-H ) :   0.9552 B(  9-C , 11-H ) :   0.9530
B(  9-C , 12-C ) :   1.0870 B( 12-C , 13-H ) :   0.9732 B( 12-C , 14-H ) :   0.9706
B( 12-C , 15-H ) :   0.9739 B( 16-S , 17-C ) :   1.1458 B( 16-S , 20-C ) :   1.1539
B( 17-C , 18-C ) :   1.5725 B( 17-C , 20-C ) :   0.1042 B( 17-C , 33-H ) :   0.9781
B( 18-C , 19-C ) :   1.2571 B( 18-C , 21-H ) :   0.9779 B( 19-C , 20-C ) :   1.5511
B( 19-C , 22-C ) :   1.0219 B( 22-C , 23-H ) :   0.9405 B( 22-C , 24-H ) :   0.9395
B( 22-C , 25-C ) :   1.0542 B( 25-C , 26-H ) :   0.9607 B( 25-C , 27-H ) :   0.9516
B( 25-C , 28-C ) :   1.0700 B( 28-C , 29-H ) :   0.9720 B( 28-C , 30-H ) :   0.9787
B( 28-C , 31-H ) :   0.9739

Dispersion correction           -0.014982223
FINAL SINGLE POINT ENERGY     -1339.870680650504

DIPOLE MOMENT
-------------
                                X             Y             Z
Electronic contribution:     21.28082      13.83411      10.58335
Nuclear contribution   :    -21.66382     -14.04341     -10.89461
                        -----------------------------------------
Total Dipole Moment    :     -0.38301      -0.20930      -0.31126
                        -----------------------------------------
Magnitude (a.u.)       :      0.53608
Magnitude (Debye)      :      1.36262

Rotational constants in cm-1:     0.020838     0.009181     0.006890
Rotational constants in MHz :   624.714041   275.226644   206.545018

                             ****ORCA TERMINATED NORMALLY****
TOTAL RUN TIME: 0 days 0 hours 0 minutes 29 seconds 730 msec
