                         Program Version 4.2.1 -  RELEASE  -
|  1> ! wB97X-D3 SP def2-SVP
|  2> %pal
|  3> nprocs 16
|  4> end
|  5>
|  6> * xyz 0 1
|  7> S 	 26.5511 	 4.04271 	 77.2675
|  8> C 	 27.7115 	 5.19015 	 77.8463
|  9> C 	 28.6713 	 4.58292 	 78.6264
| 10> C 	 28.5043 	 3.17566 	 78.626
| 11> C 	 27.4444 	 2.67207 	 77.9769
| 12> H 	 29.2037 	 2.43174 	 79.0575
| 13> C 	 29.8646 	 5.22012 	 79.3174
| 14> H 	 29.7069 	 5.12556 	 80.3629
| 15> H 	 29.6868 	 6.29897 	 79.2091
| 16> C 	 31.2678 	 4.7409 	 78.9142
| 17> H 	 32.1748 	 5.11968 	 79.4028
| 18> H 	 31.3133 	 3.6323 	 79.0323
| 19> C 	 31.4546 	 5.03295 	 77.4223
| 20> H 	 32.2901 	 4.56628 	 77.1079
| 21> H 	 30.6749 	 4.51027 	 76.7996
| 22> H 	 31.5256 	 6.06324 	 77.1628
| 23> S 	 28.2252 	 0.0791379 	 78.4736
| 24> C 	 27.3227 	 -1.27631 	 77.7816
| 25> C 	 26.1168 	 -0.796155 	 77.2583
| 26> C 	 25.9966 	 0.65778 	 77.2107
| 27> C 	 27.0814 	 1.26914 	 77.8198
| 28> H 	 25.3418 	 -1.55203 	 76.8999
| 29> C 	 24.7721 	 1.31282 	 76.6124
| 30> H 	 24.6725 	 2.16768 	 77.248
| 31> H 	 23.9554 	 0.646079 	 76.8522
| 32> C 	 24.9033 	 1.59978 	 75.137
| 33> H 	 25.1556 	 0.713147 	 74.6067
| 34> H 	 25.6476 	 2.40896 	 74.9441
| 35> C 	 23.4763 	 2.00228 	 74.5992
| 36> H 	 23.1715 	 2.80134 	 75.3503
| 37> H 	 22.7358 	 1.2291 	 74.6909
| 38> H 	 23.3068 	 2.54682 	 73.6141
| 39> H 	 27.7517 	 6.29091 	 77.5993
| 40> H 	 27.5125 	 -2.30034 	 78.0916
| 41> *
| 42>
| 43>                          ****END OF INPUT****

CARTESIAN COORDINATES (ANGSTROEM)
---------------------------------
  S     26.551100    4.042710   77.267500
  C     27.711500    5.190150   77.846300
  C     28.671300    4.582920   78.626400
  C     28.504300    3.175660   78.626000
  C     27.444400    2.672070   77.976900
  H     29.203700    2.431740   79.057500
  C     29.864600    5.220120   79.317400
  H     29.706900    5.125560   80.362900
  H     29.686800    6.298970   79.209100
  C     31.267800    4.740900   78.914200
  H     32.174800    5.119680   79.402800
  H     31.313300    3.632300   79.032300
  C     31.454600    5.032950   77.422300
  H     32.290100    4.566280   77.107900
  H     30.674900    4.510270   76.799600
  H     31.525600    6.063240   77.162800
  S     28.225200    0.079138   78.473600
  C     27.322700   -1.276310   77.781600
  C     26.116800   -0.796155   77.258300
  C     25.996600    0.657780   77.210700
  C     27.081400    1.269140   77.819800
  H     25.341800   -1.552030   76.899900
  C     24.772100    1.312820   76.612400
  H     24.672500    2.167680   77.248000
  H     23.955400    0.646079   76.852200
  C     24.903300    1.599780   75.137000
  H     25.155600    0.713147   74.606700
  H     25.647600    2.408960   74.944100
  C     23.476300    2.002280   74.599200
  H     23.171500    2.801340   75.350300
  H     22.735800    1.229100   74.690900
  H     23.306800    2.546820   73.614100
  H     27.751700    6.290910   77.599300
  H     27.512500   -2.300340   78.091600

 Total Charge           Charge          ....    0
 Multiplicity           Mult            ....    1
 Number of Electrons    NEL             ....  134
 Basis Dimension        Dim             ....  322

ORBITAL ENERGIES
----------------

  NO   OCC          E(Eh)            E(eV)
   0   2.0000     -88.969514     -2420.9835
   1   2.0000     -88.966310     -2420.8964
   2   2.0000     -10.334094      -281.2050
   3   2.0000     -10.331257      -281.1278
   4   2.0000     -10.323182      -280.9081
   5   2.0000     -10.319795      -280.8159
   6   2.0000     -10.307326      -280.4766
   7   2.0000     -10.306386      -280.4510
   8   2.0000     -10.302616      -280.3484
   9   2.0000     -10.292513      -280.0735
  10   2.0000     -10.291498      -280.0459
  11   2.0000     -10.289921      -280.0030
  12   2.0000     -10.289872      -280.0017
  13   2.0000     -10.289447      -279.9901
  14   2.0000     -10.283759      -279.8353
  15   2.0000     -10.262797      -279.2649
  16   2.0000      -8.083365      -219.9595
  17   2.0000      -8.080271      -219.8753
  18   2.0000      -6.042115      -164.4143
  19   2.0000      -6.039065      -164.3313
  20   2.0000      -6.037986      -164.3019
  21   2.0000      -6.034947      -164.2192
  22   2.0000      -6.033934      -164.1917
  23   2.0000      -6.030753      -164.1051
  24   2.0000      -1.009670       -27.4745
  25   2.0000      -0.983671       -26.7671
  26   2.0000      -0.914195       -24.8765
  27   2.0000      -0.912037       -24.8178
  28   2.0000      -0.873271       -23.7629
  29   2.0000      -0.851155       -23.1611
  30   2.0000      -0.842646       -22.9296
  31   2.0000      -0.813758       -22.1435
  32   2.0000      -0.782842       -21.3022
  33   2.0000      -0.771689       -20.9987
  34   2.0000      -0.710580       -19.3359
  35   2.0000      -0.702699       -19.1214
  36   2.0000      -0.691864       -18.8266
  37   2.0000      -0.672151       -18.2902
  38   2.0000      -0.629403       -17.1269
  39   2.0000      -0.620668       -16.8892
  40   2.0000      -0.592492       -16.1225
  41   2.0000      -0.571201       -15.5432
  42   2.0000      -0.565640       -15.3919
  43   2.0000      -0.555012       -15.1026
  44   2.0000      -0.541255       -14.7283
  45   2.0000      -0.522242       -14.2109
  46   2.0000      -0.519727       -14.1425
  47   2.0000      -0.515486       -14.0271
  48   2.0000      -0.511455       -13.9174
  49   2.0000      -0.494708       -13.4617
  50   2.0000      -0.489650       -13.3241
  51   2.0000      -0.479498       -13.0478
  52   2.0000      -0.467590       -12.7238
  53   2.0000      -0.462910       -12.5964
  54   2.0000      -0.457219       -12.4416
  55   2.0000      -0.445556       -12.1242
  56   2.0000      -0.440056       -11.9745
  57   2.0000      -0.436615       -11.8809
  58   2.0000      -0.430779       -11.7221
  59   2.0000      -0.423946       -11.5362
  60   2.0000      -0.421912       -11.4808
  61   2.0000      -0.414720       -11.2851
  62   2.0000      -0.410907       -11.1814
  63   2.0000      -0.369026       -10.0417
  64   2.0000      -0.333881        -9.0854
  65   2.0000      -0.329284        -8.9603
  66   2.0000      -0.285549        -7.7702
  67   0.0000       0.018022         0.4904
  68   0.0000       0.082788         2.2528
  69   0.0000       0.105882         2.8812
  70   0.0000       0.113749         3.0953
  71   0.0000       0.132433         3.6037

MULLIKEN ATOMIC CHARGES
-----------------------
   0 S :    0.088579
   1 C :   -0.134221
   2 C :   -0.101774
   3 C :   -0.056275
   4 C :   -0.083862
   5 H :    0.030821
   6 C :    0.114399
   7 H :    0.027664
   8 H :    0.006490
   9 C :   -0.081382
  10 H :    0.040051
  11 H :    0.033515
  12 C :   -0.024972
  13 H :   -0.003774
  14 H :    0.043270
  15 H :    0.026649
  16 S :    0.063466
  17 C :   -0.082938
  18 C :   -0.060871
  19 C :   -0.108071
  20 C :   -0.099395
  21 H :    0.047336
  22 C :    0.060081
  23 H :    0.023242
  24 H :    0.021391
  25 C :   -0.021334
  26 H :    0.026730
  27 H :    0.047945
  28 C :   -0.088260
  29 H :    0.025531
  30 H :    0.030088
  31 H :    0.049846
  32 H :    0.070273
  33 H :    0.069763
Sum of atomic charges:   -0.0000000

LOEWDIN ATOMIC CHARGES
----------------------
   0 S :    0.404400
   1 C :   -0.209017
   2 C :   -0.063416
   3 C :   -0.078575
   4 C :   -0.174038
   5 H :    0.027654
   6 C :   -0.032663
   7 H :    0.028881
   8 H :    0.029511
   9 C :   -0.039349
  10 H :    0.030324
  11 H :    0.028256
  12 C :   -0.059767
  13 H :    0.007984
  14 H :    0.035238
  15 H :    0.019961
  16 S :    0.384855
  17 C :   -0.184573
  18 C :   -0.074159
  19 C :   -0.058415
  20 C :   -0.177535
  21 H :    0.042404
  22 C :   -0.033699
  23 H :    0.018856
  24 H :    0.033591
  25 C :   -0.032366
  26 H :    0.020190
  27 H :    0.028688
  28 C :   -0.081379
  29 H :    0.029780
  30 H :    0.018111
  31 H :    0.032757
  32 H :    0.045117
  33 H :    0.032397

  Mayer bond orders larger than 0.100000
B(  0-S ,  1-C ) :   1.1367 B(  0-S ,  4-C ) :   1.1081 B(  1-C ,  2-C ) :   1.6263
B(  1-C , 32-H ) :   0.9525 B(  2-C ,  3-C ) :   1.2275 B(  2-C ,  6-C ) :   1.0180
B(  3-C ,  4-C ) :   1.6155 B(  3-C ,  5-H ) :   0.9738 B(  4-C , 20-C ) :   1.1001
B(  6-C ,  7-H ) :   0.9330 B(  6-C ,  8-H ) :   0.9372 B(  6-C ,  9-C ) :   1.0568
B(  9-C , 10-H ) :   0.9582 B(  9-C , 11-H ) :   0.9540 B(  9-C , 12-C ) :   1.0808
B( 12-C , 13-H ) :   0.9687 B( 12-C , 14-H ) :   0.9705 B( 12-C , 15-H ) :   0.9773
B( 16-S , 17-C ) :   1.1337 B( 16-S , 20-C ) :   1.1274 B( 17-C , 18-C ) :   1.6310
B( 17-C , 33-H ) :   0.9641 B( 18-C , 19-C ) :   1.2244 B( 18-C , 21-H ) :   0.9736
B( 19-C , 20-C ) :   1.5935 B( 19-C , 22-C ) :   1.0296 B( 22-C , 23-H ) :   0.9222
B( 22-C , 24-H ) :   0.9336 B( 22-C , 25-C ) :   1.0640 B( 25-C , 26-H ) :   0.9587
B( 25-C , 27-H ) :   0.9506 B( 25-C , 28-C ) :   1.0611 B( 28-C , 29-H ) :   0.9728
B( 28-C , 30-H ) :   0.9785 B( 28-C , 31-H ) :   0.9767

Dispersion correction           -0.014480935
FINAL SINGLE POINT ENERGY     -1339.870862329125

DIPOLE MOMENT
-------------
                                X             Y             Z
Electronic contribution:     -1.47003      -8.29985       7.84014
Nuclear contribution   :      1.54137       8.30951      -7.80327
                        -----------------------------------------
Total Dipole Moment    :      0.07135       0.00966       0.03687
                        -----------------------------------------
Magnitude (a.u.)       :      0.08089
Magnitude (Debye)      :      0.20560

Rotational constants in cm-1:     0.020289     0.008872     0.006698
Rotational constants in MHz :   608.247466   265.983085   200.815881

                             ****ORCA TERMINATED NORMALLY****
TOTAL RUN TIME: 0 days 0 hours 0 minutes 32 seconds 962 msec
