                         Program Version 4.2.1 -  RELEASE  -
|  1> ! wB97X-D3 SP def2-SVP
|  2> %pal
|  3> nprocs 16
|  4> end
|  5>
|  6> * xyz 0 1
|  7> S 	 44.1809 	 12.828 	 100.742
|  8> C 	 45.4875 	 14.0118 	 100.849
|  9> C 	 46.3823 	 13.8493 	 99.7842
| 10> C 	 45.9709 	 12.8278 	 98.8783
| 11> C 	 44.7705 	 12.2289 	 99.1785
| 12> H 	 46.5005 	 12.5802 	 97.9553
| 13> C 	 47.628 	 14.6199 	 99.5304
| 14> H 	 48.0063 	 14.0217 	 98.718
| 15> H 	 48.3037 	 14.4607 	 100.399
| 16> C 	 47.4508 	 16.0965 	 99.101
| 17> H 	 46.9311 	 16.5823 	 99.911
| 18> H 	 48.5144 	 16.5459 	 99.088
| 19> C 	 46.7994 	 16.3239 	 97.7243
| 20> H 	 45.7485 	 16.0329 	 97.5703
| 21> H 	 46.7712 	 17.3581 	 97.4747
| 22> H 	 47.4498 	 15.8574 	 96.9632
| 23> S 	 43.0389 	 10.172 	 99.5007
| 24> C 	 42.9355 	 8.8505 	 98.3652
| 25> C 	 43.7821 	 9.08118 	 97.297
| 26> C 	 44.5225 	 10.2831 	 97.4537
| 27> C 	 44.2262 	 11.0088 	 98.5907
| 28> H 	 43.7511 	 8.51315 	 96.3942
| 29> C 	 45.5515 	 10.5723 	 96.3958
| 30> H 	 45.9605 	 9.55927 	 96.1085
| 31> H 	 46.3021 	 11.134 	 96.8551
| 32> C 	 45.0228 	 11.0598 	 95.0883
| 33> H 	 44.1796 	 10.3517 	 94.7387
| 34> H 	 45.8144 	 10.9911 	 94.3693
| 35> C 	 44.3674 	 12.4773 	 95.1455
| 36> H 	 43.9206 	 12.7915 	 94.1643
| 37> H 	 45.1754 	 13.2891 	 95.1895
| 38> H 	 43.6449 	 12.5939 	 95.9636
| 39> H 	 45.7529 	 14.6996 	 101.672
| 40> H 	 42.2318 	 8.05318 	 98.4598
| 41> *
| 42>
| 43>                          ****END OF INPUT****

CARTESIAN COORDINATES (ANGSTROEM)
---------------------------------
  S     44.180900   12.828000  100.742000
  C     45.487500   14.011800  100.849000
  C     46.382300   13.849300   99.784200
  C     45.970900   12.827800   98.878300
  C     44.770500   12.228900   99.178500
  H     46.500500   12.580200   97.955300
  C     47.628000   14.619900   99.530400
  H     48.006300   14.021700   98.718000
  H     48.303700   14.460700  100.399000
  C     47.450800   16.096500   99.101000
  H     46.931100   16.582300   99.911000
  H     48.514400   16.545900   99.088000
  C     46.799400   16.323900   97.724300
  H     45.748500   16.032900   97.570300
  H     46.771200   17.358100   97.474700
  H     47.449800   15.857400   96.963200
  S     43.038900   10.172000   99.500700
  C     42.935500    8.850500   98.365200
  C     43.782100    9.081180   97.297000
  C     44.522500   10.283100   97.453700
  C     44.226200   11.008800   98.590700
  H     43.751100    8.513150   96.394200
  C     45.551500   10.572300   96.395800
  H     45.960500    9.559270   96.108500
  H     46.302100   11.134000   96.855100
  C     45.022800   11.059800   95.088300
  H     44.179600   10.351700   94.738700
  H     45.814400   10.991100   94.369300
  C     44.367400   12.477300   95.145500
  H     43.920600   12.791500   94.164300
  H     45.175400   13.289100   95.189500
  H     43.644900   12.593900   95.963600
  H     45.752900   14.699600  101.672000
  H     42.231800    8.053180   98.459800

 Total Charge           Charge          ....    0
 Multiplicity           Mult            ....    1
 Number of Electrons    NEL             ....  134
 Basis Dimension        Dim             ....  322

ORBITAL ENERGIES
----------------

  NO   OCC          E(Eh)            E(eV)
   0   2.0000     -88.969702     -2420.9887
   1   2.0000     -88.963629     -2420.8234
   2   2.0000     -10.333436      -281.1871
   3   2.0000     -10.327000      -281.0120
   4   2.0000     -10.317647      -280.7574
   5   2.0000     -10.316820      -280.7349
   6   2.0000     -10.297944      -280.2213
   7   2.0000     -10.297826      -280.2181
   8   2.0000     -10.297017      -280.1961
   9   2.0000     -10.293451      -280.0990
  10   2.0000     -10.292860      -280.0830
  11   2.0000     -10.291570      -280.0478
  12   2.0000     -10.290412      -280.0164
  13   2.0000     -10.287585      -279.9394
  14   2.0000     -10.285027      -279.8698
  15   2.0000     -10.279585      -279.7217
  16   2.0000      -8.083349      -219.9591
  17   2.0000      -8.079333      -219.8498
  18   2.0000      -6.042082      -164.4134
  19   2.0000      -6.037982      -164.3018
  20   2.0000      -6.037853      -164.2983
  21   2.0000      -6.033975      -164.1928
  22   2.0000      -6.033608      -164.1828
  23   2.0000      -6.030144      -164.0886
  24   2.0000      -1.012002       -27.5380
  25   2.0000      -0.984944       -26.8017
  26   2.0000      -0.916913       -24.9505
  27   2.0000      -0.911185       -24.7946
  28   2.0000      -0.869730       -23.6666
  29   2.0000      -0.850694       -23.1485
  30   2.0000      -0.842405       -22.9230
  31   2.0000      -0.815245       -22.1839
  32   2.0000      -0.782026       -21.2800
  33   2.0000      -0.774963       -21.0878
  34   2.0000      -0.710684       -19.3387
  35   2.0000      -0.705858       -19.2074
  36   2.0000      -0.693691       -18.8763
  37   2.0000      -0.667946       -18.1757
  38   2.0000      -0.632511       -17.2115
  39   2.0000      -0.618529       -16.8310
  40   2.0000      -0.597867       -16.2688
  41   2.0000      -0.570313       -15.5190
  42   2.0000      -0.554338       -15.0843
  43   2.0000      -0.553026       -15.0486
  44   2.0000      -0.543684       -14.7944
  45   2.0000      -0.533476       -14.5166
  46   2.0000      -0.516759       -14.0617
  47   2.0000      -0.508574       -13.8390
  48   2.0000      -0.505629       -13.7589
  49   2.0000      -0.499828       -13.6010
  50   2.0000      -0.495827       -13.4921
  51   2.0000      -0.475667       -12.9436
  52   2.0000      -0.471674       -12.8349
  53   2.0000      -0.469512       -12.7761
  54   2.0000      -0.459469       -12.5028
  55   2.0000      -0.452812       -12.3216
  56   2.0000      -0.445842       -12.1320
  57   2.0000      -0.438222       -11.9246
  58   2.0000      -0.428871       -11.6702
  59   2.0000      -0.424924       -11.5628
  60   2.0000      -0.417559       -11.3624
  61   2.0000      -0.409204       -11.1350
  62   2.0000      -0.407036       -11.0760
  63   2.0000      -0.364029        -9.9057
  64   2.0000      -0.336904        -9.1676
  65   2.0000      -0.324360        -8.8263
  66   2.0000      -0.281665        -7.6645
  67   0.0000       0.018447         0.5020
  68   0.0000       0.083904         2.2831
  69   0.0000       0.093977         2.5573
  70   0.0000       0.115626         3.1463
  71   0.0000       0.130841         3.5604

MULLIKEN ATOMIC CHARGES
-----------------------
   0 S :    0.093610
   1 C :   -0.113896
   2 C :   -0.120892
   3 C :   -0.038757
   4 C :   -0.067818
   5 H :    0.018416
   6 C :    0.069939
   7 H :    0.002398
   8 H :    0.044649
   9 C :   -0.067645
  10 H :    0.026358
  11 H :    0.042041
  12 C :   -0.049545
  13 H :    0.051115
  14 H :    0.025425
  15 H :    0.029340
  16 S :    0.084028
  17 C :   -0.075041
  18 C :   -0.022224
  19 C :   -0.104353
  20 C :   -0.103930
  21 H :    0.016760
  22 C :    0.085616
  23 H :    0.028354
  24 H :   -0.000619
  25 C :   -0.058863
  26 H :    0.035577
  27 H :    0.028448
  28 C :   -0.091396
  29 H :    0.035959
  30 H :    0.027820
  31 H :    0.061227
  32 H :    0.056594
  33 H :    0.051305
Sum of atomic charges:    0.0000000

LOEWDIN ATOMIC CHARGES
----------------------
   0 S :    0.389027
   1 C :   -0.202435
   2 C :   -0.065076
   3 C :   -0.071818
   4 C :   -0.177732
   5 H :    0.029451
   6 C :   -0.039497
   7 H :    0.025794
   8 H :    0.038859
   9 C :   -0.037904
  10 H :    0.018807
  11 H :    0.035251
  12 C :   -0.069597
  13 H :    0.032444
  14 H :    0.024341
  15 H :    0.028137
  16 S :    0.416909
  17 C :   -0.177802
  18 C :   -0.065739
  19 C :   -0.064311
  20 C :   -0.204786
  21 H :    0.028991
  22 C :   -0.031037
  23 H :    0.042502
  24 H :    0.014878
  25 C :   -0.040224
  26 H :    0.032038
  27 H :    0.021017
  28 C :   -0.080467
  29 H :    0.029248
  30 H :    0.027640
  31 H :    0.030457
  32 H :    0.037672
  33 H :    0.024958

  Mayer bond orders larger than 0.100000
B(  0-S ,  1-C ) :   1.1280 B(  0-S ,  4-C ) :   1.1379 B(  1-C ,  2-C ) :   1.6049
B(  1-C , 32-H ) :   0.9619 B(  2-C ,  3-C ) :   1.2740 B(  2-C ,  6-C ) :   1.0104
B(  3-C ,  4-C ) :   1.5731 B(  3-C ,  5-H ) :   0.9709 B(  4-C , 20-C ) :   1.0761
B(  6-C ,  7-H ) :   0.9407 B(  6-C ,  8-H ) :   0.9340 B(  6-C ,  9-C ) :   1.0659
B(  9-C , 10-H ) :   0.9584 B(  9-C , 11-H ) :   0.9540 B(  9-C , 12-C ) :   1.0737
B( 12-C , 13-H ) :   0.9743 B( 12-C , 14-H ) :   0.9720 B( 12-C , 15-H ) :   0.9737
B( 16-S , 17-C ) :   1.1649 B( 16-S , 20-C ) :   1.1345 B( 17-C , 18-C ) :   1.5798
B( 17-C , 33-H ) :   0.9740 B( 18-C , 19-C ) :   1.2725 B( 18-C , 21-H ) :   0.9905
B( 19-C , 20-C ) :   1.5763 B( 19-C , 22-C ) :   1.0351 B( 22-C , 23-H ) :   0.9256
B( 22-C , 24-H ) :   0.9364 B( 22-C , 25-C ) :   1.0733 B( 25-C , 26-H ) :   0.9521
B( 25-C , 27-H ) :   0.9549 B( 25-C , 28-C ) :   1.0670 B( 28-C , 29-H ) :   0.9739
B( 28-C , 30-H ) :   0.9731 B( 28-C , 31-H ) :   0.9760

Dispersion correction           -0.015042002
FINAL SINGLE POINT ENERGY     -1339.877422797493

DIPOLE MOMENT
-------------
                                X             Y             Z
Electronic contribution:    -14.64620     -14.71223      20.31261
Nuclear contribution   :     15.13815      14.81268     -20.82954
                        -----------------------------------------
Total Dipole Moment    :      0.49195       0.10045      -0.51692
                        -----------------------------------------
Magnitude (a.u.)       :      0.72063
Magnitude (Debye)      :      1.83171

Rotational constants in cm-1:     0.019859     0.009637     0.007062
Rotational constants in MHz :   595.363240   288.898392   211.709205

                             ****ORCA TERMINATED NORMALLY****
TOTAL RUN TIME: 0 days 0 hours 0 minutes 30 seconds 133 msec
