                         Program Version 4.2.1 -  RELEASE  -
|  1> ! wB97X-D3 SP def2-SVP
|  2> %pal
|  3> nprocs 16
|  4> end
|  5>
|  6> * xyz 0 1
|  7> S 	 -28.8097 	 57.519 	 117.973
|  8> C 	 -30.4902 	 56.7831 	 117.79
|  9> C 	 -31.4847 	 57.7041 	 117.986
| 10> C 	 -30.8892 	 58.9119 	 118.464
| 11> C 	 -29.5051 	 59.0214 	 118.43
| 12> H 	 -31.4983 	 59.7631 	 118.63
| 13> C 	 -32.9221 	 57.3029 	 117.99
| 14> H 	 -33.4032 	 57.7343 	 118.838
| 15> H 	 -33.0266 	 56.2203 	 118.257
| 16> C 	 -33.7215 	 57.4975 	 116.776
| 17> H 	 -34.7985 	 57.3203 	 116.809
| 18> H 	 -33.7242 	 58.5872 	 116.693
| 19> C 	 -33.1985 	 56.9161 	 115.452
| 20> H 	 -33.8008 	 57.4027 	 114.698
| 21> H 	 -32.1831 	 57.1882 	 115.268
| 22> H 	 -33.3428 	 55.7859 	 115.395
| 23> S 	 -27.4981 	 60.5776 	 117.314
| 24> C 	 -27.3256 	 62.188 	 117.946
| 25> C 	 -28.0515 	 62.3315 	 119.114
| 26> C 	 -28.8336 	 61.2053 	 119.431
| 27> C 	 -28.7114 	 60.2089 	 118.49
| 28> H 	 -28.1024 	 63.2742 	 119.698
| 29> C 	 -29.5228 	 61.1895 	 120.765
| 30> H 	 -30.5806 	 60.8431 	 120.558
| 31> H 	 -29.5107 	 62.1974 	 121.272
| 32> C 	 -28.915 	 60.1722 	 121.769
| 33> H 	 -27.9242 	 60.5454 	 121.831
| 34> H 	 -28.8937 	 59.2099 	 121.363
| 35> C 	 -29.6632 	 60.2897 	 123.077
| 36> H 	 -29.2316 	 61.1682 	 123.534
| 37> H 	 -29.4193 	 59.3992 	 123.683
| 38> H 	 -30.7043 	 60.3364 	 122.941
| 39> H 	 -30.6833 	 55.6924 	 117.638
| 40> H 	 -26.6179 	 62.9404 	 117.582
| 41> *
| 42>
| 43>                          ****END OF INPUT****

CARTESIAN COORDINATES (ANGSTROEM)
---------------------------------
  S    -28.809700   57.519000  117.973000
  C    -30.490200   56.783100  117.790000
  C    -31.484700   57.704100  117.986000
  C    -30.889200   58.911900  118.464000
  C    -29.505100   59.021400  118.430000
  H    -31.498300   59.763100  118.630000
  C    -32.922100   57.302900  117.990000
  H    -33.403200   57.734300  118.838000
  H    -33.026600   56.220300  118.257000
  C    -33.721500   57.497500  116.776000
  H    -34.798500   57.320300  116.809000
  H    -33.724200   58.587200  116.693000
  C    -33.198500   56.916100  115.452000
  H    -33.800800   57.402700  114.698000
  H    -32.183100   57.188200  115.268000
  H    -33.342800   55.785900  115.395000
  S    -27.498100   60.577600  117.314000
  C    -27.325600   62.188000  117.946000
  C    -28.051500   62.331500  119.114000
  C    -28.833600   61.205300  119.431000
  C    -28.711400   60.208900  118.490000
  H    -28.102400   63.274200  119.698000
  C    -29.522800   61.189500  120.765000
  H    -30.580600   60.843100  120.558000
  H    -29.510700   62.197400  121.272000
  C    -28.915000   60.172200  121.769000
  H    -27.924200   60.545400  121.831000
  H    -28.893700   59.209900  121.363000
  C    -29.663200   60.289700  123.077000
  H    -29.231600   61.168200  123.534000
  H    -29.419300   59.399200  123.683000
  H    -30.704300   60.336400  122.941000
  H    -30.683300   55.692400  117.638000
  H    -26.617900   62.940400  117.582000

 Total Charge           Charge          ....    0
 Multiplicity           Mult            ....    1
 Number of Electrons    NEL             ....  134
 Basis Dimension        Dim             ....  322

ORBITAL ENERGIES
----------------

  NO   OCC          E(Eh)            E(eV)
   0   2.0000     -88.969641     -2420.9870
   1   2.0000     -88.966647     -2420.9055
   2   2.0000     -10.329059      -281.0680
   3   2.0000     -10.322238      -280.8824
   4   2.0000     -10.321835      -280.8714
   5   2.0000     -10.317505      -280.7536
   6   2.0000     -10.302963      -280.3579
   7   2.0000     -10.294816      -280.1362
   8   2.0000     -10.294329      -280.1229
   9   2.0000     -10.292625      -280.0766
  10   2.0000     -10.292051      -280.0610
  11   2.0000     -10.290266      -280.0124
  12   2.0000     -10.282175      -279.7922
  13   2.0000     -10.276966      -279.6505
  14   2.0000     -10.271577      -279.5038
  15   2.0000     -10.270981      -279.4876
  16   2.0000      -8.084754      -219.9973
  17   2.0000      -8.080791      -219.8895
  18   2.0000      -6.043260      -164.4455
  19   2.0000      -6.039307      -164.3379
  20   2.0000      -6.039234      -164.3359
  21   2.0000      -6.035464      -164.2333
  22   2.0000      -6.035455      -164.2331
  23   2.0000      -6.031504      -164.1256
  24   2.0000      -1.013239       -27.5716
  25   2.0000      -0.985819       -26.8255
  26   2.0000      -0.923627       -25.1332
  27   2.0000      -0.913260       -24.8511
  28   2.0000      -0.872714       -23.7478
  29   2.0000      -0.857439       -23.3321
  30   2.0000      -0.842368       -22.9220
  31   2.0000      -0.811049       -22.0698
  32   2.0000      -0.789685       -21.4884
  33   2.0000      -0.771929       -21.0053
  34   2.0000      -0.711185       -19.3523
  35   2.0000      -0.696864       -18.9626
  36   2.0000      -0.690865       -18.7994
  37   2.0000      -0.662974       -18.0404
  38   2.0000      -0.637140       -17.3375
  39   2.0000      -0.620846       -16.8941
  40   2.0000      -0.595886       -16.2149
  41   2.0000      -0.576834       -15.6965
  42   2.0000      -0.573827       -15.6146
  43   2.0000      -0.554055       -15.0766
  44   2.0000      -0.549950       -14.9649
  45   2.0000      -0.520601       -14.1663
  46   2.0000      -0.518694       -14.1144
  47   2.0000      -0.513825       -13.9819
  48   2.0000      -0.503814       -13.7095
  49   2.0000      -0.496131       -13.5004
  50   2.0000      -0.488788       -13.3006
  51   2.0000      -0.486190       -13.2299
  52   2.0000      -0.471741       -12.8367
  53   2.0000      -0.465834       -12.6760
  54   2.0000      -0.457290       -12.4435
  55   2.0000      -0.452047       -12.3008
  56   2.0000      -0.444574       -12.0975
  57   2.0000      -0.438491       -11.9319
  58   2.0000      -0.430717       -11.7204
  59   2.0000      -0.421237       -11.4625
  60   2.0000      -0.419161       -11.4059
  61   2.0000      -0.417630       -11.3643
  62   2.0000      -0.403019       -10.9667
  63   2.0000      -0.350884        -9.5481
  64   2.0000      -0.336009        -9.1433
  65   2.0000      -0.332087        -9.0366
  66   2.0000      -0.284962        -7.7542
  67   0.0000       0.024494         0.6665
  68   0.0000       0.068202         1.8559
  69   0.0000       0.100655         2.7390
  70   0.0000       0.117076         3.1858
  71   0.0000       0.135502         3.6872

MULLIKEN ATOMIC CHARGES
-----------------------
   0 S :    0.087021
   1 C :   -0.144503
   2 C :   -0.072810
   3 C :    0.036494
   4 C :   -0.153681
   5 H :   -0.000944
   6 C :    0.081193
   7 H :    0.016336
   8 H :    0.019207
   9 C :   -0.086405
  10 H :    0.029507
  11 H :    0.011364
  12 C :   -0.044463
  13 H :    0.029425
  14 H :    0.039336
  15 H :    0.039622
  16 S :    0.126248
  17 C :   -0.101189
  18 C :   -0.047399
  19 C :   -0.024978
  20 C :   -0.134948
  21 H :    0.029062
  22 C :    0.008633
  23 H :    0.023542
  24 H :    0.028053
  25 C :   -0.048747
  26 H :    0.016926
  27 H :    0.025423
  28 C :   -0.006877
  29 H :    0.028331
  30 H :    0.037014
  31 H :    0.024958
  32 H :    0.065648
  33 H :    0.063597
Sum of atomic charges:   -0.0000000

LOEWDIN ATOMIC CHARGES
----------------------
   0 S :    0.376875
   1 C :   -0.165942
   2 C :   -0.060532
   3 C :   -0.062165
   4 C :   -0.195560
   5 H :    0.020593
   6 C :   -0.035852
   7 H :    0.031178
   8 H :    0.033112
   9 C :   -0.051975
  10 H :    0.028134
  11 H :    0.022820
  12 C :   -0.062597
  13 H :    0.027688
  14 H :    0.021664
  15 H :    0.030125
  16 S :    0.425269
  17 C :   -0.194282
  18 C :   -0.074567
  19 C :   -0.062016
  20 C :   -0.213365
  21 H :    0.036428
  22 C :   -0.033754
  23 H :    0.029978
  24 H :    0.032445
  25 C :   -0.028591
  26 H :    0.019797
  27 H :    0.015000
  28 C :   -0.056240
  29 H :    0.027207
  30 H :    0.031616
  31 H :    0.017672
  32 H :    0.035421
  33 H :    0.034415

  Mayer bond orders larger than 0.100000
B(  0-S ,  1-C ) :   1.1162 B(  0-S ,  4-C ) :   1.1354 B(  1-C ,  2-C ) :   1.6221
B(  1-C , 32-H ) :   0.9597 B(  2-C ,  3-C ) :   1.2549 B(  2-C ,  6-C ) :   1.0104
B(  3-C ,  4-C ) :   1.5706 B(  3-C ,  5-H ) :   0.9860 B(  4-C , 20-C ) :   1.0636
B(  6-C ,  7-H ) :   0.9370 B(  6-C ,  8-H ) :   0.9428 B(  6-C ,  9-C ) :   1.0738
B(  9-C , 10-H ) :   0.9526 B(  9-C , 11-H ) :   0.9499 B(  9-C , 12-C ) :   1.0861
B( 12-C , 13-H ) :   0.9719 B( 12-C , 14-H ) :   0.9715 B( 12-C , 15-H ) :   0.9748
B( 16-S , 17-C ) :   1.1605 B( 16-S , 20-C ) :   1.1401 B( 17-C , 18-C ) :   1.5779
B( 17-C , 33-H ) :   0.9667 B( 18-C , 19-C ) :   1.2843 B( 18-C , 21-H ) :   0.9831
B( 19-C , 20-C ) :   1.5569 B( 19-C , 22-C ) :   1.0493 B( 22-C , 23-H ) :   0.9154
B( 22-C , 24-H ) :   0.9461 B( 22-C , 25-C ) :   1.0605 B( 25-C , 26-H ) :   0.9562
B( 25-C , 27-H ) :   0.9570 B( 25-C , 28-C ) :   1.0814 B( 28-C , 29-H ) :   0.9756
B( 28-C , 30-H ) :   0.9727 B( 28-C , 31-H ) :   0.9744

Dispersion correction           -0.014328062
FINAL SINGLE POINT ENERGY     -1339.866075774182

DIPOLE MOMENT
-------------
                                X             Y             Z
Electronic contribution:     20.14558       1.88788      -9.99410
Nuclear contribution   :    -20.63640      -1.68874      10.29779
                        -----------------------------------------
Total Dipole Moment    :     -0.49082       0.19914       0.30368
                        -----------------------------------------
Magnitude (a.u.)       :      0.61056
Magnitude (Debye)      :      1.55193

Rotational constants in cm-1:     0.019126     0.008469     0.007062
Rotational constants in MHz :   573.368429   253.884244   211.722877

                             ****ORCA TERMINATED NORMALLY****
TOTAL RUN TIME: 0 days 0 hours 0 minutes 30 seconds 641 msec
