                         Program Version 4.2.1 -  RELEASE  -
|  1> ! wB97X-D3 SP def2-SVP
|  2> %pal
|  3> nprocs 16
|  4> end
|  5>
|  6> * xyz 0 1
|  7> S 	 -18.3431 	 42.5324 	 55.8174
|  8> C 	 -17.7216 	 43.7634 	 54.6757
|  9> C 	 -18.2522 	 44.9755 	 54.9507
| 10> C 	 -19.3687 	 44.8733 	 55.8026
| 11> C 	 -19.6307 	 43.6358 	 56.3063
| 12> H 	 -19.8663 	 45.7167 	 56.1366
| 13> C 	 -17.6874 	 46.2993 	 54.4163
| 14> H 	 -18.4788 	 46.831 	 53.9279
| 15> H 	 -17.0156 	 46.0558 	 53.5498
| 16> C 	 -17.0463 	 47.1991 	 55.4301
| 17> H 	 -16.7871 	 48.1597 	 55.0156
| 18> H 	 -17.7669 	 47.383 	 56.2468
| 19> C 	 -15.8209 	 46.5233 	 56.1428
| 20> H 	 -16.1078 	 45.5865 	 56.5814
| 21> H 	 -15.0077 	 46.1692 	 55.4514
| 22> H 	 -15.2869 	 47.1144 	 56.9116
| 23> S 	 -20.4184 	 42.7725 	 58.8112
| 24> C 	 -22.1004 	 42.9146 	 59.2283
| 25> C 	 -22.8767 	 43.4982 	 58.2417
| 26> C 	 -22.0368 	 43.8316 	 57.1252
| 27> C 	 -20.7526 	 43.3821 	 57.2375
| 28> H 	 -23.9057 	 43.8468 	 58.4731
| 29> C 	 -22.6453 	 44.4768 	 55.8714
| 30> H 	 -22.1843 	 45.422 	 55.8789
| 31> H 	 -23.7353 	 44.5824 	 56.055
| 32> C 	 -22.4925 	 43.6274 	 54.6081
| 33> H 	 -23.1396 	 42.8267 	 54.8243
| 34> H 	 -21.4323 	 43.4028 	 54.5324
| 35> C 	 -22.9368 	 44.3473 	 53.3278
| 36> H 	 -22.6837 	 43.8572 	 52.3969
| 37> H 	 -22.5219 	 45.3804 	 53.1913
| 38> H 	 -24.0027 	 44.3939 	 53.3532
| 39> H 	 -16.8753 	 43.6647 	 54.0267
| 40> H 	 -22.556 	 42.7262 	 60.2055
| 41> *
| 42>
| 43>                          ****END OF INPUT****

CARTESIAN COORDINATES (ANGSTROEM)
---------------------------------
  S    -18.343100   42.532400   55.817400
  C    -17.721600   43.763400   54.675700
  C    -18.252200   44.975500   54.950700
  C    -19.368700   44.873300   55.802600
  C    -19.630700   43.635800   56.306300
  H    -19.866300   45.716700   56.136600
  C    -17.687400   46.299300   54.416300
  H    -18.478800   46.831000   53.927900
  H    -17.015600   46.055800   53.549800
  C    -17.046300   47.199100   55.430100
  H    -16.787100   48.159700   55.015600
  H    -17.766900   47.383000   56.246800
  C    -15.820900   46.523300   56.142800
  H    -16.107800   45.586500   56.581400
  H    -15.007700   46.169200   55.451400
  H    -15.286900   47.114400   56.911600
  S    -20.418400   42.772500   58.811200
  C    -22.100400   42.914600   59.228300
  C    -22.876700   43.498200   58.241700
  C    -22.036800   43.831600   57.125200
  C    -20.752600   43.382100   57.237500
  H    -23.905700   43.846800   58.473100
  C    -22.645300   44.476800   55.871400
  H    -22.184300   45.422000   55.878900
  H    -23.735300   44.582400   56.055000
  C    -22.492500   43.627400   54.608100
  H    -23.139600   42.826700   54.824300
  H    -21.432300   43.402800   54.532400
  C    -22.936800   44.347300   53.327800
  H    -22.683700   43.857200   52.396900
  H    -22.521900   45.380400   53.191300
  H    -24.002700   44.393900   53.353200
  H    -16.875300   43.664700   54.026700
  H    -22.556000   42.726200   60.205500

 Total Charge           Charge          ....    0
 Multiplicity           Mult            ....    1
 Number of Electrons    NEL             ....  134
 Basis Dimension        Dim             ....  322

ORBITAL ENERGIES
----------------

  NO   OCC          E(Eh)            E(eV)
   0   2.0000     -88.968738     -2420.9624
   1   2.0000     -88.968646     -2420.9599
   2   2.0000     -10.332193      -281.1533
   3   2.0000     -10.322749      -280.8963
   4   2.0000     -10.317451      -280.7521
   5   2.0000     -10.313424      -280.6425
   6   2.0000     -10.299831      -280.2727
   7   2.0000     -10.297348      -280.2051
   8   2.0000     -10.296786      -280.1898
   9   2.0000     -10.296033      -280.1693
  10   2.0000     -10.292706      -280.0788
  11   2.0000     -10.284566      -279.8573
  12   2.0000     -10.284495      -279.8553
  13   2.0000     -10.279190      -279.7110
  14   2.0000     -10.275561      -279.6122
  15   2.0000     -10.272778      -279.5365
  16   2.0000      -8.084030      -219.9776
  17   2.0000      -8.082515      -219.9364
  18   2.0000      -6.042520      -164.4253
  19   2.0000      -6.041226      -164.3901
  20   2.0000      -6.038511      -164.3162
  21   2.0000      -6.037338      -164.2843
  22   2.0000      -6.034724      -164.2132
  23   2.0000      -6.032925      -164.1642
  24   2.0000      -1.011858       -27.5341
  25   2.0000      -0.989810       -26.9341
  26   2.0000      -0.913387       -24.8545
  27   2.0000      -0.908752       -24.7284
  28   2.0000      -0.869330       -23.6557
  29   2.0000      -0.850867       -23.1533
  30   2.0000      -0.843127       -22.9427
  31   2.0000      -0.815870       -22.2010
  32   2.0000      -0.784221       -21.3397
  33   2.0000      -0.774012       -21.0620
  34   2.0000      -0.711370       -19.3574
  35   2.0000      -0.699895       -19.0451
  36   2.0000      -0.690017       -18.7763
  37   2.0000      -0.662588       -18.0299
  38   2.0000      -0.639460       -17.4006
  39   2.0000      -0.626974       -17.0608
  40   2.0000      -0.586057       -15.9474
  41   2.0000      -0.578335       -15.7373
  42   2.0000      -0.569974       -15.5098
  43   2.0000      -0.552326       -15.0295
  44   2.0000      -0.541999       -14.7485
  45   2.0000      -0.520565       -14.1653
  46   2.0000      -0.513373       -13.9696
  47   2.0000      -0.503494       -13.7008
  48   2.0000      -0.500358       -13.6154
  49   2.0000      -0.498593       -13.5674
  50   2.0000      -0.488114       -13.2822
  51   2.0000      -0.484196       -13.1757
  52   2.0000      -0.474275       -12.9057
  53   2.0000      -0.467470       -12.7205
  54   2.0000      -0.457900       -12.4601
  55   2.0000      -0.452706       -12.3188
  56   2.0000      -0.443988       -12.0815
  57   2.0000      -0.439255       -11.9527
  58   2.0000      -0.431416       -11.7394
  59   2.0000      -0.423663       -11.5285
  60   2.0000      -0.419542       -11.4163
  61   2.0000      -0.415913       -11.3176
  62   2.0000      -0.411027       -11.1846
  63   2.0000      -0.348899        -9.4940
  64   2.0000      -0.333341        -9.0707
  65   2.0000      -0.333005        -9.0615
  66   2.0000      -0.295577        -8.0431
  67   0.0000       0.030756         0.8369
  68   0.0000       0.067255         1.8301
  69   0.0000       0.103568         2.8182
  70   0.0000       0.125135         3.4051
  71   0.0000       0.132900         3.6164

MULLIKEN ATOMIC CHARGES
-----------------------
   0 S :    0.103557
   1 C :   -0.118020
   2 C :   -0.092152
   3 C :    0.036630
   4 C :   -0.148684
   5 H :   -0.016049
   6 C :    0.079233
   7 H :    0.021612
   8 H :    0.022314
   9 C :   -0.041625
  10 H :    0.034196
  11 H :    0.033940
  12 C :   -0.085740
  13 H :    0.035923
  14 H :    0.022462
  15 H :    0.041921
  16 S :    0.120760
  17 C :   -0.094386
  18 C :   -0.048991
  19 C :   -0.090711
  20 C :   -0.132115
  21 H :    0.040432
  22 C :    0.088537
  23 H :    0.010960
  24 H :    0.013035
  25 C :   -0.049084
  26 H :    0.025727
  27 H :    0.054147
  28 C :   -0.037674
  29 H :    0.030007
  30 H :    0.029417
  31 H :    0.017197
  32 H :    0.037160
  33 H :    0.056066
Sum of atomic charges:   -0.0000000

LOEWDIN ATOMIC CHARGES
----------------------
   0 S :    0.378247
   1 C :   -0.176751
   2 C :   -0.063373
   3 C :   -0.057734
   4 C :   -0.183367
   5 H :    0.017874
   6 C :   -0.029588
   7 H :    0.027936
   8 H :    0.033397
   9 C :   -0.036781
  10 H :    0.024604
  11 H :    0.028972
  12 C :   -0.075855
  13 H :    0.023197
  14 H :    0.025636
  15 H :    0.028108
  16 S :    0.424098
  17 C :   -0.188738
  18 C :   -0.078890
  19 C :   -0.054291
  20 C :   -0.211538
  21 H :    0.041832
  22 C :   -0.025203
  23 H :    0.018168
  24 H :    0.028378
  25 C :   -0.031033
  26 H :    0.023099
  27 H :    0.027412
  28 C :   -0.066268
  29 H :    0.024838
  30 H :    0.028609
  31 H :    0.018685
  32 H :    0.024678
  33 H :    0.031638

  Mayer bond orders larger than 0.100000
B(  0-S ,  1-C ) :   1.1186 B(  0-S ,  4-C ) :   1.1281 B(  1-C ,  2-C ) :   1.6396
B(  1-C , 32-H ) :   0.9655 B(  2-C ,  3-C ) :   1.2345 B(  2-C ,  6-C ) :   1.0154
B(  3-C ,  4-C ) :   1.5775 B(  3-C ,  5-H ) :   1.0083 B(  4-C , 20-C ) :   1.0257
B(  6-C ,  7-H ) :   0.9357 B(  6-C ,  8-H ) :   0.9409 B(  6-C ,  9-C ) :   1.0786
B(  9-C , 10-H ) :   0.9563 B(  9-C , 11-H ) :   0.9543 B(  9-C , 12-C ) :   1.0581
B( 12-C , 13-H ) :   0.9754 B( 12-C , 14-H ) :   0.9758 B( 12-C , 15-H ) :   0.9780
B( 16-S , 17-C ) :   1.1658 B( 16-S , 20-C ) :   1.1377 B( 17-C , 18-C ) :   1.6216
B( 17-C , 33-H ) :   0.9606 B( 18-C , 19-C ) :   1.2498 B( 18-C , 21-H ) :   0.9799
B( 19-C , 20-C ) :   1.6176 B( 19-C , 22-C ) :   1.0251 B( 22-C , 23-H ) :   0.9201
B( 22-C , 24-H ) :   0.9409 B( 22-C , 25-C ) :   1.0651 B( 25-C , 26-H ) :   0.9572
B( 25-C , 27-H ) :   0.9555 B( 25-C , 28-C ) :   1.0873 B( 28-C , 29-H ) :   0.9744
B( 28-C , 30-H ) :   0.9748 B( 28-C , 31-H ) :   0.9746

Dispersion correction           -0.015412159
FINAL SINGLE POINT ENERGY     -1339.873788577498

DIPOLE MOMENT
-------------
                                X             Y             Z
Electronic contribution:      0.86243     -17.65928      14.88863
Nuclear contribution   :     -1.03695      18.33685     -15.01173
                        -----------------------------------------
Total Dipole Moment    :     -0.17451       0.67757      -0.12310
                        -----------------------------------------
Magnitude (a.u.)       :      0.71043
Magnitude (Debye)      :      1.80578

Rotational constants in cm-1:     0.018104     0.009488     0.007792
Rotational constants in MHz :   542.750740   284.454631   233.597077

                             ****ORCA TERMINATED NORMALLY****
TOTAL RUN TIME: 0 days 0 hours 0 minutes 36 seconds 739 msec
