                         Program Version 4.2.1 -  RELEASE  -
|  1> ! wB97X-D3 SP def2-SVP
|  2> %pal
|  3> nprocs 16
|  4> end
|  5>
|  6> * xyz 0 1
|  7> S 	 -72.8728 	 37.0564 	 116.847
|  8> C 	 -71.9028 	 35.7056 	 116.265
|  9> C 	 -71.4183 	 34.9677 	 117.282
| 10> C 	 -71.6111 	 35.5029 	 118.596
| 11> C 	 -72.4122 	 36.6447 	 118.56
| 12> H 	 -71.4336 	 34.9206 	 119.439
| 13> C 	 -70.9244 	 33.6067 	 117.141
| 14> H 	 -70.1316 	 33.4854 	 117.927
| 15> H 	 -70.404 	 33.5383 	 116.212
| 16> C 	 -71.9518 	 32.4824 	 117.278
| 17> H 	 -71.3561 	 31.5358 	 117.255
| 18> H 	 -72.4572 	 32.5532 	 118.265
| 19> C 	 -72.998 	 32.488 	 116.178
| 20> H 	 -73.5435 	 33.4652 	 116.005
| 21> H 	 -72.5022 	 32.3027 	 115.235
| 22> H 	 -73.7636 	 31.8651 	 116.398
| 23> S 	 -72.5079 	 39.0892 	 119.679
| 24> C 	 -73.1129 	 39.2889 	 121.331
| 25> C 	 -73.553 	 38.0921 	 121.847
| 26> C 	 -73.4718 	 37.0128 	 120.912
| 27> C 	 -72.9313 	 37.4095 	 119.673
| 28> H 	 -73.816 	 38.0103 	 122.852
| 29> C 	 -73.9576 	 35.6126 	 121.236
| 30> H 	 -74.3745 	 35.0507 	 120.349
| 31> H 	 -74.8674 	 35.6958 	 121.832
| 32> C 	 -73.0388 	 34.5733 	 121.947
| 33> H 	 -72.8913 	 34.8931 	 122.936
| 34> H 	 -72.1277 	 34.5989 	 121.447
| 35> C 	 -73.5399 	 33.1195 	 121.831
| 36> H 	 -74.5161 	 32.9125 	 122.274
| 37> H 	 -72.8928 	 32.2405 	 122.179
| 38> H 	 -73.7228 	 33.0319 	 120.77
| 39> H 	 -71.8992 	 35.2582 	 115.292
| 40> H 	 -73.146 	 40.2735 	 121.827
| 41> *
| 42>
| 43>                          ****END OF INPUT****

CARTESIAN COORDINATES (ANGSTROEM)
---------------------------------
  S    -72.872800   37.056400  116.847000
  C    -71.902800   35.705600  116.265000
  C    -71.418300   34.967700  117.282000
  C    -71.611100   35.502900  118.596000
  C    -72.412200   36.644700  118.560000
  H    -71.433600   34.920600  119.439000
  C    -70.924400   33.606700  117.141000
  H    -70.131600   33.485400  117.927000
  H    -70.404000   33.538300  116.212000
  C    -71.951800   32.482400  117.278000
  H    -71.356100   31.535800  117.255000
  H    -72.457200   32.553200  118.265000
  C    -72.998000   32.488000  116.178000
  H    -73.543500   33.465200  116.005000
  H    -72.502200   32.302700  115.235000
  H    -73.763600   31.865100  116.398000
  S    -72.507900   39.089200  119.679000
  C    -73.112900   39.288900  121.331000
  C    -73.553000   38.092100  121.847000
  C    -73.471800   37.012800  120.912000
  C    -72.931300   37.409500  119.673000
  H    -73.816000   38.010300  122.852000
  C    -73.957600   35.612600  121.236000
  H    -74.374500   35.050700  120.349000
  H    -74.867400   35.695800  121.832000
  C    -73.038800   34.573300  121.947000
  H    -72.891300   34.893100  122.936000
  H    -72.127700   34.598900  121.447000
  C    -73.539900   33.119500  121.831000
  H    -74.516100   32.912500  122.274000
  H    -72.892800   32.240500  122.179000
  H    -73.722800   33.031900  120.770000
  H    -71.899200   35.258200  115.292000
  H    -73.146000   40.273500  121.827000

 Total Charge           Charge          ....    0
 Multiplicity           Mult            ....    1
 Number of Electrons    NEL             ....  134
 Basis Dimension        Dim             ....  322

ORBITAL ENERGIES
----------------

  NO   OCC          E(Eh)            E(eV)
   0   2.0000     -88.967555     -2420.9302
   1   2.0000     -88.966082     -2420.8902
   2   2.0000     -10.337957      -281.3101
   3   2.0000     -10.327422      -281.0234
   4   2.0000     -10.322417      -280.8873
   5   2.0000     -10.310181      -280.5543
   6   2.0000     -10.307478      -280.4807
   7   2.0000     -10.296778      -280.1896
   8   2.0000     -10.293949      -280.1126
   9   2.0000     -10.293494      -280.1002
  10   2.0000     -10.292420      -280.0710
  11   2.0000     -10.288349      -279.9602
  12   2.0000     -10.286670      -279.9145
  13   2.0000     -10.285534      -279.8836
  14   2.0000     -10.283297      -279.8227
  15   2.0000     -10.271909      -279.5129
  16   2.0000      -8.081003      -219.8953
  17   2.0000      -8.080923      -219.8931
  18   2.0000      -6.039656      -164.3474
  19   2.0000      -6.039424      -164.3411
  20   2.0000      -6.035760      -164.2414
  21   2.0000      -6.035426      -164.2323
  22   2.0000      -6.031872      -164.1356
  23   2.0000      -6.031388      -164.1224
  24   2.0000      -1.005030       -27.3483
  25   2.0000      -0.983572       -26.7644
  26   2.0000      -0.916948       -24.9514
  27   2.0000      -0.908680       -24.7264
  28   2.0000      -0.872529       -23.7427
  29   2.0000      -0.853043       -23.2125
  30   2.0000      -0.849436       -23.1143
  31   2.0000      -0.818273       -22.2663
  32   2.0000      -0.783576       -21.3222
  33   2.0000      -0.771949       -21.0058
  34   2.0000      -0.715815       -19.4783
  35   2.0000      -0.702708       -19.1217
  36   2.0000      -0.697034       -18.9673
  37   2.0000      -0.667641       -18.1674
  38   2.0000      -0.637654       -17.3514
  39   2.0000      -0.626137       -17.0380
  40   2.0000      -0.600281       -16.3345
  41   2.0000      -0.572686       -15.5836
  42   2.0000      -0.569108       -15.4862
  43   2.0000      -0.556025       -15.1302
  44   2.0000      -0.543020       -14.7763
  45   2.0000      -0.523422       -14.2430
  46   2.0000      -0.518217       -14.1014
  47   2.0000      -0.514939       -14.0122
  48   2.0000      -0.508199       -13.8288
  49   2.0000      -0.499548       -13.5934
  50   2.0000      -0.492691       -13.4068
  51   2.0000      -0.474806       -12.9201
  52   2.0000      -0.471463       -12.8292
  53   2.0000      -0.460443       -12.5293
  54   2.0000      -0.458937       -12.4883
  55   2.0000      -0.456542       -12.4231
  56   2.0000      -0.445146       -12.1130
  57   2.0000      -0.438352       -11.9282
  58   2.0000      -0.433551       -11.7975
  59   2.0000      -0.429296       -11.6818
  60   2.0000      -0.423554       -11.5255
  61   2.0000      -0.417925       -11.3723
  62   2.0000      -0.414985       -11.2923
  63   2.0000      -0.348565        -9.4849
  64   2.0000      -0.330536        -8.9943
  65   2.0000      -0.328025        -8.9260
  66   2.0000      -0.294809        -8.0222
  67   0.0000       0.025321         0.6890
  68   0.0000       0.064369         1.7516
  69   0.0000       0.105496         2.8707
  70   0.0000       0.116476         3.1695
  71   0.0000       0.117831         3.2063

MULLIKEN ATOMIC CHARGES
-----------------------
   0 S :    0.096861
   1 C :   -0.087976
   2 C :   -0.126564
   3 C :    0.096211
   4 C :   -0.144242
   5 H :   -0.029747
   6 C :    0.039334
   7 H :    0.027918
   8 H :    0.011711
   9 C :   -0.056947
  10 H :    0.041507
  11 H :    0.028077
  12 C :   -0.030787
  13 H :    0.040558
  14 H :    0.023361
  15 H :    0.014364
  16 S :    0.108541
  17 C :   -0.105961
  18 C :   -0.001986
  19 C :   -0.009435
  20 C :   -0.143039
  21 H :    0.000940
  22 C :   -0.008953
  23 H :    0.026982
  24 H :    0.022426
  25 C :    0.016009
  26 H :    0.015497
  27 H :    0.008340
  28 C :   -0.085097
  29 H :    0.027849
  30 H :    0.055300
  31 H :    0.021117
  32 H :    0.035880
  33 H :    0.071951
Sum of atomic charges:   -0.0000000

LOEWDIN ATOMIC CHARGES
----------------------
   0 S :    0.369905
   1 C :   -0.192609
   2 C :   -0.069219
   3 C :   -0.045339
   4 C :   -0.163457
   5 H :    0.018826
   6 C :   -0.038744
   7 H :    0.034902
   8 H :    0.024595
   9 C :   -0.035812
  10 H :    0.032119
  11 H :    0.023969
  12 C :   -0.063393
  13 H :    0.035313
  14 H :    0.023387
  15 H :    0.012215
  16 S :    0.414609
  17 C :   -0.178512
  18 C :   -0.062099
  19 C :   -0.054549
  20 C :   -0.207277
  21 H :    0.024449
  22 C :   -0.039702
  23 H :    0.035241
  24 H :    0.030296
  25 C :   -0.027918
  26 H :    0.014938
  27 H :    0.012667
  28 C :   -0.073754
  29 H :    0.023220
  30 H :    0.038617
  31 H :    0.021046
  32 H :    0.026512
  33 H :    0.035556

  Mayer bond orders larger than 0.100000
B(  0-S ,  1-C ) :   1.1019 B(  0-S ,  4-C ) :   1.1375 B(  1-C ,  2-C ) :   1.6641
B(  1-C , 32-H ) :   0.9580 B(  2-C ,  3-C ) :   1.2245 B(  2-C ,  6-C ) :   1.0448
B(  3-C ,  4-C ) :   1.5794 B(  3-C ,  5-H ) :   0.9950 B(  4-C , 20-C ) :   1.0334
B(  6-C ,  7-H ) :   0.9327 B(  6-C ,  8-H ) :   0.9346 B(  6-C ,  9-C ) :   1.0669
B(  9-C , 10-H ) :   0.9524 B(  9-C , 11-H ) :   0.9524 B(  9-C , 12-C ) :   1.0796
B( 12-C , 13-H ) :   0.9683 B( 12-C , 14-H ) :   0.9741 B( 12-C , 15-H ) :   0.9707
B( 16-S , 17-C ) :   1.1568 B( 16-S , 20-C ) :   1.1598 B( 17-C , 18-C ) :   1.5903
B( 17-C , 20-C ) :   0.1000 B( 17-C , 33-H ) :   0.9660 B( 18-C , 19-C ) :   1.2519
B( 18-C , 21-H ) :   1.0024 B( 19-C , 20-C ) :   1.5688 B( 19-C , 22-C ) :   1.0465
B( 22-C , 23-H ) :   0.9416 B( 22-C , 24-H ) :   0.9359 B( 22-C , 25-C ) :   1.0521
B( 25-C , 26-H ) :   0.9489 B( 25-C , 27-H ) :   0.9562 B( 25-C , 28-C ) :   1.0668
B( 28-C , 29-H ) :   0.9756 B( 28-C , 30-H ) :   0.9753 B( 28-C , 31-H ) :   0.9724

Dispersion correction           -0.015551325
FINAL SINGLE POINT ENERGY     -1339.866436012996

DIPOLE MOMENT
-------------
                                X             Y             Z
Electronic contribution:      1.81725      30.48748      -5.17913
Nuclear contribution   :     -1.91426     -31.17796       5.58019
                        -----------------------------------------
Total Dipole Moment    :     -0.09701      -0.69048       0.40106
                        -----------------------------------------
Magnitude (a.u.)       :      0.80438
Magnitude (Debye)      :      2.04457

Rotational constants in cm-1:     0.018343     0.010264     0.007152
Rotational constants in MHz :   549.923410   307.699838   214.416331

                             ****ORCA TERMINATED NORMALLY****
TOTAL RUN TIME: 0 days 0 hours 0 minutes 35 seconds 748 msec
