                         Program Version 4.2.1 -  RELEASE  -
|  1> ! wB97X-D3 SP def2-SVP
|  2> %pal
|  3> nprocs 16
|  4> end
|  5>
|  6> * xyz 0 1
|  7> S 	 26.783 	 4.4158 	 77.9883
|  8> C 	 27.8048 	 5.76438 	 78.2795
|  9> C 	 29.1287 	 5.33123 	 78.1699
| 10> C 	 29.2353 	 3.89469 	 77.9678
| 11> C 	 28.0545 	 3.20242 	 77.964
| 12> H 	 30.1333 	 3.27929 	 77.8587
| 13> C 	 30.3224 	 6.18417 	 78.3405
| 14> H 	 30.7083 	 5.88216 	 79.3094
| 15> H 	 29.9969 	 7.20276 	 78.4556
| 16> C 	 31.4551 	 5.95938 	 77.3002
| 17> H 	 32.3697 	 6.38238 	 77.6937
| 18> H 	 31.608 	 4.90069 	 77.1997
| 19> C 	 31.0434 	 6.55875 	 75.9529
| 20> H 	 31.6722 	 6.24004 	 75.1192
| 21> H 	 30.0296 	 6.23997 	 75.6653
| 22> H 	 31.1092 	 7.58489 	 75.9206
| 23> S 	 28.8938 	 0.799696 	 76.8798
| 24> C 	 27.9702 	 -0.679683 	 77.2415
| 25> C 	 26.8567 	 -0.392005 	 78.0281
| 26> C 	 26.8329 	 0.968288 	 78.5014
| 27> C 	 27.8433 	 1.75746 	 77.9325
| 28> H 	 26.073 	 -1.16479 	 78.0832
| 29> C 	 25.6038 	 1.55133 	 79.209
| 30> H 	 25.9021 	 2.45683 	 79.7638
| 31> H 	 25.4701 	 0.854615 	 80.0708
| 32> C 	 24.3358 	 1.73165 	 78.3935
| 33> H 	 23.9747 	 0.7013 	 78.2383
| 34> H 	 24.5759 	 2.13858 	 77.3915
| 35> C 	 23.246 	 2.62529 	 78.9892
| 36> H 	 22.1892 	 2.30257 	 78.7497
| 37> H 	 23.3584 	 3.65779 	 78.7798
| 38> H 	 23.247 	 2.47446 	 80.0913
| 39> H 	 27.4607 	 6.83648 	 78.4569
| 40> H 	 28.1287 	 -1.67473 	 76.8536
| 41> *
| 42>
| 43>                          ****END OF INPUT****

CARTESIAN COORDINATES (ANGSTROEM)
---------------------------------
  S     26.783000    4.415800   77.988300
  C     27.804800    5.764380   78.279500
  C     29.128700    5.331230   78.169900
  C     29.235300    3.894690   77.967800
  C     28.054500    3.202420   77.964000
  H     30.133300    3.279290   77.858700
  C     30.322400    6.184170   78.340500
  H     30.708300    5.882160   79.309400
  H     29.996900    7.202760   78.455600
  C     31.455100    5.959380   77.300200
  H     32.369700    6.382380   77.693700
  H     31.608000    4.900690   77.199700
  C     31.043400    6.558750   75.952900
  H     31.672200    6.240040   75.119200
  H     30.029600    6.239970   75.665300
  H     31.109200    7.584890   75.920600
  S     28.893800    0.799696   76.879800
  C     27.970200   -0.679683   77.241500
  C     26.856700   -0.392005   78.028100
  C     26.832900    0.968288   78.501400
  C     27.843300    1.757460   77.932500
  H     26.073000   -1.164790   78.083200
  C     25.603800    1.551330   79.209000
  H     25.902100    2.456830   79.763800
  H     25.470100    0.854615   80.070800
  C     24.335800    1.731650   78.393500
  H     23.974700    0.701300   78.238300
  H     24.575900    2.138580   77.391500
  C     23.246000    2.625290   78.989200
  H     22.189200    2.302570   78.749700
  H     23.358400    3.657790   78.779800
  H     23.247000    2.474460   80.091300
  H     27.460700    6.836480   78.456900
  H     28.128700   -1.674730   76.853600

 Total Charge           Charge          ....    0
 Multiplicity           Mult            ....    1
 Number of Electrons    NEL             ....  134
 Basis Dimension        Dim             ....  322

ORBITAL ENERGIES
----------------

  NO   OCC          E(Eh)            E(eV)
   0   2.0000     -88.971368     -2421.0340
   1   2.0000     -88.963236     -2420.8127
   2   2.0000     -10.334872      -281.2262
   3   2.0000     -10.331253      -281.1277
   4   2.0000     -10.323420      -280.9145
   5   2.0000     -10.319671      -280.8125
   6   2.0000     -10.309730      -280.5420
   7   2.0000     -10.303319      -280.3676
   8   2.0000     -10.301402      -280.3154
   9   2.0000     -10.294657      -280.1319
  10   2.0000     -10.291136      -280.0360
  11   2.0000     -10.287330      -279.9325
  12   2.0000     -10.285826      -279.8916
  13   2.0000     -10.285722      -279.8887
  14   2.0000     -10.278408      -279.6897
  15   2.0000     -10.267903      -279.4038
  16   2.0000      -8.084922      -220.0019
  17   2.0000      -8.077858      -219.8097
  18   2.0000      -6.043565      -164.4538
  19   2.0000      -6.039623      -164.3465
  20   2.0000      -6.036540      -164.2626
  21   2.0000      -6.035584      -164.2366
  22   2.0000      -6.032173      -164.1438
  23   2.0000      -6.028640      -164.0476
  24   2.0000      -1.006178       -27.3795
  25   2.0000      -0.982498       -26.7351
  26   2.0000      -0.913696       -24.8629
  27   2.0000      -0.904579       -24.6148
  28   2.0000      -0.872428       -23.7400
  29   2.0000      -0.848524       -23.0895
  30   2.0000      -0.841483       -22.8979
  31   2.0000      -0.817676       -22.2501
  32   2.0000      -0.780656       -21.2427
  33   2.0000      -0.769393       -20.9362
  34   2.0000      -0.714112       -19.4320
  35   2.0000      -0.698164       -18.9980
  36   2.0000      -0.689206       -18.7542
  37   2.0000      -0.665249       -18.1023
  38   2.0000      -0.632980       -17.2243
  39   2.0000      -0.619972       -16.8703
  40   2.0000      -0.591022       -16.0825
  41   2.0000      -0.569058       -15.4849
  42   2.0000      -0.562092       -15.2953
  43   2.0000      -0.552308       -15.0291
  44   2.0000      -0.534498       -14.5444
  45   2.0000      -0.520967       -14.1762
  46   2.0000      -0.518735       -14.1155
  47   2.0000      -0.516890       -14.0653
  48   2.0000      -0.505303       -13.7500
  49   2.0000      -0.501751       -13.6534
  50   2.0000      -0.487146       -13.2559
  51   2.0000      -0.475693       -12.9443
  52   2.0000      -0.473611       -12.8876
  53   2.0000      -0.466045       -12.6817
  54   2.0000      -0.462345       -12.5810
  55   2.0000      -0.448362       -12.2006
  56   2.0000      -0.440360       -11.9828
  57   2.0000      -0.436370       -11.8742
  58   2.0000      -0.431604       -11.7446
  59   2.0000      -0.424883       -11.5616
  60   2.0000      -0.420015       -11.4292
  61   2.0000      -0.411419       -11.1953
  62   2.0000      -0.404482       -11.0065
  63   2.0000      -0.354934        -9.6582
  64   2.0000      -0.333608        -9.0779
  65   2.0000      -0.320373        -8.7178
  66   2.0000      -0.290795        -7.9129
  67   0.0000       0.021307         0.5798
  68   0.0000       0.078123         2.1258
  69   0.0000       0.103699         2.8218
  70   0.0000       0.119302         3.2464
  71   0.0000       0.123525         3.3613

MULLIKEN ATOMIC CHARGES
-----------------------
   0 S :    0.093055
   1 C :   -0.137515
   2 C :   -0.115435
   3 C :   -0.002744
   4 C :   -0.123731
   5 H :    0.018420
   6 C :    0.080992
   7 H :    0.034613
   8 H :    0.006810
   9 C :   -0.049029
  10 H :    0.025560
  11 H :    0.026604
  12 C :   -0.028364
  13 H :    0.024817
  14 H :    0.037444
  15 H :    0.011522
  16 S :    0.101428
  17 C :   -0.091839
  18 C :   -0.058157
  19 C :   -0.047865
  20 C :   -0.129599
  21 H :    0.039285
  22 C :    0.022031
  23 H :    0.028364
  24 H :    0.026387
  25 C :   -0.044436
  26 H :    0.024810
  27 H :    0.036447
  28 C :   -0.050192
  29 H :    0.036933
  30 H :    0.039787
  31 H :    0.024793
  32 H :    0.081216
  33 H :    0.057587
Sum of atomic charges:   -0.0000000

LOEWDIN ATOMIC CHARGES
----------------------
   0 S :    0.422360
   1 C :   -0.224342
   2 C :   -0.066014
   3 C :   -0.074343
   4 C :   -0.188168
   5 H :    0.028193
   6 C :   -0.031551
   7 H :    0.035465
   8 H :    0.024747
   9 C :   -0.029684
  10 H :    0.023706
  11 H :    0.021706
  12 C :   -0.061564
  13 H :    0.026392
  14 H :    0.030617
  15 H :    0.012729
  16 S :    0.391856
  17 C :   -0.176287
  18 C :   -0.070628
  19 C :   -0.055061
  20 C :   -0.186250
  21 H :    0.038492
  22 C :   -0.049363
  23 H :    0.022550
  24 H :    0.033463
  25 C :   -0.046359
  26 H :    0.026185
  27 H :    0.025860
  28 C :   -0.067956
  29 H :    0.034308
  30 H :    0.020768
  31 H :    0.027398
  32 H :    0.049922
  33 H :    0.030853

  Mayer bond orders larger than 0.100000
B(  0-S ,  1-C ) :   1.1426 B(  0-S ,  4-C ) :   1.1424 B(  1-C ,  2-C ) :   1.5834
B(  1-C , 32-H ) :   0.9609 B(  2-C ,  3-C ) :   1.2254 B(  2-C ,  6-C ) :   1.0379
B(  3-C ,  4-C ) :   1.5812 B(  3-C ,  5-H ) :   0.9885 B(  4-C , 20-C ) :   1.0569
B(  6-C ,  7-H ) :   0.9305 B(  6-C ,  8-H ) :   0.9411 B(  6-C ,  9-C ) :   1.0709
B(  9-C , 10-H ) :   0.9549 B(  9-C , 11-H ) :   0.9563 B(  9-C , 12-C ) :   1.0732
B( 12-C , 13-H ) :   0.9727 B( 12-C , 14-H ) :   0.9760 B( 12-C , 15-H ) :   0.9756
B( 16-S , 17-C ) :   1.1410 B( 16-S , 20-C ) :   1.1327 B( 17-C , 18-C ) :   1.6330
B( 17-C , 33-H ) :   0.9665 B( 18-C , 19-C ) :   1.2216 B( 18-C , 21-H ) :   0.9828
B( 19-C , 20-C ) :   1.5774 B( 19-C , 22-C ) :   1.0607 B( 22-C , 23-H ) :   0.9318
B( 22-C , 24-H ) :   0.9232 B( 22-C , 25-C ) :   1.0486 B( 25-C , 26-H ) :   0.9507
B( 25-C , 27-H ) :   0.9600 B( 25-C , 28-C ) :   1.0788 B( 28-C , 29-H ) :   0.9740
B( 28-C , 30-H ) :   0.9765 B( 28-C , 31-H ) :   0.9738

Dispersion correction           -0.014630606
FINAL SINGLE POINT ENERGY     -1339.880493613889

DIPOLE MOMENT
-------------
                                X             Y             Z
Electronic contribution:      2.67346     -10.36826      -1.90782
Nuclear contribution   :     -2.68080      10.43166       1.99343
                        -----------------------------------------
Total Dipole Moment    :     -0.00734       0.06340       0.08560
                        -----------------------------------------
Magnitude (a.u.)       :      0.10677
Magnitude (Debye)      :      0.27140

Rotational constants in cm-1:     0.020732     0.008797     0.006545
Rotational constants in MHz :   621.530084   263.730907   196.219107

                             ****ORCA TERMINATED NORMALLY****
TOTAL RUN TIME: 0 days 0 hours 0 minutes 32 seconds 295 msec
