                         Program Version 4.2.1 -  RELEASE  -
|  1> ! wB97X-D3 SP def2-SVP
|  2> %pal
|  3> nprocs 16
|  4> end
|  5>
|  6> * xyz 0 1
|  7> S 	 -53.8455 	 39.0841 	 103.302
|  8> C 	 -53.1147 	 40.673 	 103.329
|  9> C 	 -52.6721 	 40.9685 	 104.659
| 10> C 	 -53.0312 	 39.9227 	 105.594
| 11> C 	 -53.6816 	 38.8336 	 105.005
| 12> H 	 -52.8432 	 39.9581 	 106.62
| 13> C 	 -52.043 	 42.2705 	 105.232
| 14> H 	 -52.6411 	 42.8428 	 105.989
| 15> H 	 -52.0588 	 43.0937 	 104.544
| 16> C 	 -50.5634 	 42.084 	 105.641
| 17> H 	 -50.3851 	 41.1879 	 106.267
| 18> H 	 -49.9438 	 42.0489 	 104.707
| 19> C 	 -49.9042 	 43.2224 	 106.481
| 20> H 	 -50.4559 	 43.211 	 107.481
| 21> H 	 -48.9097 	 43.0006 	 106.855
| 22> H 	 -49.8478 	 44.2082 	 106.05
| 23> S 	 -55.7171 	 36.9928 	 105.367
| 24> C 	 -55.49 	 35.5444 	 106.292
| 25> C 	 -54.1994 	 35.4768 	 106.814
| 26> C 	 -53.442 	 36.6742 	 106.478
| 27> C 	 -54.0956 	 37.5426 	 105.626
| 28> H 	 -53.7656 	 34.572 	 107.139
| 29> C 	 -51.9778 	 36.8328 	 106.773
| 30> H 	 -51.5478 	 37.7873 	 106.69
| 31> H 	 -51.4235 	 36.1315 	 106.094
| 32> C 	 -51.6116 	 36.3014 	 108.204
| 33> H 	 -50.5048 	 36.4057 	 108.359
| 34> H 	 -51.8564 	 35.2444 	 108.148
| 35> C 	 -52.4633 	 36.8307 	 109.384
| 36> H 	 -53.3966 	 36.3758 	 109.488
| 37> H 	 -52.5785 	 37.8948 	 109.247
| 38> H 	 -51.94 	 36.7065 	 110.365
| 39> H 	 -52.8734 	 41.2768 	 102.455
| 40> H 	 -56.1889 	 34.7357 	 106.374
| 41> *
| 42>
| 43>                          ****END OF INPUT****

CARTESIAN COORDINATES (ANGSTROEM)
---------------------------------
  S    -53.845500   39.084100  103.302000
  C    -53.114700   40.673000  103.329000
  C    -52.672100   40.968500  104.659000
  C    -53.031200   39.922700  105.594000
  C    -53.681600   38.833600  105.005000
  H    -52.843200   39.958100  106.620000
  C    -52.043000   42.270500  105.232000
  H    -52.641100   42.842800  105.989000
  H    -52.058800   43.093700  104.544000
  C    -50.563400   42.084000  105.641000
  H    -50.385100   41.187900  106.267000
  H    -49.943800   42.048900  104.707000
  C    -49.904200   43.222400  106.481000
  H    -50.455900   43.211000  107.481000
  H    -48.909700   43.000600  106.855000
  H    -49.847800   44.208200  106.050000
  S    -55.717100   36.992800  105.367000
  C    -55.490000   35.544400  106.292000
  C    -54.199400   35.476800  106.814000
  C    -53.442000   36.674200  106.478000
  C    -54.095600   37.542600  105.626000
  H    -53.765600   34.572000  107.139000
  C    -51.977800   36.832800  106.773000
  H    -51.547800   37.787300  106.690000
  H    -51.423500   36.131500  106.094000
  C    -51.611600   36.301400  108.204000
  H    -50.504800   36.405700  108.359000
  H    -51.856400   35.244400  108.148000
  C    -52.463300   36.830700  109.384000
  H    -53.396600   36.375800  109.488000
  H    -52.578500   37.894800  109.247000
  H    -51.940000   36.706500  110.365000
  H    -52.873400   41.276800  102.455000
  H    -56.188900   34.735700  106.374000

 Total Charge           Charge          ....    0
 Multiplicity           Mult            ....    1
 Number of Electrons    NEL             ....  134
 Basis Dimension        Dim             ....  322

ORBITAL ENERGIES
----------------

  NO   OCC          E(Eh)            E(eV)
   0   2.0000     -88.970971     -2421.0232
   1   2.0000     -88.965745     -2420.8810
   2   2.0000     -10.334947      -281.2282
   3   2.0000     -10.327916      -281.0369
   4   2.0000     -10.324590      -280.9464
   5   2.0000     -10.320742      -280.8417
   6   2.0000     -10.314857      -280.6815
   7   2.0000     -10.305574      -280.4289
   8   2.0000     -10.300224      -280.2834
   9   2.0000     -10.297774      -280.2167
  10   2.0000     -10.296041      -280.1695
  11   2.0000     -10.294637      -280.1313
  12   2.0000     -10.288708      -279.9700
  13   2.0000     -10.288199      -279.9561
  14   2.0000     -10.283338      -279.8239
  15   2.0000     -10.271735      -279.5081
  16   2.0000      -8.085697      -220.0230
  17   2.0000      -8.081127      -219.8986
  18   2.0000      -6.044187      -164.4707
  19   2.0000      -6.039998      -164.3567
  20   2.0000      -6.039646      -164.3471
  21   2.0000      -6.036669      -164.2661
  22   2.0000      -6.035364      -164.2306
  23   2.0000      -6.032014      -164.1394
  24   2.0000      -1.007298       -27.4100
  25   2.0000      -0.983995       -26.7759
  26   2.0000      -0.906837       -24.6763
  27   2.0000      -0.903841       -24.5948
  28   2.0000      -0.866749       -23.5854
  29   2.0000      -0.847717       -23.0675
  30   2.0000      -0.841135       -22.8885
  31   2.0000      -0.815589       -22.1933
  32   2.0000      -0.784419       -21.3451
  33   2.0000      -0.774867       -21.0852
  34   2.0000      -0.701826       -19.0976
  35   2.0000      -0.694805       -18.9066
  36   2.0000      -0.693126       -18.8609
  37   2.0000      -0.658658       -17.9230
  38   2.0000      -0.647331       -17.6148
  39   2.0000      -0.626345       -17.0437
  40   2.0000      -0.603139       -16.4122
  41   2.0000      -0.570054       -15.5120
  42   2.0000      -0.558962       -15.2101
  43   2.0000      -0.549171       -14.9437
  44   2.0000      -0.539452       -14.6792
  45   2.0000      -0.522954       -14.2303
  46   2.0000      -0.518237       -14.1020
  47   2.0000      -0.508423       -13.8349
  48   2.0000      -0.504845       -13.7375
  49   2.0000      -0.496090       -13.4993
  50   2.0000      -0.493440       -13.4272
  51   2.0000      -0.484059       -13.1719
  52   2.0000      -0.475532       -12.9399
  53   2.0000      -0.467575       -12.7234
  54   2.0000      -0.460105       -12.5201
  55   2.0000      -0.450298       -12.2532
  56   2.0000      -0.447069       -12.1654
  57   2.0000      -0.433158       -11.7868
  58   2.0000      -0.425009       -11.5651
  59   2.0000      -0.423844       -11.5334
  60   2.0000      -0.419495       -11.4150
  61   2.0000      -0.409535       -11.1440
  62   2.0000      -0.405901       -11.0451
  63   2.0000      -0.348396        -9.4803
  64   2.0000      -0.332287        -9.0420
  65   2.0000      -0.327883        -8.9222
  66   2.0000      -0.295879        -8.0513
  67   0.0000       0.030600         0.8327
  68   0.0000       0.068210         1.8561
  69   0.0000       0.109681         2.9846
  70   0.0000       0.120116         3.2685
  71   0.0000       0.121903         3.3171

MULLIKEN ATOMIC CHARGES
-----------------------
   0 S :    0.120742
   1 C :   -0.117137
   2 C :   -0.079792
   3 C :    0.054585
   4 C :   -0.141950
   5 H :   -0.006685
   6 C :    0.052282
   7 H :    0.039515
   8 H :    0.001447
   9 C :   -0.099497
  10 H :    0.038414
  11 H :    0.042488
  12 C :   -0.076177
  13 H :    0.029257
  14 H :    0.029885
  15 H :    0.039131
  16 S :    0.111627
  17 C :   -0.083599
  18 C :   -0.028541
  19 C :   -0.051752
  20 C :   -0.144228
  21 H :    0.021152
  22 C :    0.075936
  23 H :    0.016484
  24 H :    0.048471
  25 C :   -0.129864
  26 H :    0.041834
  27 H :    0.018596
  28 C :   -0.025344
  29 H :    0.028500
  30 H :    0.021601
  31 H :    0.035735
  32 H :    0.061367
  33 H :    0.055517
Sum of atomic charges:   -0.0000000

LOEWDIN ATOMIC CHARGES
----------------------
   0 S :    0.428469
   1 C :   -0.205478
   2 C :   -0.053747
   3 C :   -0.054593
   4 C :   -0.199680
   5 H :    0.020636
   6 C :   -0.044580
   7 H :    0.038474
   8 H :    0.025833
   9 C :   -0.044429
  10 H :    0.025684
  11 H :    0.029776
  12 C :   -0.077072
  13 H :    0.030423
  14 H :    0.026065
  15 H :    0.020050
  16 S :    0.421623
  17 C :   -0.181290
  18 C :   -0.068353
  19 C :   -0.055511
  20 C :   -0.209609
  21 H :    0.026634
  22 C :   -0.028445
  23 H :    0.018395
  24 H :    0.043830
  25 C :   -0.046058
  26 H :    0.028631
  27 H :    0.015848
  28 C :   -0.065200
  29 H :    0.017688
  30 H :    0.021182
  31 H :    0.032842
  32 H :    0.034010
  33 H :    0.027952

  Mayer bond orders larger than 0.100000
B(  0-S ,  1-C ) :   1.1539 B(  0-S ,  4-C ) :   1.1770 B(  1-C ,  2-C ) :   1.5764
B(  1-C ,  4-C ) :   0.1039 B(  1-C , 32-H ) :   0.9698 B(  2-C ,  3-C ) :   1.2597
B(  2-C ,  6-C ) :   1.0218 B(  3-C ,  4-C ) :   1.5520 B(  3-C ,  5-H ) :   1.0044
B(  4-C , 20-C ) :   0.9982 B(  6-C ,  7-H ) :   0.9534 B(  6-C ,  8-H ) :   0.9380
B(  6-C ,  9-C ) :   1.0402 B(  9-C , 10-H ) :   0.9654 B(  9-C , 11-H ) :   0.9576
B(  9-C , 12-C ) :   1.0769 B( 12-C , 13-H ) :   0.9738 B( 12-C , 14-H ) :   0.9740
B( 12-C , 15-H ) :   0.9776 B( 16-S , 17-C ) :   1.1722 B( 16-S , 20-C ) :   1.1414
B( 17-C , 18-C ) :   1.6025 B( 17-C , 33-H ) :   0.9676 B( 18-C , 19-C ) :   1.2306
B( 18-C , 21-H ) :   0.9887 B( 19-C , 20-C ) :   1.6128 B( 19-C , 22-C ) :   1.0508
B( 22-C , 23-H ) :   0.9422 B( 22-C , 24-H ) :   0.9359 B( 22-C , 25-C ) :   1.0650
B( 25-C , 26-H ) :   0.9614 B( 25-C , 27-H ) :   0.9555 B( 25-C , 28-C ) :   1.0729
B( 28-C , 29-H ) :   0.9712 B( 28-C , 30-H ) :   0.9782 B( 28-C , 31-H ) :   0.9743

Dispersion correction           -0.014157487
FINAL SINGLE POINT ENERGY     -1339.868837086218

DIPOLE MOMENT
-------------
                                X             Y             Z
Electronic contribution:    -22.39900     -10.50210     -18.74466
Nuclear contribution   :     22.92334      10.55249      18.99796
                        -----------------------------------------
Total Dipole Moment    :      0.52434       0.05040       0.25330
                        -----------------------------------------
Magnitude (a.u.)       :      0.58449
Magnitude (Debye)      :      1.48566

Rotational constants in cm-1:     0.018156     0.008784     0.006362
Rotational constants in MHz :   544.308419   263.333930   190.735041

                             ****ORCA TERMINATED NORMALLY****
TOTAL RUN TIME: 0 days 0 hours 0 minutes 29 seconds 836 msec
