                         Program Version 4.2.1 -  RELEASE  -
|  1> ! wB97X-D3 SP def2-SVP
|  2> %pal
|  3> nprocs 16
|  4> end
|  5>
|  6> * xyz 0 1
|  7> S 	 -69.7225 	 38.0719 	 117.998
|  8> C 	 -71.2206 	 37.5917 	 118.691
|  9> C 	 -72.316 	 38.3965 	 118.286
| 10> C 	 -71.8332 	 39.4741 	 117.455
| 11> C 	 -70.4367 	 39.5075 	 117.316
| 12> H 	 -72.3955 	 40.2825 	 116.944
| 13> C 	 -73.8313 	 38.1618 	 118.489
| 14> H 	 -73.9725 	 37.9877 	 119.557
| 15> H 	 -74.0329 	 37.2013 	 118.019
| 16> C 	 -74.8106 	 39.2369 	 117.89
| 17> H 	 -74.7088 	 40.1667 	 118.537
| 18> H 	 -74.4975 	 39.4421 	 116.868
| 19> C 	 -76.306 	 39.0569 	 117.93
| 20> H 	 -76.7339 	 38.7747 	 118.844
| 21> H 	 -76.7962 	 39.985 	 117.651
| 22> H 	 -76.6216 	 38.3547 	 117.123
| 23> S 	 -68.2379 	 39.8317 	 115.673
| 24> C 	 -67.9132 	 41.3845 	 114.927
| 25> C 	 -68.7776 	 42.3223 	 115.36
| 26> C 	 -69.8368 	 41.8299 	 116.19
| 27> C 	 -69.6288 	 40.4698 	 116.573
| 28> H 	 -68.6576 	 43.31 	 114.974
| 29> C 	 -70.8838 	 42.773 	 116.646
| 30> H 	 -70.2672 	 43.6902 	 116.812
| 31> H 	 -71.4007 	 42.4723 	 117.51
| 32> C 	 -71.9987 	 43.0419 	 115.545
| 33> H 	 -72.5544 	 42.2072 	 115.317
| 34> H 	 -71.5349 	 43.3365 	 114.636
| 35> C 	 -72.8417 	 44.2257 	 115.996
| 36> H 	 -73.1026 	 43.9249 	 116.99
| 37> H 	 -73.7326 	 44.3024 	 115.467
| 38> H 	 -72.2157 	 45.1147 	 115.9
| 39> H 	 -71.3547 	 36.6544 	 119.16
| 40> H 	 -67.2392 	 41.6055 	 114.142
| 41> *
| 42>
| 43>                          ****END OF INPUT****

CARTESIAN COORDINATES (ANGSTROEM)
---------------------------------
  S    -69.722500   38.071900  117.998000
  C    -71.220600   37.591700  118.691000
  C    -72.316000   38.396500  118.286000
  C    -71.833200   39.474100  117.455000
  C    -70.436700   39.507500  117.316000
  H    -72.395500   40.282500  116.944000
  C    -73.831300   38.161800  118.489000
  H    -73.972500   37.987700  119.557000
  H    -74.032900   37.201300  118.019000
  C    -74.810600   39.236900  117.890000
  H    -74.708800   40.166700  118.537000
  H    -74.497500   39.442100  116.868000
  C    -76.306000   39.056900  117.930000
  H    -76.733900   38.774700  118.844000
  H    -76.796200   39.985000  117.651000
  H    -76.621600   38.354700  117.123000
  S    -68.237900   39.831700  115.673000
  C    -67.913200   41.384500  114.927000
  C    -68.777600   42.322300  115.360000
  C    -69.836800   41.829900  116.190000
  C    -69.628800   40.469800  116.573000
  H    -68.657600   43.310000  114.974000
  C    -70.883800   42.773000  116.646000
  H    -70.267200   43.690200  116.812000
  H    -71.400700   42.472300  117.510000
  C    -71.998700   43.041900  115.545000
  H    -72.554400   42.207200  115.317000
  H    -71.534900   43.336500  114.636000
  C    -72.841700   44.225700  115.996000
  H    -73.102600   43.924900  116.990000
  H    -73.732600   44.302400  115.467000
  H    -72.215700   45.114700  115.900000
  H    -71.354700   36.654400  119.160000
  H    -67.239200   41.605500  114.142000

 Total Charge           Charge          ....    0
 Multiplicity           Mult            ....    1
 Number of Electrons    NEL             ....  134
 Basis Dimension        Dim             ....  322

ORBITAL ENERGIES
----------------

  NO   OCC          E(Eh)            E(eV)
   0   2.0000     -88.968441     -2420.9544
   1   2.0000     -88.963145     -2420.8102
   2   2.0000     -10.332138      -281.1518
   3   2.0000     -10.330573      -281.1092
   4   2.0000     -10.312041      -280.6049
   5   2.0000     -10.311457      -280.5890
   6   2.0000     -10.311061      -280.5782
   7   2.0000     -10.305689      -280.4320
   8   2.0000     -10.300259      -280.2843
   9   2.0000     -10.297769      -280.2165
  10   2.0000     -10.297036      -280.1966
  11   2.0000     -10.291494      -280.0458
  12   2.0000     -10.287671      -279.9418
  13   2.0000     -10.279323      -279.7146
  14   2.0000     -10.278582      -279.6944
  15   2.0000     -10.270627      -279.4780
  16   2.0000      -8.083541      -219.9643
  17   2.0000      -8.077575      -219.8020
  18   2.0000      -6.041950      -164.4098
  19   2.0000      -6.038020      -164.3029
  20   2.0000      -6.036228      -164.2541
  21   2.0000      -6.034388      -164.2041
  22   2.0000      -6.032119      -164.1423
  23   2.0000      -6.028215      -164.0361
  24   2.0000      -1.003860       -27.3164
  25   2.0000      -0.982009       -26.7218
  26   2.0000      -0.913920       -24.8690
  27   2.0000      -0.907434       -24.6925
  28   2.0000      -0.871900       -23.7256
  29   2.0000      -0.856755       -23.3135
  30   2.0000      -0.849404       -23.1135
  31   2.0000      -0.816826       -22.2270
  32   2.0000      -0.784019       -21.3343
  33   2.0000      -0.768841       -20.9212
  34   2.0000      -0.712618       -19.3913
  35   2.0000      -0.703934       -19.1550
  36   2.0000      -0.692007       -18.8305
  37   2.0000      -0.660153       -17.9637
  38   2.0000      -0.639271       -17.3954
  39   2.0000      -0.618736       -16.8367
  40   2.0000      -0.600507       -16.3406
  41   2.0000      -0.574424       -15.6309
  42   2.0000      -0.571849       -15.5608
  43   2.0000      -0.563008       -15.3202
  44   2.0000      -0.529914       -14.4197
  45   2.0000      -0.528764       -14.3884
  46   2.0000      -0.514769       -14.0076
  47   2.0000      -0.510739       -13.8979
  48   2.0000      -0.504753       -13.7350
  49   2.0000      -0.502734       -13.6801
  50   2.0000      -0.498698       -13.5703
  51   2.0000      -0.480667       -13.0796
  52   2.0000      -0.476830       -12.9752
  53   2.0000      -0.468226       -12.7411
  54   2.0000      -0.462763       -12.5924
  55   2.0000      -0.449232       -12.2242
  56   2.0000      -0.448321       -12.1994
  57   2.0000      -0.439157       -11.9501
  58   2.0000      -0.433495       -11.7960
  59   2.0000      -0.431240       -11.7346
  60   2.0000      -0.427533       -11.6338
  61   2.0000      -0.412571       -11.2266
  62   2.0000      -0.408695       -11.1212
  63   2.0000      -0.357615        -9.7312
  64   2.0000      -0.332579        -9.0499
  65   2.0000      -0.324281        -8.8241
  66   2.0000      -0.278639        -7.5822
  67   0.0000       0.021570         0.5869
  68   0.0000       0.076421         2.0795
  69   0.0000       0.106516         2.8984
  70   0.0000       0.119626         3.2552
  71   0.0000       0.130329         3.5464

MULLIKEN ATOMIC CHARGES
-----------------------
   0 S :    0.118204
   1 C :   -0.104517
   2 C :   -0.095417
   3 C :   -0.025943
   4 C :   -0.133743
   5 H :    0.016957
   6 C :    0.083172
   7 H :    0.034194
   8 H :    0.035061
   9 C :   -0.134240
  10 H :    0.039374
  11 H :    0.043196
  12 C :   -0.004461
  13 H :    0.023966
  14 H :    0.027401
  15 H :    0.028456
  16 S :    0.079851
  17 C :   -0.061344
  18 C :   -0.032013
  19 C :   -0.035721
  20 C :   -0.112037
  21 H :    0.009085
  22 C :    0.020520
  23 H :    0.038679
  24 H :    0.016125
  25 C :   -0.052536
  26 H :    0.012931
  27 H :    0.008841
  28 C :    0.007075
  29 H :    0.015754
  30 H :    0.018288
  31 H :    0.038734
  32 H :    0.033958
  33 H :    0.042150
Sum of atomic charges:    0.0000000

LOEWDIN ATOMIC CHARGES
----------------------
   0 S :    0.427112
   1 C :   -0.210160
   2 C :   -0.054098
   3 C :   -0.076389
   4 C :   -0.196361
   5 H :    0.033889
   6 C :   -0.033364
   7 H :    0.033419
   8 H :    0.032720
   9 C :   -0.048000
  10 H :    0.032642
  11 H :    0.025186
  12 C :   -0.061338
  13 H :    0.017638
  14 H :    0.030417
  15 H :    0.027205
  16 S :    0.384386
  17 C :   -0.174594
  18 C :   -0.072110
  19 C :   -0.053269
  20 C :   -0.190415
  21 H :    0.028740
  22 C :   -0.027555
  23 H :    0.041574
  24 H :    0.019425
  25 C :   -0.024137
  26 H :    0.009246
  27 H :    0.016016
  28 C :   -0.050902
  29 H :    0.021936
  30 H :    0.016053
  31 H :    0.029628
  32 H :    0.018379
  33 H :    0.027082

  Mayer bond orders larger than 0.100000
B(  0-S ,  1-C ) :   1.1572 B(  0-S ,  4-C ) :   1.1623 B(  1-C ,  2-C ) :   1.5866
B(  1-C ,  4-C ) :   0.1030 B(  1-C , 32-H ) :   0.9751 B(  2-C ,  3-C ) :   1.2720
B(  2-C ,  6-C ) :   0.9974 B(  3-C ,  4-C ) :   1.5419 B(  3-C ,  5-H ) :   0.9774
B(  4-C , 20-C ) :   1.0705 B(  6-C ,  7-H ) :   0.9372 B(  6-C ,  8-H ) :   0.9379
B(  6-C ,  9-C ) :   1.0767 B(  9-C , 10-H ) :   0.9576 B(  9-C , 11-H ) :   0.9460
B(  9-C , 12-C ) :   1.0932 B( 12-C , 13-H ) :   0.9735 B( 12-C , 14-H ) :   0.9693
B( 12-C , 15-H ) :   0.9714 B( 16-S , 17-C ) :   1.1405 B( 16-S , 20-C ) :   1.1231
B( 17-C , 18-C ) :   1.6415 B( 17-C , 33-H ) :   0.9667 B( 18-C , 19-C ) :   1.2298
B( 18-C , 21-H ) :   0.9885 B( 19-C , 20-C ) :   1.5727 B( 19-C , 22-C ) :   1.0518
B( 22-C , 23-H ) :   0.9412 B( 22-C , 24-H ) :   0.9368 B( 22-C , 25-C ) :   1.0528
B( 25-C , 26-H ) :   0.9550 B( 25-C , 27-H ) :   0.9549 B( 25-C , 28-C ) :   1.0797
B( 28-C , 29-H ) :   0.9725 B( 28-C , 30-H ) :   0.9725 B( 28-C , 31-H ) :   0.9793

Dispersion correction           -0.013728615
FINAL SINGLE POINT ENERGY     -1339.862817536598

DIPOLE MOMENT
-------------
                                X             Y             Z
Electronic contribution:     30.55197     -14.54533      -0.18143
Nuclear contribution   :    -31.28724      14.92109      -0.06004
                        -----------------------------------------
Total Dipole Moment    :     -0.73527       0.37575      -0.24147
                        -----------------------------------------
Magnitude (a.u.)       :      0.86030
Magnitude (Debye)      :      2.18672

Rotational constants in cm-1:     0.015768     0.009846     0.006345
Rotational constants in MHz :   472.716080   295.174745   190.213941

                             ****ORCA TERMINATED NORMALLY****
TOTAL RUN TIME: 0 days 0 hours 0 minutes 33 seconds 895 msec
