                         Program Version 4.2.1 -  RELEASE  -
|  1> ! wB97X-D3 SP def2-SVP
|  2> %pal
|  3> nprocs 16
|  4> end
|  5>
|  6> * xyz 0 1
|  7> S 	 -38.5286 	 57.339 	 111.406
|  8> C 	 -37.3659 	 58.3434 	 110.531
|  9> C 	 -36.2115 	 58.4776 	 111.192
| 10> C 	 -36.2061 	 57.7209 	 112.372
| 11> C 	 -37.3608 	 56.9941 	 112.635
| 12> H 	 -35.4288 	 57.5479 	 113.06
| 13> C 	 -35.0208 	 59.1366 	 110.604
| 14> H 	 -35.3717 	 59.8796 	 109.879
| 15> H 	 -34.5146 	 58.3022 	 110.032
| 16> C 	 -34.0943 	 59.8389 	 111.674
| 17> H 	 -34.7826 	 60.4063 	 112.361
| 18> H 	 -33.737 	 59.0019 	 112.301
| 19> C 	 -33.0247 	 60.6579 	 110.989
| 20> H 	 -33.3529 	 61.4591 	 110.316
| 21> H 	 -32.3385 	 61.0818 	 111.7
| 22> H 	 -32.3996 	 59.9962 	 110.369
| 23> S 	 -37.3713 	 54.2608 	 113.264
| 24> C 	 -37.384 	 53.8487 	 114.951
| 25> C 	 -37.581 	 54.9104 	 115.77
| 26> C 	 -37.5404 	 56.1259 	 115.046
| 27> C 	 -37.5572 	 55.9958 	 113.661
| 28> H 	 -37.7921 	 54.8612 	 116.873
| 29> C 	 -37.6193 	 57.4729 	 115.703
| 30> H 	 -38.3506 	 57.3286 	 116.53
| 31> H 	 -38.0639 	 58.239 	 115.085
| 32> C 	 -36.3014 	 58.0143 	 116.346
| 33> H 	 -35.5046 	 58.0911 	 115.578
| 34> H 	 -35.9392 	 57.2395 	 117.028
| 35> C 	 -36.5126 	 59.4383 	 116.979
| 36> H 	 -37.1285 	 59.2204 	 117.94
| 37> H 	 -37.0954 	 60.1569 	 116.337
| 38> H 	 -35.5763 	 59.7755 	 117.289
| 39> H 	 -37.7095 	 58.8177 	 109.589
| 40> H 	 -37.3243 	 52.7988 	 115.266
| 41> *
| 42>
| 43>                          ****END OF INPUT****

CARTESIAN COORDINATES (ANGSTROEM)
---------------------------------
  S    -38.528600   57.339000  111.406000
  C    -37.365900   58.343400  110.531000
  C    -36.211500   58.477600  111.192000
  C    -36.206100   57.720900  112.372000
  C    -37.360800   56.994100  112.635000
  H    -35.428800   57.547900  113.060000
  C    -35.020800   59.136600  110.604000
  H    -35.371700   59.879600  109.879000
  H    -34.514600   58.302200  110.032000
  C    -34.094300   59.838900  111.674000
  H    -34.782600   60.406300  112.361000
  H    -33.737000   59.001900  112.301000
  C    -33.024700   60.657900  110.989000
  H    -33.352900   61.459100  110.316000
  H    -32.338500   61.081800  111.700000
  H    -32.399600   59.996200  110.369000
  S    -37.371300   54.260800  113.264000
  C    -37.384000   53.848700  114.951000
  C    -37.581000   54.910400  115.770000
  C    -37.540400   56.125900  115.046000
  C    -37.557200   55.995800  113.661000
  H    -37.792100   54.861200  116.873000
  C    -37.619300   57.472900  115.703000
  H    -38.350600   57.328600  116.530000
  H    -38.063900   58.239000  115.085000
  C    -36.301400   58.014300  116.346000
  H    -35.504600   58.091100  115.578000
  H    -35.939200   57.239500  117.028000
  C    -36.512600   59.438300  116.979000
  H    -37.128500   59.220400  117.940000
  H    -37.095400   60.156900  116.337000
  H    -35.576300   59.775500  117.289000
  H    -37.709500   58.817700  109.589000
  H    -37.324300   52.798800  115.266000

 Total Charge           Charge          ....    0
 Multiplicity           Mult            ....    1
 Number of Electrons    NEL             ....  134
 Basis Dimension        Dim             ....  322

ORBITAL ENERGIES
----------------

  NO   OCC          E(Eh)            E(eV)
   0   2.0000     -88.963132     -2420.8099
   1   2.0000     -88.959479     -2420.7105
   2   2.0000     -10.323785      -280.9245
   3   2.0000     -10.323324      -280.9119
   4   2.0000     -10.318796      -280.7887
   5   2.0000     -10.310208      -280.5550
   6   2.0000     -10.300878      -280.3012
   7   2.0000     -10.296181      -280.1733
   8   2.0000     -10.295575      -280.1568
   9   2.0000     -10.294859      -280.1374
  10   2.0000     -10.292157      -280.0638
  11   2.0000     -10.291854      -280.0556
  12   2.0000     -10.288234      -279.9571
  13   2.0000     -10.288055      -279.9522
  14   2.0000     -10.286693      -279.9151
  15   2.0000     -10.280932      -279.7584
  16   2.0000      -8.077811      -219.8084
  17   2.0000      -8.074757      -219.7253
  18   2.0000      -6.036311      -164.2564
  19   2.0000      -6.033074      -164.1683
  20   2.0000      -6.032373      -164.1492
  21   2.0000      -6.029166      -164.0620
  22   2.0000      -6.028522      -164.0444
  23   2.0000      -6.025717      -163.9681
  24   2.0000      -1.008472       -27.4419
  25   2.0000      -0.988391       -26.8955
  26   2.0000      -0.912388       -24.8274
  27   2.0000      -0.902239       -24.5512
  28   2.0000      -0.872644       -23.7459
  29   2.0000      -0.848257       -23.0822
  30   2.0000      -0.846486       -23.0340
  31   2.0000      -0.814887       -22.1742
  32   2.0000      -0.781067       -21.2539
  33   2.0000      -0.767766       -20.8920
  34   2.0000      -0.712813       -19.3966
  35   2.0000      -0.696243       -18.9457
  36   2.0000      -0.688520       -18.7356
  37   2.0000      -0.656567       -17.8661
  38   2.0000      -0.646452       -17.5908
  39   2.0000      -0.617829       -16.8120
  40   2.0000      -0.599574       -16.3152
  41   2.0000      -0.567252       -15.4357
  42   2.0000      -0.562094       -15.2954
  43   2.0000      -0.552854       -15.0439
  44   2.0000      -0.526188       -14.3183
  45   2.0000      -0.522424       -14.2159
  46   2.0000      -0.517803       -14.0901
  47   2.0000      -0.512342       -13.9415
  48   2.0000      -0.506451       -13.7812
  49   2.0000      -0.493659       -13.4331
  50   2.0000      -0.490051       -13.3350
  51   2.0000      -0.483954       -13.1691
  52   2.0000      -0.477114       -12.9829
  53   2.0000      -0.462360       -12.5815
  54   2.0000      -0.460202       -12.5227
  55   2.0000      -0.450189       -12.2503
  56   2.0000      -0.442107       -12.0303
  57   2.0000      -0.441108       -12.0032
  58   2.0000      -0.430770       -11.7218
  59   2.0000      -0.426418       -11.6034
  60   2.0000      -0.423915       -11.5353
  61   2.0000      -0.411297       -11.1920
  62   2.0000      -0.405842       -11.0435
  63   2.0000      -0.338649        -9.2151
  64   2.0000      -0.330093        -8.9823
  65   2.0000      -0.324661        -8.8345
  66   2.0000      -0.302615        -8.2346
  67   0.0000       0.039707         1.0805
  68   0.0000       0.060310         1.6411
  69   0.0000       0.119853         3.2614
  70   0.0000       0.124873         3.3980
  71   0.0000       0.129695         3.5292

MULLIKEN ATOMIC CHARGES
-----------------------
   0 S :    0.099714
   1 C :   -0.166028
   2 C :   -0.024433
   3 C :    0.045466
   4 C :   -0.189468
   5 H :   -0.011928
   6 C :    0.034119
   7 H :    0.021128
   8 H :    0.059802
   9 C :   -0.117784
  10 H :    0.041321
  11 H :    0.041371
  12 C :   -0.008541
  13 H :    0.038081
  14 H :    0.029354
  15 H :    0.023922
  16 S :    0.102022
  17 C :   -0.098340
  18 C :   -0.024085
  19 C :   -0.030364
  20 C :   -0.145976
  21 H :    0.041644
  22 C :    0.034177
  23 H :    0.019421
  24 H :    0.027564
  25 C :   -0.091307
  26 H :    0.024712
  27 H :    0.027783
  28 C :   -0.048221
  29 H :    0.037676
  30 H :    0.054346
  31 H :    0.029142
  32 H :    0.058406
  33 H :    0.065303
Sum of atomic charges:    0.0000000

LOEWDIN ATOMIC CHARGES
----------------------
   0 S :    0.400037
   1 C :   -0.187306
   2 C :   -0.077425
   3 C :   -0.056215
   4 C :   -0.201960
   5 H :    0.020722
   6 C :   -0.031871
   7 H :    0.027643
   8 H :    0.043432
   9 C :   -0.045148
  10 H :    0.029571
  11 H :    0.026807
  12 C :   -0.067257
  13 H :    0.029220
  14 H :    0.024826
  15 H :    0.029258
  16 S :    0.394708
  17 C :   -0.178536
  18 C :   -0.084310
  19 C :   -0.050053
  20 C :   -0.200073
  21 H :    0.044377
  22 C :   -0.035541
  23 H :    0.031750
  24 H :    0.027082
  25 C :   -0.039921
  26 H :    0.018611
  27 H :    0.022606
  28 C :   -0.064983
  29 H :    0.034948
  30 H :    0.034446
  31 H :    0.015809
  32 H :    0.032151
  33 H :    0.032593

  Mayer bond orders larger than 0.100000
B(  0-S ,  1-C ) :   1.1395 B(  0-S ,  4-C ) :   1.1587 B(  1-C ,  2-C ) :   1.6063
B(  1-C , 32-H ) :   0.9690 B(  2-C ,  3-C ) :   1.2195 B(  2-C ,  6-C ) :   1.0240
B(  3-C ,  4-C ) :   1.5851 B(  3-C ,  5-H ) :   1.0043 B(  4-C , 20-C ) :   1.0224
B(  6-C ,  7-H ) :   0.9432 B(  6-C ,  8-H ) :   0.9356 B(  6-C ,  9-C ) :   1.0475
B(  9-C , 10-H ) :   0.9632 B(  9-C , 11-H ) :   0.9489 B(  9-C , 12-C ) :   1.0849
B( 12-C , 13-H ) :   0.9744 B( 12-C , 14-H ) :   0.9718 B( 12-C , 15-H ) :   0.9684
B( 16-S , 17-C ) :   1.1765 B( 16-S , 20-C ) :   1.1145 B( 17-C , 18-C ) :   1.5973
B( 17-C , 33-H ) :   0.9614 B( 18-C , 19-C ) :   1.2420 B( 18-C , 21-H ) :   0.9807
B( 19-C , 20-C ) :   1.6138 B( 19-C , 22-C ) :   1.0484 B( 22-C , 23-H ) :   0.9367
B( 22-C , 24-H ) :   0.9393 B( 22-C , 25-C ) :   1.0501 B( 25-C , 26-H ) :   0.9558
B( 25-C , 27-H ) :   0.9565 B( 25-C , 28-C ) :   1.0711 B( 28-C , 29-H ) :   0.9755
B( 28-C , 30-H ) :   0.9749 B( 28-C , 31-H ) :   0.9755

Dispersion correction           -0.014298319
FINAL SINGLE POINT ENERGY     -1339.886439280423

DIPOLE MOMENT
-------------
                                X             Y             Z
Electronic contribution:    -17.55574     -22.21863      -9.18909
Nuclear contribution   :     18.04679      22.54523       9.47485
                        -----------------------------------------
Total Dipole Moment    :      0.49105       0.32660       0.28575
                        -----------------------------------------
Magnitude (a.u.)       :      0.65533
Magnitude (Debye)      :      1.66571

Rotational constants in cm-1:     0.016469     0.009093     0.007020
Rotational constants in MHz :   493.734866   272.599735   210.443024

                             ****ORCA TERMINATED NORMALLY****
TOTAL RUN TIME: 0 days 0 hours 0 minutes 30 seconds 404 msec
