                         Program Version 4.2.1 -  RELEASE  -
|  1> ! wB97X-D3 SP def2-SVP
|  2> %pal
|  3> nprocs 16
|  4> end
|  5>
|  6> * xyz 0 1
|  7> S 	 -34.3603 	 60.3152 	 107.021
|  8> C 	 -33.0875 	 61.201 	 107.814
|  9> C 	 -32.3991 	 60.3452 	 108.626
| 10> C 	 -32.8342 	 58.9864 	 108.575
| 11> C 	 -33.8293 	 58.7629 	 107.645
| 12> H 	 -32.4435 	 58.1489 	 109.125
| 13> C 	 -31.3157 	 60.8842 	 109.59
| 14> H 	 -31.6618 	 60.5967 	 110.593
| 15> H 	 -31.2368 	 61.9698 	 109.619
| 16> C 	 -29.8892 	 60.333 	 109.377
| 17> H 	 -29.8365 	 59.2334 	 109.526
| 18> H 	 -29.6565 	 60.5828 	 108.387
| 19> C 	 -28.9628 	 61.0699 	 110.327
| 20> H 	 -28.8995 	 62.0676 	 110.078
| 21> H 	 -29.2915 	 60.937 	 111.351
| 22> H 	 -28.042 	 60.5893 	 110.294
| 23> S 	 -36.2839 	 57.8144 	 107.886
| 24> C 	 -36.7076 	 56.1923 	 107.285
| 25> C 	 -35.5476 	 55.4632 	 107.046
| 26> C 	 -34.3259 	 56.2103 	 107.197
| 27> C 	 -34.6205 	 57.5653 	 107.475
| 28> H 	 -35.4986 	 54.3852 	 106.8
| 29> C 	 -32.8649 	 55.6715 	 107.02
| 30> H 	 -32.9009 	 54.6212 	 106.663
| 31> H 	 -32.2971 	 55.7085 	 107.93
| 32> C 	 -32.0486 	 56.4293 	 105.971
| 33> H 	 -31.6969 	 57.3361 	 106.399
| 34> H 	 -32.7614 	 56.7346 	 105.174
| 35> C 	 -30.7683 	 55.6896 	 105.495
| 36> H 	 -31.0438 	 54.829 	 104.845
| 37> H 	 -30.2534 	 55.359 	 106.438
| 38> H 	 -30.0511 	 56.2828 	 104.955
| 39> H 	 -33.0836 	 62.2414 	 108.051
| 40> H 	 -37.7391 	 55.8106 	 107.188
| 41> *
| 42>
| 43>                          ****END OF INPUT****

CARTESIAN COORDINATES (ANGSTROEM)
---------------------------------
  S    -34.360300   60.315200  107.021000
  C    -33.087500   61.201000  107.814000
  C    -32.399100   60.345200  108.626000
  C    -32.834200   58.986400  108.575000
  C    -33.829300   58.762900  107.645000
  H    -32.443500   58.148900  109.125000
  C    -31.315700   60.884200  109.590000
  H    -31.661800   60.596700  110.593000
  H    -31.236800   61.969800  109.619000
  C    -29.889200   60.333000  109.377000
  H    -29.836500   59.233400  109.526000
  H    -29.656500   60.582800  108.387000
  C    -28.962800   61.069900  110.327000
  H    -28.899500   62.067600  110.078000
  H    -29.291500   60.937000  111.351000
  H    -28.042000   60.589300  110.294000
  S    -36.283900   57.814400  107.886000
  C    -36.707600   56.192300  107.285000
  C    -35.547600   55.463200  107.046000
  C    -34.325900   56.210300  107.197000
  C    -34.620500   57.565300  107.475000
  H    -35.498600   54.385200  106.800000
  C    -32.864900   55.671500  107.020000
  H    -32.900900   54.621200  106.663000
  H    -32.297100   55.708500  107.930000
  C    -32.048600   56.429300  105.971000
  H    -31.696900   57.336100  106.399000
  H    -32.761400   56.734600  105.174000
  C    -30.768300   55.689600  105.495000
  H    -31.043800   54.829000  104.845000
  H    -30.253400   55.359000  106.438000
  H    -30.051100   56.282800  104.955000
  H    -33.083600   62.241400  108.051000
  H    -37.739100   55.810600  107.188000

 Total Charge           Charge          ....    0
 Multiplicity           Mult            ....    1
 Number of Electrons    NEL             ....  134
 Basis Dimension        Dim             ....  322

ORBITAL ENERGIES
----------------

  NO   OCC          E(Eh)            E(eV)
   0   2.0000     -88.967432     -2420.9269
   1   2.0000     -88.963953     -2420.8322
   2   2.0000     -10.330294      -281.1016
   3   2.0000     -10.327873      -281.0357
   4   2.0000     -10.322926      -280.9011
   5   2.0000     -10.311709      -280.5959
   6   2.0000     -10.307693      -280.4866
   7   2.0000     -10.302034      -280.3326
   8   2.0000     -10.300696      -280.2962
   9   2.0000     -10.297266      -280.2029
  10   2.0000     -10.294763      -280.1347
  11   2.0000     -10.292548      -280.0745
  12   2.0000     -10.283158      -279.8189
  13   2.0000     -10.282362      -279.7973
  14   2.0000     -10.279472      -279.7186
  15   2.0000     -10.265795      -279.3465
  16   2.0000      -8.081919      -219.9202
  17   2.0000      -8.078721      -219.8332
  18   2.0000      -6.040458      -164.3692
  19   2.0000      -6.037279      -164.2827
  20   2.0000      -6.036454      -164.2603
  21   2.0000      -6.033106      -164.1692
  22   2.0000      -6.032642      -164.1565
  23   2.0000      -6.029494      -164.0709
  24   2.0000      -1.009445       -27.4684
  25   2.0000      -0.982442       -26.7336
  26   2.0000      -0.914005       -24.8713
  27   2.0000      -0.904583       -24.6149
  28   2.0000      -0.875329       -23.8189
  29   2.0000      -0.848012       -23.0756
  30   2.0000      -0.843061       -22.9409
  31   2.0000      -0.815486       -22.1905
  32   2.0000      -0.780351       -21.2344
  33   2.0000      -0.770258       -20.9598
  34   2.0000      -0.709976       -19.3194
  35   2.0000      -0.698366       -19.0035
  36   2.0000      -0.686574       -18.6826
  37   2.0000      -0.662028       -18.0147
  38   2.0000      -0.643580       -17.5127
  39   2.0000      -0.619311       -16.8523
  40   2.0000      -0.596372       -16.2281
  41   2.0000      -0.576215       -15.6796
  42   2.0000      -0.566914       -15.4265
  43   2.0000      -0.563336       -15.3292
  44   2.0000      -0.523420       -14.2430
  45   2.0000      -0.522105       -14.2072
  46   2.0000      -0.517861       -14.0917
  47   2.0000      -0.507731       -13.8161
  48   2.0000      -0.504029       -13.7153
  49   2.0000      -0.499794       -13.6001
  50   2.0000      -0.492001       -13.3880
  51   2.0000      -0.485502       -13.2112
  52   2.0000      -0.474600       -12.9145
  53   2.0000      -0.467814       -12.7299
  54   2.0000      -0.459018       -12.4905
  55   2.0000      -0.447083       -12.1658
  56   2.0000      -0.445515       -12.1231
  57   2.0000      -0.438017       -11.9191
  58   2.0000      -0.432244       -11.7620
  59   2.0000      -0.429266       -11.6809
  60   2.0000      -0.421552       -11.4710
  61   2.0000      -0.415546       -11.3076
  62   2.0000      -0.408672       -11.1205
  63   2.0000      -0.345411        -9.3991
  64   2.0000      -0.331283        -9.0147
  65   2.0000      -0.325863        -8.8672
  66   2.0000      -0.295275        -8.0349
  67   0.0000       0.021644         0.5890
  68   0.0000       0.069144         1.8815
  69   0.0000       0.104748         2.8503
  70   0.0000       0.123553         3.3621
  71   0.0000       0.132181         3.5968

MULLIKEN ATOMIC CHARGES
-----------------------
   0 S :    0.100368
   1 C :   -0.094976
   2 C :   -0.094300
   3 C :    0.057400
   4 C :   -0.155391
   5 H :    0.006880
   6 C :    0.032339
   7 H :    0.026625
   8 H :    0.011388
   9 C :   -0.075868
  10 H :    0.034148
  11 H :    0.018577
  12 C :    0.018598
  13 H :    0.020490
  14 H :    0.018136
  15 H :    0.015082
  16 S :    0.114375
  17 C :   -0.102218
  18 C :   -0.039286
  19 C :   -0.035362
  20 C :   -0.179627
  21 H :    0.030515
  22 C :    0.073356
  23 H :    0.018590
  24 H :    0.032033
  25 C :   -0.095416
  26 H :    0.029821
  27 H :    0.040828
  28 C :   -0.059942
  29 H :    0.041278
  30 H :    0.031190
  31 H :    0.036992
  32 H :    0.052025
  33 H :    0.071354
Sum of atomic charges:    0.0000000

LOEWDIN ATOMIC CHARGES
----------------------
   0 S :    0.407605
   1 C :   -0.207516
   2 C :   -0.061396
   3 C :   -0.060642
   4 C :   -0.195864
   5 H :    0.029106
   6 C :   -0.030424
   7 H :    0.028765
   8 H :    0.025133
   9 C :   -0.032430
  10 H :    0.025053
  11 H :    0.016709
  12 C :   -0.048931
  13 H :    0.016035
  14 H :    0.025635
  15 H :    0.019813
  16 S :    0.413387
  17 C :   -0.187945
  18 C :   -0.072210
  19 C :   -0.055229
  20 C :   -0.201075
  21 H :    0.037156
  22 C :   -0.028201
  23 H :    0.030708
  24 H :    0.026385
  25 C :   -0.046333
  26 H :    0.017986
  27 H :    0.027936
  28 C :   -0.067251
  29 H :    0.027152
  30 H :    0.029947
  31 H :    0.024101
  32 H :    0.030347
  33 H :    0.036488

  Mayer bond orders larger than 0.100000
B(  0-S ,  1-C ) :   1.1303 B(  0-S ,  4-C ) :   1.1574 B(  1-C ,  2-C ) :   1.6202
B(  1-C , 32-H ) :   0.9636 B(  2-C ,  3-C ) :   1.2501 B(  2-C ,  6-C ) :   1.0156
B(  3-C ,  4-C ) :   1.5470 B(  3-C ,  5-H ) :   0.9968 B(  4-C , 20-C ) :   1.0511
B(  6-C ,  7-H ) :   0.9383 B(  6-C ,  8-H ) :   0.9508 B(  6-C ,  9-C ) :   1.0604
B(  9-C , 10-H ) :   0.9564 B(  9-C , 11-H ) :   0.9551 B(  9-C , 12-C ) :   1.0929
B( 12-C , 13-H ) :   0.9736 B( 12-C , 14-H ) :   0.9721 B( 12-C , 15-H ) :   0.9695
B( 16-S , 17-C ) :   1.1407 B( 16-S , 20-C ) :   1.1743 B( 17-C , 18-C ) :   1.5874
B( 17-C , 20-C ) :   0.1055 B( 17-C , 33-H ) :   0.9682 B( 18-C , 19-C ) :   1.2741
B( 18-C , 21-H ) :   0.9790 B( 19-C , 20-C ) :   1.5553 B( 19-C , 22-C ) :   1.0362
B( 22-C , 23-H ) :   0.9407 B( 22-C , 24-H ) :   0.9315 B( 22-C , 25-C ) :   1.0600
B( 25-C , 26-H ) :   0.9477 B( 25-C , 27-H ) :   0.9622 B( 25-C , 28-C ) :   1.0799
B( 28-C , 29-H ) :   0.9765 B( 28-C , 30-H ) :   0.9711 B( 28-C , 31-H ) :   0.9764

Dispersion correction           -0.014107112
FINAL SINGLE POINT ENERGY     -1339.872095701681

DIPOLE MOMENT
-------------
                                X             Y             Z
Electronic contribution:    -29.65422       3.71932      -3.57865
Nuclear contribution   :     30.16992      -3.92453       3.94227
                        -----------------------------------------
Total Dipole Moment    :      0.51570      -0.20521       0.36362
                        -----------------------------------------
Magnitude (a.u.)       :      0.66353
Magnitude (Debye)      :      1.68657

Rotational constants in cm-1:     0.018221     0.008752     0.006725
Rotational constants in MHz :   546.253401   262.371981   201.599891

                             ****ORCA TERMINATED NORMALLY****
TOTAL RUN TIME: 0 days 0 hours 0 minutes 28 seconds 595 msec
