                         Program Version 4.2.1 -  RELEASE  -
|  1> ! wB97X-D3 SP def2-SVP
|  2> %pal
|  3> nprocs 16
|  4> end
|  5>
|  6> * xyz 0 1
|  7> S 	 -73.563 	 44.8927 	 123.699
|  8> C 	 -74.8839 	 43.8235 	 124.08
|  9> C 	 -75.7792 	 43.8956 	 122.98
| 10> C 	 -75.3513 	 44.8617 	 121.963
| 11> C 	 -74.2415 	 45.6094 	 122.253
| 12> H 	 -75.7851 	 45.11 	 121.032
| 13> C 	 -77.148 	 43.1633 	 122.841
| 14> H 	 -77.9542 	 43.9234 	 122.672
| 15> H 	 -77.3481 	 42.6221 	 123.731
| 16> C 	 -77.1588 	 42.1032 	 121.705
| 17> H 	 -76.723 	 42.5447 	 120.781
| 18> H 	 -76.5347 	 41.279 	 121.934
| 19> C 	 -78.5843 	 41.544 	 121.464
| 20> H 	 -78.5458 	 40.576 	 120.8
| 21> H 	 -78.969 	 41.3822 	 122.451
| 22> H 	 -79.2092 	 42.1843 	 120.91
| 23> S 	 -73.5611 	 48.229 	 122.546
| 24> C 	 -73.1344 	 49.1581 	 121.143
| 25> C 	 -72.8767 	 48.3441 	 120.082
| 26> C 	 -73.2962 	 47.0014 	 120.284
| 27> C 	 -73.7121 	 46.8263 	 121.6
| 28> H 	 -72.5469 	 48.8492 	 119.155
| 29> C 	 -73.2492 	 46.0569 	 119.169
| 30> H 	 -74.0995 	 46.3604 	 118.535
| 31> H 	 -73.6266 	 45.1179 	 119.589
| 32> C 	 -71.8499 	 45.6 	 118.642
| 33> H 	 -71.1046 	 45.465 	 119.374
| 34> H 	 -71.3886 	 46.4439 	 118.139
| 35> C 	 -71.9428 	 44.3333 	 117.75
| 36> H 	 -70.9806 	 43.8373 	 117.692
| 37> H 	 -72.2236 	 44.6156 	 116.728
| 38> H 	 -72.701 	 43.589 	 118.092
| 39> H 	 -74.9845 	 43.2026 	 125.014
| 40> H 	 -73.153 	 50.2513 	 121.007
| 41> *
| 42>
| 43>                          ****END OF INPUT****

CARTESIAN COORDINATES (ANGSTROEM)
---------------------------------
  S    -73.563000   44.892700  123.699000
  C    -74.883900   43.823500  124.080000
  C    -75.779200   43.895600  122.980000
  C    -75.351300   44.861700  121.963000
  C    -74.241500   45.609400  122.253000
  H    -75.785100   45.110000  121.032000
  C    -77.148000   43.163300  122.841000
  H    -77.954200   43.923400  122.672000
  H    -77.348100   42.622100  123.731000
  C    -77.158800   42.103200  121.705000
  H    -76.723000   42.544700  120.781000
  H    -76.534700   41.279000  121.934000
  C    -78.584300   41.544000  121.464000
  H    -78.545800   40.576000  120.800000
  H    -78.969000   41.382200  122.451000
  H    -79.209200   42.184300  120.910000
  S    -73.561100   48.229000  122.546000
  C    -73.134400   49.158100  121.143000
  C    -72.876700   48.344100  120.082000
  C    -73.296200   47.001400  120.284000
  C    -73.712100   46.826300  121.600000
  H    -72.546900   48.849200  119.155000
  C    -73.249200   46.056900  119.169000
  H    -74.099500   46.360400  118.535000
  H    -73.626600   45.117900  119.589000
  C    -71.849900   45.600000  118.642000
  H    -71.104600   45.465000  119.374000
  H    -71.388600   46.443900  118.139000
  C    -71.942800   44.333300  117.750000
  H    -70.980600   43.837300  117.692000
  H    -72.223600   44.615600  116.728000
  H    -72.701000   43.589000  118.092000
  H    -74.984500   43.202600  125.014000
  H    -73.153000   50.251300  121.007000

 Total Charge           Charge          ....    0
 Multiplicity           Mult            ....    1
 Number of Electrons    NEL             ....  134
 Basis Dimension        Dim             ....  322

ORBITAL ENERGIES
----------------

  NO   OCC          E(Eh)            E(eV)
   0   2.0000     -88.967721     -2420.9348
   1   2.0000     -88.958607     -2420.6868
   2   2.0000     -10.329132      -281.0700
   3   2.0000     -10.326680      -281.0032
   4   2.0000     -10.323943      -280.9288
   5   2.0000     -10.315183      -280.6904
   6   2.0000     -10.311610      -280.5932
   7   2.0000     -10.301459      -280.3170
   8   2.0000     -10.295833      -280.1639
   9   2.0000     -10.291329      -280.0413
  10   2.0000     -10.291096      -280.0350
  11   2.0000     -10.290622      -280.0221
  12   2.0000     -10.289459      -279.9904
  13   2.0000     -10.284648      -279.8595
  14   2.0000     -10.282858      -279.8108
  15   2.0000     -10.281091      -279.7627
  16   2.0000      -8.083585      -219.9655
  17   2.0000      -8.073625      -219.6945
  18   2.0000      -6.042041      -164.4123
  19   2.0000      -6.037962      -164.3013
  20   2.0000      -6.034278      -164.2011
  21   2.0000      -6.032230      -164.1453
  22   2.0000      -6.027875      -164.0268
  23   2.0000      -6.024441      -163.9334
  24   2.0000      -1.013302       -27.5733
  25   2.0000      -0.985065       -26.8050
  26   2.0000      -0.911640       -24.8070
  27   2.0000      -0.904348       -24.6086
  28   2.0000      -0.870214       -23.6797
  29   2.0000      -0.855325       -23.2746
  30   2.0000      -0.837470       -22.7887
  31   2.0000      -0.819150       -22.2902
  32   2.0000      -0.778562       -21.1858
  33   2.0000      -0.766402       -20.8549
  34   2.0000      -0.714277       -19.4365
  35   2.0000      -0.700182       -19.0529
  36   2.0000      -0.692287       -18.8381
  37   2.0000      -0.657993       -17.9049
  38   2.0000      -0.645190       -17.5565
  39   2.0000      -0.617762       -16.8102
  40   2.0000      -0.597261       -16.2523
  41   2.0000      -0.565339       -15.3837
  42   2.0000      -0.560344       -15.2477
  43   2.0000      -0.556793       -15.1511
  44   2.0000      -0.534259       -14.5379
  45   2.0000      -0.524557       -14.2739
  46   2.0000      -0.517988       -14.0952
  47   2.0000      -0.509865       -13.8741
  48   2.0000      -0.507137       -13.7999
  49   2.0000      -0.500954       -13.6317
  50   2.0000      -0.490896       -13.3580
  51   2.0000      -0.476687       -12.9713
  52   2.0000      -0.470442       -12.8014
  53   2.0000      -0.464640       -12.6435
  54   2.0000      -0.461070       -12.5464
  55   2.0000      -0.453320       -12.3355
  56   2.0000      -0.441312       -12.0087
  57   2.0000      -0.435425       -11.8485
  58   2.0000      -0.431886       -11.7522
  59   2.0000      -0.431273       -11.7355
  60   2.0000      -0.423891       -11.5347
  61   2.0000      -0.406165       -11.0523
  62   2.0000      -0.402206       -10.9446
  63   2.0000      -0.348410        -9.4807
  64   2.0000      -0.330500        -8.9934
  65   2.0000      -0.320242        -8.7142
  66   2.0000      -0.296496        -8.0681
  67   0.0000       0.036914         1.0045
  68   0.0000       0.066924         1.8211
  69   0.0000       0.117711         3.2031
  70   0.0000       0.122611         3.3364
  71   0.0000       0.133639         3.6365

MULLIKEN ATOMIC CHARGES
-----------------------
   0 S :    0.088008
   1 C :   -0.138302
   2 C :   -0.096819
   3 C :    0.055274
   4 C :   -0.165822
   5 H :   -0.009748
   6 C :    0.062395
   7 H :    0.047063
   8 H :    0.007893
   9 C :   -0.082917
  10 H :    0.028049
  11 H :    0.023631
  12 C :   -0.051212
  13 H :    0.045575
  14 H :    0.028955
  15 H :    0.026424
  16 S :    0.136868
  17 C :   -0.107560
  18 C :   -0.049083
  19 C :   -0.053299
  20 C :   -0.156915
  21 H :    0.028437
  22 C :    0.071935
  23 H :    0.047537
  24 H :    0.004762
  25 C :   -0.027804
  26 H :    0.022043
  27 H :    0.018435
  28 C :   -0.063223
  29 H :    0.037119
  30 H :    0.033863
  31 H :    0.042536
  32 H :    0.080952
  33 H :    0.064951
Sum of atomic charges:   -0.0000000

LOEWDIN ATOMIC CHARGES
----------------------
   0 S :    0.397273
   1 C :   -0.215215
   2 C :   -0.061642
   3 C :   -0.069662
   4 C :   -0.191777
   5 H :    0.021191
   6 C :   -0.029021
   7 H :    0.036815
   8 H :    0.020829
   9 C :   -0.039828
  10 H :    0.021962
  11 H :    0.019297
  12 C :   -0.064467
  13 H :    0.038912
  14 H :    0.021336
  15 H :    0.015179
  16 S :    0.440910
  17 C :   -0.194082
  18 C :   -0.076144
  19 C :   -0.056989
  20 C :   -0.219652
  21 H :    0.036703
  22 C :   -0.043983
  23 H :    0.042754
  24 H :    0.029794
  25 C :   -0.030948
  26 H :    0.024561
  27 H :    0.021831
  28 C :   -0.065892
  29 H :    0.027066
  30 H :    0.026450
  31 H :    0.030665
  32 H :    0.047564
  33 H :    0.038212

  Mayer bond orders larger than 0.100000
B(  0-S ,  1-C ) :   1.1415 B(  0-S ,  4-C ) :   1.1506 B(  1-C ,  2-C ) :   1.5876
B(  1-C , 32-H ) :   0.9671 B(  2-C ,  3-C ) :   1.2208 B(  2-C ,  6-C ) :   1.0302
B(  3-C ,  4-C ) :   1.6011 B(  3-C ,  5-H ) :   0.9965 B(  4-C , 20-C ) :   1.0084
B(  6-C ,  7-H ) :   0.9518 B(  6-C ,  8-H ) :   0.9383 B(  6-C ,  9-C ) :   1.0549
B(  9-C , 10-H ) :   0.9623 B(  9-C , 11-H ) :   0.9565 B(  9-C , 12-C ) :   1.0708
B( 12-C , 13-H ) :   0.9753 B( 12-C , 14-H ) :   0.9737 B( 12-C , 15-H ) :   0.9789
B( 16-S , 17-C ) :   1.1571 B( 16-S , 20-C ) :   1.1598 B( 17-C , 18-C ) :   1.6254
B( 17-C , 33-H ) :   0.9626 B( 18-C , 19-C ) :   1.2324 B( 18-C , 21-H ) :   0.9848
B( 19-C , 20-C ) :   1.5721 B( 19-C , 22-C ) :   1.0631 B( 22-C , 23-H ) :   0.9260
B( 22-C , 24-H ) :   0.9203 B( 22-C , 25-C ) :   1.0379 B( 25-C , 26-H ) :   0.9575
B( 25-C , 27-H ) :   0.9531 B( 25-C , 28-C ) :   1.0784 B( 28-C , 29-H ) :   0.9774
B( 28-C , 30-H ) :   0.9775 B( 28-C , 31-H ) :   0.9770

Dispersion correction           -0.013465602
FINAL SINGLE POINT ENERGY     -1339.856104128387

DIPOLE MOMENT
-------------
                                X             Y             Z
Electronic contribution:      9.66590      19.59285      19.28201
Nuclear contribution   :     -9.91480     -19.69727     -19.86915
                        -----------------------------------------
Total Dipole Moment    :     -0.24890      -0.10442      -0.58715
                        -----------------------------------------
Magnitude (a.u.)       :      0.64622
Magnitude (Debye)      :      1.64255

Rotational constants in cm-1:     0.016936     0.008177     0.006476
Rotational constants in MHz :   507.717565   245.137050   194.152321

                             ****ORCA TERMINATED NORMALLY****
TOTAL RUN TIME: 0 days 0 hours 0 minutes 32 seconds 78 msec
