                         Program Version 4.2.1 -  RELEASE  -
|  1> ! wB97X-D3 SP def2-SVP
|  2> %pal
|  3> nprocs 16
|  4> end
|  5>
|  6> * xyz 0 1
|  7> S 	 22.843 	 0.784453 	 82.423
|  8> C 	 24.0098 	 1.99025 	 81.8567
|  9> C 	 23.3919 	 2.75573 	 80.8628
| 10> C 	 21.9925 	 2.56113 	 80.7151
| 11> C 	 21.5502 	 1.48747 	 81.4851
| 12> H 	 21.3509 	 3.19542 	 80.0933
| 13> C 	 24.1304 	 3.82431 	 80.0125
| 14> H 	 23.7586 	 4.82192 	 80.2379
| 15> H 	 23.8307 	 3.75933 	 78.9573
| 16> C 	 25.6189 	 3.7314 	 80.0048
| 17> H 	 26.0341 	 3.77178 	 81.0671
| 18> H 	 25.8893 	 2.73614 	 79.7073
| 19> C 	 26.1895 	 4.75879 	 79.0708
| 20> H 	 25.6841 	 4.7151 	 78.1231
| 21> H 	 26.111 	 5.79145 	 79.3423
| 22> H 	 27.3102 	 4.57603 	 79.0031
| 23> S 	 19.7819 	 1.04698 	 83.5857
| 24> C 	 18.139 	 0.673882 	 83.1886
| 25> C 	 17.9356 	 0.587439 	 81.8249
| 26> C 	 19.0994 	 1.00143 	 81.0821
| 27> C 	 20.1676 	 1.14948 	 81.8857
| 28> H 	 16.9251 	 0.169595 	 81.5694
| 29> C 	 19.2147 	 1.13314 	 79.5895
| 30> H 	 20.0846 	 0.485446 	 79.1965
| 31> H 	 19.5471 	 2.13106 	 79.321
| 32> C 	 17.9328 	 0.8759 	 78.7536
| 33> H 	 17.214 	 1.71798 	 78.9443
| 34> H 	 17.4518 	 -0.0513587 	 79.1357
| 35> C 	 18.2032 	 0.643831 	 77.2676
| 36> H 	 17.2787 	 0.856084 	 76.7
| 37> H 	 18.5578 	 -0.369517 	 77.0575
| 38> H 	 18.815 	 1.34741 	 76.784
| 39> H 	 25.002 	 2.05846 	 82.0987
| 40> H 	 17.3523 	 0.676276 	 83.8702
| 41> *
| 42>
| 43>                          ****END OF INPUT****

CARTESIAN COORDINATES (ANGSTROEM)
---------------------------------
  S     22.843000    0.784453   82.423000
  C     24.009800    1.990250   81.856700
  C     23.391900    2.755730   80.862800
  C     21.992500    2.561130   80.715100
  C     21.550200    1.487470   81.485100
  H     21.350900    3.195420   80.093300
  C     24.130400    3.824310   80.012500
  H     23.758600    4.821920   80.237900
  H     23.830700    3.759330   78.957300
  C     25.618900    3.731400   80.004800
  H     26.034100    3.771780   81.067100
  H     25.889300    2.736140   79.707300
  C     26.189500    4.758790   79.070800
  H     25.684100    4.715100   78.123100
  H     26.111000    5.791450   79.342300
  H     27.310200    4.576030   79.003100
  S     19.781900    1.046980   83.585700
  C     18.139000    0.673882   83.188600
  C     17.935600    0.587439   81.824900
  C     19.099400    1.001430   81.082100
  C     20.167600    1.149480   81.885700
  H     16.925100    0.169595   81.569400
  C     19.214700    1.133140   79.589500
  H     20.084600    0.485446   79.196500
  H     19.547100    2.131060   79.321000
  C     17.932800    0.875900   78.753600
  H     17.214000    1.717980   78.944300
  H     17.451800   -0.051359   79.135700
  C     18.203200    0.643831   77.267600
  H     17.278700    0.856084   76.700000
  H     18.557800   -0.369517   77.057500
  H     18.815000    1.347410   76.784000
  H     25.002000    2.058460   82.098700
  H     17.352300    0.676276   83.870200

 Total Charge           Charge          ....    0
 Multiplicity           Mult            ....    1
 Number of Electrons    NEL             ....  134
 Basis Dimension        Dim             ....  322

ORBITAL ENERGIES
----------------

  NO   OCC          E(Eh)            E(eV)
   0   2.0000     -88.966805     -2420.9099
   1   2.0000     -88.964263     -2420.8407
   2   2.0000     -10.331862      -281.1443
   3   2.0000     -10.319734      -280.8142
   4   2.0000     -10.310867      -280.5729
   5   2.0000     -10.308738      -280.5150
   6   2.0000     -10.303763      -280.3796
   7   2.0000     -10.300468      -280.2900
   8   2.0000     -10.298568      -280.2383
   9   2.0000     -10.297119      -280.1989
  10   2.0000     -10.295073      -280.1432
  11   2.0000     -10.292891      -280.0838
  12   2.0000     -10.290348      -280.0146
  13   2.0000     -10.286340      -279.9055
  14   2.0000     -10.279505      -279.7196
  15   2.0000     -10.276558      -279.6394
  16   2.0000      -8.081110      -219.8982
  17   2.0000      -8.079375      -219.8510
  18   2.0000      -6.039698      -164.3485
  19   2.0000      -6.037829      -164.2977
  20   2.0000      -6.035597      -164.2369
  21   2.0000      -6.033883      -164.1903
  22   2.0000      -6.031896      -164.1362
  23   2.0000      -6.030106      -164.0875
  24   2.0000      -1.009568       -27.4717
  25   2.0000      -0.984076       -26.7781
  26   2.0000      -0.918742       -25.0003
  27   2.0000      -0.906688       -24.6722
  28   2.0000      -0.869172       -23.6514
  29   2.0000      -0.855355       -23.2754
  30   2.0000      -0.844143       -22.9703
  31   2.0000      -0.814802       -22.1719
  32   2.0000      -0.782672       -21.2976
  33   2.0000      -0.772816       -21.0294
  34   2.0000      -0.714411       -19.4401
  35   2.0000      -0.702353       -19.1120
  36   2.0000      -0.693779       -18.8787
  37   2.0000      -0.651002       -17.7147
  38   2.0000      -0.641257       -17.4495
  39   2.0000      -0.618375       -16.8268
  40   2.0000      -0.598661       -16.2904
  41   2.0000      -0.572896       -15.5893
  42   2.0000      -0.567252       -15.4357
  43   2.0000      -0.564815       -15.3694
  44   2.0000      -0.530403       -14.4330
  45   2.0000      -0.525453       -14.2983
  46   2.0000      -0.518426       -14.1071
  47   2.0000      -0.511367       -13.9150
  48   2.0000      -0.503779       -13.7085
  49   2.0000      -0.492419       -13.3994
  50   2.0000      -0.490128       -13.3371
  51   2.0000      -0.484592       -13.1864
  52   2.0000      -0.477395       -12.9906
  53   2.0000      -0.466050       -12.6819
  54   2.0000      -0.457832       -12.4582
  55   2.0000      -0.454516       -12.3680
  56   2.0000      -0.449173       -12.2226
  57   2.0000      -0.434817       -11.8320
  58   2.0000      -0.429374       -11.6839
  59   2.0000      -0.420716       -11.4483
  60   2.0000      -0.418303       -11.3826
  61   2.0000      -0.415161       -11.2971
  62   2.0000      -0.414922       -11.2906
  63   2.0000      -0.348942        -9.4952
  64   2.0000      -0.330519        -8.9939
  65   2.0000      -0.328127        -8.9288
  66   2.0000      -0.289885        -7.8882
  67   0.0000       0.029560         0.8044
  68   0.0000       0.071494         1.9455
  69   0.0000       0.112088         3.0501
  70   0.0000       0.123722         3.3667
  71   0.0000       0.136280         3.7084

MULLIKEN ATOMIC CHARGES
-----------------------
   0 S :    0.102102
   1 C :   -0.095423
   2 C :   -0.076715
   3 C :    0.017563
   4 C :   -0.146208
   5 H :    0.024006
   6 C :    0.042319
   7 H :    0.027902
   8 H :    0.016672
   9 C :   -0.085512
  10 H :    0.034397
  11 H :    0.025306
  12 C :   -0.029190
  13 H :    0.022860
  14 H :    0.025327
  15 H :    0.041936
  16 S :    0.121924
  17 C :   -0.078660
  18 C :   -0.079387
  19 C :   -0.012084
  20 C :   -0.127796
  21 H :    0.042725
  22 C :    0.026623
  23 H :    0.051260
  24 H :    0.021056
  25 C :   -0.098937
  26 H :    0.040804
  27 H :    0.036847
  28 C :   -0.020185
  29 H :    0.025449
  30 H :    0.043489
  31 H :    0.011961
  32 H :    0.014319
  33 H :    0.033250
Sum of atomic charges:   -0.0000000

LOEWDIN ATOMIC CHARGES
----------------------
   0 S :    0.403973
   1 C :   -0.187054
   2 C :   -0.053079
   3 C :   -0.064664
   4 C :   -0.182993
   5 H :    0.034552
   6 C :   -0.037109
   7 H :    0.029622
   8 H :    0.030008
   9 C :   -0.049839
  10 H :    0.027116
  11 H :    0.022912
  12 C :   -0.063475
  13 H :    0.023459
  14 H :    0.022349
  15 H :    0.036582
  16 S :    0.412616
  17 C :   -0.183745
  18 C :   -0.078029
  19 C :   -0.061104
  20 C :   -0.202029
  21 H :    0.043763
  22 C :   -0.040681
  23 H :    0.043689
  24 H :    0.026440
  25 C :   -0.045640
  26 H :    0.028953
  27 H :    0.026063
  28 C :   -0.066604
  29 H :    0.032841
  30 H :    0.029890
  31 H :    0.016081
  32 H :    0.008734
  33 H :    0.016399

  Mayer bond orders larger than 0.100000
B(  0-S ,  1-C ) :   1.1192 B(  0-S ,  4-C ) :   1.1644 B(  1-C ,  2-C ) :   1.6030
B(  1-C , 32-H ) :   0.9789 B(  2-C ,  3-C ) :   1.2645 B(  2-C ,  6-C ) :   1.0027
B(  3-C ,  4-C ) :   1.5450 B(  3-C ,  5-H ) :   0.9881 B(  4-C , 20-C ) :   1.0247
B(  6-C ,  7-H ) :   0.9370 B(  6-C ,  8-H ) :   0.9428 B(  6-C ,  9-C ) :   1.0809
B(  9-C , 10-H ) :   0.9419 B(  9-C , 11-H ) :   0.9529 B(  9-C , 12-C ) :   1.0863
B( 12-C , 13-H ) :   0.9703 B( 12-C , 14-H ) :   0.9742 B( 12-C , 15-H ) :   0.9707
B( 16-S , 17-C ) :   1.1550 B( 16-S , 20-C ) :   1.1349 B( 17-C , 18-C ) :   1.6333
B( 17-C , 33-H ) :   0.9691 B( 18-C , 19-C ) :   1.2048 B( 18-C , 21-H ) :   0.9845
B( 19-C , 20-C ) :   1.6363 B( 19-C , 22-C ) :   1.0477 B( 22-C , 23-H ) :   0.9323
B( 22-C , 24-H ) :   0.9209 B( 22-C , 25-C ) :   1.0673 B( 25-C , 26-H ) :   0.9556
B( 25-C , 27-H ) :   0.9546 B( 25-C , 28-C ) :   1.0849 B( 28-C , 29-H ) :   0.9688
B( 28-C , 30-H ) :   0.9756 B( 28-C , 31-H ) :   0.9729

Dispersion correction           -0.013255276
FINAL SINGLE POINT ENERGY     -1339.871786614213

DIPOLE MOMENT
-------------
                                X             Y             Z
Electronic contribution:     -4.74997     -10.56294      26.32054
Nuclear contribution   :      4.62546      10.96259     -26.90697
                        -----------------------------------------
Total Dipole Moment    :     -0.12451       0.39965      -0.58643
                        -----------------------------------------
Magnitude (a.u.)       :      0.72050
Magnitude (Debye)      :      1.83137

Rotational constants in cm-1:     0.018964     0.007704     0.005828
Rotational constants in MHz :   568.523141   230.964401   174.723277

                             ****ORCA TERMINATED NORMALLY****
TOTAL RUN TIME: 0 days 0 hours 0 minutes 31 seconds 854 msec
