                         Program Version 4.2.1 -  RELEASE  -
|  1> ! wB97X-D3 SP def2-SVP
|  2> %pal
|  3> nprocs 16
|  4> end
|  5>
|  6> * xyz 0 1
|  7> S 	 -32.0862 	 56.3242 	 106.285
|  8> C 	 -30.565 	 57.0015 	 105.804
|  9> C 	 -29.9702 	 57.754 	 106.819
| 10> C 	 -30.8986 	 57.8864 	 107.936
| 11> C 	 -32.0717 	 57.1726 	 107.751
| 12> H 	 -30.8096 	 58.5774 	 108.78
| 13> C 	 -28.5969 	 58.3934 	 106.695
| 14> H 	 -28.4278 	 59.0618 	 107.572
| 15> H 	 -28.5781 	 59.0507 	 105.789
| 16> C 	 -27.4991 	 57.3256 	 106.497
| 17> H 	 -27.3694 	 56.7063 	 107.398
| 18> H 	 -27.8723 	 56.7238 	 105.697
| 19> C 	 -26.1695 	 57.9682 	 106.005
| 20> H 	 -25.874 	 58.5238 	 106.891
| 21> H 	 -25.3136 	 57.2659 	 105.892
| 22> H 	 -26.3257 	 58.7078 	 105.213
| 23> S 	 -34.0508 	 58.8959 	 108.793
| 24> C 	 -35.5088 	 58.2538 	 109.383
| 25> C 	 -35.4817 	 56.8854 	 109.436
| 26> C 	 -34.2457 	 56.3235 	 108.956
| 27> C 	 -33.334 	 57.2956 	 108.543
| 28> H 	 -36.335 	 56.2547 	 109.803
| 29> C 	 -34.0649 	 54.8447 	 108.916
| 30> H 	 -33.8913 	 54.5329 	 109.919
| 31> H 	 -33.1933 	 54.6993 	 108.305
| 32> C 	 -35.1919 	 54.0104 	 108.323
| 33> H 	 -35.5217 	 54.4128 	 107.356
| 34> H 	 -36.0145 	 54.0184 	 109.029
| 35> C 	 -34.854 	 52.5951 	 108.084
| 36> H 	 -34.2888 	 52.5206 	 107.221
| 37> H 	 -35.742 	 52.0353 	 107.899
| 38> H 	 -34.557 	 52.1148 	 109.072
| 39> H 	 -30.2426 	 56.8349 	 104.786
| 40> H 	 -36.4587 	 58.8063 	 109.679
| 41> *
| 42>
| 43>                          ****END OF INPUT****

CARTESIAN COORDINATES (ANGSTROEM)
---------------------------------
  S    -32.086200   56.324200  106.285000
  C    -30.565000   57.001500  105.804000
  C    -29.970200   57.754000  106.819000
  C    -30.898600   57.886400  107.936000
  C    -32.071700   57.172600  107.751000
  H    -30.809600   58.577400  108.780000
  C    -28.596900   58.393400  106.695000
  H    -28.427800   59.061800  107.572000
  H    -28.578100   59.050700  105.789000
  C    -27.499100   57.325600  106.497000
  H    -27.369400   56.706300  107.398000
  H    -27.872300   56.723800  105.697000
  C    -26.169500   57.968200  106.005000
  H    -25.874000   58.523800  106.891000
  H    -25.313600   57.265900  105.892000
  H    -26.325700   58.707800  105.213000
  S    -34.050800   58.895900  108.793000
  C    -35.508800   58.253800  109.383000
  C    -35.481700   56.885400  109.436000
  C    -34.245700   56.323500  108.956000
  C    -33.334000   57.295600  108.543000
  H    -36.335000   56.254700  109.803000
  C    -34.064900   54.844700  108.916000
  H    -33.891300   54.532900  109.919000
  H    -33.193300   54.699300  108.305000
  C    -35.191900   54.010400  108.323000
  H    -35.521700   54.412800  107.356000
  H    -36.014500   54.018400  109.029000
  C    -34.854000   52.595100  108.084000
  H    -34.288800   52.520600  107.221000
  H    -35.742000   52.035300  107.899000
  H    -34.557000   52.114800  109.072000
  H    -30.242600   56.834900  104.786000
  H    -36.458700   58.806300  109.679000

 Total Charge           Charge          ....    0
 Multiplicity           Mult            ....    1
 Number of Electrons    NEL             ....  134
 Basis Dimension        Dim             ....  322

ORBITAL ENERGIES
----------------

  NO   OCC          E(Eh)            E(eV)
   0   2.0000     -88.966269     -2420.8952
   1   2.0000     -88.964160     -2420.8379
   2   2.0000     -10.327313      -281.0205
   3   2.0000     -10.327225      -281.0181
   4   2.0000     -10.317182      -280.7448
   5   2.0000     -10.313952      -280.6569
   6   2.0000     -10.308067      -280.4968
   7   2.0000     -10.299874      -280.2738
   8   2.0000     -10.298608      -280.2394
   9   2.0000     -10.298074      -280.2248
  10   2.0000     -10.291178      -280.0372
  11   2.0000     -10.287272      -279.9309
  12   2.0000     -10.281474      -279.7731
  13   2.0000     -10.279958      -279.7319
  14   2.0000     -10.278691      -279.6974
  15   2.0000     -10.269190      -279.4389
  16   2.0000      -8.082176      -219.9272
  17   2.0000      -8.079310      -219.8492
  18   2.0000      -6.040500      -164.3704
  19   2.0000      -6.037843      -164.2981
  20   2.0000      -6.036454      -164.2603
  21   2.0000      -6.033695      -164.1852
  22   2.0000      -6.033142      -164.1701
  23   2.0000      -6.030083      -164.0869
  24   2.0000      -1.008485       -27.4423
  25   2.0000      -0.987396       -26.8684
  26   2.0000      -0.918699       -24.9991
  27   2.0000      -0.911750       -24.8100
  28   2.0000      -0.865211       -23.5436
  29   2.0000      -0.856043       -23.2941
  30   2.0000      -0.847651       -23.0657
  31   2.0000      -0.811079       -22.0706
  32   2.0000      -0.783906       -21.3312
  33   2.0000      -0.768926       -20.9235
  34   2.0000      -0.702044       -19.1036
  35   2.0000      -0.696504       -18.9528
  36   2.0000      -0.687409       -18.7053
  37   2.0000      -0.656784       -17.8720
  38   2.0000      -0.640038       -17.4163
  39   2.0000      -0.610790       -16.6204
  40   2.0000      -0.595132       -16.1944
  41   2.0000      -0.586011       -15.9462
  42   2.0000      -0.570885       -15.5346
  43   2.0000      -0.561588       -15.2816
  44   2.0000      -0.523825       -14.2540
  45   2.0000      -0.521194       -14.1824
  46   2.0000      -0.515891       -14.0381
  47   2.0000      -0.515465       -14.0265
  48   2.0000      -0.507520       -13.8103
  49   2.0000      -0.504114       -13.7177
  50   2.0000      -0.490423       -13.3451
  51   2.0000      -0.474995       -12.9253
  52   2.0000      -0.470156       -12.7936
  53   2.0000      -0.464650       -12.6438
  54   2.0000      -0.461104       -12.5473
  55   2.0000      -0.450875       -12.2689
  56   2.0000      -0.445928       -12.1343
  57   2.0000      -0.435703       -11.8561
  58   2.0000      -0.429941       -11.6993
  59   2.0000      -0.427108       -11.6222
  60   2.0000      -0.420122       -11.4321
  61   2.0000      -0.415726       -11.3125
  62   2.0000      -0.408580       -11.1180
  63   2.0000      -0.343890        -9.3577
  64   2.0000      -0.331198        -9.0123
  65   2.0000      -0.327284        -8.9059
  66   2.0000      -0.292698        -7.9647
  67   0.0000       0.038844         1.0570
  68   0.0000       0.067041         1.8243
  69   0.0000       0.105806         2.8791
  70   0.0000       0.119359         3.2479
  71   0.0000       0.135086         3.6759

MULLIKEN ATOMIC CHARGES
-----------------------
   0 S :    0.122833
   1 C :   -0.151789
   2 C :   -0.066169
   3 C :    0.005983
   4 C :   -0.152198
   5 H :    0.020077
   6 C :    0.041028
   7 H :    0.028801
   8 H :    0.038856
   9 C :   -0.080846
  10 H :    0.042852
  11 H :    0.022784
  12 C :   -0.046374
  13 H :    0.017549
  14 H :    0.046084
  15 H :    0.037202
  16 S :    0.114340
  17 C :   -0.105294
  18 C :   -0.053599
  19 C :   -0.073535
  20 C :   -0.136801
  21 H :    0.034650
  22 C :    0.117975
  23 H :    0.027210
  24 H :   -0.000303
  25 C :   -0.102497
  26 H :    0.026960
  27 H :    0.016819
  28 C :    0.003089
  29 H :    0.026752
  30 H :    0.013932
  31 H :    0.028318
  32 H :    0.055224
  33 H :    0.080085
Sum of atomic charges:    0.0000000

LOEWDIN ATOMIC CHARGES
----------------------
   0 S :    0.443440
   1 C :   -0.201210
   2 C :   -0.057835
   3 C :   -0.069291
   4 C :   -0.212200
   5 H :    0.033694
   6 C :   -0.034845
   7 H :    0.030406
   8 H :    0.036713
   9 C :   -0.036323
  10 H :    0.029541
  11 H :    0.015934
  12 C :   -0.073313
  13 H :    0.024334
  14 H :    0.032059
  15 H :    0.026037
  16 S :    0.418935
  17 C :   -0.212510
  18 C :   -0.084912
  19 C :   -0.057432
  20 C :   -0.202188
  21 H :    0.038033
  22 C :   -0.030910
  23 H :    0.032525
  24 H :    0.017672
  25 C :   -0.040985
  26 H :    0.026049
  27 H :    0.017380
  28 C :   -0.059085
  29 H :    0.018027
  30 H :    0.024562
  31 H :    0.034498
  32 H :    0.023820
  33 H :    0.049381

  Mayer bond orders larger than 0.100000
B(  0-S ,  1-C ) :   1.1626 B(  0-S ,  4-C ) :   1.1734 B(  1-C ,  2-C ) :   1.5764
B(  1-C , 32-H ) :   0.9728 B(  2-C ,  3-C ) :   1.2426 B(  2-C ,  6-C ) :   1.0215
B(  3-C ,  4-C ) :   1.5657 B(  3-C ,  5-H ) :   0.9976 B(  4-C , 20-C ) :   1.0129
B(  6-C ,  7-H ) :   0.9434 B(  6-C ,  8-H ) :   0.9429 B(  6-C ,  9-C ) :   1.0505
B(  9-C , 10-H ) :   0.9573 B(  9-C , 11-H ) :   0.9609 B(  9-C , 12-C ) :   1.0724
B( 12-C , 13-H ) :   0.9733 B( 12-C , 14-H ) :   0.9739 B( 12-C , 15-H ) :   0.9745
B( 16-S , 17-C ) :   1.1688 B( 16-S , 20-C ) :   1.1297 B( 17-C , 18-C ) :   1.6055
B( 17-C , 33-H ) :   0.9537 B( 18-C , 19-C ) :   1.2494 B( 18-C , 21-H ) :   0.9815
B( 19-C , 20-C ) :   1.5875 B( 19-C , 22-C ) :   1.0561 B( 22-C , 23-H ) :   0.9172
B( 22-C , 24-H ) :   0.9264 B( 22-C , 25-C ) :   1.0755 B( 25-C , 26-H ) :   0.9554
B( 25-C , 27-H ) :   0.9447 B( 25-C , 28-C ) :   1.1165 B( 28-C , 29-H ) :   0.9734
B( 28-C , 30-H ) :   0.9660 B( 28-C , 31-H ) :   0.9643

Dispersion correction           -0.013505780
FINAL SINGLE POINT ENERGY     -1339.878612948293

DIPOLE MOMENT
-------------
                                X             Y             Z
Electronic contribution:    -12.98345      12.22820       2.33375
Nuclear contribution   :     13.02565     -12.39067      -2.38613
                        -----------------------------------------
Total Dipole Moment    :      0.04221      -0.16247      -0.05238
                        -----------------------------------------
Magnitude (a.u.)       :      0.17585
Magnitude (Debye)      :      0.44696

Rotational constants in cm-1:     0.022827     0.007048     0.005747
Rotational constants in MHz :   684.345718   211.290778   172.290996

                             ****ORCA TERMINATED NORMALLY****
TOTAL RUN TIME: 0 days 0 hours 0 minutes 28 seconds 682 msec
