                         Program Version 4.2.1 -  RELEASE  -
|  1> ! wB97X-D3 SP def2-SVP
|  2> %pal
|  3> nprocs 16
|  4> end
|  5>
|  6> * xyz 0 1
|  7> S 	 -8.10652 	 63.45 	 48.7098
|  8> C 	 -8.56829 	 63.723 	 50.4167
|  9> C 	 -7.63613 	 64.4694 	 51.0831
| 10> C 	 -6.47019 	 64.7214 	 50.2423
| 11> C 	 -6.59594 	 64.1973 	 48.979
| 12> H 	 -5.58208 	 65.339 	 50.4097
| 13> C 	 -7.93764 	 65.1343 	 52.3961
| 14> H 	 -9.03084 	 65.1606 	 52.6111
| 15> H 	 -7.54434 	 66.1623 	 52.3343
| 16> C 	 -7.18224 	 64.499 	 53.5581
| 17> H 	 -7.13283 	 63.3696 	 53.4273
| 18> H 	 -6.18848 	 64.8719 	 53.4701
| 19> C 	 -7.59514 	 64.997 	 54.9453
| 20> H 	 -6.8492 	 65.7267 	 55.2866
| 21> H 	 -8.62994 	 65.4097 	 54.9516
| 22> H 	 -7.61805 	 64.2524 	 55.7609
| 23> S 	 -5.07918 	 62.5641 	 47.3799
| 24> C 	 -3.70759 	 63.1545 	 46.5057
| 25> C 	 -3.71529 	 64.5852 	 46.5999
| 26> C 	 -4.7257 	 65.1153 	 47.4407
| 27> C 	 -5.55819 	 64.13 	 47.9534
| 28> H 	 -2.94679 	 65.0503 	 46.0046
| 29> C 	 -4.73951 	 66.5775 	 47.8606
| 30> H 	 -3.78296 	 66.9447 	 47.5865
| 31> H 	 -4.70266 	 66.6874 	 48.9487
| 32> C 	 -5.89587 	 67.4642 	 47.2389
| 33> H 	 -6.81365 	 67.099 	 47.5451
| 34> H 	 -5.87686 	 67.5037 	 46.1762
| 35> C 	 -5.67746 	 68.8952 	 47.5714
| 36> H 	 -6.3893 	 69.3894 	 46.8539
| 37> H 	 -4.74855 	 69.4102 	 47.2423
| 38> H 	 -6.09596 	 69.1079 	 48.5382
| 39> H 	 -9.51932 	 63.531 	 50.7921
| 40> H 	 -3.04844 	 62.6197 	 45.8418
| 41> *
| 42>
| 43>                          ****END OF INPUT****

CARTESIAN COORDINATES (ANGSTROEM)
---------------------------------
  S     -8.106520   63.450000   48.709800
  C     -8.568290   63.723000   50.416700
  C     -7.636130   64.469400   51.083100
  C     -6.470190   64.721400   50.242300
  C     -6.595940   64.197300   48.979000
  H     -5.582080   65.339000   50.409700
  C     -7.937640   65.134300   52.396100
  H     -9.030840   65.160600   52.611100
  H     -7.544340   66.162300   52.334300
  C     -7.182240   64.499000   53.558100
  H     -7.132830   63.369600   53.427300
  H     -6.188480   64.871900   53.470100
  C     -7.595140   64.997000   54.945300
  H     -6.849200   65.726700   55.286600
  H     -8.629940   65.409700   54.951600
  H     -7.618050   64.252400   55.760900
  S     -5.079180   62.564100   47.379900
  C     -3.707590   63.154500   46.505700
  C     -3.715290   64.585200   46.599900
  C     -4.725700   65.115300   47.440700
  C     -5.558190   64.130000   47.953400
  H     -2.946790   65.050300   46.004600
  C     -4.739510   66.577500   47.860600
  H     -3.782960   66.944700   47.586500
  H     -4.702660   66.687400   48.948700
  C     -5.895870   67.464200   47.238900
  H     -6.813650   67.099000   47.545100
  H     -5.876860   67.503700   46.176200
  C     -5.677460   68.895200   47.571400
  H     -6.389300   69.389400   46.853900
  H     -4.748550   69.410200   47.242300
  H     -6.095960   69.107900   48.538200
  H     -9.519320   63.531000   50.792100
  H     -3.048440   62.619700   45.841800

 Total Charge           Charge          ....    0
 Multiplicity           Mult            ....    1
 Number of Electrons    NEL             ....  134
 Basis Dimension        Dim             ....  322

ORBITAL ENERGIES
----------------

  NO   OCC          E(Eh)            E(eV)
   0   2.0000     -88.966363     -2420.8978
   1   2.0000     -88.965341     -2420.8700
   2   2.0000     -10.326343      -280.9941
   3   2.0000     -10.323495      -280.9166
   4   2.0000     -10.318073      -280.7690
   5   2.0000     -10.310000      -280.5494
   6   2.0000     -10.304693      -280.4050
   7   2.0000     -10.302123      -280.3350
   8   2.0000     -10.296567      -280.1838
   9   2.0000     -10.296152      -280.1725
  10   2.0000     -10.295525      -280.1555
  11   2.0000     -10.289502      -279.9916
  12   2.0000     -10.285002      -279.8691
  13   2.0000     -10.282387      -279.7980
  14   2.0000     -10.276921      -279.6492
  15   2.0000     -10.276689      -279.6429
  16   2.0000      -8.081206      -219.9008
  17   2.0000      -8.080411      -219.8792
  18   2.0000      -6.039601      -164.3459
  19   2.0000      -6.038930      -164.3276
  20   2.0000      -6.035398      -164.2315
  21   2.0000      -6.034936      -164.2189
  22   2.0000      -6.032368      -164.1491
  23   2.0000      -6.031082      -164.1141
  24   2.0000      -1.009371       -27.4664
  25   2.0000      -0.984023       -26.7766
  26   2.0000      -0.916040       -24.9267
  27   2.0000      -0.909967       -24.7615
  28   2.0000      -0.869364       -23.6566
  29   2.0000      -0.858521       -23.3615
  30   2.0000      -0.843550       -22.9542
  31   2.0000      -0.813853       -22.1461
  32   2.0000      -0.782315       -21.2879
  33   2.0000      -0.772788       -21.0286
  34   2.0000      -0.706769       -19.2322
  35   2.0000      -0.696549       -18.9541
  36   2.0000      -0.692186       -18.8354
  37   2.0000      -0.662851       -18.0371
  38   2.0000      -0.646052       -17.5800
  39   2.0000      -0.617020       -16.7900
  40   2.0000      -0.591662       -16.0999
  41   2.0000      -0.574808       -15.6413
  42   2.0000      -0.572995       -15.5920
  43   2.0000      -0.563108       -15.3230
  44   2.0000      -0.526979       -14.3398
  45   2.0000      -0.523821       -14.2539
  46   2.0000      -0.516958       -14.0671
  47   2.0000      -0.513799       -13.9812
  48   2.0000      -0.505389       -13.7523
  49   2.0000      -0.498827       -13.5738
  50   2.0000      -0.495729       -13.4895
  51   2.0000      -0.480075       -13.0635
  52   2.0000      -0.475881       -12.9494
  53   2.0000      -0.467639       -12.7251
  54   2.0000      -0.461270       -12.5518
  55   2.0000      -0.449204       -12.2235
  56   2.0000      -0.447236       -12.1699
  57   2.0000      -0.430791       -11.7224
  58   2.0000      -0.429585       -11.6896
  59   2.0000      -0.423114       -11.5135
  60   2.0000      -0.418639       -11.3917
  61   2.0000      -0.412056       -11.2126
  62   2.0000      -0.408504       -11.1160
  63   2.0000      -0.342413        -9.3175
  64   2.0000      -0.330592        -8.9959
  65   2.0000      -0.328123        -8.9287
  66   2.0000      -0.294952        -8.0260
  67   0.0000       0.034241         0.9318
  68   0.0000       0.067827         1.8457
  69   0.0000       0.103031         2.8036
  70   0.0000       0.125888         3.4256
  71   0.0000       0.134984         3.6731

MULLIKEN ATOMIC CHARGES
-----------------------
   0 S :    0.105439
   1 C :   -0.102283
   2 C :   -0.065713
   3 C :    0.035349
   4 C :   -0.164674
   5 H :    0.011529
   6 C :    0.051151
   7 H :    0.032630
   8 H :    0.032555
   9 C :   -0.096505
  10 H :    0.050108
  11 H :    0.020800
  12 C :   -0.055702
  13 H :    0.036603
  14 H :    0.033061
  15 H :    0.035175
  16 S :    0.125372
  17 C :   -0.108818
  18 C :   -0.065214
  19 C :   -0.000682
  20 C :   -0.152802
  21 H :    0.017440
  22 C :    0.077221
  23 H :   -0.007437
  24 H :    0.020119
  25 C :   -0.020592
  26 H :    0.020429
  27 H :    0.017419
  28 C :   -0.057464
  29 H :    0.019322
  30 H :    0.044513
  31 H :    0.031432
  32 H :    0.022249
  33 H :    0.057971
Sum of atomic charges:    0.0000000

LOEWDIN ATOMIC CHARGES
----------------------
   0 S :    0.403522
   1 C :   -0.173969
   2 C :   -0.054521
   3 C :   -0.066930
   4 C :   -0.203645
   5 H :    0.032129
   6 C :   -0.030880
   7 H :    0.030384
   8 H :    0.035873
   9 C :   -0.051076
  10 H :    0.031276
  11 H :    0.021355
  12 C :   -0.074444
  13 H :    0.028945
  14 H :    0.026702
  15 H :    0.029859
  16 S :    0.434451
  17 C :   -0.202039
  18 C :   -0.071362
  19 C :   -0.060700
  20 C :   -0.210911
  21 H :    0.028830
  22 C :   -0.027082
  23 H :    0.022244
  24 H :    0.028067
  25 C :   -0.024726
  26 H :    0.017855
  27 H :    0.023070
  28 C :   -0.072619
  29 H :    0.032639
  30 H :    0.032520
  31 H :    0.021729
  32 H :    0.013363
  33 H :    0.030089

  Mayer bond orders larger than 0.100000
B(  0-S ,  1-C ) :   1.1158 B(  0-S ,  4-C ) :   1.1576 B(  1-C ,  2-C ) :   1.6419
B(  1-C , 32-H ) :   0.9764 B(  2-C ,  3-C ) :   1.1950 B(  2-C ,  6-C ) :   1.0298
B(  3-C ,  4-C ) :   1.6091 B(  3-C ,  5-H ) :   0.9877 B(  4-C , 20-C ) :   1.0086
B(  6-C ,  7-H ) :   0.9480 B(  6-C ,  8-H ) :   0.9401 B(  6-C ,  9-C ) :   1.0502
B(  9-C , 10-H ) :   0.9632 B(  9-C , 11-H ) :   0.9640 B(  9-C , 12-C ) :   1.0623
B( 12-C , 13-H ) :   0.9811 B( 12-C , 14-H ) :   0.9765 B( 12-C , 15-H ) :   0.9763
B( 16-S , 17-C ) :   1.1808 B( 16-S , 20-C ) :   1.1652 B( 17-C , 18-C ) :   1.5650
B( 17-C , 20-C ) :   0.1123 B( 17-C , 33-H ) :   0.9699 B( 18-C , 19-C ) :   1.2738
B( 18-C , 21-H ) :   0.9934 B( 19-C , 20-C ) :   1.5534 B( 19-C , 22-C ) :   1.0385
B( 22-C , 23-H ) :   0.9292 B( 22-C , 24-H ) :   0.9371 B( 22-C , 25-C ) :   1.0560
B( 25-C , 26-H ) :   0.9550 B( 25-C , 27-H ) :   0.9607 B( 25-C , 28-C ) :   1.0954
B( 28-C , 29-H ) :   0.9733 B( 28-C , 30-H ) :   0.9709 B( 28-C , 31-H ) :   0.9721

Dispersion correction           -0.013707528
FINAL SINGLE POINT ENERGY     -1339.860838887296

DIPOLE MOMENT
-------------
                                X             Y             Z
Electronic contribution:     -0.13489     -22.08970     -17.41562
Nuclear contribution   :      0.29042      22.71128      17.64830
                        -----------------------------------------
Total Dipole Moment    :      0.15552       0.62158       0.23268
                        -----------------------------------------
Magnitude (a.u.)       :      0.68168
Magnitude (Debye)      :      1.73269

Rotational constants in cm-1:     0.017667     0.008143     0.006707
Rotational constants in MHz :   529.635086   244.129674   201.083391

                             ****ORCA TERMINATED NORMALLY****
TOTAL RUN TIME: 0 days 0 hours 0 minutes 31 seconds 607 msec
