                         Program Version 4.2.1 -  RELEASE  -
|  1> ! wB97X-D3 SP def2-SVP
|  2> %pal
|  3> nprocs 16
|  4> end
|  5>
|  6> * xyz 0 1
|  7> S 	 -22.9792 	 -4.16443 	 95.5566
|  8> C 	 -23.4818 	 -2.57795 	 95.2406
|  9> C 	 -23.0307 	 -2.00067 	 94.1123
| 10> C 	 -22.3183 	 -3.00437 	 93.3411
| 11> C 	 -22.1947 	 -4.20551 	 93.9861
| 12> H 	 -21.9862 	 -2.8336 	 92.3244
| 13> C 	 -23.273 	 -0.604578 	 93.5954
| 14> H 	 -22.7825 	 -0.379334 	 92.605
| 15> H 	 -22.857 	 0.147349 	 94.2432
| 16> C 	 -24.7568 	 -0.190905 	 93.4677
| 17> H 	 -25.2981 	 -0.279627 	 94.4299
| 18> H 	 -24.8411 	 0.842288 	 93.1764
| 19> C 	 -25.7256 	 -0.895732 	 92.5392
| 20> H 	 -26.7576 	 -0.506722 	 92.5332
| 21> H 	 -25.1652 	 -0.834856 	 91.567
| 22> H 	 -25.6583 	 -1.98042 	 92.8421
| 23> S 	 -21.147 	 -6.71085 	 94.545
| 24> C 	 -20.5949 	 -7.7312 	 93.2023
| 25> C 	 -20.881 	 -7.19759 	 92.0033
| 26> C 	 -21.5235 	 -5.92436 	 92.1053
| 27> C 	 -21.7548 	 -5.49145 	 93.4403
| 28> H 	 -20.5833 	 -7.64373 	 91.0855
| 29> C 	 -21.9691 	 -5.11417 	 90.8656
| 30> H 	 -22.6821 	 -4.3425 	 91.1462
| 31> H 	 -22.3553 	 -5.84256 	 90.1426
| 32> C 	 -20.9021 	 -4.42477 	 90.0485
| 33> H 	 -20.0591 	 -5.02577 	 89.8337
| 34> H 	 -20.4842 	 -3.67939 	 90.6846
| 35> C 	 -21.3848 	 -3.63321 	 88.771
| 36> H 	 -21.721 	 -2.61846 	 89.0161
| 37> H 	 -22.1486 	 -4.25127 	 88.2424
| 38> H 	 -20.5842 	 -3.58101 	 88.0386
| 39> H 	 -24.0129 	 -1.98462 	 95.9087
| 40> H 	 -20.0212 	 -8.5927 	 93.2342
| 41> *
| 42>
| 43>                          ****END OF INPUT****

CARTESIAN COORDINATES (ANGSTROEM)
---------------------------------
  S    -22.979200   -4.164430   95.556600
  C    -23.481800   -2.577950   95.240600
  C    -23.030700   -2.000670   94.112300
  C    -22.318300   -3.004370   93.341100
  C    -22.194700   -4.205510   93.986100
  H    -21.986200   -2.833600   92.324400
  C    -23.273000   -0.604578   93.595400
  H    -22.782500   -0.379334   92.605000
  H    -22.857000    0.147349   94.243200
  C    -24.756800   -0.190905   93.467700
  H    -25.298100   -0.279627   94.429900
  H    -24.841100    0.842288   93.176400
  C    -25.725600   -0.895732   92.539200
  H    -26.757600   -0.506722   92.533200
  H    -25.165200   -0.834856   91.567000
  H    -25.658300   -1.980420   92.842100
  S    -21.147000   -6.710850   94.545000
  C    -20.594900   -7.731200   93.202300
  C    -20.881000   -7.197590   92.003300
  C    -21.523500   -5.924360   92.105300
  C    -21.754800   -5.491450   93.440300
  H    -20.583300   -7.643730   91.085500
  C    -21.969100   -5.114170   90.865600
  H    -22.682100   -4.342500   91.146200
  H    -22.355300   -5.842560   90.142600
  C    -20.902100   -4.424770   90.048500
  H    -20.059100   -5.025770   89.833700
  H    -20.484200   -3.679390   90.684600
  C    -21.384800   -3.633210   88.771000
  H    -21.721000   -2.618460   89.016100
  H    -22.148600   -4.251270   88.242400
  H    -20.584200   -3.581010   88.038600
  H    -24.012900   -1.984620   95.908700
  H    -20.021200   -8.592700   93.234200

 Total Charge           Charge          ....    0
 Multiplicity           Mult            ....    1
 Number of Electrons    NEL             ....  134
 Basis Dimension        Dim             ....  322

ORBITAL ENERGIES
----------------

  NO   OCC          E(Eh)            E(eV)
   0   2.0000     -88.969084     -2420.9719
   1   2.0000     -88.966821     -2420.9103
   2   2.0000     -10.332009      -281.1483
   3   2.0000     -10.331480      -281.1339
   4   2.0000     -10.312362      -280.6136
   5   2.0000     -10.307583      -280.4836
   6   2.0000     -10.304994      -280.4131
   7   2.0000     -10.302690      -280.3504
   8   2.0000     -10.301020      -280.3050
   9   2.0000     -10.296165      -280.1729
  10   2.0000     -10.291222      -280.0384
  11   2.0000     -10.290762      -280.0259
  12   2.0000     -10.286316      -279.9049
  13   2.0000     -10.285079      -279.8712
  14   2.0000     -10.281818      -279.7825
  15   2.0000     -10.279774      -279.7269
  16   2.0000      -8.085051      -220.0054
  17   2.0000      -8.081136      -219.8989
  18   2.0000      -6.043560      -164.4536
  19   2.0000      -6.039805      -164.3515
  20   2.0000      -6.039550      -164.3445
  21   2.0000      -6.035739      -164.2408
  22   2.0000      -6.035574      -164.2363
  23   2.0000      -6.031729      -164.1317
  24   2.0000      -1.012994       -27.5650
  25   2.0000      -0.987954       -26.8836
  26   2.0000      -0.915004       -24.8985
  27   2.0000      -0.908069       -24.7098
  28   2.0000      -0.875989       -23.8369
  29   2.0000      -0.855839       -23.2886
  30   2.0000      -0.844759       -22.9871
  31   2.0000      -0.820818       -22.3356
  32   2.0000      -0.787881       -21.4393
  33   2.0000      -0.774429       -21.0733
  34   2.0000      -0.710385       -19.3306
  35   2.0000      -0.697908       -18.9910
  36   2.0000      -0.690776       -18.7970
  37   2.0000      -0.667903       -18.1746
  38   2.0000      -0.641554       -17.4576
  39   2.0000      -0.622095       -16.9281
  40   2.0000      -0.597551       -16.2602
  41   2.0000      -0.582292       -15.8450
  42   2.0000      -0.571674       -15.5560
  43   2.0000      -0.556235       -15.1359
  44   2.0000      -0.545918       -14.8552
  45   2.0000      -0.521272       -14.1845
  46   2.0000      -0.512574       -13.9479
  47   2.0000      -0.509558       -13.8658
  48   2.0000      -0.508443       -13.8354
  49   2.0000      -0.503611       -13.7040
  50   2.0000      -0.493389       -13.4258
  51   2.0000      -0.483245       -13.1498
  52   2.0000      -0.474409       -12.9093
  53   2.0000      -0.465818       -12.6755
  54   2.0000      -0.462217       -12.5776
  55   2.0000      -0.457124       -12.4390
  56   2.0000      -0.451018       -12.2728
  57   2.0000      -0.443995       -12.0817
  58   2.0000      -0.430154       -11.7051
  59   2.0000      -0.424655       -11.5554
  60   2.0000      -0.416416       -11.3312
  61   2.0000      -0.410164       -11.1611
  62   2.0000      -0.403341       -10.9755
  63   2.0000      -0.366060        -9.9610
  64   2.0000      -0.338252        -9.2043
  65   2.0000      -0.328965        -8.9516
  66   2.0000      -0.285040        -7.7563
  67   0.0000       0.023482         0.6390
  68   0.0000       0.078882         2.1465
  69   0.0000       0.098822         2.6891
  70   0.0000       0.119465         3.2508
  71   0.0000       0.124085         3.3765

MULLIKEN ATOMIC CHARGES
-----------------------
   0 S :    0.119411
   1 C :   -0.085235
   2 C :   -0.072531
   3 C :   -0.031521
   4 C :   -0.080956
   5 H :   -0.002654
   6 C :    0.096240
   7 H :    0.028974
   8 H :    0.036292
   9 C :   -0.122657
  10 H :    0.022061
  11 H :    0.023013
  12 C :   -0.070788
  13 H :    0.058105
  14 H :    0.021828
  15 H :    0.043784
  16 S :    0.086536
  17 C :   -0.043317
  18 C :   -0.008178
  19 C :   -0.072613
  20 C :   -0.110384
  21 H :    0.006294
  22 C :    0.056112
  23 H :    0.030272
  24 H :    0.021074
  25 C :   -0.060972
  26 H :    0.011483
  27 H :    0.007963
  28 C :   -0.055538
  29 H :    0.043210
  30 H :    0.031840
  31 H :    0.032293
  32 H :    0.013126
  33 H :    0.027433
Sum of atomic charges:   -0.0000000

LOEWDIN ATOMIC CHARGES
----------------------
   0 S :    0.422685
   1 C :   -0.193863
   2 C :   -0.064627
   3 C :   -0.059280
   4 C :   -0.185133
   5 H :    0.027902
   6 C :   -0.030263
   7 H :    0.036352
   8 H :    0.037863
   9 C :   -0.051693
  10 H :    0.020333
  11 H :    0.019644
  12 C :   -0.074634
  13 H :    0.032857
  14 H :    0.023918
  15 H :    0.030251
  16 S :    0.387026
  17 C :   -0.163182
  18 C :   -0.063377
  19 C :   -0.052638
  20 C :   -0.194046
  21 H :    0.029663
  22 C :   -0.032750
  23 H :    0.028805
  24 H :    0.030564
  25 C :   -0.044033
  26 H :    0.016445
  27 H :    0.015238
  28 C :   -0.064843
  29 H :    0.026400
  30 H :    0.027313
  31 H :    0.027529
  32 H :    0.014131
  33 H :    0.019442

  Mayer bond orders larger than 0.100000
B(  0-S ,  1-C ) :   1.1478 B(  0-S ,  4-C ) :   1.1302 B(  1-C ,  2-C ) :   1.6486
B(  1-C , 32-H ) :   0.9611 B(  2-C ,  3-C ) :   1.2176 B(  2-C ,  6-C ) :   1.0193
B(  3-C ,  4-C ) :   1.5966 B(  3-C ,  5-H ) :   0.9908 B(  4-C , 20-C ) :   1.0496
B(  6-C ,  7-H ) :   0.9445 B(  6-C ,  8-H ) :   0.9262 B(  6-C ,  9-C ) :   1.0758
B(  9-C , 10-H ) :   0.9564 B(  9-C , 11-H ) :   0.9563 B(  9-C , 12-C ) :   1.0688
B( 12-C , 13-H ) :   0.9722 B( 12-C , 14-H ) :   0.9746 B( 12-C , 15-H ) :   0.9741
B( 16-S , 17-C ) :   1.1361 B( 16-S , 20-C ) :   1.1230 B( 17-C , 18-C ) :   1.6324
B( 17-C , 33-H ) :   0.9696 B( 18-C , 19-C ) :   1.2465 B( 18-C , 21-H ) :   0.9924
B( 19-C , 20-C ) :   1.5925 B( 19-C , 22-C ) :   1.0412 B( 22-C , 23-H ) :   0.9386
B( 22-C , 24-H ) :   0.9279 B( 22-C , 25-C ) :   1.0682 B( 25-C , 26-H ) :   0.9533
B( 25-C , 27-H ) :   0.9483 B( 25-C , 28-C ) :   1.0715 B( 28-C , 29-H ) :   0.9787
B( 28-C , 30-H ) :   0.9763 B( 28-C , 31-H ) :   0.9758

Dispersion correction           -0.014249227
FINAL SINGLE POINT ENERGY     -1339.868687587728

DIPOLE MOMENT
-------------
                                X             Y             Z
Electronic contribution:      7.28962     -19.63928      24.09391
Nuclear contribution   :     -7.23413      20.05528     -24.66609
                        -----------------------------------------
Total Dipole Moment    :      0.05549       0.41600      -0.57218
                        -----------------------------------------
Magnitude (a.u.)       :      0.70959
Magnitude (Debye)      :      1.80364

Rotational constants in cm-1:     0.017337     0.009643     0.006596
Rotational constants in MHz :   519.739017   289.079639   197.747921

                             ****ORCA TERMINATED NORMALLY****
TOTAL RUN TIME: 0 days 0 hours 0 minutes 30 seconds 997 msec
