                         Program Version 4.2.1 -  RELEASE  -
|  1> ! wB97X-D3 SP def2-SVP
|  2> %pal
|  3> nprocs 16
|  4> end
|  5>
|  6> * xyz 0 1
|  7> S 	 -47.0265 	 68.8153 	 127.269
|  8> C 	 -46.7657 	 67.1154 	 126.905
|  9> C 	 -46.207 	 66.4807 	 127.933
| 10> C 	 -45.897 	 67.3101 	 129.047
| 11> C 	 -46.2498 	 68.5935 	 128.907
| 12> H 	 -45.379 	 67.0824 	 129.97
| 13> C 	 -45.8613 	 64.99 	 127.986
| 14> H 	 -46.89 	 64.5761 	 127.827
| 15> H 	 -45.6596 	 64.7998 	 129.014
| 16> C 	 -44.7946 	 64.4736 	 127.043
| 17> H 	 -44.8577 	 63.3611 	 127.066
| 18> H 	 -45.1757 	 64.7448 	 126.044
| 19> C 	 -43.4177 	 65.0292 	 127.244
| 20> H 	 -42.7567 	 64.6193 	 128.046
| 21> H 	 -42.9758 	 64.77 	 126.315
| 22> H 	 -43.4128 	 66.0979 	 127.305
| 23> S 	 -45.3614 	 71.1728 	 128.992
| 24> C 	 -45.0478 	 71.9376 	 130.572
| 25> C 	 -45.1368 	 71.0614 	 131.573
| 26> C 	 -45.5216 	 69.7522 	 131.096
| 27> C 	 -45.8607 	 69.7205 	 129.757
| 28> H 	 -44.9524 	 71.402 	 132.556
| 29> C 	 -45.7747 	 68.6662 	 132.18
| 30> H 	 -45.6707 	 68.9892 	 133.187
| 31> H 	 -45.0901 	 67.8482 	 132.016
| 32> C 	 -47.2146 	 68.1574 	 132.19
| 33> H 	 -47.4382 	 67.4905 	 131.324
| 34> H 	 -47.7747 	 69.0673 	 132.235
| 35> C 	 -47.6111 	 67.2792 	 133.367
| 36> H 	 -48.6353 	 66.9119 	 133.061
| 37> H 	 -47.7023 	 67.779 	 134.33
| 38> H 	 -46.8715 	 66.4294 	 133.402
| 39> H 	 -47.1281 	 66.7193 	 126.003
| 40> H 	 -44.7504 	 72.9785 	 130.749
| 41> *
| 42>
| 43>                          ****END OF INPUT****

CARTESIAN COORDINATES (ANGSTROEM)
---------------------------------
  S    -47.026500   68.815300  127.269000
  C    -46.765700   67.115400  126.905000
  C    -46.207000   66.480700  127.933000
  C    -45.897000   67.310100  129.047000
  C    -46.249800   68.593500  128.907000
  H    -45.379000   67.082400  129.970000
  C    -45.861300   64.990000  127.986000
  H    -46.890000   64.576100  127.827000
  H    -45.659600   64.799800  129.014000
  C    -44.794600   64.473600  127.043000
  H    -44.857700   63.361100  127.066000
  H    -45.175700   64.744800  126.044000
  C    -43.417700   65.029200  127.244000
  H    -42.756700   64.619300  128.046000
  H    -42.975800   64.770000  126.315000
  H    -43.412800   66.097900  127.305000
  S    -45.361400   71.172800  128.992000
  C    -45.047800   71.937600  130.572000
  C    -45.136800   71.061400  131.573000
  C    -45.521600   69.752200  131.096000
  C    -45.860700   69.720500  129.757000
  H    -44.952400   71.402000  132.556000
  C    -45.774700   68.666200  132.180000
  H    -45.670700   68.989200  133.187000
  H    -45.090100   67.848200  132.016000
  C    -47.214600   68.157400  132.190000
  H    -47.438200   67.490500  131.324000
  H    -47.774700   69.067300  132.235000
  C    -47.611100   67.279200  133.367000
  H    -48.635300   66.911900  133.061000
  H    -47.702300   67.779000  134.330000
  H    -46.871500   66.429400  133.402000
  H    -47.128100   66.719300  126.003000
  H    -44.750400   72.978500  130.749000

 Total Charge           Charge          ....    0
 Multiplicity           Mult            ....    1
 Number of Electrons    NEL             ....  134
 Basis Dimension        Dim             ....  322

ORBITAL ENERGIES
----------------

  NO   OCC          E(Eh)            E(eV)
   0   2.0000     -88.963836     -2420.8290
   1   2.0000     -88.960944     -2420.7504
   2   2.0000     -10.330904      -281.1182
   3   2.0000     -10.327523      -281.0262
   4   2.0000     -10.314092      -280.6607
   5   2.0000     -10.308313      -280.5035
   6   2.0000     -10.305188      -280.4184
   7   2.0000     -10.295911      -280.1660
   8   2.0000     -10.290779      -280.0263
   9   2.0000     -10.289330      -279.9869
  10   2.0000     -10.288568      -279.9662
  11   2.0000     -10.288237      -279.9571
  12   2.0000     -10.287236      -279.9299
  13   2.0000     -10.282977      -279.8140
  14   2.0000     -10.278397      -279.6894
  15   2.0000     -10.273510      -279.5564
  16   2.0000      -8.078874      -219.8374
  17   2.0000      -8.074965      -219.7310
  18   2.0000      -6.037505      -164.2889
  19   2.0000      -6.033688      -164.1850
  20   2.0000      -6.033458      -164.1787
  21   2.0000      -6.029686      -164.0761
  22   2.0000      -6.029346      -164.0669
  23   2.0000      -6.025427      -163.9602
  24   2.0000      -1.009962       -27.4825
  25   2.0000      -0.987862       -26.8811
  26   2.0000      -0.913964       -24.8702
  27   2.0000      -0.910116       -24.7655
  28   2.0000      -0.878578       -23.9073
  29   2.0000      -0.851741       -23.1770
  30   2.0000      -0.843982       -22.9659
  31   2.0000      -0.824774       -22.4432
  32   2.0000      -0.783133       -21.3101
  33   2.0000      -0.772629       -21.0243
  34   2.0000      -0.709291       -19.3008
  35   2.0000      -0.701514       -19.0892
  36   2.0000      -0.682631       -18.5753
  37   2.0000      -0.666211       -18.1285
  38   2.0000      -0.644337       -17.5333
  39   2.0000      -0.613364       -16.6905
  40   2.0000      -0.593716       -16.1558
  41   2.0000      -0.579698       -15.7744
  42   2.0000      -0.574476       -15.6323
  43   2.0000      -0.555544       -15.1171
  44   2.0000      -0.543298       -14.7839
  45   2.0000      -0.526112       -14.3162
  46   2.0000      -0.518520       -14.1097
  47   2.0000      -0.513894       -13.9838
  48   2.0000      -0.506214       -13.7748
  49   2.0000      -0.499609       -13.5950
  50   2.0000      -0.495559       -13.4848
  51   2.0000      -0.485993       -13.2245
  52   2.0000      -0.477558       -12.9950
  53   2.0000      -0.466862       -12.7040
  54   2.0000      -0.458614       -12.4795
  55   2.0000      -0.444031       -12.0827
  56   2.0000      -0.438134       -11.9222
  57   2.0000      -0.433555       -11.7976
  58   2.0000      -0.425966       -11.5911
  59   2.0000      -0.423176       -11.5152
  60   2.0000      -0.413435       -11.2501
  61   2.0000      -0.412066       -11.2129
  62   2.0000      -0.407180       -11.0799
  63   2.0000      -0.364731        -9.9248
  64   2.0000      -0.333200        -9.0668
  65   2.0000      -0.327587        -8.9141
  66   2.0000      -0.290914        -7.9162
  67   0.0000       0.024638         0.6704
  68   0.0000       0.083209         2.2642
  69   0.0000       0.102858         2.7989
  70   0.0000       0.120572         3.2809
  71   0.0000       0.136090         3.7032

MULLIKEN ATOMIC CHARGES
-----------------------
   0 S :    0.075019
   1 C :   -0.124251
   2 C :   -0.078799
   3 C :    0.011143
   4 C :   -0.125285
   5 H :   -0.000596
   6 C :    0.080542
   7 H :    0.036551
   8 H :    0.000245
   9 C :   -0.057859
  10 H :    0.036527
  11 H :    0.018957
  12 C :   -0.027299
  13 H :    0.042896
  14 H :    0.023121
  15 H :    0.038797
  16 S :    0.098127
  17 C :   -0.091528
  18 C :   -0.008364
  19 C :   -0.055683
  20 C :   -0.104759
  21 H :    0.004763
  22 C :    0.071609
  23 H :    0.006382
  24 H :    0.024184
  25 C :   -0.104820
  26 H :    0.046666
  27 H :    0.030268
  28 C :   -0.068094
  29 H :    0.044766
  30 H :    0.036261
  31 H :    0.033481
  32 H :    0.030255
  33 H :    0.056778
Sum of atomic charges:    0.0000000

LOEWDIN ATOMIC CHARGES
----------------------
   0 S :    0.353627
   1 C :   -0.175795
   2 C :   -0.068346
   3 C :   -0.064931
   4 C :   -0.157335
   5 H :    0.033470
   6 C :   -0.034861
   7 H :    0.039385
   8 H :    0.018918
   9 C :   -0.041312
  10 H :    0.030890
  11 H :    0.025229
  12 C :   -0.065579
  13 H :    0.032048
  14 H :    0.027821
  15 H :    0.027135
  16 S :    0.401823
  17 C :   -0.173133
  18 C :   -0.065875
  19 C :   -0.056353
  20 C :   -0.200895
  21 H :    0.029223
  22 C :   -0.031599
  23 H :    0.025147
  24 H :    0.020815
  25 C :   -0.047300
  26 H :    0.028929
  27 H :    0.022747
  28 C :   -0.070474
  29 H :    0.036367
  30 H :    0.019312
  31 H :    0.027316
  32 H :    0.019053
  33 H :    0.034534

  Mayer bond orders larger than 0.100000
B(  0-S ,  1-C ) :   1.1124 B(  0-S ,  4-C ) :   1.1171 B(  1-C ,  2-C ) :   1.6531
B(  1-C , 32-H ) :   0.9798 B(  2-C ,  3-C ) :   1.1974 B(  2-C ,  6-C ) :   0.9903
B(  3-C ,  4-C ) :   1.6334 B(  3-C ,  5-H ) :   0.9870 B(  4-C , 20-C ) :   1.0477
B(  6-C ,  7-H ) :   0.9380 B(  6-C ,  8-H ) :   0.9405 B(  6-C ,  9-C ) :   1.0733
B(  9-C , 10-H ) :   0.9509 B(  9-C , 11-H ) :   0.9565 B(  9-C , 12-C ) :   1.0725
B( 12-C , 13-H ) :   0.9739 B( 12-C , 14-H ) :   0.9699 B( 12-C , 15-H ) :   0.9728
B( 16-S , 17-C ) :   1.1279 B( 16-S , 20-C ) :   1.1365 B( 17-C , 18-C ) :   1.6584
B( 17-C , 33-H ) :   0.9622 B( 18-C , 19-C ) :   1.2093 B( 18-C , 21-H ) :   1.0012
B( 19-C , 20-C ) :   1.6102 B( 19-C , 22-C ) :   1.0398 B( 22-C , 23-H ) :   0.9443
B( 22-C , 24-H ) :   0.9215 B( 22-C , 25-C ) :   1.0688 B( 25-C , 26-H ) :   0.9492
B( 25-C , 27-H ) :   0.9554 B( 25-C , 28-C ) :   1.0892 B( 28-C , 29-H ) :   0.9755
B( 28-C , 30-H ) :   0.9735 B( 28-C , 31-H ) :   0.9727

Dispersion correction           -0.014533655
FINAL SINGLE POINT ENERGY     -1339.865846730554

DIPOLE MOMENT
-------------
                                X             Y             Z
Electronic contribution:     -2.75580      23.03868     -11.53244
Nuclear contribution   :      2.96317     -23.50937      11.94615
                        -----------------------------------------
Total Dipole Moment    :      0.20736      -0.47068       0.41371
                        -----------------------------------------
Magnitude (a.u.)       :      0.66007
Magnitude (Debye)      :      1.67777

Rotational constants in cm-1:     0.017519     0.009221     0.007389
Rotational constants in MHz :   525.220783   276.443784   221.515389

                             ****ORCA TERMINATED NORMALLY****
TOTAL RUN TIME: 0 days 0 hours 0 minutes 36 seconds 378 msec
