                         Program Version 4.2.1 -  RELEASE  -
|  1> ! wB97X-D3 SP def2-SVP
|  2> %pal
|  3> nprocs 16
|  4> end
|  5>
|  6> * xyz 0 1
|  7> S 	 26.3501 	 6.6879 	 75.7933
|  8> C 	 27.9564 	 7.44864 	 75.7108
|  9> C 	 28.9475 	 6.61073 	 76.0449
| 10> C 	 28.4897 	 5.33013 	 76.3596
| 11> C 	 27.1368 	 5.18715 	 76.1924
| 12> H 	 29.0734 	 4.43135 	 76.6838
| 13> C 	 30.4842 	 6.92113 	 76.0651
| 14> H 	 30.8965 	 6.96506 	 77.0369
| 15> H 	 30.6566 	 7.92047 	 75.5992
| 16> C 	 31.3586 	 5.89043 	 75.3169
| 17> H 	 32.3714 	 5.99366 	 75.6532
| 18> H 	 31.0749 	 4.90833 	 75.6795
| 19> C 	 31.1936 	 5.69455 	 73.8065
| 20> H 	 31.7788 	 4.91768 	 73.384
| 21> H 	 30.1144 	 5.36302 	 73.7429
| 22> H 	 31.3231 	 6.56527 	 73.1003
| 23> S 	 25.8069 	 3.15102 	 74.8792
| 24> C 	 25.1873 	 1.76444 	 75.7486
| 25> C 	 25.5517 	 1.83159 	 77.1119
| 26> C 	 26.2875 	 3.02851 	 77.4491
| 27> C 	 26.4634 	 3.93425 	 76.3332
| 28> H 	 25.2673 	 1.0838 	 77.8193
| 29> C 	 26.6275 	 3.32415 	 78.9359
| 30> H 	 27.4671 	 4.01157 	 78.8667
| 31> H 	 27.1239 	 2.37858 	 79.3508
| 32> C 	 25.4981 	 3.93626 	 79.8235
| 33> H 	 24.6001 	 3.31929 	 79.8391
| 34> H 	 25.212 	 4.90735 	 79.3588
| 35> C 	 25.9701 	 4.2444 	 81.2673
| 36> H 	 26.8624 	 4.89602 	 81.1149
| 37> H 	 26.3169 	 3.30964 	 81.6066
| 38> H 	 25.247 	 4.83694 	 81.8995
| 39> H 	 28.0643 	 8.52036 	 75.5648
| 40> H 	 24.4544 	 1.09662 	 75.3639
| 41> *
| 42>
| 43>                          ****END OF INPUT****

CARTESIAN COORDINATES (ANGSTROEM)
---------------------------------
  S     26.350100    6.687900   75.793300
  C     27.956400    7.448640   75.710800
  C     28.947500    6.610730   76.044900
  C     28.489700    5.330130   76.359600
  C     27.136800    5.187150   76.192400
  H     29.073400    4.431350   76.683800
  C     30.484200    6.921130   76.065100
  H     30.896500    6.965060   77.036900
  H     30.656600    7.920470   75.599200
  C     31.358600    5.890430   75.316900
  H     32.371400    5.993660   75.653200
  H     31.074900    4.908330   75.679500
  C     31.193600    5.694550   73.806500
  H     31.778800    4.917680   73.384000
  H     30.114400    5.363020   73.742900
  H     31.323100    6.565270   73.100300
  S     25.806900    3.151020   74.879200
  C     25.187300    1.764440   75.748600
  C     25.551700    1.831590   77.111900
  C     26.287500    3.028510   77.449100
  C     26.463400    3.934250   76.333200
  H     25.267300    1.083800   77.819300
  C     26.627500    3.324150   78.935900
  H     27.467100    4.011570   78.866700
  H     27.123900    2.378580   79.350800
  C     25.498100    3.936260   79.823500
  H     24.600100    3.319290   79.839100
  H     25.212000    4.907350   79.358800
  C     25.970100    4.244400   81.267300
  H     26.862400    4.896020   81.114900
  H     26.316900    3.309640   81.606600
  H     25.247000    4.836940   81.899500
  H     28.064300    8.520360   75.564800
  H     24.454400    1.096620   75.363900

 Total Charge           Charge          ....    0
 Multiplicity           Mult            ....    1
 Number of Electrons    NEL             ....  134
 Basis Dimension        Dim             ....  322

ORBITAL ENERGIES
----------------

  NO   OCC          E(Eh)            E(eV)
   0   2.0000     -88.970059     -2420.9984
   1   2.0000     -88.965466     -2420.8734
   2   2.0000     -10.331458      -281.1333
   3   2.0000     -10.326430      -280.9964
   4   2.0000     -10.318989      -280.7940
   5   2.0000     -10.315724      -280.7051
   6   2.0000     -10.312816      -280.6260
   7   2.0000     -10.300759      -280.2979
   8   2.0000     -10.300539      -280.2919
   9   2.0000     -10.298314      -280.2314
  10   2.0000     -10.296902      -280.1930
  11   2.0000     -10.295025      -280.1419
  12   2.0000     -10.290014      -280.0055
  13   2.0000     -10.285735      -279.8891
  14   2.0000     -10.281164      -279.7647
  15   2.0000     -10.278795      -279.7002
  16   2.0000      -8.084652      -219.9946
  17   2.0000      -8.079630      -219.8579
  18   2.0000      -6.043080      -164.4406
  19   2.0000      -6.039377      -164.3398
  20   2.0000      -6.038131      -164.3059
  21   2.0000      -6.035295      -164.2287
  22   2.0000      -6.034006      -164.1936
  23   2.0000      -6.030641      -164.1021
  24   2.0000      -1.009134       -27.4599
  25   2.0000      -0.977523       -26.5998
  26   2.0000      -0.909312       -24.7436
  27   2.0000      -0.899382       -24.4734
  28   2.0000      -0.871797       -23.7228
  29   2.0000      -0.849253       -23.1094
  30   2.0000      -0.844314       -22.9750
  31   2.0000      -0.810539       -22.0559
  32   2.0000      -0.786343       -21.3975
  33   2.0000      -0.767087       -20.8735
  34   2.0000      -0.708329       -19.2746
  35   2.0000      -0.693244       -18.8641
  36   2.0000      -0.692129       -18.8338
  37   2.0000      -0.657792       -17.8994
  38   2.0000      -0.643128       -17.5004
  39   2.0000      -0.623428       -16.9643
  40   2.0000      -0.589360       -16.0373
  41   2.0000      -0.568704       -15.4752
  42   2.0000      -0.561236       -15.2720
  43   2.0000      -0.552659       -15.0386
  44   2.0000      -0.533561       -14.5189
  45   2.0000      -0.525014       -14.2864
  46   2.0000      -0.519479       -14.1357
  47   2.0000      -0.511729       -13.9249
  48   2.0000      -0.501065       -13.6347
  49   2.0000      -0.494451       -13.4547
  50   2.0000      -0.487404       -13.2629
  51   2.0000      -0.482552       -13.1309
  52   2.0000      -0.466620       -12.6974
  53   2.0000      -0.465957       -12.6793
  54   2.0000      -0.453849       -12.3499
  55   2.0000      -0.447839       -12.1863
  56   2.0000      -0.442842       -12.0504
  57   2.0000      -0.438906       -11.9432
  58   2.0000      -0.432210       -11.7610
  59   2.0000      -0.421114       -11.4591
  60   2.0000      -0.419690       -11.4203
  61   2.0000      -0.413249       -11.2451
  62   2.0000      -0.411187       -11.1890
  63   2.0000      -0.341169        -9.2837
  64   2.0000      -0.335203        -9.1213
  65   2.0000      -0.328064        -8.9271
  66   2.0000      -0.298718        -8.1285
  67   0.0000       0.029110         0.7921
  68   0.0000       0.060926         1.6579
  69   0.0000       0.113066         3.0767
  70   0.0000       0.116883         3.1805
  71   0.0000       0.128169         3.4876

MULLIKEN ATOMIC CHARGES
-----------------------
   0 S :    0.121605
   1 C :   -0.143545
   2 C :   -0.044407
   3 C :    0.009681
   4 C :   -0.180936
   5 H :    0.042677
   6 C :    0.106050
   7 H :    0.029726
   8 H :    0.022043
   9 C :   -0.085356
  10 H :    0.020930
  11 H :    0.015180
  12 C :   -0.063831
  13 H :    0.030432
  14 H :    0.042450
  15 H :    0.037026
  16 S :    0.106071
  17 C :   -0.088739
  18 C :   -0.028565
  19 C :   -0.041288
  20 C :   -0.174918
  21 H :    0.016175
  22 C :    0.031874
  23 H :    0.012130
  24 H :    0.034485
  25 C :   -0.064458
  26 H :    0.030402
  27 H :    0.033613
  28 C :   -0.041572
  29 H :    0.028077
  30 H :    0.021813
  31 H :    0.057474
  32 H :    0.048761
  33 H :    0.058941
Sum of atomic charges:    0.0000000

LOEWDIN ATOMIC CHARGES
----------------------
   0 S :    0.401212
   1 C :   -0.179025
   2 C :   -0.069855
   3 C :   -0.060716
   4 C :   -0.206013
   5 H :    0.043064
   6 C :   -0.018752
   7 H :    0.028744
   8 H :    0.031156
   9 C :   -0.043893
  10 H :    0.018781
  11 H :    0.022696
  12 C :   -0.072463
  13 H :    0.021390
  14 H :    0.036311
  15 H :    0.025976
  16 S :    0.404418
  17 C :   -0.186854
  18 C :   -0.068025
  19 C :   -0.052810
  20 C :   -0.201245
  21 H :    0.027845
  22 C :   -0.040722
  23 H :    0.025106
  24 H :    0.035221
  25 C :   -0.039789
  26 H :    0.019416
  27 H :    0.028628
  28 C :   -0.066307
  29 H :    0.028720
  30 H :    0.016489
  31 H :    0.036328
  32 H :    0.029246
  33 H :    0.025722

  Mayer bond orders larger than 0.100000
B(  0-S ,  1-C ) :   1.1243 B(  0-S ,  4-C ) :   1.1497 B(  1-C ,  2-C ) :   1.6518
B(  1-C , 32-H ) :   0.9645 B(  2-C ,  3-C ) :   1.2233 B(  2-C ,  6-C ) :   1.0032
B(  3-C ,  4-C ) :   1.5948 B(  3-C ,  5-H ) :   0.9831 B(  4-C , 20-C ) :   1.0520
B(  6-C ,  7-H ) :   0.9392 B(  6-C ,  8-H ) :   0.9456 B(  6-C ,  9-C ) :   1.0762
B(  9-C , 10-H ) :   0.9564 B(  9-C , 11-H ) :   0.9527 B(  9-C , 12-C ) :   1.0649
B( 12-C , 13-H ) :   0.9749 B( 12-C , 14-H ) :   0.9733 B( 12-C , 15-H ) :   0.9774
B( 16-S , 17-C ) :   1.1691 B( 16-S , 20-C ) :   1.1516 B( 17-C , 18-C ) :   1.5694
B( 17-C , 20-C ) :   0.1138 B( 17-C , 33-H ) :   0.9704 B( 18-C , 19-C ) :   1.2741
B( 18-C , 21-H ) :   0.9914 B( 19-C , 20-C ) :   1.5446 B( 19-C , 22-C ) :   1.0454
B( 22-C , 23-H ) :   0.9305 B( 22-C , 24-H ) :   0.9371 B( 22-C , 25-C ) :   1.0534
B( 25-C , 26-H ) :   0.9606 B( 25-C , 27-H ) :   0.9541 B( 25-C , 28-C ) :   1.0676
B( 28-C , 29-H ) :   0.9762 B( 28-C , 30-H ) :   0.9768 B( 28-C , 31-H ) :   0.9734

Dispersion correction           -0.014296090
FINAL SINGLE POINT ENERGY     -1339.871903713657

DIPOLE MOMENT
-------------
                                X             Y             Z
Electronic contribution:    -15.35249      -0.31711     -13.24871
Nuclear contribution   :     15.70289       0.28734      13.67666
                        -----------------------------------------
Total Dipole Moment    :      0.35040      -0.02977       0.42794
                        -----------------------------------------
Magnitude (a.u.)       :      0.55390
Magnitude (Debye)      :      1.40790

Rotational constants in cm-1:     0.017194     0.008577     0.007343
Rotational constants in MHz :   515.468200   257.140024   220.129437

                             ****ORCA TERMINATED NORMALLY****
TOTAL RUN TIME: 0 days 0 hours 0 minutes 34 seconds 859 msec
