                         Program Version 4.2.1 -  RELEASE  -
|  1> ! wB97X-D3 SP def2-SVP
|  2> %pal
|  3> nprocs 16
|  4> end
|  5>
|  6> * xyz 0 1
|  7> S 	 -107.12 	 56.3635 	 114.946
|  8> C 	 -107.077 	 57.1612 	 113.33
|  9> C 	 -106.858 	 56.2244 	 112.334
| 10> C 	 -106.676 	 54.8546 	 112.834
| 11> C 	 -106.832 	 54.7924 	 114.239
| 12> H 	 -106.599 	 53.9753 	 112.243
| 13> C 	 -106.782 	 56.5261 	 110.819
| 14> H 	 -105.904 	 55.9849 	 110.438
| 15> H 	 -106.569 	 57.5783 	 110.758
| 16> C 	 -108.132 	 56.216 	 110.016
| 17> H 	 -108.501 	 55.189 	 110.061
| 18> H 	 -108.953 	 56.6906 	 110.512
| 19> C 	 -108.15 	 56.7327 	 108.575
| 20> H 	 -107.282 	 56.2381 	 108.072
| 21> H 	 -109.089 	 56.4778 	 108.033
| 22> H 	 -107.932 	 57.7708 	 108.609
| 23> S 	 -105.977 	 53.8917 	 116.566
| 24> C 	 -106.048 	 52.2257 	 116.942
| 25> C 	 -106.817 	 51.5258 	 115.96
| 26> C 	 -107.343 	 52.3725 	 114.893
| 27> C 	 -106.912 	 53.6485 	 115.087
| 28> H 	 -106.886 	 50.5119 	 116.079
| 29> C 	 -108.201 	 51.8956 	 113.719
| 30> H 	 -107.573 	 51.4205 	 112.983
| 31> H 	 -108.483 	 52.7665 	 113.13
| 32> C 	 -109.49 	 51.1911 	 114.129
| 33> H 	 -109.21 	 50.353 	 114.818
| 34> H 	 -110.044 	 50.847 	 113.231
| 35> C 	 -110.423 	 52.143 	 114.943
| 36> H 	 -111.334 	 51.6297 	 115.177
| 37> H 	 -110.541 	 53.1387 	 114.48
| 38> H 	 -109.992 	 52.357 	 115.914
| 39> H 	 -107.338 	 58.1581 	 113.129
| 40> H 	 -105.432 	 51.7433 	 117.679
| 41> *
| 42>
| 43>                          ****END OF INPUT****

CARTESIAN COORDINATES (ANGSTROEM)
---------------------------------
  S    -107.120000   56.363500  114.946000
  C    -107.077000   57.161200  113.330000
  C    -106.858000   56.224400  112.334000
  C    -106.676000   54.854600  112.834000
  C    -106.832000   54.792400  114.239000
  H    -106.599000   53.975300  112.243000
  C    -106.782000   56.526100  110.819000
  H    -105.904000   55.984900  110.438000
  H    -106.569000   57.578300  110.758000
  C    -108.132000   56.216000  110.016000
  H    -108.501000   55.189000  110.061000
  H    -108.953000   56.690600  110.512000
  C    -108.150000   56.732700  108.575000
  H    -107.282000   56.238100  108.072000
  H    -109.089000   56.477800  108.033000
  H    -107.932000   57.770800  108.609000
  S    -105.977000   53.891700  116.566000
  C    -106.048000   52.225700  116.942000
  C    -106.817000   51.525800  115.960000
  C    -107.343000   52.372500  114.893000
  C    -106.912000   53.648500  115.087000
  H    -106.886000   50.511900  116.079000
  C    -108.201000   51.895600  113.719000
  H    -107.573000   51.420500  112.983000
  H    -108.483000   52.766500  113.130000
  C    -109.490000   51.191100  114.129000
  H    -109.210000   50.353000  114.818000
  H    -110.044000   50.847000  113.231000
  C    -110.423000   52.143000  114.943000
  H    -111.334000   51.629700  115.177000
  H    -110.541000   53.138700  114.480000
  H    -109.992000   52.357000  115.914000
  H    -107.338000   58.158100  113.129000
  H    -105.432000   51.743300  117.679000

 Total Charge           Charge          ....    0
 Multiplicity           Mult            ....    1
 Number of Electrons    NEL             ....  134
 Basis Dimension        Dim             ....  322

ORBITAL ENERGIES
----------------

  NO   OCC          E(Eh)            E(eV)
   0   2.0000     -88.965766     -2420.8816
   1   2.0000     -88.965007     -2420.8609
   2   2.0000     -10.331835      -281.1435
   3   2.0000     -10.322717      -280.8954
   4   2.0000     -10.319701      -280.8133
   5   2.0000     -10.313565      -280.6464
   6   2.0000     -10.309694      -280.5410
   7   2.0000     -10.307900      -280.4922
   8   2.0000     -10.300850      -280.3004
   9   2.0000     -10.297098      -280.1983
  10   2.0000     -10.297092      -280.1981
  11   2.0000     -10.294640      -280.1314
  12   2.0000     -10.293239      -280.0933
  13   2.0000     -10.288342      -279.9600
  14   2.0000     -10.281632      -279.7774
  15   2.0000     -10.272992      -279.5423
  16   2.0000      -8.080577      -219.8837
  17   2.0000      -8.079795      -219.8624
  18   2.0000      -6.038999      -164.3295
  19   2.0000      -6.038495      -164.3158
  20   2.0000      -6.034900      -164.2180
  21   2.0000      -6.034464      -164.2061
  22   2.0000      -6.031414      -164.1231
  23   2.0000      -6.030326      -164.0935
  24   2.0000      -1.007672       -27.4201
  25   2.0000      -0.974678       -26.5223
  26   2.0000      -0.910952       -24.7883
  27   2.0000      -0.903777       -24.5930
  28   2.0000      -0.870074       -23.6759
  29   2.0000      -0.851345       -23.1663
  30   2.0000      -0.838739       -22.8232
  31   2.0000      -0.809947       -22.0398
  32   2.0000      -0.786359       -21.3979
  33   2.0000      -0.772050       -21.0086
  34   2.0000      -0.708554       -19.2807
  35   2.0000      -0.701228       -19.0814
  36   2.0000      -0.696980       -18.9658
  37   2.0000      -0.664522       -18.0826
  38   2.0000      -0.640341       -17.4246
  39   2.0000      -0.618088       -16.8190
  40   2.0000      -0.599538       -16.3143
  41   2.0000      -0.561921       -15.2907
  42   2.0000      -0.557342       -15.1660
  43   2.0000      -0.555739       -15.1224
  44   2.0000      -0.542109       -14.7515
  45   2.0000      -0.526885       -14.3373
  46   2.0000      -0.521883       -14.2011
  47   2.0000      -0.510983       -13.9045
  48   2.0000      -0.505019       -13.7423
  49   2.0000      -0.497055       -13.5256
  50   2.0000      -0.490710       -13.3529
  51   2.0000      -0.477319       -12.9885
  52   2.0000      -0.470261       -12.7964
  53   2.0000      -0.462245       -12.5783
  54   2.0000      -0.460390       -12.5278
  55   2.0000      -0.446748       -12.1566
  56   2.0000      -0.442436       -12.0393
  57   2.0000      -0.440821       -11.9953
  58   2.0000      -0.435864       -11.8604
  59   2.0000      -0.421122       -11.4593
  60   2.0000      -0.420729       -11.4486
  61   2.0000      -0.416952       -11.3458
  62   2.0000      -0.413762       -11.2590
  63   2.0000      -0.351605        -9.5677
  64   2.0000      -0.333093        -9.0639
  65   2.0000      -0.328586        -8.9413
  66   2.0000      -0.284769        -7.7490
  67   0.0000       0.025928         0.7055
  68   0.0000       0.067287         1.8310
  69   0.0000       0.100025         2.7218
  70   0.0000       0.115202         3.1348
  71   0.0000       0.132407         3.6030

MULLIKEN ATOMIC CHARGES
-----------------------
   0 S :    0.091183
   1 C :   -0.091020
   2 C :   -0.120286
   3 C :    0.043556
   4 C :   -0.131331
   5 H :    0.002049
   6 C :    0.069160
   7 H :    0.039568
   8 H :    0.014378
   9 C :   -0.071592
  10 H :    0.023081
  11 H :    0.015515
  12 C :   -0.049209
  13 H :    0.030703
  14 H :    0.051468
  15 H :    0.027079
  16 S :    0.105488
  17 C :   -0.085904
  18 C :   -0.041328
  19 C :   -0.042251
  20 C :   -0.139641
  21 H :   -0.011021
  22 C :    0.078763
  23 H :    0.034737
  24 H :    0.013530
  25 C :   -0.085405
  26 H :    0.039429
  27 H :    0.042580
  28 C :   -0.049958
  29 H :    0.031505
  30 H :    0.039502
  31 H :    0.034590
  32 H :    0.029686
  33 H :    0.061395
Sum of atomic charges:   -0.0000000

LOEWDIN ATOMIC CHARGES
----------------------
   0 S :    0.381804
   1 C :   -0.185338
   2 C :   -0.051658
   3 C :   -0.068119
   4 C :   -0.184966
   5 H :    0.023864
   6 C :   -0.025062
   7 H :    0.033757
   8 H :    0.026614
   9 C :   -0.044572
  10 H :    0.022169
  11 H :    0.019855
  12 C :   -0.066370
  13 H :    0.027787
  14 H :    0.033872
  15 H :    0.018872
  16 S :    0.417293
  17 C :   -0.194387
  18 C :   -0.058869
  19 C :   -0.047567
  20 C :   -0.194348
  21 H :    0.012232
  22 C :   -0.036681
  23 H :    0.030331
  24 H :    0.029655
  25 C :   -0.038969
  26 H :    0.027682
  27 H :    0.029041
  28 C :   -0.065187
  29 H :    0.023304
  30 H :    0.029441
  31 H :    0.026540
  32 H :    0.019044
  33 H :    0.028936

  Mayer bond orders larger than 0.100000
B(  0-S ,  1-C ) :   1.0994 B(  0-S ,  4-C ) :   1.1519 B(  1-C ,  2-C ) :   1.6530
B(  1-C , 32-H ) :   0.9733 B(  2-C ,  3-C ) :   1.2046 B(  2-C ,  6-C ) :   1.0267
B(  3-C ,  4-C ) :   1.5714 B(  3-C ,  5-H ) :   0.9966 B(  4-C , 20-C ) :   1.0371
B(  6-C ,  7-H ) :   0.9444 B(  6-C ,  8-H ) :   0.9429 B(  6-C ,  9-C ) :   1.0414
B(  9-C , 10-H ) :   0.9586 B(  9-C , 11-H ) :   0.9546 B(  9-C , 12-C ) :   1.0827
B( 12-C , 13-H ) :   0.9760 B( 12-C , 14-H ) :   0.9732 B( 12-C , 15-H ) :   0.9763
B( 16-S , 17-C ) :   1.1673 B( 16-S , 20-C ) :   1.1334 B( 17-C , 18-C ) :   1.6033
B( 17-C , 33-H ) :   0.9709 B( 18-C , 19-C ) :   1.1940 B( 18-C , 21-H ) :   1.0060
B( 19-C , 20-C ) :   1.6243 B( 19-C , 22-C ) :   1.0306 B( 22-C , 23-H ) :   0.9316
B( 22-C , 24-H ) :   0.9290 B( 22-C , 25-C ) :   1.0633 B( 25-C , 26-H ) :   0.9583
B( 25-C , 27-H ) :   0.9569 B( 25-C , 28-C ) :   1.0726 B( 28-C , 29-H ) :   0.9741
B( 28-C , 30-H ) :   0.9758 B( 28-C , 31-H ) :   0.9711

Dispersion correction           -0.014328486
FINAL SINGLE POINT ENERGY     -1339.872463548798

DIPOLE MOMENT
-------------
                                X             Y             Z
Electronic contribution:     14.38135       5.05108      23.71807
Nuclear contribution   :    -14.57857      -5.41995     -24.26625
                        -----------------------------------------
Total Dipole Moment    :     -0.19722      -0.36888      -0.54818
                        -----------------------------------------
Magnitude (a.u.)       :      0.68954
Magnitude (Debye)      :      1.75267

Rotational constants in cm-1:     0.019682     0.008338     0.006616
Rotational constants in MHz :   590.047214   249.966166   198.328623

                             ****ORCA TERMINATED NORMALLY****
TOTAL RUN TIME: 0 days 0 hours 0 minutes 31 seconds 415 msec
