                         Program Version 4.2.1 -  RELEASE  -
|  1> ! wB97X-D3 SP def2-SVP
|  2> %pal
|  3> nprocs 16
|  4> end
|  5>
|  6> * xyz 0 1
|  7> S 	 -94.1507 	 54.5364 	 127.713
|  8> C 	 -92.9911 	 53.4319 	 128.235
|  9> C 	 -92.4034 	 52.6605 	 127.159
| 10> C 	 -93.0147 	 52.9224 	 125.869
| 11> C 	 -93.9202 	 53.9978 	 126
| 12> H 	 -92.8004 	 52.4373 	 124.933
| 13> C 	 -91.2569 	 51.6607 	 127.453
| 14> H 	 -91.3944 	 51.2564 	 128.449
| 15> H 	 -90.2559 	 52.0096 	 127.309
| 16> C 	 -91.347 	 50.4182 	 126.528
| 17> H 	 -91.3737 	 50.699 	 125.489
| 18> H 	 -90.4624 	 49.7779 	 126.749
| 19> C 	 -92.6022 	 49.6207 	 126.776
| 20> H 	 -92.8163 	 49.4582 	 127.85
| 21> H 	 -93.536 	 50.0616 	 126.427
| 22> H 	 -92.5811 	 48.5774 	 126.428
| 23> S 	 -96.4133 	 54.7619 	 125.096
| 24> C 	 -96.63 	 55.2243 	 123.443
| 25> C 	 -95.463 	 55.4577 	 122.847
| 26> C 	 -94.3577 	 54.9011 	 123.573
| 27> C 	 -94.6966 	 54.6039 	 124.872
| 28> H 	 -95.2927 	 55.961 	 121.837
| 29> C 	 -92.9977 	 54.9327 	 122.884
| 30> H 	 -93.1259 	 54.5235 	 121.897
| 31> H 	 -92.2437 	 54.3645 	 123.361
| 32> C 	 -92.471 	 56.3364 	 122.592
| 33> H 	 -92.253 	 56.828 	 123.505
| 34> H 	 -93.2553 	 57.0384 	 122.14
| 35> C 	 -91.2952 	 56.4433 	 121.607
| 36> H 	 -90.92 	 57.4909 	 121.574
| 37> H 	 -91.721 	 56.2471 	 120.558
| 38> H 	 -90.4864 	 55.7081 	 121.774
| 39> H 	 -92.6984 	 53.1755 	 129.209
| 40> H 	 -97.4315 	 55.7756 	 123.162
| 41> *
| 42>
| 43>                          ****END OF INPUT****

CARTESIAN COORDINATES (ANGSTROEM)
---------------------------------
  S    -94.150700   54.536400  127.713000
  C    -92.991100   53.431900  128.235000
  C    -92.403400   52.660500  127.159000
  C    -93.014700   52.922400  125.869000
  C    -93.920200   53.997800  126.000000
  H    -92.800400   52.437300  124.933000
  C    -91.256900   51.660700  127.453000
  H    -91.394400   51.256400  128.449000
  H    -90.255900   52.009600  127.309000
  C    -91.347000   50.418200  126.528000
  H    -91.373700   50.699000  125.489000
  H    -90.462400   49.777900  126.749000
  C    -92.602200   49.620700  126.776000
  H    -92.816300   49.458200  127.850000
  H    -93.536000   50.061600  126.427000
  H    -92.581100   48.577400  126.428000
  S    -96.413300   54.761900  125.096000
  C    -96.630000   55.224300  123.443000
  C    -95.463000   55.457700  122.847000
  C    -94.357700   54.901100  123.573000
  C    -94.696600   54.603900  124.872000
  H    -95.292700   55.961000  121.837000
  C    -92.997700   54.932700  122.884000
  H    -93.125900   54.523500  121.897000
  H    -92.243700   54.364500  123.361000
  C    -92.471000   56.336400  122.592000
  H    -92.253000   56.828000  123.505000
  H    -93.255300   57.038400  122.140000
  C    -91.295200   56.443300  121.607000
  H    -90.920000   57.490900  121.574000
  H    -91.721000   56.247100  120.558000
  H    -90.486400   55.708100  121.774000
  H    -92.698400   53.175500  129.209000
  H    -97.431500   55.775600  123.162000

 Total Charge           Charge          ....    0
 Multiplicity           Mult            ....    1
 Number of Electrons    NEL             ....  134
 Basis Dimension        Dim             ....  322

ORBITAL ENERGIES
----------------

  NO   OCC          E(Eh)            E(eV)
   0   2.0000     -88.976552     -2421.1751
   1   2.0000     -88.960081     -2420.7269
   2   2.0000     -10.340404      -281.3767
   3   2.0000     -10.329011      -281.0667
   4   2.0000     -10.312862      -280.6272
   5   2.0000     -10.310714      -280.5688
   6   2.0000     -10.305771      -280.4343
   7   2.0000     -10.302214      -280.3375
   8   2.0000     -10.301071      -280.3064
   9   2.0000     -10.294813      -280.1361
  10   2.0000     -10.292480      -280.0726
  11   2.0000     -10.290066      -280.0069
  12   2.0000     -10.289195      -279.9832
  13   2.0000     -10.287507      -279.9373
  14   2.0000     -10.286811      -279.9184
  15   2.0000     -10.272134      -279.5190
  16   2.0000      -8.090724      -220.1598
  17   2.0000      -8.075981      -219.7586
  18   2.0000      -6.049188      -164.6068
  19   2.0000      -6.045265      -164.5000
  20   2.0000      -6.041626      -164.4010
  21   2.0000      -6.034562      -164.2088
  22   2.0000      -6.030464      -164.0973
  23   2.0000      -6.026441      -163.9878
  24   2.0000      -1.008983       -27.4558
  25   2.0000      -0.984046       -26.7772
  26   2.0000      -0.911801       -24.8114
  27   2.0000      -0.910419       -24.7738
  28   2.0000      -0.870885       -23.6980
  29   2.0000      -0.850604       -23.1461
  30   2.0000      -0.844282       -22.9741
  31   2.0000      -0.816302       -22.2127
  32   2.0000      -0.781905       -21.2767
  33   2.0000      -0.770969       -20.9791
  34   2.0000      -0.706950       -19.2371
  35   2.0000      -0.695279       -18.9195
  36   2.0000      -0.689530       -18.7631
  37   2.0000      -0.661422       -17.9982
  38   2.0000      -0.641286       -17.4503
  39   2.0000      -0.624926       -17.0051
  40   2.0000      -0.606184       -16.4951
  41   2.0000      -0.566291       -15.4096
  42   2.0000      -0.560987       -15.2652
  43   2.0000      -0.555828       -15.1248
  44   2.0000      -0.537184       -14.6175
  45   2.0000      -0.529707       -14.4141
  46   2.0000      -0.512597       -13.9485
  47   2.0000      -0.507316       -13.8048
  48   2.0000      -0.503407       -13.6984
  49   2.0000      -0.499519       -13.5926
  50   2.0000      -0.487474       -13.2648
  51   2.0000      -0.482112       -13.1189
  52   2.0000      -0.466725       -12.7002
  53   2.0000      -0.461646       -12.5620
  54   2.0000      -0.459645       -12.5076
  55   2.0000      -0.454044       -12.3552
  56   2.0000      -0.448648       -12.2083
  57   2.0000      -0.440662       -11.9910
  58   2.0000      -0.437631       -11.9085
  59   2.0000      -0.422161       -11.4876
  60   2.0000      -0.420986       -11.4556
  61   2.0000      -0.412152       -11.2152
  62   2.0000      -0.411273       -11.1913
  63   2.0000      -0.355747        -9.6804
  64   2.0000      -0.333401        -9.0723
  65   2.0000      -0.325358        -8.8534
  66   2.0000      -0.289889        -7.8883
  67   0.0000       0.026997         0.7346
  68   0.0000       0.071597         1.9483
  69   0.0000       0.111097         3.0231
  70   0.0000       0.113511         3.0888
  71   0.0000       0.124021         3.3748

MULLIKEN ATOMIC CHARGES
-----------------------
   0 S :    0.137660
   1 C :   -0.071827
   2 C :   -0.141831
   3 C :    0.035804
   4 C :   -0.148291
   5 H :    0.027130
   6 C :    0.099328
   7 H :    0.019371
   8 H :    0.041850
   9 C :   -0.099385
  10 H :    0.029662
  11 H :    0.037018
  12 C :   -0.070938
  13 H :    0.014352
  14 H :    0.039037
  15 H :    0.031916
  16 S :    0.082463
  17 C :   -0.012910
  18 C :   -0.088476
  19 C :   -0.063050
  20 C :   -0.138992
  21 H :    0.049929
  22 C :    0.127464
  23 H :    0.009961
  24 H :    0.008323
  25 C :   -0.112914
  26 H :    0.025024
  27 H :    0.029444
  28 C :   -0.076450
  29 H :    0.048062
  30 H :    0.034976
  31 H :    0.041991
  32 H :    0.026255
  33 H :    0.028045
Sum of atomic charges:    0.0000000

LOEWDIN ATOMIC CHARGES
----------------------
   0 S :    0.424076
   1 C :   -0.217729
   2 C :   -0.056215
   3 C :   -0.055167
   4 C :   -0.176255
   5 H :    0.033587
   6 C :   -0.025311
   7 H :    0.027863
   8 H :    0.028768
   9 C :   -0.044873
  10 H :    0.018710
  11 H :    0.030461
  12 C :   -0.077670
  13 H :    0.023768
  14 H :    0.026224
  15 H :    0.027077
  16 S :    0.405866
  17 C :   -0.183635
  18 C :   -0.063711
  19 C :   -0.059584
  20 C :   -0.198496
  21 H :    0.044083
  22 C :   -0.026389
  23 H :    0.029073
  24 H :    0.022033
  25 C :   -0.046080
  26 H :    0.016744
  27 H :    0.029275
  28 C :   -0.073276
  29 H :    0.033636
  30 H :    0.029912
  31 H :    0.024097
  32 H :    0.018851
  33 H :    0.010286

  Mayer bond orders larger than 0.100000
B(  0-S ,  1-C ) :   1.1584 B(  0-S ,  4-C ) :   1.1577 B(  1-C ,  2-C ) :   1.5856
B(  1-C ,  4-C ) :   0.1034 B(  1-C , 32-H ) :   0.9699 B(  2-C ,  3-C ) :   1.2553
B(  2-C ,  6-C ) :   1.0130 B(  3-C ,  4-C ) :   1.5553 B(  3-C ,  5-H ) :   0.9873
B(  4-C , 20-C ) :   1.0149 B(  6-C ,  7-H ) :   0.9454 B(  6-C ,  8-H ) :   0.9430
B(  6-C ,  9-C ) :   1.0782 B(  9-C , 10-H ) :   0.9514 B(  9-C , 11-H ) :   0.9558
B(  9-C , 12-C ) :   1.0783 B( 12-C , 13-H ) :   0.9723 B( 12-C , 14-H ) :   0.9716
B( 12-C , 15-H ) :   0.9742 B( 16-S , 17-C ) :   1.1396 B( 16-S , 20-C ) :   1.1383
B( 17-C , 18-C ) :   1.6557 B( 17-C , 33-H ) :   0.9584 B( 18-C , 19-C ) :   1.2188
B( 18-C , 21-H ) :   0.9702 B( 19-C , 20-C ) :   1.6319 B( 19-C , 22-C ) :   1.0515
B( 22-C , 23-H ) :   0.9262 B( 22-C , 24-H ) :   0.9341 B( 22-C , 25-C ) :   1.0561
B( 25-C , 26-H ) :   0.9563 B( 25-C , 27-H ) :   0.9547 B( 25-C , 28-C ) :   1.0743
B( 28-C , 29-H ) :   0.9726 B( 28-C , 30-H ) :   0.9744 B( 28-C , 31-H ) :   0.9764

Dispersion correction           -0.013872397
FINAL SINGLE POINT ENERGY     -1339.860495818153

DIPOLE MOMENT
-------------
                                X             Y             Z
Electronic contribution:    -20.35138       9.26952      12.09491
Nuclear contribution   :     20.88802      -9.33508     -12.39960
                        -----------------------------------------
Total Dipole Moment    :      0.53664      -0.06557      -0.30469
                        -----------------------------------------
Magnitude (a.u.)       :      0.62058
Magnitude (Debye)      :      1.57739

Rotational constants in cm-1:     0.017053     0.008574     0.006959
Rotational constants in MHz :   511.249998   257.029666   208.626603

                             ****ORCA TERMINATED NORMALLY****
TOTAL RUN TIME: 0 days 0 hours 0 minutes 32 seconds 918 msec
