                         Program Version 4.2.1 -  RELEASE  -
|  1> ! wB97X-D3 SP def2-SVP
|  2> %pal
|  3> nprocs 16
|  4> end
|  5>
|  6> * xyz 0 1
|  7> S 	 -40.1493 	 36.9942 	 79.1211
|  8> C 	 -40.3378 	 37.7197 	 77.5565
|  9> C 	 -41.651 	 37.4695 	 77.0563
| 10> C 	 -42.4098 	 36.7972 	 78.0287
| 11> C 	 -41.8147 	 36.4705 	 79.1935
| 12> H 	 -43.3862 	 36.4753 	 77.8743
| 13> C 	 -42.1906 	 38.0152 	 75.7378
| 14> H 	 -43.0072 	 37.413 	 75.3565
| 15> H 	 -41.449 	 37.9266 	 74.9177
| 16> C 	 -42.9115 	 39.3406 	 75.6955
| 17> H 	 -43.3904 	 39.4441 	 74.751
| 18> H 	 -43.6947 	 39.2446 	 76.3868
| 19> C 	 -42.1108 	 40.585 	 76.0539
| 20> H 	 -42.6791 	 41.501 	 75.7583
| 21> H 	 -42.0564 	 40.5692 	 77.1697
| 22> H 	 -41.0609 	 40.7902 	 75.7457
| 23> S 	 -44.037 	 36.1678 	 80.7071
| 24> C 	 -44.1063 	 34.7518 	 81.7851
| 25> C 	 -42.9303 	 34.0228 	 81.8806
| 26> C 	 -42.0007 	 34.5789 	 80.9839
| 27> C 	 -42.4143 	 35.7468 	 80.3269
| 28> H 	 -42.8757 	 33.1358 	 82.519
| 29> C 	 -40.6398 	 33.954 	 80.7407
| 30> H 	 -40.065 	 34.246 	 81.62
| 31> H 	 -40.0532 	 34.4907 	 79.9336
| 32> C 	 -40.6848 	 32.4822 	 80.456
| 33> H 	 -41.4054 	 32.2477 	 79.6885
| 34> H 	 -41.1218 	 31.9708 	 81.2792
| 35> C 	 -39.3969 	 31.7541 	 80.0986
| 36> H 	 -38.7542 	 32.1926 	 79.3291
| 37> H 	 -39.7251 	 30.7868 	 79.7523
| 38> H 	 -38.7043 	 31.7244 	 80.9631
| 39> H 	 -39.4449 	 37.9934 	 76.9597
| 40> H 	 -45.0377 	 34.5108 	 82.2691
| 41> *
| 42>
| 43>                          ****END OF INPUT****

CARTESIAN COORDINATES (ANGSTROEM)
---------------------------------
  S    -40.149300   36.994200   79.121100
  C    -40.337800   37.719700   77.556500
  C    -41.651000   37.469500   77.056300
  C    -42.409800   36.797200   78.028700
  C    -41.814700   36.470500   79.193500
  H    -43.386200   36.475300   77.874300
  C    -42.190600   38.015200   75.737800
  H    -43.007200   37.413000   75.356500
  H    -41.449000   37.926600   74.917700
  C    -42.911500   39.340600   75.695500
  H    -43.390400   39.444100   74.751000
  H    -43.694700   39.244600   76.386800
  C    -42.110800   40.585000   76.053900
  H    -42.679100   41.501000   75.758300
  H    -42.056400   40.569200   77.169700
  H    -41.060900   40.790200   75.745700
  S    -44.037000   36.167800   80.707100
  C    -44.106300   34.751800   81.785100
  C    -42.930300   34.022800   81.880600
  C    -42.000700   34.578900   80.983900
  C    -42.414300   35.746800   80.326900
  H    -42.875700   33.135800   82.519000
  C    -40.639800   33.954000   80.740700
  H    -40.065000   34.246000   81.620000
  H    -40.053200   34.490700   79.933600
  C    -40.684800   32.482200   80.456000
  H    -41.405400   32.247700   79.688500
  H    -41.121800   31.970800   81.279200
  C    -39.396900   31.754100   80.098600
  H    -38.754200   32.192600   79.329100
  H    -39.725100   30.786800   79.752300
  H    -38.704300   31.724400   80.963100
  H    -39.444900   37.993400   76.959700
  H    -45.037700   34.510800   82.269100

 Total Charge           Charge          ....    0
 Multiplicity           Mult            ....    1
 Number of Electrons    NEL             ....  134
 Basis Dimension        Dim             ....  322

ORBITAL ENERGIES
----------------

  NO   OCC          E(Eh)            E(eV)
   0   2.0000     -88.969471     -2420.9824
   1   2.0000     -88.965650     -2420.8784
   2   2.0000     -10.325958      -280.9836
   3   2.0000     -10.325145      -280.9615
   4   2.0000     -10.321569      -280.8642
   5   2.0000     -10.318883      -280.7911
   6   2.0000     -10.305600      -280.4296
   7   2.0000     -10.304387      -280.3966
   8   2.0000     -10.300358      -280.2870
   9   2.0000     -10.290788      -280.0266
  10   2.0000     -10.287736      -279.9435
  11   2.0000     -10.282888      -279.8116
  12   2.0000     -10.278457      -279.6910
  13   2.0000     -10.277900      -279.6759
  14   2.0000     -10.277241      -279.6580
  15   2.0000     -10.276895      -279.6485
  16   2.0000      -8.084187      -219.9819
  17   2.0000      -8.080299      -219.8761
  18   2.0000      -6.042465      -164.4238
  19   2.0000      -6.038779      -164.3235
  20   2.0000      -6.038665      -164.3204
  21   2.0000      -6.035119      -164.2239
  22   2.0000      -6.034661      -164.2115
  23   2.0000      -6.031369      -164.1219
  24   2.0000      -1.010322       -27.4923
  25   2.0000      -0.987245       -26.8643
  26   2.0000      -0.913433       -24.8558
  27   2.0000      -0.911552       -24.8046
  28   2.0000      -0.872143       -23.7322
  29   2.0000      -0.853897       -23.2357
  30   2.0000      -0.846678       -23.0393
  31   2.0000      -0.815714       -22.1967
  32   2.0000      -0.784339       -21.3430
  33   2.0000      -0.770804       -20.9746
  34   2.0000      -0.705003       -19.1841
  35   2.0000      -0.702245       -19.1091
  36   2.0000      -0.687866       -18.7178
  37   2.0000      -0.665933       -18.1209
  38   2.0000      -0.641700       -17.4616
  39   2.0000      -0.623358       -16.9624
  40   2.0000      -0.599714       -16.3190
  41   2.0000      -0.572004       -15.5650
  42   2.0000      -0.559181       -15.2161
  43   2.0000      -0.547797       -14.9063
  44   2.0000      -0.539200       -14.6724
  45   2.0000      -0.536744       -14.6056
  46   2.0000      -0.522628       -14.2214
  47   2.0000      -0.513450       -13.9717
  48   2.0000      -0.501701       -13.6520
  49   2.0000      -0.490175       -13.3383
  50   2.0000      -0.483749       -13.1635
  51   2.0000      -0.482784       -13.1372
  52   2.0000      -0.472371       -12.8539
  53   2.0000      -0.467899       -12.7322
  54   2.0000      -0.460953       -12.5432
  55   2.0000      -0.450400       -12.2560
  56   2.0000      -0.445067       -12.1109
  57   2.0000      -0.439296       -11.9539
  58   2.0000      -0.427620       -11.6361
  59   2.0000      -0.424345       -11.5470
  60   2.0000      -0.421086       -11.4583
  61   2.0000      -0.408134       -11.1059
  62   2.0000      -0.403004       -10.9663
  63   2.0000      -0.349619        -9.5136
  64   2.0000      -0.340140        -9.2557
  65   2.0000      -0.326951        -8.8968
  66   2.0000      -0.288339        -7.8461
  67   0.0000       0.027531         0.7492
  68   0.0000       0.071050         1.9334
  69   0.0000       0.108285         2.9466
  70   0.0000       0.118710         3.2303
  71   0.0000       0.138096         3.7578

MULLIKEN ATOMIC CHARGES
-----------------------
   0 S :    0.104899
   1 C :   -0.136883
   2 C :   -0.076891
   3 C :    0.022820
   4 C :   -0.132314
   5 H :   -0.019434
   6 C :    0.055498
   7 H :    0.012542
   8 H :    0.026509
   9 C :   -0.017211
  10 H :    0.020332
  11 H :    0.010481
  12 C :   -0.090548
  13 H :    0.034353
  14 H :    0.040315
  15 H :    0.035724
  16 S :    0.106804
  17 C :   -0.107547
  18 C :   -0.021969
  19 C :   -0.047163
  20 C :   -0.127282
  21 H :    0.037783
  22 C :    0.070620
  23 H :    0.034019
  24 H :    0.023825
  25 C :   -0.075130
  26 H :    0.023445
  27 H :    0.009575
  28 C :   -0.034306
  29 H :    0.029754
  30 H :    0.032947
  31 H :    0.029272
  32 H :    0.073309
  33 H :    0.051852
Sum of atomic charges:    0.0000000

LOEWDIN ATOMIC CHARGES
----------------------
   0 S :    0.425967
   1 C :   -0.208993
   2 C :   -0.060647
   3 C :   -0.069100
   4 C :   -0.192634
   5 H :    0.016702
   6 C :   -0.035520
   7 H :    0.033042
   8 H :    0.030586
   9 C :   -0.034945
  10 H :    0.021225
  11 H :    0.021481
  12 C :   -0.082098
  13 H :    0.029396
  14 H :    0.031950
  15 H :    0.026004
  16 S :    0.416277
  17 C :   -0.164526
  18 C :   -0.068512
  19 C :   -0.050182
  20 C :   -0.212078
  21 H :    0.042070
  22 C :   -0.043327
  23 H :    0.033483
  24 H :    0.022723
  25 C :   -0.045493
  26 H :    0.026389
  27 H :    0.018102
  28 C :   -0.062595
  29 H :    0.024583
  30 H :    0.027898
  31 H :    0.026328
  32 H :    0.035635
  33 H :    0.020808

  Mayer bond orders larger than 0.100000
B(  0-S ,  1-C ) :   1.1708 B(  0-S ,  4-C ) :   1.1502 B(  1-C ,  2-C ) :   1.5489
B(  1-C ,  4-C ) :   0.1019 B(  1-C , 32-H ) :   0.9628 B(  2-C ,  3-C ) :   1.2811
B(  2-C ,  6-C ) :   1.0355 B(  3-C ,  4-C ) :   1.5647 B(  3-C ,  5-H ) :   1.0015
B(  4-C , 20-C ) :   1.0129 B(  6-C ,  7-H ) :   0.9356 B(  6-C ,  8-H ) :   0.9419
B(  6-C ,  9-C ) :   1.0776 B(  9-C , 10-H ) :   0.9550 B(  9-C , 11-H ) :   0.9500
B(  9-C , 12-C ) :   1.0700 B( 12-C , 13-H ) :   0.9741 B( 12-C , 14-H ) :   0.9754
B( 12-C , 15-H ) :   0.9799 B( 16-S , 17-C ) :   1.1731 B( 16-S , 20-C ) :   1.1409
B( 17-C , 18-C ) :   1.5872 B( 17-C , 33-H ) :   0.9679 B( 18-C , 19-C ) :   1.2480
B( 18-C , 21-H ) :   0.9914 B( 19-C , 20-C ) :   1.5789 B( 19-C , 22-C ) :   1.0325
B( 22-C , 23-H ) :   0.9297 B( 22-C , 24-H ) :   0.9279 B( 22-C , 25-C ) :   1.0604
B( 25-C , 26-H ) :   0.9576 B( 25-C , 27-H ) :   0.9453 B( 25-C , 28-C ) :   1.0924
B( 28-C , 29-H ) :   0.9749 B( 28-C , 30-H ) :   0.9739 B( 28-C , 31-H ) :   0.9732

Dispersion correction           -0.013970492
FINAL SINGLE POINT ENERGY     -1339.873923573575

DIPOLE MOMENT
-------------
                                X             Y             Z
Electronic contribution:     -5.65716       3.04819      11.90958
Nuclear contribution   :      5.50972      -3.44943     -12.13040
                        -----------------------------------------
Total Dipole Moment    :     -0.14743      -0.40125      -0.22082
                        -----------------------------------------
Magnitude (a.u.)       :      0.48114
Magnitude (Debye)      :      1.22296

Rotational constants in cm-1:     0.021768     0.007819     0.006362
Rotational constants in MHz :   652.586224   234.404446   190.724935

                             ****ORCA TERMINATED NORMALLY****
TOTAL RUN TIME: 0 days 0 hours 0 minutes 29 seconds 112 msec
