                         Program Version 4.2.1 -  RELEASE  -
|  1> ! wB97X-D3 SP def2-SVP
|  2> %pal
|  3> nprocs 16
|  4> end
|  5>
|  6> * xyz 0 1
|  7> S 	 -1.75328 	 79.4059 	 47.6167
|  8> C 	 -1.34882 	 80.6926 	 48.7238
|  9> C 	 -0.592332 	 80.2302 	 49.7952
| 10> C 	 -0.375565 	 78.7862 	 49.7177
| 11> C 	 -0.970868 	 78.2361 	 48.6609
| 12> H 	 0.0813687 	 78.1266 	 50.4026
| 13> C 	 -0.149179 	 81.144 	 50.924
| 14> H 	 0.0425524 	 80.4679 	 51.7796
| 15> H 	 -1.0584 	 81.7251 	 51.1822
| 16> C 	 0.961554 	 82.1318 	 50.6727
| 17> H 	 1.56839 	 81.8067 	 49.7403
| 18> H 	 0.502249 	 83.0516 	 50.3818
| 19> C 	 1.85122 	 82.2469 	 51.9334
| 20> H 	 2.2611 	 81.274 	 52.154
| 21> H 	 2.7284 	 82.9031 	 51.7442
| 22> H 	 1.28747 	 82.6228 	 52.7901
| 23> S 	 0.637224 	 75.9834 	 48.3115
| 24> C 	 -0.116001 	 74.3968 	 47.7502
| 25> C 	 -1.49324 	 74.5557 	 47.6662
| 26> C 	 -1.96457 	 75.8534 	 48.0583
| 27> C 	 -0.920729 	 76.768 	 48.4228
| 28> H 	 -2.16021 	 73.764 	 47.475
| 29> C 	 -3.40143 	 76.1644 	 47.8185
| 30> H 	 -3.66574 	 77.0075 	 48.4123
| 31> H 	 -3.95313 	 75.2721 	 48.159
| 32> C 	 -3.74567 	 76.456 	 46.3432
| 33> H 	 -3.34217 	 75.6161 	 45.7706
| 34> H 	 -3.22913 	 77.351 	 46.1488
| 35> C 	 -5.25642 	 76.5699 	 46.0262
| 36> H 	 -5.77325 	 75.7408 	 46.3937
| 37> H 	 -5.44828 	 76.458 	 44.9878
| 38> H 	 -5.75328 	 77.464 	 46.4248
| 39> H 	 -1.59054 	 81.7179 	 48.5163
| 40> H 	 0.353397 	 73.4612 	 47.6958
| 41> *
| 42>
| 43>                          ****END OF INPUT****

CARTESIAN COORDINATES (ANGSTROEM)
---------------------------------
  S     -1.753280   79.405900   47.616700
  C     -1.348820   80.692600   48.723800
  C     -0.592332   80.230200   49.795200
  C     -0.375565   78.786200   49.717700
  C     -0.970868   78.236100   48.660900
  H      0.081369   78.126600   50.402600
  C     -0.149179   81.144000   50.924000
  H      0.042552   80.467900   51.779600
  H     -1.058400   81.725100   51.182200
  C      0.961554   82.131800   50.672700
  H      1.568390   81.806700   49.740300
  H      0.502249   83.051600   50.381800
  C      1.851220   82.246900   51.933400
  H      2.261100   81.274000   52.154000
  H      2.728400   82.903100   51.744200
  H      1.287470   82.622800   52.790100
  S      0.637224   75.983400   48.311500
  C     -0.116001   74.396800   47.750200
  C     -1.493240   74.555700   47.666200
  C     -1.964570   75.853400   48.058300
  C     -0.920729   76.768000   48.422800
  H     -2.160210   73.764000   47.475000
  C     -3.401430   76.164400   47.818500
  H     -3.665740   77.007500   48.412300
  H     -3.953130   75.272100   48.159000
  C     -3.745670   76.456000   46.343200
  H     -3.342170   75.616100   45.770600
  H     -3.229130   77.351000   46.148800
  C     -5.256420   76.569900   46.026200
  H     -5.773250   75.740800   46.393700
  H     -5.448280   76.458000   44.987800
  H     -5.753280   77.464000   46.424800
  H     -1.590540   81.717900   48.516300
  H      0.353397   73.461200   47.695800

 Total Charge           Charge          ....    0
 Multiplicity           Mult            ....    1
 Number of Electrons    NEL             ....  134
 Basis Dimension        Dim             ....  322

ORBITAL ENERGIES
----------------

  NO   OCC          E(Eh)            E(eV)
   0   2.0000     -88.968870     -2420.9660
   1   2.0000     -88.968325     -2420.9512
   2   2.0000     -10.332902      -281.1726
   3   2.0000     -10.327212      -281.0177
   4   2.0000     -10.322444      -280.8880
   5   2.0000     -10.314692      -280.6770
   6   2.0000     -10.306588      -280.4565
   7   2.0000     -10.302463      -280.3443
   8   2.0000     -10.293909      -280.1115
   9   2.0000     -10.291426      -280.0439
  10   2.0000     -10.290511      -280.0190
  11   2.0000     -10.289880      -280.0019
  12   2.0000     -10.282433      -279.7992
  13   2.0000     -10.282221      -279.7935
  14   2.0000     -10.280365      -279.7430
  15   2.0000     -10.269076      -279.4358
  16   2.0000      -8.083199      -219.9550
  17   2.0000      -8.081255      -219.9021
  18   2.0000      -6.041842      -164.4069
  19   2.0000      -6.040011      -164.3571
  20   2.0000      -6.037760      -164.2958
  21   2.0000      -6.035946      -164.2464
  22   2.0000      -6.033870      -164.1899
  23   2.0000      -6.031921      -164.1369
  24   2.0000      -1.004182       -27.3252
  25   2.0000      -0.976171       -26.5630
  26   2.0000      -0.912606       -24.8333
  27   2.0000      -0.906626       -24.6705
  28   2.0000      -0.871482       -23.7142
  29   2.0000      -0.849596       -23.1187
  30   2.0000      -0.844085       -22.9687
  31   2.0000      -0.819556       -22.3013
  32   2.0000      -0.779070       -21.1996
  33   2.0000      -0.766007       -20.8441
  34   2.0000      -0.704446       -19.1690
  35   2.0000      -0.703734       -19.1496
  36   2.0000      -0.693397       -18.8683
  37   2.0000      -0.668794       -18.1988
  38   2.0000      -0.646723       -17.5982
  39   2.0000      -0.611416       -16.6375
  40   2.0000      -0.591567       -16.0974
  41   2.0000      -0.569986       -15.5101
  42   2.0000      -0.567260       -15.4359
  43   2.0000      -0.562559       -15.3080
  44   2.0000      -0.526419       -14.3246
  45   2.0000      -0.521907       -14.2018
  46   2.0000      -0.518033       -14.0964
  47   2.0000      -0.511238       -13.9115
  48   2.0000      -0.507435       -13.8080
  49   2.0000      -0.505128       -13.7452
  50   2.0000      -0.486555       -13.2398
  51   2.0000      -0.475728       -12.9452
  52   2.0000      -0.474260       -12.9053
  53   2.0000      -0.462831       -12.5943
  54   2.0000      -0.456119       -12.4116
  55   2.0000      -0.451493       -12.2857
  56   2.0000      -0.448684       -12.2093
  57   2.0000      -0.440567       -11.9884
  58   2.0000      -0.428231       -11.6528
  59   2.0000      -0.424015       -11.5380
  60   2.0000      -0.419037       -11.4026
  61   2.0000      -0.416150       -11.3240
  62   2.0000      -0.413458       -11.2508
  63   2.0000      -0.350685        -9.5426
  64   2.0000      -0.334947        -9.1144
  65   2.0000      -0.322156        -8.7663
  66   2.0000      -0.294829        -8.0227
  67   0.0000       0.028858         0.7853
  68   0.0000       0.069222         1.8836
  69   0.0000       0.102116         2.7787
  70   0.0000       0.111363         3.0304
  71   0.0000       0.127314         3.4644

MULLIKEN ATOMIC CHARGES
-----------------------
   0 S :    0.103287
   1 C :   -0.115329
   2 C :   -0.084704
   3 C :    0.019022
   4 C :   -0.109970
   5 H :    0.001147
   6 C :    0.046235
   7 H :    0.024908
   8 H :    0.037860
   9 C :   -0.064966
  10 H :    0.048884
  11 H :    0.021787
  12 C :   -0.065132
  13 H :    0.034070
  14 H :    0.039192
  15 H :    0.041034
  16 S :    0.092578
  17 C :   -0.077313
  18 C :   -0.011789
  19 C :   -0.063543
  20 C :   -0.158884
  21 H :    0.010503
  22 C :    0.053219
  23 H :    0.016292
  24 H :    0.018320
  25 C :   -0.049003
  26 H :    0.022718
  27 H :    0.014235
  28 C :    0.002346
  29 H :    0.002074
  30 H :    0.022087
  31 H :    0.037363
  32 H :    0.045962
  33 H :    0.045511
Sum of atomic charges:   -0.0000000

LOEWDIN ATOMIC CHARGES
----------------------
   0 S :    0.407226
   1 C :   -0.193569
   2 C :   -0.055338
   3 C :   -0.060044
   4 C :   -0.189575
   5 H :    0.027118
   6 C :   -0.041269
   7 H :    0.030618
   8 H :    0.038838
   9 C :   -0.046488
  10 H :    0.034615
  11 H :    0.018141
  12 C :   -0.062879
  13 H :    0.023529
  14 H :    0.029438
  15 H :    0.026899
  16 S :    0.378799
  17 C :   -0.154600
  18 C :   -0.057623
  19 C :   -0.058077
  20 C :   -0.196508
  21 H :    0.025349
  22 C :   -0.036211
  23 H :    0.021056
  24 H :    0.029443
  25 C :   -0.028288
  26 H :    0.024574
  27 H :    0.009326
  28 C :   -0.060746
  29 H :    0.016569
  30 H :    0.024819
  31 H :    0.028965
  32 H :    0.024924
  33 H :    0.020970

  Mayer bond orders larger than 0.100000
B(  0-S ,  1-C ) :   1.1283 B(  0-S ,  4-C ) :   1.1310 B(  1-C ,  2-C ) :   1.6257
B(  1-C , 32-H ) :   0.9746 B(  2-C ,  3-C ) :   1.1960 B(  2-C ,  6-C ) :   1.0234
B(  3-C ,  4-C ) :   1.6089 B(  3-C ,  5-H ) :   1.0065 B(  4-C , 20-C ) :   1.0199
B(  6-C ,  7-H ) :   0.9515 B(  6-C ,  8-H ) :   0.9374 B(  6-C ,  9-C ) :   1.0344
B(  9-C , 10-H ) :   0.9652 B(  9-C , 11-H ) :   0.9530 B(  9-C , 12-C ) :   1.0786
B( 12-C , 13-H ) :   0.9784 B( 12-C , 14-H ) :   0.9753 B( 12-C , 15-H ) :   0.9754
B( 16-S , 17-C ) :   1.1293 B( 16-S , 20-C ) :   1.1419 B( 17-C , 18-C ) :   1.6037
B( 17-C , 20-C ) :   0.1022 B( 17-C , 33-H ) :   0.9733 B( 18-C , 19-C ) :   1.2536
B( 18-C , 21-H ) :   0.9861 B( 19-C , 20-C ) :   1.5561 B( 19-C , 22-C ) :   1.0766
B( 22-C , 23-H ) :   0.9272 B( 22-C , 24-H ) :   0.9262 B( 22-C , 25-C ) :   1.0634
B( 25-C , 26-H ) :   0.9554 B( 25-C , 27-H ) :   0.9511 B( 25-C , 28-C ) :   1.0847
B( 28-C , 29-H ) :   0.9692 B( 28-C , 30-H ) :   0.9723 B( 28-C , 31-H ) :   0.9754

Dispersion correction           -0.013982900
FINAL SINGLE POINT ENERGY     -1339.875513612416

DIPOLE MOMENT
-------------
                                X             Y             Z
Electronic contribution:      6.82176      -9.72763      -5.49719
Nuclear contribution   :     -7.05091       9.82940       5.73590
                        -----------------------------------------
Total Dipole Moment    :     -0.22915       0.10177       0.23871
                        -----------------------------------------
Magnitude (a.u.)       :      0.34619
Magnitude (Debye)      :      0.87995

Rotational constants in cm-1:     0.022528     0.007431     0.005899
Rotational constants in MHz :   675.382313   222.764871   176.852304

                             ****ORCA TERMINATED NORMALLY****
TOTAL RUN TIME: 0 days 0 hours 0 minutes 31 seconds 314 msec
