                         Program Version 4.2.1 -  RELEASE  -
|  1> ! wB97X-D3 SP def2-SVP
|  2> %pal
|  3> nprocs 16
|  4> end
|  5>
|  6> * xyz 0 1
|  7> S 	 -67.7473 	 46.3196 	 125.703
|  8> C 	 -68.7238 	 46.8561 	 127.026
|  9> C 	 -68.8837 	 45.9408 	 127.99
| 10> C 	 -68.2667 	 44.6365 	 127.695
| 11> C 	 -67.5303 	 44.7618 	 126.525
| 12> H 	 -68.3316 	 43.7122 	 128.233
| 13> C 	 -69.6919 	 46.1495 	 129.263
| 14> H 	 -69.0768 	 46.7197 	 129.991
| 15> H 	 -69.8805 	 45.2237 	 129.797
| 16> C 	 -70.9811 	 46.9473 	 129.136
| 17> H 	 -70.6914 	 47.8931 	 128.618
| 18> H 	 -71.6591 	 46.4012 	 128.521
| 19> C 	 -71.7143 	 47.0564 	 130.507
| 20> H 	 -72.6378 	 47.4889 	 130.262
| 21> H 	 -71.7221 	 46.0347 	 130.962
| 22> H 	 -71.1739 	 47.7649 	 131.077
| 23> S 	 -65.0357 	 43.8713 	 126.012
| 24> C 	 -64.817 	 42.2262 	 125.401
| 25> C 	 -66.0395 	 41.5619 	 125.399
| 26> C 	 -67.2042 	 42.3708 	 125.73
| 27> C 	 -66.7971 	 43.6933 	 125.962
| 28> H 	 -66.0412 	 40.456 	 125.274
| 29> C 	 -68.6061 	 41.8173 	 125.895
| 30> H 	 -69.3685 	 42.462 	 126.368
| 31> H 	 -68.5012 	 40.9171 	 126.501
| 32> C 	 -69.2951 	 41.3592 	 124.581
| 33> H 	 -68.6178 	 40.6577 	 124.083
| 34> H 	 -69.3984 	 42.2205 	 123.936
| 35> C 	 -70.6786 	 40.7733 	 124.94
| 36> H 	 -71.3192 	 40.6535 	 124.06
| 37> H 	 -71.2636 	 41.5217 	 125.511
| 38> H 	 -70.6665 	 39.9006 	 125.545
| 39> H 	 -69.1917 	 47.8965 	 127.005
| 40> H 	 -63.8687 	 41.8466 	 125.165
| 41> *
| 42>
| 43>                          ****END OF INPUT****

CARTESIAN COORDINATES (ANGSTROEM)
---------------------------------
  S    -67.747300   46.319600  125.703000
  C    -68.723800   46.856100  127.026000
  C    -68.883700   45.940800  127.990000
  C    -68.266700   44.636500  127.695000
  C    -67.530300   44.761800  126.525000
  H    -68.331600   43.712200  128.233000
  C    -69.691900   46.149500  129.263000
  H    -69.076800   46.719700  129.991000
  H    -69.880500   45.223700  129.797000
  C    -70.981100   46.947300  129.136000
  H    -70.691400   47.893100  128.618000
  H    -71.659100   46.401200  128.521000
  C    -71.714300   47.056400  130.507000
  H    -72.637800   47.488900  130.262000
  H    -71.722100   46.034700  130.962000
  H    -71.173900   47.764900  131.077000
  S    -65.035700   43.871300  126.012000
  C    -64.817000   42.226200  125.401000
  C    -66.039500   41.561900  125.399000
  C    -67.204200   42.370800  125.730000
  C    -66.797100   43.693300  125.962000
  H    -66.041200   40.456000  125.274000
  C    -68.606100   41.817300  125.895000
  H    -69.368500   42.462000  126.368000
  H    -68.501200   40.917100  126.501000
  C    -69.295100   41.359200  124.581000
  H    -68.617800   40.657700  124.083000
  H    -69.398400   42.220500  123.936000
  C    -70.678600   40.773300  124.940000
  H    -71.319200   40.653500  124.060000
  H    -71.263600   41.521700  125.511000
  H    -70.666500   39.900600  125.545000
  H    -69.191700   47.896500  127.005000
  H    -63.868700   41.846600  125.165000

 Total Charge           Charge          ....    0
 Multiplicity           Mult            ....    1
 Number of Electrons    NEL             ....  134
 Basis Dimension        Dim             ....  322

ORBITAL ENERGIES
----------------

  NO   OCC          E(Eh)            E(eV)
   0   2.0000     -88.964571     -2420.8490
   1   2.0000     -88.961534     -2420.7664
   2   2.0000     -10.323939      -280.9287
   3   2.0000     -10.321717      -280.8682
   4   2.0000     -10.317361      -280.7497
   5   2.0000     -10.312435      -280.6156
   6   2.0000     -10.309116      -280.5253
   7   2.0000     -10.301496      -280.3180
   8   2.0000     -10.299860      -280.2734
   9   2.0000     -10.298007      -280.2230
  10   2.0000     -10.294365      -280.1239
  11   2.0000     -10.288739      -279.9708
  12   2.0000     -10.286482      -279.9094
  13   2.0000     -10.284665      -279.8600
  14   2.0000     -10.279119      -279.7091
  15   2.0000     -10.277825      -279.6738
  16   2.0000      -8.079554      -219.8558
  17   2.0000      -8.075994      -219.7590
  18   2.0000      -6.038087      -164.3047
  19   2.0000      -6.034506      -164.2073
  20   2.0000      -6.034177      -164.1983
  21   2.0000      -6.030654      -164.1024
  22   2.0000      -6.030130      -164.0882
  23   2.0000      -6.026645      -163.9934
  24   2.0000      -1.004201       -27.3257
  25   2.0000      -0.977910       -26.6103
  26   2.0000      -0.912255       -24.8237
  27   2.0000      -0.907758       -24.7013
  28   2.0000      -0.872878       -23.7522
  29   2.0000      -0.850651       -23.1474
  30   2.0000      -0.844165       -22.9709
  31   2.0000      -0.809193       -22.0193
  32   2.0000      -0.780544       -21.2397
  33   2.0000      -0.768852       -20.9215
  34   2.0000      -0.707256       -19.2454
  35   2.0000      -0.701931       -19.1005
  36   2.0000      -0.691977       -18.8297
  37   2.0000      -0.660803       -17.9814
  38   2.0000      -0.640993       -17.4423
  39   2.0000      -0.612154       -16.6576
  40   2.0000      -0.599262       -16.3067
  41   2.0000      -0.576536       -15.6883
  42   2.0000      -0.566925       -15.4268
  43   2.0000      -0.554133       -15.0787
  44   2.0000      -0.529887       -14.4190
  45   2.0000      -0.519951       -14.1486
  46   2.0000      -0.516681       -14.0596
  47   2.0000      -0.513049       -13.9608
  48   2.0000      -0.505890       -13.7660
  49   2.0000      -0.496855       -13.5201
  50   2.0000      -0.488496       -13.2927
  51   2.0000      -0.482046       -13.1171
  52   2.0000      -0.471949       -12.8424
  53   2.0000      -0.459007       -12.4902
  54   2.0000      -0.456313       -12.4169
  55   2.0000      -0.450315       -12.2537
  56   2.0000      -0.448396       -12.2015
  57   2.0000      -0.433883       -11.8065
  58   2.0000      -0.431897       -11.7525
  59   2.0000      -0.429621       -11.6906
  60   2.0000      -0.426760       -11.6127
  61   2.0000      -0.417537       -11.3618
  62   2.0000      -0.412002       -11.2111
  63   2.0000      -0.339523        -9.2389
  64   2.0000      -0.326957        -8.8970
  65   2.0000      -0.324584        -8.8324
  66   2.0000      -0.296946        -8.0803
  67   0.0000       0.034561         0.9404
  68   0.0000       0.065477         1.7817
  69   0.0000       0.104900         2.8545
  70   0.0000       0.118219         3.2169
  71   0.0000       0.128898         3.5075

MULLIKEN ATOMIC CHARGES
-----------------------
   0 S :    0.117113
   1 C :   -0.169936
   2 C :   -0.041386
   3 C :    0.037540
   4 C :   -0.167656
   5 H :    0.022720
   6 C :    0.052194
   7 H :    0.033467
   8 H :    0.005010
   9 C :   -0.120440
  10 H :    0.032383
  11 H :    0.023667
  12 C :   -0.004275
  13 H :    0.027869
  14 H :    0.045395
  15 H :    0.023168
  16 S :    0.095147
  17 C :   -0.077196
  18 C :   -0.049032
  19 C :    0.006921
  20 C :   -0.169326
  21 H :    0.034486
  22 C :    0.023354
  23 H :    0.031069
  24 H :    0.026735
  25 C :   -0.068534
  26 H :    0.029046
  27 H :    0.034132
  28 C :   -0.036555
  29 H :    0.035906
  30 H :    0.020380
  31 H :    0.028540
  32 H :    0.075781
  33 H :    0.042312
Sum of atomic charges:    0.0000000

LOEWDIN ATOMIC CHARGES
----------------------
   0 S :    0.399068
   1 C :   -0.213828
   2 C :   -0.065002
   3 C :   -0.043932
   4 C :   -0.192568
   5 H :    0.033082
   6 C :   -0.039657
   7 H :    0.034603
   8 H :    0.021896
   9 C :   -0.039561
  10 H :    0.023314
  11 H :    0.016494
  12 C :   -0.051704
  13 H :    0.021572
  14 H :    0.035023
  15 H :    0.019175
  16 S :    0.389474
  17 C :   -0.171164
  18 C :   -0.072902
  19 C :   -0.051260
  20 C :   -0.197416
  21 H :    0.035623
  22 C :   -0.035656
  23 H :    0.031579
  24 H :    0.031629
  25 C :   -0.033285
  26 H :    0.021093
  27 H :    0.025130
  28 C :   -0.067025
  29 H :    0.029040
  30 H :    0.027809
  31 H :    0.019843
  32 H :    0.041279
  33 H :    0.018232

  Mayer bond orders larger than 0.100000
B(  0-S ,  1-C ) :   1.1163 B(  0-S ,  4-C ) :   1.1416 B(  1-C ,  2-C ) :   1.6669
B(  1-C , 32-H ) :   0.9541 B(  2-C ,  3-C ) :   1.1894 B(  2-C ,  6-C ) :   1.0153
B(  3-C ,  4-C ) :   1.5982 B(  3-C ,  5-H ) :   0.9998 B(  4-C , 20-C ) :   1.0428
B(  6-C ,  7-H ) :   0.9333 B(  6-C ,  8-H ) :   0.9431 B(  6-C ,  9-C ) :   1.0684
B(  9-C , 10-H ) :   0.9493 B(  9-C , 11-H ) :   0.9624 B(  9-C , 12-C ) :   1.0752
B( 12-C , 13-H ) :   0.9744 B( 12-C , 14-H ) :   0.9725 B( 12-C , 15-H ) :   0.9772
B( 16-S , 17-C ) :   1.1426 B( 16-S , 20-C ) :   1.1489 B( 17-C , 18-C ) :   1.6142
B( 17-C , 20-C ) :   0.1016 B( 17-C , 33-H ) :   0.9797 B( 18-C , 19-C ) :   1.2188
B( 18-C , 21-H ) :   0.9800 B( 19-C , 20-C ) :   1.5916 B( 19-C , 22-C ) :   1.0400
B( 22-C , 23-H ) :   0.9414 B( 22-C , 24-H ) :   0.9338 B( 22-C , 25-C ) :   1.0580
B( 25-C , 26-H ) :   0.9581 B( 25-C , 27-H ) :   0.9556 B( 25-C , 28-C ) :   1.0802
B( 28-C , 29-H ) :   0.9734 B( 28-C , 30-H ) :   0.9698 B( 28-C , 31-H ) :   0.9763

Dispersion correction           -0.013547828
FINAL SINGLE POINT ENERGY     -1339.875477972699

DIPOLE MOMENT
-------------
                                X             Y             Z
Electronic contribution:     26.24605       6.49267     -10.45434
Nuclear contribution   :    -26.78835      -6.84585      10.83637
                        -----------------------------------------
Total Dipole Moment    :     -0.54230      -0.35318       0.38203
                        -----------------------------------------
Magnitude (a.u.)       :      0.75151
Magnitude (Debye)      :      1.91019

Rotational constants in cm-1:     0.018060     0.007995     0.006324
Rotational constants in MHz :   541.423879   239.674840   189.582778

                             ****ORCA TERMINATED NORMALLY****
TOTAL RUN TIME: 0 days 0 hours 0 minutes 32 seconds 999 msec
