                         Program Version 4.2.1 -  RELEASE  -
|  1> ! wB97X-D3 SP def2-SVP
|  2> %pal
|  3> nprocs 16
|  4> end
|  5>
|  6> * xyz 0 1
|  7> S 	 10.7654 	 -3.14353 	 88.2741
|  8> C 	 10.0594 	 -2.04146 	 89.4364
|  9> C 	 8.88132 	 -1.49123 	 88.9093
| 10> C 	 8.52001 	 -2.03808 	 87.6502
| 11> C 	 9.38326 	 -3.06471 	 87.2219
| 12> H 	 7.60635 	 -1.72812 	 87.155
| 13> C 	 8.15061 	 -0.288387 	 89.5003
| 14> H 	 8.23167 	 0.502376 	 88.8007
| 15> H 	 8.63501 	 0.188748 	 90.3619
| 16> C 	 6.68588 	 -0.546382 	 89.9272
| 17> H 	 6.13171 	 0.425642 	 90.0136
| 18> H 	 6.17432 	 -1.11258 	 89.1402
| 19> C 	 6.62098 	 -1.33525 	 91.2191
| 20> H 	 5.60579 	 -1.71274 	 91.1637
| 21> H 	 7.20874 	 -2.25029 	 91.2019
| 22> H 	 6.9036 	 -0.797741 	 92.1555
| 23> S 	 10.3647 	 -4.30657 	 84.8692
| 24> C 	 9.27808 	 -5.36644 	 84.0101
| 25> C 	 8.07702 	 -5.57223 	 84.6583
| 26> C 	 7.99037 	 -4.84266 	 85.8706
| 27> C 	 9.13992 	 -4.10393 	 86.1853
| 28> H 	 7.35354 	 -6.31106 	 84.3339
| 29> C 	 6.73928 	 -4.85684 	 86.7221
| 30> H 	 5.95117 	 -4.63557 	 86.0512
| 31> H 	 6.84244 	 -4.06949 	 87.4515
| 32> C 	 6.3767 	 -6.05307 	 87.5672
| 33> H 	 7.23731 	 -6.55059 	 87.9623
| 34> H 	 6.07985 	 -6.82223 	 86.9385
| 35> C 	 5.35951 	 -5.81864 	 88.6565
| 36> H 	 5.91132 	 -5.17265 	 89.3169
| 37> H 	 4.8955 	 -6.70195 	 89.1884
| 38> H 	 4.5405 	 -5.23136 	 88.2612
| 39> H 	 10.4554 	 -1.73766 	 90.372
| 40> H 	 9.44757 	 -5.85446 	 83.0882
| 41> *
| 42>
| 43>                          ****END OF INPUT****

CARTESIAN COORDINATES (ANGSTROEM)
---------------------------------
  S     10.765400   -3.143530   88.274100
  C     10.059400   -2.041460   89.436400
  C      8.881320   -1.491230   88.909300
  C      8.520010   -2.038080   87.650200
  C      9.383260   -3.064710   87.221900
  H      7.606350   -1.728120   87.155000
  C      8.150610   -0.288387   89.500300
  H      8.231670    0.502376   88.800700
  H      8.635010    0.188748   90.361900
  C      6.685880   -0.546382   89.927200
  H      6.131710    0.425642   90.013600
  H      6.174320   -1.112580   89.140200
  C      6.620980   -1.335250   91.219100
  H      5.605790   -1.712740   91.163700
  H      7.208740   -2.250290   91.201900
  H      6.903600   -0.797741   92.155500
  S     10.364700   -4.306570   84.869200
  C      9.278080   -5.366440   84.010100
  C      8.077020   -5.572230   84.658300
  C      7.990370   -4.842660   85.870600
  C      9.139920   -4.103930   86.185300
  H      7.353540   -6.311060   84.333900
  C      6.739280   -4.856840   86.722100
  H      5.951170   -4.635570   86.051200
  H      6.842440   -4.069490   87.451500
  C      6.376700   -6.053070   87.567200
  H      7.237310   -6.550590   87.962300
  H      6.079850   -6.822230   86.938500
  C      5.359510   -5.818640   88.656500
  H      5.911320   -5.172650   89.316900
  H      4.895500   -6.701950   89.188400
  H      4.540500   -5.231360   88.261200
  H     10.455400   -1.737660   90.372000
  H      9.447570   -5.854460   83.088200

 Total Charge           Charge          ....    0
 Multiplicity           Mult            ....    1
 Number of Electrons    NEL             ....  134
 Basis Dimension        Dim             ....  322

ORBITAL ENERGIES
----------------

  NO   OCC          E(Eh)            E(eV)
   0   2.0000     -88.968701     -2420.9614
   1   2.0000     -88.968374     -2420.9525
   2   2.0000     -10.336219      -281.2628
   3   2.0000     -10.334593      -281.2186
   4   2.0000     -10.317958      -280.7659
   5   2.0000     -10.315241      -280.6920
   6   2.0000     -10.306430      -280.4522
   7   2.0000     -10.303127      -280.3623
   8   2.0000     -10.298143      -280.2267
   9   2.0000     -10.293551      -280.1018
  10   2.0000     -10.290906      -280.0298
  11   2.0000     -10.289070      -279.9798
  12   2.0000     -10.283110      -279.8176
  13   2.0000     -10.278373      -279.6887
  14   2.0000     -10.276519      -279.6383
  15   2.0000     -10.271120      -279.4914
  16   2.0000      -8.083441      -219.9616
  17   2.0000      -8.082266      -219.9296
  18   2.0000      -6.041918      -164.4090
  19   2.0000      -6.040776      -164.3779
  20   2.0000      -6.037829      -164.2977
  21   2.0000      -6.036931      -164.2732
  22   2.0000      -6.034351      -164.2030
  23   2.0000      -6.033042      -164.1674
  24   2.0000      -1.002462       -27.2784
  25   2.0000      -0.982694       -26.7405
  26   2.0000      -0.915482       -24.9115
  27   2.0000      -0.911457       -24.8020
  28   2.0000      -0.865609       -23.5544
  29   2.0000      -0.855473       -23.2786
  30   2.0000      -0.846656       -23.0387
  31   2.0000      -0.813442       -22.1349
  32   2.0000      -0.784890       -21.3580
  33   2.0000      -0.773407       -21.0455
  34   2.0000      -0.710019       -19.3206
  35   2.0000      -0.701570       -19.0907
  36   2.0000      -0.692798       -18.8520
  37   2.0000      -0.660199       -17.9649
  38   2.0000      -0.640072       -17.4172
  39   2.0000      -0.626210       -17.0400
  40   2.0000      -0.599118       -16.3028
  41   2.0000      -0.574619       -15.6362
  42   2.0000      -0.569072       -15.4852
  43   2.0000      -0.551151       -14.9976
  44   2.0000      -0.539340       -14.6762
  45   2.0000      -0.523905       -14.2562
  46   2.0000      -0.516021       -14.0416
  47   2.0000      -0.515531       -14.0283
  48   2.0000      -0.506111       -13.7720
  49   2.0000      -0.499749       -13.5989
  50   2.0000      -0.489918       -13.3313
  51   2.0000      -0.485392       -13.2082
  52   2.0000      -0.471645       -12.8341
  53   2.0000      -0.462723       -12.5913
  54   2.0000      -0.461072       -12.5464
  55   2.0000      -0.454330       -12.3629
  56   2.0000      -0.445744       -12.1293
  57   2.0000      -0.433331       -11.7915
  58   2.0000      -0.427834       -11.6420
  59   2.0000      -0.426551       -11.6071
  60   2.0000      -0.419436       -11.4134
  61   2.0000      -0.415775       -11.3138
  62   2.0000      -0.408208       -11.1079
  63   2.0000      -0.344198        -9.3661
  64   2.0000      -0.333705        -9.0806
  65   2.0000      -0.332177        -9.0390
  66   2.0000      -0.290976        -7.9179
  67   0.0000       0.026257         0.7145
  68   0.0000       0.062314         1.6957
  69   0.0000       0.109224         2.9721
  70   0.0000       0.119306         3.2465
  71   0.0000       0.121866         3.3161

MULLIKEN ATOMIC CHARGES
-----------------------
   0 S :    0.119582
   1 C :   -0.093588
   2 C :   -0.116878
   3 C :    0.044786
   4 C :   -0.153541
   5 H :    0.021303
   6 C :    0.072324
   7 H :    0.024152
   8 H :    0.010651
   9 C :   -0.097733
  10 H :    0.037968
  11 H :    0.024182
  12 C :   -0.049738
  13 H :    0.029227
  14 H :    0.030365
  15 H :    0.045284
  16 S :    0.099650
  17 C :   -0.061519
  18 C :   -0.038022
  19 C :   -0.057095
  20 C :   -0.139129
  21 H :    0.023861
  22 C :    0.091073
  23 H :    0.019815
  24 H :   -0.000562
  25 C :   -0.015355
  26 H :    0.014235
  27 H :   -0.011070
  28 C :   -0.054946
  29 H :    0.030921
  30 H :    0.052202
  31 H :    0.021314
  32 H :    0.033585
  33 H :    0.042696
Sum of atomic charges:    0.0000000

LOEWDIN ATOMIC CHARGES
----------------------
   0 S :    0.419919
   1 C :   -0.194187
   2 C :   -0.063166
   3 C :   -0.061407
   4 C :   -0.199522
   5 H :    0.031974
   6 C :   -0.035052
   7 H :    0.026880
   8 H :    0.029088
   9 C :   -0.043440
  10 H :    0.030048
  11 H :    0.020580
  12 C :   -0.072021
  13 H :    0.029507
  14 H :    0.025022
  15 H :    0.029933
  16 S :    0.385929
  17 C :   -0.171596
  18 C :   -0.074388
  19 C :   -0.045604
  20 C :   -0.187647
  21 H :    0.034659
  22 C :   -0.025958
  23 H :    0.027776
  24 H :    0.025906
  25 C :   -0.042548
  26 H :    0.023910
  27 H :    0.008480
  28 C :   -0.063439
  29 H :    0.024678
  30 H :    0.037793
  31 H :    0.021470
  32 H :    0.022720
  33 H :    0.023702

  Mayer bond orders larger than 0.100000
B(  0-S ,  1-C ) :   1.1458 B(  0-S ,  4-C ) :   1.1770 B(  1-C ,  2-C ) :   1.5758
B(  1-C ,  4-C ) :   0.1056 B(  1-C , 32-H ) :   0.9753 B(  2-C ,  3-C ) :   1.2765
B(  2-C ,  6-C ) :   1.0184 B(  3-C ,  4-C ) :   1.5226 B(  3-C ,  5-H ) :   0.9929
B(  4-C , 20-C ) :   1.0058 B(  6-C ,  7-H ) :   0.9425 B(  6-C ,  8-H ) :   0.9455
B(  6-C ,  9-C ) :   1.0638 B(  9-C , 10-H ) :   0.9530 B(  9-C , 11-H ) :   0.9627
B(  9-C , 12-C ) :   1.0734 B( 12-C , 13-H ) :   0.9726 B( 12-C , 14-H ) :   0.9740
B( 12-C , 15-H ) :   0.9738 B( 16-S , 17-C ) :   1.1624 B( 16-S , 20-C ) :   1.1186
B( 17-C , 18-C ) :   1.6094 B( 17-C , 33-H ) :   0.9663 B( 18-C , 19-C ) :   1.2475
B( 18-C , 21-H ) :   0.9899 B( 19-C , 20-C ) :   1.6106 B( 19-C , 22-C ) :   1.0434
B( 22-C , 23-H ) :   0.9215 B( 22-C , 24-H ) :   0.9323 B( 22-C , 25-C ) :   1.0657
B( 25-C , 26-H ) :   0.9499 B( 25-C , 27-H ) :   0.9411 B( 25-C , 28-C ) :   1.0792
B( 28-C , 29-H ) :   0.9765 B( 28-C , 30-H ) :   0.9722 B( 28-C , 31-H ) :   0.9745

Dispersion correction           -0.014553167
FINAL SINGLE POINT ENERGY     -1339.871428924377

DIPOLE MOMENT
-------------
                                X             Y             Z
Electronic contribution:     26.28994      -2.61910     -17.50083
Nuclear contribution   :    -26.96021       2.69097      17.63836
                        -----------------------------------------
Total Dipole Moment    :     -0.67026       0.07187       0.13753
                        -----------------------------------------
Magnitude (a.u.)       :      0.68799
Magnitude (Debye)      :      1.74873

Rotational constants in cm-1:     0.017689     0.009569     0.007020
Rotational constants in MHz :   530.301261   286.863336   210.453984

                             ****ORCA TERMINATED NORMALLY****
TOTAL RUN TIME: 0 days 0 hours 0 minutes 34 seconds 960 msec
