                         Program Version 4.2.1 -  RELEASE  -
|  1> ! wB97X-D3 SP def2-SVP
|  2> %pal
|  3> nprocs 16
|  4> end
|  5>
|  6> * xyz 0 1
|  7> S 	 -87.3496 	 49.9364 	 131.991
|  8> C 	 -87.2081 	 48.1474 	 132.003
|  9> C 	 -86.236 	 47.6842 	 131.158
| 10> C 	 -85.5682 	 48.7807 	 130.46
| 11> C 	 -85.9919 	 50.0344 	 130.864
| 12> H 	 -84.6909 	 48.7817 	 129.766
| 13> C 	 -85.7813 	 46.2403 	 130.976
| 14> H 	 -85.4658 	 46.0016 	 130.013
| 15> H 	 -86.7021 	 45.7067 	 130.904
| 16> C 	 -84.812 	 45.7117 	 132.017
| 17> H 	 -85.0943 	 45.7104 	 133.094
| 18> H 	 -84.6492 	 44.6731 	 131.809
| 19> C 	 -83.4624 	 46.3945 	 132.018
| 20> H 	 -83.4707 	 47.4118 	 132.273
| 21> H 	 -82.7443 	 45.7976 	 132.618
| 22> H 	 -82.9494 	 46.3177 	 131.05
| 23> S 	 -84.0199 	 51.7015 	 131.486
| 24> C 	 -83.568 	 52.9282 	 130.324
| 25> C 	 -84.3933 	 53.0532 	 129.257
| 26> C 	 -85.492 	 52.1176 	 129.377
| 27> C 	 -85.3076 	 51.2325 	 130.474
| 28> H 	 -84.0696 	 53.7757 	 128.443
| 29> C 	 -86.5596 	 52.0386 	 128.293
| 30> H 	 -87.2441 	 51.2422 	 128.54
| 31> H 	 -86.1548 	 51.891 	 127.249
| 32> C 	 -87.3355 	 53.3263 	 128.122
| 33> H 	 -87.9949 	 53.17 	 127.298
| 34> H 	 -86.6079 	 54.0793 	 127.905
| 35> C 	 -88.158 	 53.7461 	 129.397
| 36> H 	 -87.6349 	 54.0885 	 130.257
| 37> H 	 -88.8954 	 52.9584 	 129.636
| 38> H 	 -88.7916 	 54.5714 	 129.059
| 39> H 	 -87.8057 	 47.5494 	 132.691
| 40> H 	 -82.7803 	 53.6957 	 130.488
| 41> *
| 42>
| 43>                          ****END OF INPUT****

CARTESIAN COORDINATES (ANGSTROEM)
---------------------------------
  S    -87.349600   49.936400  131.991000
  C    -87.208100   48.147400  132.003000
  C    -86.236000   47.684200  131.158000
  C    -85.568200   48.780700  130.460000
  C    -85.991900   50.034400  130.864000
  H    -84.690900   48.781700  129.766000
  C    -85.781300   46.240300  130.976000
  H    -85.465800   46.001600  130.013000
  H    -86.702100   45.706700  130.904000
  C    -84.812000   45.711700  132.017000
  H    -85.094300   45.710400  133.094000
  H    -84.649200   44.673100  131.809000
  C    -83.462400   46.394500  132.018000
  H    -83.470700   47.411800  132.273000
  H    -82.744300   45.797600  132.618000
  H    -82.949400   46.317700  131.050000
  S    -84.019900   51.701500  131.486000
  C    -83.568000   52.928200  130.324000
  C    -84.393300   53.053200  129.257000
  C    -85.492000   52.117600  129.377000
  C    -85.307600   51.232500  130.474000
  H    -84.069600   53.775700  128.443000
  C    -86.559600   52.038600  128.293000
  H    -87.244100   51.242200  128.540000
  H    -86.154800   51.891000  127.249000
  C    -87.335500   53.326300  128.122000
  H    -87.994900   53.170000  127.298000
  H    -86.607900   54.079300  127.905000
  C    -88.158000   53.746100  129.397000
  H    -87.634900   54.088500  130.257000
  H    -88.895400   52.958400  129.636000
  H    -88.791600   54.571400  129.059000
  H    -87.805700   47.549400  132.691000
  H    -82.780300   53.695700  130.488000

 Total Charge           Charge          ....    0
 Multiplicity           Mult            ....    1
 Number of Electrons    NEL             ....  134
 Basis Dimension        Dim             ....  322

ORBITAL ENERGIES
----------------

  NO   OCC          E(Eh)            E(eV)
   0   2.0000     -88.965689     -2420.8795
   1   2.0000     -88.964942     -2420.8592
   2   2.0000     -10.324570      -280.9458
   3   2.0000     -10.321674      -280.8670
   4   2.0000     -10.317912      -280.7647
   5   2.0000     -10.313894      -280.6553
   6   2.0000     -10.308007      -280.4951
   7   2.0000     -10.305275      -280.4208
   8   2.0000     -10.297191      -280.2008
   9   2.0000     -10.297014      -280.1960
  10   2.0000     -10.286777      -279.9174
  11   2.0000     -10.285736      -279.8891
  12   2.0000     -10.284940      -279.8675
  13   2.0000     -10.279499      -279.7194
  14   2.0000     -10.270973      -279.4874
  15   2.0000     -10.269765      -279.4545
  16   2.0000      -8.081421      -219.9066
  17   2.0000      -8.078777      -219.8347
  18   2.0000      -6.039822      -164.3519
  19   2.0000      -6.037359      -164.2849
  20   2.0000      -6.035844      -164.2437
  21   2.0000      -6.033508      -164.1801
  22   2.0000      -6.032164      -164.1435
  23   2.0000      -6.029424      -164.0690
  24   2.0000      -1.006579       -27.3904
  25   2.0000      -0.978719       -26.6323
  26   2.0000      -0.913705       -24.8632
  27   2.0000      -0.907717       -24.7002
  28   2.0000      -0.872881       -23.7523
  29   2.0000      -0.844136       -22.9701
  30   2.0000      -0.839829       -22.8529
  31   2.0000      -0.812137       -22.0994
  32   2.0000      -0.787058       -21.4169
  33   2.0000      -0.771670       -20.9982
  34   2.0000      -0.704981       -19.1835
  35   2.0000      -0.702584       -19.1183
  36   2.0000      -0.686888       -18.6912
  37   2.0000      -0.648151       -17.6371
  38   2.0000      -0.642758       -17.4903
  39   2.0000      -0.609807       -16.5937
  40   2.0000      -0.595700       -16.2098
  41   2.0000      -0.574352       -15.6289
  42   2.0000      -0.553296       -15.0560
  43   2.0000      -0.546367       -14.8674
  44   2.0000      -0.539924       -14.6921
  45   2.0000      -0.536634       -14.6025
  46   2.0000      -0.512869       -13.9559
  47   2.0000      -0.510675       -13.8962
  48   2.0000      -0.499276       -13.5860
  49   2.0000      -0.493648       -13.4329
  50   2.0000      -0.490433       -13.3453
  51   2.0000      -0.474366       -12.9082
  52   2.0000      -0.467309       -12.7161
  53   2.0000      -0.465169       -12.6579
  54   2.0000      -0.457478       -12.4486
  55   2.0000      -0.450023       -12.2458
  56   2.0000      -0.437526       -11.9057
  57   2.0000      -0.432423       -11.7668
  58   2.0000      -0.425038       -11.5659
  59   2.0000      -0.421426       -11.4676
  60   2.0000      -0.418429       -11.3860
  61   2.0000      -0.415963       -11.3189
  62   2.0000      -0.414575       -11.2812
  63   2.0000      -0.338747        -9.2178
  64   2.0000      -0.328188        -8.9305
  65   2.0000      -0.317253        -8.6329
  66   2.0000      -0.308385        -8.3916
  67   0.0000       0.048741         1.3263
  68   0.0000       0.051860         1.4112
  69   0.0000       0.110741         3.0134
  70   0.0000       0.121958         3.3186
  71   0.0000       0.123444         3.3591

MULLIKEN ATOMIC CHARGES
-----------------------
   0 S :    0.106659
   1 C :   -0.136507
   2 C :   -0.081209
   3 C :    0.030387
   4 C :   -0.183556
   5 H :    0.036143
   6 C :    0.131599
   7 H :   -0.001024
   8 H :    0.008839
   9 C :   -0.046621
  10 H :    0.033716
  11 H :    0.018734
  12 C :   -0.055279
  13 H :    0.041859
  14 H :    0.027807
  15 H :    0.011271
  16 S :    0.133461
  17 C :   -0.105100
  18 C :   -0.070364
  19 C :   -0.008278
  20 C :   -0.206348
  21 H :    0.053875
  22 C :    0.071264
  23 H :    0.019111
  24 H :    0.038732
  25 C :   -0.072319
  26 H :    0.025849
  27 H :    0.021380
  28 C :   -0.058166
  29 H :    0.045952
  30 H :    0.031275
  31 H :    0.024328
  32 H :    0.051781
  33 H :    0.060748
Sum of atomic charges:   -0.0000000

LOEWDIN ATOMIC CHARGES
----------------------
   0 S :    0.373818
   1 C :   -0.178327
   2 C :   -0.059096
   3 C :   -0.058970
   4 C :   -0.204246
   5 H :    0.041941
   6 C :   -0.030685
   7 H :    0.025791
   8 H :    0.032518
   9 C :   -0.039457
  10 H :    0.030039
  11 H :    0.023148
  12 C :   -0.065707
  13 H :    0.018449
  14 H :    0.030932
  15 H :    0.021681
  16 S :    0.431363
  17 C :   -0.193258
  18 C :   -0.083978
  19 C :   -0.047272
  20 C :   -0.222782
  21 H :    0.049402
  22 C :   -0.035081
  23 H :    0.024185
  24 H :    0.038197
  25 C :   -0.033668
  26 H :    0.022421
  27 H :    0.016964
  28 C :   -0.067702
  29 H :    0.022657
  30 H :    0.027613
  31 H :    0.026472
  32 H :    0.028750
  33 H :    0.033889

  Mayer bond orders larger than 0.100000
B(  0-S ,  1-C ) :   1.1207 B(  0-S ,  4-C ) :   1.1265 B(  1-C ,  2-C ) :   1.6553
B(  1-C , 32-H ) :   0.9680 B(  2-C ,  3-C ) :   1.1887 B(  2-C ,  6-C ) :   1.0128
B(  3-C ,  4-C ) :   1.6268 B(  3-C ,  5-H ) :   0.9834 B(  4-C , 20-C ) :   1.0343
B(  6-C ,  7-H ) :   0.9354 B(  6-C ,  8-H ) :   0.9260 B(  6-C ,  9-C ) :   1.0739
B(  9-C , 10-H ) :   0.9588 B(  9-C , 11-H ) :   0.9497 B(  9-C , 12-C ) :   1.0860
B( 12-C , 13-H ) :   0.9761 B( 12-C , 14-H ) :   0.9702 B( 12-C , 15-H ) :   0.9705
B( 16-S , 17-C ) :   1.1486 B( 16-S , 20-C ) :   1.1628 B( 17-C , 18-C ) :   1.6611
B( 17-C , 33-H ) :   0.9556 B( 18-C , 19-C ) :   1.2071 B( 18-C , 21-H ) :   0.9752
B( 19-C , 20-C ) :   1.5871 B( 19-C , 22-C ) :   1.0541 B( 22-C , 23-H ) :   0.9319
B( 22-C , 24-H ) :   0.9422 B( 22-C , 25-C ) :   1.0707 B( 25-C , 26-H ) :   0.9561
B( 25-C , 27-H ) :   0.9567 B( 25-C , 28-C ) :   1.0745 B( 28-C , 29-H ) :   0.9768
B( 28-C , 30-H ) :   0.9753 B( 28-C , 31-H ) :   0.9742

Dispersion correction           -0.014970176
FINAL SINGLE POINT ENERGY     -1339.867846134164

DIPOLE MOMENT
-------------
                                X             Y             Z
Electronic contribution:      1.15980       6.75680       8.34152
Nuclear contribution   :     -1.00438      -6.97911      -8.72600
                        -----------------------------------------
Total Dipole Moment    :      0.15542      -0.22231      -0.38448
                        -----------------------------------------
Magnitude (a.u.)       :      0.47053
Magnitude (Debye)      :      1.19600

Rotational constants in cm-1:     0.022802     0.008228     0.007083
Rotational constants in MHz :   683.581253   246.677531   212.352457

                             ****ORCA TERMINATED NORMALLY****
TOTAL RUN TIME: 0 days 0 hours 0 minutes 35 seconds 857 msec
