                         Program Version 4.2.1 -  RELEASE  -
|  1> ! wB97X-D3 SP def2-SVP
|  2> %pal
|  3> nprocs 16
|  4> end
|  5>
|  6> * xyz 0 1
|  7> S 	 -47.9783 	 67.0097 	 127.583
|  8> C 	 -48.5759 	 65.3462 	 127.456
|  9> C 	 -48.3317 	 64.6494 	 128.678
| 10> C 	 -47.7537 	 65.559 	 129.658
| 11> C 	 -47.6031 	 66.8615 	 129.241
| 12> H 	 -47.4526 	 65.4058 	 130.732
| 13> C 	 -48.5333 	 63.1792 	 128.856
| 14> H 	 -49.5679 	 63.0224 	 128.611
| 15> H 	 -48.4241 	 62.9687 	 129.923
| 16> C 	 -47.4498 	 62.2639 	 128.213
| 17> H 	 -47.8188 	 61.2531 	 128.081
| 18> H 	 -47.3197 	 62.6014 	 127.175
| 19> C 	 -46.1245 	 62.3135 	 128.956
| 20> H 	 -46.1566 	 61.7892 	 129.895
| 21> H 	 -45.55 	 61.7083 	 128.3
| 22> H 	 -45.6939 	 63.311 	 129.035
| 23> S 	 -45.7165 	 68.8638 	 129.173
| 24> C 	 -45.349 	 69.7053 	 130.629
| 25> C 	 -46.1557 	 69.3281 	 131.714
| 26> C 	 -47.0461 	 68.2473 	 131.309
| 27> C 	 -46.8263 	 67.8262 	 129.997
| 28> H 	 -46.1211 	 69.812 	 132.615
| 29> C 	 -48.0336 	 67.7197 	 132.271
| 30> H 	 -47.6068 	 67.7039 	 133.287
| 31> H 	 -48.1992 	 66.648 	 132.189
| 32> C 	 -49.4147 	 68.2526 	 132.333
| 33> H 	 -49.8836 	 68.1424 	 131.375
| 34> H 	 -49.3806 	 69.331 	 132.513
| 35> C 	 -50.2162 	 67.5878 	 133.491
| 36> H 	 -49.7615 	 67.7879 	 134.471
| 37> H 	 -50.4922 	 66.5202 	 133.432
| 38> H 	 -51.0879 	 68.1468 	 133.616
| 39> H 	 -48.9645 	 64.8788 	 126.501
| 40> H 	 -44.6798 	 70.5195 	 130.661
| 41> *
| 42>
| 43>                          ****END OF INPUT****

CARTESIAN COORDINATES (ANGSTROEM)
---------------------------------
  S    -47.978300   67.009700  127.583000
  C    -48.575900   65.346200  127.456000
  C    -48.331700   64.649400  128.678000
  C    -47.753700   65.559000  129.658000
  C    -47.603100   66.861500  129.241000
  H    -47.452600   65.405800  130.732000
  C    -48.533300   63.179200  128.856000
  H    -49.567900   63.022400  128.611000
  H    -48.424100   62.968700  129.923000
  C    -47.449800   62.263900  128.213000
  H    -47.818800   61.253100  128.081000
  H    -47.319700   62.601400  127.175000
  C    -46.124500   62.313500  128.956000
  H    -46.156600   61.789200  129.895000
  H    -45.550000   61.708300  128.300000
  H    -45.693900   63.311000  129.035000
  S    -45.716500   68.863800  129.173000
  C    -45.349000   69.705300  130.629000
  C    -46.155700   69.328100  131.714000
  C    -47.046100   68.247300  131.309000
  C    -46.826300   67.826200  129.997000
  H    -46.121100   69.812000  132.615000
  C    -48.033600   67.719700  132.271000
  H    -47.606800   67.703900  133.287000
  H    -48.199200   66.648000  132.189000
  C    -49.414700   68.252600  132.333000
  H    -49.883600   68.142400  131.375000
  H    -49.380600   69.331000  132.513000
  C    -50.216200   67.587800  133.491000
  H    -49.761500   67.787900  134.471000
  H    -50.492200   66.520200  133.432000
  H    -51.087900   68.146800  133.616000
  H    -48.964500   64.878800  126.501000
  H    -44.679800   70.519500  130.661000

 Total Charge           Charge          ....    0
 Multiplicity           Mult            ....    1
 Number of Electrons    NEL             ....  134
 Basis Dimension        Dim             ....  322

ORBITAL ENERGIES
----------------

  NO   OCC          E(Eh)            E(eV)
   0   2.0000     -88.968396     -2420.9531
   1   2.0000     -88.967426     -2420.9267
   2   2.0000     -10.325225      -280.9636
   3   2.0000     -10.323010      -280.9034
   4   2.0000     -10.322618      -280.8927
   5   2.0000     -10.314422      -280.6697
   6   2.0000     -10.308905      -280.5196
   7   2.0000     -10.302755      -280.3522
   8   2.0000     -10.295560      -280.1564
   9   2.0000     -10.292801      -280.0814
  10   2.0000     -10.287428      -279.9352
  11   2.0000     -10.287294      -279.9315
  12   2.0000     -10.281515      -279.7743
  13   2.0000     -10.280852      -279.7562
  14   2.0000     -10.275686      -279.6156
  15   2.0000     -10.271596      -279.5043
  16   2.0000      -8.083875      -219.9734
  17   2.0000      -8.082262      -219.9295
  18   2.0000      -6.042317      -164.4198
  19   2.0000      -6.040785      -164.3781
  20   2.0000      -6.038236      -164.3088
  21   2.0000      -6.036679      -164.2664
  22   2.0000      -6.034734      -164.2135
  23   2.0000      -6.033087      -164.1686
  24   2.0000      -1.009949       -27.4821
  25   2.0000      -0.982505       -26.7353
  26   2.0000      -0.916600       -24.9419
  27   2.0000      -0.913076       -24.8461
  28   2.0000      -0.868587       -23.6355
  29   2.0000      -0.854368       -23.2485
  30   2.0000      -0.844936       -22.9919
  31   2.0000      -0.813083       -22.1251
  32   2.0000      -0.784796       -21.3554
  33   2.0000      -0.771925       -21.0052
  34   2.0000      -0.707163       -19.2429
  35   2.0000      -0.704263       -19.1640
  36   2.0000      -0.690078       -18.7780
  37   2.0000      -0.669609       -18.2210
  38   2.0000      -0.636380       -17.3168
  39   2.0000      -0.614541       -16.7225
  40   2.0000      -0.599544       -16.3144
  41   2.0000      -0.571791       -15.5592
  42   2.0000      -0.565068       -15.3763
  43   2.0000      -0.557668       -15.1749
  44   2.0000      -0.539906       -14.6916
  45   2.0000      -0.521001       -14.1772
  46   2.0000      -0.513253       -13.9663
  47   2.0000      -0.510661       -13.8958
  48   2.0000      -0.507952       -13.8221
  49   2.0000      -0.501109       -13.6359
  50   2.0000      -0.490244       -13.3402
  51   2.0000      -0.476489       -12.9659
  52   2.0000      -0.470324       -12.7982
  53   2.0000      -0.468072       -12.7369
  54   2.0000      -0.457706       -12.4548
  55   2.0000      -0.453575       -12.3424
  56   2.0000      -0.442150       -12.0315
  57   2.0000      -0.437544       -11.9062
  58   2.0000      -0.432394       -11.7660
  59   2.0000      -0.428854       -11.6697
  60   2.0000      -0.423684       -11.5290
  61   2.0000      -0.413475       -11.2512
  62   2.0000      -0.404984       -11.0202
  63   2.0000      -0.351902        -9.5757
  64   2.0000      -0.331750        -9.0274
  65   2.0000      -0.326443        -8.8830
  66   2.0000      -0.285355        -7.7649
  67   0.0000       0.027512         0.7486
  68   0.0000       0.071979         1.9587
  69   0.0000       0.109358         2.9758
  70   0.0000       0.116357         3.1662
  71   0.0000       0.136432         3.7125

MULLIKEN ATOMIC CHARGES
-----------------------
   0 S :    0.103471
   1 C :   -0.155420
   2 C :   -0.098038
   3 C :   -0.023714
   4 C :   -0.122978
   5 H :    0.041310
   6 C :    0.084810
   7 H :    0.033041
   8 H :    0.010825
   9 C :   -0.077833
  10 H :    0.026698
  11 H :    0.021116
  12 C :   -0.028289
  13 H :    0.030772
  14 H :    0.021912
  15 H :    0.055320
  16 S :    0.113882
  17 C :   -0.077776
  18 C :    0.011963
  19 C :   -0.028707
  20 C :   -0.139114
  21 H :   -0.012401
  22 C :    0.029373
  23 H :    0.011443
  24 H :   -0.001572
  25 C :   -0.038889
  26 H :    0.031950
  27 H :    0.017474
  28 C :   -0.039528
  29 H :    0.020412
  30 H :    0.047378
  31 H :    0.013116
  32 H :    0.076560
  33 H :    0.041431
Sum of atomic charges:    0.0000000

LOEWDIN ATOMIC CHARGES
----------------------
   0 S :    0.414578
   1 C :   -0.210603
   2 C :   -0.057282
   3 C :   -0.076024
   4 C :   -0.214503
   5 H :    0.039652
   6 C :   -0.040073
   7 H :    0.031621
   8 H :    0.029068
   9 C :   -0.035069
  10 H :    0.023534
  11 H :    0.021538
  12 C :   -0.058952
  13 H :    0.023671
  14 H :    0.026772
  15 H :    0.032157
  16 S :    0.428054
  17 C :   -0.184844
  18 C :   -0.050716
  19 C :   -0.052805
  20 C :   -0.203754
  21 H :    0.017293
  22 C :   -0.050947
  23 H :    0.031277
  24 H :    0.026838
  25 C :   -0.030250
  26 H :    0.025013
  27 H :    0.022869
  28 C :   -0.065979
  29 H :    0.027543
  30 H :    0.029953
  31 H :    0.020372
  32 H :    0.041888
  33 H :    0.018113

  Mayer bond orders larger than 0.100000
B(  0-S ,  1-C ) :   1.1443 B(  0-S ,  4-C ) :   1.1544 B(  1-C ,  2-C ) :   1.5661
B(  1-C , 32-H ) :   0.9640 B(  2-C ,  3-C ) :   1.2528 B(  2-C ,  6-C ) :   1.0285
B(  3-C ,  4-C ) :   1.5559 B(  3-C ,  5-H ) :   0.9783 B(  4-C , 20-C ) :   1.0580
B(  6-C ,  7-H ) :   0.9366 B(  6-C ,  8-H ) :   0.9410 B(  6-C ,  9-C ) :   1.0553
B(  9-C , 10-H ) :   0.9562 B(  9-C , 11-H ) :   0.9601 B(  9-C , 12-C ) :   1.0763
B( 12-C , 13-H ) :   0.9727 B( 12-C , 14-H ) :   0.9697 B( 12-C , 15-H ) :   0.9750
B( 16-S , 17-C ) :   1.1735 B( 16-S , 20-C ) :   1.1341 B( 17-C , 18-C ) :   1.5809
B( 17-C , 33-H ) :   0.9730 B( 18-C , 19-C ) :   1.2467 B( 18-C , 21-H ) :   1.0086
B( 19-C , 20-C ) :   1.5781 B( 19-C , 22-C ) :   1.0517 B( 22-C , 23-H ) :   0.9290
B( 22-C , 24-H ) :   0.9245 B( 22-C , 25-C ) :   1.0755 B( 25-C , 26-H ) :   0.9505
B( 25-C , 27-H ) :   0.9495 B( 25-C , 28-C ) :   1.0810 B( 28-C , 29-H ) :   0.9700
B( 28-C , 30-H ) :   0.9755 B( 28-C , 31-H ) :   0.9702

Dispersion correction           -0.014269247
FINAL SINGLE POINT ENERGY     -1339.868880934293

DIPOLE MOMENT
-------------
                                X             Y             Z
Electronic contribution:      8.74313      17.64830     -15.23057
Nuclear contribution   :     -8.87557     -17.97845      15.62545
                        -----------------------------------------
Total Dipole Moment    :     -0.13244      -0.33016       0.39488
                        -----------------------------------------
Magnitude (a.u.)       :      0.53148
Magnitude (Debye)      :      1.35092

Rotational constants in cm-1:     0.017440     0.008912     0.007281
Rotational constants in MHz :   522.843200   267.173177   218.289309

                             ****ORCA TERMINATED NORMALLY****
TOTAL RUN TIME: 0 days 0 hours 0 minutes 33 seconds 901 msec
