                         Program Version 4.2.1 -  RELEASE  -
|  1> ! wB97X-D3 SP def2-SVP
|  2> %pal
|  3> nprocs 16
|  4> end
|  5>
|  6> * xyz 0 1
|  7> S 	 37.6452 	 5.70366 	 87.261
|  8> C 	 37.2399 	 6.24194 	 85.6946
|  9> C 	 36.6267 	 5.19271 	 85.0068
| 10> C 	 36.4601 	 4.02293 	 85.7759
| 11> C 	 36.9935 	 4.07937 	 87.0013
| 12> H 	 36.072 	 3.14157 	 85.4286
| 13> C 	 36.2023 	 5.25472 	 83.5134
| 14> H 	 36.5111 	 6.04735 	 82.9223
| 15> H 	 35.1485 	 5.38276 	 83.6429
| 16> C 	 36.4589 	 4.00231 	 82.6226
| 17> H 	 35.6471 	 3.33813 	 82.938
| 18> H 	 36.2423 	 4.21725 	 81.5563
| 19> C 	 37.8443 	 3.35632 	 82.7998
| 20> H 	 38.0145 	 2.81844 	 83.7087
| 21> H 	 38.0106 	 2.61563 	 82.0214
| 22> H 	 38.5784 	 4.08938 	 82.6413
| 23> S 	 35.3442 	 2.19455 	 88.2098
| 24> C 	 36.0476 	 1.13779 	 89.3603
| 25> C 	 37.408 	 1.35772 	 89.5397
| 26> C 	 37.9111 	 2.47257 	 88.8051
| 27> C 	 36.9256 	 2.98196 	 87.9699
| 28> H 	 37.9689 	 0.775365 	 90.2813
| 29> C 	 39.3024 	 2.99755 	 88.9426
| 30> H 	 39.4364 	 3.26182 	 89.9535
| 31> H 	 39.2449 	 3.99596 	 88.404
| 32> C 	 40.4199 	 1.95351 	 88.5545
| 33> H 	 40.2083 	 1.69812 	 87.5407
| 34> H 	 40.3141 	 1.0256 	 89.0839
| 35> C 	 41.7989 	 2.45619 	 88.7102
| 36> H 	 42.6401 	 1.8271 	 88.4956
| 37> H 	 41.8779 	 2.95675 	 89.6746
| 38> H 	 41.9049 	 3.28422 	 87.9792
| 39> H 	 37.4169 	 7.23746 	 85.249
| 40> H 	 35.493 	 0.53042 	 90.0857
| 41> *
| 42>
| 43>                          ****END OF INPUT****

CARTESIAN COORDINATES (ANGSTROEM)
---------------------------------
  S     37.645200    5.703660   87.261000
  C     37.239900    6.241940   85.694600
  C     36.626700    5.192710   85.006800
  C     36.460100    4.022930   85.775900
  C     36.993500    4.079370   87.001300
  H     36.072000    3.141570   85.428600
  C     36.202300    5.254720   83.513400
  H     36.511100    6.047350   82.922300
  H     35.148500    5.382760   83.642900
  C     36.458900    4.002310   82.622600
  H     35.647100    3.338130   82.938000
  H     36.242300    4.217250   81.556300
  C     37.844300    3.356320   82.799800
  H     38.014500    2.818440   83.708700
  H     38.010600    2.615630   82.021400
  H     38.578400    4.089380   82.641300
  S     35.344200    2.194550   88.209800
  C     36.047600    1.137790   89.360300
  C     37.408000    1.357720   89.539700
  C     37.911100    2.472570   88.805100
  C     36.925600    2.981960   87.969900
  H     37.968900    0.775365   90.281300
  C     39.302400    2.997550   88.942600
  H     39.436400    3.261820   89.953500
  H     39.244900    3.995960   88.404000
  C     40.419900    1.953510   88.554500
  H     40.208300    1.698120   87.540700
  H     40.314100    1.025600   89.083900
  C     41.798900    2.456190   88.710200
  H     42.640100    1.827100   88.495600
  H     41.877900    2.956750   89.674600
  H     41.904900    3.284220   87.979200
  H     37.416900    7.237460   85.249000
  H     35.493000    0.530420   90.085700

 Total Charge           Charge          ....    0
 Multiplicity           Mult            ....    1
 Number of Electrons    NEL             ....  134
 Basis Dimension        Dim             ....  322

ORBITAL ENERGIES
----------------

  NO   OCC          E(Eh)            E(eV)
   0   2.0000     -88.969896     -2420.9940
   1   2.0000     -88.966235     -2420.8943
   2   2.0000     -10.328176      -281.0440
   3   2.0000     -10.325604      -280.9740
   4   2.0000     -10.316894      -280.7370
   5   2.0000     -10.313382      -280.6414
   6   2.0000     -10.302317      -280.3403
   7   2.0000     -10.301344      -280.3138
   8   2.0000     -10.294459      -280.1265
   9   2.0000     -10.292190      -280.0647
  10   2.0000     -10.288691      -279.9695
  11   2.0000     -10.283317      -279.8233
  12   2.0000     -10.281682      -279.7788
  13   2.0000     -10.279872      -279.7295
  14   2.0000     -10.272705      -279.5345
  15   2.0000     -10.268380      -279.4168
  16   2.0000      -8.084457      -219.9893
  17   2.0000      -8.080817      -219.8902
  18   2.0000      -6.042930      -164.4365
  19   2.0000      -6.039433      -164.3413
  20   2.0000      -6.039027      -164.3303
  21   2.0000      -6.035235      -164.2271
  22   2.0000      -6.035186      -164.2258
  23   2.0000      -6.031635      -164.1291
  24   2.0000      -1.010587       -27.4995
  25   2.0000      -0.988368       -26.8948
  26   2.0000      -0.912859       -24.8402
  27   2.0000      -0.904885       -24.6232
  28   2.0000      -0.873261       -23.7626
  29   2.0000      -0.860533       -23.4163
  30   2.0000      -0.844198       -22.9718
  31   2.0000      -0.815024       -22.1779
  32   2.0000      -0.786344       -21.3975
  33   2.0000      -0.772885       -21.0313
  34   2.0000      -0.707369       -19.2485
  35   2.0000      -0.702187       -19.1075
  36   2.0000      -0.689668       -18.7668
  37   2.0000      -0.664413       -18.0796
  38   2.0000      -0.642239       -17.4762
  39   2.0000      -0.621699       -16.9173
  40   2.0000      -0.595835       -16.2135
  41   2.0000      -0.566556       -15.4168
  42   2.0000      -0.562472       -15.3056
  43   2.0000      -0.553603       -15.0643
  44   2.0000      -0.537590       -14.6286
  45   2.0000      -0.532343       -14.4858
  46   2.0000      -0.519901       -14.1472
  47   2.0000      -0.516870       -14.0647
  48   2.0000      -0.510156       -13.8820
  49   2.0000      -0.494467       -13.4551
  50   2.0000      -0.489405       -13.3174
  51   2.0000      -0.484594       -13.1865
  52   2.0000      -0.474540       -12.9129
  53   2.0000      -0.466608       -12.6970
  54   2.0000      -0.460853       -12.5404
  55   2.0000      -0.450518       -12.2592
  56   2.0000      -0.443205       -12.0602
  57   2.0000      -0.434545       -11.8246
  58   2.0000      -0.432437       -11.7672
  59   2.0000      -0.429530       -11.6881
  60   2.0000      -0.419005       -11.4017
  61   2.0000      -0.413640       -11.2557
  62   2.0000      -0.404819       -11.0157
  63   2.0000      -0.354394        -9.6436
  64   2.0000      -0.333604        -9.0778
  65   2.0000      -0.327338        -8.9073
  66   2.0000      -0.288380        -7.8472
  67   0.0000       0.033614         0.9147
  68   0.0000       0.070510         1.9187
  69   0.0000       0.109025         2.9667
  70   0.0000       0.117687         3.2024
  71   0.0000       0.137502         3.7416

MULLIKEN ATOMIC CHARGES
-----------------------
   0 S :    0.107044
   1 C :   -0.136337
   2 C :   -0.083393
   3 C :    0.018258
   4 C :   -0.108282
   5 H :   -0.025707
   6 C :    0.094004
   7 H :    0.002961
   8 H :    0.031724
   9 C :   -0.116357
  10 H :    0.026167
  11 H :    0.036618
  12 C :   -0.006681
  13 H :    0.035684
  14 H :    0.023562
  15 H :    0.020310
  16 S :    0.122736
  17 C :   -0.092841
  18 C :   -0.051035
  19 C :   -0.047470
  20 C :   -0.176937
  21 H :    0.022533
  22 C :    0.089282
  23 H :    0.017064
  24 H :    0.022719
  25 C :   -0.061267
  26 H :    0.023716
  27 H :    0.023593
  28 C :   -0.019336
  29 H :    0.038279
  30 H :    0.022247
  31 H :    0.021390
  32 H :    0.060265
  33 H :    0.065488
Sum of atomic charges:   -0.0000000

LOEWDIN ATOMIC CHARGES
----------------------
   0 S :    0.419529
   1 C :   -0.221485
   2 C :   -0.056547
   3 C :   -0.064442
   4 C :   -0.182278
   5 H :    0.015156
   6 C :   -0.029141
   7 H :    0.015890
   8 H :    0.033745
   9 C :   -0.043398
  10 H :    0.020230
  11 H :    0.029977
  12 C :   -0.060810
  13 H :    0.025377
  14 H :    0.027454
  15 H :    0.019900
  16 S :    0.414977
  17 C :   -0.201793
  18 C :   -0.072250
  19 C :   -0.053246
  20 C :   -0.187274
  21 H :    0.032144
  22 C :   -0.030255
  23 H :    0.024811
  24 H :    0.027282
  25 C :   -0.035061
  26 H :    0.022589
  27 H :    0.020808
  28 C :   -0.067894
  29 H :    0.025464
  30 H :    0.025201
  31 H :    0.030232
  32 H :    0.039948
  33 H :    0.035159

  Mayer bond orders larger than 0.100000
B(  0-S ,  1-C ) :   1.1452 B(  0-S ,  4-C ) :   1.1359 B(  1-C ,  2-C ) :   1.5975
B(  1-C , 32-H ) :   0.9677 B(  2-C ,  3-C ) :   1.2459 B(  2-C ,  6-C ) :   0.9998
B(  3-C ,  4-C ) :   1.5613 B(  3-C ,  5-H ) :   1.0152 B(  4-C , 20-C ) :   1.0502
B(  6-C ,  7-H ) :   0.9522 B(  6-C ,  8-H ) :   0.9409 B(  6-C ,  9-C ) :   1.0687
B(  9-C , 10-H ) :   0.9543 B(  9-C , 11-H ) :   0.9590 B(  9-C , 12-C ) :   1.0823
B( 12-C , 13-H ) :   0.9701 B( 12-C , 14-H ) :   0.9721 B( 12-C , 15-H ) :   0.9755
B( 16-S , 17-C ) :   1.1587 B( 16-S , 20-C ) :   1.1363 B( 17-C , 18-C ) :   1.6131
B( 17-C , 33-H ) :   0.9610 B( 18-C , 19-C ) :   1.2378 B( 18-C , 21-H ) :   0.9854
B( 19-C , 20-C ) :   1.5780 B( 19-C , 22-C ) :   1.0547 B( 22-C , 23-H ) :   0.9198
B( 22-C , 24-H ) :   0.9211 B( 22-C , 25-C ) :   1.0443 B( 25-C , 26-H ) :   0.9560
B( 25-C , 27-H ) :   0.9544 B( 25-C , 28-C ) :   1.0942 B( 28-C , 29-H ) :   0.9730
B( 28-C , 30-H ) :   0.9693 B( 28-C , 31-H ) :   0.9706

Dispersion correction           -0.014386083
FINAL SINGLE POINT ENERGY     -1339.870169578709

DIPOLE MOMENT
-------------
                                X             Y             Z
Electronic contribution:    -15.75089       4.74671      12.56983
Nuclear contribution   :     15.95170      -4.89698     -12.75041
                        -----------------------------------------
Total Dipole Moment    :      0.20081      -0.15026      -0.18058
                        -----------------------------------------
Magnitude (a.u.)       :      0.30905
Magnitude (Debye)      :      0.78555

Rotational constants in cm-1:     0.017175     0.008902     0.007637
Rotational constants in MHz :   514.884072   266.871441   228.960932

                             ****ORCA TERMINATED NORMALLY****
TOTAL RUN TIME: 0 days 0 hours 0 minutes 31 seconds 96 msec
