                         Program Version 4.2.1 -  RELEASE  -
|  1> ! wB97X-D3 SP def2-SVP
|  2> %pal
|  3> nprocs 16
|  4> end
|  5>
|  6> * xyz 0 1
|  7> S 	 69.1228 	 23.0967 	 77.0017
|  8> C 	 69.6032 	 22.1428 	 78.4307
|  9> C 	 70.0474 	 20.9206 	 77.9934
| 10> C 	 70.3857 	 20.8396 	 76.6259
| 11> C 	 69.8453 	 21.9066 	 75.9184
| 12> H 	 70.8661 	 20.0347 	 76.1574
| 13> C 	 70.4112 	 19.8617 	 78.9723
| 14> H 	 70.4067 	 18.8809 	 78.5474
| 15> H 	 69.6485 	 19.771 	 79.7019
| 16> C 	 71.8492 	 19.9214 	 79.6002
| 17> H 	 72.5511 	 19.9106 	 78.7691
| 18> H 	 72.1386 	 20.8941 	 80.074
| 19> C 	 72.0564 	 18.7475 	 80.5516
| 20> H 	 72.0672 	 17.8062 	 80.0501
| 21> H 	 73.0187 	 18.9274 	 81.0775
| 22> H 	 71.2074 	 18.4991 	 81.2182
| 23> S 	 68.3319 	 22.5885 	 73.6505
| 24> C 	 69.0909 	 22.4681 	 72.1
| 25> C 	 70.3743 	 22.0635 	 72.162
| 26> C 	 70.8011 	 21.8973 	 73.5008
| 27> C 	 69.7729 	 22.0421 	 74.479
| 28> H 	 70.8154 	 21.9336 	 71.203
| 29> C 	 72.1713 	 21.3461 	 73.8439
| 30> H 	 72.1491 	 20.3118 	 73.8189
| 31> H 	 72.4259 	 21.5937 	 74.785
| 32> C 	 73.3476 	 21.6899 	 72.8891
| 33> H 	 73.4575 	 22.7311 	 72.7613
| 34> H 	 73.0547 	 21.2381 	 71.9245
| 35> C 	 74.7387 	 21.1377 	 73.2319
| 36> H 	 75.3683 	 21.4066 	 72.3663
| 37> H 	 74.8949 	 20.0142 	 73.2166
| 38> H 	 75.1514 	 21.5072 	 74.127
| 39> H 	 69.3523 	 22.4488 	 79.4414
| 40> H 	 68.6553 	 22.8464 	 71.1766
| 41> *
| 42>
| 43>                          ****END OF INPUT****

CARTESIAN COORDINATES (ANGSTROEM)
---------------------------------
  S     69.122800   23.096700   77.001700
  C     69.603200   22.142800   78.430700
  C     70.047400   20.920600   77.993400
  C     70.385700   20.839600   76.625900
  C     69.845300   21.906600   75.918400
  H     70.866100   20.034700   76.157400
  C     70.411200   19.861700   78.972300
  H     70.406700   18.880900   78.547400
  H     69.648500   19.771000   79.701900
  C     71.849200   19.921400   79.600200
  H     72.551100   19.910600   78.769100
  H     72.138600   20.894100   80.074000
  C     72.056400   18.747500   80.551600
  H     72.067200   17.806200   80.050100
  H     73.018700   18.927400   81.077500
  H     71.207400   18.499100   81.218200
  S     68.331900   22.588500   73.650500
  C     69.090900   22.468100   72.100000
  C     70.374300   22.063500   72.162000
  C     70.801100   21.897300   73.500800
  C     69.772900   22.042100   74.479000
  H     70.815400   21.933600   71.203000
  C     72.171300   21.346100   73.843900
  H     72.149100   20.311800   73.818900
  H     72.425900   21.593700   74.785000
  C     73.347600   21.689900   72.889100
  H     73.457500   22.731100   72.761300
  H     73.054700   21.238100   71.924500
  C     74.738700   21.137700   73.231900
  H     75.368300   21.406600   72.366300
  H     74.894900   20.014200   73.216600
  H     75.151400   21.507200   74.127000
  H     69.352300   22.448800   79.441400
  H     68.655300   22.846400   71.176600

 Total Charge           Charge          ....    0
 Multiplicity           Mult            ....    1
 Number of Electrons    NEL             ....  134
 Basis Dimension        Dim             ....  322

ORBITAL ENERGIES
----------------

  NO   OCC          E(Eh)            E(eV)
   0   2.0000     -88.965494     -2420.8742
   1   2.0000     -88.964917     -2420.8585
   2   2.0000     -10.333140      -281.1790
   3   2.0000     -10.327925      -281.0371
   4   2.0000     -10.315741      -280.7056
   5   2.0000     -10.310838      -280.5722
   6   2.0000     -10.305512      -280.4272
   7   2.0000     -10.298187      -280.2279
   8   2.0000     -10.292169      -280.0642
   9   2.0000     -10.291392      -280.0430
  10   2.0000     -10.287093      -279.9260
  11   2.0000     -10.284432      -279.8536
  12   2.0000     -10.283985      -279.8415
  13   2.0000     -10.280801      -279.7548
  14   2.0000     -10.280692      -279.7518
  15   2.0000     -10.273193      -279.5478
  16   2.0000      -8.079979      -219.8674
  17   2.0000      -8.079597      -219.8570
  18   2.0000      -6.038469      -164.3151
  19   2.0000      -6.038201      -164.3078
  20   2.0000      -6.034349      -164.2030
  21   2.0000      -6.034182      -164.1984
  22   2.0000      -6.030841      -164.1075
  23   2.0000      -6.030306      -164.0930
  24   2.0000      -1.007236       -27.4083
  25   2.0000      -0.986555       -26.8455
  26   2.0000      -0.911535       -24.8041
  27   2.0000      -0.908350       -24.7175
  28   2.0000      -0.873154       -23.7597
  29   2.0000      -0.852588       -23.2001
  30   2.0000      -0.846847       -23.0439
  31   2.0000      -0.821244       -22.3472
  32   2.0000      -0.785346       -21.3704
  33   2.0000      -0.769871       -20.9493
  34   2.0000      -0.710205       -19.3257
  35   2.0000      -0.704491       -19.1702
  36   2.0000      -0.702398       -19.1132
  37   2.0000      -0.653844       -17.7920
  38   2.0000      -0.641281       -17.4501
  39   2.0000      -0.627408       -17.0726
  40   2.0000      -0.599413       -16.3109
  41   2.0000      -0.576690       -15.6925
  42   2.0000      -0.573136       -15.5958
  43   2.0000      -0.555027       -15.1030
  44   2.0000      -0.531661       -14.4672
  45   2.0000      -0.527321       -14.3491
  46   2.0000      -0.517258       -14.0753
  47   2.0000      -0.511515       -13.9190
  48   2.0000      -0.507330       -13.8052
  49   2.0000      -0.498197       -13.5566
  50   2.0000      -0.491485       -13.3740
  51   2.0000      -0.481981       -13.1154
  52   2.0000      -0.478402       -13.0180
  53   2.0000      -0.466836       -12.7033
  54   2.0000      -0.459125       -12.4934
  55   2.0000      -0.454891       -12.3782
  56   2.0000      -0.451225       -12.2784
  57   2.0000      -0.433927       -11.8077
  58   2.0000      -0.427732       -11.6392
  59   2.0000      -0.422987       -11.5101
  60   2.0000      -0.421826       -11.4785
  61   2.0000      -0.413387       -11.2488
  62   2.0000      -0.411414       -11.1952
  63   2.0000      -0.350844        -9.5470
  64   2.0000      -0.332158        -9.0385
  65   2.0000      -0.330272        -8.9872
  66   2.0000      -0.286050        -7.7838
  67   0.0000       0.024213         0.6589
  68   0.0000       0.072274         1.9667
  69   0.0000       0.113427         3.0865
  70   0.0000       0.125254         3.4083
  71   0.0000       0.130099         3.5402

MULLIKEN ATOMIC CHARGES
-----------------------
   0 S :    0.099098
   1 C :   -0.120901
   2 C :   -0.054285
   3 C :    0.029911
   4 C :   -0.137023
   5 H :   -0.002640
   6 C :    0.065342
   7 H :    0.001789
   8 H :    0.010878
   9 C :   -0.068396
  10 H :    0.019485
  11 H :    0.030287
  12 C :   -0.040907
  13 H :    0.016195
  14 H :    0.049092
  15 H :    0.029080
  16 S :    0.109182
  17 C :   -0.099716
  18 C :   -0.033246
  19 C :   -0.032405
  20 C :   -0.141366
  21 H :    0.012653
  22 C :    0.136730
  23 H :    0.017218
  24 H :   -0.010766
  25 C :   -0.093175
  26 H :    0.027230
  27 H :    0.025480
  28 C :   -0.053667
  29 H :    0.033140
  30 H :    0.030598
  31 H :    0.031616
  32 H :    0.056279
  33 H :    0.057213
Sum of atomic charges:    0.0000000

LOEWDIN ATOMIC CHARGES
----------------------
   0 S :    0.386025
   1 C :   -0.180974
   2 C :   -0.061778
   3 C :   -0.052715
   4 C :   -0.178362
   5 H :    0.025564
   6 C :   -0.032974
   7 H :    0.026169
   8 H :    0.023090
   9 C :   -0.038171
  10 H :    0.022493
  11 H :    0.024730
  12 C :   -0.073352
  13 H :    0.020478
  14 H :    0.034776
  15 H :    0.029708
  16 S :    0.413206
  17 C :   -0.187380
  18 C :   -0.077171
  19 C :   -0.045524
  20 C :   -0.206123
  21 H :    0.033355
  22 C :   -0.023470
  23 H :    0.024510
  24 H :    0.010912
  25 C :   -0.033015
  26 H :    0.019021
  27 H :    0.023773
  28 C :   -0.068159
  29 H :    0.033437
  30 H :    0.029296
  31 H :    0.016338
  32 H :    0.030365
  33 H :    0.031924

  Mayer bond orders larger than 0.100000
B(  0-S ,  1-C ) :   1.1188 B(  0-S ,  4-C ) :   1.1532 B(  1-C ,  2-C ) :   1.5962
B(  1-C ,  4-C ) :   0.1007 B(  1-C , 32-H ) :   0.9750 B(  2-C ,  3-C ) :   1.2310
B(  2-C ,  6-C ) :   1.0495 B(  3-C ,  4-C ) :   1.5392 B(  3-C ,  5-H ) :   1.0058
B(  4-C , 20-C ) :   1.0854 B(  6-C ,  7-H ) :   0.9371 B(  6-C ,  8-H ) :   0.9378
B(  6-C ,  9-C ) :   1.0478 B(  9-C , 10-H ) :   0.9525 B(  9-C , 11-H ) :   0.9616
B(  9-C , 12-C ) :   1.0734 B( 12-C , 13-H ) :   0.9707 B( 12-C , 14-H ) :   0.9727
B( 12-C , 15-H ) :   0.9736 B( 16-S , 17-C ) :   1.1665 B( 16-S , 20-C ) :   1.1382
B( 17-C , 18-C ) :   1.6172 B( 17-C , 33-H ) :   0.9588 B( 18-C , 19-C ) :   1.2324
B( 18-C , 21-H ) :   0.9996 B( 19-C , 20-C ) :   1.5513 B( 19-C , 22-C ) :   1.0549
B( 22-C , 23-H ) :   0.9300 B( 22-C , 24-H ) :   0.9176 B( 22-C , 25-C ) :   1.0658
B( 25-C , 26-H ) :   0.9608 B( 25-C , 27-H ) :   0.9479 B( 25-C , 28-C ) :   1.0917
B( 28-C , 29-H ) :   0.9715 B( 28-C , 30-H ) :   0.9727 B( 28-C , 31-H ) :   0.9767

Dispersion correction           -0.013367345
FINAL SINGLE POINT ENERGY     -1339.861431049001

DIPOLE MOMENT
-------------
                                X             Y             Z
Electronic contribution:    -25.74425      16.28569      -8.04616
Nuclear contribution   :     26.26275     -16.76202       8.03338
                        -----------------------------------------
Total Dipole Moment    :      0.51851      -0.47633      -0.01278
                        -----------------------------------------
Magnitude (a.u.)       :      0.70420
Magnitude (Debye)      :      1.78994

Rotational constants in cm-1:     0.016951     0.008363     0.006032
Rotational constants in MHz :   508.166809   250.729249   180.840534

                             ****ORCA TERMINATED NORMALLY****
TOTAL RUN TIME: 0 days 0 hours 0 minutes 29 seconds 199 msec
