                         Program Version 4.2.1 -  RELEASE  -
|  1> ! wB97X-D3 SP def2-SVP
|  2> %pal
|  3> nprocs 16
|  4> end
|  5>
|  6> * xyz 0 1
|  7> S 	 -55.0128 	 36.6655 	 115.78
|  8> C 	 -53.3154 	 36.1808 	 115.811
|  9> C 	 -52.5058 	 37.0288 	 115.102
| 10> C 	 -53.3664 	 37.9735 	 114.463
| 11> C 	 -54.7145 	 37.9958 	 114.77
| 12> H 	 -53.0403 	 38.8043 	 113.745
| 13> C 	 -51.0071 	 37.0588 	 115.075
| 14> H 	 -50.9268 	 36.1132 	 114.475
| 15> H 	 -50.5394 	 36.7098 	 116.073
| 16> C 	 -50.1927 	 38.2619 	 114.461
| 17> H 	 -49.3349 	 37.7828 	 114.088
| 18> H 	 -50.5379 	 38.6821 	 113.493
| 19> C 	 -49.8385 	 39.347 	 115.502
| 20> H 	 -50.2489 	 39.1711 	 116.447
| 21> H 	 -48.7266 	 39.4375 	 115.654
| 22> H 	 -50.1379 	 40.3308 	 115.196
| 23> S 	 -56.772 	 37.7827 	 112.988
| 24> C 	 -57.6974 	 39.1844 	 112.598
| 25> C 	 -57.1899 	 40.3325 	 113.208
| 26> C 	 -55.9991 	 40.0277 	 114.005
| 27> C 	 -55.6931 	 38.6819 	 114.023
| 28> H 	 -57.5492 	 41.3435 	 112.916
| 29> C 	 -55.2005 	 41.0889 	 114.677
| 30> H 	 -54.9167 	 41.9618 	 114.104
| 31> H 	 -54.2179 	 40.6466 	 115.022
| 32> C 	 -55.8344 	 41.5219 	 115.953
| 33> H 	 -55.6458 	 40.7643 	 116.666
| 34> H 	 -56.9179 	 41.6356 	 115.905
| 35> C 	 -55.2663 	 42.7453 	 116.601
| 36> H 	 -54.1283 	 42.6736 	 116.564
| 37> H 	 -55.5868 	 42.5558 	 117.608
| 38> H 	 -55.6337 	 43.7219 	 116.155
| 39> H 	 -52.9709 	 35.4629 	 116.528
| 40> H 	 -58.4722 	 39.2349 	 111.852
| 41> *
| 42>
| 43>                          ****END OF INPUT****

CARTESIAN COORDINATES (ANGSTROEM)
---------------------------------
  S    -55.012800   36.665500  115.780000
  C    -53.315400   36.180800  115.811000
  C    -52.505800   37.028800  115.102000
  C    -53.366400   37.973500  114.463000
  C    -54.714500   37.995800  114.770000
  H    -53.040300   38.804300  113.745000
  C    -51.007100   37.058800  115.075000
  H    -50.926800   36.113200  114.475000
  H    -50.539400   36.709800  116.073000
  C    -50.192700   38.261900  114.461000
  H    -49.334900   37.782800  114.088000
  H    -50.537900   38.682100  113.493000
  C    -49.838500   39.347000  115.502000
  H    -50.248900   39.171100  116.447000
  H    -48.726600   39.437500  115.654000
  H    -50.137900   40.330800  115.196000
  S    -56.772000   37.782700  112.988000
  C    -57.697400   39.184400  112.598000
  C    -57.189900   40.332500  113.208000
  C    -55.999100   40.027700  114.005000
  C    -55.693100   38.681900  114.023000
  H    -57.549200   41.343500  112.916000
  C    -55.200500   41.088900  114.677000
  H    -54.916700   41.961800  114.104000
  H    -54.217900   40.646600  115.022000
  C    -55.834400   41.521900  115.953000
  H    -55.645800   40.764300  116.666000
  H    -56.917900   41.635600  115.905000
  C    -55.266300   42.745300  116.601000
  H    -54.128300   42.673600  116.564000
  H    -55.586800   42.555800  117.608000
  H    -55.633700   43.721900  116.155000
  H    -52.970900   35.462900  116.528000
  H    -58.472200   39.234900  111.852000

 Total Charge           Charge          ....    0
 Multiplicity           Mult            ....    1
 Number of Electrons    NEL             ....  134
 Basis Dimension        Dim             ....  322

ORBITAL ENERGIES
----------------

  NO   OCC          E(Eh)            E(eV)
   0   2.0000     -88.963822     -2420.8287
   1   2.0000     -88.963227     -2420.8125
   2   2.0000     -10.319653      -280.8120
   3   2.0000     -10.317947      -280.7656
   4   2.0000     -10.315718      -280.7050
   5   2.0000     -10.310313      -280.5579
   6   2.0000     -10.310254      -280.5563
   7   2.0000     -10.304251      -280.3929
   8   2.0000     -10.301794      -280.3261
   9   2.0000     -10.298179      -280.2277
  10   2.0000     -10.295934      -280.1666
  11   2.0000     -10.294427      -280.1256
  12   2.0000     -10.283367      -279.8247
  13   2.0000     -10.278817      -279.7008
  14   2.0000     -10.278585      -279.6945
  15   2.0000     -10.268406      -279.4175
  16   2.0000      -8.079075      -219.8428
  17   2.0000      -8.078667      -219.8317
  18   2.0000      -6.037637      -164.2925
  19   2.0000      -6.037095      -164.2777
  20   2.0000      -6.033397      -164.1771
  21   2.0000      -6.032999      -164.1663
  22   2.0000      -6.029853      -164.0806
  23   2.0000      -6.029526      -164.0718
  24   2.0000      -1.013283       -27.5728
  25   2.0000      -0.985760       -26.8239
  26   2.0000      -0.918627       -24.9971
  27   2.0000      -0.911647       -24.8072
  28   2.0000      -0.875697       -23.8289
  29   2.0000      -0.853126       -23.2147
  30   2.0000      -0.844133       -22.9700
  31   2.0000      -0.810696       -22.0602
  32   2.0000      -0.785985       -21.3878
  33   2.0000      -0.772475       -21.0201
  34   2.0000      -0.719255       -19.5719
  35   2.0000      -0.698757       -19.0141
  36   2.0000      -0.683843       -18.6083
  37   2.0000      -0.658271       -17.9125
  38   2.0000      -0.640200       -17.4207
  39   2.0000      -0.615650       -16.7527
  40   2.0000      -0.599489       -16.3129
  41   2.0000      -0.570618       -15.5273
  42   2.0000      -0.567312       -15.4373
  43   2.0000      -0.554348       -15.0846
  44   2.0000      -0.529972       -14.4213
  45   2.0000      -0.525107       -14.2889
  46   2.0000      -0.518111       -14.0985
  47   2.0000      -0.512625       -13.9492
  48   2.0000      -0.504696       -13.7335
  49   2.0000      -0.503072       -13.6893
  50   2.0000      -0.489248       -13.3131
  51   2.0000      -0.484665       -13.1884
  52   2.0000      -0.471618       -12.8334
  53   2.0000      -0.464505       -12.6398
  54   2.0000      -0.452812       -12.3216
  55   2.0000      -0.445409       -12.1202
  56   2.0000      -0.441221       -12.0062
  57   2.0000      -0.436645       -11.8817
  58   2.0000      -0.432314       -11.7639
  59   2.0000      -0.429910       -11.6984
  60   2.0000      -0.419640       -11.4190
  61   2.0000      -0.410424       -11.1682
  62   2.0000      -0.405905       -11.0452
  63   2.0000      -0.339879        -9.2486
  64   2.0000      -0.328672        -8.9436
  65   2.0000      -0.320875        -8.7314
  66   2.0000      -0.296513        -8.0685
  67   0.0000       0.040187         1.0935
  68   0.0000       0.063062         1.7160
  69   0.0000       0.115619         3.1461
  70   0.0000       0.120310         3.2738
  71   0.0000       0.136050         3.7021

MULLIKEN ATOMIC CHARGES
-----------------------
   0 S :    0.112408
   1 C :   -0.149525
   2 C :   -0.028128
   3 C :   -0.018319
   4 C :   -0.171242
   5 H :    0.034065
   6 C :   -0.025811
   7 H :    0.052958
   8 H :    0.050322
   9 C :   -0.027115
  10 H :    0.017021
  11 H :    0.033853
  12 C :   -0.028597
  13 H :    0.027819
  14 H :    0.036189
  15 H :    0.028045
  16 S :    0.123765
  17 C :   -0.092461
  18 C :   -0.038695
  19 C :   -0.037138
  20 C :   -0.156102
  21 H :    0.034257
  22 C :    0.078731
  23 H :    0.024677
  24 H :    0.017588
  25 C :   -0.101022
  26 H :    0.014008
  27 H :    0.026204
  28 C :   -0.042548
  29 H :    0.028308
  30 H :    0.031892
  31 H :    0.047832
  32 H :    0.041862
  33 H :    0.054901
Sum of atomic charges:    0.0000000

LOEWDIN ATOMIC CHARGES
----------------------
   0 S :    0.424892
   1 C :   -0.194013
   2 C :   -0.067334
   3 C :   -0.069307
   4 C :   -0.230272
   5 H :    0.035935
   6 C :   -0.044545
   7 H :    0.049174
   8 H :    0.044560
   9 C :   -0.042723
  10 H :    0.024376
  11 H :    0.032596
  12 C :   -0.062532
  13 H :    0.019244
  14 H :    0.034921
  15 H :    0.024651
  16 S :    0.420943
  17 C :   -0.191770
  18 C :   -0.074785
  19 C :   -0.047713
  20 C :   -0.207141
  21 H :    0.037225
  22 C :   -0.040968
  23 H :    0.026954
  24 H :    0.035988
  25 C :   -0.046911
  26 H :    0.020902
  27 H :    0.021732
  28 C :   -0.067714
  29 H :    0.028297
  30 H :    0.028030
  31 H :    0.028549
  32 H :    0.020842
  33 H :    0.027921

  Mayer bond orders larger than 0.100000
B(  0-S ,  1-C ) :   1.1559 B(  0-S ,  4-C ) :   1.1528 B(  1-C ,  2-C ) :   1.5791
B(  1-C , 32-H ) :   0.9701 B(  2-C ,  3-C ) :   1.2661 B(  2-C ,  6-C ) :   0.9848
B(  3-C ,  4-C ) :   1.5655 B(  3-C ,  5-H ) :   0.9703 B(  4-C , 20-C ) :   1.0421
B(  6-C ,  7-H ) :   0.9335 B(  6-C ,  8-H ) :   0.9470 B(  6-C ,  9-C ) :   1.0696
B(  9-C , 10-H ) :   0.9535 B(  9-C , 11-H ) :   0.9563 B(  9-C , 12-C ) :   1.0518
B( 12-C , 13-H ) :   0.9842 B( 12-C , 14-H ) :   0.9773 B( 12-C , 15-H ) :   0.9786
B( 16-S , 17-C ) :   1.1648 B( 16-S , 20-C ) :   1.1324 B( 17-C , 18-C ) :   1.6113
B( 17-C , 33-H ) :   0.9677 B( 18-C , 19-C ) :   1.2286 B( 18-C , 21-H ) :   0.9825
B( 19-C , 20-C ) :   1.6154 B( 19-C , 22-C ) :   1.0589 B( 22-C , 23-H ) :   0.9422
B( 22-C , 24-H ) :   0.9140 B( 22-C , 25-C ) :   1.0642 B( 25-C , 26-H ) :   0.9559
B( 25-C , 27-H ) :   0.9567 B( 25-C , 28-C ) :   1.0827 B( 28-C , 29-H ) :   0.9674
B( 28-C , 30-H ) :   0.9767 B( 28-C , 31-H ) :   0.9736

Dispersion correction           -0.014000992
FINAL SINGLE POINT ENERGY     -1339.850962412577

DIPOLE MOMENT
-------------
                                X             Y             Z
Electronic contribution:    -19.92911     -19.33766      -7.94153
Nuclear contribution   :     20.58671      19.68663       7.88616
                        -----------------------------------------
Total Dipole Moment    :      0.65759       0.34896      -0.05537
                        -----------------------------------------
Magnitude (a.u.)       :      0.74651
Magnitude (Debye)      :      1.89747

Rotational constants in cm-1:     0.016467     0.009451     0.007253
Rotational constants in MHz :   493.653593   283.322801   217.446496

                             ****ORCA TERMINATED NORMALLY****
TOTAL RUN TIME: 0 days 0 hours 0 minutes 28 seconds 863 msec
