                         Program Version 4.2.1 -  RELEASE  -
|  1> ! wB97X-D3 SP def2-SVP
|  2> %pal
|  3> nprocs 16
|  4> end
|  5>
|  6> * xyz 0 1
|  7> S 	 8.15491 	 25.1201 	 39.0185
|  8> C 	 6.40874 	 25.4687 	 39.0563
|  9> C 	 5.64648 	 24.3965 	 39.4929
| 10> C 	 6.43049 	 23.261 	 39.7481
| 11> C 	 7.80337 	 23.4053 	 39.4703
| 12> H 	 6.12183 	 22.2541 	 40.134
| 13> C 	 4.1176 	 24.4558 	 39.5954
| 14> H 	 3.99572 	 25.0117 	 40.4908
| 15> H 	 3.73632 	 23.4689 	 39.8452
| 16> C 	 3.27657 	 25.0498 	 38.3798
| 17> H 	 3.55352 	 26.0696 	 38.194
| 18> H 	 3.64987 	 24.5263 	 37.543
| 19> C 	 1.73159 	 24.9448 	 38.4669
| 20> H 	 1.51318 	 23.8309 	 38.5029
| 21> H 	 1.3312 	 25.4004 	 39.3584
| 22> H 	 1.08686 	 25.345 	 37.7112
| 23> S 	 10.2752 	 22.7577 	 40.2937
| 24> C 	 10.9529 	 21.2344 	 39.7761
| 25> C 	 10.0795 	 20.468 	 39.0583
| 26> C 	 8.84277 	 21.1224 	 38.8047
| 27> C 	 8.8259 	 22.363 	 39.3822
| 28> H 	 10.5028 	 19.5767 	 38.699
| 29> C 	 7.67599 	 20.505 	 37.986
| 30> H 	 8.10354 	 20.3585 	 36.995
| 31> H 	 6.8911 	 21.3026 	 38.0123
| 32> C 	 7.04063 	 19.1286 	 38.5022
| 33> H 	 6.97752 	 19.1216 	 39.5597
| 34> H 	 7.68711 	 18.3462 	 38.1313
| 35> C 	 5.56112 	 19.0499 	 38.0563
| 36> H 	 5.49726 	 19.1716 	 36.9877
| 37> H 	 4.9488 	 19.7433 	 38.6629
| 38> H 	 5.15263 	 18.0937 	 38.3456
| 39> H 	 5.98273 	 26.3969 	 38.5909
| 40> H 	 11.8583 	 20.844 	 40.1982
| 41> *
| 42>
| 43>                          ****END OF INPUT****

CARTESIAN COORDINATES (ANGSTROEM)
---------------------------------
  S      8.154910   25.120100   39.018500
  C      6.408740   25.468700   39.056300
  C      5.646480   24.396500   39.492900
  C      6.430490   23.261000   39.748100
  C      7.803370   23.405300   39.470300
  H      6.121830   22.254100   40.134000
  C      4.117600   24.455800   39.595400
  H      3.995720   25.011700   40.490800
  H      3.736320   23.468900   39.845200
  C      3.276570   25.049800   38.379800
  H      3.553520   26.069600   38.194000
  H      3.649870   24.526300   37.543000
  C      1.731590   24.944800   38.466900
  H      1.513180   23.830900   38.502900
  H      1.331200   25.400400   39.358400
  H      1.086860   25.345000   37.711200
  S     10.275200   22.757700   40.293700
  C     10.952900   21.234400   39.776100
  C     10.079500   20.468000   39.058300
  C      8.842770   21.122400   38.804700
  C      8.825900   22.363000   39.382200
  H     10.502800   19.576700   38.699000
  C      7.675990   20.505000   37.986000
  H      8.103540   20.358500   36.995000
  H      6.891100   21.302600   38.012300
  C      7.040630   19.128600   38.502200
  H      6.977520   19.121600   39.559700
  H      7.687110   18.346200   38.131300
  C      5.561120   19.049900   38.056300
  H      5.497260   19.171600   36.987700
  H      4.948800   19.743300   38.662900
  H      5.152630   18.093700   38.345600
  H      5.982730   26.396900   38.590900
  H     11.858300   20.844000   40.198200

 Total Charge           Charge          ....    0
 Multiplicity           Mult            ....    1
 Number of Electrons    NEL             ....  134
 Basis Dimension        Dim             ....  322

ORBITAL ENERGIES
----------------

  NO   OCC          E(Eh)            E(eV)
   0   2.0000     -88.966840     -2420.9108
   1   2.0000     -88.962655     -2420.7969
   2   2.0000     -10.334145      -281.2064
   3   2.0000     -10.324321      -280.9391
   4   2.0000     -10.318026      -280.7678
   5   2.0000     -10.311948      -280.6024
   6   2.0000     -10.304972      -280.4125
   7   2.0000     -10.304479      -280.3991
   8   2.0000     -10.300675      -280.2956
   9   2.0000     -10.297857      -280.2189
  10   2.0000     -10.295515      -280.1552
  11   2.0000     -10.291221      -280.0384
  12   2.0000     -10.289352      -279.9875
  13   2.0000     -10.288547      -279.9656
  14   2.0000     -10.284657      -279.8598
  15   2.0000     -10.281104      -279.7631
  16   2.0000      -8.080151      -219.8721
  17   2.0000      -8.077874      -219.8101
  18   2.0000      -6.038694      -164.3212
  19   2.0000      -6.036271      -164.2553
  20   2.0000      -6.034942      -164.2191
  21   2.0000      -6.032436      -164.1509
  22   2.0000      -6.030871      -164.1083
  23   2.0000      -6.028604      -164.0466
  24   2.0000      -1.004319       -27.3289
  25   2.0000      -0.978908       -26.6374
  26   2.0000      -0.903137       -24.5756
  27   2.0000      -0.900581       -24.5060
  28   2.0000      -0.867158       -23.5966
  29   2.0000      -0.853965       -23.2376
  30   2.0000      -0.845954       -23.0196
  31   2.0000      -0.813045       -22.1241
  32   2.0000      -0.781734       -21.2721
  33   2.0000      -0.768901       -20.9229
  34   2.0000      -0.714660       -19.4469
  35   2.0000      -0.704270       -19.1642
  36   2.0000      -0.695331       -18.9209
  37   2.0000      -0.661910       -18.0115
  38   2.0000      -0.634318       -17.2607
  39   2.0000      -0.611523       -16.6404
  40   2.0000      -0.589579       -16.0433
  41   2.0000      -0.572106       -15.5678
  42   2.0000      -0.569139       -15.4871
  43   2.0000      -0.557358       -15.1665
  44   2.0000      -0.530579       -14.4378
  45   2.0000      -0.522709       -14.2236
  46   2.0000      -0.516249       -14.0479
  47   2.0000      -0.512095       -13.9348
  48   2.0000      -0.501602       -13.6493
  49   2.0000      -0.496301       -13.5050
  50   2.0000      -0.486342       -13.2340
  51   2.0000      -0.475443       -12.9375
  52   2.0000      -0.469798       -12.7838
  53   2.0000      -0.464154       -12.6303
  54   2.0000      -0.460235       -12.5236
  55   2.0000      -0.447361       -12.1733
  56   2.0000      -0.444473       -12.0947
  57   2.0000      -0.438967       -11.9449
  58   2.0000      -0.433457       -11.7950
  59   2.0000      -0.427139       -11.6231
  60   2.0000      -0.424716       -11.5571
  61   2.0000      -0.421454       -11.4683
  62   2.0000      -0.416076       -11.3220
  63   2.0000      -0.345378        -9.3982
  64   2.0000      -0.334078        -9.0907
  65   2.0000      -0.332060        -9.0358
  66   2.0000      -0.286802        -7.8043
  67   0.0000       0.028246         0.7686
  68   0.0000       0.063714         1.7337
  69   0.0000       0.104517         2.8440
  70   0.0000       0.122473         3.3327
  71   0.0000       0.126477         3.4416

MULLIKEN ATOMIC CHARGES
-----------------------
   0 S :    0.103066
   1 C :   -0.159428
   2 C :   -0.082406
   3 C :    0.009583
   4 C :   -0.155696
   5 H :    0.030196
   6 C :    0.090376
   7 H :    0.033895
   8 H :    0.008318
   9 C :   -0.051021
  10 H :    0.022691
  11 H :    0.027381
  12 C :   -0.059258
  13 H :    0.033779
  14 H :    0.027654
  15 H :    0.036451
  16 S :    0.096626
  17 C :   -0.083235
  18 C :   -0.030431
  19 C :   -0.015046
  20 C :   -0.175722
  21 H :    0.001086
  22 C :    0.039394
  23 H :    0.040854
  24 H :    0.034108
  25 C :   -0.052761
  26 H :    0.024629
  27 H :    0.035761
  28 C :   -0.054060
  29 H :    0.041505
  30 H :    0.034259
  31 H :    0.025494
  32 H :    0.072119
  33 H :    0.049840
Sum of atomic charges:   -0.0000000

LOEWDIN ATOMIC CHARGES
----------------------
   0 S :    0.371344
   1 C :   -0.197470
   2 C :   -0.066806
   3 C :   -0.071610
   4 C :   -0.177672
   5 H :    0.039468
   6 C :   -0.023771
   7 H :    0.030780
   8 H :    0.025711
   9 C :   -0.032726
  10 H :    0.017615
  11 H :    0.021218
  12 C :   -0.069150
  13 H :    0.032298
  14 H :    0.023309
  15 H :    0.026417
  16 S :    0.397061
  17 C :   -0.175856
  18 C :   -0.067589
  19 C :   -0.055110
  20 C :   -0.196063
  21 H :    0.026124
  22 C :   -0.028536
  23 H :    0.032999
  24 H :    0.032320
  25 C :   -0.031412
  26 H :    0.019289
  27 H :    0.021995
  28 C :   -0.060921
  29 H :    0.023664
  30 H :    0.028680
  31 H :    0.023470
  32 H :    0.037147
  33 H :    0.023783

  Mayer bond orders larger than 0.100000
B(  0-S ,  1-C ) :   1.1336 B(  0-S ,  4-C ) :   1.1442 B(  1-C ,  2-C ) :   1.6085
B(  1-C ,  4-C ) :   0.1074 B(  1-C , 32-H ) :   0.9615 B(  2-C ,  3-C ) :   1.2490
B(  2-C ,  6-C ) :   1.0060 B(  3-C ,  4-C ) :   1.5695 B(  3-C ,  5-H ) :   0.9848
B(  4-C , 20-C ) :   1.0211 B(  6-C ,  7-H ) :   0.9313 B(  6-C ,  8-H ) :   0.9457
B(  6-C ,  9-C ) :   1.0482 B(  9-C , 10-H ) :   0.9545 B(  9-C , 11-H ) :   0.9633
B(  9-C , 12-C ) :   1.0758 B( 12-C , 13-H ) :   0.9766 B( 12-C , 14-H ) :   0.9772
B( 12-C , 15-H ) :   0.9772 B( 16-S , 17-C ) :   1.1430 B( 16-S , 20-C ) :   1.1414
B( 17-C , 18-C ) :   1.6506 B( 17-C , 33-H ) :   0.9654 B( 18-C , 19-C ) :   1.1896
B( 18-C , 21-H ) :   1.0010 B( 19-C , 20-C ) :   1.6372 B( 19-C , 22-C ) :   1.0285
B( 22-C , 23-H ) :   0.9311 B( 22-C , 24-H ) :   0.9418 B( 22-C , 25-C ) :   1.0472
B( 25-C , 26-H ) :   0.9627 B( 25-C , 27-H ) :   0.9563 B( 25-C , 28-C ) :   1.0894
B( 28-C , 29-H ) :   0.9771 B( 28-C , 30-H ) :   0.9743 B( 28-C , 31-H ) :   0.9731

Dispersion correction           -0.013816628
FINAL SINGLE POINT ENERGY     -1339.867194610929

DIPOLE MOMENT
-------------
                                X             Y             Z
Electronic contribution:     30.04416      10.99275       7.76789
Nuclear contribution   :    -30.62061     -11.50800      -7.93961
                        -----------------------------------------
Total Dipole Moment    :     -0.57644      -0.51525      -0.17172
                        -----------------------------------------
Magnitude (a.u.)       :      0.79199
Magnitude (Debye)      :      2.01309

Rotational constants in cm-1:     0.018071     0.008462     0.006049
Rotational constants in MHz :   541.740467   253.680945   181.340916

                             ****ORCA TERMINATED NORMALLY****
TOTAL RUN TIME: 0 days 0 hours 0 minutes 34 seconds 273 msec
