                         Program Version 4.2.1 -  RELEASE  -
|  1> ! wB97X-D3 SP def2-SVP
|  2> %pal
|  3> nprocs 16
|  4> end
|  5>
|  6> * xyz 0 1
|  7> S 	 -42.1975 	 39.139 	 76.0539
|  8> C 	 -42.6737 	 39.2425 	 77.6816
|  9> C 	 -41.6354 	 39.5609 	 78.5083
| 10> C 	 -40.3888 	 39.5331 	 77.8663
| 11> C 	 -40.5541 	 39.4539 	 76.439
| 12> H 	 -39.4313 	 39.611 	 78.3179
| 13> C 	 -41.8179 	 39.7004 	 79.9781
| 14> H 	 -42.4963 	 38.8979 	 80.1557
| 15> H 	 -42.2736 	 40.6544 	 80.2819
| 16> C 	 -40.5172 	 39.5576 	 80.8611
| 17> H 	 -39.7469 	 40.1833 	 80.4067
| 18> H 	 -40.6346 	 39.9499 	 81.9077
| 19> C 	 -40.0292 	 38.1118 	 80.8424
| 20> H 	 -39.1319 	 38.0152 	 81.4896
| 21> H 	 -40.7541 	 37.4739 	 81.3655
| 22> H 	 -39.6704 	 37.7385 	 79.8836
| 23> S 	 -39.4491 	 41.1228 	 74.4652
| 24> C 	 -37.8784 	 40.7195 	 73.8378
| 25> C 	 -37.4418 	 39.4649 	 74.2152
| 26> C 	 -38.3635 	 38.8834 	 75.1541
| 27> C 	 -39.5054 	 39.6479 	 75.4447
| 28> H 	 -36.5288 	 38.9946 	 73.9527
| 29> C 	 -38.0938 	 37.6175 	 75.8804
| 30> H 	 -38.3567 	 37.7853 	 76.9635
| 31> H 	 -37.0557 	 37.4009 	 75.8685
| 32> C 	 -38.8744 	 36.4197 	 75.5242
| 33> H 	 -39.9418 	 36.7022 	 75.4416
| 34> H 	 -38.788 	 35.7214 	 76.346
| 35> C 	 -38.3426 	 35.9761 	 74.1122
| 36> H 	 -38.1788 	 36.8611 	 73.4881
| 37> H 	 -39.0398 	 35.3921 	 73.6404
| 38> H 	 -37.3805 	 35.3926 	 74.1217
| 39> H 	 -43.7273 	 39.177 	 77.9441
| 40> H 	 -37.2643 	 41.3325 	 73.249
| 41> *
| 42>
| 43>                          ****END OF INPUT****

CARTESIAN COORDINATES (ANGSTROEM)
---------------------------------
  S    -42.197500   39.139000   76.053900
  C    -42.673700   39.242500   77.681600
  C    -41.635400   39.560900   78.508300
  C    -40.388800   39.533100   77.866300
  C    -40.554100   39.453900   76.439000
  H    -39.431300   39.611000   78.317900
  C    -41.817900   39.700400   79.978100
  H    -42.496300   38.897900   80.155700
  H    -42.273600   40.654400   80.281900
  C    -40.517200   39.557600   80.861100
  H    -39.746900   40.183300   80.406700
  H    -40.634600   39.949900   81.907700
  C    -40.029200   38.111800   80.842400
  H    -39.131900   38.015200   81.489600
  H    -40.754100   37.473900   81.365500
  H    -39.670400   37.738500   79.883600
  S    -39.449100   41.122800   74.465200
  C    -37.878400   40.719500   73.837800
  C    -37.441800   39.464900   74.215200
  C    -38.363500   38.883400   75.154100
  C    -39.505400   39.647900   75.444700
  H    -36.528800   38.994600   73.952700
  C    -38.093800   37.617500   75.880400
  H    -38.356700   37.785300   76.963500
  H    -37.055700   37.400900   75.868500
  C    -38.874400   36.419700   75.524200
  H    -39.941800   36.702200   75.441600
  H    -38.788000   35.721400   76.346000
  C    -38.342600   35.976100   74.112200
  H    -38.178800   36.861100   73.488100
  H    -39.039800   35.392100   73.640400
  H    -37.380500   35.392600   74.121700
  H    -43.727300   39.177000   77.944100
  H    -37.264300   41.332500   73.249000

 Total Charge           Charge          ....    0
 Multiplicity           Mult            ....    1
 Number of Electrons    NEL             ....  134
 Basis Dimension        Dim             ....  322

ORBITAL ENERGIES
----------------

  NO   OCC          E(Eh)            E(eV)
   0   2.0000     -88.969757     -2420.9902
   1   2.0000     -88.966072     -2420.8899
   2   2.0000     -10.331172      -281.1255
   3   2.0000     -10.325016      -280.9580
   4   2.0000     -10.315662      -280.7034
   5   2.0000     -10.306921      -280.4656
   6   2.0000     -10.299741      -280.2702
   7   2.0000     -10.296136      -280.1721
   8   2.0000     -10.295752      -280.1617
   9   2.0000     -10.294399      -280.1248
  10   2.0000     -10.292767      -280.0804
  11   2.0000     -10.288955      -279.9767
  12   2.0000     -10.280009      -279.7333
  13   2.0000     -10.279397      -279.7166
  14   2.0000     -10.277146      -279.6554
  15   2.0000     -10.269742      -279.4539
  16   2.0000      -8.085549      -220.0190
  17   2.0000      -8.080536      -219.8826
  18   2.0000      -6.043740      -164.4585
  19   2.0000      -6.039698      -164.3485
  20   2.0000      -6.039064      -164.3313
  21   2.0000      -6.036813      -164.2700
  22   2.0000      -6.034961      -164.2197
  23   2.0000      -6.031408      -164.1230
  24   2.0000      -1.010891       -27.5078
  25   2.0000      -0.987721       -26.8773
  26   2.0000      -0.915597       -24.9147
  27   2.0000      -0.914053       -24.8727
  28   2.0000      -0.869952       -23.6726
  29   2.0000      -0.849918       -23.1275
  30   2.0000      -0.841858       -22.9081
  31   2.0000      -0.815867       -22.2009
  32   2.0000      -0.783160       -21.3109
  33   2.0000      -0.770071       -20.9547
  34   2.0000      -0.716320       -19.4921
  35   2.0000      -0.697004       -18.9664
  36   2.0000      -0.685983       -18.6665
  37   2.0000      -0.665093       -18.0981
  38   2.0000      -0.646417       -17.5899
  39   2.0000      -0.621960       -16.9244
  40   2.0000      -0.596245       -16.2246
  41   2.0000      -0.570506       -15.5242
  42   2.0000      -0.555326       -15.1112
  43   2.0000      -0.552883       -15.0447
  44   2.0000      -0.541325       -14.7302
  45   2.0000      -0.537805       -14.6344
  46   2.0000      -0.523264       -14.2387
  47   2.0000      -0.513528       -13.9738
  48   2.0000      -0.500967       -13.6320
  49   2.0000      -0.495794       -13.4912
  50   2.0000      -0.489041       -13.3075
  51   2.0000      -0.477115       -12.9830
  52   2.0000      -0.475430       -12.9371
  53   2.0000      -0.469523       -12.7764
  54   2.0000      -0.461592       -12.5605
  55   2.0000      -0.448799       -12.2124
  56   2.0000      -0.443372       -12.0648
  57   2.0000      -0.438483       -11.9317
  58   2.0000      -0.436358       -11.8739
  59   2.0000      -0.424812       -11.5597
  60   2.0000      -0.415553       -11.3078
  61   2.0000      -0.413713       -11.2577
  62   2.0000      -0.408328       -11.1112
  63   2.0000      -0.338613        -9.2141
  64   2.0000      -0.331595        -9.0231
  65   2.0000      -0.325805        -8.8656
  66   2.0000      -0.294465        -8.0128
  67   0.0000       0.036408         0.9907
  68   0.0000       0.054240         1.4760
  69   0.0000       0.114646         3.1197
  70   0.0000       0.125580         3.4172
  71   0.0000       0.128410         3.4942

MULLIKEN ATOMIC CHARGES
-----------------------
   0 S :    0.145283
   1 C :   -0.145351
   2 C :   -0.079019
   3 C :    0.051006
   4 C :   -0.198887
   5 H :    0.008075
   6 C :    0.083421
   7 H :    0.022354
   8 H :    0.045937
   9 C :   -0.102088
  10 H :    0.031207
  11 H :    0.041734
  12 C :   -0.066887
  13 H :    0.025870
  14 H :    0.036049
  15 H :    0.043458
  16 S :    0.118896
  17 C :   -0.067122
  18 C :   -0.001932
  19 C :   -0.061541
  20 C :   -0.162016
  21 H :    0.006757
  22 C :    0.063650
  23 H :    0.017721
  24 H :    0.002979
  25 C :   -0.040875
  26 H :    0.031153
  27 H :    0.028411
  28 C :   -0.044747
  29 H :    0.031558
  30 H :    0.011623
  31 H :    0.034019
  32 H :    0.052274
  33 H :    0.037033
Sum of atomic charges:    0.0000000

LOEWDIN ATOMIC CHARGES
----------------------
   0 S :    0.458139
   1 C :   -0.218807
   2 C :   -0.067384
   3 C :   -0.051738
   4 C :   -0.213071
   5 H :    0.025085
   6 C :   -0.031218
   7 H :    0.029267
   8 H :    0.035894
   9 C :   -0.044468
  10 H :    0.021223
  11 H :    0.032633
  12 C :   -0.072833
  13 H :    0.027914
  14 H :    0.027249
  15 H :    0.024836
  16 S :    0.408220
  17 C :   -0.174507
  18 C :   -0.068080
  19 C :   -0.050497
  20 C :   -0.207805
  21 H :    0.027087
  22 C :   -0.042254
  23 H :    0.034403
  24 H :    0.020292
  25 C :   -0.032871
  26 H :    0.026210
  27 H :    0.023409
  28 C :   -0.063325
  29 H :    0.028497
  30 H :    0.009840
  31 H :    0.029865
  32 H :    0.028977
  33 H :    0.019821

  Mayer bond orders larger than 0.100000
B(  0-S ,  1-C ) :   1.1681 B(  0-S ,  4-C ) :   1.2014 B(  1-C ,  2-C ) :   1.5646
B(  1-C ,  4-C ) :   0.1105 B(  1-C , 32-H ) :   0.9715 B(  2-C ,  3-C ) :   1.3029
B(  2-C ,  6-C ) :   0.9930 B(  3-C ,  4-C ) :   1.4952 B(  3-C ,  5-H ) :   0.9896
B(  4-C , 20-C ) :   1.0344 B(  6-C ,  7-H ) :   0.9467 B(  6-C ,  8-H ) :   0.9322
B(  6-C ,  9-C ) :   1.0820 B(  9-C , 10-H ) :   0.9501 B(  9-C , 11-H ) :   0.9564
B(  9-C , 12-C ) :   1.0806 B( 12-C , 13-H ) :   0.9708 B( 12-C , 14-H ) :   0.9740
B( 12-C , 15-H ) :   0.9738 B( 16-S , 17-C ) :   1.1750 B( 16-S , 20-C ) :   1.1259
B( 17-C , 18-C ) :   1.5795 B( 17-C , 33-H ) :   0.9707 B( 18-C , 19-C ) :   1.2514
B( 18-C , 21-H ) :   0.9940 B( 19-C , 20-C ) :   1.5888 B( 19-C , 22-C ) :   1.0610
B( 22-C , 23-H ) :   0.9215 B( 22-C , 24-H ) :   0.9280 B( 22-C , 25-C ) :   1.0779
B( 25-C , 26-H ) :   0.9543 B( 25-C , 27-H ) :   0.9554 B( 25-C , 28-C ) :   1.0591
B( 28-C , 29-H ) :   0.9769 B( 28-C , 30-H ) :   0.9747 B( 28-C , 31-H ) :   0.9749

Dispersion correction           -0.015399818
FINAL SINGLE POINT ENERGY     -1339.873768574209

DIPOLE MOMENT
-------------
                                X             Y             Z
Electronic contribution:     -8.56783      15.87569     -16.11045
Nuclear contribution   :      8.81589     -16.04437      16.61713
                        -----------------------------------------
Total Dipole Moment    :      0.24805      -0.16868       0.50668
                        -----------------------------------------
Magnitude (a.u.)       :      0.58882
Magnitude (Debye)      :      1.49667

Rotational constants in cm-1:     0.019174     0.009013     0.007982
Rotational constants in MHz :   574.809863   270.189551   239.307606

                             ****ORCA TERMINATED NORMALLY****
TOTAL RUN TIME: 0 days 0 hours 0 minutes 32 seconds 471 msec
