                         Program Version 4.2.1 -  RELEASE  -
|  1> ! wB97X-D3 SP def2-SVP
|  2> %pal
|  3> nprocs 16
|  4> end
|  5>
|  6> * xyz 0 1
|  7> S 	 -43.2682 	 51.2068 	 105.841
|  8> C 	 -42.941 	 50.2857 	 104.382
|  9> C 	 -42.4026 	 50.9851 	 103.29
| 10> C 	 -42.3181 	 52.3927 	 103.722
| 11> C 	 -42.8994 	 52.7044 	 104.977
| 12> H 	 -41.8077 	 53.1356 	 103.205
| 13> C 	 -41.8819 	 50.4039 	 102.038
| 14> H 	 -41.8148 	 49.3676 	 102.094
| 15> H 	 -40.9082 	 50.6443 	 101.711
| 16> C 	 -42.8544 	 50.4859 	 100.816
| 17> H 	 -43.0366 	 51.5263 	 100.571
| 18> H 	 -42.3808 	 49.9812 	 99.9914
| 19> C 	 -44.3223 	 49.9077 	 101.074
| 20> H 	 -44.7224 	 50.3264 	 102.009
| 21> H 	 -45.0049 	 50.1465 	 100.27
| 22> H 	 -44.2831 	 48.8187 	 101.324
| 23> S 	 -42.1405 	 53.7737 	 107.38
| 24> C 	 -42.2684 	 55.5189 	 107.623
| 25> C 	 -42.5425 	 56.2038 	 106.47
| 26> C 	 -42.7404 	 55.2304 	 105.407
| 27> C 	 -42.63 	 53.8877 	 105.745
| 28> H 	 -42.5106 	 57.3578 	 106.464
| 29> C 	 -43.0893 	 55.7466 	 104.019
| 30> H 	 -42.3347 	 55.2938 	 103.378
| 31> H 	 -42.8882 	 56.8657 	 103.983
| 32> C 	 -44.4246 	 55.4798 	 103.314
| 33> H 	 -44.5889 	 54.4306 	 103.329
| 34> H 	 -44.5649 	 55.94 	 102.307
| 35> C 	 -45.6673 	 56.1056 	 104.077
| 36> H 	 -45.754 	 55.6904 	 105.086
| 37> H 	 -46.6781 	 55.9702 	 103.616
| 38> H 	 -45.5949 	 57.1802 	 104.167
| 39> H 	 -43.0798 	 49.2016 	 104.383
| 40> H 	 -42.2931 	 55.9084 	 108.599
| 41> *
| 42>
| 43>                          ****END OF INPUT****

CARTESIAN COORDINATES (ANGSTROEM)
---------------------------------
  S    -43.268200   51.206800  105.841000
  C    -42.941000   50.285700  104.382000
  C    -42.402600   50.985100  103.290000
  C    -42.318100   52.392700  103.722000
  C    -42.899400   52.704400  104.977000
  H    -41.807700   53.135600  103.205000
  C    -41.881900   50.403900  102.038000
  H    -41.814800   49.367600  102.094000
  H    -40.908200   50.644300  101.711000
  C    -42.854400   50.485900  100.816000
  H    -43.036600   51.526300  100.571000
  H    -42.380800   49.981200   99.991400
  C    -44.322300   49.907700  101.074000
  H    -44.722400   50.326400  102.009000
  H    -45.004900   50.146500  100.270000
  H    -44.283100   48.818700  101.324000
  S    -42.140500   53.773700  107.380000
  C    -42.268400   55.518900  107.623000
  C    -42.542500   56.203800  106.470000
  C    -42.740400   55.230400  105.407000
  C    -42.630000   53.887700  105.745000
  H    -42.510600   57.357800  106.464000
  C    -43.089300   55.746600  104.019000
  H    -42.334700   55.293800  103.378000
  H    -42.888200   56.865700  103.983000
  C    -44.424600   55.479800  103.314000
  H    -44.588900   54.430600  103.329000
  H    -44.564900   55.940000  102.307000
  C    -45.667300   56.105600  104.077000
  H    -45.754000   55.690400  105.086000
  H    -46.678100   55.970200  103.616000
  H    -45.594900   57.180200  104.167000
  H    -43.079800   49.201600  104.383000
  H    -42.293100   55.908400  108.599000

 Total Charge           Charge          ....    0
 Multiplicity           Mult            ....    1
 Number of Electrons    NEL             ....  134
 Basis Dimension        Dim             ....  322

ORBITAL ENERGIES
----------------

  NO   OCC          E(Eh)            E(eV)
   0   2.0000     -88.973051     -2421.0798
   1   2.0000     -88.963836     -2420.8290
   2   2.0000     -10.334595      -281.2186
   3   2.0000     -10.324180      -280.9352
   4   2.0000     -10.323490      -280.9165
   5   2.0000     -10.314707      -280.6774
   6   2.0000     -10.313466      -280.6437
   7   2.0000     -10.304941      -280.4117
   8   2.0000     -10.304751      -280.4065
   9   2.0000     -10.303452      -280.3712
  10   2.0000     -10.291868      -280.0560
  11   2.0000     -10.291313      -280.0409
  12   2.0000     -10.289956      -280.0040
  13   2.0000     -10.285461      -279.8816
  14   2.0000     -10.282171      -279.7921
  15   2.0000     -10.271695      -279.5070
  16   2.0000      -8.087291      -220.0664
  17   2.0000      -8.079303      -219.8490
  18   2.0000      -6.045815      -164.5150
  19   2.0000      -6.042030      -164.4120
  20   2.0000      -6.037900      -164.2996
  21   2.0000      -6.037839      -164.2979
  22   2.0000      -6.033722      -164.1859
  23   2.0000      -6.029964      -164.0837
  24   2.0000      -1.009514       -27.4703
  25   2.0000      -0.981704       -26.7135
  26   2.0000      -0.915750       -24.9188
  27   2.0000      -0.899082       -24.4653
  28   2.0000      -0.871082       -23.7033
  29   2.0000      -0.846631       -23.0380
  30   2.0000      -0.838633       -22.8204
  31   2.0000      -0.813734       -22.1428
  32   2.0000      -0.787699       -21.4344
  33   2.0000      -0.769668       -20.9437
  34   2.0000      -0.711739       -19.3674
  35   2.0000      -0.699094       -19.0233
  36   2.0000      -0.685450       -18.6520
  37   2.0000      -0.665583       -18.1114
  38   2.0000      -0.645183       -17.5563
  39   2.0000      -0.624938       -17.0054
  40   2.0000      -0.587158       -15.9774
  41   2.0000      -0.573951       -15.6180
  42   2.0000      -0.555948       -15.1281
  43   2.0000      -0.551039       -14.9945
  44   2.0000      -0.544233       -14.8093
  45   2.0000      -0.536812       -14.6074
  46   2.0000      -0.515681       -14.0324
  47   2.0000      -0.506778       -13.7901
  48   2.0000      -0.502169       -13.6647
  49   2.0000      -0.495791       -13.4911
  50   2.0000      -0.483899       -13.1676
  51   2.0000      -0.473203       -12.8765
  52   2.0000      -0.470254       -12.7963
  53   2.0000      -0.462287       -12.5795
  54   2.0000      -0.457891       -12.4599
  55   2.0000      -0.451949       -12.2982
  56   2.0000      -0.441971       -12.0266
  57   2.0000      -0.440641       -11.9904
  58   2.0000      -0.433334       -11.7916
  59   2.0000      -0.428921       -11.6715
  60   2.0000      -0.415039       -11.2938
  61   2.0000      -0.412339       -11.2203
  62   2.0000      -0.403821       -10.9885
  63   2.0000      -0.356414        -9.6985
  64   2.0000      -0.332472        -9.0470
  65   2.0000      -0.329637        -8.9699
  66   2.0000      -0.284755        -7.7486
  67   0.0000       0.017842         0.4855
  68   0.0000       0.068918         1.8754
  69   0.0000       0.096959         2.6384
  70   0.0000       0.118342         3.2203
  71   0.0000       0.122781         3.3410

MULLIKEN ATOMIC CHARGES
-----------------------
   0 S :    0.104113
   1 C :   -0.124768
   2 C :   -0.072980
   3 C :    0.032808
   4 C :   -0.122151
   5 H :   -0.005425
   6 C :    0.124927
   7 H :   -0.006557
   8 H :    0.024596
   9 C :   -0.091292
  10 H :    0.029861
  11 H :    0.033047
  12 C :   -0.086832
  13 H :    0.042947
  14 H :    0.047919
  15 H :    0.028742
  16 S :    0.091022
  17 C :   -0.095184
  18 C :   -0.032252
  19 C :   -0.082714
  20 C :   -0.116791
  21 H :    0.063317
  22 C :    0.034999
  23 H :    0.028723
  24 H :    0.023370
  25 C :   -0.042636
  26 H :    0.034687
  27 H :    0.042803
  28 C :   -0.097269
  29 H :    0.036962
  30 H :    0.034264
  31 H :    0.017943
  32 H :    0.054168
  33 H :    0.045635
Sum of atomic charges:   -0.0000000

LOEWDIN ATOMIC CHARGES
----------------------
   0 S :    0.401879
   1 C :   -0.183258
   2 C :   -0.053955
   3 C :   -0.033642
   4 C :   -0.194249
   5 H :    0.016347
   6 C :   -0.031331
   7 H :    0.026162
   8 H :    0.031804
   9 C :   -0.028423
  10 H :    0.018748
  11 H :    0.020871
  12 C :   -0.073018
  13 H :    0.027641
  14 H :    0.026886
  15 H :    0.024416
  16 S :    0.406081
  17 C :   -0.172824
  18 C :   -0.074540
  19 C :   -0.063922
  20 C :   -0.216551
  21 H :    0.055529
  22 C :   -0.041428
  23 H :    0.028738
  24 H :    0.033580
  25 C :   -0.037334
  26 H :    0.019349
  27 H :    0.033675
  28 C :   -0.077779
  29 H :    0.023571
  30 H :    0.027456
  31 H :    0.015974
  32 H :    0.025626
  33 H :    0.017921

  Mayer bond orders larger than 0.100000
B(  0-S ,  1-C ) :   1.1603 B(  0-S ,  4-C ) :   1.1262 B(  1-C ,  2-C ) :   1.5896
B(  1-C , 32-H ) :   0.9591 B(  2-C ,  3-C ) :   1.2356 B(  2-C ,  6-C ) :   1.0472
B(  3-C ,  4-C ) :   1.5460 B(  3-C ,  5-H ) :   0.9951 B(  4-C , 20-C ) :   1.0857
B(  6-C ,  7-H ) :   0.9276 B(  6-C ,  8-H ) :   0.9398 B(  6-C ,  9-C ) :   1.0556
B(  9-C , 10-H ) :   0.9620 B(  9-C , 11-H ) :   0.9607 B(  9-C , 12-C ) :   1.0664
B( 12-C , 13-H ) :   0.9727 B( 12-C , 14-H ) :   0.9775 B( 12-C , 15-H ) :   0.9764
B( 16-S , 17-C ) :   1.1552 B( 16-S , 20-C ) :   1.1230 B( 17-C , 18-C ) :   1.6145
B( 17-C , 33-H ) :   0.9710 B( 18-C , 19-C ) :   1.2399 B( 18-C , 21-H ) :   0.9777
B( 19-C , 20-C ) :   1.5957 B( 19-C , 22-C ) :   1.0326 B( 22-C , 23-H ) :   0.9315
B( 22-C , 24-H ) :   0.9398 B( 22-C , 25-C ) :   1.0726 B( 25-C , 26-H ) :   0.9532
B( 25-C , 27-H ) :   0.9572 B( 25-C , 28-C ) :   1.0646 B( 28-C , 29-H ) :   0.9784
B( 28-C , 30-H ) :   0.9783 B( 28-C , 31-H ) :   0.9778

Dispersion correction           -0.014866269
FINAL SINGLE POINT ENERGY     -1339.854898413190

DIPOLE MOMENT
-------------
                                X             Y             Z
Electronic contribution:      9.60424      -2.80074      25.16997
Nuclear contribution   :     -9.41650       2.82638     -25.67299
                        -----------------------------------------
Total Dipole Moment    :      0.18774       0.02565      -0.50302
                        -----------------------------------------
Magnitude (a.u.)       :      0.53752
Magnitude (Debye)      :      1.36628

Rotational constants in cm-1:     0.020325     0.008947     0.007051
Rotational constants in MHz :   609.333769   268.233710   211.391009

                             ****ORCA TERMINATED NORMALLY****
TOTAL RUN TIME: 0 days 0 hours 0 minutes 30 seconds 597 msec
