                         Program Version 4.2.1 -  RELEASE  -
|  1> ! wB97X-D3 SP def2-SVP
|  2> %pal
|  3> nprocs 16
|  4> end
|  5>
|  6> * xyz 0 1
|  7> S 	 -56.2211 	 37.3737 	 117.34
|  8> C 	 -56.6448 	 35.8058 	 117.91
|  9> C 	 -57.507 	 35.1676 	 117.09
| 10> C 	 -57.7552 	 35.8971 	 115.878
| 11> C 	 -57.0808 	 37.1441 	 115.804
| 12> H 	 -58.3082 	 35.5183 	 115.003
| 13> C 	 -58.1224 	 33.8501 	 117.378
| 14> H 	 -59.1714 	 34.082 	 117.771
| 15> H 	 -57.7617 	 33.4214 	 118.267
| 16> C 	 -58.0744 	 32.8766 	 116.115
| 17> H 	 -58.4961 	 31.9007 	 116.295
| 18> H 	 -58.68 	 33.2434 	 115.259
| 19> C 	 -56.6661 	 32.689 	 115.558
| 20> H 	 -56.0419 	 32.5011 	 116.392
| 21> H 	 -56.6107 	 31.8022 	 115.001
| 22> H 	 -56.4578 	 33.5755 	 114.939
| 23> S 	 -57.9334 	 39.7584 	 115
| 24> C 	 -57.667 	 40.227 	 113.351
| 25> C 	 -57.1108 	 39.1874 	 112.651
| 26> C 	 -56.8763 	 37.9808 	 113.396
| 27> C 	 -57.1964 	 38.1554 	 114.742
| 28> H 	 -56.8392 	 39.415 	 111.671
| 29> C 	 -56.4158 	 36.7302 	 112.663
| 30> H 	 -56.5148 	 35.916 	 113.416
| 31> H 	 -55.4041 	 36.7432 	 112.351
| 32> C 	 -57.2714 	 36.2824 	 111.42
| 33> H 	 -56.8878 	 35.3172 	 111.027
| 34> H 	 -57.1207 	 37.1244 	 110.728
| 35> C 	 -58.7988 	 36.2769 	 111.698
| 36> H 	 -59.1273 	 37.1659 	 112.164
| 37> H 	 -59.0563 	 35.4125 	 112.342
| 38> H 	 -59.4397 	 36.1532 	 110.786
| 39> H 	 -56.327 	 35.34 	 118.853
| 40> H 	 -58.0012 	 41.1464 	 112.826
| 41> *
| 42>
| 43>                          ****END OF INPUT****

CARTESIAN COORDINATES (ANGSTROEM)
---------------------------------
  S    -56.221100   37.373700  117.340000
  C    -56.644800   35.805800  117.910000
  C    -57.507000   35.167600  117.090000
  C    -57.755200   35.897100  115.878000
  C    -57.080800   37.144100  115.804000
  H    -58.308200   35.518300  115.003000
  C    -58.122400   33.850100  117.378000
  H    -59.171400   34.082000  117.771000
  H    -57.761700   33.421400  118.267000
  C    -58.074400   32.876600  116.115000
  H    -58.496100   31.900700  116.295000
  H    -58.680000   33.243400  115.259000
  C    -56.666100   32.689000  115.558000
  H    -56.041900   32.501100  116.392000
  H    -56.610700   31.802200  115.001000
  H    -56.457800   33.575500  114.939000
  S    -57.933400   39.758400  115.000000
  C    -57.667000   40.227000  113.351000
  C    -57.110800   39.187400  112.651000
  C    -56.876300   37.980800  113.396000
  C    -57.196400   38.155400  114.742000
  H    -56.839200   39.415000  111.671000
  C    -56.415800   36.730200  112.663000
  H    -56.514800   35.916000  113.416000
  H    -55.404100   36.743200  112.351000
  C    -57.271400   36.282400  111.420000
  H    -56.887800   35.317200  111.027000
  H    -57.120700   37.124400  110.728000
  C    -58.798800   36.276900  111.698000
  H    -59.127300   37.165900  112.164000
  H    -59.056300   35.412500  112.342000
  H    -59.439700   36.153200  110.786000
  H    -56.327000   35.340000  118.853000
  H    -58.001200   41.146400  112.826000

 Total Charge           Charge          ....    0
 Multiplicity           Mult            ....    1
 Number of Electrons    NEL             ....  134
 Basis Dimension        Dim             ....  322

ORBITAL ENERGIES
----------------

  NO   OCC          E(Eh)            E(eV)
   0   2.0000     -88.967975     -2420.9417
   1   2.0000     -88.965554     -2420.8758
   2   2.0000     -10.335912      -281.2545
   3   2.0000     -10.333876      -281.1991
   4   2.0000     -10.319366      -280.8042
   5   2.0000     -10.309881      -280.5461
   6   2.0000     -10.307664      -280.4858
   7   2.0000     -10.299984      -280.2768
   8   2.0000     -10.296768      -280.1893
   9   2.0000     -10.295855      -280.1645
  10   2.0000     -10.295551      -280.1562
  11   2.0000     -10.292391      -280.0702
  12   2.0000     -10.290827      -280.0276
  13   2.0000     -10.287652      -279.9413
  14   2.0000     -10.278236      -279.6850
  15   2.0000     -10.268870      -279.4302
  16   2.0000      -8.082288      -219.9302
  17   2.0000      -8.080240      -219.8745
  18   2.0000      -6.040957      -164.3828
  19   2.0000      -6.038795      -164.3240
  20   2.0000      -6.036785      -164.2693
  21   2.0000      -6.034660      -164.2115
  22   2.0000      -6.032958      -164.1651
  23   2.0000      -6.031047      -164.1131
  24   2.0000      -1.003626       -27.3100
  25   2.0000      -0.986068       -26.8323
  26   2.0000      -0.910286       -24.7701
  27   2.0000      -0.904789       -24.6206
  28   2.0000      -0.871028       -23.7019
  29   2.0000      -0.847536       -23.0626
  30   2.0000      -0.841932       -22.9101
  31   2.0000      -0.815848       -22.2004
  32   2.0000      -0.785279       -21.3685
  33   2.0000      -0.773905       -21.0590
  34   2.0000      -0.712662       -19.3925
  35   2.0000      -0.695659       -18.9298
  36   2.0000      -0.691617       -18.8199
  37   2.0000      -0.654056       -17.7978
  38   2.0000      -0.637212       -17.3394
  39   2.0000      -0.624223       -16.9860
  40   2.0000      -0.595399       -16.2016
  41   2.0000      -0.571256       -15.5447
  42   2.0000      -0.553368       -15.0579
  43   2.0000      -0.550999       -14.9935
  44   2.0000      -0.545991       -14.8572
  45   2.0000      -0.542051       -14.7500
  46   2.0000      -0.517400       -14.0792
  47   2.0000      -0.512427       -13.9438
  48   2.0000      -0.500946       -13.6314
  49   2.0000      -0.495420       -13.4811
  50   2.0000      -0.491606       -13.3773
  51   2.0000      -0.475114       -12.9285
  52   2.0000      -0.471603       -12.8330
  53   2.0000      -0.465108       -12.6562
  54   2.0000      -0.457962       -12.4618
  55   2.0000      -0.445371       -12.1192
  56   2.0000      -0.440450       -11.9852
  57   2.0000      -0.438987       -11.9454
  58   2.0000      -0.436995       -11.8912
  59   2.0000      -0.426155       -11.5963
  60   2.0000      -0.423444       -11.5225
  61   2.0000      -0.415325       -11.3016
  62   2.0000      -0.405620       -11.0375
  63   2.0000      -0.344659        -9.3786
  64   2.0000      -0.331475        -9.0199
  65   2.0000      -0.326428        -8.8825
  66   2.0000      -0.297387        -8.0923
  67   0.0000       0.033928         0.9232
  68   0.0000       0.063407         1.7254
  69   0.0000       0.116622         3.1734
  70   0.0000       0.118584         3.2268
  71   0.0000       0.124579         3.3900

MULLIKEN ATOMIC CHARGES
-----------------------
   0 S :    0.115926
   1 C :   -0.120877
   2 C :   -0.102163
   3 C :    0.029600
   4 C :   -0.183464
   5 H :    0.017799
   6 C :    0.101292
   7 H :    0.048234
   8 H :   -0.004995
   9 C :   -0.116487
  10 H :    0.024088
  11 H :    0.031726
  12 C :   -0.011484
  13 H :    0.021042
  14 H :    0.018578
  15 H :    0.053884
  16 S :    0.116381
  17 C :   -0.106256
  18 C :   -0.032080
  19 C :   -0.042802
  20 C :   -0.152136
  21 H :   -0.001156
  22 C :    0.097171
  23 H :    0.016055
  24 H :    0.034698
  25 C :   -0.096766
  26 H :    0.047148
  27 H :    0.031125
  28 C :   -0.064173
  29 H :    0.040697
  30 H :    0.030090
  31 H :    0.038257
  32 H :    0.048422
  33 H :    0.072627
Sum of atomic charges:   -0.0000000

LOEWDIN ATOMIC CHARGES
----------------------
   0 S :    0.408955
   1 C :   -0.206733
   2 C :   -0.074315
   3 C :   -0.057812
   4 C :   -0.188832
   5 H :    0.031393
   6 C :   -0.032188
   7 H :    0.046609
   8 H :    0.019762
   9 C :   -0.041279
  10 H :    0.019811
  11 H :    0.023564
  12 C :   -0.057956
  13 H :    0.021878
  14 H :    0.020222
  15 H :    0.030785
  16 S :    0.401116
  17 C :   -0.194254
  18 C :   -0.072459
  19 C :   -0.050120
  20 C :   -0.194552
  21 H :    0.020155
  22 C :   -0.030387
  23 H :    0.028270
  24 H :    0.028780
  25 C :   -0.036332
  26 H :    0.030473
  27 H :    0.021265
  28 C :   -0.070013
  29 H :    0.021435
  30 H :    0.022717
  31 H :    0.031437
  32 H :    0.035137
  33 H :    0.043468

  Mayer bond orders larger than 0.100000
B(  0-S ,  1-C ) :   1.1402 B(  0-S ,  4-C ) :   1.1524 B(  1-C ,  2-C ) :   1.6218
B(  1-C , 32-H ) :   0.9584 B(  2-C ,  3-C ) :   1.2412 B(  2-C ,  6-C ) :   1.0297
B(  3-C ,  4-C ) :   1.5567 B(  3-C ,  5-H ) :   0.9858 B(  4-C , 20-C ) :   1.0466
B(  6-C ,  7-H ) :   0.9323 B(  6-C ,  8-H ) :   0.9381 B(  6-C ,  9-C ) :   1.0491
B(  9-C , 10-H ) :   0.9613 B(  9-C , 11-H ) :   0.9585 B(  9-C , 12-C ) :   1.0775
B( 12-C , 13-H ) :   0.9751 B( 12-C , 14-H ) :   0.9706 B( 12-C , 15-H ) :   0.9712
B( 16-S , 17-C ) :   1.1470 B( 16-S , 20-C ) :   1.1378 B( 17-C , 18-C ) :   1.6341
B( 17-C , 33-H ) :   0.9593 B( 18-C , 19-C ) :   1.2176 B( 18-C , 21-H ) :   0.9974
B( 19-C , 20-C ) :   1.5970 B( 19-C , 22-C ) :   1.0400 B( 22-C , 23-H ) :   0.9305
B( 22-C , 24-H ) :   0.9342 B( 22-C , 25-C ) :   1.0604 B( 25-C , 26-H ) :   0.9594
B( 25-C , 27-H ) :   0.9554 B( 25-C , 28-C ) :   1.0738 B( 28-C , 29-H ) :   0.9714
B( 28-C , 30-H ) :   0.9743 B( 28-C , 31-H ) :   0.9741

Dispersion correction           -0.015915879
FINAL SINGLE POINT ENERGY     -1339.875482970933

DIPOLE MOMENT
-------------
                                X             Y             Z
Electronic contribution:      4.23501      24.72516      14.17895
Nuclear contribution   :     -4.39394     -25.29126     -14.57869
                        -----------------------------------------
Total Dipole Moment    :     -0.15893      -0.56610      -0.39975
                        -----------------------------------------
Magnitude (a.u.)       :      0.71100
Magnitude (Debye)      :      1.80722

Rotational constants in cm-1:     0.018530     0.010181     0.007339
Rotational constants in MHz :   555.503913   305.206123   220.022826

                             ****ORCA TERMINATED NORMALLY****
TOTAL RUN TIME: 0 days 0 hours 0 minutes 32 seconds 40 msec
