                         Program Version 4.2.1 -  RELEASE  -
|  1> ! wB97X-D3 SP def2-SVP
|  2> %pal
|  3> nprocs 16
|  4> end
|  5>
|  6> * xyz 0 1
|  7> S 	 -36.4104 	 67.9684 	 171.254
|  8> C 	 -34.9841 	 69.0154 	 171.47
|  9> C 	 -35.2239 	 70.2295 	 170.884
| 10> C 	 -36.5139 	 70.4504 	 170.27
| 11> C 	 -37.3071 	 69.2699 	 170.408
| 12> H 	 -36.8458 	 71.3165 	 169.801
| 13> C 	 -34.2011 	 71.3249 	 170.701
| 14> H 	 -33.2407 	 71.061 	 171.218
| 15> H 	 -34.5281 	 72.1962 	 171.173
| 16> C 	 -33.5967 	 71.4951 	 169.237
| 17> H 	 -33.3938 	 70.5644 	 168.825
| 18> H 	 -34.4748 	 71.7472 	 168.595
| 19> C 	 -32.2991 	 72.2666 	 168.963
| 20> H 	 -32.1689 	 72.5332 	 167.921
| 21> H 	 -32.2453 	 73.0726 	 169.64
| 22> H 	 -31.3634 	 71.8029 	 169.34
| 23> S 	 -39.4685 	 69.8182 	 168.698
| 24> C 	 -41.0036 	 69.0078 	 168.942
| 25> C 	 -41.0509 	 68.5239 	 170.206
| 26> C 	 -39.8278 	 68.7232 	 171.047
| 27> C 	 -38.8138 	 69.1888 	 170.232
| 28> H 	 -42.0467 	 68.1227 	 170.454
| 29> C 	 -39.7858 	 68.3553 	 172.511
| 30> H 	 -38.7996 	 68.1015 	 172.88
| 31> H 	 -40.2464 	 67.3787 	 172.685
| 32> C 	 -40.5204 	 69.3303 	 173.426
| 33> H 	 -40.7807 	 68.6409 	 174.247
| 34> H 	 -41.467 	 69.6927 	 172.996
| 35> C 	 -39.5687 	 70.5154 	 173.841
| 36> H 	 -39.0548 	 71.0539 	 173.019
| 37> H 	 -38.8059 	 70.1704 	 174.537
| 38> H 	 -40.2178 	 71.2053 	 174.411
| 39> H 	 -34.1088 	 68.7348 	 172.014
| 40> H 	 -41.7464 	 68.7062 	 168.227
| 41> *
| 42>
| 43>                          ****END OF INPUT****

CARTESIAN COORDINATES (ANGSTROEM)
---------------------------------
  S    -36.410400   67.968400  171.254000
  C    -34.984100   69.015400  171.470000
  C    -35.223900   70.229500  170.884000
  C    -36.513900   70.450400  170.270000
  C    -37.307100   69.269900  170.408000
  H    -36.845800   71.316500  169.801000
  C    -34.201100   71.324900  170.701000
  H    -33.240700   71.061000  171.218000
  H    -34.528100   72.196200  171.173000
  C    -33.596700   71.495100  169.237000
  H    -33.393800   70.564400  168.825000
  H    -34.474800   71.747200  168.595000
  C    -32.299100   72.266600  168.963000
  H    -32.168900   72.533200  167.921000
  H    -32.245300   73.072600  169.640000
  H    -31.363400   71.802900  169.340000
  S    -39.468500   69.818200  168.698000
  C    -41.003600   69.007800  168.942000
  C    -41.050900   68.523900  170.206000
  C    -39.827800   68.723200  171.047000
  C    -38.813800   69.188800  170.232000
  H    -42.046700   68.122700  170.454000
  C    -39.785800   68.355300  172.511000
  H    -38.799600   68.101500  172.880000
  H    -40.246400   67.378700  172.685000
  C    -40.520400   69.330300  173.426000
  H    -40.780700   68.640900  174.247000
  H    -41.467000   69.692700  172.996000
  C    -39.568700   70.515400  173.841000
  H    -39.054800   71.053900  173.019000
  H    -38.805900   70.170400  174.537000
  H    -40.217800   71.205300  174.411000
  H    -34.108800   68.734800  172.014000
  H    -41.746400   68.706200  168.227000

 Total Charge           Charge          ....    0
 Multiplicity           Mult            ....    1
 Number of Electrons    NEL             ....  134
 Basis Dimension        Dim             ....  322

ORBITAL ENERGIES
----------------

  NO   OCC          E(Eh)            E(eV)
   0   2.0000     -88.972562     -2421.0665
   1   2.0000     -88.959160     -2420.7018
   2   2.0000     -10.346281      -281.5366
   3   2.0000     -10.335806      -281.2516
   4   2.0000     -10.319141      -280.7981
   5   2.0000     -10.313208      -280.6367
   6   2.0000     -10.312428      -280.6154
   7   2.0000     -10.305544      -280.4281
   8   2.0000     -10.300628      -280.2943
   9   2.0000     -10.297063      -280.1973
  10   2.0000     -10.292653      -280.0773
  11   2.0000     -10.289829      -280.0005
  12   2.0000     -10.287155      -279.9277
  13   2.0000     -10.285633      -279.8863
  14   2.0000     -10.279019      -279.7063
  15   2.0000     -10.278461      -279.6911
  16   2.0000      -8.085524      -220.0183
  17   2.0000      -8.073850      -219.7006
  18   2.0000      -6.044225      -164.4717
  19   2.0000      -6.040195      -164.3621
  20   2.0000      -6.036260      -164.2550
  21   2.0000      -6.032673      -164.1574
  22   2.0000      -6.028525      -164.0445
  23   2.0000      -6.024120      -163.9246
  24   2.0000      -0.996755       -27.1231
  25   2.0000      -0.978371       -26.6228
  26   2.0000      -0.906393       -24.6642
  27   2.0000      -0.902792       -24.5662
  28   2.0000      -0.865341       -23.5471
  29   2.0000      -0.850097       -23.1323
  30   2.0000      -0.836101       -22.7515
  31   2.0000      -0.816050       -22.2058
  32   2.0000      -0.781968       -21.2784
  33   2.0000      -0.773668       -21.0526
  34   2.0000      -0.709441       -19.3049
  35   2.0000      -0.703584       -19.1455
  36   2.0000      -0.691215       -18.8089
  37   2.0000      -0.656331       -17.8597
  38   2.0000      -0.642599       -17.4860
  39   2.0000      -0.618046       -16.8179
  40   2.0000      -0.597477       -16.2582
  41   2.0000      -0.569117       -15.4865
  42   2.0000      -0.552890       -15.0449
  43   2.0000      -0.546763       -14.8782
  44   2.0000      -0.530995       -14.4491
  45   2.0000      -0.527438       -14.3523
  46   2.0000      -0.520644       -14.1674
  47   2.0000      -0.517262       -14.0754
  48   2.0000      -0.505367       -13.7517
  49   2.0000      -0.495396       -13.4804
  50   2.0000      -0.490689       -13.3523
  51   2.0000      -0.480912       -13.0863
  52   2.0000      -0.476696       -12.9716
  53   2.0000      -0.469794       -12.7837
  54   2.0000      -0.454897       -12.3784
  55   2.0000      -0.451434       -12.2841
  56   2.0000      -0.436375       -11.8744
  57   2.0000      -0.434455       -11.8221
  58   2.0000      -0.428493       -11.6599
  59   2.0000      -0.418753       -11.3949
  60   2.0000      -0.413161       -11.2427
  61   2.0000      -0.409577       -11.1452
  62   2.0000      -0.396386       -10.7862
  63   2.0000      -0.352049        -9.5797
  64   2.0000      -0.331866        -9.0305
  65   2.0000      -0.321977        -8.7614
  66   2.0000      -0.293243        -7.9795
  67   0.0000       0.021550         0.5864
  68   0.0000       0.067317         1.8318
  69   0.0000       0.105194         2.8625
  70   0.0000       0.112161         3.0520
  71   0.0000       0.131704         3.5839

MULLIKEN ATOMIC CHARGES
-----------------------
   0 S :    0.098500
   1 C :   -0.115380
   2 C :   -0.077302
   3 C :    0.046937
   4 C :   -0.105610
   5 H :    0.004890
   6 C :    0.054816
   7 H :    0.009943
   8 H :    0.026517
   9 C :   -0.068579
  10 H :    0.013091
  11 H :    0.021807
  12 C :   -0.022363
  13 H :    0.050845
  14 H :    0.008068
  15 H :    0.024081
  16 S :    0.074145
  17 C :   -0.078956
  18 C :   -0.058714
  19 C :   -0.028002
  20 C :   -0.156451
  21 H :    0.028967
  22 C :    0.063435
  23 H :    0.009567
  24 H :    0.017531
  25 C :   -0.077744
  26 H :    0.030326
  27 H :    0.036862
  28 C :   -0.057044
  29 H :    0.053724
  30 H :    0.032079
  31 H :    0.032614
  32 H :    0.047081
  33 H :    0.060319
Sum of atomic charges:   -0.0000000

LOEWDIN ATOMIC CHARGES
----------------------
   0 S :    0.390267
   1 C :   -0.184597
   2 C :   -0.059541
   3 C :   -0.051328
   4 C :   -0.166590
   5 H :    0.022391
   6 C :   -0.031265
   7 H :    0.029584
   8 H :    0.020313
   9 C :   -0.043798
  10 H :    0.017884
  11 H :    0.024272
  12 C :   -0.067126
  13 H :    0.034207
  14 H :    0.018280
  15 H :    0.030831
  16 S :    0.366966
  17 C :   -0.186100
  18 C :   -0.071565
  19 C :   -0.053838
  20 C :   -0.182008
  21 H :    0.034477
  22 C :   -0.042287
  23 H :    0.021123
  24 H :    0.031360
  25 C :   -0.036257
  26 H :    0.029214
  27 H :    0.025213
  28 C :   -0.068230
  29 H :    0.032749
  30 H :    0.024767
  31 H :    0.026058
  32 H :    0.028939
  33 H :    0.035634

  Mayer bond orders larger than 0.100000
B(  0-S ,  1-C ) :   1.1125 B(  0-S ,  4-C ) :   1.1604 B(  1-C ,  2-C ) :   1.6271
B(  1-C , 32-H ) :   0.9727 B(  2-C ,  3-C ) :   1.2278 B(  2-C ,  6-C ) :   1.0396
B(  3-C ,  4-C ) :   1.5495 B(  3-C ,  5-H ) :   0.9987 B(  4-C , 20-C ) :   1.0110
B(  6-C ,  7-H ) :   0.9472 B(  6-C ,  8-H ) :   0.9392 B(  6-C ,  9-C ) :   1.0401
B(  9-C , 10-H ) :   0.9539 B(  9-C , 11-H ) :   0.9558 B(  9-C , 12-C ) :   1.0778
B( 12-C , 13-H ) :   0.9728 B( 12-C , 14-H ) :   0.9742 B( 12-C , 15-H ) :   0.9690
B( 16-S , 17-C ) :   1.1103 B( 16-S , 20-C ) :   1.1123 B( 17-C , 18-C ) :   1.7087
B( 17-C , 33-H ) :   0.9634 B( 18-C , 19-C ) :   1.1501 B( 18-C , 21-H ) :   0.9794
B( 19-C , 20-C ) :   1.6431 B( 19-C , 22-C ) :   1.0529 B( 22-C , 23-H ) :   0.9283
B( 22-C , 24-H ) :   0.9359 B( 22-C , 25-C ) :   1.0614 B( 25-C , 26-H ) :   0.9563
B( 25-C , 27-H ) :   0.9627 B( 25-C , 28-C ) :   1.0647 B( 28-C , 29-H ) :   0.9780
B( 28-C , 30-H ) :   0.9759 B( 28-C , 31-H ) :   0.9765

Dispersion correction           -0.014394352
FINAL SINGLE POINT ENERGY     -1339.837215717685

DIPOLE MOMENT
-------------
                                X             Y             Z
Electronic contribution:     -9.84512     -11.92732      -9.09812
Nuclear contribution   :      9.91319      12.00301       9.44181
                        -----------------------------------------
Total Dipole Moment    :      0.06808       0.07570       0.34369
                        -----------------------------------------
Magnitude (a.u.)       :      0.35845
Magnitude (Debye)      :      0.91111

Rotational constants in cm-1:     0.021219     0.007589     0.006599
Rotational constants in MHz :   636.116096   227.508069   197.832538

                             ****ORCA TERMINATED NORMALLY****
TOTAL RUN TIME: 0 days 0 hours 0 minutes 33 seconds 282 msec
