                         Program Version 4.2.1 -  RELEASE  -
|  1> ! wB97X-D3 SP def2-SVP
|  2> %pal
|  3> nprocs 16
|  4> end
|  5>
|  6> * xyz 0 1
|  7> S 	 -92.9266 	 60.3293 	 128.558
|  8> C 	 -91.469 	 60.7247 	 129.533
|  9> C 	 -91.6888 	 60.7212 	 130.886
| 10> C 	 -93.0829 	 60.3123 	 131.169
| 11> C 	 -93.9102 	 60.2997 	 130.029
| 12> H 	 -93.4766 	 60.1891 	 132.171
| 13> C 	 -90.8404 	 61.1918 	 131.993
| 14> H 	 -91.5179 	 61.849 	 132.506
| 15> H 	 -90.058 	 61.8713 	 131.561
| 16> C 	 -90.2064 	 60.1271 	 132.96
| 17> H 	 -90.9189 	 59.3469 	 133.206
| 18> H 	 -89.3239 	 59.6049 	 132.526
| 19> C 	 -89.8078 	 60.6182 	 134.337
| 20> H 	 -88.9983 	 61.3431 	 134.342
| 21> H 	 -90.6086 	 61.201 	 134.726
| 22> H 	 -89.5374 	 59.7371 	 134.925
| 23> S 	 -96.1013 	 58.6191 	 129.191
| 24> C 	 -97.7074 	 59.1063 	 129.605
| 25> C 	 -97.6869 	 60.2912 	 130.277
| 26> C 	 -96.3979 	 60.8727 	 130.51
| 27> C 	 -95.3477 	 60.056 	 130.026
| 28> H 	 -98.6035 	 60.8134 	 130.605
| 29> C 	 -96.227 	 62.2096 	 131.195
| 30> H 	 -96.8758 	 63.0053 	 130.842
| 31> H 	 -95.2845 	 62.5788 	 130.889
| 32> C 	 -95.9973 	 62.1402 	 132.667
| 33> H 	 -95.1483 	 61.4669 	 132.985
| 34> H 	 -96.9522 	 61.7677 	 133.144
| 35> C 	 -95.7979 	 63.5681 	 133.242
| 36> H 	 -96.6925 	 64.2341 	 133.053
| 37> H 	 -94.9111 	 64.0611 	 132.817
| 38> H 	 -95.6657 	 63.4529 	 134.31
| 39> H 	 -90.5773 	 61.2025 	 129.185
| 40> H 	 -98.5492 	 58.4462 	 129.396
| 41> *
| 42>
| 43>                          ****END OF INPUT****

CARTESIAN COORDINATES (ANGSTROEM)
---------------------------------
  S    -92.926600   60.329300  128.558000
  C    -91.469000   60.724700  129.533000
  C    -91.688800   60.721200  130.886000
  C    -93.082900   60.312300  131.169000
  C    -93.910200   60.299700  130.029000
  H    -93.476600   60.189100  132.171000
  C    -90.840400   61.191800  131.993000
  H    -91.517900   61.849000  132.506000
  H    -90.058000   61.871300  131.561000
  C    -90.206400   60.127100  132.960000
  H    -90.918900   59.346900  133.206000
  H    -89.323900   59.604900  132.526000
  C    -89.807800   60.618200  134.337000
  H    -88.998300   61.343100  134.342000
  H    -90.608600   61.201000  134.726000
  H    -89.537400   59.737100  134.925000
  S    -96.101300   58.619100  129.191000
  C    -97.707400   59.106300  129.605000
  C    -97.686900   60.291200  130.277000
  C    -96.397900   60.872700  130.510000
  C    -95.347700   60.056000  130.026000
  H    -98.603500   60.813400  130.605000
  C    -96.227000   62.209600  131.195000
  H    -96.875800   63.005300  130.842000
  H    -95.284500   62.578800  130.889000
  C    -95.997300   62.140200  132.667000
  H    -95.148300   61.466900  132.985000
  H    -96.952200   61.767700  133.144000
  C    -95.797900   63.568100  133.242000
  H    -96.692500   64.234100  133.053000
  H    -94.911100   64.061100  132.817000
  H    -95.665700   63.452900  134.310000
  H    -90.577300   61.202500  129.185000
  H    -98.549200   58.446200  129.396000

 Total Charge           Charge          ....    0
 Multiplicity           Mult            ....    1
 Number of Electrons    NEL             ....  134
 Basis Dimension        Dim             ....  322

ORBITAL ENERGIES
----------------

  NO   OCC          E(Eh)            E(eV)
   0   2.0000     -88.967660     -2420.9331
   1   2.0000     -88.963170     -2420.8109
   2   2.0000     -10.337218      -281.2900
   3   2.0000     -10.333840      -281.1981
   4   2.0000     -10.318852      -280.7902
   5   2.0000     -10.315001      -280.6854
   6   2.0000     -10.307440      -280.4797
   7   2.0000     -10.304392      -280.3968
   8   2.0000     -10.301908      -280.3292
   9   2.0000     -10.299731      -280.2699
  10   2.0000     -10.293753      -280.1073
  11   2.0000     -10.293511      -280.1007
  12   2.0000     -10.293180      -280.0917
  13   2.0000     -10.283821      -279.8370
  14   2.0000     -10.283558      -279.8298
  15   2.0000     -10.277112      -279.6544
  16   2.0000      -8.081310      -219.9036
  17   2.0000      -8.077391      -219.7970
  18   2.0000      -6.040163      -164.3612
  19   2.0000      -6.036127      -164.2514
  20   2.0000      -6.035991      -164.2477
  21   2.0000      -6.031879      -164.1358
  22   2.0000      -6.031591      -164.1279
  23   2.0000      -6.028174      -164.0349
  24   2.0000      -0.997198       -27.1351
  25   2.0000      -0.977657       -26.6034
  26   2.0000      -0.915775       -24.9195
  27   2.0000      -0.913591       -24.8601
  28   2.0000      -0.871541       -23.7158
  29   2.0000      -0.851052       -23.1583
  30   2.0000      -0.843698       -22.9582
  31   2.0000      -0.810056       -22.0427
  32   2.0000      -0.784235       -21.3401
  33   2.0000      -0.773695       -21.0533
  34   2.0000      -0.706430       -19.2229
  35   2.0000      -0.703255       -19.1365
  36   2.0000      -0.691904       -18.8277
  37   2.0000      -0.655733       -17.8434
  38   2.0000      -0.636719       -17.3260
  39   2.0000      -0.618171       -16.8213
  40   2.0000      -0.603080       -16.4107
  41   2.0000      -0.567502       -15.4425
  42   2.0000      -0.566754       -15.4221
  43   2.0000      -0.558159       -15.1883
  44   2.0000      -0.538912       -14.6645
  45   2.0000      -0.528133       -14.3712
  46   2.0000      -0.516740       -14.0612
  47   2.0000      -0.512099       -13.9349
  48   2.0000      -0.506123       -13.7723
  49   2.0000      -0.501420       -13.6443
  50   2.0000      -0.496774       -13.5179
  51   2.0000      -0.476253       -12.9595
  52   2.0000      -0.467933       -12.7331
  53   2.0000      -0.455468       -12.3939
  54   2.0000      -0.454645       -12.3715
  55   2.0000      -0.453348       -12.3362
  56   2.0000      -0.445304       -12.1173
  57   2.0000      -0.441169       -12.0048
  58   2.0000      -0.437557       -11.9065
  59   2.0000      -0.426765       -11.6129
  60   2.0000      -0.419919       -11.4266
  61   2.0000      -0.415023       -11.2934
  62   2.0000      -0.408655       -11.1201
  63   2.0000      -0.340984        -9.2787
  64   2.0000      -0.330878        -9.0036
  65   2.0000      -0.325842        -8.8666
  66   2.0000      -0.297042        -8.0829
  67   0.0000       0.029716         0.8086
  68   0.0000       0.057571         1.5666
  69   0.0000       0.105040         2.8583
  70   0.0000       0.114745         3.1224
  71   0.0000       0.126311         3.4371

MULLIKEN ATOMIC CHARGES
-----------------------
   0 S :    0.106728
   1 C :   -0.095499
   2 C :   -0.095707
   3 C :    0.020406
   4 C :   -0.161077
   5 H :    0.020996
   6 C :    0.062023
   7 H :    0.023491
   8 H :    0.027766
   9 C :   -0.077826
  10 H :    0.028740
  11 H :    0.039452
  12 C :   -0.035301
  13 H :    0.022506
  14 H :    0.016334
  15 H :    0.045841
  16 S :    0.091522
  17 C :   -0.094647
  18 C :   -0.021251
  19 C :   -0.030152
  20 C :   -0.163710
  21 H :    0.023713
  22 C :    0.102060
  23 H :    0.027796
  24 H :   -0.002339
  25 C :   -0.106280
  26 H :    0.038325
  27 H :    0.027830
  28 C :   -0.060436
  29 H :    0.041376
  30 H :    0.033542
  31 H :    0.036027
  32 H :    0.036636
  33 H :    0.071114
Sum of atomic charges:   -0.0000000

LOEWDIN ATOMIC CHARGES
----------------------
   0 S :    0.375378
   1 C :   -0.182885
   2 C :   -0.059743
   3 C :   -0.052107
   4 C :   -0.185427
   5 H :    0.025453
   6 C :   -0.036061
   7 H :    0.031693
   8 H :    0.036712
   9 C :   -0.039819
  10 H :    0.025106
  11 H :    0.030132
  12 C :   -0.062435
  13 H :    0.020662
  14 H :    0.018767
  15 H :    0.032894
  16 S :    0.381322
  17 C :   -0.185815
  18 C :   -0.081083
  19 C :   -0.043118
  20 C :   -0.186707
  21 H :    0.034645
  22 C :   -0.040255
  23 H :    0.034480
  24 H :    0.027291
  25 C :   -0.041255
  26 H :    0.028195
  27 H :    0.023651
  28 C :   -0.068800
  29 H :    0.031316
  30 H :    0.022934
  31 H :    0.024655
  32 H :    0.024925
  33 H :    0.035297

  Mayer bond orders larger than 0.100000
B(  0-S ,  1-C ) :   1.1030 B(  0-S ,  4-C ) :   1.1240 B(  1-C ,  2-C ) :   1.6810
B(  1-C , 32-H ) :   0.9570 B(  2-C ,  3-C ) :   1.1824 B(  2-C ,  6-C ) :   1.0284
B(  3-C ,  4-C ) :   1.6102 B(  3-C ,  5-H ) :   0.9821 B(  4-C , 20-C ) :   1.0626
B(  6-C ,  7-H ) :   0.9404 B(  6-C ,  8-H ) :   0.9364 B(  6-C ,  9-C ) :   1.0470
B(  9-C , 10-H ) :   0.9626 B(  9-C , 11-H ) :   0.9548 B(  9-C , 12-C ) :   1.0822
B( 12-C , 13-H ) :   0.9747 B( 12-C , 14-H ) :   0.9740 B( 12-C , 15-H ) :   0.9742
B( 16-S , 17-C ) :   1.1611 B( 16-S , 20-C ) :   1.1234 B( 17-C , 18-C ) :   1.5850
B( 17-C , 33-H ) :   0.9677 B( 18-C , 19-C ) :   1.2602 B( 18-C , 21-H ) :   0.9871
B( 19-C , 20-C ) :   1.5819 B( 19-C , 22-C ) :   1.0438 B( 22-C , 23-H ) :   0.9409
B( 22-C , 24-H ) :   0.9107 B( 22-C , 25-C ) :   1.0648 B( 25-C , 26-H ) :   0.9486
B( 25-C , 27-H ) :   0.9531 B( 25-C , 28-C ) :   1.0802 B( 28-C , 29-H ) :   0.9737
B( 28-C , 30-H ) :   0.9745 B( 28-C , 31-H ) :   0.9743

Dispersion correction           -0.014146495
FINAL SINGLE POINT ENERGY     -1339.872416396969

DIPOLE MOMENT
-------------
                                X             Y             Z
Electronic contribution:     -9.55989     -14.71731     -26.95269
Nuclear contribution   :      9.60460      15.19724      27.63249
                        -----------------------------------------
Total Dipole Moment    :      0.04471       0.47993       0.67980
                        -----------------------------------------
Magnitude (a.u.)       :      0.83335
Magnitude (Debye)      :      2.11820

Rotational constants in cm-1:     0.017195     0.008701     0.006679
Rotational constants in MHz :   515.501257   260.838875   200.240468

                             ****ORCA TERMINATED NORMALLY****
TOTAL RUN TIME: 0 days 0 hours 0 minutes 34 seconds 783 msec
