                         Program Version 4.2.1 -  RELEASE  -
|  1> ! wB97X-D3 SP def2-SVP
|  2> %pal
|  3> nprocs 16
|  4> end
|  5>
|  6> * xyz 0 1
|  7> S 	 16.7096 	 -6.53623 	 80.1201
|  8> C 	 16.2987 	 -6.07021 	 78.4488
|  9> C 	 16.9558 	 -6.85173 	 77.4978
| 10> C 	 17.786 	 -7.80259 	 78.1961
| 11> C 	 17.7584 	 -7.83141 	 79.6165
| 12> H 	 18.3966 	 -8.54601 	 77.7195
| 13> C 	 16.8934 	 -6.60358 	 76.0218
| 14> H 	 17.8448 	 -6.8029 	 75.6195
| 15> H 	 16.591 	 -5.51451 	 75.8977
| 16> C 	 15.9573 	 -7.50631 	 75.2877
| 17> H 	 16.1368 	 -8.52719 	 75.4873
| 18> H 	 14.9066 	 -7.30829 	 75.4946
| 19> C 	 16.0395 	 -7.35207 	 73.7865
| 20> H 	 15.311 	 -8.04406 	 73.2895
| 21> H 	 15.8653 	 -6.32161 	 73.4873
| 22> H 	 17.0339 	 -7.59652 	 73.4698
| 23> S 	 19.7009 	 -7.65611 	 81.5289
| 24> C 	 20.341 	 -9.11165 	 82.243
| 25> C 	 19.8378 	 -10.2631 	 81.7376
| 26> C 	 18.8926 	 -9.95123 	 80.6927
| 27> C 	 18.5793 	 -8.57556 	 80.5472
| 28> H 	 20.1881 	 -11.2688 	 82.029
| 29> C 	 18.2946 	 -11.1179 	 79.8555
| 30> H 	 17.3167 	 -10.7217 	 79.5146
| 31> H 	 18.0856 	 -11.8795 	 80.5931
| 32> C 	 19.1212 	 -11.6516 	 78.6892
| 33> H 	 20.2081 	 -11.616 	 78.9617
| 34> H 	 18.9111 	 -10.9139 	 77.9085
| 35> C 	 18.6697 	 -12.9813 	 78.0541
| 36> H 	 17.6263 	 -12.8736 	 77.7522
| 37> H 	 18.6557 	 -13.7803 	 78.8282
| 38> H 	 19.3552 	 -13.2271 	 77.226
| 39> H 	 15.6701 	 -5.2443 	 78.1926
| 40> H 	 20.9812 	 -9.13059 	 83.1106
| 41> *
| 42>
| 43>                          ****END OF INPUT****

CARTESIAN COORDINATES (ANGSTROEM)
---------------------------------
  S     16.709600   -6.536230   80.120100
  C     16.298700   -6.070210   78.448800
  C     16.955800   -6.851730   77.497800
  C     17.786000   -7.802590   78.196100
  C     17.758400   -7.831410   79.616500
  H     18.396600   -8.546010   77.719500
  C     16.893400   -6.603580   76.021800
  H     17.844800   -6.802900   75.619500
  H     16.591000   -5.514510   75.897700
  C     15.957300   -7.506310   75.287700
  H     16.136800   -8.527190   75.487300
  H     14.906600   -7.308290   75.494600
  C     16.039500   -7.352070   73.786500
  H     15.311000   -8.044060   73.289500
  H     15.865300   -6.321610   73.487300
  H     17.033900   -7.596520   73.469800
  S     19.700900   -7.656110   81.528900
  C     20.341000   -9.111650   82.243000
  C     19.837800  -10.263100   81.737600
  C     18.892600   -9.951230   80.692700
  C     18.579300   -8.575560   80.547200
  H     20.188100  -11.268800   82.029000
  C     18.294600  -11.117900   79.855500
  H     17.316700  -10.721700   79.514600
  H     18.085600  -11.879500   80.593100
  C     19.121200  -11.651600   78.689200
  H     20.208100  -11.616000   78.961700
  H     18.911100  -10.913900   77.908500
  C     18.669700  -12.981300   78.054100
  H     17.626300  -12.873600   77.752200
  H     18.655700  -13.780300   78.828200
  H     19.355200  -13.227100   77.226000
  H     15.670100   -5.244300   78.192600
  H     20.981200   -9.130590   83.110600

 Total Charge           Charge          ....    0
 Multiplicity           Mult            ....    1
 Number of Electrons    NEL             ....  134
 Basis Dimension        Dim             ....  322

ORBITAL ENERGIES
----------------

  NO   OCC          E(Eh)            E(eV)
   0   2.0000     -88.966805     -2420.9098
   1   2.0000     -88.965202     -2420.8662
   2   2.0000     -10.333405      -281.1862
   3   2.0000     -10.330320      -281.1023
   4   2.0000     -10.317789      -280.7613
   5   2.0000     -10.315290      -280.6933
   6   2.0000     -10.310131      -280.5529
   7   2.0000     -10.305711      -280.4327
   8   2.0000     -10.299187      -280.2551
   9   2.0000     -10.295935      -280.1666
  10   2.0000     -10.295370      -280.1513
  11   2.0000     -10.290307      -280.0135
  12   2.0000     -10.289790      -279.9994
  13   2.0000     -10.285302      -279.8773
  14   2.0000     -10.278505      -279.6923
  15   2.0000     -10.277393      -279.6621
  16   2.0000      -8.081006      -219.8954
  17   2.0000      -8.080240      -219.8745
  18   2.0000      -6.039480      -164.3426
  19   2.0000      -6.038813      -164.3244
  20   2.0000      -6.035467      -164.2334
  21   2.0000      -6.034687      -164.2122
  22   2.0000      -6.031937      -164.1374
  23   2.0000      -6.030913      -164.1095
  24   2.0000      -1.004017       -27.3207
  25   2.0000      -0.981541       -26.7091
  26   2.0000      -0.924734       -25.1633
  27   2.0000      -0.904963       -24.6253
  28   2.0000      -0.875501       -23.8236
  29   2.0000      -0.847615       -23.0648
  30   2.0000      -0.846741       -23.0410
  31   2.0000      -0.813706       -22.1421
  32   2.0000      -0.785021       -21.3615
  33   2.0000      -0.770414       -20.9640
  34   2.0000      -0.707663       -19.2565
  35   2.0000      -0.699225       -19.0269
  36   2.0000      -0.688833       -18.7441
  37   2.0000      -0.660646       -17.9771
  38   2.0000      -0.643771       -17.5179
  39   2.0000      -0.617599       -16.8057
  40   2.0000      -0.590675       -16.0731
  41   2.0000      -0.582014       -15.8374
  42   2.0000      -0.570213       -15.5163
  43   2.0000      -0.561227       -15.2718
  44   2.0000      -0.531376       -14.4595
  45   2.0000      -0.526457       -14.3256
  46   2.0000      -0.520565       -14.1653
  47   2.0000      -0.514375       -13.9969
  48   2.0000      -0.505722       -13.7614
  49   2.0000      -0.501535       -13.6475
  50   2.0000      -0.499146       -13.5825
  51   2.0000      -0.476085       -12.9549
  52   2.0000      -0.468187       -12.7400
  53   2.0000      -0.463260       -12.6059
  54   2.0000      -0.458193       -12.4681
  55   2.0000      -0.454419       -12.3654
  56   2.0000      -0.442348       -12.0369
  57   2.0000      -0.438461       -11.9311
  58   2.0000      -0.433305       -11.7908
  59   2.0000      -0.426984       -11.6188
  60   2.0000      -0.418938       -11.3999
  61   2.0000      -0.414608       -11.2821
  62   2.0000      -0.412901       -11.2356
  63   2.0000      -0.345432        -9.3997
  64   2.0000      -0.331400        -9.0179
  65   2.0000      -0.325541        -8.8584
  66   2.0000      -0.295514        -8.0413
  67   0.0000       0.027669         0.7529
  68   0.0000       0.067809         1.8452
  69   0.0000       0.115625         3.1463
  70   0.0000       0.117201         3.1892
  71   0.0000       0.127555         3.4709

MULLIKEN ATOMIC CHARGES
-----------------------
   0 S :    0.107719
   1 C :   -0.120191
   2 C :   -0.078451
   3 C :    0.043172
   4 C :   -0.172763
   5 H :   -0.008059
   6 C :    0.093572
   7 H :    0.008929
   8 H :    0.036065
   9 C :   -0.062071
  10 H :    0.017609
  11 H :    0.022570
  12 C :   -0.036789
  13 H :    0.043804
  14 H :    0.023217
  15 H :    0.014386
  16 S :    0.109355
  17 C :   -0.077409
  18 C :   -0.029802
  19 C :   -0.074462
  20 C :   -0.137424
  21 H :    0.033682
  22 C :    0.051740
  23 H :    0.029932
  24 H :    0.016186
  25 C :   -0.086927
  26 H :    0.041437
  27 H :    0.027011
  28 C :   -0.044367
  29 H :    0.033285
  30 H :    0.030277
  31 H :    0.051471
  32 H :    0.040680
  33 H :    0.052617
Sum of atomic charges:    0.0000000

LOEWDIN ATOMIC CHARGES
----------------------
   0 S :    0.403148
   1 C :   -0.181649
   2 C :   -0.060108
   3 C :   -0.058264
   4 C :   -0.209504
   5 H :    0.020297
   6 C :   -0.026195
   7 H :    0.026632
   8 H :    0.041909
   9 C :   -0.040313
  10 H :    0.019277
  11 H :    0.024194
  12 C :   -0.060058
  13 H :    0.033241
  14 H :    0.021377
  15 H :    0.015777
  16 S :    0.411192
  17 C :   -0.179139
  18 C :   -0.076724
  19 C :   -0.045018
  20 C :   -0.211489
  21 H :    0.040660
  22 C :   -0.036453
  23 H :    0.031538
  24 H :    0.023104
  25 C :   -0.049508
  26 H :    0.027857
  27 H :    0.024156
  28 C :   -0.064440
  29 H :    0.027203
  30 H :    0.024002
  31 H :    0.033106
  32 H :    0.022658
  33 H :    0.027533

  Mayer bond orders larger than 0.100000
B(  0-S ,  1-C ) :   1.1511 B(  0-S ,  4-C ) :   1.1531 B(  1-C ,  2-C ) :   1.5869
B(  1-C ,  4-C ) :   0.1029 B(  1-C , 32-H ) :   0.9687 B(  2-C ,  3-C ) :   1.2593
B(  2-C ,  6-C ) :   1.0286 B(  3-C ,  4-C ) :   1.5501 B(  3-C ,  5-H ) :   0.9933
B(  4-C , 20-C ) :   1.0456 B(  6-C ,  7-H ) :   0.9316 B(  6-C ,  8-H ) :   0.9369
B(  6-C ,  9-C ) :   1.0767 B(  9-C , 10-H ) :   0.9540 B(  9-C , 11-H ) :   0.9511
B(  9-C , 12-C ) :   1.0915 B( 12-C , 13-H ) :   0.9737 B( 12-C , 14-H ) :   0.9728
B( 12-C , 15-H ) :   0.9732 B( 16-S , 17-C ) :   1.1611 B( 16-S , 20-C ) :   1.1334
B( 17-C , 18-C ) :   1.6205 B( 17-C , 33-H ) :   0.9609 B( 18-C , 19-C ) :   1.2391
B( 18-C , 21-H ) :   0.9866 B( 19-C , 20-C ) :   1.5943 B( 19-C , 22-C ) :   1.0394
B( 22-C , 23-H ) :   0.9354 B( 22-C , 24-H ) :   0.9402 B( 22-C , 25-C ) :   1.0548
B( 25-C , 26-H ) :   0.9589 B( 25-C , 27-H ) :   0.9499 B( 25-C , 28-C ) :   1.0810
B( 28-C , 29-H ) :   0.9726 B( 28-C , 30-H ) :   0.9769 B( 28-C , 31-H ) :   0.9737

Dispersion correction           -0.013545214
FINAL SINGLE POINT ENERGY     -1339.881383330072

DIPOLE MOMENT
-------------
                                X             Y             Z
Electronic contribution:      4.78938      16.16854      26.99484
Nuclear contribution   :     -4.71141     -16.56359     -27.53481
                        -----------------------------------------
Total Dipole Moment    :      0.07797      -0.39504      -0.53997
                        -----------------------------------------
Magnitude (a.u.)       :      0.67358
Magnitude (Debye)      :      1.71210

Rotational constants in cm-1:     0.016935     0.008633     0.006140
Rotational constants in MHz :   507.686844   258.797758   184.061368

                             ****ORCA TERMINATED NORMALLY****
TOTAL RUN TIME: 0 days 0 hours 0 minutes 29 seconds 699 msec
