                         Program Version 4.2.1 -  RELEASE  -
|  1> ! wB97X-D3 SP def2-SVP
|  2> %pal
|  3> nprocs 16
|  4> end
|  5>
|  6> * xyz 0 1
|  7> S 	 57.545 	 26.8635 	 40.9845
|  8> C 	 58.8477 	 26.7306 	 42.125
|  9> C 	 58.3772 	 26.5864 	 43.4003
| 10> C 	 56.9602 	 26.632 	 43.4652
| 11> C 	 56.3594 	 26.9507 	 42.305
| 12> H 	 56.3758 	 26.2558 	 44.251
| 13> C 	 59.1521 	 26.1331 	 44.5759
| 14> H 	 58.6998 	 25.2736 	 45.0975
| 15> H 	 59.1116 	 27.0082 	 45.1632
| 16> C 	 60.6075 	 25.7614 	 44.4103
| 17> H 	 60.9284 	 25.4302 	 45.3726
| 18> H 	 60.6043 	 25.0232 	 43.6081
| 19> C 	 61.5975 	 26.9333 	 44.2981
| 20> H 	 61.2292 	 27.4917 	 43.5126
| 21> H 	 61.5178 	 27.6891 	 45.1496
| 22> H 	 62.6455 	 26.6528 	 44.2001
| 23> S 	 54.3503 	 28.6231 	 42.4434
| 24> C 	 52.724 	 28.0898 	 41.8904
| 25> C 	 52.6366 	 26.7964 	 41.517
| 26> C 	 53.9269 	 26.1539 	 41.7114
| 27> C 	 54.9575 	 27.0646 	 42.0087
| 28> H 	 51.6322 	 26.366 	 41.3934
| 29> C 	 53.9478 	 24.6935 	 41.4664
| 30> H 	 54.7709 	 24.4464 	 40.743
| 31> H 	 53.1536 	 24.4367 	 40.801
| 32> C 	 54.1315 	 23.7365 	 42.6942
| 33> H 	 53.2959 	 23.9803 	 43.3851
| 34> H 	 55.0017 	 24.0078 	 43.174
| 35> C 	 54.1726 	 22.2161 	 42.4561
| 36> H 	 53.6169 	 21.8465 	 41.6248
| 37> H 	 53.9163 	 21.5576 	 43.3015
| 38> H 	 55.2187 	 21.9756 	 42.174
| 39> H 	 59.8267 	 26.4719 	 41.8092
| 40> H 	 51.7305 	 28.6548 	 42.0354
| 41> *
| 42>
| 43>                          ****END OF INPUT****

CARTESIAN COORDINATES (ANGSTROEM)
---------------------------------
  S     57.545000   26.863500   40.984500
  C     58.847700   26.730600   42.125000
  C     58.377200   26.586400   43.400300
  C     56.960200   26.632000   43.465200
  C     56.359400   26.950700   42.305000
  H     56.375800   26.255800   44.251000
  C     59.152100   26.133100   44.575900
  H     58.699800   25.273600   45.097500
  H     59.111600   27.008200   45.163200
  C     60.607500   25.761400   44.410300
  H     60.928400   25.430200   45.372600
  H     60.604300   25.023200   43.608100
  C     61.597500   26.933300   44.298100
  H     61.229200   27.491700   43.512600
  H     61.517800   27.689100   45.149600
  H     62.645500   26.652800   44.200100
  S     54.350300   28.623100   42.443400
  C     52.724000   28.089800   41.890400
  C     52.636600   26.796400   41.517000
  C     53.926900   26.153900   41.711400
  C     54.957500   27.064600   42.008700
  H     51.632200   26.366000   41.393400
  C     53.947800   24.693500   41.466400
  H     54.770900   24.446400   40.743000
  H     53.153600   24.436700   40.801000
  C     54.131500   23.736500   42.694200
  H     53.295900   23.980300   43.385100
  H     55.001700   24.007800   43.174000
  C     54.172600   22.216100   42.456100
  H     53.616900   21.846500   41.624800
  H     53.916300   21.557600   43.301500
  H     55.218700   21.975600   42.174000
  H     59.826700   26.471900   41.809200
  H     51.730500   28.654800   42.035400

 Total Charge           Charge          ....    0
 Multiplicity           Mult            ....    1
 Number of Electrons    NEL             ....  134
 Basis Dimension        Dim             ....  322

ORBITAL ENERGIES
----------------

  NO   OCC          E(Eh)            E(eV)
   0   2.0000     -88.966681     -2420.9065
   1   2.0000     -88.960168     -2420.7292
   2   2.0000     -10.324880      -280.9543
   3   2.0000     -10.324377      -280.9406
   4   2.0000     -10.320975      -280.8480
   5   2.0000     -10.309168      -280.5267
   6   2.0000     -10.308619      -280.5118
   7   2.0000     -10.295745      -280.1615
   8   2.0000     -10.293701      -280.1058
   9   2.0000     -10.289631      -279.9951
  10   2.0000     -10.286486      -279.9095
  11   2.0000     -10.286055      -279.8978
  12   2.0000     -10.284617      -279.8587
  13   2.0000     -10.283002      -279.8147
  14   2.0000     -10.279726      -279.7256
  15   2.0000     -10.276799      -279.6459
  16   2.0000      -8.081128      -219.8987
  17   2.0000      -8.075129      -219.7354
  18   2.0000      -6.039783      -164.3508
  19   2.0000      -6.035753      -164.2412
  20   2.0000      -6.033672      -164.1846
  21   2.0000      -6.031653      -164.1296
  22   2.0000      -6.029746      -164.0777
  23   2.0000      -6.025704      -163.9677
  24   2.0000      -1.010441       -27.4955
  25   2.0000      -0.986087       -26.8328
  26   2.0000      -0.921569       -25.0772
  27   2.0000      -0.904434       -24.6109
  28   2.0000      -0.876402       -23.8481
  29   2.0000      -0.853791       -23.2328
  30   2.0000      -0.848570       -23.0908
  31   2.0000      -0.819783       -22.3074
  32   2.0000      -0.786695       -21.4071
  33   2.0000      -0.768533       -20.9128
  34   2.0000      -0.713827       -19.4242
  35   2.0000      -0.707893       -19.2627
  36   2.0000      -0.694486       -18.8979
  37   2.0000      -0.654707       -17.8155
  38   2.0000      -0.648663       -17.6510
  39   2.0000      -0.612674       -16.6717
  40   2.0000      -0.593646       -16.1539
  41   2.0000      -0.582960       -15.8631
  42   2.0000      -0.560953       -15.2643
  43   2.0000      -0.557862       -15.1802
  44   2.0000      -0.546445       -14.8695
  45   2.0000      -0.522710       -14.2237
  46   2.0000      -0.521484       -14.1903
  47   2.0000      -0.516865       -14.0646
  48   2.0000      -0.507947       -13.8220
  49   2.0000      -0.505296       -13.7498
  50   2.0000      -0.484721       -13.1899
  51   2.0000      -0.481906       -13.1133
  52   2.0000      -0.468790       -12.7564
  53   2.0000      -0.463609       -12.6154
  54   2.0000      -0.459175       -12.4948
  55   2.0000      -0.450247       -12.2518
  56   2.0000      -0.444717       -12.1014
  57   2.0000      -0.435798       -11.8587
  58   2.0000      -0.433740       -11.8027
  59   2.0000      -0.428801       -11.6683
  60   2.0000      -0.424265       -11.5448
  61   2.0000      -0.406856       -11.0711
  62   2.0000      -0.404100       -10.9961
  63   2.0000      -0.339470        -9.2374
  64   2.0000      -0.332118        -9.0374
  65   2.0000      -0.315500        -8.5852
  66   2.0000      -0.307596        -8.3701
  67   0.0000       0.041082         1.1179
  68   0.0000       0.054788         1.4909
  69   0.0000       0.101908         2.7731
  70   0.0000       0.108009         2.9391
  71   0.0000       0.127215         3.4617

MULLIKEN ATOMIC CHARGES
-----------------------
   0 S :    0.104667
   1 C :   -0.109326
   2 C :   -0.088208
   3 C :    0.052376
   4 C :   -0.170194
   5 H :    0.004600
   6 C :    0.056108
   7 H :    0.045872
   8 H :    0.018289
   9 C :   -0.060738
  10 H :    0.020056
  11 H :    0.035916
  12 C :   -0.050868
  13 H :    0.002995
  14 H :    0.031696
  15 H :    0.048838
  16 S :    0.114630
  17 C :   -0.107558
  18 C :   -0.044303
  19 C :   -0.017776
  20 C :   -0.173644
  21 H :    0.040648
  22 C :    0.051800
  23 H :    0.021722
  24 H :    0.006356
  25 C :   -0.035918
  26 H :    0.027266
  27 H :    0.014667
  28 C :   -0.050342
  29 H :    0.021536
  30 H :    0.043381
  31 H :    0.026870
  32 H :    0.044592
  33 H :    0.073992
Sum of atomic charges:    0.0000000

LOEWDIN ATOMIC CHARGES
----------------------
   0 S :    0.395717
   1 C :   -0.198261
   2 C :   -0.064795
   3 C :   -0.052209
   4 C :   -0.193390
   5 H :    0.027207
   6 C :   -0.033653
   7 H :    0.040333
   8 H :    0.030780
   9 C :   -0.041995
  10 H :    0.026154
  11 H :    0.023982
  12 C :   -0.065513
  13 H :    0.008281
  14 H :    0.034639
  15 H :    0.028795
  16 S :    0.406495
  17 C :   -0.180684
  18 C :   -0.078257
  19 C :   -0.046551
  20 C :   -0.211500
  21 H :    0.043100
  22 C :   -0.042042
  23 H :    0.035938
  24 H :    0.025154
  25 C :   -0.032191
  26 H :    0.024817
  27 H :    0.013877
  28 C :   -0.070108
  29 H :    0.019751
  30 H :    0.032252
  31 H :    0.029618
  32 H :    0.019940
  33 H :    0.044321

  Mayer bond orders larger than 0.100000
B(  0-S ,  1-C ) :   1.1334 B(  0-S ,  4-C ) :   1.1370 B(  1-C ,  2-C ) :   1.6317
B(  1-C , 32-H ) :   0.9583 B(  2-C ,  3-C ) :   1.2284 B(  2-C ,  6-C ) :   0.9990
B(  3-C ,  4-C ) :   1.6189 B(  3-C ,  5-H ) :   1.0064 B(  4-C , 20-C ) :   1.0100
B(  6-C ,  7-H ) :   0.9474 B(  6-C ,  8-H ) :   0.9183 B(  6-C ,  9-C ) :   1.0964
B(  9-C , 10-H ) :   0.9502 B(  9-C , 11-H ) :   0.9526 B(  9-C , 12-C ) :   1.0662
B( 12-C , 13-H ) :   0.9793 B( 12-C , 14-H ) :   0.9687 B( 12-C , 15-H ) :   0.9755
B( 16-S , 17-C ) :   1.1330 B( 16-S , 20-C ) :   1.1408 B( 17-C , 18-C ) :   1.6820
B( 17-C , 33-H ) :   0.9485 B( 18-C , 19-C ) :   1.2061 B( 18-C , 21-H ) :   0.9780
B( 19-C , 20-C ) :   1.6111 B( 19-C , 22-C ) :   1.0617 B( 22-C , 23-H ) :   0.9280
B( 22-C , 24-H ) :   0.9318 B( 22-C , 25-C ) :   1.0432 B( 25-C , 26-H ) :   0.9600
B( 25-C , 27-H ) :   0.9600 B( 25-C , 28-C ) :   1.0724 B( 28-C , 29-H ) :   0.9782
B( 28-C , 30-H ) :   0.9765 B( 28-C , 31-H ) :   0.9752

Dispersion correction           -0.014284272
FINAL SINGLE POINT ENERGY     -1339.833714163907

DIPOLE MOMENT
-------------
                                X             Y             Z
Electronic contribution:    -10.07585      19.03059     -10.55982
Nuclear contribution   :      9.97474     -19.69068      11.01734
                        -----------------------------------------
Total Dipole Moment    :     -0.10111      -0.66009       0.45752
                        -----------------------------------------
Magnitude (a.u.)       :      0.80948
Magnitude (Debye)      :      2.05755

Rotational constants in cm-1:     0.019994     0.008025     0.006578
Rotational constants in MHz :   599.400258   240.570128   197.200231

                             ****ORCA TERMINATED NORMALLY****
TOTAL RUN TIME: 0 days 0 hours 0 minutes 30 seconds 217 msec
