                         Program Version 4.2.1 -  RELEASE  -
|  1> ! wB97X-D3 SP def2-SVP
|  2> %pal
|  3> nprocs 16
|  4> end
|  5>
|  6> * xyz 0 1
|  7> S 	 -59.5597 	 35.3997 	 119.156
|  8> C 	 -61.3291 	 35.2449 	 118.95
|  9> C 	 -61.7103 	 35.1962 	 117.659
| 10> C 	 -60.6283 	 35.3328 	 116.771
| 11> C 	 -59.3843 	 35.267 	 117.366
| 12> H 	 -60.5895 	 35.3375 	 115.654
| 13> C 	 -63.117 	 35.2686 	 117.105
| 14> H 	 -63.1759 	 36.3286 	 116.742
| 15> H 	 -63.9463 	 35.0872 	 117.881
| 16> C 	 -63.3512 	 34.356 	 115.88
| 17> H 	 -64.2384 	 34.6031 	 115.331
| 18> H 	 -62.5476 	 34.7184 	 115.227
| 19> C 	 -63.3751 	 32.8244 	 116.369
| 20> H 	 -64.0525 	 32.6257 	 117.195
| 21> H 	 -63.5293 	 32.1529 	 115.519
| 22> H 	 -62.4384 	 32.5165 	 116.817
| 23> S 	 -57.3918 	 37.0407 	 117.081
| 24> C 	 -56.1136 	 36.6223 	 116.007
| 25> C 	 -56.362 	 35.5365 	 115.273
| 26> C 	 -57.476 	 34.8597 	 115.697
| 27> C 	 -58.1082 	 35.4931 	 116.762
| 28> H 	 -55.7005 	 35.2053 	 114.462
| 29> C 	 -58.0796 	 33.6194 	 114.983
| 30> H 	 -58.9295 	 33.2127 	 115.535
| 31> H 	 -57.3177 	 32.9037 	 115.165
| 32> C 	 -58.3875 	 33.6611 	 113.478
| 33> H 	 -59.0549 	 32.7758 	 113.15
| 34> H 	 -57.4108 	 33.5494 	 113.018
| 35> C 	 -59.0493 	 34.9382 	 112.996
| 36> H 	 -58.9554 	 34.9907 	 111.942
| 37> H 	 -58.5173 	 35.7684 	 113.446
| 38> H 	 -60.071 	 35.0338 	 113.308
| 39> H 	 -62.0065 	 35.2433 	 119.766
| 40> H 	 -55.3752 	 37.3033 	 115.691
| 41> *
| 42>
| 43>                          ****END OF INPUT****

CARTESIAN COORDINATES (ANGSTROEM)
---------------------------------
  S    -59.559700   35.399700  119.156000
  C    -61.329100   35.244900  118.950000
  C    -61.710300   35.196200  117.659000
  C    -60.628300   35.332800  116.771000
  C    -59.384300   35.267000  117.366000
  H    -60.589500   35.337500  115.654000
  C    -63.117000   35.268600  117.105000
  H    -63.175900   36.328600  116.742000
  H    -63.946300   35.087200  117.881000
  C    -63.351200   34.356000  115.880000
  H    -64.238400   34.603100  115.331000
  H    -62.547600   34.718400  115.227000
  C    -63.375100   32.824400  116.369000
  H    -64.052500   32.625700  117.195000
  H    -63.529300   32.152900  115.519000
  H    -62.438400   32.516500  116.817000
  S    -57.391800   37.040700  117.081000
  C    -56.113600   36.622300  116.007000
  C    -56.362000   35.536500  115.273000
  C    -57.476000   34.859700  115.697000
  C    -58.108200   35.493100  116.762000
  H    -55.700500   35.205300  114.462000
  C    -58.079600   33.619400  114.983000
  H    -58.929500   33.212700  115.535000
  H    -57.317700   32.903700  115.165000
  C    -58.387500   33.661100  113.478000
  H    -59.054900   32.775800  113.150000
  H    -57.410800   33.549400  113.018000
  C    -59.049300   34.938200  112.996000
  H    -58.955400   34.990700  111.942000
  H    -58.517300   35.768400  113.446000
  H    -60.071000   35.033800  113.308000
  H    -62.006500   35.243300  119.766000
  H    -55.375200   37.303300  115.691000

 Total Charge           Charge          ....    0
 Multiplicity           Mult            ....    1
 Number of Electrons    NEL             ....  134
 Basis Dimension        Dim             ....  322

ORBITAL ENERGIES
----------------

  NO   OCC          E(Eh)            E(eV)
   0   2.0000     -88.966256     -2420.8949
   1   2.0000     -88.962506     -2420.7929
   2   2.0000     -10.327444      -281.0240
   3   2.0000     -10.318823      -280.7894
   4   2.0000     -10.310719      -280.5689
   5   2.0000     -10.306480      -280.4536
   6   2.0000     -10.301319      -280.3131
   7   2.0000     -10.299714      -280.2695
   8   2.0000     -10.297740      -280.2157
   9   2.0000     -10.295062      -280.1429
  10   2.0000     -10.293064      -280.0885
  11   2.0000     -10.293054      -280.0882
  12   2.0000     -10.286645      -279.9138
  13   2.0000     -10.286503      -279.9100
  14   2.0000     -10.282141      -279.7913
  15   2.0000     -10.271092      -279.4906
  16   2.0000      -8.081997      -219.9223
  17   2.0000      -8.076172      -219.7638
  18   2.0000      -6.040257      -164.3637
  19   2.0000      -6.036591      -164.2640
  20   2.0000      -6.034745      -164.2138
  21   2.0000      -6.032707      -164.1583
  22   2.0000      -6.031056      -164.1134
  23   2.0000      -6.026704      -163.9950
  24   2.0000      -1.016258       -27.6538
  25   2.0000      -0.987807       -26.8796
  26   2.0000      -0.910333       -24.7714
  27   2.0000      -0.908312       -24.7164
  28   2.0000      -0.874179       -23.7876
  29   2.0000      -0.854603       -23.2549
  30   2.0000      -0.838215       -22.8090
  31   2.0000      -0.815609       -22.1938
  32   2.0000      -0.787096       -21.4180
  33   2.0000      -0.776282       -21.1237
  34   2.0000      -0.715458       -19.4686
  35   2.0000      -0.699379       -19.0311
  36   2.0000      -0.694077       -18.8868
  37   2.0000      -0.659805       -17.9542
  38   2.0000      -0.640798       -17.4370
  39   2.0000      -0.619954       -16.8698
  40   2.0000      -0.597698       -16.2642
  41   2.0000      -0.562201       -15.2983
  42   2.0000      -0.557159       -15.1611
  43   2.0000      -0.552280       -15.0283
  44   2.0000      -0.549126       -14.9425
  45   2.0000      -0.530702       -14.4411
  46   2.0000      -0.517111       -14.0713
  47   2.0000      -0.509279       -13.8582
  48   2.0000      -0.500699       -13.6247
  49   2.0000      -0.499014       -13.5789
  50   2.0000      -0.489228       -13.3126
  51   2.0000      -0.483354       -13.1527
  52   2.0000      -0.474076       -12.9003
  53   2.0000      -0.467704       -12.7269
  54   2.0000      -0.455135       -12.3849
  55   2.0000      -0.451024       -12.2730
  56   2.0000      -0.446352       -12.1458
  57   2.0000      -0.441815       -12.0224
  58   2.0000      -0.430449       -11.7131
  59   2.0000      -0.427278       -11.6268
  60   2.0000      -0.418535       -11.3889
  61   2.0000      -0.415691       -11.3115
  62   2.0000      -0.411443       -11.1959
  63   2.0000      -0.348282        -9.4772
  64   2.0000      -0.331352        -9.0166
  65   2.0000      -0.328666        -8.9435
  66   2.0000      -0.295505        -8.0411
  67   0.0000       0.030882         0.8403
  68   0.0000       0.064262         1.7487
  69   0.0000       0.107652         2.9293
  70   0.0000       0.119599         3.2545
  71   0.0000       0.125687         3.4201

MULLIKEN ATOMIC CHARGES
-----------------------
   0 S :    0.082259
   1 C :   -0.113638
   2 C :   -0.025818
   3 C :    0.020103
   4 C :   -0.180239
   5 H :    0.018208
   6 C :   -0.000522
   7 H :    0.051804
   8 H :    0.036180
   9 C :   -0.058235
  10 H :    0.028005
  11 H :    0.021620
  12 C :   -0.051396
  13 H :    0.032533
  14 H :    0.041164
  15 H :    0.033060
  16 S :    0.123759
  17 C :   -0.052226
  18 C :   -0.065110
  19 C :   -0.049091
  20 C :   -0.164436
  21 H :    0.024128
  22 C :    0.087262
  23 H :    0.027539
  24 H :    0.020873
  25 C :   -0.101397
  26 H :    0.046997
  27 H :    0.024977
  28 C :   -0.021947
  29 H :    0.029759
  30 H :    0.033332
  31 H :    0.033800
  32 H :    0.029578
  33 H :    0.037115
Sum of atomic charges:    0.0000000

LOEWDIN ATOMIC CHARGES
----------------------
   0 S :    0.357819
   1 C :   -0.171598
   2 C :   -0.072920
   3 C :   -0.061264
   4 C :   -0.175249
   5 H :    0.037238
   6 C :   -0.035369
   7 H :    0.040899
   8 H :    0.031439
   9 C :   -0.039921
  10 H :    0.020879
  11 H :    0.022692
  12 C :   -0.066633
  13 H :    0.027423
  14 H :    0.026729
  15 H :    0.026710
  16 S :    0.432499
  17 C :   -0.182153
  18 C :   -0.078538
  19 C :   -0.055245
  20 C :   -0.211807
  21 H :    0.038200
  22 C :   -0.034798
  23 H :    0.029641
  24 H :    0.029110
  25 C :   -0.043025
  26 H :    0.037550
  27 H :    0.020615
  28 C :   -0.062564
  29 H :    0.023936
  30 H :    0.027217
  31 H :    0.019749
  32 H :    0.020392
  33 H :    0.020349

  Mayer bond orders larger than 0.100000
B(  0-S ,  1-C ) :   1.1177 B(  0-S ,  4-C ) :   1.1242 B(  1-C ,  2-C ) :   1.6511
B(  1-C , 32-H ) :   0.9694 B(  2-C ,  3-C ) :   1.1918 B(  2-C ,  6-C ) :   1.0105
B(  3-C ,  4-C ) :   1.6243 B(  3-C ,  5-H ) :   0.9736 B(  4-C , 20-C ) :   1.0349
B(  6-C ,  7-H ) :   0.9413 B(  6-C ,  8-H ) :   0.9495 B(  6-C ,  9-C ) :   1.0685
B(  9-C , 10-H ) :   0.9577 B(  9-C , 11-H ) :   0.9570 B(  9-C , 12-C ) :   1.0484
B( 12-C , 13-H ) :   0.9763 B( 12-C , 14-H ) :   0.9787 B( 12-C , 15-H ) :   0.9766
B( 16-S , 17-C ) :   1.1641 B( 16-S , 20-C ) :   1.1677 B( 17-C , 18-C ) :   1.6031
B( 17-C , 33-H ) :   0.9653 B( 18-C , 19-C ) :   1.2735 B( 18-C , 21-H ) :   0.9911
B( 19-C , 20-C ) :   1.5813 B( 19-C , 22-C ) :   1.0250 B( 22-C , 23-H ) :   0.9340
B( 22-C , 24-H ) :   0.9331 B( 22-C , 25-C ) :   1.0689 B( 25-C , 26-H ) :   0.9544
B( 25-C , 27-H ) :   0.9521 B( 25-C , 28-C ) :   1.0938 B( 28-C , 29-H ) :   0.9705
B( 28-C , 30-H ) :   0.9669 B( 28-C , 31-H ) :   0.9685

Dispersion correction           -0.015803421
FINAL SINGLE POINT ENERGY     -1339.862872623770

DIPOLE MOMENT
-------------
                                X             Y             Z
Electronic contribution:     16.06990      13.07398      20.16488
Nuclear contribution   :    -16.34343     -13.15669     -20.87440
                        -----------------------------------------
Total Dipole Moment    :     -0.27353      -0.08270      -0.70952
                        -----------------------------------------
Magnitude (a.u.)       :      0.76491
Magnitude (Debye)      :      1.94424

Rotational constants in cm-1:     0.018252     0.010624     0.007533
Rotational constants in MHz :   547.188524   318.505224   225.841964

                             ****ORCA TERMINATED NORMALLY****
TOTAL RUN TIME: 0 days 0 hours 0 minutes 32 seconds 997 msec
