                         Program Version 4.2.1 -  RELEASE  -
|  1> ! wB97X-D3 SP def2-SVP
|  2> %pal
|  3> nprocs 16
|  4> end
|  5>
|  6> * xyz 0 1
|  7> S 	 -16.4334 	 48.5697 	 43.8626
|  8> C 	 -16.8423 	 48.4724 	 42.1852
|  9> C 	 -16.522 	 47.2513 	 41.6519
| 10> C 	 -15.7964 	 46.4609 	 42.5605
| 11> C 	 -15.5917 	 47.0286 	 43.7919
| 12> H 	 -15.6343 	 45.3975 	 42.3691
| 13> C 	 -17.0338 	 46.7129 	 40.3217
| 14> H 	 -16.1576 	 46.464 	 39.7742
| 15> H 	 -17.5298 	 47.5119 	 39.8279
| 16> C 	 -17.7948 	 45.4064 	 40.3468
| 17> H 	 -17.3476 	 44.6529 	 41.0639
| 18> H 	 -18.8334 	 45.543 	 40.6729
| 19> C 	 -17.832 	 44.7563 	 38.9959
| 20> H 	 -18.62 	 44.0375 	 39.0754
| 21> H 	 -18.0829 	 45.4801 	 38.2356
| 22> H 	 -16.9337 	 44.2879 	 38.6515
| 23> S 	 -15.8778 	 46.9712 	 46.4866
| 24> C 	 -14.8105 	 46.118 	 47.4263
| 25> C 	 -13.8785 	 45.485 	 46.7084
| 26> C 	 -14.0498 	 45.7282 	 45.3404
| 27> C 	 -15.0924 	 46.5194 	 45.034
| 28> H 	 -13.1917 	 44.8731 	 47.2464
| 29> C 	 -13.0433 	 45.2601 	 44.2758
| 30> H 	 -13.5994 	 44.8426 	 43.3987
| 31> H 	 -12.3996 	 44.4066 	 44.6929
| 32> C 	 -12.1244 	 46.5071 	 43.8936
| 33> H 	 -11.3913 	 46.8047 	 44.6468
| 34> H 	 -12.686 	 47.409 	 43.8273
| 35> C 	 -11.55 	 46.3402 	 42.4732
| 36> H 	 -10.8761 	 47.1575 	 42.0452
| 37> H 	 -12.3542 	 46.2143 	 41.6983
| 38> H 	 -10.9313 	 45.5079 	 42.433
| 39> H 	 -17.3471 	 49.3191 	 41.6631
| 40> H 	 -14.8499 	 45.8713 	 48.4507
| 41> *
| 42>
| 43>                          ****END OF INPUT****

CARTESIAN COORDINATES (ANGSTROEM)
---------------------------------
  S    -16.433400   48.569700   43.862600
  C    -16.842300   48.472400   42.185200
  C    -16.522000   47.251300   41.651900
  C    -15.796400   46.460900   42.560500
  C    -15.591700   47.028600   43.791900
  H    -15.634300   45.397500   42.369100
  C    -17.033800   46.712900   40.321700
  H    -16.157600   46.464000   39.774200
  H    -17.529800   47.511900   39.827900
  C    -17.794800   45.406400   40.346800
  H    -17.347600   44.652900   41.063900
  H    -18.833400   45.543000   40.672900
  C    -17.832000   44.756300   38.995900
  H    -18.620000   44.037500   39.075400
  H    -18.082900   45.480100   38.235600
  H    -16.933700   44.287900   38.651500
  S    -15.877800   46.971200   46.486600
  C    -14.810500   46.118000   47.426300
  C    -13.878500   45.485000   46.708400
  C    -14.049800   45.728200   45.340400
  C    -15.092400   46.519400   45.034000
  H    -13.191700   44.873100   47.246400
  C    -13.043300   45.260100   44.275800
  H    -13.599400   44.842600   43.398700
  H    -12.399600   44.406600   44.692900
  C    -12.124400   46.507100   43.893600
  H    -11.391300   46.804700   44.646800
  H    -12.686000   47.409000   43.827300
  C    -11.550000   46.340200   42.473200
  H    -10.876100   47.157500   42.045200
  H    -12.354200   46.214300   41.698300
  H    -10.931300   45.507900   42.433000
  H    -17.347100   49.319100   41.663100
  H    -14.849900   45.871300   48.450700

 Total Charge           Charge          ....    0
 Multiplicity           Mult            ....    1
 Number of Electrons    NEL             ....  134
 Basis Dimension        Dim             ....  322

ORBITAL ENERGIES
----------------

  NO   OCC          E(Eh)            E(eV)
   0   2.0000     -88.963120     -2420.8096
   1   2.0000     -88.961891     -2420.7761
   2   2.0000     -10.329136      -281.0701
   3   2.0000     -10.314395      -280.6690
   4   2.0000     -10.311977      -280.6031
   5   2.0000     -10.302291      -280.3396
   6   2.0000     -10.299367      -280.2600
   7   2.0000     -10.296057      -280.1699
   8   2.0000     -10.293066      -280.0886
   9   2.0000     -10.291476      -280.0453
  10   2.0000     -10.289056      -279.9795
  11   2.0000     -10.285816      -279.8913
  12   2.0000     -10.282987      -279.8143
  13   2.0000     -10.280288      -279.7409
  14   2.0000     -10.274282      -279.5774
  15   2.0000     -10.271538      -279.5028
  16   2.0000      -8.079325      -219.8496
  17   2.0000      -8.078479      -219.8266
  18   2.0000      -6.037628      -164.2922
  19   2.0000      -6.036950      -164.2737
  20   2.0000      -6.033413      -164.1775
  21   2.0000      -6.032992      -164.1661
  22   2.0000      -6.030164      -164.0891
  23   2.0000      -6.029147      -164.0614
  24   2.0000      -1.026933       -27.9443
  25   2.0000      -0.996711       -27.1219
  26   2.0000      -0.920776       -25.0556
  27   2.0000      -0.900591       -24.5063
  28   2.0000      -0.880450       -23.9583
  29   2.0000      -0.853604       -23.2277
  30   2.0000      -0.847573       -23.0636
  31   2.0000      -0.821998       -22.3677
  32   2.0000      -0.783871       -21.3302
  33   2.0000      -0.767460       -20.8836
  34   2.0000      -0.713171       -19.4064
  35   2.0000      -0.698974       -19.0200
  36   2.0000      -0.694022       -18.8853
  37   2.0000      -0.666818       -18.1450
  38   2.0000      -0.639641       -17.4055
  39   2.0000      -0.630609       -17.1597
  40   2.0000      -0.593208       -16.1420
  41   2.0000      -0.576141       -15.6776
  42   2.0000      -0.568885       -15.4802
  43   2.0000      -0.550934       -14.9917
  44   2.0000      -0.533530       -14.5181
  45   2.0000      -0.528238       -14.3741
  46   2.0000      -0.516242       -14.0477
  47   2.0000      -0.509853       -13.8738
  48   2.0000      -0.505668       -13.7599
  49   2.0000      -0.501115       -13.6360
  50   2.0000      -0.495441       -13.4816
  51   2.0000      -0.483520       -13.1572
  52   2.0000      -0.469708       -12.7814
  53   2.0000      -0.468252       -12.7418
  54   2.0000      -0.462335       -12.5808
  55   2.0000      -0.453990       -12.3537
  56   2.0000      -0.440562       -11.9883
  57   2.0000      -0.435224       -11.8431
  58   2.0000      -0.432979       -11.7820
  59   2.0000      -0.423966       -11.5367
  60   2.0000      -0.417903       -11.3717
  61   2.0000      -0.415656       -11.3106
  62   2.0000      -0.410302       -11.1649
  63   2.0000      -0.361639        -9.8407
  64   2.0000      -0.334669        -9.1068
  65   2.0000      -0.328680        -8.9438
  66   2.0000      -0.285199        -7.7606
  67   0.0000       0.029708         0.8084
  68   0.0000       0.079232         2.1560
  69   0.0000       0.113407         3.0860
  70   0.0000       0.126582         3.4445
  71   0.0000       0.142902         3.8886

MULLIKEN ATOMIC CHARGES
-----------------------
   0 S :    0.090076
   1 C :   -0.153493
   2 C :   -0.082305
   3 C :   -0.005625
   4 C :   -0.122229
   5 H :    0.020507
   6 C :    0.135777
   7 H :    0.012170
   8 H :    0.009143
   9 C :   -0.110249
  10 H :    0.037254
  11 H :    0.033233
  12 C :   -0.024657
  13 H :    0.026579
  14 H :    0.022903
  15 H :    0.029765
  16 S :    0.118391
  17 C :   -0.048431
  18 C :   -0.054251
  19 C :   -0.041056
  20 C :   -0.129827
  21 H :    0.000341
  22 C :    0.034721
  23 H :    0.032364
  24 H :    0.037157
  25 C :   -0.039886
  26 H :    0.029345
  27 H :    0.031812
  28 C :   -0.068664
  29 H :    0.036317
  30 H :    0.036431
  31 H :    0.011734
  32 H :    0.062330
  33 H :    0.032324
Sum of atomic charges:   -0.0000000

LOEWDIN ATOMIC CHARGES
----------------------
   0 S :    0.404963
   1 C :   -0.210042
   2 C :   -0.065395
   3 C :   -0.071163
   4 C :   -0.176724
   5 H :    0.030829
   6 C :   -0.025565
   7 H :    0.028927
   8 H :    0.026110
   9 C :   -0.041988
  10 H :    0.030224
  11 H :    0.025775
  12 C :   -0.059487
  13 H :    0.026674
  14 H :    0.023405
  15 H :    0.020983
  16 S :    0.452517
  17 C :   -0.205168
  18 C :   -0.074357
  19 C :   -0.064144
  20 C :   -0.215545
  21 H :    0.029332
  22 C :   -0.028109
  23 H :    0.030364
  24 H :    0.035932
  25 C :   -0.038129
  26 H :    0.027769
  27 H :    0.022994
  28 C :   -0.073022
  29 H :    0.032195
  30 H :    0.028777
  31 H :    0.008764
  32 H :    0.035454
  33 H :    0.026850

  Mayer bond orders larger than 0.100000
B(  0-S ,  1-C ) :   1.1394 B(  0-S ,  4-C ) :   1.1473 B(  1-C ,  2-C ) :   1.6074
B(  1-C , 32-H ) :   0.9623 B(  2-C ,  3-C ) :   1.2649 B(  2-C ,  6-C ) :   1.0226
B(  3-C ,  4-C ) :   1.5659 B(  3-C ,  5-H ) :   0.9828 B(  4-C , 20-C ) :   1.0611
B(  6-C ,  7-H ) :   0.9299 B(  6-C ,  8-H ) :   0.9350 B(  6-C ,  9-C ) :   1.0660
B(  9-C , 10-H ) :   0.9511 B(  9-C , 11-H ) :   0.9553 B(  9-C , 12-C ) :   1.0862
B( 12-C , 13-H ) :   0.9728 B( 12-C , 14-H ) :   0.9722 B( 12-C , 15-H ) :   0.9734
B( 16-S , 17-C ) :   1.1755 B( 16-S , 20-C ) :   1.1406 B( 17-C , 18-C ) :   1.6129
B( 17-C , 33-H ) :   0.9627 B( 18-C , 19-C ) :   1.2510 B( 18-C , 21-H ) :   1.0044
B( 19-C , 20-C ) :   1.6027 B( 19-C , 22-C ) :   1.0439 B( 22-C , 23-H ) :   0.9447
B( 22-C , 24-H ) :   0.9369 B( 22-C , 25-C ) :   1.0345 B( 25-C , 26-H ) :   0.9548
B( 25-C , 27-H ) :   0.9662 B( 25-C , 28-C ) :   1.0676 B( 28-C , 29-H ) :   0.9738
B( 28-C , 30-H ) :   0.9770 B( 28-C , 31-H ) :   0.9763

Dispersion correction           -0.014331909
FINAL SINGLE POINT ENERGY     -1339.870227094559

DIPOLE MOMENT
-------------
                                X             Y             Z
Electronic contribution:     -7.66162      12.48552      23.97243
Nuclear contribution   :      7.70442     -12.92981     -24.30648
                        -----------------------------------------
Total Dipole Moment    :      0.04280      -0.44430      -0.33405
                        -----------------------------------------
Magnitude (a.u.)       :      0.55751
Magnitude (Debye)      :      1.41708

Rotational constants in cm-1:     0.018781     0.008774     0.007349
Rotational constants in MHz :   563.045984   263.043401   220.312498

                             ****ORCA TERMINATED NORMALLY****
TOTAL RUN TIME: 0 days 0 hours 0 minutes 33 seconds 95 msec
