                         Program Version 4.2.1 -  RELEASE  -
|  1> ! wB97X-D3 SP def2-SVP
|  2> %pal
|  3> nprocs 16
|  4> end
|  5>
|  6> * xyz 0 1
|  7> S 	 3.94966 	 -28.661 	 62.6703
|  8> C 	 3.02031 	 -29.7762 	 63.6262
|  9> C 	 2.52245 	 -30.7825 	 62.8607
| 10> C 	 3.04467 	 -30.7123 	 61.5044
| 11> C 	 3.77291 	 -29.5925 	 61.2188
| 12> H 	 2.88766 	 -31.4322 	 60.7231
| 13> C 	 1.6699 	 -31.9458 	 63.4105
| 14> H 	 1.79911 	 -31.8909 	 64.4776
| 15> H 	 2.08745 	 -32.8797 	 63.138
| 16> C 	 0.143244 	 -31.7711 	 63.1984
| 17> H 	 -0.109344 	 -31.6086 	 62.166
| 18> H 	 -0.230478 	 -32.7404 	 63.4044
| 19> C 	 -0.502404 	 -30.6226 	 63.8913
| 20> H 	 -0.480079 	 -30.6383 	 64.9397
| 21> H 	 -0.170404 	 -29.6987 	 63.5068
| 22> H 	 -1.62293 	 -30.6932 	 63.6314
| 23> S 	 5.71516 	 -30.2073 	 59.3381
| 24> C 	 5.98638 	 -29.0071 	 57.9912
| 25> C 	 5.11248 	 -27.9388 	 58.1089
| 26> C 	 4.26595 	 -28.0056 	 59.2708
| 27> C 	 4.45246 	 -29.2001 	 60.0158
| 28> H 	 5.29498 	 -27.0824 	 57.4597
| 29> C 	 3.34581 	 -26.8835 	 59.7424
| 30> H 	 3.87198 	 -26.3514 	 60.5671
| 31> H 	 2.43824 	 -27.4114 	 60.2522
| 32> C 	 2.77395 	 -25.8798 	 58.7092
| 33> H 	 1.77846 	 -25.5141 	 59.0273
| 34> H 	 2.62745 	 -26.3577 	 57.776
| 35> C 	 3.68728 	 -24.6675 	 58.6019
| 36> H 	 3.80954 	 -24.2178 	 59.6613
| 37> H 	 3.32526 	 -23.983 	 57.8999
| 38> H 	 4.64751 	 -25.0136 	 58.2848
| 39> H 	 2.77774 	 -29.633 	 64.7347
| 40> H 	 6.66894 	 -29.1742 	 57.2194
| 41> *
| 42>
| 43>                          ****END OF INPUT****

CARTESIAN COORDINATES (ANGSTROEM)
---------------------------------
  S      3.949660  -28.661000   62.670300
  C      3.020310  -29.776200   63.626200
  C      2.522450  -30.782500   62.860700
  C      3.044670  -30.712300   61.504400
  C      3.772910  -29.592500   61.218800
  H      2.887660  -31.432200   60.723100
  C      1.669900  -31.945800   63.410500
  H      1.799110  -31.890900   64.477600
  H      2.087450  -32.879700   63.138000
  C      0.143244  -31.771100   63.198400
  H     -0.109344  -31.608600   62.166000
  H     -0.230478  -32.740400   63.404400
  C     -0.502404  -30.622600   63.891300
  H     -0.480079  -30.638300   64.939700
  H     -0.170404  -29.698700   63.506800
  H     -1.622930  -30.693200   63.631400
  S      5.715160  -30.207300   59.338100
  C      5.986380  -29.007100   57.991200
  C      5.112480  -27.938800   58.108900
  C      4.265950  -28.005600   59.270800
  C      4.452460  -29.200100   60.015800
  H      5.294980  -27.082400   57.459700
  C      3.345810  -26.883500   59.742400
  H      3.871980  -26.351400   60.567100
  H      2.438240  -27.411400   60.252200
  C      2.773950  -25.879800   58.709200
  H      1.778460  -25.514100   59.027300
  H      2.627450  -26.357700   57.776000
  C      3.687280  -24.667500   58.601900
  H      3.809540  -24.217800   59.661300
  H      3.325260  -23.983000   57.899900
  H      4.647510  -25.013600   58.284800
  H      2.777740  -29.633000   64.734700
  H      6.668940  -29.174200   57.219400

 Total Charge           Charge          ....    0
 Multiplicity           Mult            ....    1
 Number of Electrons    NEL             ....  134
 Basis Dimension        Dim             ....  322

ORBITAL ENERGIES
----------------

  NO   OCC          E(Eh)            E(eV)
   0   2.0000     -88.967763     -2420.9359
   1   2.0000     -88.960508     -2420.7385
   2   2.0000     -10.326940      -281.0103
   3   2.0000     -10.323567      -280.9185
   4   2.0000     -10.321798      -280.8704
   5   2.0000     -10.316798      -280.7343
   6   2.0000     -10.309060      -280.5238
   7   2.0000     -10.300403      -280.2882
   8   2.0000     -10.300207      -280.2829
   9   2.0000     -10.298261      -280.2299
  10   2.0000     -10.292684      -280.0782
  11   2.0000     -10.289211      -279.9837
  12   2.0000     -10.284083      -279.8441
  13   2.0000     -10.279482      -279.7189
  14   2.0000     -10.276226      -279.6303
  15   2.0000     -10.273653      -279.5603
  16   2.0000      -8.081124      -219.8986
  17   2.0000      -8.075851      -219.7551
  18   2.0000      -6.039672      -164.3478
  19   2.0000      -6.035823      -164.2431
  20   2.0000      -6.034403      -164.2044
  21   2.0000      -6.031925      -164.1370
  22   2.0000      -6.030196      -164.0900
  23   2.0000      -6.026590      -163.9918
  24   2.0000      -1.006084       -27.3769
  25   2.0000      -0.977777       -26.6067
  26   2.0000      -0.913523       -24.8582
  27   2.0000      -0.905415       -24.6376
  28   2.0000      -0.873469       -23.7683
  29   2.0000      -0.848300       -23.0834
  30   2.0000      -0.842078       -22.9141
  31   2.0000      -0.817953       -22.2576
  32   2.0000      -0.785725       -21.3807
  33   2.0000      -0.767719       -20.8907
  34   2.0000      -0.710768       -19.3410
  35   2.0000      -0.699379       -19.0311
  36   2.0000      -0.691992       -18.8301
  37   2.0000      -0.658436       -17.9170
  38   2.0000      -0.639342       -17.3974
  39   2.0000      -0.616186       -16.7673
  40   2.0000      -0.597322       -16.2539
  41   2.0000      -0.574078       -15.6215
  42   2.0000      -0.552030       -15.0215
  43   2.0000      -0.548518       -14.9259
  44   2.0000      -0.545332       -14.8392
  45   2.0000      -0.537380       -14.6229
  46   2.0000      -0.517258       -14.0753
  47   2.0000      -0.513130       -13.9630
  48   2.0000      -0.508963       -13.8496
  49   2.0000      -0.498162       -13.5557
  50   2.0000      -0.487213       -13.2577
  51   2.0000      -0.483060       -13.1447
  52   2.0000      -0.469028       -12.7629
  53   2.0000      -0.463328       -12.6078
  54   2.0000      -0.459183       -12.4950
  55   2.0000      -0.447670       -12.1817
  56   2.0000      -0.442468       -12.0402
  57   2.0000      -0.438377       -11.9288
  58   2.0000      -0.431515       -11.7421
  59   2.0000      -0.422175       -11.4880
  60   2.0000      -0.419848       -11.4246
  61   2.0000      -0.412011       -11.2114
  62   2.0000      -0.409817       -11.1517
  63   2.0000      -0.343714        -9.3529
  64   2.0000      -0.331711        -9.0263
  65   2.0000      -0.324764        -8.8373
  66   2.0000      -0.297016        -8.0822
  67   0.0000       0.032799         0.8925
  68   0.0000       0.066934         1.8214
  69   0.0000       0.109604         2.9825
  70   0.0000       0.119905         3.2628
  71   0.0000       0.128627         3.5001

MULLIKEN ATOMIC CHARGES
-----------------------
   0 S :    0.104795
   1 C :   -0.147161
   2 C :   -0.108449
   3 C :    0.031668
   4 C :   -0.183552
   5 H :    0.003501
   6 C :    0.094295
   7 H :    0.003406
   8 H :    0.022282
   9 C :   -0.036781
  10 H :    0.018987
  11 H :    0.016093
  12 C :   -0.039026
  13 H :    0.018160
  14 H :    0.035413
  15 H :    0.036190
  16 S :    0.107138
  17 C :   -0.086941
  18 C :   -0.035270
  19 C :   -0.024711
  20 C :   -0.129342
  21 H :    0.033897
  22 C :   -0.017534
  23 H :    0.049217
  24 H :    0.058452
  25 C :   -0.041384
  26 H :    0.030754
  27 H :    0.022816
  28 C :   -0.037191
  29 H :    0.042881
  30 H :    0.027598
  31 H :    0.012417
  32 H :    0.076586
  33 H :    0.040796
Sum of atomic charges:   -0.0000000

LOEWDIN ATOMIC CHARGES
----------------------
   0 S :    0.414128
   1 C :   -0.208659
   2 C :   -0.068906
   3 C :   -0.059345
   4 C :   -0.202677
   5 H :    0.028008
   6 C :   -0.022486
   7 H :    0.026652
   8 H :    0.025774
   9 C :   -0.037715
  10 H :    0.023664
  11 H :    0.019335
  12 C :   -0.058072
  13 H :    0.013204
  14 H :    0.022303
  15 H :    0.040594
  16 S :    0.383407
  17 C :   -0.151769
  18 C :   -0.073121
  19 C :   -0.052801
  20 C :   -0.206978
  21 H :    0.035586
  22 C :   -0.046740
  23 H :    0.033550
  24 H :    0.044802
  25 C :   -0.040081
  26 H :    0.028457
  27 H :    0.018346
  28 C :   -0.058995
  29 H :    0.036375
  30 H :    0.016539
  31 H :    0.015055
  32 H :    0.045600
  33 H :    0.016965

  Mayer bond orders larger than 0.100000
B(  0-S ,  1-C ) :   1.1407 B(  0-S ,  4-C ) :   1.1444 B(  1-C ,  2-C ) :   1.6376
B(  1-C , 32-H ) :   0.9531 B(  2-C ,  3-C ) :   1.2126 B(  2-C ,  6-C ) :   1.0139
B(  3-C ,  4-C ) :   1.6060 B(  3-C ,  5-H ) :   1.0042 B(  4-C , 20-C ) :   1.0298
B(  6-C ,  7-H ) :   0.9406 B(  6-C ,  8-H ) :   0.9459 B(  6-C ,  9-C ) :   1.0615
B(  9-C , 10-H ) :   0.9573 B(  9-C , 11-H ) :   0.9562 B(  9-C , 12-C ) :   1.0822
B( 12-C , 13-H ) :   0.9767 B( 12-C , 14-H ) :   0.9722 B( 12-C , 15-H ) :   0.9697
B( 16-S , 17-C ) :   1.1426 B( 16-S , 20-C ) :   1.1410 B( 17-C , 18-C ) :   1.6199
B( 17-C , 20-C ) :   0.1045 B( 17-C , 33-H ) :   0.9741 B( 18-C , 19-C ) :   1.2392
B( 18-C , 21-H ) :   0.9786 B( 19-C , 20-C ) :   1.5735 B( 19-C , 22-C ) :   1.0453
B( 22-C , 23-H ) :   0.9366 B( 22-C , 24-H ) :   0.9285 B( 22-C , 25-C ) :   1.0588
B( 25-C , 26-H ) :   0.9578 B( 25-C , 27-H ) :   0.9575 B( 25-C , 28-C ) :   1.0771
B( 28-C , 29-H ) :   0.9730 B( 28-C , 30-H ) :   0.9716 B( 28-C , 31-H ) :   0.9775

Dispersion correction           -0.014317655
FINAL SINGLE POINT ENERGY     -1339.874777168000

DIPOLE MOMENT
-------------
                                X             Y             Z
Electronic contribution:     19.60594      -7.43366      -2.28859
Nuclear contribution   :    -20.01441       7.47348       2.23132
                        -----------------------------------------
Total Dipole Moment    :     -0.40848       0.03981      -0.05727
                        -----------------------------------------
Magnitude (a.u.)       :      0.41439
Magnitude (Debye)      :      1.05329

Rotational constants in cm-1:     0.020983     0.007719     0.006489
Rotational constants in MHz :   629.049732   231.417044   194.522706

                             ****ORCA TERMINATED NORMALLY****
TOTAL RUN TIME: 0 days 0 hours 0 minutes 34 seconds 146 msec
