                         Program Version 4.2.1 -  RELEASE  -
|  1> ! wB97X-D3 SP def2-SVP
|  2> %pal
|  3> nprocs 16
|  4> end
|  5>
|  6> * xyz 0 1
|  7> S 	 -37.3863 	 24.3467 	 82.4212
|  8> C 	 -38.6298 	 23.2496 	 81.8973
|  9> C 	 -38.0981 	 22.0167 	 81.542
| 10> C 	 -36.6523 	 22.1516 	 81.4744
| 11> C 	 -36.1391 	 23.3763 	 81.8314
| 12> H 	 -36.0277 	 21.3696 	 81.0243
| 13> C 	 -38.8195 	 20.6897 	 81.2466
| 14> H 	 -38.7684 	 20.4279 	 80.1813
| 15> H 	 -39.9244 	 20.9424 	 81.2912
| 16> C 	 -38.4721 	 19.4198 	 82.0871
| 17> H 	 -39.2984 	 18.7202 	 81.9374
| 18> H 	 -37.653 	 18.9146 	 81.6337
| 19> C 	 -38.2814 	 19.62 	 83.6153
| 20> H 	 -37.556 	 20.4204 	 83.7747
| 21> H 	 -39.2033 	 20.0057 	 84.0833
| 22> H 	 -38.0783 	 18.755 	 84.1998
| 23> S 	 -34.2708 	 23.9373 	 83.7627
| 24> C 	 -32.6519 	 24.0496 	 83.2798
| 25> C 	 -32.4129 	 23.7469 	 81.9649
| 26> C 	 -33.6539 	 23.5574 	 81.2515
| 27> C 	 -34.7456 	 23.6662 	 82.0463
| 28> H 	 -31.4242 	 23.7982 	 81.4358
| 29> C 	 -33.5865 	 23.49 	 79.7271
| 30> H 	 -34.414 	 22.8245 	 79.4517
| 31> H 	 -32.8411 	 22.7291 	 79.4122
| 32> C 	 -33.4438 	 24.8496 	 78.8804
| 33> H 	 -32.5159 	 25.2994 	 79.1531
| 34> H 	 -34.2178 	 25.5678 	 79.2084
| 35> C 	 -33.42 	 24.6041 	 77.3308
| 36> H 	 -33.1273 	 25.4565 	 76.7339
| 37> H 	 -34.3815 	 24.2554 	 76.9652
| 38> H 	 -32.6335 	 23.8853 	 77.0786
| 39> H 	 -39.6577 	 23.293 	 82.1843
| 40> H 	 -31.9105 	 24.4703 	 83.887
| 41> *
| 42>
| 43>                          ****END OF INPUT****

CARTESIAN COORDINATES (ANGSTROEM)
---------------------------------
  S    -37.386300   24.346700   82.421200
  C    -38.629800   23.249600   81.897300
  C    -38.098100   22.016700   81.542000
  C    -36.652300   22.151600   81.474400
  C    -36.139100   23.376300   81.831400
  H    -36.027700   21.369600   81.024300
  C    -38.819500   20.689700   81.246600
  H    -38.768400   20.427900   80.181300
  H    -39.924400   20.942400   81.291200
  C    -38.472100   19.419800   82.087100
  H    -39.298400   18.720200   81.937400
  H    -37.653000   18.914600   81.633700
  C    -38.281400   19.620000   83.615300
  H    -37.556000   20.420400   83.774700
  H    -39.203300   20.005700   84.083300
  H    -38.078300   18.755000   84.199800
  S    -34.270800   23.937300   83.762700
  C    -32.651900   24.049600   83.279800
  C    -32.412900   23.746900   81.964900
  C    -33.653900   23.557400   81.251500
  C    -34.745600   23.666200   82.046300
  H    -31.424200   23.798200   81.435800
  C    -33.586500   23.490000   79.727100
  H    -34.414000   22.824500   79.451700
  H    -32.841100   22.729100   79.412200
  C    -33.443800   24.849600   78.880400
  H    -32.515900   25.299400   79.153100
  H    -34.217800   25.567800   79.208400
  C    -33.420000   24.604100   77.330800
  H    -33.127300   25.456500   76.733900
  H    -34.381500   24.255400   76.965200
  H    -32.633500   23.885300   77.078600
  H    -39.657700   23.293000   82.184300
  H    -31.910500   24.470300   83.887000

 Total Charge           Charge          ....    0
 Multiplicity           Mult            ....    1
 Number of Electrons    NEL             ....  134
 Basis Dimension        Dim             ....  322

ORBITAL ENERGIES
----------------

  NO   OCC          E(Eh)            E(eV)
   0   2.0000     -88.965818     -2420.8830
   1   2.0000     -88.963142     -2420.8102
   2   2.0000     -10.324249      -280.9371
   3   2.0000     -10.321492      -280.8621
   4   2.0000     -10.311888      -280.6007
   5   2.0000     -10.308549      -280.5099
   6   2.0000     -10.305470      -280.4261
   7   2.0000     -10.303861      -280.3823
   8   2.0000     -10.300792      -280.2988
   9   2.0000     -10.296689      -280.1872
  10   2.0000     -10.295912      -280.1660
  11   2.0000     -10.293492      -280.1001
  12   2.0000     -10.291923      -280.0575
  13   2.0000     -10.290841      -280.0280
  14   2.0000     -10.280894      -279.7573
  15   2.0000     -10.275068      -279.5988
  16   2.0000      -8.081894      -219.9195
  17   2.0000      -8.078677      -219.8320
  18   2.0000      -6.040389      -164.3673
  19   2.0000      -6.037141      -164.2790
  20   2.0000      -6.036177      -164.2527
  21   2.0000      -6.033242      -164.1729
  22   2.0000      -6.032603      -164.1555
  23   2.0000      -6.029252      -164.0643
  24   2.0000      -1.013571       -27.5807
  25   2.0000      -0.988455       -26.8972
  26   2.0000      -0.905563       -24.6416
  27   2.0000      -0.896564       -24.3967
  28   2.0000      -0.870673       -23.6922
  29   2.0000      -0.851217       -23.1628
  30   2.0000      -0.841280       -22.8924
  31   2.0000      -0.809929       -22.0393
  32   2.0000      -0.784985       -21.3605
  33   2.0000      -0.775821       -21.1112
  34   2.0000      -0.712303       -19.3828
  35   2.0000      -0.705129       -19.1875
  36   2.0000      -0.695969       -18.9383
  37   2.0000      -0.661710       -18.0060
  38   2.0000      -0.637171       -17.3383
  39   2.0000      -0.617034       -16.7904
  40   2.0000      -0.596306       -16.2263
  41   2.0000      -0.562080       -15.2950
  42   2.0000      -0.551023       -14.9941
  43   2.0000      -0.548684       -14.9305
  44   2.0000      -0.542630       -14.7657
  45   2.0000      -0.520319       -14.1586
  46   2.0000      -0.513906       -13.9841
  47   2.0000      -0.508798       -13.8451
  48   2.0000      -0.503965       -13.7136
  49   2.0000      -0.495791       -13.4912
  50   2.0000      -0.488123       -13.2825
  51   2.0000      -0.479564       -13.0496
  52   2.0000      -0.465838       -12.6761
  53   2.0000      -0.459841       -12.5129
  54   2.0000      -0.456531       -12.4228
  55   2.0000      -0.451650       -12.2900
  56   2.0000      -0.448484       -12.2039
  57   2.0000      -0.438562       -11.9339
  58   2.0000      -0.435415       -11.8482
  59   2.0000      -0.428267       -11.6537
  60   2.0000      -0.422232       -11.4895
  61   2.0000      -0.412727       -11.2309
  62   2.0000      -0.408151       -11.1064
  63   2.0000      -0.342710        -9.3256
  64   2.0000      -0.333012        -9.0617
  65   2.0000      -0.326779        -8.8921
  66   2.0000      -0.299233        -8.1425
  67   0.0000       0.032744         0.8910
  68   0.0000       0.069747         1.8979
  69   0.0000       0.114228         3.1083
  70   0.0000       0.116973         3.1830
  71   0.0000       0.126916         3.4536

MULLIKEN ATOMIC CHARGES
-----------------------
   0 S :    0.110967
   1 C :   -0.085868
   2 C :   -0.132300
   3 C :    0.027011
   4 C :   -0.159684
   5 H :    0.017973
   6 C :    0.039847
   7 H :    0.042055
   8 H :    0.018829
   9 C :   -0.057394
  10 H :    0.028452
  11 H :    0.025649
  12 C :   -0.041855
  13 H :    0.046169
  14 H :    0.020158
  15 H :    0.033523
  16 S :    0.104790
  17 C :   -0.063085
  18 C :   -0.040929
  19 C :   -0.068445
  20 C :   -0.136494
  21 H :    0.037004
  22 C :    0.049731
  23 H :    0.005446
  24 H :    0.013288
  25 C :   -0.027926
  26 H :    0.018587
  27 H :    0.045802
  28 C :   -0.053317
  29 H :    0.032942
  30 H :    0.039780
  31 H :    0.026773
  32 H :    0.041829
  33 H :    0.040695
Sum of atomic charges:    0.0000000

LOEWDIN ATOMIC CHARGES
----------------------
   0 S :    0.439015
   1 C :   -0.202586
   2 C :   -0.063168
   3 C :   -0.062781
   4 C :   -0.224505
   5 H :    0.029486
   6 C :   -0.038770
   7 H :    0.036937
   8 H :    0.033425
   9 C :   -0.038061
  10 H :    0.028821
  11 H :    0.018717
  12 C :   -0.066576
  13 H :    0.029122
  14 H :    0.027108
  15 H :    0.023308
  16 S :    0.401092
  17 C :   -0.188706
  18 C :   -0.074706
  19 C :   -0.059651
  20 C :   -0.180477
  21 H :    0.040476
  22 C :   -0.044925
  23 H :    0.028211
  24 H :    0.032460
  25 C :   -0.027664
  26 H :    0.018575
  27 H :    0.030996
  28 C :   -0.066036
  29 H :    0.026498
  30 H :    0.025490
  31 H :    0.026317
  32 H :    0.023980
  33 H :    0.018577

  Mayer bond orders larger than 0.100000
B(  0-S ,  1-C ) :   1.1478 B(  0-S ,  4-C ) :   1.1631 B(  1-C ,  2-C ) :   1.6171
B(  1-C , 32-H ) :   0.9585 B(  2-C ,  3-C ) :   1.2507 B(  2-C ,  6-C ) :   1.0237
B(  3-C ,  4-C ) :   1.5612 B(  3-C ,  5-H ) :   0.9906 B(  4-C , 20-C ) :   1.0281
B(  6-C ,  7-H ) :   0.9426 B(  6-C ,  8-H ) :   0.9403 B(  6-C ,  9-C ) :   1.0602
B(  9-C , 10-H ) :   0.9555 B(  9-C , 11-H ) :   0.9567 B(  9-C , 12-C ) :   1.0756
B( 12-C , 13-H ) :   0.9723 B( 12-C , 14-H ) :   0.9745 B( 12-C , 15-H ) :   0.9762
B( 16-S , 17-C ) :   1.1628 B( 16-S , 20-C ) :   1.1134 B( 17-C , 18-C ) :   1.6205
B( 17-C , 33-H ) :   0.9678 B( 18-C , 19-C ) :   1.2185 B( 18-C , 21-H ) :   0.9835
B( 19-C , 20-C ) :   1.6643 B( 19-C , 22-C ) :   1.0555 B( 22-C , 23-H ) :   0.9269
B( 22-C , 24-H ) :   0.9300 B( 22-C , 25-C ) :   1.0331 B( 25-C , 26-H ) :   0.9573
B( 25-C , 27-H ) :   0.9610 B( 25-C , 28-C ) :   1.0736 B( 28-C , 29-H ) :   0.9756
B( 28-C , 30-H ) :   0.9799 B( 28-C , 31-H ) :   0.9747

Dispersion correction           -0.014173927
FINAL SINGLE POINT ENERGY     -1339.869201089474

DIPOLE MOMENT
-------------
                                X             Y             Z
Electronic contribution:      1.08205      12.94517      15.93012
Nuclear contribution   :     -0.97796     -13.34979     -16.30431
                        -----------------------------------------
Total Dipole Moment    :      0.10409      -0.40462      -0.37419
                        -----------------------------------------
Magnitude (a.u.)       :      0.56087
Magnitude (Debye)      :      1.42561

Rotational constants in cm-1:     0.017976     0.008313     0.007131
Rotational constants in MHz :   538.900281   249.205747   213.767984

                             ****ORCA TERMINATED NORMALLY****
TOTAL RUN TIME: 0 days 0 hours 0 minutes 29 seconds 272 msec
