                         Program Version 4.2.1 -  RELEASE  -
|  1> ! wB97X-D3 SP def2-SVP
|  2> %pal
|  3> nprocs 16
|  4> end
|  5>
|  6> * xyz 0 1
|  7> S 	 45.3682 	 20.8914 	 101.779
|  8> C 	 45.3064 	 21.8075 	 100.293
|  9> C 	 44.5256 	 21.0088 	 99.435
| 10> C 	 43.9723 	 19.7587 	 99.9702
| 11> C 	 44.2658 	 19.6086 	 101.298
| 12> H 	 43.491 	 18.9762 	 99.3917
| 13> C 	 44.3154 	 21.4382 	 97.9678
| 14> H 	 45.0971 	 22.2116 	 97.8679
| 15> H 	 43.3757 	 21.9352 	 97.8477
| 16> C 	 44.6287 	 20.2779 	 96.9909
| 17> H 	 44.2831 	 19.3135 	 97.3199
| 18> H 	 44.1581 	 20.4989 	 96.0173
| 19> C 	 46.1916 	 20.0379 	 96.6609
| 20> H 	 46.3289 	 19.2554 	 95.8645
| 21> H 	 46.5759 	 20.9483 	 96.2164
| 22> H 	 46.7824 	 19.7811 	 97.5266
| 23> S 	 42.5874 	 18.9617 	 103.305
| 24> C 	 42.4028 	 17.3081 	 103.809
| 25> C 	 43.3398 	 16.4719 	 103.179
| 26> C 	 44.1556 	 17.1955 	 102.267
| 27> C 	 43.8794 	 18.5461 	 102.205
| 28> H 	 43.4295 	 15.4001 	 103.443
| 29> C 	 45.243 	 16.4618 	 101.529
| 30> H 	 45.8763 	 15.7982 	 102.244
| 31> H 	 45.9474 	 17.2341 	 101.204
| 32> C 	 44.7397 	 15.7307 	 100.277
| 33> H 	 45.6361 	 15.3354 	 99.7434
| 34> H 	 44.2546 	 16.3849 	 99.4806
| 35> C 	 43.7249 	 14.6016 	 100.548
| 36> H 	 44.1565 	 13.8954 	 101.269
| 37> H 	 43.5244 	 14.1045 	 99.5785
| 38> H 	 42.8172 	 14.942 	 101.009
| 39> H 	 45.8592 	 22.6972 	 100.056
| 40> H 	 41.5719 	 16.9039 	 104.459
| 41> *
| 42>
| 43>                          ****END OF INPUT****

CARTESIAN COORDINATES (ANGSTROEM)
---------------------------------
  S     45.368200   20.891400  101.779000
  C     45.306400   21.807500  100.293000
  C     44.525600   21.008800   99.435000
  C     43.972300   19.758700   99.970200
  C     44.265800   19.608600  101.298000
  H     43.491000   18.976200   99.391700
  C     44.315400   21.438200   97.967800
  H     45.097100   22.211600   97.867900
  H     43.375700   21.935200   97.847700
  C     44.628700   20.277900   96.990900
  H     44.283100   19.313500   97.319900
  H     44.158100   20.498900   96.017300
  C     46.191600   20.037900   96.660900
  H     46.328900   19.255400   95.864500
  H     46.575900   20.948300   96.216400
  H     46.782400   19.781100   97.526600
  S     42.587400   18.961700  103.305000
  C     42.402800   17.308100  103.809000
  C     43.339800   16.471900  103.179000
  C     44.155600   17.195500  102.267000
  C     43.879400   18.546100  102.205000
  H     43.429500   15.400100  103.443000
  C     45.243000   16.461800  101.529000
  H     45.876300   15.798200  102.244000
  H     45.947400   17.234100  101.204000
  C     44.739700   15.730700  100.277000
  H     45.636100   15.335400   99.743400
  H     44.254600   16.384900   99.480600
  C     43.724900   14.601600  100.548000
  H     44.156500   13.895400  101.269000
  H     43.524400   14.104500   99.578500
  H     42.817200   14.942000  101.009000
  H     45.859200   22.697200  100.056000
  H     41.571900   16.903900  104.459000

 Total Charge           Charge          ....    0
 Multiplicity           Mult            ....    1
 Number of Electrons    NEL             ....  134
 Basis Dimension        Dim             ....  322

ORBITAL ENERGIES
----------------

  NO   OCC          E(Eh)            E(eV)
   0   2.0000     -88.967507     -2420.9289
   1   2.0000     -88.960715     -2420.7441
   2   2.0000     -10.331242      -281.1274
   3   2.0000     -10.325388      -280.9681
   4   2.0000     -10.324755      -280.9509
   5   2.0000     -10.318541      -280.7818
   6   2.0000     -10.307003      -280.4678
   7   2.0000     -10.303784      -280.3802
   8   2.0000     -10.298440      -280.2348
   9   2.0000     -10.297992      -280.2226
  10   2.0000     -10.297620      -280.2125
  11   2.0000     -10.295112      -280.1443
  12   2.0000     -10.293079      -280.0889
  13   2.0000     -10.292445      -280.0717
  14   2.0000     -10.282528      -279.8018
  15   2.0000     -10.277766      -279.6722
  16   2.0000      -8.082466      -219.9351
  17   2.0000      -8.075448      -219.7441
  18   2.0000      -6.040853      -164.3800
  19   2.0000      -6.036851      -164.2711
  20   2.0000      -6.034001      -164.1935
  21   2.0000      -6.033405      -164.1773
  22   2.0000      -6.029779      -164.0786
  23   2.0000      -6.026282      -163.9835
  24   2.0000      -1.007810       -27.4239
  25   2.0000      -0.983409       -26.7599
  26   2.0000      -0.908197       -24.7133
  27   2.0000      -0.901607       -24.5340
  28   2.0000      -0.869404       -23.6577
  29   2.0000      -0.847405       -23.0591
  30   2.0000      -0.833949       -22.6929
  31   2.0000      -0.817070       -22.2336
  32   2.0000      -0.781874       -21.2759
  33   2.0000      -0.767662       -20.8891
  34   2.0000      -0.710996       -19.3472
  35   2.0000      -0.695573       -18.9275
  36   2.0000      -0.684446       -18.6247
  37   2.0000      -0.662558       -18.0291
  38   2.0000      -0.643680       -17.5154
  39   2.0000      -0.618130       -16.8202
  40   2.0000      -0.590751       -16.0752
  41   2.0000      -0.568193       -15.4613
  42   2.0000      -0.549527       -14.9534
  43   2.0000      -0.546680       -14.8759
  44   2.0000      -0.541934       -14.7468
  45   2.0000      -0.532130       -14.4800
  46   2.0000      -0.524070       -14.2607
  47   2.0000      -0.519570       -14.1382
  48   2.0000      -0.504070       -13.7164
  49   2.0000      -0.494396       -13.4532
  50   2.0000      -0.483317       -13.1517
  51   2.0000      -0.482348       -13.1253
  52   2.0000      -0.468033       -12.7358
  53   2.0000      -0.465494       -12.6667
  54   2.0000      -0.458537       -12.4774
  55   2.0000      -0.443541       -12.0694
  56   2.0000      -0.442972       -12.0539
  57   2.0000      -0.440791       -11.9945
  58   2.0000      -0.436932       -11.8895
  59   2.0000      -0.420843       -11.4517
  60   2.0000      -0.416415       -11.3312
  61   2.0000      -0.409929       -11.1547
  62   2.0000      -0.399189       -10.8625
  63   2.0000      -0.340672        -9.2702
  64   2.0000      -0.329646        -8.9701
  65   2.0000      -0.321878        -8.7587
  66   2.0000      -0.306749        -8.3471
  67   0.0000       0.041066         1.1175
  68   0.0000       0.053255         1.4491
  69   0.0000       0.112087         3.0500
  70   0.0000       0.117564         3.1991
  71   0.0000       0.131351         3.5742

MULLIKEN ATOMIC CHARGES
-----------------------
   0 S :    0.096933
   1 C :   -0.106560
   2 C :   -0.150455
   3 C :    0.061320
   4 C :   -0.162454
   5 H :    0.022661
   6 C :    0.092382
   7 H :    0.010690
   8 H :    0.046542
   9 C :   -0.089470
  10 H :    0.029710
  11 H :    0.032598
  12 C :   -0.081370
  13 H :    0.041079
  14 H :    0.026352
  15 H :    0.045133
  16 S :    0.126072
  17 C :   -0.115311
  18 C :   -0.061638
  19 C :   -0.010585
  20 C :   -0.176236
  21 H :    0.037187
  22 C :    0.038721
  23 H :    0.053391
  24 H :    0.027854
  25 C :   -0.095865
  26 H :    0.035351
  27 H :    0.034544
  28 C :   -0.055388
  29 H :    0.023282
  30 H :    0.042126
  31 H :    0.042193
  32 H :    0.058209
  33 H :    0.081003
Sum of atomic charges:   -0.0000000

LOEWDIN ATOMIC CHARGES
----------------------
   0 S :    0.401133
   1 C :   -0.204237
   2 C :   -0.060688
   3 C :   -0.064359
   4 C :   -0.196434
   5 H :    0.033115
   6 C :   -0.031561
   7 H :    0.029752
   8 H :    0.029655
   9 C :   -0.037028
  10 H :    0.016320
  11 H :    0.026036
  12 C :   -0.066119
  13 H :    0.031344
  14 H :    0.019608
  15 H :    0.022877
  16 S :    0.428201
  17 C :   -0.197966
  18 C :   -0.080052
  19 C :   -0.054490
  20 C :   -0.211183
  21 H :    0.038589
  22 C :   -0.040920
  23 H :    0.044145
  24 H :    0.032851
  25 C :   -0.046341
  26 H :    0.027181
  27 H :    0.028845
  28 C :   -0.069037
  29 H :    0.021416
  30 H :    0.031481
  31 H :    0.021293
  32 H :    0.033107
  33 H :    0.043466

  Mayer bond orders larger than 0.100000
B(  0-S ,  1-C ) :   1.1322 B(  0-S ,  4-C ) :   1.1628 B(  1-C ,  2-C ) :   1.5968
B(  1-C , 32-H ) :   0.9760 B(  2-C ,  3-C ) :   1.2249 B(  2-C ,  6-C ) :   1.0117
B(  3-C ,  4-C ) :   1.5882 B(  3-C ,  5-H ) :   0.9931 B(  4-C , 20-C ) :   0.9937
B(  6-C ,  7-H ) :   0.9488 B(  6-C ,  8-H ) :   0.9451 B(  6-C ,  9-C ) :   1.0505
B(  9-C , 10-H ) :   0.9658 B(  9-C , 11-H ) :   0.9585 B(  9-C , 12-C ) :   1.0661
B( 12-C , 13-H ) :   0.9780 B( 12-C , 14-H ) :   0.9773 B( 12-C , 15-H ) :   0.9805
B( 16-S , 17-C ) :   1.1805 B( 16-S , 20-C ) :   1.1516 B( 17-C , 18-C ) :   1.5801
B( 17-C , 20-C ) :   0.1041 B( 17-C , 33-H ) :   0.9585 B( 18-C , 19-C ) :   1.2509
B( 18-C , 21-H ) :   0.9836 B( 19-C , 20-C ) :   1.6079 B( 19-C , 22-C ) :   1.0342
B( 22-C , 23-H ) :   0.9456 B( 22-C , 24-H ) :   0.9262 B( 22-C , 25-C ) :   1.0726
B( 25-C , 26-H ) :   0.9546 B( 25-C , 27-H ) :   0.9527 B( 25-C , 28-C ) :   1.0790
B( 28-C , 29-H ) :   0.9736 B( 28-C , 30-H ) :   0.9719 B( 28-C , 31-H ) :   0.9687

Dispersion correction           -0.015020400
FINAL SINGLE POINT ENERGY     -1339.877548644803

DIPOLE MOMENT
-------------
                                X             Y             Z
Electronic contribution:     -6.00783      13.27781      23.99343
Nuclear contribution   :      6.02905     -13.66887     -24.52680
                        -----------------------------------------
Total Dipole Moment    :      0.02122      -0.39106      -0.53337
                        -----------------------------------------
Magnitude (a.u.)       :      0.66171
Magnitude (Debye)      :      1.68194

Rotational constants in cm-1:     0.018808     0.009339     0.007102
Rotational constants in MHz :   563.862373   279.981827   212.917612

                             ****ORCA TERMINATED NORMALLY****
TOTAL RUN TIME: 0 days 0 hours 0 minutes 29 seconds 367 msec
