                         Program Version 4.2.1 -  RELEASE  -
|  1> ! wB97X-D3 SP def2-SVP
|  2> %pal
|  3> nprocs 16
|  4> end
|  5>
|  6> * xyz 0 1
|  7> S 	 46.2538 	 21.9468 	 90.2556
|  8> C 	 47.8714 	 22.1493 	 90.9412
|  9> C 	 48.6997 	 21.2345 	 90.3467
| 10> C 	 48.085 	 20.3379 	 89.3981
| 11> C 	 46.7257 	 20.5254 	 89.3026
| 12> H 	 48.5933 	 19.6809 	 88.7947
| 13> C 	 50.1667 	 21.2038 	 90.5631
| 14> H 	 50.404 	 20.6231 	 91.4483
| 15> H 	 50.4374 	 22.2262 	 90.8854
| 16> C 	 51.1397 	 20.9449 	 89.4242
| 17> H 	 50.9176 	 20.0159 	 88.9593
| 18> H 	 50.9722 	 21.5438 	 88.5642
| 19> C 	 52.6445 	 21.1371 	 89.7798
| 20> H 	 53.0026 	 22.1448 	 89.7079
| 21> H 	 52.9555 	 20.6876 	 90.7675
| 22> H 	 53.3104 	 20.5993 	 89.0989
| 23> S 	 46.1752 	 17.9585 	 88.8818
| 24> C 	 44.8591 	 17.5372 	 87.7601
| 25> C 	 44.394 	 18.6043 	 87.0433
| 26> C 	 45.0849 	 19.8195 	 87.4185
| 27> C 	 45.9063 	 19.6507 	 88.5238
| 28> H 	 43.649 	 18.5331 	 86.2262
| 29> C 	 44.8146 	 21.1312 	 86.6436
| 30> H 	 45.4276 	 21.8712 	 87.1639
| 31> H 	 43.7596 	 21.3473 	 86.8279
| 32> C 	 45.1202 	 21.196 	 85.0953
| 33> H 	 44.8574 	 22.0774 	 84.5814
| 34> H 	 44.5016 	 20.4229 	 84.6662
| 35> C 	 46.679 	 21.0461 	 84.7602
| 36> H 	 47.0979 	 20.1055 	 85.1281
| 37> H 	 47.2334 	 21.8864 	 85.1121
| 38> H 	 46.9504 	 21.0524 	 83.6994
| 39> H 	 48.2287 	 22.8619 	 91.7139
| 40> H 	 44.4745 	 16.5698 	 87.4947
| 41> *
| 42>
| 43>                          ****END OF INPUT****

CARTESIAN COORDINATES (ANGSTROEM)
---------------------------------
  S     46.253800   21.946800   90.255600
  C     47.871400   22.149300   90.941200
  C     48.699700   21.234500   90.346700
  C     48.085000   20.337900   89.398100
  C     46.725700   20.525400   89.302600
  H     48.593300   19.680900   88.794700
  C     50.166700   21.203800   90.563100
  H     50.404000   20.623100   91.448300
  H     50.437400   22.226200   90.885400
  C     51.139700   20.944900   89.424200
  H     50.917600   20.015900   88.959300
  H     50.972200   21.543800   88.564200
  C     52.644500   21.137100   89.779800
  H     53.002600   22.144800   89.707900
  H     52.955500   20.687600   90.767500
  H     53.310400   20.599300   89.098900
  S     46.175200   17.958500   88.881800
  C     44.859100   17.537200   87.760100
  C     44.394000   18.604300   87.043300
  C     45.084900   19.819500   87.418500
  C     45.906300   19.650700   88.523800
  H     43.649000   18.533100   86.226200
  C     44.814600   21.131200   86.643600
  H     45.427600   21.871200   87.163900
  H     43.759600   21.347300   86.827900
  C     45.120200   21.196000   85.095300
  H     44.857400   22.077400   84.581400
  H     44.501600   20.422900   84.666200
  C     46.679000   21.046100   84.760200
  H     47.097900   20.105500   85.128100
  H     47.233400   21.886400   85.112100
  H     46.950400   21.052400   83.699400
  H     48.228700   22.861900   91.713900
  H     44.474500   16.569800   87.494700

 Total Charge           Charge          ....    0
 Multiplicity           Mult            ....    1
 Number of Electrons    NEL             ....  134
 Basis Dimension        Dim             ....  322

ORBITAL ENERGIES
----------------

  NO   OCC          E(Eh)            E(eV)
   0   2.0000     -88.968408     -2420.9534
   1   2.0000     -88.967641     -2420.9326
   2   2.0000     -10.329753      -281.0869
   3   2.0000     -10.325643      -280.9750
   4   2.0000     -10.317096      -280.7425
   5   2.0000     -10.316146      -280.7166
   6   2.0000     -10.306808      -280.4625
   7   2.0000     -10.297213      -280.2014
   8   2.0000     -10.296759      -280.1890
   9   2.0000     -10.295863      -280.1647
  10   2.0000     -10.292240      -280.0661
  11   2.0000     -10.286326      -279.9052
  12   2.0000     -10.286172      -279.9010
  13   2.0000     -10.283851      -279.8378
  14   2.0000     -10.283745      -279.8349
  15   2.0000     -10.276501      -279.6378
  16   2.0000      -8.082557      -219.9376
  17   2.0000      -8.081186      -219.9002
  18   2.0000      -6.041282      -164.3916
  19   2.0000      -6.039923      -164.3547
  20   2.0000      -6.037328      -164.2840
  21   2.0000      -6.035816      -164.2429
  22   2.0000      -6.032911      -164.1639
  23   2.0000      -6.031793      -164.1334
  24   2.0000      -1.006775       -27.3957
  25   2.0000      -0.981318       -26.7030
  26   2.0000      -0.911435       -24.8014
  27   2.0000      -0.895859       -24.3776
  28   2.0000      -0.876852       -23.8604
  29   2.0000      -0.847594       -23.0642
  30   2.0000      -0.839770       -22.8513
  31   2.0000      -0.816758       -22.2251
  32   2.0000      -0.780960       -21.2510
  33   2.0000      -0.770162       -20.9572
  34   2.0000      -0.720653       -19.6100
  35   2.0000      -0.706530       -19.2257
  36   2.0000      -0.695196       -18.9173
  37   2.0000      -0.664549       -18.0833
  38   2.0000      -0.639506       -17.4018
  39   2.0000      -0.618392       -16.8273
  40   2.0000      -0.586639       -15.9633
  41   2.0000      -0.569784       -15.5046
  42   2.0000      -0.559794       -15.2328
  43   2.0000      -0.547177       -14.8894
  44   2.0000      -0.545659       -14.8481
  45   2.0000      -0.520574       -14.1655
  46   2.0000      -0.514845       -14.0097
  47   2.0000      -0.510764       -13.8986
  48   2.0000      -0.507746       -13.8165
  49   2.0000      -0.496491       -13.5102
  50   2.0000      -0.486700       -13.2438
  51   2.0000      -0.478550       -13.0220
  52   2.0000      -0.473587       -12.8870
  53   2.0000      -0.462966       -12.5979
  54   2.0000      -0.454905       -12.3786
  55   2.0000      -0.451538       -12.2870
  56   2.0000      -0.449408       -12.2290
  57   2.0000      -0.437421       -11.9028
  58   2.0000      -0.433533       -11.7970
  59   2.0000      -0.425967       -11.5912
  60   2.0000      -0.419353       -11.4112
  61   2.0000      -0.414516       -11.2796
  62   2.0000      -0.407907       -11.0997
  63   2.0000      -0.346755        -9.4357
  64   2.0000      -0.333147        -9.0654
  65   2.0000      -0.324958        -8.8425
  66   2.0000      -0.292878        -7.9696
  67   0.0000       0.029252         0.7960
  68   0.0000       0.065647         1.7864
  69   0.0000       0.097356         2.6492
  70   0.0000       0.122081         3.3220
  71   0.0000       0.131121         3.5680

MULLIKEN ATOMIC CHARGES
-----------------------
   0 S :    0.112419
   1 C :   -0.138882
   2 C :   -0.066399
   3 C :    0.025172
   4 C :   -0.120933
   5 H :   -0.013348
   6 C :    0.061300
   7 H :    0.038070
   8 H :    0.010013
   9 C :   -0.044379
  10 H :    0.015228
  11 H :    0.014982
  12 C :   -0.066055
  13 H :    0.037554
  14 H :    0.034584
  15 H :    0.025184
  16 S :    0.111608
  17 C :   -0.068286
  18 C :   -0.042901
  19 C :   -0.049376
  20 C :   -0.175044
  21 H :    0.035308
  22 C :    0.060961
  23 H :    0.018605
  24 H :    0.042436
  25 C :   -0.037506
  26 H :    0.027883
  27 H :    0.020590
  28 C :   -0.073849
  29 H :    0.040996
  30 H :    0.029607
  31 H :    0.027126
  32 H :    0.062959
  33 H :    0.044376
Sum of atomic charges:   -0.0000000

LOEWDIN ATOMIC CHARGES
----------------------
   0 S :    0.390483
   1 C :   -0.202011
   2 C :   -0.062120
   3 C :   -0.060294
   4 C :   -0.184833
   5 H :    0.013920
   6 C :   -0.039683
   7 H :    0.033420
   8 H :    0.031071
   9 C :   -0.041250
  10 H :    0.016339
  11 H :    0.024545
  12 C :   -0.067321
  13 H :    0.023514
  14 H :    0.030113
  15 H :    0.029101
  16 S :    0.405315
  17 C :   -0.174623
  18 C :   -0.070861
  19 C :   -0.052938
  20 C :   -0.195381
  21 H :    0.037803
  22 C :   -0.029842
  23 H :    0.024134
  24 H :    0.034611
  25 C :   -0.029353
  26 H :    0.021883
  27 H :    0.018381
  28 C :   -0.068523
  29 H :    0.025716
  30 H :    0.022293
  31 H :    0.026119
  32 H :    0.043122
  33 H :    0.027149

  Mayer bond orders larger than 0.100000
B(  0-S ,  1-C ) :   1.1137 B(  0-S ,  4-C ) :   1.1316 B(  1-C ,  2-C ) :   1.6344
B(  1-C , 32-H ) :   0.9646 B(  2-C ,  3-C ) :   1.2212 B(  2-C ,  6-C ) :   1.0269
B(  3-C ,  4-C ) :   1.5566 B(  3-C ,  5-H ) :   1.0074 B(  4-C , 20-C ) :   1.0617
B(  6-C ,  7-H ) :   0.9266 B(  6-C ,  8-H ) :   0.9448 B(  6-C ,  9-C ) :   1.0648
B(  9-C , 10-H ) :   0.9495 B(  9-C , 11-H ) :   0.9525 B(  9-C , 12-C ) :   1.0769
B( 12-C , 13-H ) :   0.9787 B( 12-C , 14-H ) :   0.9772 B( 12-C , 15-H ) :   0.9729
B( 16-S , 17-C ) :   1.1296 B( 16-S , 20-C ) :   1.1228 B( 17-C , 18-C ) :   1.6515
B( 17-C , 33-H ) :   0.9644 B( 18-C , 19-C ) :   1.2083 B( 18-C , 21-H ) :   0.9811
B( 19-C , 20-C ) :   1.6118 B( 19-C , 22-C ) :   1.0297 B( 22-C , 23-H ) :   0.9368
B( 22-C , 24-H ) :   0.9407 B( 22-C , 25-C ) :   1.0625 B( 25-C , 26-H ) :   0.9606
B( 25-C , 27-H ) :   0.9596 B( 25-C , 28-C ) :   1.0610 B( 28-C , 29-H ) :   0.9811
B( 28-C , 30-H ) :   0.9773 B( 28-C , 31-H ) :   0.9771

Dispersion correction           -0.014153466
FINAL SINGLE POINT ENERGY     -1339.859944321582

DIPOLE MOMENT
-------------
                                X             Y             Z
Electronic contribution:    -17.78980      -7.26658      13.15432
Nuclear contribution   :     18.12915       7.34881     -13.63757
                        -----------------------------------------
Total Dipole Moment    :      0.33935       0.08223      -0.48326
                        -----------------------------------------
Magnitude (a.u.)       :      0.59620
Magnitude (Debye)      :      1.51542

Rotational constants in cm-1:     0.018471     0.007727     0.007448
Rotational constants in MHz :   553.756916   231.656835   223.276038

                             ****ORCA TERMINATED NORMALLY****
TOTAL RUN TIME: 0 days 0 hours 0 minutes 27 seconds 581 msec
