                         Program Version 4.2.1 -  RELEASE  -
|  1> ! wB97X-D3 SP def2-SVP
|  2> %pal
|  3> nprocs 16
|  4> end
|  5>
|  6> * xyz 0 1
|  7> S 	 60.7574 	 4.31581 	 78.3022
|  8> C 	 61.11 	 5.63455 	 79.4717
|  9> C 	 60.7797 	 6.86748 	 79.0229
| 10> C 	 60.3546 	 6.76261 	 77.6496
| 11> C 	 60.4079 	 5.50072 	 77.0504
| 12> H 	 59.9641 	 7.63134 	 77.0839
| 13> C 	 60.8996 	 8.1959 	 79.7428
| 14> H 	 61.9653 	 8.53921 	 79.6023
| 15> H 	 60.7929 	 7.96894 	 80.7579
| 16> C 	 59.9806 	 9.34498 	 79.2479
| 17> H 	 60.2199 	 9.592 	 78.2456
| 18> H 	 58.8647 	 8.99489 	 79.2292
| 19> C 	 59.9838 	 10.7145 	 79.9788
| 20> H 	 59.8692 	 10.47 	 81.0312
| 21> H 	 60.8895 	 11.2755 	 79.785
| 22> H 	 59.0948 	 11.3112 	 79.6915
| 23> S 	 59.0777 	 3.77605 	 75.4894
| 24> C 	 59.2211 	 3.86888 	 73.7099
| 25> C 	 60.0638 	 4.86324 	 73.3232
| 26> C 	 60.4487 	 5.71545 	 74.4229
| 27> C 	 60.075 	 5.22458 	 75.6784
| 28> H 	 60.4969 	 4.92787 	 72.3284
| 29> C 	 61.4995 	 6.79336 	 74.2716
| 30> H 	 62.4755 	 6.37796 	 74.5299
| 31> H 	 61.188 	 7.50686 	 75.0144
| 32> C 	 61.657 	 7.47805 	 72.9262
| 33> H 	 60.8222 	 8.08632 	 72.6646
| 34> H 	 61.9503 	 6.79984 	 72.1568
| 35> C 	 62.7287 	 8.66063 	 72.9424
| 36> H 	 63.6998 	 8.32655 	 73.3611
| 37> H 	 62.4211 	 9.57186 	 73.4891
| 38> H 	 62.7527 	 9.01873 	 71.9193
| 39> H 	 61.5921 	 5.5368 	 80.4569
| 40> H 	 58.7046 	 3.17438 	 73.0819
| 41> *
| 42>
| 43>                          ****END OF INPUT****

CARTESIAN COORDINATES (ANGSTROEM)
---------------------------------
  S     60.757400    4.315810   78.302200
  C     61.110000    5.634550   79.471700
  C     60.779700    6.867480   79.022900
  C     60.354600    6.762610   77.649600
  C     60.407900    5.500720   77.050400
  H     59.964100    7.631340   77.083900
  C     60.899600    8.195900   79.742800
  H     61.965300    8.539210   79.602300
  H     60.792900    7.968940   80.757900
  C     59.980600    9.344980   79.247900
  H     60.219900    9.592000   78.245600
  H     58.864700    8.994890   79.229200
  C     59.983800   10.714500   79.978800
  H     59.869200   10.470000   81.031200
  H     60.889500   11.275500   79.785000
  H     59.094800   11.311200   79.691500
  S     59.077700    3.776050   75.489400
  C     59.221100    3.868880   73.709900
  C     60.063800    4.863240   73.323200
  C     60.448700    5.715450   74.422900
  C     60.075000    5.224580   75.678400
  H     60.496900    4.927870   72.328400
  C     61.499500    6.793360   74.271600
  H     62.475500    6.377960   74.529900
  H     61.188000    7.506860   75.014400
  C     61.657000    7.478050   72.926200
  H     60.822200    8.086320   72.664600
  H     61.950300    6.799840   72.156800
  C     62.728700    8.660630   72.942400
  H     63.699800    8.326550   73.361100
  H     62.421100    9.571860   73.489100
  H     62.752700    9.018730   71.919300
  H     61.592100    5.536800   80.456900
  H     58.704600    3.174380   73.081900

 Total Charge           Charge          ....    0
 Multiplicity           Mult            ....    1
 Number of Electrons    NEL             ....  134
 Basis Dimension        Dim             ....  322

ORBITAL ENERGIES
----------------

  NO   OCC          E(Eh)            E(eV)
   0   2.0000     -88.969286     -2420.9774
   1   2.0000     -88.960854     -2420.7479
   2   2.0000     -10.331764      -281.1416
   3   2.0000     -10.328377      -281.0494
   4   2.0000     -10.317498      -280.7534
   5   2.0000     -10.315401      -280.6963
   6   2.0000     -10.305244      -280.4200
   7   2.0000     -10.300743      -280.2975
   8   2.0000     -10.299646      -280.2676
   9   2.0000     -10.297090      -280.1981
  10   2.0000     -10.295394      -280.1519
  11   2.0000     -10.293955      -280.1128
  12   2.0000     -10.286566      -279.9117
  13   2.0000     -10.285593      -279.8852
  14   2.0000     -10.284651      -279.8596
  15   2.0000     -10.283993      -279.8417
  16   2.0000      -8.082864      -219.9459
  17   2.0000      -8.075257      -219.7389
  18   2.0000      -6.041717      -164.4035
  19   2.0000      -6.037692      -164.2939
  20   2.0000      -6.033865      -164.1898
  21   2.0000      -6.033139      -164.1701
  22   2.0000      -6.029858      -164.0808
  23   2.0000      -6.025893      -163.9729
  24   2.0000      -1.002845       -27.2888
  25   2.0000      -0.979057       -26.6415
  26   2.0000      -0.911259       -24.7966
  27   2.0000      -0.906359       -24.6633
  28   2.0000      -0.873591       -23.7716
  29   2.0000      -0.848147       -23.0792
  30   2.0000      -0.842465       -22.9246
  31   2.0000      -0.813062       -22.1245
  32   2.0000      -0.785172       -21.3656
  33   2.0000      -0.771354       -20.9896
  34   2.0000      -0.713608       -19.4183
  35   2.0000      -0.701354       -19.0848
  36   2.0000      -0.691164       -18.8075
  37   2.0000      -0.655841       -17.8463
  38   2.0000      -0.633340       -17.2340
  39   2.0000      -0.615667       -16.7532
  40   2.0000      -0.596065       -16.2197
  41   2.0000      -0.578304       -15.7365
  42   2.0000      -0.570818       -15.5328
  43   2.0000      -0.563826       -15.3425
  44   2.0000      -0.529935       -14.4203
  45   2.0000      -0.526189       -14.3183
  46   2.0000      -0.516093       -14.0436
  47   2.0000      -0.506055       -13.7705
  48   2.0000      -0.503212       -13.6931
  49   2.0000      -0.499892       -13.6028
  50   2.0000      -0.498154       -13.5555
  51   2.0000      -0.479636       -13.0516
  52   2.0000      -0.471312       -12.8251
  53   2.0000      -0.465087       -12.6557
  54   2.0000      -0.457678       -12.4540
  55   2.0000      -0.449505       -12.2317
  56   2.0000      -0.446055       -12.1378
  57   2.0000      -0.436746       -11.8845
  58   2.0000      -0.429311       -11.6821
  59   2.0000      -0.427051       -11.6207
  60   2.0000      -0.422758       -11.5038
  61   2.0000      -0.416708       -11.3392
  62   2.0000      -0.405195       -11.0259
  63   2.0000      -0.352219        -9.5844
  64   2.0000      -0.330324        -8.9886
  65   2.0000      -0.327969        -8.9245
  66   2.0000      -0.284086        -7.7304
  67   0.0000       0.023126         0.6293
  68   0.0000       0.067929         1.8484
  69   0.0000       0.104245         2.8367
  70   0.0000       0.117964         3.2100
  71   0.0000       0.129632         3.5275

MULLIKEN ATOMIC CHARGES
-----------------------
   0 S :    0.116430
   1 C :   -0.149390
   2 C :   -0.070021
   3 C :   -0.028757
   4 C :   -0.115643
   5 H :    0.030427
   6 C :    0.117344
   7 H :    0.050016
   8 H :    0.009053
   9 C :   -0.151085
  10 H :    0.029868
  11 H :    0.048231
  12 C :   -0.035258
  13 H :    0.029498
  14 H :    0.039079
  15 H :    0.044938
  16 S :    0.071514
  17 C :   -0.079245
  18 C :   -0.028162
  19 C :   -0.047887
  20 C :   -0.152230
  21 H :    0.031124
  22 C :    0.083276
  23 H :    0.043539
  24 H :    0.009515
  25 C :   -0.086640
  26 H :    0.027326
  27 H :    0.034613
  28 C :   -0.073615
  29 H :    0.037575
  30 H :    0.032775
  31 H :    0.032181
  32 H :    0.047125
  33 H :    0.052487
Sum of atomic charges:   -0.0000000

LOEWDIN ATOMIC CHARGES
----------------------
   0 S :    0.382601
   1 C :   -0.187985
   2 C :   -0.063437
   3 C :   -0.067477
   4 C :   -0.196337
   5 H :    0.030762
   6 C :   -0.028275
   7 H :    0.044486
   8 H :    0.021415
   9 C :   -0.048368
  10 H :    0.015001
  11 H :    0.035462
  12 C :   -0.063104
  13 H :    0.024133
  14 H :    0.023363
  15 H :    0.034745
  16 S :    0.374275
  17 C :   -0.162257
  18 C :   -0.070874
  19 C :   -0.055905
  20 C :   -0.183629
  21 H :    0.036415
  22 C :   -0.034056
  23 H :    0.037129
  24 H :    0.029296
  25 C :   -0.036485
  26 H :    0.024491
  27 H :    0.018808
  28 C :   -0.065252
  29 H :    0.022916
  30 H :    0.024922
  31 H :    0.025902
  32 H :    0.033749
  33 H :    0.023572

  Mayer bond orders larger than 0.100000
B(  0-S ,  1-C ) :   1.1127 B(  0-S ,  4-C ) :   1.1210 B(  1-C ,  2-C ) :   1.6573
B(  1-C , 32-H ) :   0.9592 B(  2-C ,  3-C ) :   1.2312 B(  2-C ,  6-C ) :   1.0122
B(  3-C ,  4-C ) :   1.5750 B(  3-C ,  5-H ) :   0.9779 B(  4-C , 20-C ) :   1.0861
B(  6-C ,  7-H ) :   0.9309 B(  6-C ,  8-H ) :   0.9337 B(  6-C ,  9-C ) :   1.0639
B(  9-C , 10-H ) :   0.9464 B(  9-C , 11-H ) :   0.9620 B(  9-C , 12-C ) :   1.0851
B( 12-C , 13-H ) :   0.9761 B( 12-C , 14-H ) :   0.9757 B( 12-C , 15-H ) :   0.9735
B( 16-S , 17-C ) :   1.1399 B( 16-S , 20-C ) :   1.1241 B( 17-C , 18-C ) :   1.6215
B( 17-C , 33-H ) :   0.9708 B( 18-C , 19-C ) :   1.2294 B( 18-C , 21-H ) :   0.9864
B( 19-C , 20-C ) :   1.5993 B( 19-C , 22-C ) :   1.0370 B( 22-C , 23-H ) :   0.9299
B( 22-C , 24-H ) :   0.9302 B( 22-C , 25-C ) :   1.0894 B( 25-C , 26-H ) :   0.9578
B( 25-C , 27-H ) :   0.9506 B( 25-C , 28-C ) :   1.0775 B( 28-C , 29-H ) :   0.9762
B( 28-C , 30-H ) :   0.9784 B( 28-C , 31-H ) :   0.9760

Dispersion correction           -0.013166130
FINAL SINGLE POINT ENERGY     -1339.863431717666

DIPOLE MOMENT
-------------
                                X             Y             Z
Electronic contribution:     -8.08994     -30.71579       2.55346
Nuclear contribution   :      8.38783      31.45198      -2.70610
                        -----------------------------------------
Total Dipole Moment    :      0.29789       0.73619      -0.15263
                        -----------------------------------------
Magnitude (a.u.)       :      0.80871
Magnitude (Debye)      :      2.05558

Rotational constants in cm-1:     0.015337     0.008816     0.006270
Rotational constants in MHz :   459.803969   264.295974   187.969648

                             ****ORCA TERMINATED NORMALLY****
TOTAL RUN TIME: 0 days 0 hours 0 minutes 30 seconds 484 msec
