                         Program Version 4.2.1 -  RELEASE  -
|  1> ! wB97X-D3 SP def2-SVP
|  2> %pal
|  3> nprocs 16
|  4> end
|  5>
|  6> * xyz 0 1
|  7> S 	 2.7255 	 -14.1658 	 61.1466
|  8> C 	 3.28415 	 -13.6854 	 62.7344
|  9> C 	 2.37413 	 -14.0127 	 63.694
| 10> C 	 1.35494 	 -14.9527 	 63.2123
| 11> C 	 1.39825 	 -15.1794 	 61.8303
| 12> H 	 0.492718 	 -15.34 	 63.7594
| 13> C 	 2.33916 	 -13.4509 	 65.0823
| 14> H 	 3.30893 	 -12.9427 	 65.309
| 15> H 	 2.07196 	 -14.1919 	 65.8358
| 16> C 	 1.3612 	 -12.2256 	 65.1291
| 17> H 	 1.6491 	 -11.5741 	 64.3426
| 18> H 	 0.338976 	 -12.5378 	 64.7971
| 19> C 	 1.12305 	 -11.4193 	 66.3794
| 20> H 	 1.94559 	 -11.166 	 67.0488
| 21> H 	 0.660945 	 -10.5101 	 66.1384
| 22> H 	 0.343178 	 -11.8617 	 66.9786
| 23> S 	 -0.470397 	 -15.0727 	 59.8053
| 24> C 	 -1.24046 	 -16.5672 	 59.2557
| 25> C 	 -0.749339 	 -17.6228 	 59.9131
| 26> C 	 0.266818 	 -17.3318 	 60.8529
| 27> C 	 0.48408 	 -15.9516 	 60.9865
| 28> H 	 -1.16453 	 -18.5751 	 59.6177
| 29> C 	 1.11199 	 -18.3858 	 61.517
| 30> H 	 0.558271 	 -19.298 	 61.5557
| 31> H 	 1.21969 	 -18.0983 	 62.5505
| 32> C 	 2.42085 	 -18.6203 	 60.7332
| 33> H 	 3.1356 	 -17.8328 	 60.8262
| 34> H 	 2.17453 	 -18.5845 	 59.6752
| 35> C 	 3.16051 	 -19.9217 	 61.1679
| 36> H 	 2.499 	 -20.7203 	 61.5621
| 37> H 	 4.00492 	 -19.7979 	 61.8804
| 38> H 	 3.66077 	 -20.3247 	 60.3242
| 39> H 	 4.14522 	 -13.0691 	 62.9909
| 40> H 	 -2.12467 	 -16.6642 	 58.5601
| 41> *
| 42>
| 43>                          ****END OF INPUT****

CARTESIAN COORDINATES (ANGSTROEM)
---------------------------------
  S      2.725500  -14.165800   61.146600
  C      3.284150  -13.685400   62.734400
  C      2.374130  -14.012700   63.694000
  C      1.354940  -14.952700   63.212300
  C      1.398250  -15.179400   61.830300
  H      0.492718  -15.340000   63.759400
  C      2.339160  -13.450900   65.082300
  H      3.308930  -12.942700   65.309000
  H      2.071960  -14.191900   65.835800
  C      1.361200  -12.225600   65.129100
  H      1.649100  -11.574100   64.342600
  H      0.338976  -12.537800   64.797100
  C      1.123050  -11.419300   66.379400
  H      1.945590  -11.166000   67.048800
  H      0.660945  -10.510100   66.138400
  H      0.343178  -11.861700   66.978600
  S     -0.470397  -15.072700   59.805300
  C     -1.240460  -16.567200   59.255700
  C     -0.749339  -17.622800   59.913100
  C      0.266818  -17.331800   60.852900
  C      0.484080  -15.951600   60.986500
  H     -1.164530  -18.575100   59.617700
  C      1.111990  -18.385800   61.517000
  H      0.558271  -19.298000   61.555700
  H      1.219690  -18.098300   62.550500
  C      2.420850  -18.620300   60.733200
  H      3.135600  -17.832800   60.826200
  H      2.174530  -18.584500   59.675200
  C      3.160510  -19.921700   61.167900
  H      2.499000  -20.720300   61.562100
  H      4.004920  -19.797900   61.880400
  H      3.660770  -20.324700   60.324200
  H      4.145220  -13.069100   62.990900
  H     -2.124670  -16.664200   58.560100

 Total Charge           Charge          ....    0
 Multiplicity           Mult            ....    1
 Number of Electrons    NEL             ....  134
 Basis Dimension        Dim             ....  322

ORBITAL ENERGIES
----------------

  NO   OCC          E(Eh)            E(eV)
   0   2.0000     -88.964903     -2420.8581
   1   2.0000     -88.964264     -2420.8407
   2   2.0000     -10.337674      -281.3024
   3   2.0000     -10.329019      -281.0669
   4   2.0000     -10.317984      -280.7666
   5   2.0000     -10.314930      -280.6835
   6   2.0000     -10.303396      -280.3697
   7   2.0000     -10.303356      -280.3686
   8   2.0000     -10.302197      -280.3370
   9   2.0000     -10.297711      -280.2150
  10   2.0000     -10.287985      -279.9503
  11   2.0000     -10.284986      -279.8687
  12   2.0000     -10.284710      -279.8612
  13   2.0000     -10.282177      -279.7923
  14   2.0000     -10.275635      -279.6142
  15   2.0000     -10.271083      -279.4904
  16   2.0000      -8.078777      -219.8347
  17   2.0000      -8.078745      -219.8338
  18   2.0000      -6.037455      -164.2875
  19   2.0000      -6.037341      -164.2844
  20   2.0000      -6.033435      -164.1781
  21   2.0000      -6.033256      -164.1733
  22   2.0000      -6.029524      -164.0717
  23   2.0000      -6.029288      -164.0653
  24   2.0000      -1.003441       -27.3050
  25   2.0000      -0.982288       -26.7294
  26   2.0000      -0.909303       -24.7434
  27   2.0000      -0.904698       -24.6181
  28   2.0000      -0.872939       -23.7539
  29   2.0000      -0.846343       -23.0302
  30   2.0000      -0.844661       -22.9844
  31   2.0000      -0.819560       -22.3014
  32   2.0000      -0.782483       -21.2925
  33   2.0000      -0.769747       -20.9459
  34   2.0000      -0.710490       -19.3334
  35   2.0000      -0.698798       -19.0152
  36   2.0000      -0.696562       -18.9544
  37   2.0000      -0.656207       -17.8563
  38   2.0000      -0.640515       -17.4293
  39   2.0000      -0.616449       -16.7744
  40   2.0000      -0.592032       -16.1100
  41   2.0000      -0.572062       -15.5666
  42   2.0000      -0.561786       -15.2870
  43   2.0000      -0.553381       -15.0583
  44   2.0000      -0.523619       -14.2484
  45   2.0000      -0.519164       -14.1272
  46   2.0000      -0.515900       -14.0384
  47   2.0000      -0.512985       -13.9590
  48   2.0000      -0.507706       -13.8154
  49   2.0000      -0.502603       -13.6765
  50   2.0000      -0.499008       -13.5787
  51   2.0000      -0.476432       -12.9644
  52   2.0000      -0.469873       -12.7859
  53   2.0000      -0.462735       -12.5917
  54   2.0000      -0.456457       -12.4208
  55   2.0000      -0.449386       -12.2284
  56   2.0000      -0.445254       -12.1160
  57   2.0000      -0.439361       -11.9556
  58   2.0000      -0.426252       -11.5989
  59   2.0000      -0.424256       -11.5446
  60   2.0000      -0.420477       -11.4418
  61   2.0000      -0.412075       -11.2131
  62   2.0000      -0.410985       -11.1835
  63   2.0000      -0.346059        -9.4167
  64   2.0000      -0.330585        -8.9957
  65   2.0000      -0.324735        -8.8365
  66   2.0000      -0.297433        -8.0936
  67   0.0000       0.035439         0.9643
  68   0.0000       0.055842         1.5195
  69   0.0000       0.111191         3.0256
  70   0.0000       0.126905         3.4533
  71   0.0000       0.132764         3.6127

MULLIKEN ATOMIC CHARGES
-----------------------
   0 S :    0.099760
   1 C :   -0.104689
   2 C :   -0.107953
   3 C :    0.056478
   4 C :   -0.165741
   5 H :    0.023711
   6 C :    0.080224
   7 H :    0.021564
   8 H :    0.033783
   9 C :   -0.099280
  10 H :    0.015901
  11 H :    0.022173
  12 C :    0.001315
  13 H :    0.029691
  14 H :    0.014400
  15 H :    0.019064
  16 S :    0.100696
  17 C :   -0.108167
  18 C :   -0.035758
  19 C :   -0.052080
  20 C :   -0.180566
  21 H :    0.013331
  22 C :    0.131826
  23 H :    0.002773
  24 H :    0.021528
  25 C :   -0.051742
  26 H :    0.027593
  27 H :    0.029699
  28 C :   -0.055373
  29 H :    0.031225
  30 H :    0.038927
  31 H :    0.020440
  32 H :    0.050615
  33 H :    0.074631
Sum of atomic charges:   -0.0000000

LOEWDIN ATOMIC CHARGES
----------------------
   0 S :    0.376985
   1 C :   -0.195400
   2 C :   -0.064713
   3 C :   -0.056525
   4 C :   -0.179284
   5 H :    0.034926
   6 C :   -0.029572
   7 H :    0.033704
   8 H :    0.029192
   9 C :   -0.043504
  10 H :    0.018624
  11 H :    0.027456
  12 C :   -0.068446
  13 H :    0.024509
  14 H :    0.025293
  15 H :    0.025212
  16 S :    0.394082
  17 C :   -0.185202
  18 C :   -0.079107
  19 C :   -0.051051
  20 C :   -0.203022
  21 H :    0.033486
  22 C :   -0.026476
  23 H :    0.023801
  24 H :    0.030323
  25 C :   -0.032395
  26 H :    0.024810
  27 H :    0.026345
  28 C :   -0.072107
  29 H :    0.025384
  30 H :    0.030501
  31 H :    0.022075
  32 H :    0.034465
  33 H :    0.045634

  Mayer bond orders larger than 0.100000
B(  0-S ,  1-C ) :   1.1209 B(  0-S ,  4-C ) :   1.1227 B(  1-C ,  2-C ) :   1.6504
B(  1-C , 32-H ) :   0.9614 B(  2-C ,  3-C ) :   1.1941 B(  2-C ,  6-C ) :   1.0506
B(  3-C ,  4-C ) :   1.6173 B(  3-C ,  5-H ) :   0.9865 B(  4-C , 20-C ) :   1.0394
B(  6-C ,  7-H ) :   0.9362 B(  6-C ,  8-H ) :   0.9420 B(  6-C ,  9-C ) :   1.0493
B(  9-C , 10-H ) :   0.9588 B(  9-C , 11-H ) :   0.9545 B(  9-C , 12-C ) :   1.0885
B( 12-C , 13-H ) :   0.9736 B( 12-C , 14-H ) :   0.9656 B( 12-C , 15-H ) :   0.9722
B( 16-S , 17-C ) :   1.1389 B( 16-S , 20-C ) :   1.1447 B( 17-C , 18-C ) :   1.6450
B( 17-C , 33-H ) :   0.9544 B( 18-C , 19-C ) :   1.2313 B( 18-C , 21-H ) :   0.9911
B( 19-C , 20-C ) :   1.5823 B( 19-C , 22-C ) :   1.0578 B( 22-C , 23-H ) :   0.9284
B( 22-C , 24-H ) :   0.9199 B( 22-C , 25-C ) :   1.0586 B( 25-C , 26-H ) :   0.9534
B( 25-C , 27-H ) :   0.9614 B( 25-C , 28-C ) :   1.0688 B( 28-C , 29-H ) :   0.9785
B( 28-C , 30-H ) :   0.9779 B( 28-C , 31-H ) :   0.9743

Dispersion correction           -0.013990316
FINAL SINGLE POINT ENERGY     -1339.873953941169

DIPOLE MOMENT
-------------
                                X             Y             Z
Electronic contribution:     -5.30351       5.32815     -18.09478
Nuclear contribution   :      5.16308      -5.52717      18.48541
                        -----------------------------------------
Total Dipole Moment    :     -0.14043      -0.19902       0.39063
                        -----------------------------------------
Magnitude (a.u.)       :      0.46035
Magnitude (Debye)      :      1.17011

Rotational constants in cm-1:     0.019879     0.007573     0.006557
Rotational constants in MHz :   595.957801   227.035586   196.588661

                             ****ORCA TERMINATED NORMALLY****
TOTAL RUN TIME: 0 days 0 hours 0 minutes 29 seconds 792 msec
