                         Program Version 4.2.1 -  RELEASE  -
|  1> ! wB97X-D3 SP def2-SVP
|  2> %pal
|  3> nprocs 16
|  4> end
|  5>
|  6> * xyz 0 1
|  7> S 	 -3.22109 	 48.8338 	 47.5314
|  8> C 	 -1.4495 	 49.1912 	 47.5302
|  9> C 	 -1.22763 	 50.2591 	 46.7426
| 10> C 	 -2.38525 	 50.5884 	 45.9542
| 11> C 	 -3.56587 	 49.9693 	 46.2514
| 12> H 	 -2.38262 	 51.2952 	 45.1236
| 13> C 	 0.165221 	 50.9078 	 46.5561
| 14> H 	 0.766031 	 50.3288 	 45.8063
| 15> H 	 0.910176 	 50.8237 	 47.3655
| 16> C 	 0.0676695 	 52.407 	 46.2136
| 17> H 	 -0.922766 	 52.8109 	 46.3248
| 18> H 	 0.675788 	 52.998 	 46.8868
| 19> C 	 0.39068 	 52.692 	 44.7303
| 20> H 	 1.46354 	 52.4161 	 44.5681
| 21> H 	 -0.294115 	 52.0562 	 44.1736
| 22> H 	 0.197362 	 53.7933 	 44.5455
| 23> S 	 -5.02261 	 51.5215 	 44.558
| 24> C 	 -6.6078 	 50.9216 	 43.9855
| 25> C 	 -6.99496 	 49.7211 	 44.5187
| 26> C 	 -5.99627 	 49.2492 	 45.4661
| 27> C 	 -4.8442 	 50.0899 	 45.5286
| 28> H 	 -7.91203 	 49.1956 	 44.2327
| 29> C 	 -6.33423 	 47.9606 	 46.285
| 30> H 	 -5.45478 	 47.3318 	 46.4915
| 31> H 	 -6.97478 	 47.3627 	 45.6405
| 32> C 	 -7.11803 	 48.2361 	 47.612
| 33> H 	 -7.54726 	 47.3409 	 47.902
| 34> H 	 -7.77602 	 49.0572 	 47.3404
| 35> C 	 -6.16179 	 48.6809 	 48.8053
| 36> H 	 -5.53207 	 47.8724 	 48.95
| 37> H 	 -6.65277 	 48.9925 	 49.78
| 38> H 	 -5.56498 	 49.6063 	 48.624
| 39> H 	 -0.699097 	 48.7545 	 48.282
| 40> H 	 -7.25423 	 51.3929 	 43.2145
| 41> *
| 42>
| 43>                          ****END OF INPUT****

CARTESIAN COORDINATES (ANGSTROEM)
---------------------------------
  S     -3.221090   48.833800   47.531400
  C     -1.449500   49.191200   47.530200
  C     -1.227630   50.259100   46.742600
  C     -2.385250   50.588400   45.954200
  C     -3.565870   49.969300   46.251400
  H     -2.382620   51.295200   45.123600
  C      0.165221   50.907800   46.556100
  H      0.766031   50.328800   45.806300
  H      0.910176   50.823700   47.365500
  C      0.067669   52.407000   46.213600
  H     -0.922766   52.810900   46.324800
  H      0.675788   52.998000   46.886800
  C      0.390680   52.692000   44.730300
  H      1.463540   52.416100   44.568100
  H     -0.294115   52.056200   44.173600
  H      0.197362   53.793300   44.545500
  S     -5.022610   51.521500   44.558000
  C     -6.607800   50.921600   43.985500
  C     -6.994960   49.721100   44.518700
  C     -5.996270   49.249200   45.466100
  C     -4.844200   50.089900   45.528600
  H     -7.912030   49.195600   44.232700
  C     -6.334230   47.960600   46.285000
  H     -5.454780   47.331800   46.491500
  H     -6.974780   47.362700   45.640500
  C     -7.118030   48.236100   47.612000
  H     -7.547260   47.340900   47.902000
  H     -7.776020   49.057200   47.340400
  C     -6.161790   48.680900   48.805300
  H     -5.532070   47.872400   48.950000
  H     -6.652770   48.992500   49.780000
  H     -5.564980   49.606300   48.624000
  H     -0.699097   48.754500   48.282000
  H     -7.254230   51.392900   43.214500

 Total Charge           Charge          ....    0
 Multiplicity           Mult            ....    1
 Number of Electrons    NEL             ....  134
 Basis Dimension        Dim             ....  322

ORBITAL ENERGIES
----------------

  NO   OCC          E(Eh)            E(eV)
   0   2.0000     -88.974052     -2421.1070
   1   2.0000     -88.961552     -2420.7669
   2   2.0000     -10.338263      -281.3185
   3   2.0000     -10.333724      -281.1949
   4   2.0000     -10.325181      -280.9625
   5   2.0000     -10.318787      -280.7885
   6   2.0000     -10.315523      -280.6997
   7   2.0000     -10.304311      -280.3946
   8   2.0000     -10.301446      -280.3166
   9   2.0000     -10.299461      -280.2626
  10   2.0000     -10.296205      -280.1740
  11   2.0000     -10.293593      -280.1029
  12   2.0000     -10.285096      -279.8717
  13   2.0000     -10.284138      -279.8456
  14   2.0000     -10.280839      -279.7558
  15   2.0000     -10.273306      -279.5509
  16   2.0000      -8.087878      -220.0823
  17   2.0000      -8.075024      -219.7326
  18   2.0000      -6.046552      -164.5351
  19   2.0000      -6.042621      -164.4281
  20   2.0000      -6.038418      -164.3137
  21   2.0000      -6.033825      -164.1887
  22   2.0000      -6.029664      -164.0755
  23   2.0000      -6.025498      -163.9621
  24   2.0000      -1.005269       -27.3547
  25   2.0000      -0.981837       -26.7171
  26   2.0000      -0.908762       -24.7287
  27   2.0000      -0.899860       -24.4864
  28   2.0000      -0.873801       -23.7773
  29   2.0000      -0.845135       -22.9973
  30   2.0000      -0.833091       -22.6696
  31   2.0000      -0.814133       -22.1537
  32   2.0000      -0.782235       -21.2857
  33   2.0000      -0.767250       -20.8779
  34   2.0000      -0.709034       -19.2938
  35   2.0000      -0.694237       -18.8912
  36   2.0000      -0.683137       -18.5891
  37   2.0000      -0.668431       -18.1889
  38   2.0000      -0.629169       -17.1206
  39   2.0000      -0.624740       -17.0000
  40   2.0000      -0.597345       -16.2546
  41   2.0000      -0.570785       -15.5318
  42   2.0000      -0.552283       -15.0284
  43   2.0000      -0.545288       -14.8380
  44   2.0000      -0.535923       -14.5832
  45   2.0000      -0.525781       -14.3072
  46   2.0000      -0.517624       -14.0853
  47   2.0000      -0.510523       -13.8920
  48   2.0000      -0.500494       -13.6191
  49   2.0000      -0.494667       -13.4606
  50   2.0000      -0.489465       -13.3190
  51   2.0000      -0.483116       -13.1463
  52   2.0000      -0.467025       -12.7084
  53   2.0000      -0.464258       -12.6331
  54   2.0000      -0.458597       -12.4790
  55   2.0000      -0.451683       -12.2909
  56   2.0000      -0.438173       -11.9233
  57   2.0000      -0.434296       -11.8178
  58   2.0000      -0.429629       -11.6908
  59   2.0000      -0.424345       -11.5470
  60   2.0000      -0.421919       -11.4810
  61   2.0000      -0.413023       -11.2389
  62   2.0000      -0.391433       -10.6514
  63   2.0000      -0.364360        -9.9147
  64   2.0000      -0.335472        -9.1286
  65   2.0000      -0.325776        -8.8648
  66   2.0000      -0.286418        -7.7938
  67   0.0000       0.019066         0.5188
  68   0.0000       0.084297         2.2938
  69   0.0000       0.103006         2.8029
  70   0.0000       0.118732         3.2309
  71   0.0000       0.124320         3.3829

MULLIKEN ATOMIC CHARGES
-----------------------
   0 S :    0.062968
   1 C :   -0.151517
   2 C :   -0.031720
   3 C :   -0.045172
   4 C :   -0.058938
   5 H :    0.013589
   6 C :    0.033477
   7 H :    0.045774
   8 H :    0.021725
   9 C :   -0.087322
  10 H :    0.030830
  11 H :    0.026379
  12 C :   -0.078727
  13 H :    0.042810
  14 H :    0.036217
  15 H :    0.047306
  16 S :    0.097368
  17 C :   -0.088530
  18 C :   -0.032325
  19 C :   -0.084779
  20 C :   -0.128569
  21 H :    0.035248
  22 C :    0.022904
  23 H :    0.033794
  24 H :    0.020021
  25 C :   -0.013446
  26 H :    0.024063
  27 H :    0.032953
  28 C :   -0.075163
  29 H :    0.022325
  30 H :    0.040267
  31 H :    0.040407
  32 H :    0.079809
  33 H :    0.065975
Sum of atomic charges:   -0.0000000

LOEWDIN ATOMIC CHARGES
----------------------
   0 S :    0.404187
   1 C :   -0.189766
   2 C :   -0.063336
   3 C :   -0.083337
   4 C :   -0.183797
   5 H :    0.019095
   6 C :   -0.037686
   7 H :    0.038769
   8 H :    0.033892
   9 C :   -0.046541
  10 H :    0.021885
  11 H :    0.020541
  12 C :   -0.064615
  13 H :    0.026121
  14 H :    0.020917
  15 H :    0.032260
  16 S :    0.404527
  17 C :   -0.177260
  18 C :   -0.069483
  19 C :   -0.051752
  20 C :   -0.195562
  21 H :    0.039998
  22 C :   -0.035035
  23 H :    0.022416
  24 H :    0.028136
  25 C :   -0.021762
  26 H :    0.015084
  27 H :    0.024685
  28 C :   -0.078100
  29 H :    0.005533
  30 H :    0.032373
  31 H :    0.021344
  32 H :    0.048886
  33 H :    0.037382

  Mayer bond orders larger than 0.100000
B(  0-S ,  1-C ) :   1.1093 B(  0-S ,  4-C ) :   1.1233 B(  1-C ,  2-C ) :   1.6537
B(  1-C , 32-H ) :   0.9561 B(  2-C ,  3-C ) :   1.2152 B(  2-C ,  6-C ) :   1.0181
B(  3-C ,  4-C ) :   1.6066 B(  3-C ,  5-H ) :   0.9709 B(  4-C , 20-C ) :   1.0719
B(  6-C ,  7-H ) :   0.9493 B(  6-C ,  8-H ) :   0.9491 B(  6-C ,  9-C ) :   1.0307
B(  9-C , 10-H ) :   0.9674 B(  9-C , 11-H ) :   0.9618 B(  9-C , 12-C ) :   1.0678
B( 12-C , 13-H ) :   0.9776 B( 12-C , 14-H ) :   0.9766 B( 12-C , 15-H ) :   0.9742
B( 16-S , 17-C ) :   1.1342 B( 16-S , 20-C ) :   1.1359 B( 17-C , 18-C ) :   1.6468
B( 17-C , 33-H ) :   0.9586 B( 18-C , 19-C ) :   1.2291 B( 18-C , 21-H ) :   0.9822
B( 19-C , 20-C ) :   1.5770 B( 19-C , 22-C ) :   1.0391 B( 22-C , 23-H ) :   0.9385
B( 22-C , 24-H ) :   0.9353 B( 22-C , 25-C ) :   1.0600 B( 25-C , 26-H ) :   0.9581
B( 25-C , 27-H ) :   0.9575 B( 25-C , 28-C ) :   1.0714 B( 28-C , 29-H ) :   0.9747
B( 28-C , 30-H ) :   0.9731 B( 28-C , 31-H ) :   0.9705

Dispersion correction           -0.014753549
FINAL SINGLE POINT ENERGY     -1339.859275638503

DIPOLE MOMENT
-------------
                                X             Y             Z
Electronic contribution:     -6.93072      -1.54757      -4.42681
Nuclear contribution   :      6.96763       1.50326       4.35764
                        -----------------------------------------
Total Dipole Moment    :      0.03691      -0.04431      -0.06916
                        -----------------------------------------
Magnitude (a.u.)       :      0.09005
Magnitude (Debye)      :      0.22890

Rotational constants in cm-1:     0.021237     0.009159     0.006761
Rotational constants in MHz :   636.657482   274.568035   202.683989

                             ****ORCA TERMINATED NORMALLY****
TOTAL RUN TIME: 0 days 0 hours 0 minutes 34 seconds 7 msec
