                         Program Version 4.2.1 -  RELEASE  -
|  1> ! wB97X-D3 SP def2-SVP
|  2> %pal
|  3> nprocs 16
|  4> end
|  5>
|  6> * xyz 0 1
|  7> S 	 -40.1799 	 26.6168 	 77.9335
|  8> C 	 -41.3437 	 27.9346 	 78.2676
|  9> C 	 -42.3078 	 27.5202 	 79.1381
| 10> C 	 -42.3014 	 26.1129 	 79.415
| 11> C 	 -41.1829 	 25.4145 	 78.9274
| 12> H 	 -43.032 	 25.6033 	 80.0245
| 13> C 	 -43.4566 	 28.441 	 79.7183
| 14> H 	 -43.7326 	 27.9706 	 80.7014
| 15> H 	 -44.2626 	 28.3316 	 78.9647
| 16> C 	 -43.0521 	 29.9478 	 79.9463
| 17> H 	 -42.1173 	 29.8925 	 80.5175
| 18> H 	 -42.751 	 30.4207 	 78.9597
| 19> C 	 -44.0626 	 30.8673 	 80.6599
| 20> H 	 -45.0453 	 30.78 	 80.2496
| 21> H 	 -44.192 	 30.5548 	 81.7063
| 22> H 	 -43.6394 	 31.8785 	 80.6283
| 23> S 	 -39.9852 	 23.243 	 77.8322
| 24> C 	 -39.9087 	 21.7048 	 78.6123
| 25> C 	 -40.3081 	 21.8795 	 79.9158
| 26> C 	 -40.8694 	 23.1348 	 80.2048
| 27> C 	 -40.8077 	 23.993 	 79.1115
| 28> H 	 -40.2831 	 20.9612 	 80.3913
| 29> C 	 -41.6936 	 23.3636 	 81.5163
| 30> H 	 -41.8988 	 22.4505 	 82.042
| 31> H 	 -42.6984 	 23.598 	 81.2453
| 32> C 	 -41.1543 	 24.4152 	 82.4319
| 33> H 	 -40.9324 	 25.273 	 81.8843
| 34> H 	 -40.1936 	 24.0107 	 82.829
| 35> C 	 -42.106 	 24.7142 	 83.5185
| 36> H 	 -43.0908 	 25.1696 	 83.285
| 37> H 	 -41.5157 	 25.1726 	 84.3839
| 38> H 	 -42.3934 	 23.7026 	 83.8434
| 39> H 	 -41.1426 	 28.9558 	 77.9118
| 40> H 	 -39.492 	 20.8079 	 78.2369
| 41> *
| 42>
| 43>                          ****END OF INPUT****

CARTESIAN COORDINATES (ANGSTROEM)
---------------------------------
  S    -40.179900   26.616800   77.933500
  C    -41.343700   27.934600   78.267600
  C    -42.307800   27.520200   79.138100
  C    -42.301400   26.112900   79.415000
  C    -41.182900   25.414500   78.927400
  H    -43.032000   25.603300   80.024500
  C    -43.456600   28.441000   79.718300
  H    -43.732600   27.970600   80.701400
  H    -44.262600   28.331600   78.964700
  C    -43.052100   29.947800   79.946300
  H    -42.117300   29.892500   80.517500
  H    -42.751000   30.420700   78.959700
  C    -44.062600   30.867300   80.659900
  H    -45.045300   30.780000   80.249600
  H    -44.192000   30.554800   81.706300
  H    -43.639400   31.878500   80.628300
  S    -39.985200   23.243000   77.832200
  C    -39.908700   21.704800   78.612300
  C    -40.308100   21.879500   79.915800
  C    -40.869400   23.134800   80.204800
  C    -40.807700   23.993000   79.111500
  H    -40.283100   20.961200   80.391300
  C    -41.693600   23.363600   81.516300
  H    -41.898800   22.450500   82.042000
  H    -42.698400   23.598000   81.245300
  C    -41.154300   24.415200   82.431900
  H    -40.932400   25.273000   81.884300
  H    -40.193600   24.010700   82.829000
  C    -42.106000   24.714200   83.518500
  H    -43.090800   25.169600   83.285000
  H    -41.515700   25.172600   84.383900
  H    -42.393400   23.702600   83.843400
  H    -41.142600   28.955800   77.911800
  H    -39.492000   20.807900   78.236900

 Total Charge           Charge          ....    0
 Multiplicity           Mult            ....    1
 Number of Electrons    NEL             ....  134
 Basis Dimension        Dim             ....  322

ORBITAL ENERGIES
----------------

  NO   OCC          E(Eh)            E(eV)
   0   2.0000     -88.964994     -2420.8606
   1   2.0000     -88.964534     -2420.8481
   2   2.0000     -10.345180      -281.5067
   3   2.0000     -10.329550      -281.0813
   4   2.0000     -10.318542      -280.7818
   5   2.0000     -10.312164      -280.6082
   6   2.0000     -10.307506      -280.4815
   7   2.0000     -10.306299      -280.4487
   8   2.0000     -10.305837      -280.4361
   9   2.0000     -10.300098      -280.2799
  10   2.0000     -10.297037      -280.1966
  11   2.0000     -10.287443      -279.9356
  12   2.0000     -10.286555      -279.9114
  13   2.0000     -10.282525      -279.8017
  14   2.0000     -10.281731      -279.7801
  15   2.0000     -10.273192      -279.5478
  16   2.0000      -8.081227      -219.9014
  17   2.0000      -8.077244      -219.7930
  18   2.0000      -6.039574      -164.3452
  19   2.0000      -6.036154      -164.2521
  20   2.0000      -6.035314      -164.2292
  21   2.0000      -6.032249      -164.1458
  22   2.0000      -6.032063      -164.1408
  23   2.0000      -6.027652      -164.0207
  24   2.0000      -1.012568       -27.5534
  25   2.0000      -0.976591       -26.5744
  26   2.0000      -0.920761       -25.0552
  27   2.0000      -0.898911       -24.4606
  28   2.0000      -0.871196       -23.7064
  29   2.0000      -0.854396       -23.2493
  30   2.0000      -0.841892       -22.9090
  31   2.0000      -0.818201       -22.2644
  32   2.0000      -0.780026       -21.2256
  33   2.0000      -0.770643       -20.9703
  34   2.0000      -0.710536       -19.3347
  35   2.0000      -0.699143       -19.0246
  36   2.0000      -0.693213       -18.8633
  37   2.0000      -0.666960       -18.1489
  38   2.0000      -0.636009       -17.3067
  39   2.0000      -0.617702       -16.8085
  40   2.0000      -0.597684       -16.2638
  41   2.0000      -0.572672       -15.5832
  42   2.0000      -0.564164       -15.3517
  43   2.0000      -0.561263       -15.2728
  44   2.0000      -0.530622       -14.4390
  45   2.0000      -0.526843       -14.3361
  46   2.0000      -0.520096       -14.1525
  47   2.0000      -0.514528       -14.0010
  48   2.0000      -0.508035       -13.8243
  49   2.0000      -0.501414       -13.6442
  50   2.0000      -0.494149       -13.4465
  51   2.0000      -0.489908       -13.3311
  52   2.0000      -0.478273       -13.0145
  53   2.0000      -0.464793       -12.6477
  54   2.0000      -0.456833       -12.4311
  55   2.0000      -0.442241       -12.0340
  56   2.0000      -0.435282       -11.8446
  57   2.0000      -0.432840       -11.7782
  58   2.0000      -0.429073       -11.6757
  59   2.0000      -0.422428       -11.4949
  60   2.0000      -0.418665       -11.3925
  61   2.0000      -0.415277       -11.3003
  62   2.0000      -0.409448       -11.1416
  63   2.0000      -0.356572        -9.7028
  64   2.0000      -0.334382        -9.0990
  65   2.0000      -0.328303        -8.9336
  66   2.0000      -0.289864        -7.8876
  67   0.0000       0.020850         0.5674
  68   0.0000       0.073988         2.0133
  69   0.0000       0.103923         2.8279
  70   0.0000       0.122961         3.3459
  71   0.0000       0.133672         3.6374

MULLIKEN ATOMIC CHARGES
-----------------------
   0 S :    0.076961
   1 C :   -0.146074
   2 C :   -0.079089
   3 C :    0.019262
   4 C :   -0.108798
   5 H :    0.005619
   6 C :    0.042221
   7 H :    0.034980
   8 H :    0.056112
   9 C :   -0.134719
  10 H :    0.037263
  11 H :    0.036195
  12 C :   -0.019400
  13 H :    0.029900
  14 H :    0.029790
  15 H :    0.046625
  16 S :    0.111678
  17 C :   -0.094966
  18 C :   -0.025782
  19 C :    0.003868
  20 C :   -0.150605
  21 H :   -0.006793
  22 C :    0.043690
  23 H :    0.006633
  24 H :    0.010412
  25 C :   -0.036863
  26 H :    0.025517
  27 H :    0.029514
  28 C :   -0.049567
  29 H :    0.038865
  30 H :    0.048917
  31 H :    0.006978
  32 H :    0.066070
  33 H :    0.045584
Sum of atomic charges:    0.0000000

LOEWDIN ATOMIC CHARGES
----------------------
   0 S :    0.339408
   1 C :   -0.186506
   2 C :   -0.067353
   3 C :   -0.065370
   4 C :   -0.152002
   5 H :    0.028158
   6 C :   -0.031434
   7 H :    0.031936
   8 H :    0.036348
   9 C :   -0.050889
  10 H :    0.026200
  11 H :    0.025176
  12 C :   -0.063431
  13 H :    0.022280
  14 H :    0.027032
  15 H :    0.033894
  16 S :    0.446170
  17 C :   -0.185956
  18 C :   -0.068180
  19 C :   -0.053404
  20 C :   -0.213826
  21 H :    0.022607
  22 C :   -0.027098
  23 H :    0.025325
  24 H :    0.021813
  25 C :   -0.043974
  26 H :    0.015050
  27 H :    0.032236
  28 C :   -0.071933
  29 H :    0.027487
  30 H :    0.038865
  31 H :    0.022474
  32 H :    0.033737
  33 H :    0.025162

  Mayer bond orders larger than 0.100000
B(  0-S ,  1-C ) :   1.1111 B(  0-S ,  4-C ) :   1.1210 B(  1-C ,  2-C ) :   1.6439
B(  1-C , 32-H ) :   0.9644 B(  2-C ,  3-C ) :   1.2252 B(  2-C ,  6-C ) :   0.9955
B(  3-C ,  4-C ) :   1.5911 B(  3-C ,  5-H ) :   0.9916 B(  4-C , 20-C ) :   1.0598
B(  6-C ,  7-H ) :   0.9492 B(  6-C ,  8-H ) :   0.9416 B(  6-C ,  9-C ) :   1.0597
B(  9-C , 10-H ) :   0.9616 B(  9-C , 11-H ) :   0.9515 B(  9-C , 12-C ) :   1.0834
B( 12-C , 13-H ) :   0.9755 B( 12-C , 14-H ) :   0.9735 B( 12-C , 15-H ) :   0.9732
B( 16-S , 17-C ) :   1.1723 B( 16-S , 20-C ) :   1.1736 B( 17-C , 18-C ) :   1.5853
B( 17-C , 20-C ) :   0.1048 B( 17-C , 33-H ) :   0.9740 B( 18-C , 19-C ) :   1.2608
B( 18-C , 21-H ) :   1.0054 B( 19-C , 20-C ) :   1.5405 B( 19-C , 22-C ) :   1.0153
B( 22-C , 23-H ) :   0.9325 B( 22-C , 24-H ) :   0.9443 B( 22-C , 25-C ) :   1.0613
B( 25-C , 26-H ) :   0.9547 B( 25-C , 27-H ) :   0.9458 B( 25-C , 28-C ) :   1.0856
B( 28-C , 29-H ) :   0.9718 B( 28-C , 30-H ) :   0.9696 B( 28-C , 31-H ) :   0.9663

Dispersion correction           -0.013970935
FINAL SINGLE POINT ENERGY     -1339.862140894207

DIPOLE MOMENT
-------------
                                X             Y             Z
Electronic contribution:     16.30775     -14.92657     -23.08388
Nuclear contribution   :    -16.73660      14.90903      23.62681
                        -----------------------------------------
Total Dipole Moment    :     -0.42885      -0.01754       0.54293
                        -----------------------------------------
Magnitude (a.u.)       :      0.69209
Magnitude (Debye)      :      1.75916

Rotational constants in cm-1:     0.020322     0.008133     0.006109
Rotational constants in MHz :   609.240448   243.814595   183.147171

                             ****ORCA TERMINATED NORMALLY****
TOTAL RUN TIME: 0 days 0 hours 0 minutes 29 seconds 915 msec
