                         Program Version 4.2.1 -  RELEASE  -
|  1> ! wB97X-D3 SP def2-SVP
|  2> %pal
|  3> nprocs 16
|  4> end
|  5>
|  6> * xyz 0 1
|  7> S 	 -3.28698 	 -7.73634 	 84.4887
|  8> C 	 -2.38609 	 -9.22572 	 84.4489
|  9> C 	 -2.96758 	 -10.2105 	 85.2265
| 10> C 	 -4.02203 	 -9.68743 	 86.0665
| 11> C 	 -4.33351 	 -8.38332 	 85.7169
| 12> H 	 -4.64197 	 -10.2708 	 86.8404
| 13> C 	 -2.56287 	 -11.6441 	 85.3503
| 14> H 	 -3.51723 	 -12.1762 	 85.5558
| 15> H 	 -1.95519 	 -11.7003 	 86.2576
| 16> C 	 -1.89471 	 -12.2297 	 84.0956
| 17> H 	 -2.39427 	 -11.8533 	 83.2097
| 18> H 	 -0.887828 	 -11.8886 	 84.0727
| 19> C 	 -1.92535 	 -13.7881 	 84.1977
| 20> H 	 -2.81715 	 -14.2474 	 84.5181
| 21> H 	 -1.61899 	 -14.2596 	 83.2337
| 22> H 	 -1.25544 	 -14.1948 	 84.9433
| 23> S 	 -6.52165 	 -7.14843 	 84.7824
| 24> C 	 -7.77703 	 -6.66764 	 85.8347
| 25> C 	 -7.54343 	 -7.11826 	 87.1277
| 26> C 	 -6.26051 	 -7.70553 	 87.2766
| 27> C 	 -5.49354 	 -7.62491 	 86.1329
| 28> H 	 -8.27303 	 -7.02435 	 87.9302
| 29> C 	 -5.85085 	 -8.26916 	 88.6346
| 30> H 	 -6.12703 	 -7.56911 	 89.4344
| 31> H 	 -4.74518 	 -8.33723 	 88.7268
| 32> C 	 -6.62224 	 -9.54547 	 88.9615
| 33> H 	 -6.53293 	 -10.2772 	 88.1169
| 34> H 	 -7.69352 	 -9.33889 	 89.0618
| 35> C 	 -5.89452 	 -10.2024 	 90.1682
| 36> H 	 -6.33389 	 -11.1213 	 90.6597
| 37> H 	 -5.83024 	 -9.3565 	 90.8608
| 38> H 	 -4.92165 	 -10.6169 	 89.868
| 39> H 	 -1.40437 	 -9.3694 	 83.8843
| 40> H 	 -8.76494 	 -6.32511 	 85.5185
| 41> *
| 42>
| 43>                          ****END OF INPUT****

CARTESIAN COORDINATES (ANGSTROEM)
---------------------------------
  S     -3.286980   -7.736340   84.488700
  C     -2.386090   -9.225720   84.448900
  C     -2.967580  -10.210500   85.226500
  C     -4.022030   -9.687430   86.066500
  C     -4.333510   -8.383320   85.716900
  H     -4.641970  -10.270800   86.840400
  C     -2.562870  -11.644100   85.350300
  H     -3.517230  -12.176200   85.555800
  H     -1.955190  -11.700300   86.257600
  C     -1.894710  -12.229700   84.095600
  H     -2.394270  -11.853300   83.209700
  H     -0.887828  -11.888600   84.072700
  C     -1.925350  -13.788100   84.197700
  H     -2.817150  -14.247400   84.518100
  H     -1.618990  -14.259600   83.233700
  H     -1.255440  -14.194800   84.943300
  S     -6.521650   -7.148430   84.782400
  C     -7.777030   -6.667640   85.834700
  C     -7.543430   -7.118260   87.127700
  C     -6.260510   -7.705530   87.276600
  C     -5.493540   -7.624910   86.132900
  H     -8.273030   -7.024350   87.930200
  C     -5.850850   -8.269160   88.634600
  H     -6.127030   -7.569110   89.434400
  H     -4.745180   -8.337230   88.726800
  C     -6.622240   -9.545470   88.961500
  H     -6.532930  -10.277200   88.116900
  H     -7.693520   -9.338890   89.061800
  C     -5.894520  -10.202400   90.168200
  H     -6.333890  -11.121300   90.659700
  H     -5.830240   -9.356500   90.860800
  H     -4.921650  -10.616900   89.868000
  H     -1.404370   -9.369400   83.884300
  H     -8.764940   -6.325110   85.518500

 Total Charge           Charge          ....    0
 Multiplicity           Mult            ....    1
 Number of Electrons    NEL             ....  134
 Basis Dimension        Dim             ....  322

ORBITAL ENERGIES
----------------

  NO   OCC          E(Eh)            E(eV)
   0   2.0000     -88.965268     -2420.8680
   1   2.0000     -88.963714     -2420.8257
   2   2.0000     -10.326906      -281.0094
   3   2.0000     -10.321919      -280.8737
   4   2.0000     -10.315717      -280.7049
   5   2.0000     -10.315068      -280.6873
   6   2.0000     -10.301337      -280.3136
   7   2.0000     -10.299907      -280.2747
   8   2.0000     -10.299624      -280.2670
   9   2.0000     -10.296095      -280.1710
  10   2.0000     -10.295490      -280.1545
  11   2.0000     -10.292967      -280.0859
  12   2.0000     -10.292158      -280.0639
  13   2.0000     -10.288449      -279.9629
  14   2.0000     -10.288208      -279.9564
  15   2.0000     -10.277773      -279.6724
  16   2.0000      -8.080345      -219.8774
  17   2.0000      -8.079194      -219.8460
  18   2.0000      -6.038862      -164.3258
  19   2.0000      -6.037670      -164.2934
  20   2.0000      -6.034861      -164.2169
  21   2.0000      -6.033638      -164.1836
  22   2.0000      -6.031027      -164.1126
  23   2.0000      -6.029863      -164.0809
  24   2.0000      -1.011345       -27.5201
  25   2.0000      -0.985975       -26.8297
  26   2.0000      -0.915004       -24.8985
  27   2.0000      -0.912695       -24.8357
  28   2.0000      -0.867688       -23.6110
  29   2.0000      -0.853051       -23.2127
  30   2.0000      -0.846046       -23.0221
  31   2.0000      -0.807682       -21.9781
  32   2.0000      -0.778784       -21.1918
  33   2.0000      -0.768362       -20.9082
  34   2.0000      -0.717786       -19.5320
  35   2.0000      -0.701699       -19.0942
  36   2.0000      -0.690587       -18.7918
  37   2.0000      -0.665013       -18.0959
  38   2.0000      -0.629623       -17.1329
  39   2.0000      -0.609825       -16.5942
  40   2.0000      -0.598872       -16.2961
  41   2.0000      -0.571309       -15.5461
  42   2.0000      -0.567538       -15.4435
  43   2.0000      -0.562218       -15.2987
  44   2.0000      -0.525476       -14.2989
  45   2.0000      -0.521779       -14.1983
  46   2.0000      -0.518519       -14.1096
  47   2.0000      -0.511895       -13.9294
  48   2.0000      -0.500565       -13.6211
  49   2.0000      -0.494730       -13.4623
  50   2.0000      -0.488524       -13.2934
  51   2.0000      -0.484115       -13.1734
  52   2.0000      -0.472494       -12.8572
  53   2.0000      -0.468709       -12.7542
  54   2.0000      -0.455997       -12.4083
  55   2.0000      -0.452100       -12.3023
  56   2.0000      -0.442320       -12.0361
  57   2.0000      -0.438571       -11.9341
  58   2.0000      -0.433685       -11.8012
  59   2.0000      -0.428747       -11.6668
  60   2.0000      -0.423584       -11.5263
  61   2.0000      -0.419921       -11.4266
  62   2.0000      -0.412600       -11.2274
  63   2.0000      -0.352009        -9.5787
  64   2.0000      -0.329972        -8.9790
  65   2.0000      -0.326848        -8.8940
  66   2.0000      -0.286042        -7.7836
  67   0.0000       0.029864         0.8126
  68   0.0000       0.071566         1.9474
  69   0.0000       0.109216         2.9719
  70   0.0000       0.121022         3.2932
  71   0.0000       0.125305         3.4097

MULLIKEN ATOMIC CHARGES
-----------------------
   0 S :    0.114300
   1 C :   -0.150192
   2 C :   -0.109349
   3 C :   -0.002519
   4 C :   -0.155718
   5 H :    0.032060
   6 C :    0.031153
   7 H :    0.030956
   8 H :    0.047477
   9 C :   -0.047796
  10 H :    0.039150
  11 H :    0.027873
  12 C :   -0.036720
  13 H :    0.015799
  14 H :    0.036631
  15 H :    0.018485
  16 S :    0.098371
  17 C :   -0.078097
  18 C :   -0.045970
  19 C :   -0.048782
  20 C :   -0.096231
  21 H :    0.018325
  22 C :    0.017803
  23 H :    0.030934
  24 H :    0.041158
  25 C :   -0.094651
  26 H :    0.035170
  27 H :    0.040275
  28 C :   -0.058891
  29 H :    0.042750
  30 H :    0.034322
  31 H :    0.036093
  32 H :    0.074642
  33 H :    0.061190
Sum of atomic charges:    0.0000000

LOEWDIN ATOMIC CHARGES
----------------------
   0 S :    0.410520
   1 C :   -0.223997
   2 C :   -0.064411
   3 C :   -0.073752
   4 C :   -0.197446
   5 H :    0.044206
   6 C :   -0.036142
   7 H :    0.034261
   8 H :    0.037503
   9 C :   -0.032258
  10 H :    0.026979
  11 H :    0.021673
  12 C :   -0.066470
  13 H :    0.016803
  14 H :    0.030232
  15 H :    0.025044
  16 S :    0.422697
  17 C :   -0.197801
  18 C :   -0.073018
  19 C :   -0.055526
  20 C :   -0.200279
  21 H :    0.030172
  22 C :   -0.036396
  23 H :    0.032279
  24 H :    0.034492
  25 C :   -0.042451
  26 H :    0.020759
  27 H :    0.025678
  28 C :   -0.070952
  29 H :    0.030156
  30 H :    0.025021
  31 H :    0.026797
  32 H :    0.043210
  33 H :    0.032416

  Mayer bond orders larger than 0.100000
B(  0-S ,  1-C ) :   1.1179 B(  0-S ,  4-C ) :   1.1569 B(  1-C ,  2-C ) :   1.6284
B(  1-C , 32-H ) :   0.9579 B(  2-C ,  3-C ) :   1.2376 B(  2-C ,  6-C ) :   1.0129
B(  3-C ,  4-C ) :   1.5821 B(  3-C ,  5-H ) :   0.9719 B(  4-C , 20-C ) :   1.0203
B(  6-C ,  7-H ) :   0.9465 B(  6-C ,  8-H ) :   0.9298 B(  6-C ,  9-C ) :   1.0721
B(  9-C , 10-H ) :   0.9641 B(  9-C , 11-H ) :   0.9461 B(  9-C , 12-C ) :   1.0781
B( 12-C , 13-H ) :   0.9788 B( 12-C , 14-H ) :   0.9761 B( 12-C , 15-H ) :   0.9721
B( 16-S , 17-C ) :   1.1773 B( 16-S , 20-C ) :   1.1384 B( 17-C , 18-C ) :   1.5765
B( 17-C , 33-H ) :   0.9654 B( 18-C , 19-C ) :   1.2607 B( 18-C , 21-H ) :   0.9919
B( 19-C , 20-C ) :   1.6029 B( 19-C , 22-C ) :   1.0361 B( 22-C , 23-H ) :   0.9325
B( 22-C , 24-H ) :   0.9511 B( 22-C , 25-C ) :   1.0385 B( 25-C , 26-H ) :   0.9583
B( 25-C , 27-H ) :   0.9544 B( 25-C , 28-C ) :   1.0629 B( 28-C , 29-H ) :   0.9747
B( 28-C , 30-H ) :   0.9721 B( 28-C , 31-H ) :   0.9765

Dispersion correction           -0.014063573
FINAL SINGLE POINT ENERGY     -1339.875517175536

DIPOLE MOMENT
-------------
                                X             Y             Z
Electronic contribution:     -5.04785      25.36392     -14.08420
Nuclear contribution   :      4.92996     -26.02367      14.51909
                        -----------------------------------------
Total Dipole Moment    :     -0.11790      -0.65975       0.43489
                        -----------------------------------------
Magnitude (a.u.)       :      0.79894
Magnitude (Debye)      :      2.03073

Rotational constants in cm-1:     0.018161     0.008542     0.006460
Rotational constants in MHz :   544.448637   256.076358   193.675564

                             ****ORCA TERMINATED NORMALLY****
TOTAL RUN TIME: 0 days 0 hours 0 minutes 33 seconds 664 msec
