                         Program Version 4.2.1 -  RELEASE  -
|  1> ! wB97X-D3 SP def2-SVP
|  2> %pal
|  3> nprocs 16
|  4> end
|  5>
|  6> * xyz 0 1
|  7> S 	 45.9794 	 9.16164 	 76.3506
|  8> C 	 44.4245 	 9.55577 	 77.1143
|  9> C 	 44.4409 	 10.9015 	 77.5481
| 10> C 	 45.749 	 11.5126 	 77.3908
| 11> C 	 46.6752 	 10.7373 	 76.7871
| 12> H 	 46.0323 	 12.5267 	 77.6749
| 13> C 	 43.1708 	 11.5242 	 78.1303
| 14> H 	 43.381 	 11.726 	 79.1555
| 15> H 	 42.3087 	 10.8589 	 78.1175
| 16> C 	 42.5943 	 12.7562 	 77.4257
| 17> H 	 43.4101 	 13.4688 	 77.0768
| 18> H 	 42.0971 	 12.4237 	 76.5217
| 19> C 	 41.6281 	 13.5262 	 78.2926
| 20> H 	 42.0339 	 14.0217 	 79.1585
| 21> H 	 41.1663 	 14.4392 	 77.7722
| 22> H 	 40.8876 	 12.783 	 78.571
| 23> S 	 48.7377 	 10.0302 	 75.2404
| 24> C 	 50.008 	 11.1233 	 74.8031
| 25> C 	 49.9736 	 12.1798 	 75.6585
| 26> C 	 48.8306 	 12.2212 	 76.5304
| 27> C 	 48.0247 	 11.0588 	 76.4515
| 28> H 	 50.6585 	 12.9865 	 75.6004
| 29> C 	 48.5246 	 13.4083 	 77.3932
| 30> H 	 49.4561 	 13.9309 	 77.7045
| 31> H 	 48.0043 	 13.1867 	 78.2885
| 32> C 	 47.6462 	 14.442 	 76.6007
| 33> H 	 46.8598 	 13.899 	 76.1425
| 34> H 	 48.2865 	 14.722 	 75.7648
| 35> C 	 47.1032 	 15.594 	 77.4212
| 36> H 	 46.4962 	 15.229 	 78.2533
| 37> H 	 46.4447 	 16.2781 	 76.7999
| 38> H 	 47.974 	 16.0881 	 77.8374
| 39> H 	 43.6458 	 8.84727 	 77.267
| 40> H 	 50.7761 	 11.0201 	 74.0747
| 41> *
| 42>
| 43>                          ****END OF INPUT****

CARTESIAN COORDINATES (ANGSTROEM)
---------------------------------
  S     45.979400    9.161640   76.350600
  C     44.424500    9.555770   77.114300
  C     44.440900   10.901500   77.548100
  C     45.749000   11.512600   77.390800
  C     46.675200   10.737300   76.787100
  H     46.032300   12.526700   77.674900
  C     43.170800   11.524200   78.130300
  H     43.381000   11.726000   79.155500
  H     42.308700   10.858900   78.117500
  C     42.594300   12.756200   77.425700
  H     43.410100   13.468800   77.076800
  H     42.097100   12.423700   76.521700
  C     41.628100   13.526200   78.292600
  H     42.033900   14.021700   79.158500
  H     41.166300   14.439200   77.772200
  H     40.887600   12.783000   78.571000
  S     48.737700   10.030200   75.240400
  C     50.008000   11.123300   74.803100
  C     49.973600   12.179800   75.658500
  C     48.830600   12.221200   76.530400
  C     48.024700   11.058800   76.451500
  H     50.658500   12.986500   75.600400
  C     48.524600   13.408300   77.393200
  H     49.456100   13.930900   77.704500
  H     48.004300   13.186700   78.288500
  C     47.646200   14.442000   76.600700
  H     46.859800   13.899000   76.142500
  H     48.286500   14.722000   75.764800
  C     47.103200   15.594000   77.421200
  H     46.496200   15.229000   78.253300
  H     46.444700   16.278100   76.799900
  H     47.974000   16.088100   77.837400
  H     43.645800    8.847270   77.267000
  H     50.776100   11.020100   74.074700

 Total Charge           Charge          ....    0
 Multiplicity           Mult            ....    1
 Number of Electrons    NEL             ....  134
 Basis Dimension        Dim             ....  322

ORBITAL ENERGIES
----------------

  NO   OCC          E(Eh)            E(eV)
   0   2.0000     -88.964475     -2420.8464
   1   2.0000     -88.963582     -2420.8222
   2   2.0000     -10.332152      -281.1521
   3   2.0000     -10.329730      -281.0862
   4   2.0000     -10.318109      -280.7700
   5   2.0000     -10.317572      -280.7554
   6   2.0000     -10.311269      -280.5839
   7   2.0000     -10.309584      -280.5381
   8   2.0000     -10.296763      -280.1892
   9   2.0000     -10.293454      -280.0991
  10   2.0000     -10.292848      -280.0826
  11   2.0000     -10.292006      -280.0597
  12   2.0000     -10.288674      -279.9690
  13   2.0000     -10.286192      -279.9015
  14   2.0000     -10.283280      -279.8223
  15   2.0000     -10.282113      -279.7905
  16   2.0000      -8.079916      -219.8657
  17   2.0000      -8.077655      -219.8042
  18   2.0000      -6.038539      -164.3170
  19   2.0000      -6.036445      -164.2600
  20   2.0000      -6.034154      -164.1977
  21   2.0000      -6.032291      -164.1470
  22   2.0000      -6.030655      -164.1025
  23   2.0000      -6.028127      -164.0337
  24   2.0000      -1.011993       -27.5377
  25   2.0000      -0.982216       -26.7275
  26   2.0000      -0.914986       -24.8980
  27   2.0000      -0.913801       -24.8658
  28   2.0000      -0.878047       -23.8929
  29   2.0000      -0.854175       -23.2433
  30   2.0000      -0.842493       -22.9254
  31   2.0000      -0.823743       -22.4152
  32   2.0000      -0.781536       -21.2667
  33   2.0000      -0.770365       -20.9627
  34   2.0000      -0.711450       -19.3595
  35   2.0000      -0.699679       -19.0392
  36   2.0000      -0.695655       -18.9297
  37   2.0000      -0.669160       -18.2088
  38   2.0000      -0.645667       -17.5695
  39   2.0000      -0.624695       -16.9988
  40   2.0000      -0.602939       -16.4068
  41   2.0000      -0.573883       -15.6161
  42   2.0000      -0.568169       -15.4607
  43   2.0000      -0.561542       -15.2803
  44   2.0000      -0.531911       -14.4740
  45   2.0000      -0.525209       -14.2917
  46   2.0000      -0.519843       -14.1456
  47   2.0000      -0.517130       -14.0718
  48   2.0000      -0.508846       -13.8464
  49   2.0000      -0.504662       -13.7326
  50   2.0000      -0.497751       -13.5445
  51   2.0000      -0.492539       -13.4027
  52   2.0000      -0.478103       -13.0099
  53   2.0000      -0.465784       -12.6746
  54   2.0000      -0.462392       -12.5823
  55   2.0000      -0.453383       -12.3372
  56   2.0000      -0.441321       -12.0090
  57   2.0000      -0.433982       -11.8093
  58   2.0000      -0.430595       -11.7171
  59   2.0000      -0.428945       -11.6722
  60   2.0000      -0.418502       -11.3880
  61   2.0000      -0.417008       -11.3474
  62   2.0000      -0.403376       -10.9764
  63   2.0000      -0.368171       -10.0184
  64   2.0000      -0.336256        -9.1500
  65   2.0000      -0.322796        -8.7837
  66   2.0000      -0.281595        -7.6626
  67   0.0000       0.015045         0.4094
  68   0.0000       0.084763         2.3065
  69   0.0000       0.098000         2.6667
  70   0.0000       0.117312         3.1922
  71   0.0000       0.125404         3.4124

MULLIKEN ATOMIC CHARGES
-----------------------
   0 S :    0.087079
   1 C :   -0.111738
   2 C :   -0.074848
   3 C :   -0.010798
   4 C :   -0.078214
   5 H :   -0.006175
   6 C :    0.075415
   7 H :    0.026955
   8 H :    0.015305
   9 C :   -0.090468
  10 H :    0.031360
  11 H :    0.032769
  12 C :   -0.062548
  13 H :    0.029933
  14 H :    0.042520
  15 H :    0.030543
  16 S :    0.076378
  17 C :   -0.054552
  18 C :   -0.006000
  19 C :   -0.097524
  20 C :   -0.069895
  21 H :    0.002577
  22 C :    0.027478
  23 H :    0.027046
  24 H :    0.016896
  25 C :   -0.086943
  26 H :    0.021076
  27 H :    0.018911
  28 C :   -0.020828
  29 H :    0.028523
  30 H :    0.053228
  31 H :    0.030220
  32 H :    0.046644
  33 H :    0.049676
Sum of atomic charges:   -0.0000000

LOEWDIN ATOMIC CHARGES
----------------------
   0 S :    0.370133
   1 C :   -0.182049
   2 C :   -0.050782
   3 C :   -0.072272
   4 C :   -0.173778
   5 H :    0.031716
   6 C :   -0.031231
   7 H :    0.026634
   8 H :    0.030672
   9 C :   -0.045645
  10 H :    0.023630
  11 H :    0.024873
  12 C :   -0.071037
  13 H :    0.021443
  14 H :    0.036646
  15 H :    0.024004
  16 S :    0.417674
  17 C :   -0.179690
  18 C :   -0.069898
  19 C :   -0.050794
  20 C :   -0.194889
  21 H :    0.024496
  22 C :   -0.033281
  23 H :    0.032790
  24 H :    0.018356
  25 C :   -0.042304
  26 H :    0.015155
  27 H :    0.023508
  28 C :   -0.065883
  29 H :    0.023357
  30 H :    0.037760
  31 H :    0.025537
  32 H :    0.024022
  33 H :    0.031126

  Mayer bond orders larger than 0.100000
B(  0-S ,  1-C ) :   1.1193 B(  0-S ,  4-C ) :   1.1135 B(  1-C ,  2-C ) :   1.6184
B(  1-C , 32-H ) :   0.9754 B(  2-C ,  3-C ) :   1.2104 B(  2-C ,  6-C ) :   1.0295
B(  3-C ,  4-C ) :   1.6105 B(  3-C ,  5-H ) :   0.9866 B(  4-C , 20-C ) :   1.0978
B(  6-C ,  7-H ) :   0.9419 B(  6-C ,  8-H ) :   0.9429 B(  6-C ,  9-C ) :   1.0461
B(  9-C , 10-H ) :   0.9599 B(  9-C , 11-H ) :   0.9566 B(  9-C , 12-C ) :   1.0806
B( 12-C , 13-H ) :   0.9758 B( 12-C , 14-H ) :   0.9717 B( 12-C , 15-H ) :   0.9730
B( 16-S , 17-C ) :   1.1673 B( 16-S , 20-C ) :   1.1275 B( 17-C , 18-C ) :   1.5818
B( 17-C , 33-H ) :   0.9708 B( 18-C , 19-C ) :   1.2805 B( 18-C , 21-H ) :   0.9918
B( 19-C , 20-C ) :   1.5449 B( 19-C , 22-C ) :   1.0570 B( 22-C , 23-H ) :   0.9320
B( 22-C , 24-H ) :   0.9448 B( 22-C , 25-C ) :   1.0426 B( 25-C , 26-H ) :   0.9572
B( 25-C , 27-H ) :   0.9511 B( 25-C , 28-C ) :   1.0777 B( 28-C , 29-H ) :   0.9714
B( 28-C , 30-H ) :   0.9712 B( 28-C , 31-H ) :   0.9710

Dispersion correction           -0.014249557
FINAL SINGLE POINT ENERGY     -1339.878057749257

DIPOLE MOMENT
-------------
                                X             Y             Z
Electronic contribution:     16.68185     -27.22943     -10.50752
Nuclear contribution   :    -16.83631      27.97633      10.65745
                        -----------------------------------------
Total Dipole Moment    :     -0.15446       0.74689       0.14993
                        -----------------------------------------
Magnitude (a.u.)       :      0.77730
Magnitude (Debye)      :      1.97573

Rotational constants in cm-1:     0.018224     0.009541     0.006524
Rotational constants in MHz :   546.332966   286.026698   195.584814

                             ****ORCA TERMINATED NORMALLY****
TOTAL RUN TIME: 0 days 0 hours 0 minutes 29 seconds 473 msec
