                         Program Version 4.2.1 -  RELEASE  -
|  1> ! wB97X-D3 SP def2-SVP
|  2> %pal
|  3> nprocs 16
|  4> end
|  5>
|  6> * xyz 0 1
|  7> S 	 -64.2058 	 56.076 	 128.356
|  8> C 	 -65.5636 	 54.9902 	 128.707
|  9> C 	 -65.666 	 54.0635 	 127.663
| 10> C 	 -64.6923 	 54.2423 	 126.639
| 11> C 	 -63.9217 	 55.4139 	 126.788
| 12> H 	 -64.5272 	 53.5883 	 125.782
| 13> C 	 -66.6768 	 52.9013 	 127.699
| 14> H 	 -66.9939 	 52.8774 	 128.724
| 15> H 	 -66.2213 	 51.8721 	 127.494
| 16> C 	 -67.9712 	 53.0505 	 126.919
| 17> H 	 -68.3002 	 54.0765 	 127.335
| 18> H 	 -67.7928 	 53.1161 	 125.895
| 19> C 	 -69.0601 	 51.9246 	 127.031
| 20> H 	 -69.4431 	 51.9586 	 128.089
| 21> H 	 -69.8743 	 52.1409 	 126.288
| 22> H 	 -68.6709 	 50.9811 	 126.73
| 23> S 	 -61.1473 	 55.8014 	 127.073
| 24> C 	 -60.1992 	 55.6097 	 125.613
| 25> C 	 -60.9606 	 55.6492 	 124.448
| 26> C 	 -62.3739 	 55.5158 	 124.707
| 27> C 	 -62.6676 	 55.5966 	 126.068
| 28> H 	 -60.5665 	 55.5547 	 123.438
| 29> C 	 -63.4058 	 55.399 	 123.559
| 30> H 	 -64.3355 	 54.9464 	 123.989
| 31> H 	 -62.9498 	 54.8374 	 122.731
| 32> C 	 -63.7452 	 56.8041 	 122.948
| 33> H 	 -62.8689 	 57.1686 	 122.467
| 34> H 	 -64.0439 	 57.4037 	 123.877
| 35> C 	 -64.9396 	 56.7095 	 121.9
| 36> H 	 -65.2564 	 57.6459 	 121.505
| 37> H 	 -65.7459 	 56.1302 	 122.384
| 38> H 	 -64.6142 	 56.1182 	 121.009
| 39> H 	 -66.3308 	 55.039 	 129.449
| 40> H 	 -59.1347 	 55.5728 	 125.484
| 41> *
| 42>
| 43>                          ****END OF INPUT****

CARTESIAN COORDINATES (ANGSTROEM)
---------------------------------
  S    -64.205800   56.076000  128.356000
  C    -65.563600   54.990200  128.707000
  C    -65.666000   54.063500  127.663000
  C    -64.692300   54.242300  126.639000
  C    -63.921700   55.413900  126.788000
  H    -64.527200   53.588300  125.782000
  C    -66.676800   52.901300  127.699000
  H    -66.993900   52.877400  128.724000
  H    -66.221300   51.872100  127.494000
  C    -67.971200   53.050500  126.919000
  H    -68.300200   54.076500  127.335000
  H    -67.792800   53.116100  125.895000
  C    -69.060100   51.924600  127.031000
  H    -69.443100   51.958600  128.089000
  H    -69.874300   52.140900  126.288000
  H    -68.670900   50.981100  126.730000
  S    -61.147300   55.801400  127.073000
  C    -60.199200   55.609700  125.613000
  C    -60.960600   55.649200  124.448000
  C    -62.373900   55.515800  124.707000
  C    -62.667600   55.596600  126.068000
  H    -60.566500   55.554700  123.438000
  C    -63.405800   55.399000  123.559000
  H    -64.335500   54.946400  123.989000
  H    -62.949800   54.837400  122.731000
  C    -63.745200   56.804100  122.948000
  H    -62.868900   57.168600  122.467000
  H    -64.043900   57.403700  123.877000
  C    -64.939600   56.709500  121.900000
  H    -65.256400   57.645900  121.505000
  H    -65.745900   56.130200  122.384000
  H    -64.614200   56.118200  121.009000
  H    -66.330800   55.039000  129.449000
  H    -59.134700   55.572800  125.484000

 Total Charge           Charge          ....    0
 Multiplicity           Mult            ....    1
 Number of Electrons    NEL             ....  134
 Basis Dimension        Dim             ....  322

ORBITAL ENERGIES
----------------

  NO   OCC          E(Eh)            E(eV)
   0   2.0000     -88.972959     -2421.0773
   1   2.0000     -88.970021     -2420.9974
   2   2.0000     -10.334546      -281.2173
   3   2.0000     -10.333182      -281.1802
   4   2.0000     -10.320319      -280.8302
   5   2.0000     -10.319406      -280.8053
   6   2.0000     -10.307798      -280.4894
   7   2.0000     -10.307527      -280.4821
   8   2.0000     -10.301018      -280.3049
   9   2.0000     -10.298673      -280.2411
  10   2.0000     -10.296445      -280.1805
  11   2.0000     -10.295850      -280.1643
  12   2.0000     -10.293557      -280.1019
  13   2.0000     -10.289032      -279.9788
  14   2.0000     -10.288097      -279.9534
  15   2.0000     -10.283641      -279.8321
  16   2.0000      -8.087184      -220.0635
  17   2.0000      -8.083263      -219.9568
  18   2.0000      -6.045788      -164.5142
  19   2.0000      -6.042013      -164.4115
  20   2.0000      -6.041657      -164.4018
  21   2.0000      -6.038192      -164.3076
  22   2.0000      -6.037963      -164.3013
  23   2.0000      -6.033634      -164.1835
  24   2.0000      -1.004569       -27.3357
  25   2.0000      -0.977535       -26.6001
  26   2.0000      -0.910237       -24.7688
  27   2.0000      -0.900194       -24.4955
  28   2.0000      -0.868168       -23.6241
  29   2.0000      -0.848926       -23.1005
  30   2.0000      -0.840645       -22.8751
  31   2.0000      -0.810728       -22.0610
  32   2.0000      -0.782494       -21.2928
  33   2.0000      -0.771457       -20.9924
  34   2.0000      -0.707372       -19.2486
  35   2.0000      -0.693598       -18.8738
  36   2.0000      -0.690633       -18.7931
  37   2.0000      -0.660862       -17.9830
  38   2.0000      -0.639781       -17.4093
  39   2.0000      -0.616652       -16.7800
  40   2.0000      -0.588526       -16.0146
  41   2.0000      -0.570978       -15.5371
  42   2.0000      -0.568982       -15.4828
  43   2.0000      -0.563085       -15.3223
  44   2.0000      -0.523861       -14.2550
  45   2.0000      -0.519228       -14.1289
  46   2.0000      -0.515547       -14.0287
  47   2.0000      -0.505651       -13.7595
  48   2.0000      -0.503776       -13.7084
  49   2.0000      -0.500208       -13.6114
  50   2.0000      -0.491704       -13.3799
  51   2.0000      -0.481552       -13.1037
  52   2.0000      -0.468020       -12.7355
  53   2.0000      -0.463725       -12.6186
  54   2.0000      -0.458745       -12.4831
  55   2.0000      -0.454069       -12.3558
  56   2.0000      -0.448771       -12.2117
  57   2.0000      -0.434010       -11.8100
  58   2.0000      -0.427887       -11.6434
  59   2.0000      -0.422333       -11.4923
  60   2.0000      -0.417909       -11.3719
  61   2.0000      -0.415466       -11.3054
  62   2.0000      -0.413158       -11.2426
  63   2.0000      -0.353896        -9.6300
  64   2.0000      -0.334620        -9.1055
  65   2.0000      -0.330987        -9.0066
  66   2.0000      -0.284710        -7.7474
  67   0.0000       0.020824         0.5666
  68   0.0000       0.060335         1.6418
  69   0.0000       0.102439         2.7875
  70   0.0000       0.114650         3.1198
  71   0.0000       0.120240         3.2719

MULLIKEN ATOMIC CHARGES
-----------------------
   0 S :    0.102600
   1 C :   -0.095401
   2 C :   -0.101705
   3 C :    0.012462
   4 C :   -0.127662
   5 H :    0.032666
   6 C :    0.055848
   7 H :    0.002128
   8 H :    0.038115
   9 C :   -0.088655
  10 H :    0.030641
  11 H :    0.014960
  12 C :   -0.051026
  13 H :    0.046298
  14 H :    0.046208
  15 H :    0.029461
  16 S :    0.105847
  17 C :   -0.077300
  18 C :   -0.026646
  19 C :   -0.075047
  20 C :   -0.139809
  21 H :    0.020726
  22 C :    0.044060
  23 H :    0.030151
  24 H :    0.027781
  25 C :   -0.097286
  26 H :    0.027570
  27 H :    0.053717
  28 C :   -0.039635
  29 H :    0.038083
  30 H :    0.036510
  31 H :    0.028115
  32 H :    0.044456
  33 H :    0.051769
Sum of atomic charges:    0.0000000

LOEWDIN ATOMIC CHARGES
----------------------
   0 S :    0.416611
   1 C :   -0.192877
   2 C :   -0.058950
   3 C :   -0.059147
   4 C :   -0.206321
   5 H :    0.032883
   6 C :   -0.039275
   7 H :    0.022998
   8 H :    0.034143
   9 C :   -0.045988
  10 H :    0.031113
  11 H :    0.009771
  12 C :   -0.063857
  13 H :    0.031486
  14 H :    0.035815
  15 H :    0.019432
  16 S :    0.370947
  17 C :   -0.180313
  18 C :   -0.071225
  19 C :   -0.055551
  20 C :   -0.172679
  21 H :    0.030729
  22 C :   -0.032382
  23 H :    0.031092
  24 H :    0.028872
  25 C :   -0.035770
  26 H :    0.015790
  27 H :    0.035334
  28 C :   -0.067079
  29 H :    0.021290
  30 H :    0.027927
  31 H :    0.027542
  32 H :    0.028476
  33 H :    0.029164

  Mayer bond orders larger than 0.100000
B(  0-S ,  1-C ) :   1.1368 B(  0-S ,  4-C ) :   1.1639 B(  1-C ,  2-C ) :   1.5835
B(  1-C ,  4-C ) :   0.1023 B(  1-C , 32-H ) :   0.9662 B(  2-C ,  3-C ) :   1.2840
B(  2-C ,  6-C ) :   1.0260 B(  3-C ,  4-C ) :   1.5121 B(  3-C ,  5-H ) :   0.9845
B(  4-C , 20-C ) :   1.0565 B(  6-C ,  7-H ) :   0.9389 B(  6-C ,  8-H ) :   0.9425
B(  6-C ,  9-C ) :   1.0514 B(  9-C , 10-H ) :   0.9561 B(  9-C , 11-H ) :   0.9599
B(  9-C , 12-C ) :   1.0764 B( 12-C , 13-H ) :   0.9772 B( 12-C , 14-H ) :   0.9755
B( 12-C , 15-H ) :   0.9735 B( 16-S , 17-C ) :   1.1428 B( 16-S , 20-C ) :   1.1006
B( 17-C , 18-C ) :   1.6386 B( 17-C , 33-H ) :   0.9645 B( 18-C , 19-C ) :   1.2284
B( 18-C , 21-H ) :   0.9783 B( 19-C , 20-C ) :   1.6335 B( 19-C , 22-C ) :   1.0468
B( 22-C , 23-H ) :   0.9337 B( 22-C , 24-H ) :   0.9335 B( 22-C , 25-C ) :   1.0576
B( 25-C , 26-H ) :   0.9591 B( 25-C , 27-H ) :   0.9597 B( 25-C , 28-C ) :   1.0699
B( 28-C , 29-H ) :   0.9773 B( 28-C , 30-H ) :   0.9770 B( 28-C , 31-H ) :   0.9743

Dispersion correction           -0.013441397
FINAL SINGLE POINT ENERGY     -1339.859765435198

DIPOLE MOMENT
-------------
                                X             Y             Z
Electronic contribution:     23.11023       9.75814      17.62750
Nuclear contribution   :    -23.40697     -10.18982     -18.15846
                        -----------------------------------------
Total Dipole Moment    :     -0.29673      -0.43168      -0.53097
                        -----------------------------------------
Magnitude (a.u.)       :      0.74587
Magnitude (Debye)      :      1.89585

Rotational constants in cm-1:     0.016976     0.008274     0.006263
Rotational constants in MHz :   508.921800   248.040837   187.752385

                             ****ORCA TERMINATED NORMALLY****
TOTAL RUN TIME: 0 days 0 hours 0 minutes 31 seconds 81 msec
