                         Program Version 4.2.1 -  RELEASE  -
|  1> ! wB97X-D3 SP def2-SVP
|  2> %pal
|  3> nprocs 16
|  4> end
|  5>
|  6> * xyz 0 1
|  7> S 	 20.0802 	 32.0614 	 55.96
|  8> C 	 18.8441 	 33.0024 	 56.7807
|  9> C 	 19.2363 	 34.2172 	 57.1658
| 10> C 	 20.5855 	 34.4919 	 56.7652
| 11> C 	 21.1965 	 33.4217 	 56.1545
| 12> H 	 21.0567 	 35.4417 	 56.8088
| 13> C 	 18.266 	 35.2717 	 57.647
| 14> H 	 17.2273 	 35.0634 	 57.3473
| 15> H 	 18.6071 	 36.1813 	 57.1676
| 16> C 	 18.2273 	 35.5733 	 59.1327
| 17> H 	 17.92 	 34.6622 	 59.6396
| 18> H 	 19.3153 	 35.7907 	 59.2828
| 19> C 	 17.4485 	 36.8514 	 59.712
| 20> H 	 17.7477 	 37.1192 	 60.7565
| 21> H 	 17.7798 	 37.719 	 59.0995
| 22> H 	 16.3539 	 36.7034 	 59.6708
| 23> S 	 23.7658 	 33.2731 	 56.8702
| 24> C 	 24.9574 	 33.449 	 55.6131
| 25> C 	 24.4291 	 33.3931 	 54.3671
| 26> C 	 23.0103 	 33.3882 	 54.4077
| 27> C 	 22.5183 	 33.3412 	 55.6825
| 28> H 	 25.0325 	 33.622 	 53.5058
| 29> C 	 22.1383 	 33.7097 	 53.2396
| 30> H 	 21.1344 	 33.6679 	 53.6573
| 31> H 	 22.2726 	 32.8591 	 52.6735
| 32> C 	 22.4484 	 35.0964 	 52.5367
| 33> H 	 23.1966 	 34.9398 	 51.7501
| 34> H 	 22.8672 	 35.726 	 53.3775
| 35> C 	 21.3302 	 35.8617 	 51.7973
| 36> H 	 20.5618 	 36.1089 	 52.483
| 37> H 	 20.8089 	 35.1587 	 51.0712
| 38> H 	 21.7397 	 36.7734 	 51.3247
| 39> H 	 17.8319 	 32.7482 	 57.0493
| 40> H 	 26.0713 	 33.4742 	 55.855
| 41> *
| 42>
| 43>                          ****END OF INPUT****

CARTESIAN COORDINATES (ANGSTROEM)
---------------------------------
  S     20.080200   32.061400   55.960000
  C     18.844100   33.002400   56.780700
  C     19.236300   34.217200   57.165800
  C     20.585500   34.491900   56.765200
  C     21.196500   33.421700   56.154500
  H     21.056700   35.441700   56.808800
  C     18.266000   35.271700   57.647000
  H     17.227300   35.063400   57.347300
  H     18.607100   36.181300   57.167600
  C     18.227300   35.573300   59.132700
  H     17.920000   34.662200   59.639600
  H     19.315300   35.790700   59.282800
  C     17.448500   36.851400   59.712000
  H     17.747700   37.119200   60.756500
  H     17.779800   37.719000   59.099500
  H     16.353900   36.703400   59.670800
  S     23.765800   33.273100   56.870200
  C     24.957400   33.449000   55.613100
  C     24.429100   33.393100   54.367100
  C     23.010300   33.388200   54.407700
  C     22.518300   33.341200   55.682500
  H     25.032500   33.622000   53.505800
  C     22.138300   33.709700   53.239600
  H     21.134400   33.667900   53.657300
  H     22.272600   32.859100   52.673500
  C     22.448400   35.096400   52.536700
  H     23.196600   34.939800   51.750100
  H     22.867200   35.726000   53.377500
  C     21.330200   35.861700   51.797300
  H     20.561800   36.108900   52.483000
  H     20.808900   35.158700   51.071200
  H     21.739700   36.773400   51.324700
  H     17.831900   32.748200   57.049300
  H     26.071300   33.474200   55.855000

 Total Charge           Charge          ....    0
 Multiplicity           Mult            ....    1
 Number of Electrons    NEL             ....  134
 Basis Dimension        Dim             ....  322

ORBITAL ENERGIES
----------------

  NO   OCC          E(Eh)            E(eV)
   0   2.0000     -88.967724     -2420.9349
   1   2.0000     -88.962058     -2420.7807
   2   2.0000     -10.324841      -280.9532
   3   2.0000     -10.318564      -280.7824
   4   2.0000     -10.311904      -280.6012
   5   2.0000     -10.307792      -280.4893
   6   2.0000     -10.294540      -280.1287
   7   2.0000     -10.294348      -280.1235
   8   2.0000     -10.294255      -280.1209
   9   2.0000     -10.293453      -280.0991
  10   2.0000     -10.292859      -280.0829
  11   2.0000     -10.291586      -280.0483
  12   2.0000     -10.290209      -280.0108
  13   2.0000     -10.288465      -279.9634
  14   2.0000     -10.282297      -279.7955
  15   2.0000     -10.281240      -279.7668
  16   2.0000      -8.081859      -219.9186
  17   2.0000      -8.077851      -219.8095
  18   2.0000      -6.040439      -164.3687
  19   2.0000      -6.036538      -164.2625
  20   2.0000      -6.036226      -164.2541
  21   2.0000      -6.032480      -164.1521
  22   2.0000      -6.032224      -164.1452
  23   2.0000      -6.028679      -164.0487
  24   2.0000      -1.015159       -27.6239
  25   2.0000      -0.989547       -26.9269
  26   2.0000      -0.912074       -24.8188
  27   2.0000      -0.904149       -24.6031
  28   2.0000      -0.875335       -23.8191
  29   2.0000      -0.852141       -23.1879
  30   2.0000      -0.844739       -22.9865
  31   2.0000      -0.817747       -22.2520
  32   2.0000      -0.785496       -21.3744
  33   2.0000      -0.771496       -20.9935
  34   2.0000      -0.708876       -19.2895
  35   2.0000      -0.697301       -18.9745
  36   2.0000      -0.692067       -18.8321
  37   2.0000      -0.660158       -17.9638
  38   2.0000      -0.640484       -17.4285
  39   2.0000      -0.619059       -16.8454
  40   2.0000      -0.590539       -16.0694
  41   2.0000      -0.574120       -15.6226
  42   2.0000      -0.568134       -15.4597
  43   2.0000      -0.559037       -15.2122
  44   2.0000      -0.527977       -14.3670
  45   2.0000      -0.523802       -14.2534
  46   2.0000      -0.516274       -14.0485
  47   2.0000      -0.506920       -13.7940
  48   2.0000      -0.504673       -13.7329
  49   2.0000      -0.502834       -13.6828
  50   2.0000      -0.484220       -13.1763
  51   2.0000      -0.478449       -13.0193
  52   2.0000      -0.472147       -12.8478
  53   2.0000      -0.467792       -12.7293
  54   2.0000      -0.462755       -12.5922
  55   2.0000      -0.456368       -12.4184
  56   2.0000      -0.446375       -12.1465
  57   2.0000      -0.436475       -11.8771
  58   2.0000      -0.432265       -11.7625
  59   2.0000      -0.422643       -11.5007
  60   2.0000      -0.417434       -11.3589
  61   2.0000      -0.415982       -11.3195
  62   2.0000      -0.405935       -11.0461
  63   2.0000      -0.338155        -9.2017
  64   2.0000      -0.335636        -9.1331
  65   2.0000      -0.328173        -8.9300
  66   2.0000      -0.303259        -8.2521
  67   0.0000       0.040305         1.0967
  68   0.0000       0.067253         1.8300
  69   0.0000       0.106723         2.9041
  70   0.0000       0.121112         3.2956
  71   0.0000       0.132282         3.5996

MULLIKEN ATOMIC CHARGES
-----------------------
   0 S :    0.124479
   1 C :   -0.101808
   2 C :   -0.063075
   3 C :    0.052544
   4 C :   -0.202218
   5 H :    0.002818
   6 C :    0.066233
   7 H :    0.022052
   8 H :    0.013306
   9 C :   -0.104444
  10 H :    0.030290
  11 H :    0.027974
  12 C :   -0.064773
  13 H :    0.049396
  14 H :    0.032489
  15 H :    0.045954
  16 S :    0.123159
  17 C :   -0.125202
  18 C :   -0.013721
  19 C :   -0.079271
  20 C :   -0.179211
  21 H :    0.020100
  22 C :    0.156944
  23 H :    0.017425
  24 H :    0.012230
  25 C :   -0.119919
  26 H :    0.034310
  27 H :    0.049731
  28 C :   -0.049158
  29 H :    0.025387
  30 H :    0.039085
  31 H :    0.049332
  32 H :    0.029239
  33 H :    0.078321
Sum of atomic charges:   -0.0000000

LOEWDIN ATOMIC CHARGES
----------------------
   0 S :    0.394614
   1 C :   -0.185226
   2 C :   -0.068188
   3 C :   -0.049295
   4 C :   -0.190185
   5 H :    0.027461
   6 C :   -0.031122
   7 H :    0.025931
   8 H :    0.028292
   9 C :   -0.047266
  10 H :    0.019324
  11 H :    0.026975
  12 C :   -0.071796
  13 H :    0.034062
  14 H :    0.027407
  15 H :    0.025862
  16 S :    0.420045
  17 C :   -0.187426
  18 C :   -0.075930
  19 C :   -0.053354
  20 C :   -0.222520
  21 H :    0.033258
  22 C :   -0.027388
  23 H :    0.027303
  24 H :    0.022726
  25 C :   -0.044162
  26 H :    0.023787
  27 H :    0.031689
  28 C :   -0.067444
  29 H :    0.017196
  30 H :    0.033385
  31 H :    0.033089
  32 H :    0.027927
  33 H :    0.040973

  Mayer bond orders larger than 0.100000
B(  0-S ,  1-C ) :   1.1174 B(  0-S ,  4-C ) :   1.1207 B(  1-C ,  2-C ) :   1.6799
B(  1-C , 32-H ) :   0.9567 B(  2-C ,  3-C ) :   1.2001 B(  2-C ,  6-C ) :   1.0194
B(  3-C ,  4-C ) :   1.6182 B(  3-C ,  5-H ) :   0.9972 B(  4-C , 20-C ) :   1.0383
B(  6-C ,  7-H ) :   0.9471 B(  6-C ,  8-H ) :   0.9359 B(  6-C ,  9-C ) :   1.0535
B(  9-C , 10-H ) :   0.9592 B(  9-C , 11-H ) :   0.9611 B(  9-C , 12-C ) :   1.0675
B( 12-C , 13-H ) :   0.9768 B( 12-C , 14-H ) :   0.9741 B( 12-C , 15-H ) :   0.9777
B( 16-S , 17-C ) :   1.1604 B( 16-S , 20-C ) :   1.1443 B( 17-C , 18-C ) :   1.6256
B( 17-C , 33-H ) :   0.9560 B( 18-C , 19-C ) :   1.2258 B( 18-C , 21-H ) :   0.9904
B( 19-C , 20-C ) :   1.6121 B( 19-C , 22-C ) :   1.0444 B( 22-C , 23-H ) :   0.9252
B( 22-C , 24-H ) :   0.9164 B( 22-C , 25-C ) :   1.0369 B( 25-C , 26-H ) :   0.9538
B( 25-C , 27-H ) :   0.9632 B( 25-C , 28-C ) :   1.0886 B( 28-C , 29-H ) :   0.9753
B( 28-C , 30-H ) :   0.9736 B( 28-C , 31-H ) :   0.9737

Dispersion correction           -0.014108531
FINAL SINGLE POINT ENERGY     -1339.866170186089

DIPOLE MOMENT
-------------
                                X             Y             Z
Electronic contribution:     13.55155     -20.10880       3.94203
Nuclear contribution   :    -13.66240      20.66847      -4.16243
                        -----------------------------------------
Total Dipole Moment    :     -0.11084       0.55967      -0.22040
                        -----------------------------------------
Magnitude (a.u.)       :      0.61163
Magnitude (Debye)      :      1.55464

Rotational constants in cm-1:     0.018529     0.007687     0.006841
Rotational constants in MHz :   555.480756   230.460291   205.074608

                             ****ORCA TERMINATED NORMALLY****
TOTAL RUN TIME: 0 days 0 hours 0 minutes 35 seconds 133 msec
