                         Program Version 4.2.1 -  RELEASE  -
|  1> ! wB97X-D3 SP def2-SVP
|  2> %pal
|  3> nprocs 16
|  4> end
|  5>
|  6> * xyz 0 1
|  7> S 	 -117.356 	 48.3705 	 134.353
|  8> C 	 -116.985 	 48.0453 	 132.705
|  9> C 	 -115.723 	 47.4829 	 132.574
| 10> C 	 -115.094 	 47.2022 	 133.797
| 11> C 	 -115.789 	 47.7419 	 134.891
| 12> H 	 -114.03 	 46.887 	 133.821
| 13> C 	 -115.079 	 46.9899 	 131.247
| 14> H 	 -114.108 	 47.4591 	 131.358
| 15> H 	 -115.61 	 47.36 	 130.339
| 16> C 	 -114.791 	 45.4554 	 131.294
| 17> H 	 -113.986 	 45.1289 	 130.55
| 18> H 	 -114.401 	 45.1113 	 132.292
| 19> C 	 -116.072 	 44.5664 	 131.117
| 20> H 	 -116.608 	 44.7424 	 130.178
| 21> H 	 -115.687 	 43.571 	 131.042
| 22> H 	 -116.663 	 44.6096 	 132.044
| 23> S 	 -115.677 	 49.4276 	 137.046
| 24> C 	 -114.702 	 48.9603 	 138.458
| 25> C 	 -113.946 	 47.8197 	 138.187
| 26> C 	 -114.237 	 47.2238 	 136.949
| 27> C 	 -115.239 	 47.9245 	 136.241
| 28> H 	 -113.324 	 47.3437 	 139.004
| 29> C 	 -113.731 	 45.9045 	 136.553
| 30> H 	 -112.85 	 46.0289 	 135.936
| 31> H 	 -114.396 	 45.6027 	 135.788
| 32> C 	 -113.734 	 44.7689 	 137.552
| 33> H 	 -114.587 	 44.9554 	 138.115
| 34> H 	 -112.95 	 44.8921 	 138.268
| 35> C 	 -113.766 	 43.3125 	 137.005
| 36> H 	 -114.146 	 42.6298 	 137.83
| 37> H 	 -112.827 	 42.9837 	 136.574
| 38> H 	 -114.542 	 43.0999 	 136.239
| 39> H 	 -117.725 	 48.0536 	 131.832
| 40> H 	 -114.586 	 49.513 	 139.359
| 41> *
| 42>
| 43>                          ****END OF INPUT****

CARTESIAN COORDINATES (ANGSTROEM)
---------------------------------
  S    -117.356000   48.370500  134.353000
  C    -116.985000   48.045300  132.705000
  C    -115.723000   47.482900  132.574000
  C    -115.094000   47.202200  133.797000
  C    -115.789000   47.741900  134.891000
  H    -114.030000   46.887000  133.821000
  C    -115.079000   46.989900  131.247000
  H    -114.108000   47.459100  131.358000
  H    -115.610000   47.360000  130.339000
  C    -114.791000   45.455400  131.294000
  H    -113.986000   45.128900  130.550000
  H    -114.401000   45.111300  132.292000
  C    -116.072000   44.566400  131.117000
  H    -116.608000   44.742400  130.178000
  H    -115.687000   43.571000  131.042000
  H    -116.663000   44.609600  132.044000
  S    -115.677000   49.427600  137.046000
  C    -114.702000   48.960300  138.458000
  C    -113.946000   47.819700  138.187000
  C    -114.237000   47.223800  136.949000
  C    -115.239000   47.924500  136.241000
  H    -113.324000   47.343700  139.004000
  C    -113.731000   45.904500  136.553000
  H    -112.850000   46.028900  135.936000
  H    -114.396000   45.602700  135.788000
  C    -113.734000   44.768900  137.552000
  H    -114.587000   44.955400  138.115000
  H    -112.950000   44.892100  138.268000
  C    -113.766000   43.312500  137.005000
  H    -114.146000   42.629800  137.830000
  H    -112.827000   42.983700  136.574000
  H    -114.542000   43.099900  136.239000
  H    -117.725000   48.053600  131.832000
  H    -114.586000   49.513000  139.359000

 Total Charge           Charge          ....    0
 Multiplicity           Mult            ....    1
 Number of Electrons    NEL             ....  134
 Basis Dimension        Dim             ....  322

ORBITAL ENERGIES
----------------

  NO   OCC          E(Eh)            E(eV)
   0   2.0000     -88.971540     -2421.0387
   1   2.0000     -88.968545     -2420.9572
   2   2.0000     -10.338073      -281.3133
   3   2.0000     -10.331408      -281.1319
   4   2.0000     -10.317967      -280.7662
   5   2.0000     -10.317688      -280.7586
   6   2.0000     -10.301037      -280.3055
   7   2.0000     -10.301021      -280.3050
   8   2.0000     -10.300205      -280.2828
   9   2.0000     -10.299811      -280.2721
  10   2.0000     -10.297650      -280.2133
  11   2.0000     -10.297370      -280.2057
  12   2.0000     -10.288531      -279.9652
  13   2.0000     -10.282086      -279.7898
  14   2.0000     -10.279758      -279.7264
  15   2.0000     -10.276696      -279.6431
  16   2.0000      -8.086002      -220.0313
  17   2.0000      -8.082457      -219.9348
  18   2.0000      -6.044554      -164.4807
  19   2.0000      -6.040989      -164.3837
  20   2.0000      -6.040483      -164.3699
  21   2.0000      -6.037082      -164.2773
  22   2.0000      -6.036801      -164.2697
  23   2.0000      -6.033244      -164.1729
  24   2.0000      -1.006685       -27.3933
  25   2.0000      -0.984205       -26.7816
  26   2.0000      -0.915491       -24.9118
  27   2.0000      -0.903811       -24.5939
  28   2.0000      -0.866207       -23.5707
  29   2.0000      -0.853261       -23.2184
  30   2.0000      -0.845066       -22.9954
  31   2.0000      -0.811070       -22.0703
  32   2.0000      -0.782768       -21.3002
  33   2.0000      -0.771267       -20.9872
  34   2.0000      -0.716216       -19.4892
  35   2.0000      -0.703559       -19.1448
  36   2.0000      -0.687465       -18.7069
  37   2.0000      -0.654572       -17.8118
  38   2.0000      -0.629568       -17.1314
  39   2.0000      -0.624700       -16.9990
  40   2.0000      -0.598827       -16.2949
  41   2.0000      -0.568286       -15.4639
  42   2.0000      -0.561600       -15.2819
  43   2.0000      -0.544419       -14.8144
  44   2.0000      -0.534916       -14.5558
  45   2.0000      -0.527485       -14.3536
  46   2.0000      -0.518140       -14.0993
  47   2.0000      -0.512905       -13.9569
  48   2.0000      -0.499761       -13.5992
  49   2.0000      -0.498578       -13.5670
  50   2.0000      -0.484317       -13.1789
  51   2.0000      -0.482908       -13.1406
  52   2.0000      -0.472816       -12.8660
  53   2.0000      -0.463775       -12.6200
  54   2.0000      -0.458554       -12.4779
  55   2.0000      -0.447713       -12.1829
  56   2.0000      -0.442008       -12.0276
  57   2.0000      -0.435366       -11.8469
  58   2.0000      -0.434144       -11.8137
  59   2.0000      -0.429352       -11.6832
  60   2.0000      -0.424426       -11.5492
  61   2.0000      -0.415648       -11.3104
  62   2.0000      -0.411270       -11.1912
  63   2.0000      -0.357901        -9.7390
  64   2.0000      -0.334119        -9.0918
  65   2.0000      -0.331400        -9.0179
  66   2.0000      -0.279907        -7.6167
  67   0.0000       0.017436         0.4745
  68   0.0000       0.077514         2.1093
  69   0.0000       0.106015         2.8848
  70   0.0000       0.118700         3.2300
  71   0.0000       0.130517         3.5515

MULLIKEN ATOMIC CHARGES
-----------------------
   0 S :    0.118085
   1 C :   -0.140358
   2 C :   -0.116526
   3 C :   -0.020096
   4 C :   -0.129903
   5 H :    0.036187
   6 C :    0.091992
   7 H :    0.032338
   8 H :    0.037538
   9 C :   -0.142854
  10 H :    0.042791
  11 H :    0.035402
  12 C :   -0.046155
  13 H :    0.035311
  14 H :    0.022599
  15 H :    0.051383
  16 S :    0.101718
  17 C :   -0.088106
  18 C :   -0.056901
  19 C :   -0.075920
  20 C :   -0.131075
  21 H :    0.043304
  22 C :    0.093150
  23 H :    0.025668
  24 H :   -0.002141
  25 C :   -0.015148
  26 H :    0.012711
  27 H :    0.020886
  28 C :   -0.078854
  29 H :    0.044237
  30 H :    0.041711
  31 H :    0.033406
  32 H :    0.076605
  33 H :    0.047015
Sum of atomic charges:    0.0000000

LOEWDIN ATOMIC CHARGES
----------------------
   0 S :    0.412889
   1 C :   -0.228231
   2 C :   -0.067874
   3 C :   -0.076313
   4 C :   -0.184254
   5 H :    0.038429
   6 C :   -0.031140
   7 H :    0.033907
   8 H :    0.033835
   9 C :   -0.048938
  10 H :    0.027664
  11 H :    0.027947
  12 C :   -0.068440
  13 H :    0.023305
  14 H :    0.022604
  15 H :    0.031234
  16 S :    0.395732
  17 C :   -0.177617
  18 C :   -0.074555
  19 C :   -0.061113
  20 C :   -0.188371
  21 H :    0.043572
  22 C :   -0.042329
  23 H :    0.029784
  24 H :    0.028664
  25 C :   -0.033302
  26 H :    0.021435
  27 H :    0.019594
  28 C :   -0.069154
  29 H :    0.038509
  30 H :    0.023450
  31 H :    0.027946
  32 H :    0.047659
  33 H :    0.023474

  Mayer bond orders larger than 0.100000
B(  0-S ,  1-C ) :   1.1347 B(  0-S ,  4-C ) :   1.1620 B(  1-C ,  2-C ) :   1.6016
B(  1-C , 32-H ) :   0.9542 B(  2-C ,  3-C ) :   1.2926 B(  2-C ,  6-C ) :   1.0069
B(  3-C ,  4-C ) :   1.5140 B(  3-C ,  5-H ) :   0.9717 B(  4-C , 20-C ) :   1.0668
B(  6-C ,  7-H ) :   0.9311 B(  6-C ,  8-H ) :   0.9540 B(  6-C ,  9-C ) :   1.0592
B(  9-C , 10-H ) :   0.9607 B(  9-C , 11-H ) :   0.9544 B(  9-C , 12-C ) :   1.0655
B( 12-C , 13-H ) :   0.9777 B( 12-C , 14-H ) :   0.9737 B( 12-C , 15-H ) :   0.9776
B( 16-S , 17-C ) :   1.1476 B( 16-S , 20-C ) :   1.1440 B( 17-C , 18-C ) :   1.5966
B( 17-C , 20-C ) :   0.1082 B( 17-C , 33-H ) :   0.9710 B( 18-C , 19-C ) :   1.2671
B( 18-C , 21-H ) :   0.9765 B( 19-C , 20-C ) :   1.5611 B( 19-C , 22-C ) :   1.0615
B( 22-C , 23-H ) :   0.9041 B( 22-C , 24-H ) :   0.9187 B( 22-C , 25-C ) :   1.0600
B( 25-C , 26-H ) :   0.9508 B( 25-C , 27-H ) :   0.9461 B( 25-C , 28-C ) :   1.0888
B( 28-C , 29-H ) :   0.9742 B( 28-C , 30-H ) :   0.9784 B( 28-C , 31-H ) :   0.9730

Dispersion correction           -0.014244939
FINAL SINGLE POINT ENERGY     -1339.866261410121

DIPOLE MOMENT
-------------
                                X             Y             Z
Electronic contribution:    -11.39022      26.69683       9.91682
Nuclear contribution   :     11.79546     -27.23429     -10.10954
                        -----------------------------------------
Total Dipole Moment    :      0.40524      -0.53747      -0.19271
                        -----------------------------------------
Magnitude (a.u.)       :      0.70017
Magnitude (Debye)      :      1.77968

Rotational constants in cm-1:     0.016770     0.009752     0.006743
Rotational constants in MHz :   502.754917   292.370532   202.139771

                             ****ORCA TERMINATED NORMALLY****
TOTAL RUN TIME: 0 days 0 hours 0 minutes 33 seconds 842 msec
