                         Program Version 4.2.1 -  RELEASE  -
|  1> ! wB97X-D3 SP def2-SVP
|  2> %pal
|  3> nprocs 16
|  4> end
|  5>
|  6> * xyz 0 1
|  7> S 	 11.4297 	 22.2102 	 47.3403
|  8> C 	 12.7071 	 23.0417 	 48.2772
|  9> C 	 12.112 	 23.7552 	 49.2419
| 10> C 	 10.7139 	 23.4637 	 49.3561
| 11> C 	 10.1728 	 22.5442 	 48.4929
| 12> H 	 9.99167 	 23.9024 	 50.009
| 13> C 	 12.773 	 24.7963 	 50.1558
| 14> H 	 12.2095 	 25.6982 	 50.1514
| 15> H 	 13.6675 	 25.0151 	 49.6484
| 16> C 	 13.1936 	 24.3358 	 51.5258
| 17> H 	 12.2372 	 24.1634 	 52.1254
| 18> H 	 13.6569 	 23.3943 	 51.3052
| 19> C 	 14.0175 	 25.4622 	 52.1717
| 20> H 	 14.3851 	 25.1028 	 53.1372
| 21> H 	 14.9322 	 25.6407 	 51.5674
| 22> H 	 13.4164 	 26.3514 	 52.3168
| 23> S 	 8.0856 	 22.0542 	 46.6706
| 24> C 	 6.41705 	 22.0839 	 47.1937
| 25> C 	 6.38661 	 22.2325 	 48.5635
| 26> C 	 7.66583 	 22.4402 	 49.1548
| 27> C 	 8.73782 	 22.2732 	 48.2758
| 28> H 	 5.45784 	 22.2596 	 49.1242
| 29> C 	 7.78637 	 22.4217 	 50.6281
| 30> H 	 6.7969 	 22.7915 	 50.9736
| 31> H 	 8.43891 	 23.1756 	 51.0351
| 32> C 	 8.35135 	 21.125 	 51.2812
| 33> H 	 8.74068 	 21.4065 	 52.2405
| 34> H 	 9.14682 	 20.816 	 50.6757
| 35> C 	 7.32256 	 19.9785 	 51.3725
| 36> H 	 7.7515 	 19.098 	 51.8684
| 37> H 	 7.06328 	 19.6819 	 50.3592
| 38> H 	 6.5278 	 20.2752 	 51.9947
| 39> H 	 13.7493 	 23.2004 	 47.9489
| 40> H 	 5.50823 	 22.1386 	 46.5665
| 41> *
| 42>
| 43>                          ****END OF INPUT****

CARTESIAN COORDINATES (ANGSTROEM)
---------------------------------
  S     11.429700   22.210200   47.340300
  C     12.707100   23.041700   48.277200
  C     12.112000   23.755200   49.241900
  C     10.713900   23.463700   49.356100
  C     10.172800   22.544200   48.492900
  H      9.991670   23.902400   50.009000
  C     12.773000   24.796300   50.155800
  H     12.209500   25.698200   50.151400
  H     13.667500   25.015100   49.648400
  C     13.193600   24.335800   51.525800
  H     12.237200   24.163400   52.125400
  H     13.656900   23.394300   51.305200
  C     14.017500   25.462200   52.171700
  H     14.385100   25.102800   53.137200
  H     14.932200   25.640700   51.567400
  H     13.416400   26.351400   52.316800
  S      8.085600   22.054200   46.670600
  C      6.417050   22.083900   47.193700
  C      6.386610   22.232500   48.563500
  C      7.665830   22.440200   49.154800
  C      8.737820   22.273200   48.275800
  H      5.457840   22.259600   49.124200
  C      7.786370   22.421700   50.628100
  H      6.796900   22.791500   50.973600
  H      8.438910   23.175600   51.035100
  C      8.351350   21.125000   51.281200
  H      8.740680   21.406500   52.240500
  H      9.146820   20.816000   50.675700
  C      7.322560   19.978500   51.372500
  H      7.751500   19.098000   51.868400
  H      7.063280   19.681900   50.359200
  H      6.527800   20.275200   51.994700
  H     13.749300   23.200400   47.948900
  H      5.508230   22.138600   46.566500

 Total Charge           Charge          ....    0
 Multiplicity           Mult            ....    1
 Number of Electrons    NEL             ....  134
 Basis Dimension        Dim             ....  322

ORBITAL ENERGIES
----------------

  NO   OCC          E(Eh)            E(eV)
   0   2.0000     -88.969059     -2420.9712
   1   2.0000     -88.961524     -2420.7661
   2   2.0000     -10.333688      -281.1940
   3   2.0000     -10.333162      -281.1796
   4   2.0000     -10.322457      -280.8883
   5   2.0000     -10.317723      -280.7595
   6   2.0000     -10.299980      -280.2767
   7   2.0000     -10.299545      -280.2649
   8   2.0000     -10.294797      -280.1357
   9   2.0000     -10.289104      -279.9808
  10   2.0000     -10.288523      -279.9649
  11   2.0000     -10.287493      -279.9369
  12   2.0000     -10.284771      -279.8629
  13   2.0000     -10.282681      -279.8060
  14   2.0000     -10.279178      -279.7106
  15   2.0000     -10.269895      -279.4581
  16   2.0000      -8.083669      -219.9678
  17   2.0000      -8.076216      -219.7650
  18   2.0000      -6.042293      -164.4192
  19   2.0000      -6.038007      -164.3025
  20   2.0000      -6.035033      -164.2216
  21   2.0000      -6.034483      -164.2066
  22   2.0000      -6.030793      -164.1062
  23   2.0000      -6.026555      -163.9909
  24   2.0000      -1.010985       -27.5103
  25   2.0000      -0.989707       -26.9313
  26   2.0000      -0.919746       -25.0276
  27   2.0000      -0.909987       -24.7620
  28   2.0000      -0.875381       -23.8203
  29   2.0000      -0.850417       -23.1410
  30   2.0000      -0.840668       -22.8757
  31   2.0000      -0.818444       -22.2710
  32   2.0000      -0.783498       -21.3201
  33   2.0000      -0.775867       -21.1124
  34   2.0000      -0.714334       -19.4380
  35   2.0000      -0.700847       -19.0710
  36   2.0000      -0.691500       -18.8167
  37   2.0000      -0.665302       -18.1038
  38   2.0000      -0.641662       -17.4605
  39   2.0000      -0.620702       -16.8902
  40   2.0000      -0.597318       -16.2538
  41   2.0000      -0.581286       -15.8176
  42   2.0000      -0.565539       -15.3891
  43   2.0000      -0.552697       -15.0397
  44   2.0000      -0.538452       -14.6520
  45   2.0000      -0.521689       -14.1959
  46   2.0000      -0.521326       -14.1860
  47   2.0000      -0.513202       -13.9649
  48   2.0000      -0.510331       -13.8868
  49   2.0000      -0.501676       -13.6513
  50   2.0000      -0.490484       -13.3467
  51   2.0000      -0.483424       -13.1546
  52   2.0000      -0.473613       -12.8877
  53   2.0000      -0.469446       -12.7743
  54   2.0000      -0.466627       -12.6976
  55   2.0000      -0.445759       -12.1297
  56   2.0000      -0.443582       -12.0705
  57   2.0000      -0.435334       -11.8460
  58   2.0000      -0.430264       -11.7081
  59   2.0000      -0.423542       -11.5252
  60   2.0000      -0.421164       -11.4605
  61   2.0000      -0.416613       -11.3366
  62   2.0000      -0.404350       -11.0029
  63   2.0000      -0.364626        -9.9220
  64   2.0000      -0.333151        -9.0655
  65   2.0000      -0.325504        -8.8574
  66   2.0000      -0.289161        -7.8685
  67   0.0000       0.018172         0.4945
  68   0.0000       0.079792         2.1713
  69   0.0000       0.103497         2.8163
  70   0.0000       0.125141         3.4053
  71   0.0000       0.130679         3.5560

MULLIKEN ATOMIC CHARGES
-----------------------
   0 S :    0.069209
   1 C :   -0.124292
   2 C :   -0.080761
   3 C :    0.001249
   4 C :   -0.093343
   5 H :   -0.010125
   6 C :    0.089729
   7 H :    0.020323
   8 H :   -0.014400
   9 C :   -0.074865
  10 H :    0.035233
  11 H :    0.028273
  12 C :   -0.031174
  13 H :    0.034129
  14 H :    0.034982
  15 H :    0.039300
  16 S :    0.104437
  17 C :   -0.101034
  18 C :   -0.028912
  19 C :   -0.066257
  20 C :   -0.118574
  21 H :    0.022034
  22 C :    0.024936
  23 H :    0.011874
  24 H :    0.013189
  25 C :   -0.022343
  26 H :    0.017948
  27 H :    0.024859
  28 C :   -0.029547
  29 H :    0.028883
  30 H :    0.040766
  31 H :    0.018503
  32 H :    0.061263
  33 H :    0.074508
Sum of atomic charges:   -0.0000000

LOEWDIN ATOMIC CHARGES
----------------------
   0 S :    0.381365
   1 C :   -0.184582
   2 C :   -0.064619
   3 C :   -0.067045
   4 C :   -0.188515
   5 H :    0.021893
   6 C :   -0.026755
   7 H :    0.025193
   8 H :    0.018857
   9 C :   -0.039946
  10 H :    0.028638
  11 H :    0.023439
  12 C :   -0.061133
  13 H :    0.026807
  14 H :    0.028958
  15 H :    0.027929
  16 S :    0.415844
  17 C :   -0.192931
  18 C :   -0.072121
  19 C :   -0.067880
  20 C :   -0.195264
  21 H :    0.032613
  22 C :   -0.038769
  23 H :    0.029638
  24 H :    0.024516
  25 C :   -0.021617
  26 H :    0.019993
  27 H :    0.020527
  28 C :   -0.059137
  29 H :    0.027413
  30 H :    0.028494
  31 H :    0.016145
  32 H :    0.039141
  33 H :    0.042912

  Mayer bond orders larger than 0.100000
B(  0-S ,  1-C ) :   1.1158 B(  0-S ,  4-C ) :   1.1363 B(  1-C ,  2-C ) :   1.6373
B(  1-C , 32-H ) :   0.9626 B(  2-C ,  3-C ) :   1.2264 B(  2-C ,  6-C ) :   1.0165
B(  3-C ,  4-C ) :   1.5774 B(  3-C ,  5-H ) :   0.9958 B(  4-C , 20-C ) :   1.0619
B(  6-C ,  7-H ) :   0.9385 B(  6-C ,  8-H ) :   0.9324 B(  6-C ,  9-C ) :   1.0617
B(  9-C , 10-H ) :   0.9537 B(  9-C , 11-H ) :   0.9540 B(  9-C , 12-C ) :   1.0797
B( 12-C , 13-H ) :   0.9737 B( 12-C , 14-H ) :   0.9744 B( 12-C , 15-H ) :   0.9725
B( 16-S , 17-C ) :   1.1649 B( 16-S , 20-C ) :   1.1434 B( 17-C , 18-C ) :   1.5764
B( 17-C , 33-H ) :   0.9641 B( 18-C , 19-C ) :   1.2875 B( 18-C , 21-H ) :   0.9863
B( 19-C , 20-C ) :   1.5435 B( 19-C , 22-C ) :   1.0713 B( 22-C , 23-H ) :   0.9302
B( 22-C , 24-H ) :   0.9297 B( 22-C , 25-C ) :   1.0561 B( 25-C , 26-H ) :   0.9557
B( 25-C , 27-H ) :   0.9526 B( 25-C , 28-C ) :   1.0858 B( 28-C , 29-H ) :   0.9731
B( 28-C , 30-H ) :   0.9763 B( 28-C , 31-H ) :   0.9771

Dispersion correction           -0.014270610
FINAL SINGLE POINT ENERGY     -1339.867365732191

DIPOLE MOMENT
-------------
                                X             Y             Z
Electronic contribution:     -5.64719      -5.06541     -27.28702
Nuclear contribution   :      5.58541       5.53832      27.91268
                        -----------------------------------------
Total Dipole Moment    :     -0.06179       0.47292       0.62567
                        -----------------------------------------
Magnitude (a.u.)       :      0.78672
Magnitude (Debye)      :      1.99967

Rotational constants in cm-1:     0.020154     0.008248     0.006560
Rotational constants in MHz :   604.203881   247.258523   196.651135

                             ****ORCA TERMINATED NORMALLY****
TOTAL RUN TIME: 0 days 0 hours 0 minutes 35 seconds 323 msec
