                         Program Version 4.2.1 -  RELEASE  -
|  1> ! wB97X-D3 SP def2-SVP
|  2> %pal
|  3> nprocs 16
|  4> end
|  5>
|  6> * xyz 0 1
|  7> S 	 -35.8797 	 1.83281 	 98.9628
|  8> C 	 -34.9756 	 3.13838 	 98.1721
|  9> C 	 -35.4829 	 3.29029 	 96.8762
| 10> C 	 -36.5941 	 2.4056 	 96.5884
| 11> C 	 -36.9401 	 1.62371 	 97.6556
| 12> H 	 -37.2696 	 2.48754 	 95.7805
| 13> C 	 -34.8157 	 4.17516 	 95.9111
| 14> H 	 -33.9144 	 4.62664 	 96.3872
| 15> H 	 -35.42 	 5.0312 	 95.7144
| 16> C 	 -34.3377 	 3.59814 	 94.5431
| 17> H 	 -33.6294 	 2.82268 	 94.71
| 18> H 	 -35.1214 	 3.28538 	 93.8495
| 19> C 	 -33.6462 	 4.74722 	 93.7855
| 20> H 	 -34.2072 	 5.69654 	 93.7096
| 21> H 	 -32.7575 	 4.91898 	 94.3878
| 22> H 	 -33.2575 	 4.40434 	 92.8066
| 23> S 	 -39.6717 	 1.24281 	 97.6756
| 24> C 	 -40.2591 	 -0.340827 	 97.0608
| 25> C 	 -39.2389 	 -1.18775 	 96.7879
| 26> C 	 -37.9692 	 -0.668333 	 97.1805
| 27> C 	 -38.0235 	 0.628309 	 97.6067
| 28> H 	 -39.3764 	 -2.13409 	 96.358
| 29> C 	 -36.6857 	 -1.46616 	 96.9581
| 30> H 	 -36.0935 	 -1.44918 	 97.8384
| 31> H 	 -36.105 	 -0.913738 	 96.2501
| 32> C 	 -36.8952 	 -2.96859 	 96.697
| 33> H 	 -35.8897 	 -3.30797 	 96.3187
| 34> H 	 -37.3939 	 -3.15895 	 95.7553
| 35> C 	 -37.5287 	 -3.67323 	 97.8374
| 36> H 	 -38.346 	 -4.32793 	 97.5259
| 37> H 	 -37.8767 	 -3.06095 	 98.7626
| 38> H 	 -36.7103 	 -4.22325 	 98.2698
| 39> H 	 -34.0611 	 3.51154 	 98.6013
| 40> H 	 -41.2928 	 -0.599895 	 96.7516
| 41> *
| 42>
| 43>                          ****END OF INPUT****

CARTESIAN COORDINATES (ANGSTROEM)
---------------------------------
  S    -35.879700    1.832810   98.962800
  C    -34.975600    3.138380   98.172100
  C    -35.482900    3.290290   96.876200
  C    -36.594100    2.405600   96.588400
  C    -36.940100    1.623710   97.655600
  H    -37.269600    2.487540   95.780500
  C    -34.815700    4.175160   95.911100
  H    -33.914400    4.626640   96.387200
  H    -35.420000    5.031200   95.714400
  C    -34.337700    3.598140   94.543100
  H    -33.629400    2.822680   94.710000
  H    -35.121400    3.285380   93.849500
  C    -33.646200    4.747220   93.785500
  H    -34.207200    5.696540   93.709600
  H    -32.757500    4.918980   94.387800
  H    -33.257500    4.404340   92.806600
  S    -39.671700    1.242810   97.675600
  C    -40.259100   -0.340827   97.060800
  C    -39.238900   -1.187750   96.787900
  C    -37.969200   -0.668333   97.180500
  C    -38.023500    0.628309   97.606700
  H    -39.376400   -2.134090   96.358000
  C    -36.685700   -1.466160   96.958100
  H    -36.093500   -1.449180   97.838400
  H    -36.105000   -0.913738   96.250100
  C    -36.895200   -2.968590   96.697000
  H    -35.889700   -3.307970   96.318700
  H    -37.393900   -3.158950   95.755300
  C    -37.528700   -3.673230   97.837400
  H    -38.346000   -4.327930   97.525900
  H    -37.876700   -3.060950   98.762600
  H    -36.710300   -4.223250   98.269800
  H    -34.061100    3.511540   98.601300
  H    -41.292800   -0.599895   96.751600

 Total Charge           Charge          ....    0
 Multiplicity           Mult            ....    1
 Number of Electrons    NEL             ....  134
 Basis Dimension        Dim             ....  322

ORBITAL ENERGIES
----------------

  NO   OCC          E(Eh)            E(eV)
   0   2.0000     -88.963917     -2420.8312
   1   2.0000     -88.961725     -2420.7716
   2   2.0000     -10.324138      -280.9341
   3   2.0000     -10.320481      -280.8346
   4   2.0000     -10.318514      -280.7811
   5   2.0000     -10.315171      -280.6901
   6   2.0000     -10.302844      -280.3546
   7   2.0000     -10.297552      -280.2106
   8   2.0000     -10.289006      -279.9781
   9   2.0000     -10.288743      -279.9709
  10   2.0000     -10.287688      -279.9422
  11   2.0000     -10.286524      -279.9106
  12   2.0000     -10.285936      -279.8946
  13   2.0000     -10.284058      -279.8434
  14   2.0000     -10.281713      -279.7796
  15   2.0000     -10.280040      -279.7341
  16   2.0000      -8.077759      -219.8070
  17   2.0000      -8.077143      -219.7902
  18   2.0000      -6.036449      -164.2601
  19   2.0000      -6.035519      -164.2348
  20   2.0000      -6.032495      -164.1525
  21   2.0000      -6.031367      -164.1218
  22   2.0000      -6.028277      -164.0378
  23   2.0000      -6.028191      -164.0354
  24   2.0000      -1.006753       -27.3951
  25   2.0000      -0.982727       -26.7414
  26   2.0000      -0.914509       -24.8850
  27   2.0000      -0.912547       -24.8317
  28   2.0000      -0.870608       -23.6904
  29   2.0000      -0.848537       -23.0899
  30   2.0000      -0.845255       -23.0006
  31   2.0000      -0.818871       -22.2826
  32   2.0000      -0.782100       -21.2820
  33   2.0000      -0.767681       -20.8897
  34   2.0000      -0.707064       -19.2402
  35   2.0000      -0.700263       -19.0551
  36   2.0000      -0.691050       -18.8044
  37   2.0000      -0.660542       -17.9743
  38   2.0000      -0.646474       -17.5915
  39   2.0000      -0.616419       -16.7736
  40   2.0000      -0.598112       -16.2755
  41   2.0000      -0.575506       -15.6603
  42   2.0000      -0.567114       -15.4319
  43   2.0000      -0.559818       -15.2334
  44   2.0000      -0.532064       -14.4782
  45   2.0000      -0.527317       -14.3490
  46   2.0000      -0.518255       -14.1024
  47   2.0000      -0.510188       -13.8829
  48   2.0000      -0.509562       -13.8659
  49   2.0000      -0.497356       -13.5337
  50   2.0000      -0.488864       -13.3027
  51   2.0000      -0.475430       -12.9371
  52   2.0000      -0.472035       -12.8447
  53   2.0000      -0.465147       -12.6573
  54   2.0000      -0.454446       -12.3661
  55   2.0000      -0.450808       -12.2671
  56   2.0000      -0.446687       -12.1550
  57   2.0000      -0.441720       -12.0198
  58   2.0000      -0.432603       -11.7717
  59   2.0000      -0.424022       -11.5382
  60   2.0000      -0.420000       -11.4288
  61   2.0000      -0.413654       -11.2561
  62   2.0000      -0.397438       -10.8148
  63   2.0000      -0.335247        -9.1225
  64   2.0000      -0.328400        -8.9362
  65   2.0000      -0.321600        -8.7512
  66   2.0000      -0.308259        -8.3882
  67   0.0000       0.045553         1.2396
  68   0.0000       0.059692         1.6243
  69   0.0000       0.113409         3.0860
  70   0.0000       0.121960         3.3187
  71   0.0000       0.134210         3.6520

MULLIKEN ATOMIC CHARGES
-----------------------
   0 S :    0.099865
   1 C :   -0.130782
   2 C :   -0.062647
   3 C :    0.063969
   4 C :   -0.174378
   5 H :    0.004787
   6 C :    0.043412
   7 H :    0.009529
   8 H :    0.024331
   9 C :   -0.055946
  10 H :    0.029759
  11 H :    0.036304
  12 C :   -0.070713
  13 H :    0.042201
  14 H :    0.018179
  15 H :    0.036230
  16 S :    0.099419
  17 C :   -0.084721
  18 C :   -0.013332
  19 C :   -0.046322
  20 C :   -0.177083
  21 H :   -0.002925
  22 C :    0.121140
  23 H :    0.013490
  24 H :    0.027280
  25 C :   -0.085829
  26 H :    0.028313
  27 H :    0.016482
  28 C :   -0.071253
  29 H :    0.044817
  30 H :    0.066184
  31 H :    0.035066
  32 H :    0.053825
  33 H :    0.061349
Sum of atomic charges:    0.0000000

LOEWDIN ATOMIC CHARGES
----------------------
   0 S :    0.416290
   1 C :   -0.194802
   2 C :   -0.058171
   3 C :   -0.061705
   4 C :   -0.209307
   5 H :    0.026623
   6 C :   -0.037226
   7 H :    0.032972
   8 H :    0.028507
   9 C :   -0.032270
  10 H :    0.021562
  11 H :    0.023520
  12 C :   -0.068091
  13 H :    0.027354
  14 H :    0.020972
  15 H :    0.027201
  16 S :    0.380512
  17 C :   -0.172314
  18 C :   -0.064305
  19 C :   -0.049334
  20 C :   -0.201799
  21 H :    0.024540
  22 C :   -0.025147
  23 H :    0.027013
  24 H :    0.031283
  25 C :   -0.054811
  26 H :    0.032599
  27 H :    0.017067
  28 C :   -0.079578
  29 H :    0.029664
  30 H :    0.046083
  31 H :    0.031623
  32 H :    0.026304
  33 H :    0.037170

  Mayer bond orders larger than 0.100000
B(  0-S ,  1-C ) :   1.1334 B(  0-S ,  4-C ) :   1.1749 B(  1-C ,  2-C ) :   1.5905
B(  1-C , 32-H ) :   0.9740 B(  2-C ,  3-C ) :   1.2283 B(  2-C ,  6-C ) :   1.0458
B(  3-C ,  4-C ) :   1.5840 B(  3-C ,  5-H ) :   0.9984 B(  4-C , 20-C ) :   0.9828
B(  6-C ,  7-H ) :   0.9430 B(  6-C ,  8-H ) :   0.9271 B(  6-C ,  9-C ) :   1.0627
B(  9-C , 10-H ) :   0.9586 B(  9-C , 11-H ) :   0.9535 B(  9-C , 12-C ) :   1.0777
B( 12-C , 13-H ) :   0.9754 B( 12-C , 14-H ) :   0.9766 B( 12-C , 15-H ) :   0.9728
B( 16-S , 17-C ) :   1.1320 B( 16-S , 20-C ) :   1.1282 B( 17-C , 18-C ) :   1.6424
B( 17-C , 33-H ) :   0.9554 B( 18-C , 19-C ) :   1.2360 B( 18-C , 21-H ) :   0.9903
B( 19-C , 20-C ) :   1.6484 B( 19-C , 22-C ) :   1.0192 B( 22-C , 23-H ) :   0.9317
B( 22-C , 24-H ) :   0.9191 B( 22-C , 25-C ) :   1.0839 B( 25-C , 26-H ) :   0.9551
B( 25-C , 27-H ) :   0.9529 B( 25-C , 28-C ) :   1.0346 B( 28-C , 29-H ) :   0.9759
B( 28-C , 30-H ) :   0.9788 B( 28-C , 31-H ) :   0.9722

Dispersion correction           -0.014204546
FINAL SINGLE POINT ENERGY     -1339.864096146381

DIPOLE MOMENT
-------------
                                X             Y             Z
Electronic contribution:    -14.32880       5.32434      15.76436
Nuclear contribution   :     14.70747      -5.60734     -16.37892
                        -----------------------------------------
Total Dipole Moment    :      0.37867      -0.28300      -0.61456
                        -----------------------------------------
Magnitude (a.u.)       :      0.77535
Magnitude (Debye)      :      1.97077

Rotational constants in cm-1:     0.020434     0.007271     0.006841
Rotational constants in MHz :   612.598725   217.987744   205.099331

                             ****ORCA TERMINATED NORMALLY****
TOTAL RUN TIME: 0 days 0 hours 0 minutes 29 seconds 828 msec
