                         Program Version 4.2.1 -  RELEASE  -
|  1> ! wB97X-D3 SP def2-SVP
|  2> %pal
|  3> nprocs 16
|  4> end
|  5>
|  6> * xyz 0 1
|  7> S 	 -113.215 	 51.8379 	 129.944
|  8> C 	 -113.26 	 53.097 	 131.11
|  9> C 	 -112.743 	 52.713 	 132.338
| 10> C 	 -112.468 	 51.3228 	 132.378
| 11> C 	 -112.684 	 50.6804 	 131.166
| 12> H 	 -112.023 	 50.7379 	 133.157
| 13> C 	 -112.456 	 53.6171 	 133.548
| 14> H 	 -112.333 	 54.6547 	 133.173
| 15> H 	 -111.409 	 53.4498 	 133.954
| 16> C 	 -113.416 	 53.5739 	 134.734
| 17> H 	 -114.264 	 54.3171 	 134.556
| 18> H 	 -113.94 	 52.6501 	 134.665
| 19> C 	 -112.729 	 53.762 	 136.017
| 20> H 	 -112.153 	 52.8008 	 136.312
| 21> H 	 -112.07 	 54.5834 	 135.983
| 22> H 	 -113.415 	 54.0377 	 136.917
| 23> S 	 -110.855 	 48.7554 	 130.643
| 24> C 	 -111.344 	 47.1105 	 130.998
| 25> C 	 -112.657 	 46.9866 	 131.362
| 26> C 	 -113.348 	 48.2372 	 131.457
| 27> C 	 -112.502 	 49.2502 	 131.029
| 28> H 	 -113.022 	 45.9766 	 131.595
| 29> C 	 -114.725 	 48.4097 	 131.956
| 30> H 	 -115.376 	 47.5324 	 131.675
| 31> H 	 -115.146 	 49.1856 	 131.367
| 32> C 	 -114.886 	 48.6068 	 133.523
| 33> H 	 -114.268 	 49.4464 	 133.767
| 34> H 	 -114.37 	 47.7367 	 134.098
| 35> C 	 -116.357 	 48.6735 	 134.053
| 36> H 	 -116.943 	 47.8333 	 133.704
| 37> H 	 -116.831 	 49.4752 	 133.551
| 38> H 	 -116.35 	 48.7295 	 135.125
| 39> H 	 -113.645 	 54.0641 	 130.87
| 40> H 	 -110.821 	 46.1935 	 130.951
| 41> *
| 42>
| 43>                          ****END OF INPUT****

CARTESIAN COORDINATES (ANGSTROEM)
---------------------------------
  S    -113.215000   51.837900  129.944000
  C    -113.260000   53.097000  131.110000
  C    -112.743000   52.713000  132.338000
  C    -112.468000   51.322800  132.378000
  C    -112.684000   50.680400  131.166000
  H    -112.023000   50.737900  133.157000
  C    -112.456000   53.617100  133.548000
  H    -112.333000   54.654700  133.173000
  H    -111.409000   53.449800  133.954000
  C    -113.416000   53.573900  134.734000
  H    -114.264000   54.317100  134.556000
  H    -113.940000   52.650100  134.665000
  C    -112.729000   53.762000  136.017000
  H    -112.153000   52.800800  136.312000
  H    -112.070000   54.583400  135.983000
  H    -113.415000   54.037700  136.917000
  S    -110.855000   48.755400  130.643000
  C    -111.344000   47.110500  130.998000
  C    -112.657000   46.986600  131.362000
  C    -113.348000   48.237200  131.457000
  C    -112.502000   49.250200  131.029000
  H    -113.022000   45.976600  131.595000
  C    -114.725000   48.409700  131.956000
  H    -115.376000   47.532400  131.675000
  H    -115.146000   49.185600  131.367000
  C    -114.886000   48.606800  133.523000
  H    -114.268000   49.446400  133.767000
  H    -114.370000   47.736700  134.098000
  C    -116.357000   48.673500  134.053000
  H    -116.943000   47.833300  133.704000
  H    -116.831000   49.475200  133.551000
  H    -116.350000   48.729500  135.125000
  H    -113.645000   54.064100  130.870000
  H    -110.821000   46.193500  130.951000

 Total Charge           Charge          ....    0
 Multiplicity           Mult            ....    1
 Number of Electrons    NEL             ....  134
 Basis Dimension        Dim             ....  322

ORBITAL ENERGIES
----------------

  NO   OCC          E(Eh)            E(eV)
   0   2.0000     -88.968335     -2420.9515
   1   2.0000     -88.967980     -2420.9418
   2   2.0000     -10.323790      -280.9246
   3   2.0000     -10.322127      -280.8794
   4   2.0000     -10.313233      -280.6373
   5   2.0000     -10.310041      -280.5505
   6   2.0000     -10.302270      -280.3390
   7   2.0000     -10.302244      -280.3383
   8   2.0000     -10.296792      -280.1899
   9   2.0000     -10.295207      -280.1468
  10   2.0000     -10.291596      -280.0486
  11   2.0000     -10.290524      -280.0194
  12   2.0000     -10.290516      -280.0192
  13   2.0000     -10.286362      -279.9061
  14   2.0000     -10.283599      -279.8310
  15   2.0000     -10.276294      -279.6322
  16   2.0000      -8.083187      -219.9547
  17   2.0000      -8.082340      -219.9316
  18   2.0000      -6.041567      -164.3994
  19   2.0000      -6.040865      -164.3803
  20   2.0000      -6.037598      -164.2914
  21   2.0000      -6.037053      -164.2766
  22   2.0000      -6.034180      -164.1984
  23   2.0000      -6.032955      -164.1650
  24   2.0000      -1.007248       -27.4086
  25   2.0000      -0.984550       -26.7910
  26   2.0000      -0.913760       -24.8647
  27   2.0000      -0.902209       -24.5503
  28   2.0000      -0.872363       -23.7382
  29   2.0000      -0.852653       -23.2019
  30   2.0000      -0.850956       -23.1557
  31   2.0000      -0.813699       -22.1419
  32   2.0000      -0.781077       -21.2542
  33   2.0000      -0.767529       -20.8855
  34   2.0000      -0.707031       -19.2393
  35   2.0000      -0.698435       -19.0054
  36   2.0000      -0.694902       -18.9093
  37   2.0000      -0.656476       -17.8636
  38   2.0000      -0.650224       -17.6935
  39   2.0000      -0.617099       -16.7921
  40   2.0000      -0.593032       -16.1372
  41   2.0000      -0.567757       -15.4495
  42   2.0000      -0.556699       -15.1486
  43   2.0000      -0.551001       -14.9935
  44   2.0000      -0.533668       -14.5218
  45   2.0000      -0.524680       -14.2773
  46   2.0000      -0.515621       -14.0308
  47   2.0000      -0.511030       -13.9058
  48   2.0000      -0.503498       -13.7009
  49   2.0000      -0.502072       -13.6621
  50   2.0000      -0.489481       -13.3195
  51   2.0000      -0.477007       -12.9800
  52   2.0000      -0.471126       -12.8200
  53   2.0000      -0.456561       -12.4237
  54   2.0000      -0.455529       -12.3956
  55   2.0000      -0.452574       -12.3152
  56   2.0000      -0.450399       -12.2560
  57   2.0000      -0.439700       -11.9648
  58   2.0000      -0.434868       -11.8334
  59   2.0000      -0.431514       -11.7421
  60   2.0000      -0.424550       -11.5526
  61   2.0000      -0.408536       -11.1168
  62   2.0000      -0.405496       -11.0341
  63   2.0000      -0.340171        -9.2565
  64   2.0000      -0.330371        -8.9898
  65   2.0000      -0.315228        -8.5778
  66   2.0000      -0.310338        -8.4447
  67   0.0000       0.048435         1.3180
  68   0.0000       0.050297         1.3686
  69   0.0000       0.111289         3.0283
  70   0.0000       0.117065         3.1855
  71   0.0000       0.126813         3.4508

MULLIKEN ATOMIC CHARGES
-----------------------
   0 S :    0.124969
   1 C :   -0.120410
   2 C :   -0.058163
   3 C :    0.050358
   4 C :   -0.191758
   5 H :    0.016300
   6 C :    0.013790
   7 H :    0.022121
   8 H :    0.037577
   9 C :   -0.027362
  10 H :    0.032652
  11 H :    0.021375
  12 C :   -0.089846
  13 H :    0.050396
  14 H :    0.027315
  15 H :    0.043212
  16 S :    0.123765
  17 C :   -0.059810
  18 C :   -0.059844
  19 C :   -0.001203
  20 C :   -0.207224
  21 H :    0.021185
  22 C :    0.081568
  23 H :    0.020403
  24 H :    0.021046
  25 C :   -0.107446
  26 H :    0.022896
  27 H :    0.032473
  28 C :    0.001094
  29 H :    0.022986
  30 H :    0.021681
  31 H :    0.043683
  32 H :    0.039212
  33 H :    0.031007
Sum of atomic charges:   -0.0000000

LOEWDIN ATOMIC CHARGES
----------------------
   0 S :    0.416617
   1 C :   -0.198906
   2 C :   -0.067295
   3 C :   -0.052202
   4 C :   -0.207116
   5 H :    0.030563
   6 C :   -0.038179
   7 H :    0.030277
   8 H :    0.037068
   9 C :   -0.054017
  10 H :    0.031787
  11 H :    0.019559
  12 C :   -0.074232
  13 H :    0.037220
  14 H :    0.016200
  15 H :    0.036777
  16 S :    0.403652
  17 C :   -0.183184
  18 C :   -0.070133
  19 C :   -0.048802
  20 C :   -0.197668
  21 H :    0.034564
  22 C :   -0.036194
  23 H :    0.035065
  24 H :    0.027681
  25 C :   -0.036982
  26 H :    0.015598
  27 H :    0.029595
  28 C :   -0.058492
  29 H :    0.025337
  30 H :    0.021594
  31 H :    0.028080
  32 H :    0.022841
  33 H :    0.023325

  Mayer bond orders larger than 0.100000
B(  0-S ,  1-C ) :   1.1620 B(  0-S ,  4-C ) :   1.1445 B(  1-C ,  2-C ) :   1.5911
B(  1-C , 32-H ) :   0.9721 B(  2-C ,  3-C ) :   1.2425 B(  2-C ,  6-C ) :   1.0244
B(  3-C ,  4-C ) :   1.5800 B(  3-C ,  5-H ) :   0.9913 B(  4-C , 20-C ) :   1.0180
B(  6-C ,  7-H ) :   0.9349 B(  6-C ,  8-H ) :   0.9539 B(  6-C ,  9-C ) :   1.0360
B(  9-C , 10-H ) :   0.9469 B(  9-C , 11-H ) :   0.9638 B(  9-C , 12-C ) :   1.0824
B( 12-C , 13-H ) :   0.9715 B( 12-C , 14-H ) :   0.9749 B( 12-C , 15-H ) :   0.9694
B( 16-S , 17-C ) :   1.1318 B( 16-S , 20-C ) :   1.1425 B( 17-C , 18-C ) :   1.6698
B( 17-C , 33-H ) :   0.9624 B( 18-C , 19-C ) :   1.2067 B( 18-C , 21-H ) :   0.9835
B( 19-C , 20-C ) :   1.6187 B( 19-C , 22-C ) :   1.0611 B( 22-C , 23-H ) :   0.9322
B( 22-C , 24-H ) :   0.9207 B( 22-C , 25-C ) :   1.0432 B( 25-C , 26-H ) :   0.9544
B( 25-C , 27-H ) :   0.9595 B( 25-C , 28-C ) :   1.0728 B( 28-C , 29-H ) :   0.9731
B( 28-C , 30-H ) :   0.9744 B( 28-C , 31-H ) :   0.9752

Dispersion correction           -0.014727993
FINAL SINGLE POINT ENERGY     -1339.870885975206

DIPOLE MOMENT
-------------
                                X             Y             Z
Electronic contribution:     13.58865      -5.48928     -26.31308
Nuclear contribution   :    -13.84446       5.49647      26.87018
                        -----------------------------------------
Total Dipole Moment    :     -0.25582       0.00719       0.55710
                        -----------------------------------------
Magnitude (a.u.)       :      0.61307
Magnitude (Debye)      :      1.55831

Rotational constants in cm-1:     0.016168     0.009284     0.007512
Rotational constants in MHz :   484.692021   278.341602   225.194775

                             ****ORCA TERMINATED NORMALLY****
TOTAL RUN TIME: 0 days 0 hours 0 minutes 35 seconds 65 msec
