                         Program Version 4.2.1 -  RELEASE  -
|  1> ! wB97X-D3 SP def2-SVP
|  2> %pal
|  3> nprocs 16
|  4> end
|  5>
|  6> * xyz 0 1
|  7> S 	 -37.0763 	 -1.70455 	 102.276
|  8> C 	 -37.2863 	 -2.96955 	 101.245
|  9> C 	 -36.6009 	 -2.86628 	 100.04
| 10> C 	 -35.7683 	 -1.70005 	 100.056
| 11> C 	 -35.8848 	 -0.948305 	 101.193
| 12> H 	 -35.0266 	 -1.3631 	 99.2916
| 13> C 	 -36.8448 	 -3.87478 	 98.9063
| 14> H 	 -37.4904 	 -4.69146 	 99.2778
| 15> H 	 -35.9377 	 -4.33316 	 98.5128
| 16> C 	 -37.5657 	 -3.30362 	 97.7279
| 17> H 	 -37.1023 	 -2.43474 	 97.3793
| 18> H 	 -37.4899 	 -3.99947 	 96.8546
| 19> C 	 -39.0194 	 -3.00549 	 98.1479
| 20> H 	 -39.1931 	 -2.27781 	 99.0664
| 21> H 	 -39.3775 	 -2.41025 	 97.2511
| 22> H 	 -39.7743 	 -3.7864 	 98.2556
| 23> S 	 -34.1551 	 0.0915631 	 102.985
| 24> C 	 -33.4425 	 1.65036 	 102.739
| 25> C 	 -33.8686 	 2.20532 	 101.489
| 26> C 	 -34.7921 	 1.38653 	 100.784
| 27> C 	 -35.1456 	 0.271211 	 101.548
| 28> H 	 -33.4815 	 3.18241 	 101.095
| 29> C 	 -35.2698 	 1.7426 	 99.4024
| 30> H 	 -35.6697 	 2.7901 	 99.4992
| 31> H 	 -36.1421 	 1.16531 	 99.1887
| 32> C 	 -34.1995 	 1.53777 	 98.2281
| 33> H 	 -33.6082 	 0.756994 	 98.5407
| 34> H 	 -33.5034 	 2.37644 	 98.3348
| 35> C 	 -34.8504 	 1.39464 	 96.8467
| 36> H 	 -35.4825 	 2.26164 	 96.6601
| 37> H 	 -35.2772 	 0.455049 	 96.6585
| 38> H 	 -34.168 	 1.38461 	 96.021
| 39> H 	 -38.04 	 -3.69177 	 101.447
| 40> H 	 -32.7877 	 2.0674 	 103.518
| 41> *
| 42>
| 43>                          ****END OF INPUT****

CARTESIAN COORDINATES (ANGSTROEM)
---------------------------------
  S    -37.076300   -1.704550  102.276000
  C    -37.286300   -2.969550  101.245000
  C    -36.600900   -2.866280  100.040000
  C    -35.768300   -1.700050  100.056000
  C    -35.884800   -0.948305  101.193000
  H    -35.026600   -1.363100   99.291600
  C    -36.844800   -3.874780   98.906300
  H    -37.490400   -4.691460   99.277800
  H    -35.937700   -4.333160   98.512800
  C    -37.565700   -3.303620   97.727900
  H    -37.102300   -2.434740   97.379300
  H    -37.489900   -3.999470   96.854600
  C    -39.019400   -3.005490   98.147900
  H    -39.193100   -2.277810   99.066400
  H    -39.377500   -2.410250   97.251100
  H    -39.774300   -3.786400   98.255600
  S    -34.155100    0.091563  102.985000
  C    -33.442500    1.650360  102.739000
  C    -33.868600    2.205320  101.489000
  C    -34.792100    1.386530  100.784000
  C    -35.145600    0.271211  101.548000
  H    -33.481500    3.182410  101.095000
  C    -35.269800    1.742600   99.402400
  H    -35.669700    2.790100   99.499200
  H    -36.142100    1.165310   99.188700
  C    -34.199500    1.537770   98.228100
  H    -33.608200    0.756994   98.540700
  H    -33.503400    2.376440   98.334800
  C    -34.850400    1.394640   96.846700
  H    -35.482500    2.261640   96.660100
  H    -35.277200    0.455049   96.658500
  H    -34.168000    1.384610   96.021000
  H    -38.040000   -3.691770  101.447000
  H    -32.787700    2.067400  103.518000

 Total Charge           Charge          ....    0
 Multiplicity           Mult            ....    1
 Number of Electrons    NEL             ....  134
 Basis Dimension        Dim             ....  322

ORBITAL ENERGIES
----------------

  NO   OCC          E(Eh)            E(eV)
   0   2.0000     -88.965599     -2420.8770
   1   2.0000     -88.963224     -2420.8124
   2   2.0000     -10.325511      -280.9714
   3   2.0000     -10.325116      -280.9607
   4   2.0000     -10.323202      -280.9086
   5   2.0000     -10.304484      -280.3993
   6   2.0000     -10.304191      -280.3913
   7   2.0000     -10.302171      -280.3363
   8   2.0000     -10.301037      -280.3055
   9   2.0000     -10.297536      -280.2102
  10   2.0000     -10.293987      -280.1136
  11   2.0000     -10.289771      -279.9989
  12   2.0000     -10.289450      -279.9902
  13   2.0000     -10.286525      -279.9106
  14   2.0000     -10.285183      -279.8741
  15   2.0000     -10.278343      -279.6879
  16   2.0000      -8.080612      -219.8846
  17   2.0000      -8.079866      -219.8643
  18   2.0000      -6.038915      -164.3272
  19   2.0000      -6.038045      -164.3035
  20   2.0000      -6.035032      -164.2216
  21   2.0000      -6.034040      -164.1946
  22   2.0000      -6.031621      -164.1288
  23   2.0000      -6.030924      -164.1098
  24   2.0000      -1.009598       -27.4726
  25   2.0000      -0.986382       -26.8408
  26   2.0000      -0.914716       -24.8907
  27   2.0000      -0.905918       -24.6513
  28   2.0000      -0.868054       -23.6209
  29   2.0000      -0.856005       -23.2931
  30   2.0000      -0.845418       -23.0050
  31   2.0000      -0.806381       -21.9427
  32   2.0000      -0.783254       -21.3134
  33   2.0000      -0.768681       -20.9169
  34   2.0000      -0.717082       -19.5128
  35   2.0000      -0.700304       -19.0562
  36   2.0000      -0.685654       -18.6576
  37   2.0000      -0.660153       -17.9637
  38   2.0000      -0.646696       -17.5975
  39   2.0000      -0.617753       -16.8099
  40   2.0000      -0.596936       -16.2434
  41   2.0000      -0.566533       -15.4161
  42   2.0000      -0.563875       -15.3438
  43   2.0000      -0.547312       -14.8931
  44   2.0000      -0.535063       -14.5598
  45   2.0000      -0.525736       -14.3060
  46   2.0000      -0.516509       -14.0549
  47   2.0000      -0.512976       -13.9588
  48   2.0000      -0.506274       -13.7764
  49   2.0000      -0.491503       -13.3745
  50   2.0000      -0.482934       -13.1413
  51   2.0000      -0.481454       -13.1010
  52   2.0000      -0.477441       -12.9918
  53   2.0000      -0.463132       -12.6025
  54   2.0000      -0.459100       -12.4928
  55   2.0000      -0.450868       -12.2687
  56   2.0000      -0.441031       -12.0011
  57   2.0000      -0.436858       -11.8875
  58   2.0000      -0.434942       -11.8354
  59   2.0000      -0.432598       -11.7716
  60   2.0000      -0.417409       -11.3583
  61   2.0000      -0.415733       -11.3127
  62   2.0000      -0.410888       -11.1808
  63   2.0000      -0.349194        -9.5020
  64   2.0000      -0.330459        -8.9923
  65   2.0000      -0.325556        -8.8588
  66   2.0000      -0.290692        -7.9101
  67   0.0000       0.033199         0.9034
  68   0.0000       0.070598         1.9211
  69   0.0000       0.112669         3.0659
  70   0.0000       0.119907         3.2628
  71   0.0000       0.126511         3.4425

MULLIKEN ATOMIC CHARGES
-----------------------
   0 S :    0.124020
   1 C :   -0.103875
   2 C :   -0.094681
   3 C :    0.023607
   4 C :   -0.183861
   5 H :    0.023222
   6 C :    0.087211
   7 H :    0.017738
   8 H :    0.023972
   9 C :   -0.037650
  10 H :    0.013735
  11 H :    0.034019
  12 C :   -0.131529
  13 H :    0.065155
  14 H :    0.031107
  15 H :    0.038551
  16 S :    0.113311
  17 C :   -0.114706
  18 C :   -0.047327
  19 C :   -0.055062
  20 C :   -0.148214
  21 H :    0.034710
  22 C :    0.047406
  23 H :    0.039562
  24 H :    0.015233
  25 C :   -0.037965
  26 H :    0.013190
  27 H :    0.024452
  28 C :   -0.008678
  29 H :    0.040230
  30 H :    0.022017
  31 H :    0.016363
  32 H :    0.040530
  33 H :    0.074207
Sum of atomic charges:   -0.0000000

LOEWDIN ATOMIC CHARGES
----------------------
   0 S :    0.436823
   1 C :   -0.218680
   2 C :   -0.067150
   3 C :   -0.064103
   4 C :   -0.199371
   5 H :    0.039658
   6 C :   -0.032068
   7 H :    0.031621
   8 H :    0.026576
   9 C :   -0.040235
  10 H :    0.014761
  11 H :    0.031881
  12 C :   -0.087903
  13 H :    0.042104
  14 H :    0.030624
  15 H :    0.021824
  16 S :    0.423497
  17 C :   -0.198025
  18 C :   -0.075952
  19 C :   -0.059908
  20 C :   -0.203584
  21 H :    0.037223
  22 C :   -0.032339
  23 H :    0.037975
  24 H :    0.023565
  25 C :   -0.028752
  26 H :    0.011622
  27 H :    0.026526
  28 C :   -0.061943
  29 H :    0.032244
  30 H :    0.021664
  31 H :    0.026884
  32 H :    0.020908
  33 H :    0.032032

  Mayer bond orders larger than 0.100000
B(  0-S ,  1-C ) :   1.1834 B(  0-S ,  4-C ) :   1.1528 B(  1-C ,  2-C ) :   1.5813
B(  1-C , 32-H ) :   0.9670 B(  2-C ,  3-C ) :   1.2466 B(  2-C ,  6-C ) :   1.0282
B(  3-C ,  4-C ) :   1.5851 B(  3-C ,  5-H ) :   0.9881 B(  4-C , 20-C ) :   1.0039
B(  6-C ,  7-H ) :   0.9429 B(  6-C ,  8-H ) :   0.9374 B(  6-C ,  9-C ) :   1.0794
B(  9-C , 10-H ) :   0.9570 B(  9-C , 11-H ) :   0.9513 B(  9-C , 12-C ) :   1.0600
B( 12-C , 13-H ) :   0.9730 B( 12-C , 14-H ) :   0.9744 B( 12-C , 15-H ) :   0.9773
B( 16-S , 17-C ) :   1.1811 B( 16-S , 20-C ) :   1.1696 B( 17-C , 18-C ) :   1.5449
B( 17-C , 20-C ) :   0.1116 B( 17-C , 33-H ) :   0.9701 B( 18-C , 19-C ) :   1.2687
B( 18-C , 21-H ) :   0.9849 B( 19-C , 20-C ) :   1.5668 B( 19-C , 22-C ) :   1.0556
B( 22-C , 23-H ) :   0.9326 B( 22-C , 24-H ) :   0.9382 B( 22-C , 25-C ) :   1.0309
B( 25-C , 26-H ) :   0.9604 B( 25-C , 27-H ) :   0.9525 B( 25-C , 28-C ) :   1.0842
B( 28-C , 29-H ) :   0.9742 B( 28-C , 30-H ) :   0.9728 B( 28-C , 31-H ) :   0.9685

Dispersion correction           -0.014974449
FINAL SINGLE POINT ENERGY     -1339.867614875267

DIPOLE MOMENT
-------------
                                X             Y             Z
Electronic contribution:      5.91957       0.61446      29.59082
Nuclear contribution   :     -5.82321      -0.55564     -30.30699
                        -----------------------------------------
Total Dipole Moment    :      0.09636       0.05882      -0.71617
                        -----------------------------------------
Magnitude (a.u.)       :      0.72502
Magnitude (Debye)      :      1.84285

Rotational constants in cm-1:     0.017802     0.009892     0.006888
Rotational constants in MHz :   533.686330   296.546202   206.495738

                             ****ORCA TERMINATED NORMALLY****
TOTAL RUN TIME: 0 days 0 hours 0 minutes 31 seconds 425 msec
