                         Program Version 4.2.1 -  RELEASE  -
|  1> ! wB97X-D3 SP def2-SVP
|  2> %pal
|  3> nprocs 16
|  4> end
|  5>
|  6> * xyz 0 1
|  7> S 	 -22.9535 	 34.5695 	 38.0814
|  8> C 	 -21.4048 	 33.8503 	 38.2476
|  9> C 	 -21.2408 	 33.2819 	 39.5259
| 10> C 	 -22.306 	 33.5624 	 40.3969
| 11> C 	 -23.2307 	 34.3421 	 39.7641
| 12> H 	 -22.3909 	 33.3095 	 41.4203
| 13> C 	 -20.0622 	 32.3698 	 39.8549
| 14> H 	 -19.089 	 32.9046 	 39.9206
| 15> H 	 -19.7731 	 31.7274 	 39.048
| 16> C 	 -20.1945 	 31.5076 	 41.074
| 17> H 	 -20.2499 	 32.0626 	 41.9363
| 18> H 	 -21.192 	 30.9657 	 41.0695
| 19> C 	 -19.014 	 30.5324 	 41.3189
| 20> H 	 -19.0367 	 29.9516 	 42.3135
| 21> H 	 -18.9846 	 29.8624 	 40.4587
| 22> H 	 -18.0739 	 30.9879 	 41.2925
| 23> S 	 -26.002 	 33.9607 	 39.787
| 24> C 	 -26.9694 	 34.8944 	 40.905
| 25> C 	 -26.161 	 35.727 	 41.701
| 26> C 	 -24.765 	 35.7227 	 41.3768
| 27> C 	 -24.4916 	 34.8341 	 40.3231
| 28> H 	 -26.5916 	 36.2414 	 42.5687
| 29> C 	 -23.7088 	 36.5848 	 42.133
| 30> H 	 -24.169 	 37.5911 	 42.208
| 31> H 	 -22.7979 	 36.6186 	 41.5589
| 32> C 	 -23.5079 	 35.9987 	 43.5627
| 33> H 	 -23.3373 	 34.9189 	 43.496
| 34> H 	 -24.311 	 36.1981 	 44.2685
| 35> C 	 -22.2962 	 36.6551 	 44.2135
| 36> H 	 -22.1534 	 37.6233 	 43.8201
| 37> H 	 -21.4396 	 36.1523 	 43.9552
| 38> H 	 -22.4075 	 36.787 	 45.3216
| 39> H 	 -20.7247 	 33.4745 	 37.5008
| 40> H 	 -28.035 	 34.7714 	 41.0806
| 41> *
| 42>
| 43>                          ****END OF INPUT****

CARTESIAN COORDINATES (ANGSTROEM)
---------------------------------
  S    -22.953500   34.569500   38.081400
  C    -21.404800   33.850300   38.247600
  C    -21.240800   33.281900   39.525900
  C    -22.306000   33.562400   40.396900
  C    -23.230700   34.342100   39.764100
  H    -22.390900   33.309500   41.420300
  C    -20.062200   32.369800   39.854900
  H    -19.089000   32.904600   39.920600
  H    -19.773100   31.727400   39.048000
  C    -20.194500   31.507600   41.074000
  H    -20.249900   32.062600   41.936300
  H    -21.192000   30.965700   41.069500
  C    -19.014000   30.532400   41.318900
  H    -19.036700   29.951600   42.313500
  H    -18.984600   29.862400   40.458700
  H    -18.073900   30.987900   41.292500
  S    -26.002000   33.960700   39.787000
  C    -26.969400   34.894400   40.905000
  C    -26.161000   35.727000   41.701000
  C    -24.765000   35.722700   41.376800
  C    -24.491600   34.834100   40.323100
  H    -26.591600   36.241400   42.568700
  C    -23.708800   36.584800   42.133000
  H    -24.169000   37.591100   42.208000
  H    -22.797900   36.618600   41.558900
  C    -23.507900   35.998700   43.562700
  H    -23.337300   34.918900   43.496000
  H    -24.311000   36.198100   44.268500
  C    -22.296200   36.655100   44.213500
  H    -22.153400   37.623300   43.820100
  H    -21.439600   36.152300   43.955200
  H    -22.407500   36.787000   45.321600
  H    -20.724700   33.474500   37.500800
  H    -28.035000   34.771400   41.080600

 Total Charge           Charge          ....    0
 Multiplicity           Mult            ....    1
 Number of Electrons    NEL             ....  134
 Basis Dimension        Dim             ....  322

ORBITAL ENERGIES
----------------

  NO   OCC          E(Eh)            E(eV)
   0   2.0000     -88.970707     -2421.0160
   1   2.0000     -88.964270     -2420.8409
   2   2.0000     -10.328458      -281.0516
   3   2.0000     -10.324271      -280.9377
   4   2.0000     -10.320340      -280.8307
   5   2.0000     -10.308209      -280.5006
   6   2.0000     -10.307847      -280.4908
   7   2.0000     -10.301762      -280.3252
   8   2.0000     -10.299679      -280.2685
   9   2.0000     -10.295941      -280.1668
  10   2.0000     -10.290837      -280.0279
  11   2.0000     -10.290686      -280.0238
  12   2.0000     -10.287588      -279.9395
  13   2.0000     -10.283629      -279.8318
  14   2.0000     -10.282347      -279.7969
  15   2.0000     -10.267516      -279.3933
  16   2.0000      -8.086160      -220.0356
  17   2.0000      -8.077895      -219.8107
  18   2.0000      -6.044437      -164.4775
  19   2.0000      -6.040610      -164.3734
  20   2.0000      -6.037069      -164.2770
  21   2.0000      -6.036438      -164.2598
  22   2.0000      -6.032563      -164.1544
  23   2.0000      -6.028680      -164.0487
  24   2.0000      -1.009841       -27.4792
  25   2.0000      -0.976255       -26.5653
  26   2.0000      -0.915514       -24.9124
  27   2.0000      -0.907786       -24.7021
  28   2.0000      -0.865351       -23.5474
  29   2.0000      -0.855502       -23.2794
  30   2.0000      -0.847818       -23.0703
  31   2.0000      -0.811101       -22.0712
  32   2.0000      -0.782893       -21.3036
  33   2.0000      -0.769334       -20.9346
  34   2.0000      -0.713579       -19.4175
  35   2.0000      -0.700803       -19.0698
  36   2.0000      -0.688799       -18.7432
  37   2.0000      -0.654537       -17.8109
  38   2.0000      -0.647141       -17.6096
  39   2.0000      -0.625908       -17.0318
  40   2.0000      -0.591077       -16.0840
  41   2.0000      -0.572807       -15.5869
  42   2.0000      -0.566145       -15.4056
  43   2.0000      -0.561792       -15.2871
  44   2.0000      -0.526031       -14.3140
  45   2.0000      -0.521959       -14.2032
  46   2.0000      -0.513545       -13.9743
  47   2.0000      -0.512042       -13.9334
  48   2.0000      -0.503314       -13.6959
  49   2.0000      -0.498032       -13.5521
  50   2.0000      -0.487861       -13.2754
  51   2.0000      -0.479463       -13.0468
  52   2.0000      -0.471533       -12.8311
  53   2.0000      -0.470146       -12.7933
  54   2.0000      -0.458383       -12.4732
  55   2.0000      -0.454442       -12.3660
  56   2.0000      -0.442295       -12.0355
  57   2.0000      -0.438155       -11.9228
  58   2.0000      -0.436314       -11.8727
  59   2.0000      -0.428736       -11.6665
  60   2.0000      -0.426508       -11.6059
  61   2.0000      -0.417213       -11.3530
  62   2.0000      -0.413290       -11.2462
  63   2.0000      -0.342650        -9.3240
  64   2.0000      -0.328846        -8.9484
  65   2.0000      -0.323947        -8.8150
  66   2.0000      -0.296834        -8.0773
  67   0.0000       0.035017         0.9529
  68   0.0000       0.056669         1.5420
  69   0.0000       0.115766         3.1502
  70   0.0000       0.118022         3.2115
  71   0.0000       0.128698         3.5020

MULLIKEN ATOMIC CHARGES
-----------------------
   0 S :    0.144002
   1 C :   -0.093095
   2 C :   -0.088241
   3 C :    0.052331
   4 C :   -0.177184
   5 H :   -0.000564
   6 C :    0.058963
   7 H :    0.028989
   8 H :    0.007589
   9 C :   -0.081561
  10 H :    0.011291
  11 H :    0.038352
  12 C :   -0.045943
  13 H :    0.051827
  14 H :    0.024852
  15 H :    0.014117
  16 S :    0.097742
  17 C :   -0.093592
  18 C :   -0.054378
  19 C :   -0.023873
  20 C :   -0.183842
  21 H :    0.024288
  22 C :    0.082769
  23 H :    0.039465
  24 H :    0.037599
  25 C :   -0.104009
  26 H :    0.038168
  27 H :    0.033233
  28 C :   -0.006823
  29 H :    0.011126
  30 H :    0.015086
  31 H :    0.037545
  32 H :    0.040006
  33 H :    0.063764
Sum of atomic charges:    0.0000000

LOEWDIN ATOMIC CHARGES
----------------------
   0 S :    0.450260
   1 C :   -0.219336
   2 C :   -0.055282
   3 C :   -0.056106
   4 C :   -0.205973
   5 H :    0.029596
   6 C :   -0.040541
   7 H :    0.037069
   8 H :    0.025740
   9 C :   -0.044481
  10 H :    0.008804
  11 H :    0.031397
  12 C :   -0.064035
  13 H :    0.039904
  14 H :    0.023477
  15 H :    0.014740
  16 S :    0.375078
  17 C :   -0.187371
  18 C :   -0.078169
  19 C :   -0.049567
  20 C :   -0.189853
  21 H :    0.031724
  22 C :   -0.020615
  23 H :    0.037900
  24 H :    0.030427
  25 C :   -0.038760
  26 H :    0.024116
  27 H :    0.025153
  28 C :   -0.059638
  29 H :    0.019157
  30 H :    0.013792
  31 H :    0.031807
  32 H :    0.027379
  33 H :    0.032208

  Mayer bond orders larger than 0.100000
B(  0-S ,  1-C ) :   1.1526 B(  0-S ,  4-C ) :   1.1878 B(  1-C ,  2-C ) :   1.5953
B(  1-C ,  4-C ) :   0.1018 B(  1-C , 32-H ) :   0.9662 B(  2-C ,  3-C ) :   1.2729
B(  2-C ,  6-C ) :   1.0054 B(  3-C ,  4-C ) :   1.5402 B(  3-C ,  5-H ) :   1.0058
B(  4-C , 20-C ) :   1.0018 B(  6-C ,  7-H ) :   0.9268 B(  6-C ,  8-H ) :   0.9406
B(  6-C ,  9-C ) :   1.0837 B(  9-C , 10-H ) :   0.9439 B(  9-C , 11-H ) :   0.9535
B(  9-C , 12-C ) :   1.0773 B( 12-C , 13-H ) :   0.9743 B( 12-C , 14-H ) :   0.9760
B( 12-C , 15-H ) :   0.9734 B( 16-S , 17-C ) :   1.1530 B( 16-S , 20-C ) :   1.1321
B( 17-C , 18-C ) :   1.6118 B( 17-C , 20-C ) :   0.1052 B( 17-C , 33-H ) :   0.9665
B( 18-C , 19-C ) :   1.2367 B( 18-C , 21-H ) :   0.9830 B( 19-C , 20-C ) :   1.6096
B( 19-C , 22-C ) :   1.0379 B( 22-C , 23-H ) :   0.9286 B( 22-C , 24-H ) :   0.9431
B( 22-C , 25-C ) :   1.0630 B( 25-C , 26-H ) :   0.9632 B( 25-C , 27-H ) :   0.9581
B( 25-C , 28-C ) :   1.0789 B( 28-C , 29-H ) :   0.9671 B( 28-C , 30-H ) :   0.9757
B( 28-C , 31-H ) :   0.9772

Dispersion correction           -0.013927320
FINAL SINGLE POINT ENERGY     -1339.866265684554

DIPOLE MOMENT
-------------
                                X             Y             Z
Electronic contribution:    -20.69113       4.07164     -21.37397
Nuclear contribution   :     21.06638      -4.14706      21.96421
                        -----------------------------------------
Total Dipole Moment    :      0.37525      -0.07542       0.59024
                        -----------------------------------------
Magnitude (a.u.)       :      0.70348
Magnitude (Debye)      :      1.78811

Rotational constants in cm-1:     0.016267     0.008859     0.006900
Rotational constants in MHz :   487.669871   265.595659   206.850147

                             ****ORCA TERMINATED NORMALLY****
TOTAL RUN TIME: 0 days 0 hours 0 minutes 30 seconds 889 msec
