                         Program Version 4.2.1 -  RELEASE  -
|  1> ! wB97X-D3 SP def2-SVP
|  2> %pal
|  3> nprocs 16
|  4> end
|  5>
|  6> * xyz 0 1
|  7> S 	 -4.63297 	 -13.0966 	 82.3115
|  8> C 	 -3.29901 	 -12.1784 	 81.4493
|  9> C 	 -3.80409 	 -11.5018 	 80.3399
| 10> C 	 -5.22261 	 -11.6878 	 80.1614
| 11> C 	 -5.85947 	 -12.4404 	 81.1447
| 12> H 	 -5.78226 	 -11.3305 	 79.3251
| 13> C 	 -2.81702 	 -10.7792 	 79.4146
| 14> H 	 -2.21987 	 -10.1576 	 80.1012
| 15> H 	 -3.42029 	 -10.0445 	 78.9124
| 16> C 	 -2.05663 	 -11.477 	 78.2155
| 17> H 	 -1.5344 	 -10.7581 	 77.5481
| 18> H 	 -1.17038 	 -11.9872 	 78.5008
| 19> C 	 -2.98783 	 -12.2266 	 77.3307
| 20> H 	 -2.48515 	 -12.6241 	 76.4093
| 21> H 	 -3.49197 	 -13.1025 	 77.83
| 22> H 	 -3.85883 	 -11.5463 	 77.0902
| 23> S 	 -8.21582 	 -12.446 	 79.8107
| 24> C 	 -9.67776 	 -13.0658 	 80.5571
| 25> C 	 -9.37267 	 -13.7906 	 81.6906
| 26> C 	 -8.07567 	 -13.5193 	 82.1886
| 27> C 	 -7.27454 	 -12.872 	 81.2353
| 28> H 	 -10.0289 	 -14.5166 	 82.1462
| 29> C 	 -7.64846 	 -14.1376 	 83.4802
| 30> H 	 -6.73327 	 -14.8705 	 83.3809
| 31> H 	 -8.43422 	 -14.8284 	 83.8872
| 32> C 	 -7.40606 	 -13.1462 	 84.6637
| 33> H 	 -8.38284 	 -12.7449 	 85.0411
| 34> H 	 -6.8448 	 -12.2754 	 84.2604
| 35> C 	 -6.48337 	 -13.6211 	 85.8359
| 36> H 	 -7.09344 	 -14.3078 	 86.4353
| 37> H 	 -5.9733 	 -12.8722 	 86.3774
| 38> H 	 -5.75767 	 -14.3121 	 85.4312
| 39> H 	 -2.2377 	 -12.3803 	 81.6031
| 40> H 	 -10.5859 	 -13.1022 	 80.0072
| 41> *
| 42>
| 43>                          ****END OF INPUT****

CARTESIAN COORDINATES (ANGSTROEM)
---------------------------------
  S     -4.632970  -13.096600   82.311500
  C     -3.299010  -12.178400   81.449300
  C     -3.804090  -11.501800   80.339900
  C     -5.222610  -11.687800   80.161400
  C     -5.859470  -12.440400   81.144700
  H     -5.782260  -11.330500   79.325100
  C     -2.817020  -10.779200   79.414600
  H     -2.219870  -10.157600   80.101200
  H     -3.420290  -10.044500   78.912400
  C     -2.056630  -11.477000   78.215500
  H     -1.534400  -10.758100   77.548100
  H     -1.170380  -11.987200   78.500800
  C     -2.987830  -12.226600   77.330700
  H     -2.485150  -12.624100   76.409300
  H     -3.491970  -13.102500   77.830000
  H     -3.858830  -11.546300   77.090200
  S     -8.215820  -12.446000   79.810700
  C     -9.677760  -13.065800   80.557100
  C     -9.372670  -13.790600   81.690600
  C     -8.075670  -13.519300   82.188600
  C     -7.274540  -12.872000   81.235300
  H    -10.028900  -14.516600   82.146200
  C     -7.648460  -14.137600   83.480200
  H     -6.733270  -14.870500   83.380900
  H     -8.434220  -14.828400   83.887200
  C     -7.406060  -13.146200   84.663700
  H     -8.382840  -12.744900   85.041100
  H     -6.844800  -12.275400   84.260400
  C     -6.483370  -13.621100   85.835900
  H     -7.093440  -14.307800   86.435300
  H     -5.973300  -12.872200   86.377400
  H     -5.757670  -14.312100   85.431200
  H     -2.237700  -12.380300   81.603100
  H    -10.585900  -13.102200   80.007200

 Total Charge           Charge          ....    0
 Multiplicity           Mult            ....    1
 Number of Electrons    NEL             ....  134
 Basis Dimension        Dim             ....  322

ORBITAL ENERGIES
----------------

  NO   OCC          E(Eh)            E(eV)
   0   2.0000     -88.968497     -2420.9559
   1   2.0000     -88.967791     -2420.9367
   2   2.0000     -10.344179      -281.4794
   3   2.0000     -10.337438      -281.2960
   4   2.0000     -10.321647      -280.8663
   5   2.0000     -10.318885      -280.7911
   6   2.0000     -10.310401      -280.5603
   7   2.0000     -10.308155      -280.4992
   8   2.0000     -10.304433      -280.3979
   9   2.0000     -10.300435      -280.2891
  10   2.0000     -10.298199      -280.2282
  11   2.0000     -10.297092      -280.1981
  12   2.0000     -10.290617      -280.0219
  13   2.0000     -10.288848      -279.9738
  14   2.0000     -10.285828      -279.8916
  15   2.0000     -10.272195      -279.5206
  16   2.0000      -8.083139      -219.9534
  17   2.0000      -8.079714      -219.8602
  18   2.0000      -6.041696      -164.4029
  19   2.0000      -6.038520      -164.3165
  20   2.0000      -6.037791      -164.2966
  21   2.0000      -6.034671      -164.2118
  22   2.0000      -6.033747      -164.1866
  23   2.0000      -6.030292      -164.0926
  24   2.0000      -1.003995       -27.3201
  25   2.0000      -0.974265       -26.5111
  26   2.0000      -0.908070       -24.7098
  27   2.0000      -0.901932       -24.5428
  28   2.0000      -0.869760       -23.6674
  29   2.0000      -0.851479       -23.1699
  30   2.0000      -0.840442       -22.8696
  31   2.0000      -0.814340       -22.1593
  32   2.0000      -0.781167       -21.2566
  33   2.0000      -0.768219       -20.9043
  34   2.0000      -0.706592       -19.2273
  35   2.0000      -0.703499       -19.1432
  36   2.0000      -0.686018       -18.6675
  37   2.0000      -0.674104       -18.3433
  38   2.0000      -0.632887       -17.2217
  39   2.0000      -0.612384       -16.6638
  40   2.0000      -0.599595       -16.3158
  41   2.0000      -0.568132       -15.4597
  42   2.0000      -0.555356       -15.1120
  43   2.0000      -0.552955       -15.0467
  44   2.0000      -0.538761       -14.6604
  45   2.0000      -0.525960       -14.3121
  46   2.0000      -0.518688       -14.1142
  47   2.0000      -0.509152       -13.8547
  48   2.0000      -0.505572       -13.7573
  49   2.0000      -0.492802       -13.4098
  50   2.0000      -0.490637       -13.3509
  51   2.0000      -0.482237       -13.1223
  52   2.0000      -0.469910       -12.7869
  53   2.0000      -0.462926       -12.5968
  54   2.0000      -0.456010       -12.4087
  55   2.0000      -0.443418       -12.0660
  56   2.0000      -0.439299       -11.9539
  57   2.0000      -0.437957       -11.9174
  58   2.0000      -0.430120       -11.7041
  59   2.0000      -0.426485       -11.6052
  60   2.0000      -0.419755       -11.4221
  61   2.0000      -0.404626       -11.0104
  62   2.0000      -0.400756       -10.9051
  63   2.0000      -0.359539        -9.7835
  64   2.0000      -0.334308        -9.0970
  65   2.0000      -0.331272        -9.0144
  66   2.0000      -0.282015        -7.6740
  67   0.0000       0.009824         0.2673
  68   0.0000       0.072654         1.9770
  69   0.0000       0.096949         2.6381
  70   0.0000       0.108915         2.9637
  71   0.0000       0.121097         3.2952

MULLIKEN ATOMIC CHARGES
-----------------------
   0 S :    0.067741
   1 C :   -0.114829
   2 C :   -0.105311
   3 C :    0.001842
   4 C :   -0.095423
   5 H :    0.013118
   6 C :    0.057984
   7 H :    0.038897
   8 H :    0.012815
   9 C :   -0.016950
  10 H :    0.024233
  11 H :    0.012433
  12 C :   -0.098327
  13 H :    0.047758
  14 H :    0.051409
  15 H :    0.032012
  16 S :    0.075609
  17 C :   -0.070681
  18 C :   -0.022325
  19 C :   -0.039517
  20 C :   -0.096934
  21 H :    0.026567
  22 C :   -0.032677
  23 H :    0.057384
  24 H :    0.028047
  25 C :   -0.107349
  26 H :    0.038118
  27 H :    0.035340
  28 C :   -0.013948
  29 H :    0.020622
  30 H :    0.042893
  31 H :    0.014353
  32 H :    0.062558
  33 H :    0.052540
Sum of atomic charges:    0.0000000

LOEWDIN ATOMIC CHARGES
----------------------
   0 S :    0.351841
   1 C :   -0.171837
   2 C :   -0.059382
   3 C :   -0.075501
   4 C :   -0.159050
   5 H :    0.021285
   6 C :   -0.034575
   7 H :    0.037921
   8 H :    0.027357
   9 C :   -0.044865
  10 H :    0.032611
  11 H :    0.015634
  12 C :   -0.076197
  13 H :    0.032865
  14 H :    0.030974
  15 H :    0.028800
  16 S :    0.408009
  17 C :   -0.174816
  18 C :   -0.059205
  19 C :   -0.063818
  20 C :   -0.180462
  21 H :    0.033507
  22 C :   -0.052043
  23 H :    0.037083
  24 H :    0.033466
  25 C :   -0.048543
  26 H :    0.026241
  27 H :    0.020203
  28 C :   -0.062155
  29 H :    0.023870
  30 H :    0.023977
  31 H :    0.022236
  32 H :    0.032581
  33 H :    0.021987

  Mayer bond orders larger than 0.100000
B(  0-S ,  1-C ) :   1.1100 B(  0-S ,  4-C ) :   1.1222 B(  1-C ,  2-C ) :   1.6325
B(  1-C , 32-H ) :   0.9657 B(  2-C ,  3-C ) :   1.2336 B(  2-C ,  6-C ) :   1.0152
B(  3-C ,  4-C ) :   1.5803 B(  3-C ,  5-H ) :   0.9799 B(  4-C , 20-C ) :   1.0782
B(  6-C ,  7-H ) :   0.9446 B(  6-C ,  8-H ) :   0.9381 B(  6-C ,  9-C ) :   1.0505
B(  9-C , 10-H ) :   0.9503 B(  9-C , 11-H ) :   0.9561 B(  9-C , 12-C ) :   1.0754
B( 12-C , 13-H ) :   0.9709 B( 12-C , 14-H ) :   0.9724 B( 12-C , 15-H ) :   0.9730
B( 16-S , 17-C ) :   1.1573 B( 16-S , 20-C ) :   1.1450 B( 17-C , 18-C ) :   1.5901
B( 17-C , 33-H ) :   0.9717 B( 18-C , 19-C ) :   1.2664 B( 18-C , 21-H ) :   0.9848
B( 19-C , 20-C ) :   1.5510 B( 19-C , 22-C ) :   1.0486 B( 22-C , 23-H ) :   0.9411
B( 22-C , 24-H ) :   0.9360 B( 22-C , 25-C ) :   1.0354 B( 25-C , 26-H ) :   0.9560
B( 25-C , 27-H ) :   0.9672 B( 25-C , 28-C ) :   1.0669 B( 28-C , 29-H ) :   0.9753
B( 28-C , 30-H ) :   0.9783 B( 28-C , 31-H ) :   0.9727

Dispersion correction           -0.014433485
FINAL SINGLE POINT ENERGY     -1339.858607178922

DIPOLE MOMENT
-------------
                                X             Y             Z
Electronic contribution:    -10.52526      -0.08624      -2.44835
Nuclear contribution   :     10.64159      -0.05323       2.21300
                        -----------------------------------------
Total Dipole Moment    :      0.11633      -0.13947      -0.23536
                        -----------------------------------------
Magnitude (a.u.)       :      0.29728
Magnitude (Debye)      :      0.75563

Rotational constants in cm-1:     0.020197     0.008698     0.006391
Rotational constants in MHz :   605.497679   260.758029   191.611206

                             ****ORCA TERMINATED NORMALLY****
TOTAL RUN TIME: 0 days 0 hours 0 minutes 32 seconds 447 msec
