                         Program Version 4.2.1 -  RELEASE  -
|  1> ! wB97X-D3 SP def2-SVP
|  2> %pal
|  3> nprocs 16
|  4> end
|  5>
|  6> * xyz 0 1
|  7> S 	 64.0762 	 -5.98568 	 88.829
|  8> C 	 62.6799 	 -5.12266 	 89.3323
|  9> C 	 61.8815 	 -4.84489 	 88.2047
| 10> C 	 62.4453 	 -5.28395 	 86.9684
| 11> C 	 63.6863 	 -5.8745 	 87.1359
| 12> H 	 62.0567 	 -5.06601 	 85.9662
| 13> C 	 60.6793 	 -3.94932 	 88.2294
| 14> H 	 59.9003 	 -4.27399 	 88.9589
| 15> H 	 60.1056 	 -4.03255 	 87.2394
| 16> C 	 61.0661 	 -2.49639 	 88.5593
| 17> H 	 60.0337 	 -2.02564 	 88.6495
| 18> H 	 61.5437 	 -2.28327 	 89.5058
| 19> C 	 61.8828 	 -1.73881 	 87.5373
| 20> H 	 62.8493 	 -2.22445 	 87.3733
| 21> H 	 61.4896 	 -1.73303 	 86.5535
| 22> H 	 62.0736 	 -0.70452 	 87.9143
| 23> S 	 64.7394 	 -8.00839 	 85.8331
| 24> C 	 65.7515 	 -7.73789 	 84.4568
| 25> C 	 65.9771 	 -6.39878 	 84.2585
| 26> C 	 65.2615 	 -5.52578 	 85.1622
| 27> C 	 64.5301 	 -6.28482 	 86.0597
| 28> H 	 66.6337 	 -6.08995 	 83.4509
| 29> C 	 65.2001 	 -4.03784 	 84.924
| 30> H 	 64.1515 	 -3.69813 	 85.2273
| 31> H 	 65.0878 	 -3.7655 	 83.9188
| 32> C 	 66.2166 	 -3.27806 	 85.6595
| 33> H 	 66.1964 	 -3.60529 	 86.7186
| 34> H 	 65.9283 	 -2.23075 	 85.5538
| 35> C 	 67.5889 	 -3.45341 	 85.1398
| 36> H 	 68.1791 	 -2.67719 	 85.6085
| 37> H 	 67.6719 	 -3.54633 	 84.0778
| 38> H 	 67.9486 	 -4.37967 	 85.5011
| 39> H 	 62.5568 	 -4.56973 	 90.2516
| 40> H 	 66.241 	 -8.49404 	 83.8178
| 41> *
| 42>
| 43>                          ****END OF INPUT****

CARTESIAN COORDINATES (ANGSTROEM)
---------------------------------
  S     64.076200   -5.985680   88.829000
  C     62.679900   -5.122660   89.332300
  C     61.881500   -4.844890   88.204700
  C     62.445300   -5.283950   86.968400
  C     63.686300   -5.874500   87.135900
  H     62.056700   -5.066010   85.966200
  C     60.679300   -3.949320   88.229400
  H     59.900300   -4.273990   88.958900
  H     60.105600   -4.032550   87.239400
  C     61.066100   -2.496390   88.559300
  H     60.033700   -2.025640   88.649500
  H     61.543700   -2.283270   89.505800
  C     61.882800   -1.738810   87.537300
  H     62.849300   -2.224450   87.373300
  H     61.489600   -1.733030   86.553500
  H     62.073600   -0.704520   87.914300
  S     64.739400   -8.008390   85.833100
  C     65.751500   -7.737890   84.456800
  C     65.977100   -6.398780   84.258500
  C     65.261500   -5.525780   85.162200
  C     64.530100   -6.284820   86.059700
  H     66.633700   -6.089950   83.450900
  C     65.200100   -4.037840   84.924000
  H     64.151500   -3.698130   85.227300
  H     65.087800   -3.765500   83.918800
  C     66.216600   -3.278060   85.659500
  H     66.196400   -3.605290   86.718600
  H     65.928300   -2.230750   85.553800
  C     67.588900   -3.453410   85.139800
  H     68.179100   -2.677190   85.608500
  H     67.671900   -3.546330   84.077800
  H     67.948600   -4.379670   85.501100
  H     62.556800   -4.569730   90.251600
  H     66.241000   -8.494040   83.817800

 Total Charge           Charge          ....    0
 Multiplicity           Mult            ....    1
 Number of Electrons    NEL             ....  134
 Basis Dimension        Dim             ....  322

ORBITAL ENERGIES
----------------

  NO   OCC          E(Eh)            E(eV)
   0   2.0000     -88.968592     -2420.9585
   1   2.0000     -88.965322     -2420.8695
   2   2.0000     -10.324454      -280.9427
   3   2.0000     -10.323514      -280.9171
   4   2.0000     -10.315169      -280.6900
   5   2.0000     -10.311910      -280.6013
   6   2.0000     -10.303588      -280.3749
   7   2.0000     -10.300392      -280.2879
   8   2.0000     -10.299197      -280.2554
   9   2.0000     -10.294526      -280.1283
  10   2.0000     -10.291422      -280.0438
  11   2.0000     -10.290098      -280.0078
  12   2.0000     -10.284966      -279.8681
  13   2.0000     -10.275715      -279.6164
  14   2.0000     -10.274547      -279.5846
  15   2.0000     -10.263306      -279.2787
  16   2.0000      -8.083547      -219.9645
  17   2.0000      -8.080484      -219.8812
  18   2.0000      -6.041989      -164.4109
  19   2.0000      -6.038937      -164.3278
  20   2.0000      -6.037801      -164.2969
  21   2.0000      -6.034944      -164.2192
  22   2.0000      -6.034584      -164.2094
  23   2.0000      -6.031259      -164.1189
  24   2.0000      -1.010389       -27.4941
  25   2.0000      -0.986565       -26.8458
  26   2.0000      -0.924161       -25.1477
  27   2.0000      -0.912109       -24.8197
  28   2.0000      -0.872352       -23.7379
  29   2.0000      -0.852300       -23.1923
  30   2.0000      -0.847910       -23.0728
  31   2.0000      -0.814150       -22.1542
  32   2.0000      -0.789422       -21.4813
  33   2.0000      -0.772827       -21.0297
  34   2.0000      -0.707551       -19.2534
  35   2.0000      -0.699347       -19.0302
  36   2.0000      -0.686235       -18.6734
  37   2.0000      -0.659600       -17.9486
  38   2.0000      -0.641459       -17.4550
  39   2.0000      -0.614704       -16.7269
  40   2.0000      -0.603895       -16.4328
  41   2.0000      -0.574540       -15.6340
  42   2.0000      -0.556219       -15.1355
  43   2.0000      -0.550296       -14.9743
  44   2.0000      -0.550043       -14.9674
  45   2.0000      -0.534106       -14.5338
  46   2.0000      -0.522937       -14.2298
  47   2.0000      -0.515190       -14.0190
  48   2.0000      -0.506937       -13.7945
  49   2.0000      -0.493766       -13.4360
  50   2.0000      -0.488619       -13.2960
  51   2.0000      -0.483920       -13.1681
  52   2.0000      -0.475377       -12.9357
  53   2.0000      -0.468451       -12.7472
  54   2.0000      -0.465909       -12.6780
  55   2.0000      -0.442963       -12.0536
  56   2.0000      -0.441746       -12.0205
  57   2.0000      -0.437117       -11.8946
  58   2.0000      -0.434280       -11.8174
  59   2.0000      -0.422177       -11.4880
  60   2.0000      -0.415444       -11.3048
  61   2.0000      -0.408722       -11.1219
  62   2.0000      -0.403892       -10.9905
  63   2.0000      -0.339671        -9.2429
  64   2.0000      -0.330615        -8.9965
  65   2.0000      -0.326999        -8.8981
  66   2.0000      -0.299277        -8.1437
  67   0.0000       0.040657         1.1063
  68   0.0000       0.053209         1.4479
  69   0.0000       0.117374         3.1939
  70   0.0000       0.124367         3.3842
  71   0.0000       0.125173         3.4061

MULLIKEN ATOMIC CHARGES
-----------------------
   0 S :    0.132801
   1 C :   -0.117041
   2 C :   -0.093305
   3 C :    0.041672
   4 C :   -0.168181
   5 H :    0.024256
   6 C :    0.027400
   7 H :    0.040461
   8 H :    0.035959
   9 C :   -0.089582
  10 H :    0.030460
  11 H :    0.028561
  12 C :   -0.042936
  13 H :    0.036130
  14 H :    0.015297
  15 H :    0.041714
  16 S :    0.121399
  17 C :   -0.093906
  18 C :   -0.050232
  19 C :   -0.006554
  20 C :   -0.205104
  21 H :    0.016319
  22 C :    0.068229
  23 H :    0.009175
  24 H :    0.009774
  25 C :   -0.059343
  26 H :    0.035966
  27 H :    0.023941
  28 C :   -0.004038
  29 H :    0.034347
  30 H :    0.018359
  31 H :    0.017265
  32 H :    0.057289
  33 H :    0.063447
Sum of atomic charges:    0.0000000

LOEWDIN ATOMIC CHARGES
----------------------
   0 S :    0.433440
   1 C :   -0.218428
   2 C :   -0.065189
   3 C :   -0.061325
   4 C :   -0.208332
   5 H :    0.035340
   6 C :   -0.043185
   7 H :    0.036291
   8 H :    0.038436
   9 C :   -0.045673
  10 H :    0.029130
  11 H :    0.022476
  12 C :   -0.068267
  13 H :    0.026438
  14 H :    0.016112
  15 H :    0.034055
  16 S :    0.416285
  17 C :   -0.199563
  18 C :   -0.075156
  19 C :   -0.048588
  20 C :   -0.201377
  21 H :    0.029692
  22 C :   -0.036499
  23 H :    0.036426
  24 H :    0.022594
  25 C :   -0.041968
  26 H :    0.032683
  27 H :    0.023123
  28 C :   -0.059525
  29 H :    0.030336
  30 H :    0.019158
  31 H :    0.021627
  32 H :    0.031623
  33 H :    0.037811

  Mayer bond orders larger than 0.100000
B(  0-S ,  1-C ) :   1.1554 B(  0-S ,  4-C ) :   1.1696 B(  1-C ,  2-C ) :   1.5679
B(  1-C ,  4-C ) :   0.1034 B(  1-C , 32-H ) :   0.9692 B(  2-C ,  3-C ) :   1.2665
B(  2-C ,  6-C ) :   1.0304 B(  3-C ,  4-C ) :   1.5483 B(  3-C ,  5-H ) :   0.9902
B(  4-C , 20-C ) :   1.0285 B(  6-C ,  7-H ) :   0.9382 B(  6-C ,  8-H ) :   0.9463
B(  6-C ,  9-C ) :   1.0651 B(  9-C , 10-H ) :   0.9530 B(  9-C , 11-H ) :   0.9592
B(  9-C , 12-C ) :   1.0808 B( 12-C , 13-H ) :   0.9706 B( 12-C , 14-H ) :   0.9737
B( 12-C , 15-H ) :   0.9712 B( 16-S , 17-C ) :   1.1464 B( 16-S , 20-C ) :   1.1521
B( 17-C , 18-C ) :   1.6353 B( 17-C , 33-H ) :   0.9613 B( 18-C , 19-C ) :   1.2191
B( 18-C , 21-H ) :   0.9866 B( 19-C , 20-C ) :   1.6170 B( 19-C , 22-C ) :   1.0256
B( 22-C , 23-H ) :   0.9248 B( 22-C , 24-H ) :   0.9359 B( 22-C , 25-C ) :   1.0899
B( 25-C , 26-H ) :   0.9481 B( 25-C , 27-H ) :   0.9509 B( 25-C , 28-C ) :   1.0900
B( 28-C , 29-H ) :   0.9697 B( 28-C , 30-H ) :   0.9712 B( 28-C , 31-H ) :   0.9666

Dispersion correction           -0.015978671
FINAL SINGLE POINT ENERGY     -1339.875762574573

DIPOLE MOMENT
-------------
                                X             Y             Z
Electronic contribution:      1.93833     -26.27710       4.45389
Nuclear contribution   :     -2.02737      26.92692      -4.75654
                        -----------------------------------------
Total Dipole Moment    :     -0.08903       0.64982      -0.30265
                        -----------------------------------------
Magnitude (a.u.)       :      0.72235
Magnitude (Debye)      :      1.83607

Rotational constants in cm-1:     0.019583     0.009676     0.007634
Rotational constants in MHz :   587.090931   290.093329   228.864880

                             ****ORCA TERMINATED NORMALLY****
TOTAL RUN TIME: 0 days 0 hours 0 minutes 30 seconds 703 msec
