                         Program Version 4.2.1 -  RELEASE  -
|  1> ! wB97X-D3 SP def2-SVP
|  2> %pal
|  3> nprocs 16
|  4> end
|  5>
|  6> * xyz 0 1
|  7> S 	 -1.40537 	 -21.1553 	 57.0642
|  8> C 	 -1.78794 	 -20.2024 	 55.6337
|  9> C 	 -2.34946 	 -18.9863 	 55.965
| 10> C 	 -2.29142 	 -18.7902 	 57.3444
| 11> C 	 -1.77298 	 -19.8028 	 58.0679
| 12> H 	 -2.67017 	 -17.902 	 57.8886
| 13> C 	 -2.83837 	 -17.8541 	 55.0234
| 14> H 	 -2.14902 	 -17.8374 	 54.156
| 15> H 	 -2.5757 	 -16.9223 	 55.4854
| 16> C 	 -4.33398 	 -17.9379 	 54.6531
| 17> H 	 -4.42369 	 -17.4733 	 53.6812
| 18> H 	 -4.66703 	 -18.9896 	 54.5143
| 19> C 	 -5.20769 	 -17.1872 	 55.6567
| 20> H 	 -6.18029 	 -17.2966 	 55.3297
| 21> H 	 -5.23778 	 -17.719 	 56.6612
| 22> H 	 -4.99501 	 -16.0753 	 55.8514
| 23> S 	 -3.13491 	 -20.739 	 60.2951
| 24> C 	 -2.67414 	 -20.1327 	 61.8766
| 25> C 	 -1.60214 	 -19.2504 	 61.7869
| 26> C 	 -1.01407 	 -19.1879 	 60.4501
| 27> C 	 -1.72996 	 -19.9488 	 59.5233
| 28> H 	 -1.34145 	 -18.6411 	 62.5809
| 29> C 	 0.23576 	 -18.4316 	 60.099
| 30> H 	 0.118213 	 -17.9637 	 59.1032
| 31> H 	 1.07737 	 -19.0979 	 60.2527
| 32> C 	 0.452879 	 -17.1411 	 60.9495
| 33> H 	 1.43003 	 -16.7905 	 60.6005
| 34> H 	 0.625866 	 -17.3898 	 62.0355
| 35> C 	 -0.787812 	 -16.1947 	 60.8846
| 36> H 	 -0.697375 	 -15.3961 	 61.5887
| 37> H 	 -1.74204 	 -16.6972 	 61.0987
| 38> H 	 -0.734453 	 -15.6469 	 59.9609
| 39> H 	 -1.76383 	 -20.475 	 54.5621
| 40> H 	 -3.33742 	 -20.2535 	 62.7268
| 41> *
| 42>
| 43>                          ****END OF INPUT****

CARTESIAN COORDINATES (ANGSTROEM)
---------------------------------
  S     -1.405370  -21.155300   57.064200
  C     -1.787940  -20.202400   55.633700
  C     -2.349460  -18.986300   55.965000
  C     -2.291420  -18.790200   57.344400
  C     -1.772980  -19.802800   58.067900
  H     -2.670170  -17.902000   57.888600
  C     -2.838370  -17.854100   55.023400
  H     -2.149020  -17.837400   54.156000
  H     -2.575700  -16.922300   55.485400
  C     -4.333980  -17.937900   54.653100
  H     -4.423690  -17.473300   53.681200
  H     -4.667030  -18.989600   54.514300
  C     -5.207690  -17.187200   55.656700
  H     -6.180290  -17.296600   55.329700
  H     -5.237780  -17.719000   56.661200
  H     -4.995010  -16.075300   55.851400
  S     -3.134910  -20.739000   60.295100
  C     -2.674140  -20.132700   61.876600
  C     -1.602140  -19.250400   61.786900
  C     -1.014070  -19.187900   60.450100
  C     -1.729960  -19.948800   59.523300
  H     -1.341450  -18.641100   62.580900
  C      0.235760  -18.431600   60.099000
  H      0.118213  -17.963700   59.103200
  H      1.077370  -19.097900   60.252700
  C      0.452879  -17.141100   60.949500
  H      1.430030  -16.790500   60.600500
  H      0.625866  -17.389800   62.035500
  C     -0.787812  -16.194700   60.884600
  H     -0.697375  -15.396100   61.588700
  H     -1.742040  -16.697200   61.098700
  H     -0.734453  -15.646900   59.960900
  H     -1.763830  -20.475000   54.562100
  H     -3.337420  -20.253500   62.726800

 Total Charge           Charge          ....    0
 Multiplicity           Mult            ....    1
 Number of Electrons    NEL             ....  134
 Basis Dimension        Dim             ....  322

ORBITAL ENERGIES
----------------

  NO   OCC          E(Eh)            E(eV)
   0   2.0000     -88.964844     -2420.8565
   1   2.0000     -88.961816     -2420.7741
   2   2.0000     -10.324397      -280.9411
   3   2.0000     -10.321231      -280.8550
   4   2.0000     -10.319171      -280.7989
   5   2.0000     -10.313072      -280.6329
   6   2.0000     -10.306028      -280.4413
   7   2.0000     -10.294950      -280.1398
   8   2.0000     -10.294379      -280.1243
   9   2.0000     -10.293355      -280.0964
  10   2.0000     -10.293150      -280.0908
  11   2.0000     -10.291210      -280.0380
  12   2.0000     -10.290442      -280.0172
  13   2.0000     -10.285292      -279.8770
  14   2.0000     -10.281415      -279.7715
  15   2.0000     -10.277869      -279.6750
  16   2.0000      -8.079779      -219.8620
  17   2.0000      -8.076169      -219.7637
  18   2.0000      -6.038247      -164.3091
  19   2.0000      -6.034735      -164.2135
  20   2.0000      -6.034306      -164.2018
  21   2.0000      -6.030705      -164.1038
  22   2.0000      -6.030518      -164.0987
  23   2.0000      -6.026910      -164.0006
  24   2.0000      -1.007045       -27.4031
  25   2.0000      -0.979614       -26.6567
  26   2.0000      -0.908460       -24.7205
  27   2.0000      -0.906613       -24.6702
  28   2.0000      -0.867082       -23.5945
  29   2.0000      -0.847208       -23.0537
  30   2.0000      -0.839248       -22.8371
  31   2.0000      -0.812336       -22.1048
  32   2.0000      -0.785928       -21.3862
  33   2.0000      -0.773650       -21.0521
  34   2.0000      -0.702721       -19.1220
  35   2.0000      -0.701806       -19.0971
  36   2.0000      -0.691134       -18.8067
  37   2.0000      -0.655583       -17.8393
  38   2.0000      -0.637894       -17.3580
  39   2.0000      -0.613747       -16.7009
  40   2.0000      -0.596766       -16.2388
  41   2.0000      -0.570545       -15.5253
  42   2.0000      -0.563975       -15.3465
  43   2.0000      -0.547181       -14.8895
  44   2.0000      -0.538601       -14.6561
  45   2.0000      -0.533412       -14.5149
  46   2.0000      -0.518006       -14.0957
  47   2.0000      -0.510418       -13.8892
  48   2.0000      -0.497898       -13.5485
  49   2.0000      -0.493017       -13.4157
  50   2.0000      -0.484235       -13.1767
  51   2.0000      -0.473847       -12.8940
  52   2.0000      -0.472147       -12.8478
  53   2.0000      -0.465559       -12.6685
  54   2.0000      -0.455791       -12.4027
  55   2.0000      -0.450046       -12.2464
  56   2.0000      -0.442744       -12.0477
  57   2.0000      -0.438373       -11.9287
  58   2.0000      -0.433953       -11.8085
  59   2.0000      -0.424155       -11.5418
  60   2.0000      -0.415668       -11.3109
  61   2.0000      -0.413330       -11.2473
  62   2.0000      -0.410118       -11.1599
  63   2.0000      -0.337371        -9.1803
  64   2.0000      -0.327671        -8.9164
  65   2.0000      -0.323735        -8.8093
  66   2.0000      -0.303934        -8.2705
  67   0.0000       0.042740         1.1630
  68   0.0000       0.054019         1.4699
  69   0.0000       0.114881         3.1261
  70   0.0000       0.122087         3.3221
  71   0.0000       0.128358         3.4928

MULLIKEN ATOMIC CHARGES
-----------------------
   0 S :    0.117509
   1 C :   -0.119108
   2 C :   -0.103744
   3 C :    0.030449
   4 C :   -0.188821
   5 H :    0.017086
   6 C :    0.061057
   7 H :    0.024636
   8 H :    0.012992
   9 C :   -0.046142
  10 H :    0.026270
  11 H :    0.041118
  12 C :   -0.066404
  13 H :    0.016567
  14 H :    0.041283
  15 H :    0.049229
  16 S :    0.095181
  17 C :   -0.092114
  18 C :   -0.006544
  19 C :   -0.085658
  20 C :   -0.127539
  21 H :   -0.002945
  22 C :    0.100298
  23 H :    0.039178
  24 H :    0.053891
  25 C :   -0.128632
  26 H :    0.032446
  27 H :    0.028592
  28 C :   -0.040652
  29 H :    0.020951
  30 H :    0.059420
  31 H :    0.027465
  32 H :    0.047227
  33 H :    0.065458
Sum of atomic charges:   -0.0000000

LOEWDIN ATOMIC CHARGES
----------------------
   0 S :    0.416849
   1 C :   -0.200873
   2 C :   -0.068282
   3 C :   -0.068184
   4 C :   -0.210456
   5 H :    0.036353
   6 C :   -0.028704
   7 H :    0.031812
   8 H :    0.025893
   9 C :   -0.039109
  10 H :    0.023526
  11 H :    0.033077
  12 C :   -0.072613
  13 H :    0.014523
  14 H :    0.033824
  15 H :    0.034886
  16 S :    0.386795
  17 C :   -0.177480
  18 C :   -0.066134
  19 C :   -0.049242
  20 C :   -0.198723
  21 H :    0.017644
  22 C :   -0.030594
  23 H :    0.038410
  24 H :    0.038978
  25 C :   -0.045887
  26 H :    0.026062
  27 H :    0.019049
  28 C :   -0.068067
  29 H :    0.023458
  30 H :    0.033829
  31 H :    0.025093
  32 H :    0.034280
  33 H :    0.030007

  Mayer bond orders larger than 0.100000
B(  0-S ,  1-C ) :   1.1447 B(  0-S ,  4-C ) :   1.1497 B(  1-C ,  2-C ) :   1.6245
B(  1-C , 32-H ) :   0.9611 B(  2-C ,  3-C ) :   1.2556 B(  2-C ,  6-C ) :   1.0052
B(  3-C ,  4-C ) :   1.5998 B(  3-C ,  5-H ) :   0.9902 B(  4-C , 20-C ) :   0.9924
B(  6-C ,  7-H ) :   0.9464 B(  6-C ,  8-H ) :   0.9473 B(  6-C ,  9-C ) :   1.0503
B(  9-C , 10-H ) :   0.9547 B(  9-C , 11-H ) :   0.9572 B(  9-C , 12-C ) :   1.0833
B( 12-C , 13-H ) :   0.9706 B( 12-C , 14-H ) :   0.9713 B( 12-C , 15-H ) :   0.9745
B( 16-S , 17-C ) :   1.1613 B( 16-S , 20-C ) :   1.1358 B( 17-C , 18-C ) :   1.6025
B( 17-C , 33-H ) :   0.9655 B( 18-C , 19-C ) :   1.2244 B( 18-C , 21-H ) :   1.0004
B( 19-C , 20-C ) :   1.6134 B( 19-C , 22-C ) :   1.0388 B( 22-C , 23-H ) :   0.9315
B( 22-C , 24-H ) :   0.9338 B( 22-C , 25-C ) :   1.0720 B( 25-C , 26-H ) :   0.9610
B( 25-C , 27-H ) :   0.9527 B( 25-C , 28-C ) :   1.0646 B( 28-C , 29-H ) :   0.9729
B( 28-C , 30-H ) :   0.9695 B( 28-C , 31-H ) :   0.9745

Dispersion correction           -0.014918530
FINAL SINGLE POINT ENERGY     -1339.869367214020

DIPOLE MOMENT
-------------
                                X             Y             Z
Electronic contribution:      1.81103     -24.10547       4.13237
Nuclear contribution   :     -1.90228      24.90289      -4.19254
                        -----------------------------------------
Total Dipole Moment    :     -0.09125       0.79741      -0.06017
                        -----------------------------------------
Magnitude (a.u.)       :      0.80487
Magnitude (Debye)      :      2.04582

Rotational constants in cm-1:     0.018243     0.008571     0.007735
Rotational constants in MHz :   546.908562   256.948908   231.899988

                             ****ORCA TERMINATED NORMALLY****
TOTAL RUN TIME: 0 days 0 hours 0 minutes 35 seconds 201 msec
