                         Program Version 4.2.1 -  RELEASE  -
|  1> ! wB97X-D3 SP def2-SVP
|  2> %pal
|  3> nprocs 16
|  4> end
|  5>
|  6> * xyz 0 1
|  7> S 	 -76.849 	 41.9 	 137.333
|  8> C 	 -75.8426 	 40.4653 	 137.419
|  9> C 	 -75.12 	 40.2666 	 136.212
| 10> C 	 -75.402 	 41.3444 	 135.269
| 11> C 	 -76.2435 	 42.3077 	 135.78
| 12> H 	 -74.8928 	 41.4951 	 134.265
| 13> C 	 -74.2386 	 39.0569 	 135.957
| 14> H 	 -73.9766 	 39.0352 	 134.887
| 15> H 	 -74.9168 	 38.1591 	 136.111
| 16> C 	 -72.9378 	 38.8476 	 136.744
| 17> H 	 -73.1101 	 38.8352 	 137.87
| 18> H 	 -72.6529 	 37.79 	 136.732
| 19> C 	 -71.7977 	 39.6962 	 136.305
| 20> H 	 -71.4427 	 39.488 	 135.238
| 21> H 	 -72.2463 	 40.7009 	 136.205
| 22> H 	 -70.9438 	 39.8525 	 136.98
| 23> S 	 -76.7654 	 45.0456 	 135.963
| 24> C 	 -77.5594 	 45.8904 	 134.622
| 25> C 	 -77.9287 	 45.0065 	 133.61
| 26> C 	 -77.4968 	 43.6686 	 133.888
| 27> C 	 -76.7548 	 43.4909 	 135.078
| 28> H 	 -78.5377 	 45.3028 	 132.721
| 29> C 	 -77.878 	 42.5491 	 132.972
| 30> H 	 -77.0092 	 41.954 	 132.692
| 31> H 	 -78.2721 	 42.9566 	 132.099
| 32> C 	 -79.0339 	 41.6932 	 133.425
| 33> H 	 -78.6063 	 41.0675 	 134.223
| 34> H 	 -79.3606 	 41.0147 	 132.632
| 35> C 	 -80.2472 	 42.4675 	 133.888
| 36> H 	 -80.8971 	 41.8568 	 134.476
| 37> H 	 -80.7772 	 42.9732 	 133.073
| 38> H 	 -79.9782 	 43.1608 	 134.605
| 39> H 	 -75.969 	 39.6417 	 138.108
| 40> H 	 -77.5905 	 46.9748 	 134.612
| 41> *
| 42>
| 43>                          ****END OF INPUT****

CARTESIAN COORDINATES (ANGSTROEM)
---------------------------------
  S    -76.849000   41.900000  137.333000
  C    -75.842600   40.465300  137.419000
  C    -75.120000   40.266600  136.212000
  C    -75.402000   41.344400  135.269000
  C    -76.243500   42.307700  135.780000
  H    -74.892800   41.495100  134.265000
  C    -74.238600   39.056900  135.957000
  H    -73.976600   39.035200  134.887000
  H    -74.916800   38.159100  136.111000
  C    -72.937800   38.847600  136.744000
  H    -73.110100   38.835200  137.870000
  H    -72.652900   37.790000  136.732000
  C    -71.797700   39.696200  136.305000
  H    -71.442700   39.488000  135.238000
  H    -72.246300   40.700900  136.205000
  H    -70.943800   39.852500  136.980000
  S    -76.765400   45.045600  135.963000
  C    -77.559400   45.890400  134.622000
  C    -77.928700   45.006500  133.610000
  C    -77.496800   43.668600  133.888000
  C    -76.754800   43.490900  135.078000
  H    -78.537700   45.302800  132.721000
  C    -77.878000   42.549100  132.972000
  H    -77.009200   41.954000  132.692000
  H    -78.272100   42.956600  132.099000
  C    -79.033900   41.693200  133.425000
  H    -78.606300   41.067500  134.223000
  H    -79.360600   41.014700  132.632000
  C    -80.247200   42.467500  133.888000
  H    -80.897100   41.856800  134.476000
  H    -80.777200   42.973200  133.073000
  H    -79.978200   43.160800  134.605000
  H    -75.969000   39.641700  138.108000
  H    -77.590500   46.974800  134.612000

 Total Charge           Charge          ....    0
 Multiplicity           Mult            ....    1
 Number of Electrons    NEL             ....  134
 Basis Dimension        Dim             ....  322

ORBITAL ENERGIES
----------------

  NO   OCC          E(Eh)            E(eV)
   0   2.0000     -88.971767     -2421.0449
   1   2.0000     -88.965334     -2420.8698
   2   2.0000     -10.332927      -281.1732
   3   2.0000     -10.331704      -281.1400
   4   2.0000     -10.324812      -280.9524
   5   2.0000     -10.317312      -280.7483
   6   2.0000     -10.311564      -280.5919
   7   2.0000     -10.306599      -280.4568
   8   2.0000     -10.303520      -280.3730
   9   2.0000     -10.302980      -280.3583
  10   2.0000     -10.302293      -280.3397
  11   2.0000     -10.291657      -280.0502
  12   2.0000     -10.281967      -279.7865
  13   2.0000     -10.277754      -279.6719
  14   2.0000     -10.277402      -279.6623
  15   2.0000     -10.262137      -279.2469
  16   2.0000      -8.086593      -220.0474
  17   2.0000      -8.079267      -219.8480
  18   2.0000      -6.045026      -164.4935
  19   2.0000      -6.040996      -164.3839
  20   2.0000      -6.037830      -164.2977
  21   2.0000      -6.037501      -164.2887
  22   2.0000      -6.033795      -164.1879
  23   2.0000      -6.030106      -164.0875
  24   2.0000      -1.004824       -27.3426
  25   2.0000      -0.979493       -26.6534
  26   2.0000      -0.914643       -24.8887
  27   2.0000      -0.912701       -24.8359
  28   2.0000      -0.867436       -23.6041
  29   2.0000      -0.849346       -23.1119
  30   2.0000      -0.843470       -22.9520
  31   2.0000      -0.813609       -22.1394
  32   2.0000      -0.785591       -21.3770
  33   2.0000      -0.772405       -21.0182
  34   2.0000      -0.705878       -19.2079
  35   2.0000      -0.704284       -19.1645
  36   2.0000      -0.683984       -18.6121
  37   2.0000      -0.663577       -18.0568
  38   2.0000      -0.637585       -17.3496
  39   2.0000      -0.609104       -16.5746
  40   2.0000      -0.589632       -16.0447
  41   2.0000      -0.569392       -15.4939
  42   2.0000      -0.564897       -15.3716
  43   2.0000      -0.556022       -15.1301
  44   2.0000      -0.549625       -14.9560
  45   2.0000      -0.534461       -14.5434
  46   2.0000      -0.515732       -14.0338
  47   2.0000      -0.507130       -13.7997
  48   2.0000      -0.502308       -13.6685
  49   2.0000      -0.490239       -13.3401
  50   2.0000      -0.486632       -13.2419
  51   2.0000      -0.481912       -13.1135
  52   2.0000      -0.472026       -12.8445
  53   2.0000      -0.469224       -12.7682
  54   2.0000      -0.457966       -12.4619
  55   2.0000      -0.444263       -12.0890
  56   2.0000      -0.441565       -12.0156
  57   2.0000      -0.438556       -11.9337
  58   2.0000      -0.434986       -11.8366
  59   2.0000      -0.427329       -11.6282
  60   2.0000      -0.416897       -11.3443
  61   2.0000      -0.406612       -11.0645
  62   2.0000      -0.400623       -10.9015
  63   2.0000      -0.347344        -9.4517
  64   2.0000      -0.332939        -9.0597
  65   2.0000      -0.330962        -9.0059
  66   2.0000      -0.290789        -7.9128
  67   0.0000       0.027242         0.7413
  68   0.0000       0.056300         1.5320
  69   0.0000       0.104416         2.8413
  70   0.0000       0.116408         3.1676
  71   0.0000       0.131861         3.5881

MULLIKEN ATOMIC CHARGES
-----------------------
   0 S :    0.129775
   1 C :   -0.111158
   2 C :   -0.111285
   3 C :    0.006686
   4 C :   -0.140807
   5 H :    0.044044
   6 C :    0.022570
   7 H :    0.022799
   8 H :    0.047585
   9 C :   -0.050803
  10 H :    0.025972
  11 H :    0.018387
  12 C :   -0.062716
  13 H :    0.037367
  14 H :    0.028809
  15 H :    0.046044
  16 S :    0.084634
  17 C :   -0.100448
  18 C :   -0.027278
  19 C :   -0.082706
  20 C :   -0.157761
  21 H :    0.042842
  22 C :    0.128762
  23 H :    0.027947
  24 H :   -0.019379
  25 C :   -0.088023
  26 H :    0.031809
  27 H :    0.029234
  28 C :   -0.012446
  29 H :    0.020262
  30 H :    0.028931
  31 H :    0.020054
  32 H :    0.052391
  33 H :    0.067909
Sum of atomic charges:    0.0000000

LOEWDIN ATOMIC CHARGES
----------------------
   0 S :    0.429247
   1 C :   -0.205391
   2 C :   -0.059381
   3 C :   -0.076488
   4 C :   -0.208563
   5 H :    0.044431
   6 C :   -0.039617
   7 H :    0.031611
   8 H :    0.044451
   9 C :   -0.057137
  10 H :    0.031525
  11 H :    0.023535
  12 C :   -0.078660
  13 H :    0.032277
  14 H :    0.029921
  15 H :    0.030888
  16 S :    0.381313
  17 C :   -0.172785
  18 C :   -0.075503
  19 C :   -0.051711
  20 C :   -0.192809
  21 H :    0.042747
  22 C :   -0.032805
  23 H :    0.031991
  24 H :    0.017515
  25 C :   -0.037323
  26 H :    0.024253
  27 H :    0.024114
  28 C :   -0.060570
  29 H :    0.027499
  30 H :    0.025713
  31 H :    0.018076
  32 H :    0.027994
  33 H :    0.029642

  Mayer bond orders larger than 0.100000
B(  0-S ,  1-C ) :   1.1401 B(  0-S ,  4-C ) :   1.1692 B(  1-C ,  2-C ) :   1.5976
B(  1-C , 32-H ) :   0.9667 B(  2-C ,  3-C ) :   1.2416 B(  2-C ,  6-C ) :   1.0240
B(  3-C ,  4-C ) :   1.5757 B(  3-C ,  5-H ) :   0.9814 B(  4-C , 20-C ) :   1.0335
B(  6-C ,  7-H ) :   0.9453 B(  6-C ,  8-H ) :   0.9358 B(  6-C ,  9-C ) :   1.0732
B(  9-C , 10-H ) :   0.9485 B(  9-C , 11-H ) :   0.9481 B(  9-C , 12-C ) :   1.0706
B( 12-C , 13-H ) :   0.9700 B( 12-C , 14-H ) :   0.9761 B( 12-C , 15-H ) :   0.9726
B( 16-S , 17-C ) :   1.1686 B( 16-S , 20-C ) :   1.1283 B( 17-C , 18-C ) :   1.5751
B( 17-C , 20-C ) :   0.1073 B( 17-C , 33-H ) :   0.9677 B( 18-C , 19-C ) :   1.2655
B( 18-C , 21-H ) :   0.9810 B( 19-C , 20-C ) :   1.5634 B( 19-C , 22-C ) :   1.0507
B( 22-C , 23-H ) :   0.9350 B( 22-C , 24-H ) :   0.9181 B( 22-C , 25-C ) :   1.0680
B( 25-C , 26-H ) :   0.9552 B( 25-C , 27-H ) :   0.9575 B( 25-C , 28-C ) :   1.0878
B( 28-C , 29-H ) :   0.9663 B( 28-C , 30-H ) :   0.9737 B( 28-C , 31-H ) :   0.9654

Dispersion correction           -0.015194132
FINAL SINGLE POINT ENERGY     -1339.874815703711

DIPOLE MOMENT
-------------
                                X             Y             Z
Electronic contribution:     -4.41376      16.99351       9.87675
Nuclear contribution   :      4.37425     -17.38427     -10.29138
                        -----------------------------------------
Total Dipole Moment    :     -0.03951      -0.39076      -0.41463
                        -----------------------------------------
Magnitude (a.u.)       :      0.57111
Magnitude (Debye)      :      1.45165

Rotational constants in cm-1:     0.022968     0.007751     0.007078
Rotational constants in MHz :   688.566202   232.380326   212.204741

                             ****ORCA TERMINATED NORMALLY****
TOTAL RUN TIME: 0 days 0 hours 0 minutes 35 seconds 286 msec
