                         Program Version 4.2.1 -  RELEASE  -
|  1> ! wB97X-D3 SP def2-SVP
|  2> %pal
|  3> nprocs 16
|  4> end
|  5>
|  6> * xyz 0 1
|  7> S 	 -64.1374 	 51.4026 	 124.634
|  8> C 	 -63.9956 	 51.1871 	 126.367
|  9> C 	 -65.176 	 51.6551 	 126.975
| 10> C 	 -66.0844 	 52.2271 	 126.058
| 11> C 	 -65.7358 	 52.0093 	 124.704
| 12> H 	 -67.1276 	 52.5416 	 126.378
| 13> C 	 -65.4431 	 51.5246 	 128.437
| 14> H 	 -65.765 	 52.447 	 128.832
| 15> H 	 -64.5713 	 51.3939 	 129.022
| 16> C 	 -66.5199 	 50.5135 	 128.717
| 17> H 	 -67.4818 	 50.82 	 128.254
| 18> H 	 -66.2102 	 49.6332 	 128.229
| 19> C 	 -66.7796 	 50.1758 	 130.127
| 20> H 	 -67.5795 	 49.4067 	 130.299
| 21> H 	 -65.85 	 49.8662 	 130.599
| 22> H 	 -67.3612 	 50.8766 	 130.703
| 23> S 	 -65.7816 	 53.4305 	 122.356
| 24> C 	 -67.2997 	 53.6743 	 121.474
| 25> C 	 -68.3016 	 52.9533 	 122.081
| 26> C 	 -67.9147 	 52.1557 	 123.239
| 27> C 	 -66.5419 	 52.3219 	 123.467
| 28> H 	 -69.2421 	 53.0045 	 121.688
| 29> C 	 -68.9503 	 51.4347 	 124.111
| 30> H 	 -69.7685 	 52.2002 	 124.365
| 31> H 	 -68.4061 	 51.018 	 125.012
| 32> C 	 -69.5097 	 50.2347 	 123.473
| 33> H 	 -68.6942 	 49.7114 	 123.033
| 34> H 	 -70.1328 	 50.5357 	 122.606
| 35> C 	 -70.4771 	 49.3139 	 124.327
| 36> H 	 -70.7104 	 48.3666 	 123.771
| 37> H 	 -71.4349 	 49.8249 	 124.659
| 38> H 	 -69.9222 	 48.8339 	 125.18
| 39> H 	 -63.1619 	 50.7456 	 126.961
| 40> H 	 -67.3886 	 54.2046 	 120.561
| 41> *
| 42>
| 43>                          ****END OF INPUT****

CARTESIAN COORDINATES (ANGSTROEM)
---------------------------------
  S    -64.137400   51.402600  124.634000
  C    -63.995600   51.187100  126.367000
  C    -65.176000   51.655100  126.975000
  C    -66.084400   52.227100  126.058000
  C    -65.735800   52.009300  124.704000
  H    -67.127600   52.541600  126.378000
  C    -65.443100   51.524600  128.437000
  H    -65.765000   52.447000  128.832000
  H    -64.571300   51.393900  129.022000
  C    -66.519900   50.513500  128.717000
  H    -67.481800   50.820000  128.254000
  H    -66.210200   49.633200  128.229000
  C    -66.779600   50.175800  130.127000
  H    -67.579500   49.406700  130.299000
  H    -65.850000   49.866200  130.599000
  H    -67.361200   50.876600  130.703000
  S    -65.781600   53.430500  122.356000
  C    -67.299700   53.674300  121.474000
  C    -68.301600   52.953300  122.081000
  C    -67.914700   52.155700  123.239000
  C    -66.541900   52.321900  123.467000
  H    -69.242100   53.004500  121.688000
  C    -68.950300   51.434700  124.111000
  H    -69.768500   52.200200  124.365000
  H    -68.406100   51.018000  125.012000
  C    -69.509700   50.234700  123.473000
  H    -68.694200   49.711400  123.033000
  H    -70.132800   50.535700  122.606000
  C    -70.477100   49.313900  124.327000
  H    -70.710400   48.366600  123.771000
  H    -71.434900   49.824900  124.659000
  H    -69.922200   48.833900  125.180000
  H    -63.161900   50.745600  126.961000
  H    -67.388600   54.204600  120.561000

 Total Charge           Charge          ....    0
 Multiplicity           Mult            ....    1
 Number of Electrons    NEL             ....  134
 Basis Dimension        Dim             ....  322

ORBITAL ENERGIES
----------------

  NO   OCC          E(Eh)            E(eV)
   0   2.0000     -88.969059     -2420.9712
   1   2.0000     -88.965829     -2420.8833
   2   2.0000     -10.335033      -281.2305
   3   2.0000     -10.334909      -281.2272
   4   2.0000     -10.318781      -280.7883
   5   2.0000     -10.317887      -280.7640
   6   2.0000     -10.311601      -280.5929
   7   2.0000     -10.301621      -280.3214
   8   2.0000     -10.299864      -280.2735
   9   2.0000     -10.299049      -280.2514
  10   2.0000     -10.293921      -280.1118
  11   2.0000     -10.292269      -280.0669
  12   2.0000     -10.284950      -279.8677
  13   2.0000     -10.280123      -279.7364
  14   2.0000     -10.278246      -279.6853
  15   2.0000     -10.276255      -279.6311
  16   2.0000      -8.083946      -219.9753
  17   2.0000      -8.080437      -219.8799
  18   2.0000      -6.042357      -164.4209
  19   2.0000      -6.039076      -164.3316
  20   2.0000      -6.038226      -164.3085
  21   2.0000      -6.035003      -164.2208
  22   2.0000      -6.034872      -164.2172
  23   2.0000      -6.031150      -164.1159
  24   2.0000      -1.005326       -27.3563
  25   2.0000      -0.983933       -26.7742
  26   2.0000      -0.923837       -25.1389
  27   2.0000      -0.912428       -24.8284
  28   2.0000      -0.868619       -23.6363
  29   2.0000      -0.849619       -23.1193
  30   2.0000      -0.843165       -22.9437
  31   2.0000      -0.813815       -22.1450
  32   2.0000      -0.785332       -21.3700
  33   2.0000      -0.774055       -21.0631
  34   2.0000      -0.706767       -19.2321
  35   2.0000      -0.695570       -18.9274
  36   2.0000      -0.691183       -18.8080
  37   2.0000      -0.663974       -18.0676
  38   2.0000      -0.637656       -17.3515
  39   2.0000      -0.621481       -16.9113
  40   2.0000      -0.597798       -16.2669
  41   2.0000      -0.574888       -15.6435
  42   2.0000      -0.574142       -15.6232
  43   2.0000      -0.568704       -15.4752
  44   2.0000      -0.528986       -14.3945
  45   2.0000      -0.522181       -14.2093
  46   2.0000      -0.520186       -14.1550
  47   2.0000      -0.509139       -13.8544
  48   2.0000      -0.502023       -13.6607
  49   2.0000      -0.497463       -13.5366
  50   2.0000      -0.495415       -13.4809
  51   2.0000      -0.487160       -13.2563
  52   2.0000      -0.468263       -12.7421
  53   2.0000      -0.467116       -12.7109
  54   2.0000      -0.456381       -12.4188
  55   2.0000      -0.450704       -12.2643
  56   2.0000      -0.446675       -12.1546
  57   2.0000      -0.436857       -11.8875
  58   2.0000      -0.428525       -11.6608
  59   2.0000      -0.424169       -11.5422
  60   2.0000      -0.418568       -11.3898
  61   2.0000      -0.408562       -11.1175
  62   2.0000      -0.407685       -11.0937
  63   2.0000      -0.345492        -9.4013
  64   2.0000      -0.331616        -9.0237
  65   2.0000      -0.328892        -8.9496
  66   2.0000      -0.296133        -8.0582
  67   0.0000       0.029800         0.8109
  68   0.0000       0.070058         1.9064
  69   0.0000       0.109629         2.9832
  70   0.0000       0.114798         3.1238
  71   0.0000       0.131650         3.5824

MULLIKEN ATOMIC CHARGES
-----------------------
   0 S :    0.120482
   1 C :   -0.126852
   2 C :   -0.133419
   3 C :    0.033343
   4 C :   -0.177365
   5 H :    0.037954
   6 C :    0.133493
   7 H :    0.001273
   8 H :   -0.005797
   9 C :   -0.058576
  10 H :    0.023023
  11 H :    0.015026
  12 C :   -0.035729
  13 H :    0.024296
  14 H :    0.033388
  15 H :    0.015761
  16 S :    0.098368
  17 C :   -0.078120
  18 C :   -0.004489
  19 C :   -0.050383
  20 C :   -0.126912
  21 H :   -0.015138
  22 C :    0.062733
  23 H :    0.049382
  24 H :    0.035367
  25 C :   -0.088145
  26 H :    0.027528
  27 H :    0.023663
  28 C :   -0.078546
  29 H :    0.040718
  30 H :    0.053848
  31 H :    0.034396
  32 H :    0.064432
  33 H :    0.050997
Sum of atomic charges:    0.0000000

LOEWDIN ATOMIC CHARGES
----------------------
   0 S :    0.432469
   1 C :   -0.216450
   2 C :   -0.060453
   3 C :   -0.074529
   4 C :   -0.210163
   5 H :    0.039670
   6 C :   -0.028381
   7 H :    0.025858
   8 H :    0.023376
   9 C :   -0.040741
  10 H :    0.026536
  11 H :    0.019729
  12 C :   -0.074249
  13 H :    0.035469
  14 H :    0.025171
  15 H :    0.022948
  16 S :    0.399516
  17 C :   -0.169830
  18 C :   -0.056093
  19 C :   -0.052336
  20 C :   -0.198387
  21 H :    0.014046
  22 C :   -0.040054
  23 H :    0.041166
  24 H :    0.037980
  25 C :   -0.050559
  26 H :    0.024482
  27 H :    0.022669
  28 C :   -0.079846
  29 H :    0.033603
  30 H :    0.033587
  31 H :    0.027180
  32 H :    0.041077
  33 H :    0.025538

  Mayer bond orders larger than 0.100000
B(  0-S ,  1-C ) :   1.1443 B(  0-S ,  4-C ) :   1.1981 B(  1-C ,  2-C ) :   1.5657
B(  1-C ,  4-C ) :   0.1094 B(  1-C , 32-H ) :   0.9659 B(  2-C ,  3-C ) :   1.2946
B(  2-C ,  6-C ) :   1.0441 B(  3-C ,  4-C ) :   1.5115 B(  3-C ,  5-H ) :   0.9783
B(  4-C , 20-C ) :   0.9874 B(  6-C ,  7-H ) :   0.9227 B(  6-C ,  8-H ) :   0.9341
B(  6-C ,  9-C ) :   1.0586 B(  9-C , 10-H ) :   0.9488 B(  9-C , 11-H ) :   0.9527
B(  9-C , 12-C ) :   1.1075 B( 12-C , 13-H ) :   0.9644 B( 12-C , 14-H ) :   0.9708
B( 12-C , 15-H ) :   0.9657 B( 16-S , 17-C ) :   1.1361 B( 16-S , 20-C ) :   1.1578
B( 17-C , 18-C ) :   1.6258 B( 17-C , 33-H ) :   0.9740 B( 18-C , 19-C ) :   1.2150
B( 18-C , 21-H ) :   1.0026 B( 19-C , 20-C ) :   1.6097 B( 19-C , 22-C ) :   1.0402
B( 22-C , 23-H ) :   0.9335 B( 22-C , 24-H ) :   0.9276 B( 22-C , 25-C ) :   1.0703
B( 25-C , 26-H ) :   0.9508 B( 25-C , 27-H ) :   0.9528 B( 25-C , 28-C ) :   1.0796
B( 28-C , 29-H ) :   0.9736 B( 28-C , 30-H ) :   0.9733 B( 28-C , 31-H ) :   0.9734

Dispersion correction           -0.013768191
FINAL SINGLE POINT ENERGY     -1339.861590828751

DIPOLE MOMENT
-------------
                                X             Y             Z
Electronic contribution:     20.58880      14.21083     -20.86982
Nuclear contribution   :    -21.21188     -14.38058      21.24223
                        -----------------------------------------
Total Dipole Moment    :     -0.62308      -0.16975       0.37240
                        -----------------------------------------
Magnitude (a.u.)       :      0.74547
Magnitude (Debye)      :      1.89483

Rotational constants in cm-1:     0.016413     0.009207     0.006487
Rotational constants in MHz :   492.038658   276.022913   194.469670

                             ****ORCA TERMINATED NORMALLY****
TOTAL RUN TIME: 0 days 0 hours 0 minutes 33 seconds 692 msec
