                         Program Version 4.2.1 -  RELEASE  -
|  1> ! wB97X-D3 SP def2-SVP
|  2> %pal
|  3> nprocs 16
|  4> end
|  5>
|  6> * xyz 0 1
|  7> S 	 1.55584 	 -26.0753 	 85.2368
|  8> C 	 1.27353 	 -27.2869 	 83.9827
|  9> C 	 1.57695 	 -28.5886 	 84.4121
| 10> C 	 1.89993 	 -28.5839 	 85.8133
| 11> C 	 1.96199 	 -27.3502 	 86.3783
| 12> H 	 2.07027 	 -29.5093 	 86.422
| 13> C 	 1.32301 	 -29.8365 	 83.508
| 14> H 	 2.04496 	 -30.6234 	 83.5494
| 15> H 	 1.2473 	 -29.3854 	 82.4945
| 16> C 	 -0.0864306 	 -30.3539 	 83.7102
| 17> H 	 -0.197114 	 -30.7025 	 84.7239
| 18> H 	 -0.945318 	 -29.6266 	 83.5901
| 19> C 	 -0.469118 	 -31.5935 	 82.7825
| 20> H 	 -0.118752 	 -31.5007 	 81.768
| 21> H 	 -0.0539774 	 -32.6479 	 83.0156
| 22> H 	 -1.54508 	 -31.6896 	 82.703
| 23> S 	 3.87034 	 -27.7037 	 88.321
| 24> C 	 3.769 	 -26.9953 	 89.8719
| 25> C 	 2.5198 	 -26.4278 	 90.0248
| 26> C 	 1.61424 	 -26.4995 	 88.9196
| 27> C 	 2.20119 	 -27.1361 	 87.8051
| 28> H 	 2.12766 	 -26.0142 	 90.9788
| 29> C 	 0.204455 	 -25.9736 	 89.0572
| 30> H 	 -0.0349557 	 -25.8667 	 90.1039
| 31> H 	 -0.396705 	 -26.8112 	 88.5761
| 32> C 	 -0.0262106 	 -24.6642 	 88.4491
| 33> H 	 -1.06624 	 -24.3636 	 88.6943
| 34> H 	 0.0458008 	 -24.6596 	 87.3811
| 35> C 	 0.785696 	 -23.5444 	 89.1075
| 36> H 	 1.78989 	 -23.8302 	 89.3496
| 37> H 	 0.32902 	 -23.2964 	 90.0895
| 38> H 	 0.849286 	 -22.7011 	 88.5441
| 39> H 	 1.04498 	 -27.0148 	 82.9356
| 40> H 	 4.44885 	 -26.9454 	 90.7072
| 41> *
| 42>
| 43>                          ****END OF INPUT****

CARTESIAN COORDINATES (ANGSTROEM)
---------------------------------
  S      1.555840  -26.075300   85.236800
  C      1.273530  -27.286900   83.982700
  C      1.576950  -28.588600   84.412100
  C      1.899930  -28.583900   85.813300
  C      1.961990  -27.350200   86.378300
  H      2.070270  -29.509300   86.422000
  C      1.323010  -29.836500   83.508000
  H      2.044960  -30.623400   83.549400
  H      1.247300  -29.385400   82.494500
  C     -0.086431  -30.353900   83.710200
  H     -0.197114  -30.702500   84.723900
  H     -0.945318  -29.626600   83.590100
  C     -0.469118  -31.593500   82.782500
  H     -0.118752  -31.500700   81.768000
  H     -0.053977  -32.647900   83.015600
  H     -1.545080  -31.689600   82.703000
  S      3.870340  -27.703700   88.321000
  C      3.769000  -26.995300   89.871900
  C      2.519800  -26.427800   90.024800
  C      1.614240  -26.499500   88.919600
  C      2.201190  -27.136100   87.805100
  H      2.127660  -26.014200   90.978800
  C      0.204455  -25.973600   89.057200
  H     -0.034956  -25.866700   90.103900
  H     -0.396705  -26.811200   88.576100
  C     -0.026211  -24.664200   88.449100
  H     -1.066240  -24.363600   88.694300
  H      0.045801  -24.659600   87.381100
  C      0.785696  -23.544400   89.107500
  H      1.789890  -23.830200   89.349600
  H      0.329020  -23.296400   90.089500
  H      0.849286  -22.701100   88.544100
  H      1.044980  -27.014800   82.935600
  H      4.448850  -26.945400   90.707200

 Total Charge           Charge          ....    0
 Multiplicity           Mult            ....    1
 Number of Electrons    NEL             ....  134
 Basis Dimension        Dim             ....  322

ORBITAL ENERGIES
----------------

  NO   OCC          E(Eh)            E(eV)
   0   2.0000     -88.971998     -2421.0512
   1   2.0000     -88.963391     -2420.8169
   2   2.0000     -10.334196      -281.2078
   3   2.0000     -10.331262      -281.1279
   4   2.0000     -10.322229      -280.8821
   5   2.0000     -10.315681      -280.7039
   6   2.0000     -10.310464      -280.5620
   7   2.0000     -10.305760      -280.4340
   8   2.0000     -10.300701      -280.2963
   9   2.0000     -10.298502      -280.2365
  10   2.0000     -10.294135      -280.1177
  11   2.0000     -10.291530      -280.0468
  12   2.0000     -10.289953      -280.0039
  13   2.0000     -10.284567      -279.8573
  14   2.0000     -10.277516      -279.6654
  15   2.0000     -10.264113      -279.3007
  16   2.0000      -8.085812      -220.0261
  17   2.0000      -8.077479      -219.7994
  18   2.0000      -6.044379      -164.4759
  19   2.0000      -6.040500      -164.3704
  20   2.0000      -6.036495      -164.2614
  21   2.0000      -6.036077      -164.2500
  22   2.0000      -6.031893      -164.1361
  23   2.0000      -6.028324      -164.0390
  24   2.0000      -1.002567       -27.2812
  25   2.0000      -0.981079       -26.6965
  26   2.0000      -0.919775       -25.0283
  27   2.0000      -0.908797       -24.7296
  28   2.0000      -0.866464       -23.5777
  29   2.0000      -0.847448       -23.0602
  30   2.0000      -0.843450       -22.9514
  31   2.0000      -0.808419       -21.9982
  32   2.0000      -0.786534       -21.4027
  33   2.0000      -0.773202       -21.0399
  34   2.0000      -0.709768       -19.3138
  35   2.0000      -0.697673       -18.9846
  36   2.0000      -0.688138       -18.7252
  37   2.0000      -0.664067       -18.0702
  38   2.0000      -0.637815       -17.3558
  39   2.0000      -0.614893       -16.7321
  40   2.0000      -0.592125       -16.1125
  41   2.0000      -0.571540       -15.5524
  42   2.0000      -0.563727       -15.3398
  43   2.0000      -0.554414       -15.0864
  44   2.0000      -0.548619       -14.9287
  45   2.0000      -0.523574       -14.2472
  46   2.0000      -0.511922       -13.9301
  47   2.0000      -0.509684       -13.8692
  48   2.0000      -0.502569       -13.6756
  49   2.0000      -0.493827       -13.4377
  50   2.0000      -0.484195       -13.1756
  51   2.0000      -0.479543       -13.0490
  52   2.0000      -0.471081       -12.8188
  53   2.0000      -0.462791       -12.5932
  54   2.0000      -0.457872       -12.4593
  55   2.0000      -0.449845       -12.2409
  56   2.0000      -0.446909       -12.1610
  57   2.0000      -0.443939       -12.0802
  58   2.0000      -0.431113       -11.7312
  59   2.0000      -0.421694       -11.4749
  60   2.0000      -0.419592       -11.4177
  61   2.0000      -0.413070       -11.2402
  62   2.0000      -0.402430       -10.9507
  63   2.0000      -0.345612        -9.4046
  64   2.0000      -0.332684        -9.0528
  65   2.0000      -0.328320        -8.9341
  66   2.0000      -0.294629        -8.0173
  67   0.0000       0.029447         0.8013
  68   0.0000       0.060884         1.6567
  69   0.0000       0.104888         2.8541
  70   0.0000       0.110584         3.0092
  71   0.0000       0.132636         3.6092

MULLIKEN ATOMIC CHARGES
-----------------------
   0 S :    0.125033
   1 C :   -0.149997
   2 C :   -0.072601
   3 C :   -0.003080
   4 C :   -0.115682
   5 H :    0.037873
   6 C :    0.093717
   7 H :    0.037057
   8 H :    0.022728
   9 C :   -0.091824
  10 H :    0.026345
  11 H :    0.043660
  12 C :   -0.076340
  13 H :    0.018127
  14 H :    0.039146
  15 H :    0.034112
  16 S :    0.095188
  17 C :   -0.054750
  18 C :   -0.071387
  19 C :   -0.060502
  20 C :   -0.196271
  21 H :    0.022334
  22 C :    0.087898
  23 H :    0.008454
  24 H :    0.052324
  25 C :   -0.054276
  26 H :    0.027985
  27 H :    0.021730
  28 C :   -0.023199
  29 H :    0.024848
  30 H :    0.018774
  31 H :    0.013675
  32 H :    0.064673
  33 H :    0.054230
Sum of atomic charges:    0.0000000

LOEWDIN ATOMIC CHARGES
----------------------
   0 S :    0.406055
   1 C :   -0.196007
   2 C :   -0.056758
   3 C :   -0.067241
   4 C :   -0.203529
   5 H :    0.041364
   6 C :   -0.024719
   7 H :    0.029354
   8 H :    0.036167
   9 C :   -0.042560
  10 H :    0.019750
  11 H :    0.034761
  12 C :   -0.080935
  13 H :    0.017726
  14 H :    0.032367
  15 H :    0.024823
  16 S :    0.398430
  17 C :   -0.200649
  18 C :   -0.086750
  19 C :   -0.054036
  20 C :   -0.173838
  21 H :    0.030326
  22 C :   -0.032332
  23 H :    0.028481
  24 H :    0.046356
  25 C :   -0.042216
  26 H :    0.029859
  27 H :    0.010362
  28 C :   -0.055121
  29 H :    0.021126
  30 H :    0.027416
  31 H :    0.013299
  32 H :    0.032401
  33 H :    0.036270

  Mayer bond orders larger than 0.100000
B(  0-S ,  1-C ) :   1.1429 B(  0-S ,  4-C ) :   1.1254 B(  1-C ,  2-C ) :   1.6129
B(  1-C , 32-H ) :   0.9596 B(  2-C ,  3-C ) :   1.2301 B(  2-C ,  6-C ) :   1.0279
B(  3-C ,  4-C ) :   1.5924 B(  3-C ,  5-H ) :   0.9837 B(  4-C , 20-C ) :   1.0376
B(  6-C ,  7-H ) :   0.9476 B(  6-C ,  8-H ) :   0.9360 B(  6-C ,  9-C ) :   1.0592
B(  9-C , 10-H ) :   0.9585 B(  9-C , 11-H ) :   0.9600 B(  9-C , 12-C ) :   1.0594
B( 12-C , 13-H ) :   0.9765 B( 12-C , 14-H ) :   0.9768 B( 12-C , 15-H ) :   0.9791
B( 16-S , 17-C ) :   1.1610 B( 16-S , 20-C ) :   1.1266 B( 17-C , 18-C ) :   1.5872
B( 17-C , 20-C ) :   0.1035 B( 17-C , 33-H ) :   0.9650 B( 18-C , 19-C ) :   1.2690
B( 18-C , 21-H ) :   0.9734 B( 19-C , 20-C ) :   1.5745 B( 19-C , 22-C ) :   1.0274
B( 22-C , 23-H ) :   0.9284 B( 22-C , 24-H ) :   0.9316 B( 22-C , 25-C ) :   1.0923
B( 25-C , 26-H ) :   0.9529 B( 25-C , 27-H ) :   0.9534 B( 25-C , 28-C ) :   1.0659
B( 28-C , 29-H ) :   0.9763 B( 28-C , 30-H ) :   0.9732 B( 28-C , 31-H ) :   0.9714

Dispersion correction           -0.014378860
FINAL SINGLE POINT ENERGY     -1339.864346994437

DIPOLE MOMENT
-------------
                                X             Y             Z
Electronic contribution:     16.28920       4.55046       4.68685
Nuclear contribution   :    -16.68840      -4.70480      -4.69149
                        -----------------------------------------
Total Dipole Moment    :     -0.39920      -0.15433      -0.00464
                        -----------------------------------------
Magnitude (a.u.)       :      0.42802
Magnitude (Debye)      :      1.08793

Rotational constants in cm-1:     0.022657     0.007339     0.006446
Rotational constants in MHz :   679.240482   220.019773   193.254644

                             ****ORCA TERMINATED NORMALLY****
TOTAL RUN TIME: 0 days 0 hours 0 minutes 31 seconds 255 msec
