                         Program Version 4.2.1 -  RELEASE  -
|  1> ! wB97X-D3 SP def2-SVP
|  2> %pal
|  3> nprocs 16
|  4> end
|  5>
|  6> * xyz 0 1
|  7> S 	 -110.754 	 57.2039 	 106.046
|  8> C 	 -110.639 	 55.4394 	 105.918
|  9> C 	 -110.844 	 54.8081 	 107.129
| 10> C 	 -110.993 	 55.7788 	 108.149
| 11> C 	 -110.995 	 57.0833 	 107.767
| 12> H 	 -111.171 	 55.4742 	 109.181
| 13> C 	 -110.622 	 53.3126 	 107.278
| 14> H 	 -110.922 	 52.8405 	 106.337
| 15> H 	 -111.36 	 52.8197 	 107.985
| 16> C 	 -109.111 	 52.8854 	 107.621
| 17> H 	 -108.974 	 51.8009 	 107.487
| 18> H 	 -108.5 	 53.2786 	 106.829
| 19> C 	 -108.608 	 53.4038 	 108.878
| 20> H 	 -109.077 	 52.9165 	 109.774
| 21> H 	 -107.552 	 53.1937 	 109.059
| 22> H 	 -108.633 	 54.473 	 109.091
| 23> S 	 -110.556 	 59.767 	 107.91
| 24> C 	 -111.199 	 60.6634 	 109.36
| 25> C 	 -111.796 	 59.8561 	 110.285
| 26> C 	 -111.757 	 58.4532 	 109.855
| 27> C 	 -111.126 	 58.2736 	 108.613
| 28> H 	 -112.227 	 60.419 	 111.084
| 29> C 	 -112.542 	 57.425 	 110.707
| 30> H 	 -112.796 	 56.808 	 109.794
| 31> H 	 -113.369 	 57.9201 	 111.122
| 32> C 	 -111.783 	 56.6497 	 111.729
| 33> H 	 -111.031 	 56.0532 	 111.223
| 34> H 	 -112.448 	 55.9452 	 112.274
| 35> C 	 -111.2 	 57.5659 	 112.826
| 36> H 	 -111.009 	 58.5847 	 112.455
| 37> H 	 -110.431 	 57.175 	 113.415
| 38> H 	 -112.013 	 57.7418 	 113.564
| 39> H 	 -110.459 	 54.9268 	 104.936
| 40> H 	 -111.091 	 61.7598 	 109.46
| 41> *
| 42>
| 43>                          ****END OF INPUT****

CARTESIAN COORDINATES (ANGSTROEM)
---------------------------------
  S    -110.754000   57.203900  106.046000
  C    -110.639000   55.439400  105.918000
  C    -110.844000   54.808100  107.129000
  C    -110.993000   55.778800  108.149000
  C    -110.995000   57.083300  107.767000
  H    -111.171000   55.474200  109.181000
  C    -110.622000   53.312600  107.278000
  H    -110.922000   52.840500  106.337000
  H    -111.360000   52.819700  107.985000
  C    -109.111000   52.885400  107.621000
  H    -108.974000   51.800900  107.487000
  H    -108.500000   53.278600  106.829000
  C    -108.608000   53.403800  108.878000
  H    -109.077000   52.916500  109.774000
  H    -107.552000   53.193700  109.059000
  H    -108.633000   54.473000  109.091000
  S    -110.556000   59.767000  107.910000
  C    -111.199000   60.663400  109.360000
  C    -111.796000   59.856100  110.285000
  C    -111.757000   58.453200  109.855000
  C    -111.126000   58.273600  108.613000
  H    -112.227000   60.419000  111.084000
  C    -112.542000   57.425000  110.707000
  H    -112.796000   56.808000  109.794000
  H    -113.369000   57.920100  111.122000
  C    -111.783000   56.649700  111.729000
  H    -111.031000   56.053200  111.223000
  H    -112.448000   55.945200  112.274000
  C    -111.200000   57.565900  112.826000
  H    -111.009000   58.584700  112.455000
  H    -110.431000   57.175000  113.415000
  H    -112.013000   57.741800  113.564000
  H    -110.459000   54.926800  104.936000
  H    -111.091000   61.759800  109.460000

 Total Charge           Charge          ....    0
 Multiplicity           Mult            ....    1
 Number of Electrons    NEL             ....  134
 Basis Dimension        Dim             ....  322

ORBITAL ENERGIES
----------------

  NO   OCC          E(Eh)            E(eV)
   0   2.0000     -88.967819     -2420.9374
   1   2.0000     -88.965907     -2420.8854
   2   2.0000     -10.333449      -281.1874
   3   2.0000     -10.330101      -281.0963
   4   2.0000     -10.323212      -280.9089
   5   2.0000     -10.320018      -280.8220
   6   2.0000     -10.312843      -280.6267
   7   2.0000     -10.303112      -280.3619
   8   2.0000     -10.302301      -280.3399
   9   2.0000     -10.297699      -280.2146
  10   2.0000     -10.292105      -280.0624
  11   2.0000     -10.290750      -280.0256
  12   2.0000     -10.289077      -279.9800
  13   2.0000     -10.288056      -279.9522
  14   2.0000     -10.274105      -279.5726
  15   2.0000     -10.273909      -279.5673
  16   2.0000      -8.082460      -219.9349
  17   2.0000      -8.079963      -219.8670
  18   2.0000      -6.041035      -164.3849
  19   2.0000      -6.038648      -164.3200
  20   2.0000      -6.037075      -164.2772
  21   2.0000      -6.034748      -164.2138
  22   2.0000      -6.033060      -164.1679
  23   2.0000      -6.030404      -164.0956
  24   2.0000      -1.007737       -27.4219
  25   2.0000      -0.979788       -26.6614
  26   2.0000      -0.913764       -24.8648
  27   2.0000      -0.909437       -24.7470
  28   2.0000      -0.873453       -23.7679
  29   2.0000      -0.850787       -23.1511
  30   2.0000      -0.842950       -22.9378
  31   2.0000      -0.820096       -22.3159
  32   2.0000      -0.784221       -21.3397
  33   2.0000      -0.771377       -20.9902
  34   2.0000      -0.709644       -19.3104
  35   2.0000      -0.703204       -19.1351
  36   2.0000      -0.688438       -18.7334
  37   2.0000      -0.665637       -18.1129
  38   2.0000      -0.635181       -17.2842
  39   2.0000      -0.623262       -16.9598
  40   2.0000      -0.586845       -15.9689
  41   2.0000      -0.572466       -15.5776
  42   2.0000      -0.560983       -15.2651
  43   2.0000      -0.549196       -14.9444
  44   2.0000      -0.546189       -14.8626
  45   2.0000      -0.543838       -14.7986
  46   2.0000      -0.517113       -14.0714
  47   2.0000      -0.507207       -13.8018
  48   2.0000      -0.498789       -13.5727
  49   2.0000      -0.495426       -13.4812
  50   2.0000      -0.489963       -13.3326
  51   2.0000      -0.482669       -13.1341
  52   2.0000      -0.473428       -12.8826
  53   2.0000      -0.465105       -12.6562
  54   2.0000      -0.455134       -12.3848
  55   2.0000      -0.448751       -12.2111
  56   2.0000      -0.446281       -12.1439
  57   2.0000      -0.441037       -12.0012
  58   2.0000      -0.429487       -11.6869
  59   2.0000      -0.422677       -11.5016
  60   2.0000      -0.421446       -11.4681
  61   2.0000      -0.411880       -11.2078
  62   2.0000      -0.400402       -10.8955
  63   2.0000      -0.360676        -9.8145
  64   2.0000      -0.337311        -9.1787
  65   2.0000      -0.329622        -8.9695
  66   2.0000      -0.285529        -7.7696
  67   0.0000       0.021320         0.5802
  68   0.0000       0.076616         2.0848
  69   0.0000       0.093450         2.5429
  70   0.0000       0.118731         3.2308
  71   0.0000       0.133827         3.6416

MULLIKEN ATOMIC CHARGES
-----------------------
   0 S :    0.101902
   1 C :   -0.150856
   2 C :   -0.065303
   3 C :   -0.008355
   4 C :   -0.107501
   5 H :   -0.005125
   6 C :    0.030354
   7 H :    0.019794
   8 H :    0.036733
   9 C :   -0.019878
  10 H :    0.033938
  11 H :    0.017207
  12 C :   -0.066951
  13 H :    0.022030
  14 H :    0.024434
  15 H :    0.044114
  16 S :    0.076746
  17 C :   -0.114932
  18 C :   -0.015497
  19 C :   -0.087918
  20 C :   -0.098033
  21 H :    0.022891
  22 C :    0.054876
  23 H :    0.044024
  24 H :    0.014349
  25 C :   -0.035165
  26 H :    0.031953
  27 H :    0.036588
  28 C :   -0.049188
  29 H :    0.034776
  30 H :    0.028181
  31 H :    0.015773
  32 H :    0.067941
  33 H :    0.066097
Sum of atomic charges:    0.0000000

LOEWDIN ATOMIC CHARGES
----------------------
   0 S :    0.394043
   1 C :   -0.187307
   2 C :   -0.067734
   3 C :   -0.071645
   4 C :   -0.192526
   5 H :    0.028674
   6 C :   -0.034204
   7 H :    0.030360
   8 H :    0.033645
   9 C :   -0.039143
  10 H :    0.030204
  11 H :    0.023836
  12 C :   -0.079110
  13 H :    0.026775
  14 H :    0.029212
  15 H :    0.029808
  16 S :    0.364725
  17 C :   -0.160383
  18 C :   -0.073413
  19 C :   -0.050618
  20 C :   -0.191690
  21 H :    0.036148
  22 C :   -0.031743
  23 H :    0.043613
  24 H :    0.022666
  25 C :   -0.040573
  26 H :    0.018701
  27 H :    0.029978
  28 C :   -0.065923
  29 H :    0.027544
  30 H :    0.018460
  31 H :    0.027787
  32 H :    0.037286
  33 H :    0.032545

  Mayer bond orders larger than 0.100000
B(  0-S ,  1-C ) :   1.1369 B(  0-S ,  4-C ) :   1.1353 B(  1-C ,  2-C ) :   1.6021
B(  1-C , 32-H ) :   0.9601 B(  2-C ,  3-C ) :   1.2575 B(  2-C ,  6-C ) :   1.0366
B(  3-C ,  4-C ) :   1.5683 B(  3-C ,  5-H ) :   0.9879 B(  4-C , 20-C ) :   1.0685
B(  6-C ,  7-H ) :   0.9374 B(  6-C ,  8-H ) :   0.9430 B(  6-C ,  9-C ) :   1.0541
B(  9-C , 10-H ) :   0.9519 B(  9-C , 11-H ) :   0.9489 B(  9-C , 12-C ) :   1.0972
B( 12-C , 13-H ) :   0.9703 B( 12-C , 14-H ) :   0.9647 B( 12-C , 15-H ) :   0.9686
B( 16-S , 17-C ) :   1.1184 B( 16-S , 20-C ) :   1.1211 B( 17-C , 18-C ) :   1.6796
B( 17-C , 33-H ) :   0.9607 B( 18-C , 19-C ) :   1.1722 B( 18-C , 21-H ) :   0.9891
B( 19-C , 20-C ) :   1.6289 B( 19-C , 22-C ) :   1.0063 B( 22-C , 23-H ) :   0.9306
B( 22-C , 24-H ) :   0.9411 B( 22-C , 25-C ) :   1.0832 B( 25-C , 26-H ) :   0.9492
B( 25-C , 27-H ) :   0.9564 B( 25-C , 28-C ) :   1.0611 B( 28-C , 29-H ) :   0.9789
B( 28-C , 30-H ) :   0.9747 B( 28-C , 31-H ) :   0.9729

Dispersion correction           -0.014882723
FINAL SINGLE POINT ENERGY     -1339.868217585132

DIPOLE MOMENT
-------------
                                X             Y             Z
Electronic contribution:     -2.23680      19.97618     -19.66426
Nuclear contribution   :      2.15705     -20.35541      20.11395
                        -----------------------------------------
Total Dipole Moment    :     -0.07975      -0.37924       0.44969
                        -----------------------------------------
Magnitude (a.u.)       :      0.59364
Magnitude (Debye)      :      1.50890

Rotational constants in cm-1:     0.018308     0.009818     0.007064
Rotational constants in MHz :   548.857864   294.327789   211.771069

                             ****ORCA TERMINATED NORMALLY****
TOTAL RUN TIME: 0 days 0 hours 0 minutes 36 seconds 103 msec
