                         Program Version 4.2.1 -  RELEASE  -
|  1> ! wB97X-D3 SP def2-SVP
|  2> %pal
|  3> nprocs 16
|  4> end
|  5>
|  6> * xyz 0 1
|  7> S 	 42.7307 	 24.6354 	 80.7738
|  8> C 	 42.679 	 24.4667 	 79.0149
|  9> C 	 43.2902 	 23.3035 	 78.5937
| 10> C 	 43.8033 	 22.5021 	 79.6824
| 11> C 	 43.5848 	 23.1191 	 80.8896
| 12> H 	 44.3574 	 21.585 	 79.6102
| 13> C 	 43.3251 	 22.8026 	 77.1168
| 14> H 	 43.9622 	 22.0054 	 77.0279
| 15> H 	 43.8401 	 23.5167 	 76.5308
| 16> C 	 41.9246 	 22.5078 	 76.5417
| 17> H 	 41.7167 	 21.4542 	 76.7724
| 18> H 	 41.1164 	 23.1083 	 77.1122
| 19> C 	 41.8062 	 22.7786 	 75.0601
| 20> H 	 40.766 	 22.4731 	 74.7131
| 21> H 	 41.8341 	 23.8947 	 74.9112
| 22> H 	 42.4997 	 22.2861 	 74.4125
| 23> S 	 45.2225 	 23.643 	 82.9901
| 24> C 	 45.6455 	 22.2937 	 84.1386
| 25> C 	 45.005 	 21.1357 	 83.761
| 26> C 	 44.1973 	 21.3306 	 82.5679
| 27> C 	 44.235 	 22.6307 	 82.0278
| 28> H 	 45.1414 	 20.2577 	 84.37
| 29> C 	 43.2432 	 20.2303 	 81.9865
| 30> H 	 43.4213 	 19.2733 	 82.3988
| 31> H 	 43.5124 	 20.0501 	 80.9284
| 32> C 	 41.7495 	 20.5203 	 82.0331
| 33> H 	 41.6891 	 21.5022 	 81.5865
| 34> H 	 41.4593 	 20.5699 	 83.1121
| 35> C 	 40.8944 	 19.4564 	 81.3218
| 36> H 	 41.2897 	 19.199 	 80.3407
| 37> H 	 39.8878 	 19.7545 	 81.1611
| 38> H 	 40.8542 	 18.5416 	 81.951
| 39> H 	 42.2556 	 25.2385 	 78.365
| 40> H 	 46.2267 	 22.4433 	 85.0466
| 41> *
| 42>
| 43>                          ****END OF INPUT****

CARTESIAN COORDINATES (ANGSTROEM)
---------------------------------
  S     42.730700   24.635400   80.773800
  C     42.679000   24.466700   79.014900
  C     43.290200   23.303500   78.593700
  C     43.803300   22.502100   79.682400
  C     43.584800   23.119100   80.889600
  H     44.357400   21.585000   79.610200
  C     43.325100   22.802600   77.116800
  H     43.962200   22.005400   77.027900
  H     43.840100   23.516700   76.530800
  C     41.924600   22.507800   76.541700
  H     41.716700   21.454200   76.772400
  H     41.116400   23.108300   77.112200
  C     41.806200   22.778600   75.060100
  H     40.766000   22.473100   74.713100
  H     41.834100   23.894700   74.911200
  H     42.499700   22.286100   74.412500
  S     45.222500   23.643000   82.990100
  C     45.645500   22.293700   84.138600
  C     45.005000   21.135700   83.761000
  C     44.197300   21.330600   82.567900
  C     44.235000   22.630700   82.027800
  H     45.141400   20.257700   84.370000
  C     43.243200   20.230300   81.986500
  H     43.421300   19.273300   82.398800
  H     43.512400   20.050100   80.928400
  C     41.749500   20.520300   82.033100
  H     41.689100   21.502200   81.586500
  H     41.459300   20.569900   83.112100
  C     40.894400   19.456400   81.321800
  H     41.289700   19.199000   80.340700
  H     39.887800   19.754500   81.161100
  H     40.854200   18.541600   81.951000
  H     42.255600   25.238500   78.365000
  H     46.226700   22.443300   85.046600

 Total Charge           Charge          ....    0
 Multiplicity           Mult            ....    1
 Number of Electrons    NEL             ....  134
 Basis Dimension        Dim             ....  322

ORBITAL ENERGIES
----------------

  NO   OCC          E(Eh)            E(eV)
   0   2.0000     -88.972155     -2421.0554
   1   2.0000     -88.962568     -2420.7945
   2   2.0000     -10.324852      -280.9535
   3   2.0000     -10.321774      -280.8697
   4   2.0000     -10.320958      -280.8475
   5   2.0000     -10.318484      -280.7802
   6   2.0000     -10.306957      -280.4666
   7   2.0000     -10.306535      -280.4551
   8   2.0000     -10.298918      -280.2478
   9   2.0000     -10.294967      -280.1403
  10   2.0000     -10.293494      -280.1002
  11   2.0000     -10.285751      -279.8895
  12   2.0000     -10.285389      -279.8797
  13   2.0000     -10.285174      -279.8738
  14   2.0000     -10.279618      -279.7226
  15   2.0000     -10.274893      -279.5941
  16   2.0000      -8.086508      -220.0451
  17   2.0000      -8.077139      -219.7901
  18   2.0000      -6.045056      -164.4943
  19   2.0000      -6.041125      -164.3874
  20   2.0000      -6.037181      -164.2800
  21   2.0000      -6.035662      -164.2387
  22   2.0000      -6.031624      -164.1288
  23   2.0000      -6.027920      -164.0280
  24   2.0000      -1.009966       -27.4826
  25   2.0000      -0.977972       -26.6120
  26   2.0000      -0.911328       -24.7985
  27   2.0000      -0.901670       -24.5357
  28   2.0000      -0.876573       -23.8528
  29   2.0000      -0.852515       -23.1981
  30   2.0000      -0.839728       -22.8502
  31   2.0000      -0.814108       -22.1530
  32   2.0000      -0.784164       -21.3382
  33   2.0000      -0.768196       -20.9037
  34   2.0000      -0.709352       -19.3024
  35   2.0000      -0.698522       -19.0077
  36   2.0000      -0.686500       -18.6806
  37   2.0000      -0.665334       -18.1047
  38   2.0000      -0.643681       -17.5154
  39   2.0000      -0.617037       -16.7904
  40   2.0000      -0.589069       -16.0294
  41   2.0000      -0.573717       -15.6116
  42   2.0000      -0.565990       -15.4014
  43   2.0000      -0.555356       -15.1120
  44   2.0000      -0.525725       -14.3057
  45   2.0000      -0.520181       -14.1548
  46   2.0000      -0.515626       -14.0309
  47   2.0000      -0.511120       -13.9083
  48   2.0000      -0.508102       -13.8261
  49   2.0000      -0.499184       -13.5835
  50   2.0000      -0.491681       -13.3793
  51   2.0000      -0.484494       -13.1838
  52   2.0000      -0.480753       -13.0820
  53   2.0000      -0.461620       -12.5613
  54   2.0000      -0.459017       -12.4905
  55   2.0000      -0.447681       -12.1820
  56   2.0000      -0.442436       -12.0393
  57   2.0000      -0.435407       -11.8480
  58   2.0000      -0.425067       -11.5666
  59   2.0000      -0.422772       -11.5042
  60   2.0000      -0.418383       -11.3848
  61   2.0000      -0.415262       -11.2999
  62   2.0000      -0.412416       -11.2224
  63   2.0000      -0.352192        -9.5836
  64   2.0000      -0.334085        -9.0909
  65   2.0000      -0.327909        -8.9229
  66   2.0000      -0.287774        -7.8307
  67   0.0000       0.024865         0.6766
  68   0.0000       0.072713         1.9786
  69   0.0000       0.108491         2.9522
  70   0.0000       0.120017         3.2658
  71   0.0000       0.132459         3.6044

MULLIKEN ATOMIC CHARGES
-----------------------
   0 S :    0.124393
   1 C :   -0.144474
   2 C :   -0.082895
   3 C :    0.014336
   4 C :   -0.158275
   5 H :    0.024403
   6 C :    0.146532
   7 H :   -0.010295
   8 H :    0.011502
   9 C :   -0.100878
  10 H :    0.030193
  11 H :    0.048261
  12 C :   -0.066193
  13 H :    0.037022
  14 H :    0.038013
  15 H :    0.036699
  16 S :    0.095078
  17 C :   -0.118381
  18 C :   -0.010987
  19 C :   -0.044614
  20 C :   -0.136171
  21 H :    0.022615
  22 C :    0.071842
  23 H :   -0.007810
  24 H :    0.003842
  25 C :   -0.069600
  26 H :    0.037342
  27 H :    0.034589
  28 C :   -0.029713
  29 H :    0.021220
  30 H :    0.028822
  31 H :    0.031520
  32 H :    0.057772
  33 H :    0.064291
Sum of atomic charges:   -0.0000000

LOEWDIN ATOMIC CHARGES
----------------------
   0 S :    0.404643
   1 C :   -0.194281
   2 C :   -0.051325
   3 C :   -0.048812
   4 C :   -0.201096
   5 H :    0.033321
   6 C :   -0.023552
   7 H :    0.016852
   8 H :    0.025793
   9 C :   -0.046463
  10 H :    0.023954
  11 H :    0.034853
  12 C :   -0.071410
  13 H :    0.033308
  14 H :    0.030023
  15 H :    0.019545
  16 S :    0.391975
  17 C :   -0.170796
  18 C :   -0.064696
  19 C :   -0.058652
  20 C :   -0.208661
  21 H :    0.034874
  22 C :   -0.033832
  23 H :    0.016341
  24 H :    0.024075
  25 C :   -0.040555
  26 H :    0.021611
  27 H :    0.028332
  28 C :   -0.062168
  29 H :    0.022104
  30 H :    0.022789
  31 H :    0.028899
  32 H :    0.031614
  33 H :    0.031391

  Mayer bond orders larger than 0.100000
B(  0-S ,  1-C ) :   1.1208 B(  0-S ,  4-C ) :   1.1358 B(  1-C ,  2-C ) :   1.6238
B(  1-C , 32-H ) :   0.9683 B(  2-C ,  3-C ) :   1.2338 B(  2-C ,  6-C ) :   1.0183
B(  3-C ,  4-C ) :   1.5543 B(  3-C ,  5-H ) :   0.9950 B(  4-C , 20-C ) :   1.0892
B(  6-C ,  7-H ) :   0.9323 B(  6-C ,  8-H ) :   0.9400 B(  6-C ,  9-C ) :   1.0366
B(  9-C , 10-H ) :   0.9564 B(  9-C , 11-H ) :   0.9656 B(  9-C , 12-C ) :   1.0792
B( 12-C , 13-H ) :   0.9718 B( 12-C , 14-H ) :   0.9750 B( 12-C , 15-H ) :   0.9763
B( 16-S , 17-C ) :   1.1357 B( 16-S , 20-C ) :   1.1392 B( 17-C , 18-C ) :   1.6157
B( 17-C , 33-H ) :   0.9678 B( 18-C , 19-C ) :   1.2407 B( 18-C , 21-H ) :   0.9941
B( 19-C , 20-C ) :   1.5677 B( 19-C , 22-C ) :   1.0381 B( 22-C , 23-H ) :   0.9351
B( 22-C , 24-H ) :   0.9300 B( 22-C , 25-C ) :   1.0594 B( 25-C , 26-H ) :   0.9537
B( 25-C , 27-H ) :   0.9543 B( 25-C , 28-C ) :   1.0823 B( 28-C , 29-H ) :   0.9737
B( 28-C , 30-H ) :   0.9741 B( 28-C , 31-H ) :   0.9749

Dispersion correction           -0.014587259
FINAL SINGLE POINT ENERGY     -1339.876783288831

DIPOLE MOMENT
-------------
                                X             Y             Z
Electronic contribution:     14.00589      17.44760      20.02250
Nuclear contribution   :    -14.10706     -17.91247     -20.44065
                        -----------------------------------------
Total Dipole Moment    :     -0.10117      -0.46488      -0.41815
                        -----------------------------------------
Magnitude (a.u.)       :      0.63340
Magnitude (Debye)      :      1.60998

Rotational constants in cm-1:     0.020424     0.008454     0.006839
Rotational constants in MHz :   612.286801   253.432759   205.026863

                             ****ORCA TERMINATED NORMALLY****
TOTAL RUN TIME: 0 days 0 hours 0 minutes 31 seconds 23 msec
