                         Program Version 4.2.1 -  RELEASE  -
|  1> ! wB97X-D3 SP def2-SVP
|  2> %pal
|  3> nprocs 16
|  4> end
|  5>
|  6> * xyz 0 1
|  7> S 	 -39.3192 	 51.2192 	 106.886
|  8> C 	 -37.8385 	 51.204 	 107.749
|  9> C 	 -37.8129 	 50.2204 	 108.75
| 10> C 	 -39.0261 	 49.4597 	 108.774
| 11> C 	 -39.9318 	 49.8527 	 107.791
| 12> H 	 -39.2911 	 48.6057 	 109.395
| 13> C 	 -36.7419 	 49.9921 	 109.805
| 14> H 	 -36.0083 	 50.8238 	 109.79
| 15> H 	 -36.235 	 49.0945 	 109.459
| 16> C 	 -37.3294 	 49.9378 	 111.306
| 17> H 	 -38.0955 	 49.1274 	 111.32
| 18> H 	 -36.5415 	 49.637 	 111.974
| 19> C 	 -37.8903 	 51.2776 	 111.865
| 20> H 	 -37.0816 	 51.9555 	 112.125
| 21> H 	 -38.6336 	 51.7694 	 111.224
| 22> H 	 -38.3881 	 50.9307 	 112.758
| 23> S 	 -42.4231 	 50.7007 	 107.249
| 24> C 	 -43.7488 	 49.5802 	 107.061
| 25> C 	 -43.404 	 48.3349 	 107.456
| 26> C 	 -42.0073 	 48.2483 	 107.743
| 27> C 	 -41.3269 	 49.4277 	 107.647
| 28> H 	 -44.1608 	 47.5743 	 107.502
| 29> C 	 -41.3179 	 46.9512 	 108.124
| 30> H 	 -42.1201 	 46.3009 	 108.422
| 31> H 	 -40.8276 	 47.1333 	 109.097
| 32> C 	 -40.3946 	 46.2715 	 107.05
| 33> H 	 -39.7284 	 47.0494 	 106.571
| 34> H 	 -41.0002 	 45.7336 	 106.223
| 35> C 	 -39.6624 	 45.0247 	 107.577
| 36> H 	 -39.0194 	 45.2797 	 108.437
| 37> H 	 -39.0358 	 44.4743 	 106.836
| 38> H 	 -40.4806 	 44.2984 	 107.848
| 39> H 	 -36.9676 	 51.8386 	 107.583
| 40> H 	 -44.771 	 49.9261 	 106.961
| 41> *
| 42>
| 43>                          ****END OF INPUT****

CARTESIAN COORDINATES (ANGSTROEM)
---------------------------------
  S    -39.319200   51.219200  106.886000
  C    -37.838500   51.204000  107.749000
  C    -37.812900   50.220400  108.750000
  C    -39.026100   49.459700  108.774000
  C    -39.931800   49.852700  107.791000
  H    -39.291100   48.605700  109.395000
  C    -36.741900   49.992100  109.805000
  H    -36.008300   50.823800  109.790000
  H    -36.235000   49.094500  109.459000
  C    -37.329400   49.937800  111.306000
  H    -38.095500   49.127400  111.320000
  H    -36.541500   49.637000  111.974000
  C    -37.890300   51.277600  111.865000
  H    -37.081600   51.955500  112.125000
  H    -38.633600   51.769400  111.224000
  H    -38.388100   50.930700  112.758000
  S    -42.423100   50.700700  107.249000
  C    -43.748800   49.580200  107.061000
  C    -43.404000   48.334900  107.456000
  C    -42.007300   48.248300  107.743000
  C    -41.326900   49.427700  107.647000
  H    -44.160800   47.574300  107.502000
  C    -41.317900   46.951200  108.124000
  H    -42.120100   46.300900  108.422000
  H    -40.827600   47.133300  109.097000
  C    -40.394600   46.271500  107.050000
  H    -39.728400   47.049400  106.571000
  H    -41.000200   45.733600  106.223000
  C    -39.662400   45.024700  107.577000
  H    -39.019400   45.279700  108.437000
  H    -39.035800   44.474300  106.836000
  H    -40.480600   44.298400  107.848000
  H    -36.967600   51.838600  107.583000
  H    -44.771000   49.926100  106.961000

 Total Charge           Charge          ....    0
 Multiplicity           Mult            ....    1
 Number of Electrons    NEL             ....  134
 Basis Dimension        Dim             ....  322

ORBITAL ENERGIES
----------------

  NO   OCC          E(Eh)            E(eV)
   0   2.0000     -88.969764     -2420.9903
   1   2.0000     -88.960289     -2420.7325
   2   2.0000     -10.331202      -281.1263
   3   2.0000     -10.322786      -280.8973
   4   2.0000     -10.313574      -280.6466
   5   2.0000     -10.311148      -280.5806
   6   2.0000     -10.303358      -280.3686
   7   2.0000     -10.299030      -280.2509
   8   2.0000     -10.298175      -280.2276
   9   2.0000     -10.298004      -280.2229
  10   2.0000     -10.296327      -280.1773
  11   2.0000     -10.295182      -280.1461
  12   2.0000     -10.293473      -280.0996
  13   2.0000     -10.291690      -280.0511
  14   2.0000     -10.285321      -279.8778
  15   2.0000     -10.278487      -279.6919
  16   2.0000      -8.084718      -219.9964
  17   2.0000      -8.076051      -219.7605
  18   2.0000      -6.043196      -164.4437
  19   2.0000      -6.039123      -164.3329
  20   2.0000      -6.035557      -164.2358
  21   2.0000      -6.034537      -164.2081
  22   2.0000      -6.030404      -164.0956
  23   2.0000      -6.026772      -163.9968
  24   2.0000      -1.012798       -27.5596
  25   2.0000      -0.987941       -26.8833
  26   2.0000      -0.903140       -24.5757
  27   2.0000      -0.900915       -24.5151
  28   2.0000      -0.871431       -23.7128
  29   2.0000      -0.851611       -23.1735
  30   2.0000      -0.844765       -22.9872
  31   2.0000      -0.817978       -22.2583
  32   2.0000      -0.778994       -21.1975
  33   2.0000      -0.768763       -20.9191
  34   2.0000      -0.706778       -19.2324
  35   2.0000      -0.694428       -18.8963
  36   2.0000      -0.685741       -18.6600
  37   2.0000      -0.666688       -18.1415
  38   2.0000      -0.637262       -17.3408
  39   2.0000      -0.621616       -16.9150
  40   2.0000      -0.590952       -16.0806
  41   2.0000      -0.567430       -15.4406
  42   2.0000      -0.557703       -15.1759
  43   2.0000      -0.548571       -14.9274
  44   2.0000      -0.539898       -14.6914
  45   2.0000      -0.520912       -14.1747
  46   2.0000      -0.516743       -14.0613
  47   2.0000      -0.511885       -13.9291
  48   2.0000      -0.502243       -13.6667
  49   2.0000      -0.499205       -13.5841
  50   2.0000      -0.492112       -13.3910
  51   2.0000      -0.485701       -13.2166
  52   2.0000      -0.467956       -12.7337
  53   2.0000      -0.464288       -12.6339
  54   2.0000      -0.457742       -12.4558
  55   2.0000      -0.450114       -12.2482
  56   2.0000      -0.445200       -12.1145
  57   2.0000      -0.437377       -11.9016
  58   2.0000      -0.427207       -11.6249
  59   2.0000      -0.422970       -11.5096
  60   2.0000      -0.419725       -11.4213
  61   2.0000      -0.412385       -11.2216
  62   2.0000      -0.408024       -11.1029
  63   2.0000      -0.358285        -9.7494
  64   2.0000      -0.332183        -9.0392
  65   2.0000      -0.328923        -8.9504
  66   2.0000      -0.286720        -7.8021
  67   0.0000       0.027880         0.7586
  68   0.0000       0.078608         2.1390
  69   0.0000       0.107484         2.9248
  70   0.0000       0.121234         3.2989
  71   0.0000       0.136905         3.7254

MULLIKEN ATOMIC CHARGES
-----------------------
   0 S :    0.124828
   1 C :   -0.118090
   2 C :   -0.097783
   3 C :    0.001400
   4 C :   -0.127906
   5 H :    0.011593
   6 C :    0.067581
   7 H :    0.018017
   8 H :    0.044987
   9 C :   -0.108820
  10 H :    0.033508
  11 H :    0.031307
  12 C :   -0.043971
  13 H :    0.038257
  14 H :    0.052292
  15 H :    0.033859
  16 S :    0.082792
  17 C :   -0.089017
  18 C :   -0.020356
  19 C :   -0.069109
  20 C :   -0.124017
  21 H :    0.013416
  22 C :    0.065417
  23 H :   -0.000945
  24 H :    0.027277
  25 C :   -0.092511
  26 H :    0.059500
  27 H :    0.041746
  28 C :   -0.078049
  29 H :    0.034039
  30 H :    0.045503
  31 H :    0.036263
  32 H :    0.049532
  33 H :    0.057462
Sum of atomic charges:    0.0000000

LOEWDIN ATOMIC CHARGES
----------------------
   0 S :    0.426037
   1 C :   -0.219087
   2 C :   -0.063430
   3 C :   -0.065380
   4 C :   -0.194097
   5 H :    0.029763
   6 C :   -0.035121
   7 H :    0.027375
   8 H :    0.033923
   9 C :   -0.035660
  10 H :    0.021551
  11 H :    0.022669
  12 C :   -0.062509
  13 H :    0.025715
  14 H :    0.030278
  15 H :    0.029484
  16 S :    0.407093
  17 C :   -0.184041
  18 C :   -0.067079
  19 C :   -0.067566
  20 C :   -0.195256
  21 H :    0.032418
  22 C :   -0.036407
  23 H :    0.025695
  24 H :    0.029243
  25 C :   -0.048974
  26 H :    0.031050
  27 H :    0.036537
  28 C :   -0.076460
  29 H :    0.020147
  30 H :    0.030308
  31 H :    0.030385
  32 H :    0.032399
  33 H :    0.028998

  Mayer bond orders larger than 0.100000
B(  0-S ,  1-C ) :   1.1439 B(  0-S ,  4-C ) :   1.1593 B(  1-C ,  2-C ) :   1.5951
B(  1-C , 32-H ) :   0.9639 B(  2-C ,  3-C ) :   1.2515 B(  2-C ,  6-C ) :   1.0177
B(  3-C ,  4-C ) :   1.5555 B(  3-C ,  5-H ) :   0.9872 B(  4-C , 20-C ) :   1.0429
B(  6-C ,  7-H ) :   0.9475 B(  6-C ,  8-H ) :   0.9381 B(  6-C ,  9-C ) :   1.0561
B(  9-C , 10-H ) :   0.9614 B(  9-C , 11-H ) :   0.9578 B(  9-C , 12-C ) :   1.0662
B( 12-C , 13-H ) :   0.9761 B( 12-C , 14-H ) :   0.9780 B( 12-C , 15-H ) :   0.9732
B( 16-S , 17-C ) :   1.1531 B( 16-S , 20-C ) :   1.1390 B( 17-C , 18-C ) :   1.6188
B( 17-C , 33-H ) :   0.9635 B( 18-C , 19-C ) :   1.2399 B( 18-C , 21-H ) :   0.9965
B( 19-C , 20-C ) :   1.6154 B( 19-C , 22-C ) :   1.0365 B( 22-C , 23-H ) :   0.9206
B( 22-C , 24-H ) :   0.9399 B( 22-C , 25-C ) :   1.0425 B( 25-C , 26-H ) :   0.9607
B( 25-C , 27-H ) :   0.9583 B( 25-C , 28-C ) :   1.0630 B( 28-C , 29-H ) :   0.9764
B( 28-C , 30-H ) :   0.9755 B( 28-C , 31-H ) :   0.9756

Dispersion correction           -0.014528954
FINAL SINGLE POINT ENERGY     -1339.885308005322

DIPOLE MOMENT
-------------
                                X             Y             Z
Electronic contribution:    -12.50214      17.05105     -15.17829
Nuclear contribution   :     12.64838     -17.47768      15.66091
                        -----------------------------------------
Total Dipole Moment    :      0.14624      -0.42663       0.48263
                        -----------------------------------------
Magnitude (a.u.)       :      0.66055
Magnitude (Debye)      :      1.67899

Rotational constants in cm-1:     0.016798     0.009588     0.007600
Rotational constants in MHz :   503.587253   287.437665   227.837296

                             ****ORCA TERMINATED NORMALLY****
TOTAL RUN TIME: 0 days 0 hours 0 minutes 29 seconds 601 msec
