                         Program Version 4.2.1 -  RELEASE  -
|  1> ! wB97X-D3 SP def2-SVP
|  2> %pal
|  3> nprocs 16
|  4> end
|  5>
|  6> * xyz 0 1
|  7> S 	 7.12005 	 -14.7889 	 64.9782
|  8> C 	 8.86131 	 -15.1734 	 65.2121
|  9> C 	 9.51914 	 -14.0956 	 65.7824
| 10> C 	 8.60154 	 -13.0451 	 66.1895
| 11> C 	 7.25068 	 -13.2963 	 65.8202
| 12> H 	 8.79307 	 -12.1557 	 66.7469
| 13> C 	 11.015 	 -14.0773 	 66.1533
| 14> H 	 11.3652 	 -13.0232 	 66.2312
| 15> H 	 11.5319 	 -14.5933 	 65.3142
| 16> C 	 11.3354 	 -14.7751 	 67.5064
| 17> H 	 11.1754 	 -15.8521 	 67.2442
| 18> H 	 12.3958 	 -14.6802 	 67.7766
| 19> C 	 10.4291 	 -14.4459 	 68.7129
| 20> H 	 10.5275 	 -13.4277 	 69.0198
| 21> H 	 9.43033 	 -14.5761 	 68.4144
| 22> H 	 10.5147 	 -15.1521 	 69.581
| 23> S 	 4.78535 	 -13.4579 	 66.864
| 24> C 	 3.7863 	 -12.0043 	 67.0471
| 25> C 	 4.4478 	 -10.8591 	 66.5835
| 26> C 	 5.68987 	 -11.2172 	 65.9918
| 27> C 	 5.99329 	 -12.5671 	 66.0749
| 28> H 	 3.91808 	 -9.88673 	 66.7128
| 29> C 	 6.54518 	 -10.1934 	 65.4117
| 30> H 	 7.44423 	 -10.1149 	 66.0563
| 31> H 	 6.02731 	 -9.22591 	 65.5468
| 32> C 	 6.91547 	 -10.3179 	 63.9946
| 33> H 	 7.23895 	 -11.3806 	 63.8715
| 34> H 	 7.76859 	 -9.63136 	 63.9845
| 35> C 	 5.79335 	 -10.0609 	 62.9938
| 36> H 	 4.92279 	 -10.5229 	 63.2358
| 37> H 	 6.00935 	 -10.4968 	 62.0484
| 38> H 	 5.69696 	 -9.02743 	 62.7629
| 39> H 	 9.41368 	 -16.031 	 64.8442
| 40> H 	 2.81078 	 -12.1498 	 67.4426
| 41> *
| 42>
| 43>                          ****END OF INPUT****

CARTESIAN COORDINATES (ANGSTROEM)
---------------------------------
  S      7.120050  -14.788900   64.978200
  C      8.861310  -15.173400   65.212100
  C      9.519140  -14.095600   65.782400
  C      8.601540  -13.045100   66.189500
  C      7.250680  -13.296300   65.820200
  H      8.793070  -12.155700   66.746900
  C     11.015000  -14.077300   66.153300
  H     11.365200  -13.023200   66.231200
  H     11.531900  -14.593300   65.314200
  C     11.335400  -14.775100   67.506400
  H     11.175400  -15.852100   67.244200
  H     12.395800  -14.680200   67.776600
  C     10.429100  -14.445900   68.712900
  H     10.527500  -13.427700   69.019800
  H      9.430330  -14.576100   68.414400
  H     10.514700  -15.152100   69.581000
  S      4.785350  -13.457900   66.864000
  C      3.786300  -12.004300   67.047100
  C      4.447800  -10.859100   66.583500
  C      5.689870  -11.217200   65.991800
  C      5.993290  -12.567100   66.074900
  H      3.918080   -9.886730   66.712800
  C      6.545180  -10.193400   65.411700
  H      7.444230  -10.114900   66.056300
  H      6.027310   -9.225910   65.546800
  C      6.915470  -10.317900   63.994600
  H      7.238950  -11.380600   63.871500
  H      7.768590   -9.631360   63.984500
  C      5.793350  -10.060900   62.993800
  H      4.922790  -10.522900   63.235800
  H      6.009350  -10.496800   62.048400
  H      5.696960   -9.027430   62.762900
  H      9.413680  -16.031000   64.844200
  H      2.810780  -12.149800   67.442600

 Total Charge           Charge          ....    0
 Multiplicity           Mult            ....    1
 Number of Electrons    NEL             ....  134
 Basis Dimension        Dim             ....  322

ORBITAL ENERGIES
----------------

  NO   OCC          E(Eh)            E(eV)
   0   2.0000     -88.967890     -2420.9394
   1   2.0000     -88.965827     -2420.8832
   2   2.0000     -10.334502      -281.2161
   3   2.0000     -10.322721      -280.8955
   4   2.0000     -10.319585      -280.8102
   5   2.0000     -10.317887      -280.7640
   6   2.0000     -10.308178      -280.4998
   7   2.0000     -10.302646      -280.3492
   8   2.0000     -10.301851      -280.3276
   9   2.0000     -10.298991      -280.2498
  10   2.0000     -10.298063      -280.2245
  11   2.0000     -10.291687      -280.0510
  12   2.0000     -10.280263      -279.7402
  13   2.0000     -10.277755      -279.6719
  14   2.0000     -10.271582      -279.5040
  15   2.0000     -10.259435      -279.1734
  16   2.0000      -8.082226      -219.9285
  17   2.0000      -8.081378      -219.9055
  18   2.0000      -6.040792      -164.3783
  19   2.0000      -6.039669      -164.3477
  20   2.0000      -6.036650      -164.2656
  21   2.0000      -6.035650      -164.2384
  22   2.0000      -6.033064      -164.1680
  23   2.0000      -6.032423      -164.1506
  24   2.0000      -1.010536       -27.4981
  25   2.0000      -0.981434       -26.7062
  26   2.0000      -0.921185       -25.0667
  27   2.0000      -0.907271       -24.6881
  28   2.0000      -0.867077       -23.5944
  29   2.0000      -0.851253       -23.1638
  30   2.0000      -0.838128       -22.8066
  31   2.0000      -0.813703       -22.1420
  32   2.0000      -0.788448       -21.4548
  33   2.0000      -0.777801       -21.1650
  34   2.0000      -0.709760       -19.3135
  35   2.0000      -0.698151       -18.9976
  36   2.0000      -0.685317       -18.6484
  37   2.0000      -0.670375       -18.2418
  38   2.0000      -0.638071       -17.3628
  39   2.0000      -0.608772       -16.5655
  40   2.0000      -0.594784       -16.1849
  41   2.0000      -0.571691       -15.5565
  42   2.0000      -0.557413       -15.1680
  43   2.0000      -0.552319       -15.0294
  44   2.0000      -0.544639       -14.8204
  45   2.0000      -0.539812       -14.6890
  46   2.0000      -0.515558       -14.0291
  47   2.0000      -0.509897       -13.8750
  48   2.0000      -0.503570       -13.7028
  49   2.0000      -0.494320       -13.4511
  50   2.0000      -0.487877       -13.2758
  51   2.0000      -0.485169       -13.2021
  52   2.0000      -0.474225       -12.9043
  53   2.0000      -0.467423       -12.7192
  54   2.0000      -0.461133       -12.5481
  55   2.0000      -0.444480       -12.0949
  56   2.0000      -0.441877       -12.0241
  57   2.0000      -0.439569       -11.9613
  58   2.0000      -0.434445       -11.8218
  59   2.0000      -0.419153       -11.4057
  60   2.0000      -0.418175       -11.3791
  61   2.0000      -0.411598       -11.2001
  62   2.0000      -0.404751       -11.0138
  63   2.0000      -0.346260        -9.4222
  64   2.0000      -0.332861        -9.0576
  65   2.0000      -0.326969        -8.8973
  66   2.0000      -0.293008        -7.9732
  67   0.0000       0.027405         0.7457
  68   0.0000       0.067856         1.8465
  69   0.0000       0.105826         2.8797
  70   0.0000       0.111773         3.0415
  71   0.0000       0.134886         3.6704

MULLIKEN ATOMIC CHARGES
-----------------------
   0 S :    0.106175
   1 C :   -0.118705
   2 C :   -0.108926
   3 C :    0.052276
   4 C :   -0.180434
   5 H :    0.000049
   6 C :    0.049417
   7 H :    0.034045
   8 H :    0.041055
   9 C :   -0.090248
  10 H :    0.024395
  11 H :    0.039660
  12 C :   -0.036277
  13 H :    0.025449
  14 H :    0.032425
  15 H :    0.041534
  16 S :    0.113167
  17 C :   -0.111378
  18 C :   -0.037069
  19 C :   -0.050220
  20 C :   -0.134054
  21 H :    0.044337
  22 C :    0.059941
  23 H :    0.030607
  24 H :    0.002875
  25 C :   -0.074943
  26 H :    0.044262
  27 H :    0.025552
  28 C :    0.033630
  29 H :    0.010240
  30 H :    0.011191
  31 H :    0.019403
  32 H :    0.048875
  33 H :    0.051694
Sum of atomic charges:   -0.0000000

LOEWDIN ATOMIC CHARGES
----------------------
   0 S :    0.405104
   1 C :   -0.194491
   2 C :   -0.059127
   3 C :   -0.067244
   4 C :   -0.199290
   5 H :    0.024337
   6 C :   -0.033190
   7 H :    0.030762
   8 H :    0.036447
   9 C :   -0.043355
  10 H :    0.025320
  11 H :    0.023769
  12 C :   -0.065533
  13 H :    0.019169
  14 H :    0.021662
  15 H :    0.035559
  16 S :    0.428668
  17 C :   -0.171538
  18 C :   -0.069920
  19 C :   -0.062843
  20 C :   -0.229711
  21 H :    0.045398
  22 C :   -0.043539
  23 H :    0.034223
  24 H :    0.028429
  25 C :   -0.040217
  26 H :    0.031068
  27 H :    0.028628
  28 C :   -0.052201
  29 H :    0.015016
  30 H :    0.027134
  31 H :    0.023178
  32 H :    0.030112
  33 H :    0.018218

  Mayer bond orders larger than 0.100000
B(  0-S ,  1-C ) :   1.1214 B(  0-S ,  4-C ) :   1.1720 B(  1-C ,  2-C ) :   1.6194
B(  1-C ,  4-C ) :   0.1012 B(  1-C , 32-H ) :   0.9681 B(  2-C ,  3-C ) :   1.2183
B(  2-C ,  6-C ) :   1.0203 B(  3-C ,  4-C ) :   1.5668 B(  3-C ,  5-H ) :   0.9986
B(  4-C , 20-C ) :   1.0003 B(  6-C ,  7-H ) :   0.9435 B(  6-C ,  8-H ) :   0.9448
B(  6-C ,  9-C ) :   1.0596 B(  9-C , 10-H ) :   0.9559 B(  9-C , 11-H ) :   0.9607
B(  9-C , 12-C ) :   1.0781 B( 12-C , 13-H ) :   0.9766 B( 12-C , 14-H ) :   0.9671
B( 12-C , 15-H ) :   0.9731 B( 16-S , 17-C ) :   1.1782 B( 16-S , 20-C ) :   1.1651
B( 17-C , 18-C ) :   1.5629 B( 17-C , 20-C ) :   0.1065 B( 17-C , 33-H ) :   0.9755
B( 18-C , 19-C ) :   1.2530 B( 18-C , 21-H ) :   0.9909 B( 19-C , 20-C ) :   1.5628
B( 19-C , 22-C ) :   1.0619 B( 22-C , 23-H ) :   0.9206 B( 22-C , 24-H ) :   0.9208
B( 22-C , 25-C ) :   1.0747 B( 25-C , 26-H ) :   0.9573 B( 25-C , 27-H ) :   0.9532
B( 25-C , 28-C ) :   1.0759 B( 28-C , 29-H ) :   0.9724 B( 28-C , 30-H ) :   0.9674
B( 28-C , 31-H ) :   0.9712

Dispersion correction           -0.015322977
FINAL SINGLE POINT ENERGY     -1339.870382449022

DIPOLE MOMENT
-------------
                                X             Y             Z
Electronic contribution:    -16.00197     -10.29121       0.37055
Nuclear contribution   :     16.23372      10.67462      -0.24585
                        -----------------------------------------
Total Dipole Moment    :      0.23176       0.38341       0.12469
                        -----------------------------------------
Magnitude (a.u.)       :      0.46504
Magnitude (Debye)      :      1.18205

Rotational constants in cm-1:     0.020758     0.008624     0.007741
Rotational constants in MHz :   622.314037   258.546356   232.055594

                             ****ORCA TERMINATED NORMALLY****
TOTAL RUN TIME: 0 days 0 hours 0 minutes 37 seconds 483 msec
