                         Program Version 4.2.1 -  RELEASE  -
|  1> ! wB97X-D3 SP def2-SVP
|  2> %pal
|  3> nprocs 16
|  4> end
|  5>
|  6> * xyz 0 1
|  7> S 	 -2.50366 	 -18.6089 	 85.5848
|  8> C 	 -1.95987 	 -17.5667 	 84.2774
|  9> C 	 -0.618834 	 -17.7364 	 83.9788
| 10> C 	 0.0270397 	 -18.4639 	 84.9737
| 11> C 	 -0.808267 	 -19.0141 	 85.9622
| 12> H 	 1.10099 	 -18.497 	 84.9567
| 13> C 	 0.131922 	 -16.9683 	 82.9142
| 14> H 	 1.11367 	 -16.5447 	 83.2323
| 15> H 	 -0.567781 	 -16.1597 	 82.6295
| 16> C 	 0.4282 	 -17.7368 	 81.6112
| 17> H 	 1.01186 	 -18.5708 	 81.8894
| 18> H 	 -0.500271 	 -18.0977 	 81.2066
| 19> C 	 1.20322 	 -16.9842 	 80.5781
| 20> H 	 2.17548 	 -16.5573 	 80.9454
| 21> H 	 1.41725 	 -17.6087 	 79.6418
| 22> H 	 0.672232 	 -16.0981 	 80.2411
| 23> S 	 -0.990072 	 -18.9454 	 88.6809
| 24> C 	 -0.386059 	 -20.3075 	 89.6117
| 25> C 	 0.47764 	 -21.095 	 88.8474
| 26> C 	 0.490373 	 -20.7021 	 87.4715
| 27> C 	 -0.349664 	 -19.6278 	 87.2
| 28> H 	 1.06666 	 -21.8894 	 89.2885
| 29> C 	 1.31139 	 -21.5399 	 86.4918
| 30> H 	 1.70712 	 -22.3598 	 87.1131
| 31> H 	 2.16919 	 -21.0327 	 86.1197
| 32> C 	 0.523407 	 -22.2232 	 85.3725
| 33> H 	 -0.0220341 	 -21.4364 	 84.8401
| 34> H 	 -0.323182 	 -22.7665 	 85.8217
| 35> C 	 1.34195 	 -23.172 	 84.4393
| 36> H 	 2.24606 	 -22.7255 	 83.9992
| 37> H 	 0.677115 	 -23.6195 	 83.7542
| 38> H 	 1.70856 	 -24.0976 	 84.9559
| 39> H 	 -2.66023 	 -16.9401 	 83.6523
| 40> H 	 -0.405133 	 -20.4854 	 90.7056
| 41> *
| 42>
| 43>                          ****END OF INPUT****

CARTESIAN COORDINATES (ANGSTROEM)
---------------------------------
  S     -2.503660  -18.608900   85.584800
  C     -1.959870  -17.566700   84.277400
  C     -0.618834  -17.736400   83.978800
  C      0.027040  -18.463900   84.973700
  C     -0.808267  -19.014100   85.962200
  H      1.100990  -18.497000   84.956700
  C      0.131922  -16.968300   82.914200
  H      1.113670  -16.544700   83.232300
  H     -0.567781  -16.159700   82.629500
  C      0.428200  -17.736800   81.611200
  H      1.011860  -18.570800   81.889400
  H     -0.500271  -18.097700   81.206600
  C      1.203220  -16.984200   80.578100
  H      2.175480  -16.557300   80.945400
  H      1.417250  -17.608700   79.641800
  H      0.672232  -16.098100   80.241100
  S     -0.990072  -18.945400   88.680900
  C     -0.386059  -20.307500   89.611700
  C      0.477640  -21.095000   88.847400
  C      0.490373  -20.702100   87.471500
  C     -0.349664  -19.627800   87.200000
  H      1.066660  -21.889400   89.288500
  C      1.311390  -21.539900   86.491800
  H      1.707120  -22.359800   87.113100
  H      2.169190  -21.032700   86.119700
  C      0.523407  -22.223200   85.372500
  H     -0.022034  -21.436400   84.840100
  H     -0.323182  -22.766500   85.821700
  C      1.341950  -23.172000   84.439300
  H      2.246060  -22.725500   83.999200
  H      0.677115  -23.619500   83.754200
  H      1.708560  -24.097600   84.955900
  H     -2.660230  -16.940100   83.652300
  H     -0.405133  -20.485400   90.705600

 Total Charge           Charge          ....    0
 Multiplicity           Mult            ....    1
 Number of Electrons    NEL             ....  134
 Basis Dimension        Dim             ....  322

ORBITAL ENERGIES
----------------

  NO   OCC          E(Eh)            E(eV)
   0   2.0000     -88.973081     -2421.0806
   1   2.0000     -88.967482     -2420.9283
   2   2.0000     -10.334698      -281.2214
   3   2.0000     -10.327193      -281.0172
   4   2.0000     -10.321430      -280.8604
   5   2.0000     -10.319554      -280.8093
   6   2.0000     -10.303687      -280.3776
   7   2.0000     -10.298262      -280.2300
   8   2.0000     -10.297140      -280.1994
   9   2.0000     -10.294046      -280.1152
  10   2.0000     -10.293382      -280.0972
  11   2.0000     -10.287262      -279.9306
  12   2.0000     -10.285184      -279.8741
  13   2.0000     -10.283354      -279.8243
  14   2.0000     -10.279489      -279.7191
  15   2.0000     -10.279468      -279.7185
  16   2.0000      -8.086744      -220.0515
  17   2.0000      -8.081853      -219.9184
  18   2.0000      -6.045226      -164.4990
  19   2.0000      -6.041446      -164.3961
  20   2.0000      -6.040450      -164.3690
  21   2.0000      -6.037537      -164.2897
  22   2.0000      -6.036402      -164.2589
  23   2.0000      -6.032530      -164.1535
  24   2.0000      -1.004704       -27.3394
  25   2.0000      -0.983274       -26.7562
  26   2.0000      -0.914574       -24.8868
  27   2.0000      -0.902539       -24.5593
  28   2.0000      -0.869480       -23.6598
  29   2.0000      -0.852873       -23.2079
  30   2.0000      -0.845160       -22.9980
  31   2.0000      -0.810866       -22.0648
  32   2.0000      -0.781279       -21.2597
  33   2.0000      -0.769364       -20.9355
  34   2.0000      -0.709985       -19.3197
  35   2.0000      -0.697738       -18.9864
  36   2.0000      -0.690678       -18.7943
  37   2.0000      -0.661250       -17.9935
  38   2.0000      -0.634872       -17.2758
  39   2.0000      -0.625270       -17.0145
  40   2.0000      -0.592384       -16.1196
  41   2.0000      -0.577516       -15.7150
  42   2.0000      -0.561178       -15.2704
  43   2.0000      -0.552451       -15.0329
  44   2.0000      -0.524158       -14.2631
  45   2.0000      -0.520591       -14.1660
  46   2.0000      -0.517015       -14.0687
  47   2.0000      -0.504813       -13.7367
  48   2.0000      -0.500952       -13.6316
  49   2.0000      -0.495091       -13.4721
  50   2.0000      -0.493833       -13.4379
  51   2.0000      -0.481755       -13.1092
  52   2.0000      -0.466202       -12.6860
  53   2.0000      -0.465624       -12.6703
  54   2.0000      -0.458732       -12.4827
  55   2.0000      -0.450956       -12.2711
  56   2.0000      -0.445712       -12.1284
  57   2.0000      -0.437649       -11.9090
  58   2.0000      -0.433769       -11.8034
  59   2.0000      -0.427950       -11.6451
  60   2.0000      -0.422778       -11.5044
  61   2.0000      -0.419427       -11.4132
  62   2.0000      -0.403956       -10.9922
  63   2.0000      -0.344054        -9.3622
  64   2.0000      -0.335482        -9.1289
  65   2.0000      -0.329498        -8.9661
  66   2.0000      -0.289529        -7.8785
  67   0.0000       0.020424         0.5558
  68   0.0000       0.067418         1.8345
  69   0.0000       0.107573         2.9272
  70   0.0000       0.116936         3.1820
  71   0.0000       0.125001         3.4014

MULLIKEN ATOMIC CHARGES
-----------------------
   0 S :    0.127052
   1 C :   -0.156142
   2 C :   -0.050462
   3 C :    0.041615
   4 C :   -0.156783
   5 H :    0.005818
   6 C :    0.023198
   7 H :    0.032841
   8 H :    0.018493
   9 C :   -0.033508
  10 H :    0.013986
  11 H :    0.021364
  12 C :   -0.065355
  13 H :    0.028965
  14 H :    0.050773
  15 H :    0.022067
  16 S :    0.119139
  17 C :   -0.099974
  18 C :   -0.053294
  19 C :   -0.026456
  20 C :   -0.172274
  21 H :    0.023957
  22 C :    0.096083
  23 H :    0.004994
  24 H :    0.025269
  25 C :   -0.098433
  26 H :    0.040354
  27 H :    0.024825
  28 C :   -0.032289
  29 H :    0.038323
  30 H :    0.027412
  31 H :    0.024046
  32 H :    0.067901
  33 H :    0.066496
Sum of atomic charges:    0.0000000

LOEWDIN ATOMIC CHARGES
----------------------
   0 S :    0.399743
   1 C :   -0.196371
   2 C :   -0.072441
   3 C :   -0.050622
   4 C :   -0.193298
   5 H :    0.029219
   6 C :   -0.029549
   7 H :    0.032463
   8 H :    0.030827
   9 C :   -0.041609
  10 H :    0.017372
  11 H :    0.022778
  12 C :   -0.073392
  13 H :    0.026919
  14 H :    0.037965
  15 H :    0.020572
  16 S :    0.410863
  17 C :   -0.194330
  18 C :   -0.071394
  19 C :   -0.053352
  20 C :   -0.200575
  21 H :    0.032090
  22 C :   -0.030180
  23 H :    0.029113
  24 H :    0.023355
  25 C :   -0.044941
  26 H :    0.023978
  27 H :    0.027568
  28 C :   -0.067838
  29 H :    0.026652
  30 H :    0.023311
  31 H :    0.029131
  32 H :    0.037673
  33 H :    0.038299

  Mayer bond orders larger than 0.100000
B(  0-S ,  1-C ) :   1.1504 B(  0-S ,  4-C ) :   1.1436 B(  1-C ,  2-C ) :   1.5846
B(  1-C ,  4-C ) :   0.1008 B(  1-C , 32-H ) :   0.9538 B(  2-C ,  3-C ) :   1.2863
B(  2-C ,  6-C ) :   1.0287 B(  3-C ,  4-C ) :   1.5262 B(  3-C ,  5-H ) :   0.9935
B(  4-C , 20-C ) :   1.0717 B(  6-C ,  7-H ) :   0.9477 B(  6-C ,  8-H ) :   0.9395
B(  6-C ,  9-C ) :   1.0597 B(  9-C , 10-H ) :   0.9531 B(  9-C , 11-H ) :   0.9500
B(  9-C , 12-C ) :   1.0945 B( 12-C , 13-H ) :   0.9695 B( 12-C , 14-H ) :   0.9717
B( 12-C , 15-H ) :   0.9721 B( 16-S , 17-C ) :   1.1533 B( 16-S , 20-C ) :   1.1432
B( 17-C , 18-C ) :   1.6062 B( 17-C , 33-H ) :   0.9597 B( 18-C , 19-C ) :   1.2689
B( 18-C , 21-H ) :   0.9832 B( 19-C , 20-C ) :   1.5726 B( 19-C , 22-C ) :   1.0333
B( 22-C , 23-H ) :   0.9344 B( 22-C , 24-H ) :   0.9310 B( 22-C , 25-C ) :   1.0617
B( 25-C , 26-H ) :   0.9550 B( 25-C , 27-H ) :   0.9521 B( 25-C , 28-C ) :   1.0789
B( 28-C , 29-H ) :   0.9764 B( 28-C , 30-H ) :   0.9729 B( 28-C , 31-H ) :   0.9726

Dispersion correction           -0.013953720
FINAL SINGLE POINT ENERGY     -1339.878832654900

DIPOLE MOMENT
-------------
                                X             Y             Z
Electronic contribution:    -16.66134       6.84014      25.02938
Nuclear contribution   :     17.12232      -6.95097     -25.38749
                        -----------------------------------------
Total Dipole Moment    :      0.46098      -0.11083      -0.35811
                        -----------------------------------------
Magnitude (a.u.)       :      0.59416
Magnitude (Debye)      :      1.51024

Rotational constants in cm-1:     0.018209     0.008524     0.006558
Rotational constants in MHz :   545.903451   255.556091   196.596783

                             ****ORCA TERMINATED NORMALLY****
TOTAL RUN TIME: 0 days 0 hours 0 minutes 31 seconds 461 msec
