                         Program Version 4.2.1 -  RELEASE  -
|  1> ! wB97X-D3 SP def2-SVP
|  2> %pal
|  3> nprocs 16
|  4> end
|  5>
|  6> * xyz 0 1
|  7> S 	 50.0294 	 6.48325 	 87.4518
|  8> C 	 49.8366 	 8.28566 	 87.1972
|  9> C 	 49.9797 	 8.68711 	 85.8904
| 10> C 	 50.2297 	 7.56525 	 85.0904
| 11> C 	 50.3716 	 6.31021 	 85.7339
| 12> H 	 50.4354 	 7.53979 	 84.0174
| 13> C 	 49.7145 	 10.1074 	 85.229
| 14> H 	 50.6521 	 10.5014 	 84.8418
| 15> H 	 49.4586 	 10.7233 	 86.0728
| 16> C 	 48.7158 	 10.184 	 84.1236
| 17> H 	 49.1608 	 9.80375 	 83.164
| 18> H 	 47.8247 	 9.62743 	 84.3206
| 19> C 	 48.2702 	 11.6423 	 83.9121
| 20> H 	 48.23 	 12.1888 	 84.8785
| 21> H 	 49.0976 	 12.1414 	 83.4457
| 22> H 	 47.3021 	 11.7083 	 83.2996
| 23> S 	 50.6066 	 4.9937 	 83.3454
| 24> C 	 51.581 	 3.5419 	 83.2551
| 25> C 	 51.8044 	 2.98387 	 84.514
| 26> C 	 51.497 	 3.92871 	 85.554
| 27> C 	 50.7613 	 5.06212 	 85.0857
| 28> H 	 52.3181 	 2.11164 	 84.3819
| 29> C 	 52.01 	 3.70233 	 86.9804
| 30> H 	 51.1167 	 3.78317 	 87.6932
| 31> H 	 52.5844 	 4.58767 	 87.2188
| 32> C 	 52.9393 	 2.50563 	 87.3275
| 33> H 	 53.6363 	 2.37689 	 86.5402
| 34> H 	 52.3324 	 1.59146 	 87.309
| 35> C 	 53.6859 	 2.61286 	 88.6536
| 36> H 	 52.9272 	 2.61038 	 89.465
| 37> H 	 54.218 	 3.5769 	 88.6904
| 38> H 	 54.3637 	 1.80434 	 88.8804
| 39> H 	 49.6036 	 8.9097 	 87.991
| 40> H 	 51.9061 	 3.07428 	 82.3658
| 41> *
| 42>
| 43>                          ****END OF INPUT****

CARTESIAN COORDINATES (ANGSTROEM)
---------------------------------
  S     50.029400    6.483250   87.451800
  C     49.836600    8.285660   87.197200
  C     49.979700    8.687110   85.890400
  C     50.229700    7.565250   85.090400
  C     50.371600    6.310210   85.733900
  H     50.435400    7.539790   84.017400
  C     49.714500   10.107400   85.229000
  H     50.652100   10.501400   84.841800
  H     49.458600   10.723300   86.072800
  C     48.715800   10.184000   84.123600
  H     49.160800    9.803750   83.164000
  H     47.824700    9.627430   84.320600
  C     48.270200   11.642300   83.912100
  H     48.230000   12.188800   84.878500
  H     49.097600   12.141400   83.445700
  H     47.302100   11.708300   83.299600
  S     50.606600    4.993700   83.345400
  C     51.581000    3.541900   83.255100
  C     51.804400    2.983870   84.514000
  C     51.497000    3.928710   85.554000
  C     50.761300    5.062120   85.085700
  H     52.318100    2.111640   84.381900
  C     52.010000    3.702330   86.980400
  H     51.116700    3.783170   87.693200
  H     52.584400    4.587670   87.218800
  C     52.939300    2.505630   87.327500
  H     53.636300    2.376890   86.540200
  H     52.332400    1.591460   87.309000
  C     53.685900    2.612860   88.653600
  H     52.927200    2.610380   89.465000
  H     54.218000    3.576900   88.690400
  H     54.363700    1.804340   88.880400
  H     49.603600    8.909700   87.991000
  H     51.906100    3.074280   82.365800

 Total Charge           Charge          ....    0
 Multiplicity           Mult            ....    1
 Number of Electrons    NEL             ....  134
 Basis Dimension        Dim             ....  322

ORBITAL ENERGIES
----------------

  NO   OCC          E(Eh)            E(eV)
   0   2.0000     -88.969885     -2420.9936
   1   2.0000     -88.966954     -2420.9139
   2   2.0000     -10.334391      -281.2131
   3   2.0000     -10.331469      -281.1336
   4   2.0000     -10.316235      -280.7190
   5   2.0000     -10.315750      -280.7058
   6   2.0000     -10.315221      -280.6914
   7   2.0000     -10.305064      -280.4150
   8   2.0000     -10.297949      -280.2214
   9   2.0000     -10.297362      -280.2055
  10   2.0000     -10.291540      -280.0470
  11   2.0000     -10.290588      -280.0211
  12   2.0000     -10.286801      -279.9181
  13   2.0000     -10.286371      -279.9064
  14   2.0000     -10.285033      -279.8700
  15   2.0000     -10.281532      -279.7747
  16   2.0000      -8.082662      -219.9404
  17   2.0000      -8.081409      -219.9063
  18   2.0000      -6.041252      -164.3908
  19   2.0000      -6.039919      -164.3545
  20   2.0000      -6.037621      -164.2920
  21   2.0000      -6.035939      -164.2462
  22   2.0000      -6.033290      -164.1742
  23   2.0000      -6.032224      -164.1452
  24   2.0000      -1.000484       -27.2245
  25   2.0000      -0.977079       -26.5877
  26   2.0000      -0.914908       -24.8959
  27   2.0000      -0.905276       -24.6338
  28   2.0000      -0.872010       -23.7286
  29   2.0000      -0.853517       -23.2254
  30   2.0000      -0.841104       -22.8876
  31   2.0000      -0.810142       -22.0451
  32   2.0000      -0.782952       -21.3052
  33   2.0000      -0.770934       -20.9782
  34   2.0000      -0.711465       -19.3600
  35   2.0000      -0.702899       -19.1269
  36   2.0000      -0.694137       -18.8884
  37   2.0000      -0.662816       -18.0362
  38   2.0000      -0.631847       -17.1934
  39   2.0000      -0.619079       -16.8460
  40   2.0000      -0.594284       -16.1713
  41   2.0000      -0.578165       -15.7327
  42   2.0000      -0.565690       -15.3932
  43   2.0000      -0.563900       -15.3445
  44   2.0000      -0.528880       -14.3915
  45   2.0000      -0.528394       -14.3783
  46   2.0000      -0.515175       -14.0186
  47   2.0000      -0.508229       -13.8296
  48   2.0000      -0.507266       -13.8034
  49   2.0000      -0.496480       -13.5099
  50   2.0000      -0.476243       -12.9592
  51   2.0000      -0.475663       -12.9434
  52   2.0000      -0.475102       -12.9282
  53   2.0000      -0.466807       -12.7025
  54   2.0000      -0.457441       -12.4476
  55   2.0000      -0.450548       -12.2600
  56   2.0000      -0.446007       -12.1365
  57   2.0000      -0.442803       -12.0493
  58   2.0000      -0.425533       -11.5793
  59   2.0000      -0.423957       -11.5365
  60   2.0000      -0.422299       -11.4913
  61   2.0000      -0.417681       -11.3657
  62   2.0000      -0.414213       -11.2713
  63   2.0000      -0.355661        -9.6780
  64   2.0000      -0.336298        -9.1511
  65   2.0000      -0.329633        -8.9698
  66   2.0000      -0.275724        -7.5028
  67   0.0000       0.014992         0.4080
  68   0.0000       0.082564         2.2467
  69   0.0000       0.100866         2.7447
  70   0.0000       0.118628         3.2280
  71   0.0000       0.126968         3.4550

MULLIKEN ATOMIC CHARGES
-----------------------
   0 S :    0.091114
   1 C :   -0.122769
   2 C :   -0.032521
   3 C :   -0.027786
   4 C :   -0.138663
   5 H :    0.018147
   6 C :    0.080492
   7 H :    0.034807
   8 H :    0.008960
   9 C :   -0.069142
  10 H :    0.041650
  11 H :    0.033711
  12 C :   -0.070300
  13 H :    0.029270
  14 H :    0.020613
  15 H :    0.060540
  16 S :    0.092401
  17 C :   -0.101638
  18 C :   -0.004663
  19 C :   -0.047208
  20 C :   -0.098164
  21 H :   -0.008426
  22 C :    0.008856
  23 H :    0.049042
  24 H :    0.030552
  25 C :   -0.053130
  26 H :    0.019962
  27 H :    0.029774
  28 C :   -0.044616
  29 H :    0.031222
  30 H :    0.036943
  31 H :    0.038821
  32 H :    0.018220
  33 H :    0.043926
Sum of atomic charges:    0.0000000

LOEWDIN ATOMIC CHARGES
----------------------
   0 S :    0.377344
   1 C :   -0.162621
   2 C :   -0.056645
   3 C :   -0.076944
   4 C :   -0.185457
   5 H :    0.019781
   6 C :   -0.020460
   7 H :    0.034137
   8 H :    0.024457
   9 C :   -0.044676
  10 H :    0.031207
  11 H :    0.022178
  12 C :   -0.069189
  13 H :    0.026733
  14 H :    0.020538
  15 H :    0.039116
  16 S :    0.414836
  17 C :   -0.171394
  18 C :   -0.065373
  19 C :   -0.046945
  20 C :   -0.202040
  21 H :    0.020469
  22 C :   -0.045308
  23 H :    0.034074
  24 H :    0.030543
  25 C :   -0.041213
  26 H :    0.016798
  27 H :    0.024940
  28 C :   -0.061980
  29 H :    0.028458
  30 H :    0.028007
  31 H :    0.027046
  32 H :    0.009371
  33 H :    0.020212

  Mayer bond orders larger than 0.100000
B(  0-S ,  1-C ) :   1.1216 B(  0-S ,  4-C ) :   1.1329 B(  1-C ,  2-C ) :   1.6254
B(  1-C , 32-H ) :   0.9716 B(  2-C ,  3-C ) :   1.2520 B(  2-C ,  6-C ) :   1.0049
B(  3-C ,  4-C ) :   1.5666 B(  3-C ,  5-H ) :   0.9731 B(  4-C , 20-C ) :   1.0926
B(  6-C ,  7-H ) :   0.9347 B(  6-C ,  8-H ) :   0.9449 B(  6-C ,  9-C ) :   1.0712
B(  9-C , 10-H ) :   0.9470 B(  9-C , 11-H ) :   0.9622 B(  9-C , 12-C ) :   1.0752
B( 12-C , 13-H ) :   0.9751 B( 12-C , 14-H ) :   0.9742 B( 12-C , 15-H ) :   0.9742
B( 16-S , 17-C ) :   1.1673 B( 16-S , 20-C ) :   1.1345 B( 17-C , 18-C ) :   1.6087
B( 17-C , 33-H ) :   0.9683 B( 18-C , 19-C ) :   1.2250 B( 18-C , 21-H ) :   1.0034
B( 19-C , 20-C ) :   1.5496 B( 19-C , 22-C ) :   1.0243 B( 22-C , 23-H ) :   0.9333
B( 22-C , 24-H ) :   0.9310 B( 22-C , 25-C ) :   1.0739 B( 25-C , 26-H ) :   0.9492
B( 25-C , 27-H ) :   0.9497 B( 25-C , 28-C ) :   1.0867 B( 28-C , 29-H ) :   0.9756
B( 28-C , 30-H ) :   0.9744 B( 28-C , 31-H ) :   0.9733

Dispersion correction           -0.013145893
FINAL SINGLE POINT ENERGY     -1339.857791075940

DIPOLE MOMENT
-------------
                                X             Y             Z
Electronic contribution:     -4.03542      -7.77501      -4.14538
Nuclear contribution   :      4.35510       7.90352       4.04780
                        -----------------------------------------
Total Dipole Moment    :      0.31968       0.12850      -0.09758
                        -----------------------------------------
Magnitude (a.u.)       :      0.35809
Magnitude (Debye)      :      0.91020

Rotational constants in cm-1:     0.023628     0.006989     0.005591
Rotational constants in MHz :   708.353220   209.535148   167.615297

                             ****ORCA TERMINATED NORMALLY****
TOTAL RUN TIME: 0 days 0 hours 0 minutes 29 seconds 753 msec
