                         Program Version 4.2.1 -  RELEASE  -
|  1> ! wB97X-D3 SP def2-SVP
|  2> %pal
|  3> nprocs 16
|  4> end
|  5>
|  6> * xyz 0 1
|  7> S 	 11.4676 	 -7.52855 	 74.6264
|  8> C 	 11.233 	 -5.96902 	 75.4459
|  9> C 	 11.0694 	 -4.96374 	 74.5404
| 10> C 	 11.3779 	 -5.42104 	 73.2108
| 11> C 	 11.5677 	 -6.78784 	 73.0301
| 12> H 	 11.3209 	 -4.82475 	 72.2753
| 13> C 	 10.7141 	 -3.48617 	 74.845
| 14> H 	 11.6578 	 -2.96953 	 74.5532
| 15> H 	 10.716 	 -3.33637 	 75.9391
| 16> C 	 9.56994 	 -2.83664 	 74.1228
| 17> H 	 9.79377 	 -3.00581 	 73.0702
| 18> H 	 8.54639 	 -3.27387 	 74.1583
| 19> C 	 9.51269 	 -1.33514 	 74.4297
| 20> H 	 9.45297 	 -1.20439 	 75.538
| 21> H 	 10.3885 	 -0.75062 	 74.0862
| 22> H 	 8.60365 	 -1.02196 	 73.9102
| 23> S 	 13.3782 	 -8.59763 	 72.0391
| 24> C 	 13.2241 	 -9.16421 	 70.4409
| 25> C 	 12.1178 	 -8.66118 	 69.8245
| 26> C 	 11.2882 	 -7.91074 	 70.7119
| 27> C 	 11.9392 	 -7.64185 	 71.8853
| 28> H 	 11.9017 	 -8.85878 	 68.7575
| 29> C 	 10.0037 	 -7.18826 	 70.2321
| 30> H 	 10.0741 	 -6.78723 	 69.1661
| 31> H 	 9.82393 	 -6.37003 	 70.9979
| 32> C 	 8.8097 	 -8.07112 	 70.2575
| 33> H 	 8.85424 	 -8.5727 	 71.216
| 34> H 	 9.02345 	 -8.8039 	 69.4472
| 35> C 	 7.42009 	 -7.47332 	 70.23
| 36> H 	 7.08309 	 -7.18009 	 69.1938
| 37> H 	 7.28008 	 -6.65603 	 70.9746
| 38> H 	 6.83819 	 -8.30508 	 70.5046
| 39> H 	 10.9428 	 -5.73578 	 76.4247
| 40> H 	 13.9707 	 -9.80479 	 69.9586
| 41> *
| 42>
| 43>                          ****END OF INPUT****

CARTESIAN COORDINATES (ANGSTROEM)
---------------------------------
  S     11.467600   -7.528550   74.626400
  C     11.233000   -5.969020   75.445900
  C     11.069400   -4.963740   74.540400
  C     11.377900   -5.421040   73.210800
  C     11.567700   -6.787840   73.030100
  H     11.320900   -4.824750   72.275300
  C     10.714100   -3.486170   74.845000
  H     11.657800   -2.969530   74.553200
  H     10.716000   -3.336370   75.939100
  C      9.569940   -2.836640   74.122800
  H      9.793770   -3.005810   73.070200
  H      8.546390   -3.273870   74.158300
  C      9.512690   -1.335140   74.429700
  H      9.452970   -1.204390   75.538000
  H     10.388500   -0.750620   74.086200
  H      8.603650   -1.021960   73.910200
  S     13.378200   -8.597630   72.039100
  C     13.224100   -9.164210   70.440900
  C     12.117800   -8.661180   69.824500
  C     11.288200   -7.910740   70.711900
  C     11.939200   -7.641850   71.885300
  H     11.901700   -8.858780   68.757500
  C     10.003700   -7.188260   70.232100
  H     10.074100   -6.787230   69.166100
  H      9.823930   -6.370030   70.997900
  C      8.809700   -8.071120   70.257500
  H      8.854240   -8.572700   71.216000
  H      9.023450   -8.803900   69.447200
  C      7.420090   -7.473320   70.230000
  H      7.083090   -7.180090   69.193800
  H      7.280080   -6.656030   70.974600
  H      6.838190   -8.305080   70.504600
  H     10.942800   -5.735780   76.424700
  H     13.970700   -9.804790   69.958600

 Total Charge           Charge          ....    0
 Multiplicity           Mult            ....    1
 Number of Electrons    NEL             ....  134
 Basis Dimension        Dim             ....  322

ORBITAL ENERGIES
----------------

  NO   OCC          E(Eh)            E(eV)
   0   2.0000     -88.966198     -2420.8933
   1   2.0000     -88.963592     -2420.8224
   2   2.0000     -10.334361      -281.2123
   3   2.0000     -10.327568      -281.0274
   4   2.0000     -10.314868      -280.6818
   5   2.0000     -10.309304      -280.5304
   6   2.0000     -10.304273      -280.3935
   7   2.0000     -10.302810      -280.3537
   8   2.0000     -10.299746      -280.2703
   9   2.0000     -10.298425      -280.2344
  10   2.0000     -10.295779      -280.1624
  11   2.0000     -10.294643      -280.1315
  12   2.0000     -10.290611      -280.0218
  13   2.0000     -10.286437      -279.9082
  14   2.0000     -10.279211      -279.7116
  15   2.0000     -10.278373      -279.6888
  16   2.0000      -8.082291      -219.9303
  17   2.0000      -8.077679      -219.8048
  18   2.0000      -6.040646      -164.3743
  19   2.0000      -6.036602      -164.2643
  20   2.0000      -6.036427      -164.2595
  21   2.0000      -6.033107      -164.1692
  22   2.0000      -6.032224      -164.1452
  23   2.0000      -6.028242      -164.0368
  24   2.0000      -1.013264       -27.5723
  25   2.0000      -0.986321       -26.8391
  26   2.0000      -0.914763       -24.8920
  27   2.0000      -0.914565       -24.8866
  28   2.0000      -0.873691       -23.7743
  29   2.0000      -0.854597       -23.2548
  30   2.0000      -0.839667       -22.8485
  31   2.0000      -0.816497       -22.2180
  32   2.0000      -0.785091       -21.3634
  33   2.0000      -0.775971       -21.1152
  34   2.0000      -0.708743       -19.2859
  35   2.0000      -0.695942       -18.9375
  36   2.0000      -0.683023       -18.5860
  37   2.0000      -0.659477       -17.9453
  38   2.0000      -0.641875       -17.4663
  39   2.0000      -0.614623       -16.7247
  40   2.0000      -0.598206       -16.2780
  41   2.0000      -0.573761       -15.6128
  42   2.0000      -0.570736       -15.5305
  43   2.0000      -0.558086       -15.1863
  44   2.0000      -0.533968       -14.5300
  45   2.0000      -0.522298       -14.2125
  46   2.0000      -0.517193       -14.0735
  47   2.0000      -0.510577       -13.8935
  48   2.0000      -0.504165       -13.7190
  49   2.0000      -0.497592       -13.5402
  50   2.0000      -0.493513       -13.4292
  51   2.0000      -0.483856       -13.1664
  52   2.0000      -0.474009       -12.8984
  53   2.0000      -0.469458       -12.7746
  54   2.0000      -0.459112       -12.4931
  55   2.0000      -0.450914       -12.2700
  56   2.0000      -0.447264       -12.1707
  57   2.0000      -0.439446       -11.9579
  58   2.0000      -0.424946       -11.5634
  59   2.0000      -0.418644       -11.3919
  60   2.0000      -0.414774       -11.2866
  61   2.0000      -0.412094       -11.2137
  62   2.0000      -0.409971       -11.1559
  63   2.0000      -0.344290        -9.3686
  64   2.0000      -0.335245        -9.1225
  65   2.0000      -0.326814        -8.8931
  66   2.0000      -0.301590        -8.2067
  67   0.0000       0.035937         0.9779
  68   0.0000       0.067229         1.8294
  69   0.0000       0.113962         3.1011
  70   0.0000       0.118976         3.2375
  71   0.0000       0.129642         3.5277

MULLIKEN ATOMIC CHARGES
-----------------------
   0 S :    0.094527
   1 C :   -0.079919
   2 C :   -0.103282
   3 C :    0.028439
   4 C :   -0.169813
   5 H :    0.026243
   6 C :    0.049232
   7 H :    0.040456
   8 H :    0.013284
   9 C :   -0.075260
  10 H :    0.018482
  11 H :    0.039057
  12 C :   -0.056689
  13 H :    0.038651
  14 H :    0.041168
  15 H :    0.040368
  16 S :    0.128901
  17 C :   -0.091436
  18 C :   -0.041151
  19 C :   -0.012349
  20 C :   -0.175742
  21 H :    0.029968
  22 C :    0.047156
  23 H :    0.039852
  24 H :    0.019222
  25 C :   -0.119233
  26 H :    0.024655
  27 H :    0.026841
  28 C :   -0.011127
  29 H :    0.034255
  30 H :    0.041234
  31 H :    0.027779
  32 H :    0.022682
  33 H :    0.063547
Sum of atomic charges:   -0.0000000

LOEWDIN ATOMIC CHARGES
----------------------
   0 S :    0.385725
   1 C :   -0.186873
   2 C :   -0.063118
   3 C :   -0.072999
   4 C :   -0.187565
   5 H :    0.032542
   6 C :   -0.035771
   7 H :    0.042267
   8 H :    0.025676
   9 C :   -0.051492
  10 H :    0.023726
  11 H :    0.030693
  12 C :   -0.064086
  13 H :    0.029015
  14 H :    0.028000
  15 H :    0.029899
  16 S :    0.436651
  17 C :   -0.198313
  18 C :   -0.076602
  19 C :   -0.052233
  20 C :   -0.210704
  21 H :    0.036552
  22 C :   -0.037877
  23 H :    0.034443
  24 H :    0.030557
  25 C :   -0.054593
  26 H :    0.024766
  27 H :    0.025511
  28 C :   -0.062989
  29 H :    0.027756
  30 H :    0.031449
  31 H :    0.024839
  32 H :    0.020968
  33 H :    0.034179

  Mayer bond orders larger than 0.100000
B(  0-S ,  1-C ) :   1.1210 B(  0-S ,  4-C ) :   1.1433 B(  1-C ,  2-C ) :   1.6570
B(  1-C , 32-H ) :   0.9618 B(  2-C ,  3-C ) :   1.2131 B(  2-C ,  6-C ) :   1.0097
B(  3-C ,  4-C ) :   1.6169 B(  3-C ,  5-H ) :   0.9804 B(  4-C , 20-C ) :   1.0037
B(  6-C ,  7-H ) :   0.9405 B(  6-C ,  8-H ) :   0.9441 B(  6-C ,  9-C ) :   1.0540
B(  9-C , 10-H ) :   0.9463 B(  9-C , 11-H ) :   0.9573 B(  9-C , 12-C ) :   1.0800
B( 12-C , 13-H ) :   0.9759 B( 12-C , 14-H ) :   0.9751 B( 12-C , 15-H ) :   0.9745
B( 16-S , 17-C ) :   1.1656 B( 16-S , 20-C ) :   1.1563 B( 17-C , 18-C ) :   1.6080
B( 17-C , 33-H ) :   0.9650 B( 18-C , 19-C ) :   1.2346 B( 18-C , 21-H ) :   0.9857
B( 19-C , 20-C ) :   1.6040 B( 19-C , 22-C ) :   1.0379 B( 22-C , 23-H ) :   0.9450
B( 22-C , 24-H ) :   0.9298 B( 22-C , 25-C ) :   1.0640 B( 25-C , 26-H ) :   0.9551
B( 25-C , 27-H ) :   0.9537 B( 25-C , 28-C ) :   1.0869 B( 28-C , 29-H ) :   0.9712
B( 28-C , 30-H ) :   0.9691 B( 28-C , 31-H ) :   0.9738

Dispersion correction           -0.013457459
FINAL SINGLE POINT ENERGY     -1339.871331216951

DIPOLE MOMENT
-------------
                                X             Y             Z
Electronic contribution:     21.41467     -20.09927       6.00565
Nuclear contribution   :    -21.77460      20.53170      -6.39218
                        -----------------------------------------
Total Dipole Moment    :     -0.35992       0.43243      -0.38653
                        -----------------------------------------
Magnitude (a.u.)       :      0.68261
Magnitude (Debye)      :      1.73505

Rotational constants in cm-1:     0.017498     0.008370     0.006548
Rotational constants in MHz :   524.580296   250.917578   196.312541

                             ****ORCA TERMINATED NORMALLY****
TOTAL RUN TIME: 0 days 0 hours 0 minutes 34 seconds 299 msec
