                         Program Version 4.2.1 -  RELEASE  -
|  1> ! wB97X-D3 SP def2-SVP
|  2> %pal
|  3> nprocs 16
|  4> end
|  5>
|  6> * xyz 0 1
|  7> S 	 -39.3037 	 -8.71365 	 100.101
|  8> C 	 -40.8289 	 -9.53306 	 100.018
|  9> C 	 -41.8373 	 -8.63035 	 100.377
| 10> C 	 -41.3541 	 -7.43804 	 101.018
| 11> C 	 -40.0146 	 -7.35815 	 101.017
| 12> H 	 -41.9593 	 -6.59824 	 101.488
| 13> C 	 -43.3501 	 -8.86844 	 100.245
| 14> H 	 -43.7802 	 -8.61493 	 101.233
| 15> H 	 -43.6282 	 -9.87216 	 100.092
| 16> C 	 -44.1076 	 -8.03591 	 99.2279
| 17> H 	 -45.1874 	 -8.22942 	 99.305
| 18> H 	 -43.9718 	 -6.95205 	 99.3485
| 19> C 	 -43.644 	 -8.47004 	 97.8244
| 20> H 	 -42.6091 	 -8.39922 	 97.8529
| 21> H 	 -43.9329 	 -9.56876 	 97.5984
| 22> H 	 -44.0741 	 -7.83829 	 97.1337
| 23> S 	 -37.6827 	 -5.90155 	 100.879
| 24> C 	 -37.4483 	 -4.46693 	 101.814
| 25> C 	 -38.5654 	 -4.24113 	 102.606
| 26> C 	 -39.6515 	 -5.18155 	 102.365
| 27> C 	 -39.296 	 -6.1568 	 101.446
| 28> H 	 -38.5532 	 -3.48446 	 103.358
| 29> C 	 -40.812 	 -5.16648 	 103.318
| 30> H 	 -41.747 	 -5.11591 	 102.782
| 31> H 	 -40.7558 	 -4.16656 	 103.762
| 32> C 	 -40.8089 	 -6.28836 	 104.405
| 33> H 	 -39.8383 	 -6.37046 	 104.945
| 34> H 	 -40.9058 	 -7.24217 	 103.822
| 35> C 	 -42.0382 	 -6.20876 	 105.341
| 36> H 	 -42.9163 	 -5.93839 	 104.777
| 37> H 	 -41.9516 	 -5.36546 	 106.005
| 38> H 	 -42.3688 	 -7.06741 	 105.884
| 39> H 	 -41.0988 	 -10.3479 	 99.3596
| 40> H 	 -36.5509 	 -3.91985 	 101.936
| 41> *
| 42>
| 43>                          ****END OF INPUT****

CARTESIAN COORDINATES (ANGSTROEM)
---------------------------------
  S    -39.303700   -8.713650  100.101000
  C    -40.828900   -9.533060  100.018000
  C    -41.837300   -8.630350  100.377000
  C    -41.354100   -7.438040  101.018000
  C    -40.014600   -7.358150  101.017000
  H    -41.959300   -6.598240  101.488000
  C    -43.350100   -8.868440  100.245000
  H    -43.780200   -8.614930  101.233000
  H    -43.628200   -9.872160  100.092000
  C    -44.107600   -8.035910   99.227900
  H    -45.187400   -8.229420   99.305000
  H    -43.971800   -6.952050   99.348500
  C    -43.644000   -8.470040   97.824400
  H    -42.609100   -8.399220   97.852900
  H    -43.932900   -9.568760   97.598400
  H    -44.074100   -7.838290   97.133700
  S    -37.682700   -5.901550  100.879000
  C    -37.448300   -4.466930  101.814000
  C    -38.565400   -4.241130  102.606000
  C    -39.651500   -5.181550  102.365000
  C    -39.296000   -6.156800  101.446000
  H    -38.553200   -3.484460  103.358000
  C    -40.812000   -5.166480  103.318000
  H    -41.747000   -5.115910  102.782000
  H    -40.755800   -4.166560  103.762000
  C    -40.808900   -6.288360  104.405000
  H    -39.838300   -6.370460  104.945000
  H    -40.905800   -7.242170  103.822000
  C    -42.038200   -6.208760  105.341000
  H    -42.916300   -5.938390  104.777000
  H    -41.951600   -5.365460  106.005000
  H    -42.368800   -7.067410  105.884000
  H    -41.098800  -10.347900   99.359600
  H    -36.550900   -3.919850  101.936000

 Total Charge           Charge          ....    0
 Multiplicity           Mult            ....    1
 Number of Electrons    NEL             ....  134
 Basis Dimension        Dim             ....  322

ORBITAL ENERGIES
----------------

  NO   OCC          E(Eh)            E(eV)
   0   2.0000     -88.968879     -2420.9663
   1   2.0000     -88.967282     -2420.9228
   2   2.0000     -10.332298      -281.1561
   3   2.0000     -10.329846      -281.0894
   4   2.0000     -10.315986      -280.7122
   5   2.0000     -10.315675      -280.7038
   6   2.0000     -10.307730      -280.4876
   7   2.0000     -10.304213      -280.3919
   8   2.0000     -10.296370      -280.1785
   9   2.0000     -10.295967      -280.1675
  10   2.0000     -10.295733      -280.1611
  11   2.0000     -10.295592      -280.1573
  12   2.0000     -10.288680      -279.9692
  13   2.0000     -10.286154      -279.9005
  14   2.0000     -10.274674      -279.5881
  15   2.0000     -10.268835      -279.4292
  16   2.0000      -8.083227      -219.9558
  17   2.0000      -8.082725      -219.9421
  18   2.0000      -6.041965      -164.4102
  19   2.0000      -6.041247      -164.3907
  20   2.0000      -6.037961      -164.3013
  21   2.0000      -6.037057      -164.2767
  22   2.0000      -6.033565      -164.1816
  23   2.0000      -6.033520      -164.1804
  24   2.0000      -1.011993       -27.5377
  25   2.0000      -0.988204       -26.8904
  26   2.0000      -0.914179       -24.8761
  27   2.0000      -0.908806       -24.7299
  28   2.0000      -0.874795       -23.8044
  29   2.0000      -0.853588       -23.2273
  30   2.0000      -0.844759       -22.9871
  31   2.0000      -0.817872       -22.2554
  32   2.0000      -0.782546       -21.2941
  33   2.0000      -0.775354       -21.0985
  34   2.0000      -0.712344       -19.3839
  35   2.0000      -0.698350       -19.0031
  36   2.0000      -0.694547       -18.8996
  37   2.0000      -0.668858       -18.2006
  38   2.0000      -0.637584       -17.3495
  39   2.0000      -0.624242       -16.9865
  40   2.0000      -0.596902       -16.2425
  41   2.0000      -0.571621       -15.5546
  42   2.0000      -0.558597       -15.2002
  43   2.0000      -0.556169       -15.1341
  44   2.0000      -0.538682       -14.6583
  45   2.0000      -0.523677       -14.2500
  46   2.0000      -0.519598       -14.1390
  47   2.0000      -0.516786       -14.0625
  48   2.0000      -0.504373       -13.7247
  49   2.0000      -0.499063       -13.5802
  50   2.0000      -0.493281       -13.4228
  51   2.0000      -0.489380       -13.3167
  52   2.0000      -0.470591       -12.8054
  53   2.0000      -0.466301       -12.6887
  54   2.0000      -0.460719       -12.5368
  55   2.0000      -0.453076       -12.3288
  56   2.0000      -0.441499       -12.0138
  57   2.0000      -0.438716       -11.9381
  58   2.0000      -0.434191       -11.8149
  59   2.0000      -0.426179       -11.5969
  60   2.0000      -0.425108       -11.5678
  61   2.0000      -0.414271       -11.2729
  62   2.0000      -0.409158       -11.1337
  63   2.0000      -0.367791       -10.0081
  64   2.0000      -0.334216        -9.0945
  65   2.0000      -0.325388        -8.8543
  66   2.0000      -0.287374        -7.8199
  67   0.0000       0.018686         0.5085
  68   0.0000       0.079568         2.1652
  69   0.0000       0.101881         2.7723
  70   0.0000       0.113364         3.0848
  71   0.0000       0.133930         3.6444

MULLIKEN ATOMIC CHARGES
-----------------------
   0 S :    0.097942
   1 C :   -0.073972
   2 C :   -0.130960
   3 C :   -0.032489
   4 C :   -0.076654
   5 H :    0.032503
   6 C :    0.072214
   7 H :    0.026335
   8 H :    0.004285
   9 C :   -0.090432
  10 H :    0.032975
  11 H :    0.031973
  12 C :   -0.024875
  13 H :    0.025463
  14 H :    0.031303
  15 H :    0.020578
  16 S :    0.103319
  17 C :   -0.071617
  18 C :   -0.033184
  19 C :   -0.067612
  20 C :   -0.134590
  21 H :    0.011915
  22 C :    0.039016
  23 H :    0.022923
  24 H :    0.011239
  25 C :   -0.070085
  26 H :    0.044798
  27 H :    0.042688
  28 C :   -0.013344
  29 H :    0.006300
  30 H :    0.021121
  31 H :    0.036180
  32 H :    0.057238
  33 H :    0.047505
Sum of atomic charges:   -0.0000000

LOEWDIN ATOMIC CHARGES
----------------------
   0 S :    0.391589
   1 C :   -0.209589
   2 C :   -0.056250
   3 C :   -0.073195
   4 C :   -0.174830
   5 H :    0.046045
   6 C :   -0.032530
   7 H :    0.032878
   8 H :    0.021389
   9 C :   -0.039358
  10 H :    0.025322
  11 H :    0.022880
  12 C :   -0.054923
  13 H :    0.015049
  14 H :    0.032211
  15 H :    0.013182
  16 S :    0.423307
  17 C :   -0.190463
  18 C :   -0.062577
  19 C :   -0.064986
  20 C :   -0.194451
  21 H :    0.025925
  22 C :   -0.035743
  23 H :    0.022945
  24 H :    0.029717
  25 C :   -0.038717
  26 H :    0.030886
  27 H :    0.031214
  28 C :   -0.067676
  29 H :    0.023056
  30 H :    0.022547
  31 H :    0.025634
  32 H :    0.033280
  33 H :    0.026232

  Mayer bond orders larger than 0.100000
B(  0-S ,  1-C ) :   1.1197 B(  0-S ,  4-C ) :   1.1290 B(  1-C ,  2-C ) :   1.6232
B(  1-C , 32-H ) :   0.9597 B(  2-C ,  3-C ) :   1.2195 B(  2-C ,  6-C ) :   1.0301
B(  3-C ,  4-C ) :   1.5879 B(  3-C ,  5-H ) :   0.9790 B(  4-C , 20-C ) :   1.0860
B(  6-C ,  7-H ) :   0.9403 B(  6-C ,  8-H ) :   0.9442 B(  6-C ,  9-C ) :   1.0769
B(  9-C , 10-H ) :   0.9547 B(  9-C , 11-H ) :   0.9561 B(  9-C , 12-C ) :   1.0698
B( 12-C , 13-H ) :   0.9795 B( 12-C , 14-H ) :   0.9738 B( 12-C , 15-H ) :   0.9731
B( 16-S , 17-C ) :   1.1581 B( 16-S , 20-C ) :   1.1412 B( 17-C , 18-C ) :   1.6032
B( 17-C , 33-H ) :   0.9728 B( 18-C , 19-C ) :   1.2617 B( 18-C , 21-H ) :   0.9895
B( 19-C , 20-C ) :   1.5698 B( 19-C , 22-C ) :   1.0532 B( 22-C , 23-H ) :   0.9251
B( 22-C , 24-H ) :   0.9254 B( 22-C , 25-C ) :   1.0488 B( 25-C , 26-H ) :   0.9592
B( 25-C , 27-H ) :   0.9519 B( 25-C , 28-C ) :   1.0707 B( 28-C , 29-H ) :   0.9692
B( 28-C , 30-H ) :   0.9756 B( 28-C , 31-H ) :   0.9763

Dispersion correction           -0.014731786
FINAL SINGLE POINT ENERGY     -1339.872026478540

DIPOLE MOMENT
-------------
                                X             Y             Z
Electronic contribution:     26.08514      -0.28187      -7.29684
Nuclear contribution   :    -26.66300       0.55510       7.59776
                        -----------------------------------------
Total Dipole Moment    :     -0.57785       0.27323       0.30092
                        -----------------------------------------
Magnitude (a.u.)       :      0.70649
Magnitude (Debye)      :      1.79575

Rotational constants in cm-1:     0.017947     0.009351     0.007185
Rotational constants in MHz :   538.030954   280.331594   215.393487

                             ****ORCA TERMINATED NORMALLY****
TOTAL RUN TIME: 0 days 0 hours 0 minutes 30 seconds 434 msec
