                         Program Version 4.2.1 -  RELEASE  -
|  1> ! wB97X-D3 SP def2-SVP
|  2> %pal
|  3> nprocs 16
|  4> end
|  5>
|  6> * xyz 0 1
|  7> S 	 -106.526 	 49.8546 	 123.043
|  8> C 	 -107.911 	 49.0147 	 122.307
|  9> C 	 -108.161 	 49.3968 	 121.016
| 10> C 	 -107.095 	 50.1737 	 120.569
| 11> C 	 -106.23 	 50.695 	 121.536
| 12> H 	 -107.047 	 50.4903 	 119.503
| 13> C 	 -109.166 	 48.8049 	 120.028
| 14> H 	 -109.668 	 48.0021 	 120.513
| 15> H 	 -108.561 	 48.2866 	 119.218
| 16> C 	 -110.108 	 49.7888 	 119.38
| 17> H 	 -110.476 	 50.3182 	 120.236
| 18> H 	 -109.637 	 50.5741 	 118.761
| 19> C 	 -111.332 	 49.1978 	 118.566
| 20> H 	 -111.935 	 48.3787 	 119.05
| 21> H 	 -111.982 	 49.928 	 118.101
| 22> H 	 -110.824 	 48.7491 	 117.653
| 23> S 	 -103.653 	 51.4761 	 122.383
| 24> C 	 -102.784 	 52.5012 	 121.278
| 25> C 	 -103.558 	 53.0251 	 120.266
| 26> C 	 -104.898 	 52.4997 	 120.291
| 27> C 	 -105.097 	 51.6582 	 121.337
| 28> H 	 -103.214 	 53.7285 	 119.49
| 29> C 	 -105.848 	 52.9521 	 119.197
| 30> H 	 -106.182 	 53.9971 	 119.354
| 31> H 	 -106.776 	 52.423 	 119.399
| 32> C 	 -105.554 	 52.5435 	 117.658
| 33> H 	 -106.376 	 52.6161 	 116.981
| 34> H 	 -105.344 	 51.4995 	 117.769
| 35> C 	 -104.402 	 53.3491 	 117.004
| 36> H 	 -104.43 	 54.4162 	 116.981
| 37> H 	 -104.418 	 53.1041 	 115.947
| 38> H 	 -103.489 	 53.0713 	 117.346
| 39> H 	 -108.561 	 48.2659 	 122.819
| 40> H 	 -101.875 	 53.0733 	 121.633
| 41> *
| 42>
| 43>                          ****END OF INPUT****

CARTESIAN COORDINATES (ANGSTROEM)
---------------------------------
  S    -106.526000   49.854600  123.043000
  C    -107.911000   49.014700  122.307000
  C    -108.161000   49.396800  121.016000
  C    -107.095000   50.173700  120.569000
  C    -106.230000   50.695000  121.536000
  H    -107.047000   50.490300  119.503000
  C    -109.166000   48.804900  120.028000
  H    -109.668000   48.002100  120.513000
  H    -108.561000   48.286600  119.218000
  C    -110.108000   49.788800  119.380000
  H    -110.476000   50.318200  120.236000
  H    -109.637000   50.574100  118.761000
  C    -111.332000   49.197800  118.566000
  H    -111.935000   48.378700  119.050000
  H    -111.982000   49.928000  118.101000
  H    -110.824000   48.749100  117.653000
  S    -103.653000   51.476100  122.383000
  C    -102.784000   52.501200  121.278000
  C    -103.558000   53.025100  120.266000
  C    -104.898000   52.499700  120.291000
  C    -105.097000   51.658200  121.337000
  H    -103.214000   53.728500  119.490000
  C    -105.848000   52.952100  119.197000
  H    -106.182000   53.997100  119.354000
  H    -106.776000   52.423000  119.399000
  C    -105.554000   52.543500  117.658000
  H    -106.376000   52.616100  116.981000
  H    -105.344000   51.499500  117.769000
  C    -104.402000   53.349100  117.004000
  H    -104.430000   54.416200  116.981000
  H    -104.418000   53.104100  115.947000
  H    -103.489000   53.071300  117.346000
  H    -108.561000   48.265900  122.819000
  H    -101.875000   53.073300  121.633000

 Total Charge           Charge          ....    0
 Multiplicity           Mult            ....    1
 Number of Electrons    NEL             ....  134
 Basis Dimension        Dim             ....  322

ORBITAL ENERGIES
----------------

  NO   OCC          E(Eh)            E(eV)
   0   2.0000     -88.970383     -2421.0072
   1   2.0000     -88.967713     -2420.9345
   2   2.0000     -10.334396      -281.2132
   3   2.0000     -10.333663      -281.1933
   4   2.0000     -10.320457      -280.8339
   5   2.0000     -10.319717      -280.8138
   6   2.0000     -10.303524      -280.3731
   7   2.0000     -10.298660      -280.2408
   8   2.0000     -10.298164      -280.2273
   9   2.0000     -10.296569      -280.1839
  10   2.0000     -10.295985      -280.1680
  11   2.0000     -10.295636      -280.1585
  12   2.0000     -10.292939      -280.0851
  13   2.0000     -10.292447      -280.0717
  14   2.0000     -10.292065      -280.0613
  15   2.0000     -10.270025      -279.4616
  16   2.0000      -8.084412      -219.9880
  17   2.0000      -8.082276      -219.9299
  18   2.0000      -6.042993      -164.4382
  19   2.0000      -6.040890      -164.3810
  20   2.0000      -6.039095      -164.3321
  21   2.0000      -6.037034      -164.2760
  22   2.0000      -6.035076      -164.2228
  23   2.0000      -6.032714      -164.1585
  24   2.0000      -1.006130       -27.3782
  25   2.0000      -0.986263       -26.8376
  26   2.0000      -0.912407       -24.8279
  27   2.0000      -0.902240       -24.5512
  28   2.0000      -0.865296       -23.5459
  29   2.0000      -0.856062       -23.2946
  30   2.0000      -0.842503       -22.9257
  31   2.0000      -0.809523       -22.0282
  32   2.0000      -0.789448       -21.4820
  33   2.0000      -0.778061       -21.1721
  34   2.0000      -0.714813       -19.4511
  35   2.0000      -0.703071       -19.1315
  36   2.0000      -0.690879       -18.7998
  37   2.0000      -0.662468       -18.0267
  38   2.0000      -0.634351       -17.2616
  39   2.0000      -0.622224       -16.9316
  40   2.0000      -0.592738       -16.1292
  41   2.0000      -0.567284       -15.4366
  42   2.0000      -0.559852       -15.2343
  43   2.0000      -0.556705       -15.1487
  44   2.0000      -0.533175       -14.5084
  45   2.0000      -0.521720       -14.1967
  46   2.0000      -0.514131       -13.9902
  47   2.0000      -0.512584       -13.9481
  48   2.0000      -0.503129       -13.6908
  49   2.0000      -0.493971       -13.4416
  50   2.0000      -0.487899       -13.2764
  51   2.0000      -0.481115       -13.0918
  52   2.0000      -0.474781       -12.9194
  53   2.0000      -0.469009       -12.7624
  54   2.0000      -0.459241       -12.4966
  55   2.0000      -0.450891       -12.2694
  56   2.0000      -0.448553       -12.2057
  57   2.0000      -0.441395       -12.0110
  58   2.0000      -0.438031       -11.9194
  59   2.0000      -0.429339       -11.6829
  60   2.0000      -0.427282       -11.6269
  61   2.0000      -0.410234       -11.1630
  62   2.0000      -0.404133       -10.9970
  63   2.0000      -0.355375        -9.6702
  64   2.0000      -0.338393        -9.2082
  65   2.0000      -0.331988        -9.0339
  66   2.0000      -0.286769        -7.8034
  67   0.0000       0.020228         0.5504
  68   0.0000       0.078861         2.1459
  69   0.0000       0.091455         2.4886
  70   0.0000       0.113271         3.0823
  71   0.0000       0.131571         3.5802

MULLIKEN ATOMIC CHARGES
-----------------------
   0 S :    0.103123
   1 C :   -0.135093
   2 C :   -0.078023
   3 C :   -0.015689
   4 C :   -0.127040
   5 H :    0.019080
   6 C :    0.076196
   7 H :    0.005076
   8 H :    0.040027
   9 C :   -0.082215
  10 H :    0.025963
  11 H :    0.036243
  12 C :   -0.075743
  13 H :    0.050451
  14 H :    0.040615
  15 H :    0.028111
  16 S :    0.093382
  17 C :   -0.095279
  18 C :   -0.041112
  19 C :   -0.082641
  20 C :   -0.092097
  21 H :    0.033025
  22 C :    0.035417
  23 H :    0.044771
  24 H :    0.002066
  25 C :   -0.055649
  26 H :    0.030615
  27 H :    0.033471
  28 C :   -0.014723
  29 H :    0.026109
  30 H :    0.018691
  31 H :    0.013648
  32 H :    0.056928
  33 H :    0.082294
Sum of atomic charges:    0.0000000

LOEWDIN ATOMIC CHARGES
----------------------
   0 S :    0.392522
   1 C :   -0.187997
   2 C :   -0.071090
   3 C :   -0.069116
   4 C :   -0.187878
   5 H :    0.031235
   6 C :   -0.026792
   7 H :    0.024488
   8 H :    0.038056
   9 C :   -0.046733
  10 H :    0.021395
  11 H :    0.027847
  12 C :   -0.075518
  13 H :    0.031387
  14 H :    0.026384
  15 H :    0.030106
  16 S :    0.382856
  17 C :   -0.198225
  18 C :   -0.067078
  19 C :   -0.059624
  20 C :   -0.176452
  21 H :    0.037748
  22 C :   -0.039640
  23 H :    0.036076
  24 H :    0.024821
  25 C :   -0.023191
  26 H :    0.023114
  27 H :    0.025305
  28 C :   -0.062641
  29 H :    0.023756
  30 H :    0.029512
  31 H :    0.008361
  32 H :    0.034986
  33 H :    0.042017

  Mayer bond orders larger than 0.100000
B(  0-S ,  1-C ) :   1.1397 B(  0-S ,  4-C ) :   1.1421 B(  1-C ,  2-C ) :   1.6145
B(  1-C , 32-H ) :   0.9551 B(  2-C ,  3-C ) :   1.2681 B(  2-C ,  6-C ) :   1.0281
B(  3-C ,  4-C ) :   1.5667 B(  3-C ,  5-H ) :   0.9695 B(  4-C , 20-C ) :   1.0354
B(  6-C ,  7-H ) :   0.9392 B(  6-C ,  8-H ) :   0.9410 B(  6-C ,  9-C ) :   1.0453
B(  9-C , 10-H ) :   0.9571 B(  9-C , 11-H ) :   0.9562 B(  9-C , 12-C ) :   1.0741
B( 12-C , 13-H ) :   0.9767 B( 12-C , 14-H ) :   0.9764 B( 12-C , 15-H ) :   0.9742
B( 16-S , 17-C ) :   1.1460 B( 16-S , 20-C ) :   1.1158 B( 17-C , 18-C ) :   1.6310
B( 17-C , 33-H ) :   0.9476 B( 18-C , 19-C ) :   1.2282 B( 18-C , 21-H ) :   0.9795
B( 19-C , 20-C ) :   1.6496 B( 19-C , 22-C ) :   1.0336 B( 22-C , 23-H ) :   0.9370
B( 22-C , 24-H ) :   0.9311 B( 22-C , 25-C ) :   1.0504 B( 25-C , 26-H ) :   0.9661
B( 25-C , 27-H ) :   0.9532 B( 25-C , 28-C ) :   1.0809 B( 28-C , 29-H ) :   0.9769
B( 28-C , 30-H ) :   0.9673 B( 28-C , 31-H ) :   0.9718

Dispersion correction           -0.014111348
FINAL SINGLE POINT ENERGY     -1339.852645183747

DIPOLE MOMENT
-------------
                                X             Y             Z
Electronic contribution:     16.87951      -2.57621      28.19574
Nuclear contribution   :    -17.24395       2.71294     -28.94974
                        -----------------------------------------
Total Dipole Moment    :     -0.36444       0.13673      -0.75400
                        -----------------------------------------
Magnitude (a.u.)       :      0.84854
Magnitude (Debye)      :      2.15682

Rotational constants in cm-1:     0.017136     0.009121     0.006121
Rotational constants in MHz :   513.732018   273.449984   183.500565

                             ****ORCA TERMINATED NORMALLY****
TOTAL RUN TIME: 0 days 0 hours 0 minutes 32 seconds 718 msec
