                         Program Version 4.2.1 -  RELEASE  -
|  1> ! wB97X-D3 SP def2-SVP
|  2> %pal
|  3> nprocs 16
|  4> end
|  5>
|  6> * xyz 0 1
|  7> S 	 49.4631 	 13.5499 	 86.1813
|  8> C 	 48.0305 	 14.0673 	 85.296
|  9> C 	 47.766 	 13.2995 	 84.1252
| 10> C 	 48.7816 	 12.2785 	 83.9987
| 11> C 	 49.8569 	 12.4319 	 84.8592
| 12> H 	 48.8651 	 11.5334 	 83.2849
| 13> C 	 46.6015 	 13.4289 	 83.1921
| 14> H 	 45.9539 	 14.2393 	 83.4604
| 15> H 	 45.8497 	 12.6562 	 83.237
| 16> C 	 47.0334 	 13.7484 	 81.7521
| 17> H 	 47.5713 	 12.9235 	 81.2782
| 18> H 	 46.1749 	 13.8968 	 81.0832
| 19> C 	 47.7746 	 14.9981 	 81.6639
| 20> H 	 48.7865 	 14.819 	 82.0583
| 21> H 	 47.9474 	 15.2853 	 80.611
| 22> H 	 47.338 	 15.7373 	 82.2765
| 23> S 	 52.541 	 12.5853 	 84.4815
| 24> C 	 53.5389 	 11.1859 	 84.7963
| 25> C 	 52.8092 	 10.0807 	 85.0433
| 26> C 	 51.4185 	 10.3393 	 85.0739
| 27> C 	 51.124 	 11.6898 	 84.8478
| 28> H 	 53.1982 	 9.16447 	 85.3125
| 29> C 	 50.4671 	 9.33718 	 85.6135
| 30> H 	 49.6085 	 9.89816 	 85.8811
| 31> H 	 50.8552 	 8.92276 	 86.5243
| 32> C 	 50.0997 	 8.11251 	 84.7859
| 33> H 	 49.4298 	 7.52469 	 85.3375
| 34> H 	 50.9382 	 7.37317 	 84.6294
| 35> C 	 49.4111 	 8.4448 	 83.3794
| 36> H 	 50.0046 	 9.11203 	 82.6831
| 37> H 	 48.5515 	 9.13809 	 83.5046
| 38> H 	 49.067 	 7.60345 	 82.8719
| 39> H 	 47.4048 	 14.8619 	 85.6447
| 40> H 	 54.637 	 11.2276 	 84.8256
| 41> *
| 42>
| 43>                          ****END OF INPUT****

CARTESIAN COORDINATES (ANGSTROEM)
---------------------------------
  S     49.463100   13.549900   86.181300
  C     48.030500   14.067300   85.296000
  C     47.766000   13.299500   84.125200
  C     48.781600   12.278500   83.998700
  C     49.856900   12.431900   84.859200
  H     48.865100   11.533400   83.284900
  C     46.601500   13.428900   83.192100
  H     45.953900   14.239300   83.460400
  H     45.849700   12.656200   83.237000
  C     47.033400   13.748400   81.752100
  H     47.571300   12.923500   81.278200
  H     46.174900   13.896800   81.083200
  C     47.774600   14.998100   81.663900
  H     48.786500   14.819000   82.058300
  H     47.947400   15.285300   80.611000
  H     47.338000   15.737300   82.276500
  S     52.541000   12.585300   84.481500
  C     53.538900   11.185900   84.796300
  C     52.809200   10.080700   85.043300
  C     51.418500   10.339300   85.073900
  C     51.124000   11.689800   84.847800
  H     53.198200    9.164470   85.312500
  C     50.467100    9.337180   85.613500
  H     49.608500    9.898160   85.881100
  H     50.855200    8.922760   86.524300
  C     50.099700    8.112510   84.785900
  H     49.429800    7.524690   85.337500
  H     50.938200    7.373170   84.629400
  C     49.411100    8.444800   83.379400
  H     50.004600    9.112030   82.683100
  H     48.551500    9.138090   83.504600
  H     49.067000    7.603450   82.871900
  H     47.404800   14.861900   85.644700
  H     54.637000   11.227600   84.825600

 Total Charge           Charge          ....    0
 Multiplicity           Mult            ....    1
 Number of Electrons    NEL             ....  134
 Basis Dimension        Dim             ....  322

ORBITAL ENERGIES
----------------

  NO   OCC          E(Eh)            E(eV)
   0   2.0000     -88.968391     -2420.9530
   1   2.0000     -88.963884     -2420.8304
   2   2.0000     -10.330111      -281.0966
   3   2.0000     -10.322262      -280.8830
   4   2.0000     -10.319620      -280.8111
   5   2.0000     -10.314547      -280.6731
   6   2.0000     -10.309988      -280.5490
   7   2.0000     -10.297170      -280.2002
   8   2.0000     -10.293430      -280.0985
   9   2.0000     -10.291473      -280.0452
  10   2.0000     -10.290434      -280.0169
  11   2.0000     -10.282702      -279.8065
  12   2.0000     -10.282096      -279.7901
  13   2.0000     -10.280042      -279.7342
  14   2.0000     -10.279084      -279.7081
  15   2.0000     -10.264837      -279.3204
  16   2.0000      -8.082448      -219.9346
  17   2.0000      -8.079484      -219.8539
  18   2.0000      -6.040867      -164.3803
  19   2.0000      -6.037900      -164.2996
  20   2.0000      -6.037210      -164.2808
  21   2.0000      -6.033863      -164.1898
  22   2.0000      -6.033189      -164.1714
  23   2.0000      -6.030297      -164.0927
  24   2.0000      -1.007911       -27.4267
  25   2.0000      -0.981954       -26.7203
  26   2.0000      -0.920795       -25.0561
  27   2.0000      -0.908464       -24.7206
  28   2.0000      -0.870168       -23.6785
  29   2.0000      -0.849367       -23.1124
  30   2.0000      -0.845255       -23.0005
  31   2.0000      -0.817400       -22.2426
  32   2.0000      -0.785338       -21.3701
  33   2.0000      -0.772793       -21.0288
  34   2.0000      -0.711412       -19.3585
  35   2.0000      -0.697605       -18.9828
  36   2.0000      -0.689076       -18.7507
  37   2.0000      -0.664344       -18.0777
  38   2.0000      -0.649785       -17.6816
  39   2.0000      -0.624775       -17.0010
  40   2.0000      -0.597018       -16.2457
  41   2.0000      -0.570345       -15.5199
  42   2.0000      -0.561223       -15.2717
  43   2.0000      -0.552285       -15.0284
  44   2.0000      -0.544546       -14.8179
  45   2.0000      -0.541494       -14.7348
  46   2.0000      -0.514153       -13.9908
  47   2.0000      -0.511952       -13.9309
  48   2.0000      -0.498772       -13.5723
  49   2.0000      -0.496048       -13.4981
  50   2.0000      -0.493119       -13.4184
  51   2.0000      -0.475359       -12.9352
  52   2.0000      -0.467205       -12.7133
  53   2.0000      -0.464607       -12.6426
  54   2.0000      -0.458636       -12.4801
  55   2.0000      -0.451560       -12.2876
  56   2.0000      -0.445136       -12.1128
  57   2.0000      -0.438972       -11.9450
  58   2.0000      -0.436744       -11.8844
  59   2.0000      -0.425677       -11.5833
  60   2.0000      -0.422980       -11.5099
  61   2.0000      -0.411661       -11.2019
  62   2.0000      -0.407929       -11.1003
  63   2.0000      -0.341751        -9.2995
  64   2.0000      -0.329647        -8.9701
  65   2.0000      -0.323865        -8.8128
  66   2.0000      -0.300331        -8.1724
  67   0.0000       0.034568         0.9407
  68   0.0000       0.063575         1.7300
  69   0.0000       0.103860         2.8262
  70   0.0000       0.123802         3.3688
  71   0.0000       0.127791         3.4774

MULLIKEN ATOMIC CHARGES
-----------------------
   0 S :    0.117780
   1 C :   -0.106677
   2 C :   -0.087677
   3 C :    0.088194
   4 C :   -0.187099
   5 H :   -0.027150
   6 C :    0.100099
   7 H :   -0.001511
   8 H :    0.032559
   9 C :   -0.098290
  10 H :    0.027591
  11 H :    0.021367
  12 C :   -0.021058
  13 H :    0.033901
  14 H :    0.034978
  15 H :    0.014886
  16 S :    0.119755
  17 C :   -0.093266
  18 C :    0.013203
  19 C :   -0.005214
  20 C :   -0.197566
  21 H :   -0.016454
  22 C :    0.080287
  23 H :    0.015292
  24 H :    0.021933
  25 C :   -0.050813
  26 H :    0.016431
  27 H :    0.030096
  28 C :   -0.075709
  29 H :    0.045384
  30 H :    0.023049
  31 H :    0.027976
  32 H :    0.041881
  33 H :    0.061841
Sum of atomic charges:    0.0000000

LOEWDIN ATOMIC CHARGES
----------------------
   0 S :    0.393479
   1 C :   -0.185860
   2 C :   -0.054741
   3 C :   -0.043052
   4 C :   -0.190720
   5 H :    0.016662
   6 C :   -0.034778
   7 H :    0.028123
   8 H :    0.033820
   9 C :   -0.046725
  10 H :    0.021089
  11 H :    0.024080
  12 C :   -0.062259
  13 H :    0.028783
  14 H :    0.030378
  15 H :    0.017420
  16 S :    0.424408
  17 C :   -0.180845
  18 C :   -0.060717
  19 C :   -0.053924
  20 C :   -0.219299
  21 H :    0.019797
  22 C :   -0.029637
  23 H :    0.028235
  24 H :    0.033498
  25 C :   -0.032805
  26 H :    0.018377
  27 H :    0.026742
  28 C :   -0.073355
  29 H :    0.030651
  30 H :    0.024337
  31 H :    0.015492
  32 H :    0.020594
  33 H :    0.032751

  Mayer bond orders larger than 0.100000
B(  0-S ,  1-C ) :   1.1461 B(  0-S ,  4-C ) :   1.1414 B(  1-C ,  2-C ) :   1.5991
B(  1-C , 32-H ) :   0.9683 B(  2-C ,  3-C ) :   1.2126 B(  2-C ,  6-C ) :   1.0347
B(  3-C ,  4-C ) :   1.6021 B(  3-C ,  5-H ) :   1.0006 B(  4-C , 20-C ) :   1.0133
B(  6-C ,  7-H ) :   0.9312 B(  6-C ,  8-H ) :   0.9377 B(  6-C ,  9-C ) :   1.0694
B(  9-C , 10-H ) :   0.9547 B(  9-C , 11-H ) :   0.9540 B(  9-C , 12-C ) :   1.0897
B( 12-C , 13-H ) :   0.9644 B( 12-C , 14-H ) :   0.9694 B( 12-C , 15-H ) :   0.9721
B( 16-S , 17-C ) :   1.1534 B( 16-S , 20-C ) :   1.1639 B( 17-C , 18-C ) :   1.6008
B( 17-C , 33-H ) :   0.9655 B( 18-C , 19-C ) :   1.2459 B( 18-C , 21-H ) :   1.0042
B( 19-C , 20-C ) :   1.5720 B( 19-C , 22-C ) :   1.0567 B( 22-C , 23-H ) :   0.9285
B( 22-C , 24-H ) :   0.9332 B( 22-C , 25-C ) :   1.0793 B( 25-C , 26-H ) :   0.9525
B( 25-C , 27-H ) :   0.9553 B( 25-C , 28-C ) :   1.0611 B( 28-C , 29-H ) :   0.9764
B( 28-C , 30-H ) :   0.9720 B( 28-C , 31-H ) :   0.9749

Dispersion correction           -0.015478612
FINAL SINGLE POINT ENERGY     -1339.870317540686

DIPOLE MOMENT
-------------
                                X             Y             Z
Electronic contribution:     15.31437       9.36832      14.21055
Nuclear contribution   :    -15.61811      -9.76020     -14.29822
                        -----------------------------------------
Total Dipole Moment    :     -0.30375      -0.39188      -0.08766
                        -----------------------------------------
Magnitude (a.u.)       :      0.50351
Magnitude (Debye)      :      1.27981

Rotational constants in cm-1:     0.018901     0.009072     0.007790
Rotational constants in MHz :   566.623400   271.963503   233.534031

                             ****ORCA TERMINATED NORMALLY****
TOTAL RUN TIME: 0 days 0 hours 0 minutes 31 seconds 276 msec
