                         Program Version 4.2.1 -  RELEASE  -
|  1> ! wB97X-D3 SP def2-SVP
|  2> %pal
|  3> nprocs 16
|  4> end
|  5>
|  6> * xyz 0 1
|  7> S 	 28.5832 	 -5.80949 	 80.3714
|  8> C 	 30.1859 	 -5.82837 	 79.6383
|  9> C 	 30.4897 	 -4.67178 	 78.8912
| 10> C 	 29.38 	 -3.72084 	 79.0879
| 11> C 	 28.4334 	 -4.11064 	 80.0235
| 12> H 	 29.2841 	 -2.77767 	 78.5866
| 13> C 	 31.5799 	 -4.56828 	 77.7989
| 14> H 	 31.0015 	 -4.09428 	 77.0483
| 15> H 	 31.7511 	 -5.606 	 77.3953
| 16> C 	 32.9266 	 -3.9134 	 78.2796
| 17> H 	 33.3276 	 -4.55127 	 79.0979
| 18> H 	 33.6092 	 -3.92479 	 77.4602
| 19> C 	 32.7581 	 -2.46175 	 78.7154
| 20> H 	 33.7832 	 -2.11532 	 79.0494
| 21> H 	 32.3083 	 -1.83329 	 77.9375
| 22> H 	 32.1056 	 -2.34881 	 79.5385
| 23> S 	 26.6581 	 -2.05382 	 79.452
| 24> C 	 25.4974 	 -1.54208 	 80.6645
| 25> C 	 25.9358 	 -2.04775 	 81.8682
| 26> C 	 26.848 	 -3.19956 	 81.7685
| 27> C 	 27.3903 	 -3.29106 	 80.4978
| 28> H 	 25.4197 	 -1.71299 	 82.742
| 29> C 	 27.2434 	 -4.0829 	 82.9637
| 30> H 	 27.335 	 -3.37471 	 83.7978
| 31> H 	 28.245 	 -4.52905 	 82.8029
| 32> C 	 26.1711 	 -5.22067 	 83.2259
| 33> H 	 26.4044 	 -5.86799 	 84.0902
| 34> H 	 26.1432 	 -5.8827 	 82.3666
| 35> C 	 24.7765 	 -4.59085 	 83.4895
| 36> H 	 24.3427 	 -4.15604 	 82.5533
| 37> H 	 24.6478 	 -3.91046 	 84.2982
| 38> H 	 24.1105 	 -5.34662 	 83.7576
| 39> H 	 30.8738 	 -6.68115 	 79.5183
| 40> H 	 24.6649 	 -0.91269 	 80.5257
| 41> *
| 42>
| 43>                          ****END OF INPUT****

CARTESIAN COORDINATES (ANGSTROEM)
---------------------------------
  S     28.583200   -5.809490   80.371400
  C     30.185900   -5.828370   79.638300
  C     30.489700   -4.671780   78.891200
  C     29.380000   -3.720840   79.087900
  C     28.433400   -4.110640   80.023500
  H     29.284100   -2.777670   78.586600
  C     31.579900   -4.568280   77.798900
  H     31.001500   -4.094280   77.048300
  H     31.751100   -5.606000   77.395300
  C     32.926600   -3.913400   78.279600
  H     33.327600   -4.551270   79.097900
  H     33.609200   -3.924790   77.460200
  C     32.758100   -2.461750   78.715400
  H     33.783200   -2.115320   79.049400
  H     32.308300   -1.833290   77.937500
  H     32.105600   -2.348810   79.538500
  S     26.658100   -2.053820   79.452000
  C     25.497400   -1.542080   80.664500
  C     25.935800   -2.047750   81.868200
  C     26.848000   -3.199560   81.768500
  C     27.390300   -3.291060   80.497800
  H     25.419700   -1.712990   82.742000
  C     27.243400   -4.082900   82.963700
  H     27.335000   -3.374710   83.797800
  H     28.245000   -4.529050   82.802900
  C     26.171100   -5.220670   83.225900
  H     26.404400   -5.867990   84.090200
  H     26.143200   -5.882700   82.366600
  C     24.776500   -4.590850   83.489500
  H     24.342700   -4.156040   82.553300
  H     24.647800   -3.910460   84.298200
  H     24.110500   -5.346620   83.757600
  H     30.873800   -6.681150   79.518300
  H     24.664900   -0.912690   80.525700

 Total Charge           Charge          ....    0
 Multiplicity           Mult            ....    1
 Number of Electrons    NEL             ....  134
 Basis Dimension        Dim             ....  322

ORBITAL ENERGIES
----------------

  NO   OCC          E(Eh)            E(eV)
   0   2.0000     -88.972417     -2421.0625
   1   2.0000     -88.960741     -2420.7448
   2   2.0000     -10.326622      -281.0017
   3   2.0000     -10.325423      -280.9690
   4   2.0000     -10.318100      -280.7698
   5   2.0000     -10.316456      -280.7250
   6   2.0000     -10.308101      -280.4977
   7   2.0000     -10.307874      -280.4915
   8   2.0000     -10.299583      -280.2659
   9   2.0000     -10.296500      -280.1820
  10   2.0000     -10.296204      -280.1740
  11   2.0000     -10.294418      -280.1254
  12   2.0000     -10.291934      -280.0578
  13   2.0000     -10.291590      -280.0484
  14   2.0000     -10.276921      -279.6492
  15   2.0000     -10.269002      -279.4337
  16   2.0000      -8.086219      -220.0372
  17   2.0000      -8.075188      -219.7370
  18   2.0000      -6.044860      -164.4890
  19   2.0000      -6.041104      -164.3868
  20   2.0000      -6.036643      -164.2654
  21   2.0000      -6.033940      -164.1919
  22   2.0000      -6.029822      -164.0798
  23   2.0000      -6.025612      -163.9652
  24   2.0000      -1.005449       -27.3597
  25   2.0000      -0.978160       -26.6171
  26   2.0000      -0.908137       -24.7117
  27   2.0000      -0.898848       -24.4589
  28   2.0000      -0.873279       -23.7631
  29   2.0000      -0.846682       -23.0394
  30   2.0000      -0.838192       -22.8084
  31   2.0000      -0.810554       -22.0563
  32   2.0000      -0.782817       -21.3015
  33   2.0000      -0.772029       -21.0080
  34   2.0000      -0.709532       -19.3074
  35   2.0000      -0.704732       -19.1767
  36   2.0000      -0.694872       -18.9084
  37   2.0000      -0.664710       -18.0877
  38   2.0000      -0.630860       -17.1666
  39   2.0000      -0.606983       -16.5168
  40   2.0000      -0.587349       -15.9826
  41   2.0000      -0.570486       -15.5237
  42   2.0000      -0.552813       -15.0428
  43   2.0000      -0.546080       -14.8596
  44   2.0000      -0.542736       -14.7686
  45   2.0000      -0.540674       -14.7125
  46   2.0000      -0.518108       -14.0984
  47   2.0000      -0.511482       -13.9181
  48   2.0000      -0.509032       -13.8515
  49   2.0000      -0.489866       -13.3299
  50   2.0000      -0.485562       -13.2128
  51   2.0000      -0.479576       -13.0499
  52   2.0000      -0.466294       -12.6885
  53   2.0000      -0.463403       -12.6098
  54   2.0000      -0.459845       -12.5130
  55   2.0000      -0.444597       -12.0981
  56   2.0000      -0.440578       -11.9887
  57   2.0000      -0.432776       -11.7764
  58   2.0000      -0.431464       -11.7407
  59   2.0000      -0.428482       -11.6596
  60   2.0000      -0.422347       -11.4926
  61   2.0000      -0.417828       -11.3697
  62   2.0000      -0.408892       -11.1265
  63   2.0000      -0.355946        -9.6858
  64   2.0000      -0.327015        -8.8985
  65   2.0000      -0.323329        -8.7982
  66   2.0000      -0.282104        -7.6764
  67   0.0000       0.022879         0.6226
  68   0.0000       0.070352         1.9144
  69   0.0000       0.094455         2.5702
  70   0.0000       0.108249         2.9456
  71   0.0000       0.135150         3.6776

MULLIKEN ATOMIC CHARGES
-----------------------
   0 S :    0.121255
   1 C :   -0.113753
   2 C :   -0.119278
   3 C :   -0.009994
   4 C :   -0.141897
   5 H :    0.009354
   6 C :    0.037873
   7 H :    0.025390
   8 H :    0.034290
   9 C :   -0.036859
  10 H :    0.039085
  11 H :    0.028291
  12 C :   -0.060265
  13 H :    0.042750
  14 H :    0.033645
  15 H :    0.032437
  16 S :    0.080383
  17 C :   -0.082575
  18 C :   -0.010163
  19 C :   -0.095350
  20 C :   -0.096735
  21 H :    0.014248
  22 C :    0.049827
  23 H :    0.032645
  24 H :    0.040869
  25 C :   -0.049613
  26 H :    0.037264
  27 H :    0.028379
  28 C :   -0.053989
  29 H :    0.049040
  30 H :    0.022537
  31 H :    0.010373
  32 H :    0.049357
  33 H :    0.051177
Sum of atomic charges:    0.0000000

LOEWDIN ATOMIC CHARGES
----------------------
   0 S :    0.419808
   1 C :   -0.206546
   2 C :   -0.057460
   3 C :   -0.067524
   4 C :   -0.193093
   5 H :    0.020366
   6 C :   -0.031066
   7 H :    0.027804
   8 H :    0.036195
   9 C :   -0.034366
  10 H :    0.031264
  11 H :    0.019864
  12 C :   -0.066500
  13 H :    0.034908
  14 H :    0.026799
  15 H :    0.018955
  16 S :    0.379401
  17 C :   -0.171760
  18 C :   -0.061818
  19 C :   -0.053435
  20 C :   -0.187080
  21 H :    0.024119
  22 C :   -0.036449
  23 H :    0.031764
  24 H :    0.024666
  25 C :   -0.031679
  26 H :    0.026748
  27 H :    0.020265
  28 C :   -0.070839
  29 H :    0.033358
  30 H :    0.019153
  31 H :    0.017667
  32 H :    0.030515
  33 H :    0.025997

  Mayer bond orders larger than 0.100000
B(  0-S ,  1-C ) :   1.1291 B(  0-S ,  4-C ) :   1.1335 B(  1-C ,  2-C ) :   1.6338
B(  1-C , 32-H ) :   0.9577 B(  2-C ,  3-C ) :   1.2304 B(  2-C ,  6-C ) :   0.9926
B(  3-C ,  4-C ) :   1.5593 B(  3-C ,  5-H ) :   0.9922 B(  4-C , 20-C ) :   1.1158
B(  6-C ,  7-H ) :   0.9497 B(  6-C ,  8-H ) :   0.9492 B(  6-C ,  9-C ) :   1.0539
B(  9-C , 10-H ) :   0.9553 B(  9-C , 11-H ) :   0.9577 B(  9-C , 12-C ) :   1.0789
B( 12-C , 13-H ) :   0.9723 B( 12-C , 14-H ) :   0.9749 B( 12-C , 15-H ) :   0.9745
B( 16-S , 17-C ) :   1.1334 B( 16-S , 20-C ) :   1.1111 B( 17-C , 18-C ) :   1.6342
B( 17-C , 33-H ) :   0.9777 B( 18-C , 19-C ) :   1.2071 B( 18-C , 21-H ) :   0.9845
B( 19-C , 20-C ) :   1.5836 B( 19-C , 22-C ) :   1.0345 B( 22-C , 23-H ) :   0.9434
B( 22-C , 24-H ) :   0.9341 B( 22-C , 25-C ) :   1.0553 B( 25-C , 26-H ) :   0.9614
B( 25-C , 27-H ) :   0.9541 B( 25-C , 28-C ) :   1.0796 B( 28-C , 29-H ) :   0.9675
B( 28-C , 30-H ) :   0.9761 B( 28-C , 31-H ) :   0.9685

Dispersion correction           -0.014952544
FINAL SINGLE POINT ENERGY     -1339.860930527548

DIPOLE MOMENT
-------------
                                X             Y             Z
Electronic contribution:     -8.78745       0.44835      -5.63215
Nuclear contribution   :      8.87674      -0.45175       5.74368
                        -----------------------------------------
Total Dipole Moment    :      0.08929      -0.00340       0.11153
                        -----------------------------------------
Magnitude (a.u.)       :      0.14290
Magnitude (Debye)      :      0.36323

Rotational constants in cm-1:     0.023623     0.008016     0.006673
Rotational constants in MHz :   708.199701   240.325264   200.040447

                             ****ORCA TERMINATED NORMALLY****
TOTAL RUN TIME: 0 days 0 hours 0 minutes 29 seconds 968 msec
