                         Program Version 4.2.1 -  RELEASE  -
|  1> ! wB97X-D3 SP def2-SVP
|  2> %pal
|  3> nprocs 16
|  4> end
|  5>
|  6> * xyz 0 1
|  7> S 	 -31.4295 	 67.4168 	 140.692
|  8> C 	 -30.8668 	 68.9175 	 141.271
|  9> C 	 -31.5266 	 69.3166 	 142.425
| 10> C 	 -32.7313 	 68.5877 	 142.573
| 11> C 	 -32.7501 	 67.3908 	 141.831
| 12> H 	 -33.4987 	 68.838 	 143.257
| 13> C 	 -31.0962 	 70.5509 	 143.226
| 14> H 	 -30.0347 	 70.6952 	 142.953
| 15> H 	 -31.118 	 70.3369 	 144.294
| 16> C 	 -31.9416 	 71.754 	 142.92
| 17> H 	 -33.0091 	 71.5513 	 143.162
| 18> H 	 -31.6927 	 72.5386 	 143.675
| 19> C 	 -31.6824 	 72.2609 	 141.517
| 20> H 	 -30.6113 	 72.5495 	 141.505
| 21> H 	 -31.8924 	 71.5964 	 140.722
| 22> H 	 -32.3047 	 73.1228 	 141.284
| 23> S 	 -34.7167 	 66.1241 	 140.309
| 24> C 	 -35.6507 	 64.8919 	 140.98
| 25> C 	 -35.4289 	 64.797 	 142.377
| 26> C 	 -34.396 	 65.6476 	 142.851
| 27> C 	 -33.8517 	 66.4207 	 141.822
| 28> H 	 -35.9625 	 63.9781 	 142.767
| 29> C 	 -33.894 	 65.5238 	 144.274
| 30> H 	 -32.7708 	 65.4809 	 144.204
| 31> H 	 -34.0534 	 64.497 	 144.629
| 32> C 	 -34.3168 	 66.4218 	 145.454
| 33> H 	 -35.3222 	 66.2622 	 145.578
| 34> H 	 -34.1854 	 67.4742 	 145.122
| 35> C 	 -33.4023 	 66.1201 	 146.668
| 36> H 	 -33.546 	 65.1568 	 147.111
| 37> H 	 -33.6664 	 66.8949 	 147.398
| 38> H 	 -32.334 	 66.2396 	 146.405
| 39> H 	 -29.9613 	 69.4261 	 140.929
| 40> H 	 -36.5133 	 64.4447 	 140.495
| 41> *
| 42>
| 43>                          ****END OF INPUT****

CARTESIAN COORDINATES (ANGSTROEM)
---------------------------------
  S    -31.429500   67.416800  140.692000
  C    -30.866800   68.917500  141.271000
  C    -31.526600   69.316600  142.425000
  C    -32.731300   68.587700  142.573000
  C    -32.750100   67.390800  141.831000
  H    -33.498700   68.838000  143.257000
  C    -31.096200   70.550900  143.226000
  H    -30.034700   70.695200  142.953000
  H    -31.118000   70.336900  144.294000
  C    -31.941600   71.754000  142.920000
  H    -33.009100   71.551300  143.162000
  H    -31.692700   72.538600  143.675000
  C    -31.682400   72.260900  141.517000
  H    -30.611300   72.549500  141.505000
  H    -31.892400   71.596400  140.722000
  H    -32.304700   73.122800  141.284000
  S    -34.716700   66.124100  140.309000
  C    -35.650700   64.891900  140.980000
  C    -35.428900   64.797000  142.377000
  C    -34.396000   65.647600  142.851000
  C    -33.851700   66.420700  141.822000
  H    -35.962500   63.978100  142.767000
  C    -33.894000   65.523800  144.274000
  H    -32.770800   65.480900  144.204000
  H    -34.053400   64.497000  144.629000
  C    -34.316800   66.421800  145.454000
  H    -35.322200   66.262200  145.578000
  H    -34.185400   67.474200  145.122000
  C    -33.402300   66.120100  146.668000
  H    -33.546000   65.156800  147.111000
  H    -33.666400   66.894900  147.398000
  H    -32.334000   66.239600  146.405000
  H    -29.961300   69.426100  140.929000
  H    -36.513300   64.444700  140.495000

 Total Charge           Charge          ....    0
 Multiplicity           Mult            ....    1
 Number of Electrons    NEL             ....  134
 Basis Dimension        Dim             ....  322

ORBITAL ENERGIES
----------------

  NO   OCC          E(Eh)            E(eV)
   0   2.0000     -88.967588     -2420.9311
   1   2.0000     -88.964664     -2420.8516
   2   2.0000     -10.329232      -281.0727
   3   2.0000     -10.327546      -281.0268
   4   2.0000     -10.312437      -280.6157
   5   2.0000     -10.310934      -280.5748
   6   2.0000     -10.306360      -280.4503
   7   2.0000     -10.297696      -280.2146
   8   2.0000     -10.292783      -280.0809
   9   2.0000     -10.292560      -280.0748
  10   2.0000     -10.289381      -279.9883
  11   2.0000     -10.289095      -279.9805
  12   2.0000     -10.288947      -279.9765
  13   2.0000     -10.284335      -279.8510
  14   2.0000     -10.281329      -279.7692
  15   2.0000     -10.273227      -279.5487
  16   2.0000      -8.082892      -219.9467
  17   2.0000      -8.080197      -219.8733
  18   2.0000      -6.041239      -164.3905
  19   2.0000      -6.038453      -164.3147
  20   2.0000      -6.037205      -164.2807
  21   2.0000      -6.034363      -164.2034
  22   2.0000      -6.033915      -164.1912
  23   2.0000      -6.031405      -164.1229
  24   2.0000      -1.007737       -27.4219
  25   2.0000      -0.988198       -26.8902
  26   2.0000      -0.917163       -24.9573
  27   2.0000      -0.907245       -24.6874
  28   2.0000      -0.865820       -23.5602
  29   2.0000      -0.853822       -23.2337
  30   2.0000      -0.847168       -23.0526
  31   2.0000      -0.809466       -22.0267
  32   2.0000      -0.783092       -21.3090
  33   2.0000      -0.772710       -21.0265
  34   2.0000      -0.711465       -19.3600
  35   2.0000      -0.700768       -19.0689
  36   2.0000      -0.687769       -18.7151
  37   2.0000      -0.658764       -17.9259
  38   2.0000      -0.639822       -17.4104
  39   2.0000      -0.622332       -16.9345
  40   2.0000      -0.593542       -16.1511
  41   2.0000      -0.571169       -15.5423
  42   2.0000      -0.563853       -15.3432
  43   2.0000      -0.556872       -15.1533
  44   2.0000      -0.542972       -14.7750
  45   2.0000      -0.520733       -14.1699
  46   2.0000      -0.518279       -14.1031
  47   2.0000      -0.508112       -13.8264
  48   2.0000      -0.503497       -13.7008
  49   2.0000      -0.497539       -13.5387
  50   2.0000      -0.490097       -13.3362
  51   2.0000      -0.477915       -13.0047
  52   2.0000      -0.471916       -12.8415
  53   2.0000      -0.464899       -12.6505
  54   2.0000      -0.460340       -12.5265
  55   2.0000      -0.446913       -12.1611
  56   2.0000      -0.440584       -11.9889
  57   2.0000      -0.438618       -11.9354
  58   2.0000      -0.437350       -11.9009
  59   2.0000      -0.429050       -11.6750
  60   2.0000      -0.421693       -11.4749
  61   2.0000      -0.412888       -11.2353
  62   2.0000      -0.410357       -11.1664
  63   2.0000      -0.340535        -9.2664
  64   2.0000      -0.333435        -9.0732
  65   2.0000      -0.325821        -8.8660
  66   2.0000      -0.292143        -7.9496
  67   0.0000       0.030107         0.8192
  68   0.0000       0.069106         1.8805
  69   0.0000       0.115802         3.1511
  70   0.0000       0.123268         3.3543
  71   0.0000       0.130080         3.5396

MULLIKEN ATOMIC CHARGES
-----------------------
   0 S :    0.131936
   1 C :   -0.123790
   2 C :   -0.113858
   3 C :    0.037547
   4 C :   -0.159579
   5 H :    0.003892
   6 C :    0.069945
   7 H :    0.018396
   8 H :    0.030984
   9 C :   -0.078599
  10 H :    0.031626
  11 H :    0.031412
  12 C :   -0.032926
  13 H :    0.026108
  14 H :    0.038002
  15 H :    0.029623
  16 S :    0.124875
  17 C :   -0.116848
  18 C :   -0.047998
  19 C :    0.037419
  20 C :   -0.174634
  21 H :    0.006884
  22 C :   -0.012262
  23 H :    0.028765
  24 H :    0.011005
  25 C :   -0.007036
  26 H :    0.012885
  27 H :    0.019860
  28 C :   -0.055872
  29 H :    0.035063
  30 H :    0.036709
  31 H :    0.041392
  32 H :    0.053421
  33 H :    0.065656
Sum of atomic charges:    0.0000000

LOEWDIN ATOMIC CHARGES
----------------------
   0 S :    0.432868
   1 C :   -0.214956
   2 C :   -0.064138
   3 C :   -0.049917
   4 C :   -0.205893
   5 H :    0.021636
   6 C :   -0.031207
   7 H :    0.029666
   8 H :    0.030929
   9 C :   -0.046797
  10 H :    0.025063
  11 H :    0.027998
  12 C :   -0.062696
  13 H :    0.029196
  14 H :    0.021029
  15 H :    0.027140
  16 S :    0.433649
  17 C :   -0.211857
  18 C :   -0.072999
  19 C :   -0.054540
  20 C :   -0.200210
  21 H :    0.024784
  22 C :   -0.044449
  23 H :    0.035428
  24 H :    0.028633
  25 C :   -0.028422
  26 H :    0.012171
  27 H :    0.023305
  28 C :   -0.060032
  29 H :    0.021768
  30 H :    0.030001
  31 H :    0.031767
  32 H :    0.029652
  33 H :    0.031427

  Mayer bond orders larger than 0.100000
B(  0-S ,  1-C ) :   1.1682 B(  0-S ,  4-C ) :   1.1607 B(  1-C ,  2-C ) :   1.5758
B(  1-C , 32-H ) :   0.9595 B(  2-C ,  3-C ) :   1.2676 B(  2-C ,  6-C ) :   1.0257
B(  3-C ,  4-C ) :   1.5439 B(  3-C ,  5-H ) :   0.9904 B(  4-C , 20-C ) :   1.0481
B(  6-C ,  7-H ) :   0.9410 B(  6-C ,  8-H ) :   0.9360 B(  6-C ,  9-C ) :   1.0794
B(  9-C , 10-H ) :   0.9529 B(  9-C , 11-H ) :   0.9518 B(  9-C , 12-C ) :   1.0719
B( 12-C , 13-H ) :   0.9725 B( 12-C , 14-H ) :   0.9755 B( 12-C , 15-H ) :   0.9710
B( 16-S , 17-C ) :   1.1918 B( 16-S , 20-C ) :   1.1606 B( 17-C , 18-C ) :   1.5730
B( 17-C , 20-C ) :   0.1055 B( 17-C , 33-H ) :   0.9633 B( 18-C , 19-C ) :   1.2567
B( 18-C , 21-H ) :   1.0008 B( 19-C , 20-C ) :   1.5579 B( 19-C , 22-C ) :   1.0309
B( 22-C , 23-H ) :   0.9362 B( 22-C , 24-H ) :   0.9408 B( 22-C , 25-C ) :   1.0580
B( 25-C , 26-H ) :   0.9514 B( 25-C , 27-H ) :   0.9531 B( 25-C , 28-C ) :   1.0756
B( 28-C , 29-H ) :   0.9777 B( 28-C , 30-H ) :   0.9742 B( 28-C , 31-H ) :   0.9748

Dispersion correction           -0.014364452
FINAL SINGLE POINT ENERGY     -1339.877385085725

DIPOLE MOMENT
-------------
                                X             Y             Z
Electronic contribution:     -2.95631     -14.03550     -21.82561
Nuclear contribution   :      2.88436      14.27840      22.37860
                        -----------------------------------------
Total Dipole Moment    :     -0.07195       0.24290       0.55299
                        -----------------------------------------
Magnitude (a.u.)       :      0.60826
Magnitude (Debye)      :      1.54607

Rotational constants in cm-1:     0.017476     0.009102     0.006901
Rotational constants in MHz :   523.931043   272.872065   206.874385

                             ****ORCA TERMINATED NORMALLY****
TOTAL RUN TIME: 0 days 0 hours 0 minutes 35 seconds 902 msec
