                         Program Version 4.2.1 -  RELEASE  -
|  1> ! wB97X-D3 SP def2-SVP
|  2> %pal
|  3> nprocs 16
|  4> end
|  5>
|  6> * xyz 0 1
|  7> S 	 -73.9862 	 49.3075 	 139.352
|  8> C 	 -74.8084 	 50.4754 	 140.315
|  9> C 	 -75.4513 	 51.4044 	 139.537
| 10> C 	 -75.237 	 51.1232 	 138.104
| 11> C 	 -74.4518 	 50.0619 	 137.832
| 12> H 	 -75.4424 	 51.817 	 137.302
| 13> C 	 -76.2279 	 52.6785 	 139.961
| 14> H 	 -75.6612 	 53.5216 	 139.456
| 15> H 	 -76.0845 	 52.9313 	 141.016
| 16> C 	 -77.6941 	 52.7789 	 139.398
| 17> H 	 -77.6304 	 52.9589 	 138.319
| 18> H 	 -78.2524 	 51.8797 	 139.521
| 19> C 	 -78.464 	 53.9192 	 140.152
| 20> H 	 -78.1222 	 54.9163 	 140.059
| 21> H 	 -79.3962 	 54.1341 	 139.671
| 22> H 	 -78.7567 	 53.7161 	 141.124
| 23> S 	 -72.4955 	 48.699 	 136.495
| 24> C 	 -72.4859 	 48.7366 	 134.758
| 25> C 	 -73.5269 	 49.3659 	 134.242
| 26> C 	 -74.4158 	 49.9297 	 135.22
| 27> C 	 -73.971 	 49.6534 	 136.51
| 28> H 	 -73.7158 	 49.3984 	 133.182
| 29> C 	 -75.6418 	 50.7418 	 134.848
| 30> H 	 -75.5326 	 51.7632 	 135.213
| 31> H 	 -76.5421 	 50.4005 	 135.419
| 32> C 	 -75.9928 	 50.6681 	 133.382
| 33> H 	 -76.0523 	 49.6006 	 133.094
| 34> H 	 -75.1199 	 51.1585 	 132.876
| 35> C 	 -77.3172 	 51.3125 	 132.962
| 36> H 	 -77.4699 	 52.3241 	 133.195
| 37> H 	 -78.1191 	 50.7696 	 133.5
| 38> H 	 -77.4781 	 51.182 	 131.889
| 39> H 	 -74.7614 	 50.4789 	 141.405
| 40> H 	 -71.7101 	 48.2959 	 134.084
| 41> *
| 42>
| 43>                          ****END OF INPUT****

CARTESIAN COORDINATES (ANGSTROEM)
---------------------------------
  S    -73.986200   49.307500  139.352000
  C    -74.808400   50.475400  140.315000
  C    -75.451300   51.404400  139.537000
  C    -75.237000   51.123200  138.104000
  C    -74.451800   50.061900  137.832000
  H    -75.442400   51.817000  137.302000
  C    -76.227900   52.678500  139.961000
  H    -75.661200   53.521600  139.456000
  H    -76.084500   52.931300  141.016000
  C    -77.694100   52.778900  139.398000
  H    -77.630400   52.958900  138.319000
  H    -78.252400   51.879700  139.521000
  C    -78.464000   53.919200  140.152000
  H    -78.122200   54.916300  140.059000
  H    -79.396200   54.134100  139.671000
  H    -78.756700   53.716100  141.124000
  S    -72.495500   48.699000  136.495000
  C    -72.485900   48.736600  134.758000
  C    -73.526900   49.365900  134.242000
  C    -74.415800   49.929700  135.220000
  C    -73.971000   49.653400  136.510000
  H    -73.715800   49.398400  133.182000
  C    -75.641800   50.741800  134.848000
  H    -75.532600   51.763200  135.213000
  H    -76.542100   50.400500  135.419000
  C    -75.992800   50.668100  133.382000
  H    -76.052300   49.600600  133.094000
  H    -75.119900   51.158500  132.876000
  C    -77.317200   51.312500  132.962000
  H    -77.469900   52.324100  133.195000
  H    -78.119100   50.769600  133.500000
  H    -77.478100   51.182000  131.889000
  H    -74.761400   50.478900  141.405000
  H    -71.710100   48.295900  134.084000

 Total Charge           Charge          ....    0
 Multiplicity           Mult            ....    1
 Number of Electrons    NEL             ....  134
 Basis Dimension        Dim             ....  322

ORBITAL ENERGIES
----------------

  NO   OCC          E(Eh)            E(eV)
   0   2.0000     -88.964577     -2420.8492
   1   2.0000     -88.961013     -2420.7522
   2   2.0000     -10.329022      -281.0670
   3   2.0000     -10.327568      -281.0274
   4   2.0000     -10.313384      -280.6414
   5   2.0000     -10.313085      -280.6333
   6   2.0000     -10.305427      -280.4249
   7   2.0000     -10.305253      -280.4202
   8   2.0000     -10.301431      -280.3162
   9   2.0000     -10.296060      -280.1700
  10   2.0000     -10.294548      -280.1289
  11   2.0000     -10.293160      -280.0911
  12   2.0000     -10.289448      -279.9901
  13   2.0000     -10.286817      -279.9185
  14   2.0000     -10.280034      -279.7339
  15   2.0000     -10.269995      -279.4608
  16   2.0000      -8.079678      -219.8592
  17   2.0000      -8.076353      -219.7687
  18   2.0000      -6.038260      -164.3094
  19   2.0000      -6.035102      -164.2235
  20   2.0000      -6.034250      -164.2003
  21   2.0000      -6.030768      -164.1055
  22   2.0000      -6.030232      -164.0910
  23   2.0000      -6.026835      -163.9985
  24   2.0000      -1.009777       -27.4774
  25   2.0000      -0.987252       -26.8645
  26   2.0000      -0.915793       -24.9200
  27   2.0000      -0.901507       -24.5313
  28   2.0000      -0.875063       -23.8117
  29   2.0000      -0.853494       -23.2248
  30   2.0000      -0.841683       -22.9034
  31   2.0000      -0.820229       -22.3196
  32   2.0000      -0.784355       -21.3434
  33   2.0000      -0.776310       -21.1245
  34   2.0000      -0.714366       -19.4389
  35   2.0000      -0.703938       -19.1551
  36   2.0000      -0.696284       -18.9469
  37   2.0000      -0.653515       -17.7830
  38   2.0000      -0.638324       -17.3697
  39   2.0000      -0.621311       -16.9067
  40   2.0000      -0.600986       -16.3536
  41   2.0000      -0.574826       -15.6418
  42   2.0000      -0.564939       -15.3728
  43   2.0000      -0.558919       -15.2090
  44   2.0000      -0.529876       -14.4187
  45   2.0000      -0.518492       -14.1089
  46   2.0000      -0.516387       -14.0516
  47   2.0000      -0.507705       -13.8153
  48   2.0000      -0.503814       -13.7095
  49   2.0000      -0.502855       -13.6834
  50   2.0000      -0.490728       -13.3534
  51   2.0000      -0.479652       -13.0520
  52   2.0000      -0.473516       -12.8850
  53   2.0000      -0.471068       -12.8184
  54   2.0000      -0.462452       -12.5839
  55   2.0000      -0.461042       -12.5456
  56   2.0000      -0.449046       -12.2192
  57   2.0000      -0.438083       -11.9208
  58   2.0000      -0.429257       -11.6807
  59   2.0000      -0.427205       -11.6248
  60   2.0000      -0.421991       -11.4830
  61   2.0000      -0.417354       -11.3568
  62   2.0000      -0.410287       -11.1645
  63   2.0000      -0.366598        -9.9756
  64   2.0000      -0.334258        -9.0956
  65   2.0000      -0.322064        -8.7638
  66   2.0000      -0.287573        -7.8253
  67   0.0000       0.027979         0.7613
  68   0.0000       0.088879         2.4185
  69   0.0000       0.108544         2.9536
  70   0.0000       0.123889         3.3712
  71   0.0000       0.133324         3.6279

MULLIKEN ATOMIC CHARGES
-----------------------
   0 S :    0.091166
   1 C :   -0.130346
   2 C :   -0.049577
   3 C :   -0.043185
   4 C :   -0.082200
   5 H :    0.000657
   6 C :    0.028304
   7 H :    0.040675
   8 H :    0.024886
   9 C :   -0.057429
  10 H :    0.033953
  11 H :    0.036485
  12 C :   -0.016235
  13 H :    0.014942
  14 H :    0.005822
  15 H :    0.024408
  16 S :    0.098804
  17 C :   -0.072371
  18 C :   -0.040911
  19 C :   -0.060306
  20 C :   -0.132382
  21 H :    0.015927
  22 C :    0.030444
  23 H :    0.044067
  24 H :    0.033424
  25 C :   -0.127795
  26 H :    0.045843
  27 H :    0.040258
  28 C :    0.000858
  29 H :    0.020747
  30 H :    0.026125
  31 H :    0.037881
  32 H :    0.053250
  33 H :    0.063810
Sum of atomic charges:   -0.0000000

LOEWDIN ATOMIC CHARGES
----------------------
   0 S :    0.392201
   1 C :   -0.203667
   2 C :   -0.061958
   3 C :   -0.073847
   4 C :   -0.184031
   5 H :    0.026327
   6 C :   -0.037264
   7 H :    0.040388
   8 H :    0.027500
   9 C :   -0.027972
  10 H :    0.026082
  11 H :    0.022986
  12 C :   -0.066551
  13 H :    0.022842
  14 H :    0.027203
  15 H :    0.017853
  16 S :    0.400517
  17 C :   -0.190194
  18 C :   -0.078052
  19 C :   -0.054057
  20 C :   -0.183402
  21 H :    0.032473
  22 C :   -0.041482
  23 H :    0.028828
  24 H :    0.035853
  25 C :   -0.048710
  26 H :    0.031217
  27 H :    0.027117
  28 C :   -0.060290
  29 H :    0.016374
  30 H :    0.029425
  31 H :    0.030957
  32 H :    0.033059
  33 H :    0.042273

  Mayer bond orders larger than 0.100000
B(  0-S ,  1-C ) :   1.1255 B(  0-S ,  4-C ) :   1.1186 B(  1-C ,  2-C ) :   1.6477
B(  1-C , 32-H ) :   0.9680 B(  2-C ,  3-C ) :   1.1913 B(  2-C ,  6-C ) :   1.0217
B(  3-C ,  4-C ) :   1.6293 B(  3-C ,  5-H ) :   0.9870 B(  4-C , 20-C ) :   1.0744
B(  6-C ,  7-H ) :   0.9412 B(  6-C ,  8-H ) :   0.9560 B(  6-C ,  9-C ) :   1.0390
B(  9-C , 10-H ) :   0.9552 B(  9-C , 11-H ) :   0.9645 B(  9-C , 12-C ) :   1.0838
B( 12-C , 13-H ) :   0.9722 B( 12-C , 14-H ) :   0.9650 B( 12-C , 15-H ) :   0.9782
B( 16-S , 17-C ) :   1.1357 B( 16-S , 20-C ) :   1.1316 B( 17-C , 18-C ) :   1.6430
B( 17-C , 33-H ) :   0.9500 B( 18-C , 19-C ) :   1.2407 B( 18-C , 21-H ) :   0.9859
B( 19-C , 20-C ) :   1.6140 B( 19-C , 22-C ) :   1.0302 B( 22-C , 23-H ) :   0.9201
B( 22-C , 24-H ) :   0.9292 B( 22-C , 25-C ) :   1.0875 B( 25-C , 26-H ) :   0.9524
B( 25-C , 27-H ) :   0.9391 B( 25-C , 28-C ) :   1.0849 B( 28-C , 29-H ) :   0.9745
B( 28-C , 30-H ) :   0.9698 B( 28-C , 31-H ) :   0.9720

Dispersion correction           -0.013230553
FINAL SINGLE POINT ENERGY     -1339.880923163019

DIPOLE MOMENT
-------------
                                X             Y             Z
Electronic contribution:     25.08643     -20.55675       7.96528
Nuclear contribution   :    -25.59106      21.17900      -8.34389
                        -----------------------------------------
Total Dipole Moment    :     -0.50463       0.62225      -0.37861
                        -----------------------------------------
Magnitude (a.u.)       :      0.88611
Magnitude (Debye)      :      2.25231

Rotational constants in cm-1:     0.015960     0.009082     0.005935
Rotational constants in MHz :   478.468515   272.271352   177.931703

                             ****ORCA TERMINATED NORMALLY****
TOTAL RUN TIME: 0 days 0 hours 0 minutes 34 seconds 7 msec
