                         Program Version 4.2.1 -  RELEASE  -
|  1> ! wB97X-D3 SP def2-SVP
|  2> %pal
|  3> nprocs 16
|  4> end
|  5>
|  6> * xyz 0 1
|  7> S 	 51.6748 	 22.2353 	 88.3952
|  8> C 	 50.2009 	 21.783 	 87.5131
|  9> C 	 49.4768 	 20.9802 	 88.3101
| 10> C 	 50.2044 	 20.4719 	 89.4289
| 11> C 	 51.4045 	 21.0511 	 89.6207
| 12> H 	 49.7472 	 19.8285 	 90.1958
| 13> C 	 48.1044 	 20.4529 	 87.9452
| 14> H 	 47.9584 	 19.3668 	 87.9727
| 15> H 	 48.0294 	 20.6436 	 86.9152
| 16> C 	 46.9762 	 21.1431 	 88.7301
| 17> H 	 47.2372 	 20.943 	 89.7596
| 18> H 	 47.0752 	 22.1682 	 88.6088
| 19> C 	 45.5431 	 20.7198 	 88.3311
| 20> H 	 45.2409 	 21.1608 	 87.4152
| 21> H 	 45.3745 	 19.6715 	 88.3133
| 22> H 	 44.951 	 21.0459 	 89.218
| 23> S 	 52.9828 	 22.2396 	 91.4245
| 24> C 	 53.9481 	 21.3589 	 92.48
| 25> C 	 53.899 	 20.0039 	 92.1601
| 26> C 	 52.9704 	 19.6531 	 91.1646
| 27> C 	 52.3735 	 20.7796 	 90.68
| 28> H 	 54.4027 	 19.3148 	 92.7324
| 29> C 	 52.5947 	 18.2095 	 90.9043
| 30> H 	 52.2658 	 18.1321 	 89.8427
| 31> H 	 51.6875 	 17.9476 	 91.4982
| 32> C 	 53.6662 	 17.1564 	 91.1683
| 33> H 	 54.2433 	 17.3288 	 92.084
| 34> H 	 54.2549 	 17.2461 	 90.3434
| 35> C 	 53.1595 	 15.705 	 91.3773
| 36> H 	 52.3225 	 15.3445 	 90.7665
| 37> H 	 52.7781 	 15.5049 	 92.3825
| 38> H 	 54.0762 	 15.0348 	 91.2997
| 39> H 	 50.0235 	 22.1538 	 86.5395
| 40> H 	 54.5881 	 21.832 	 93.2141
| 41> *
| 42>
| 43>                          ****END OF INPUT****

CARTESIAN COORDINATES (ANGSTROEM)
---------------------------------
  S     51.674800   22.235300   88.395200
  C     50.200900   21.783000   87.513100
  C     49.476800   20.980200   88.310100
  C     50.204400   20.471900   89.428900
  C     51.404500   21.051100   89.620700
  H     49.747200   19.828500   90.195800
  C     48.104400   20.452900   87.945200
  H     47.958400   19.366800   87.972700
  H     48.029400   20.643600   86.915200
  C     46.976200   21.143100   88.730100
  H     47.237200   20.943000   89.759600
  H     47.075200   22.168200   88.608800
  C     45.543100   20.719800   88.331100
  H     45.240900   21.160800   87.415200
  H     45.374500   19.671500   88.313300
  H     44.951000   21.045900   89.218000
  S     52.982800   22.239600   91.424500
  C     53.948100   21.358900   92.480000
  C     53.899000   20.003900   92.160100
  C     52.970400   19.653100   91.164600
  C     52.373500   20.779600   90.680000
  H     54.402700   19.314800   92.732400
  C     52.594700   18.209500   90.904300
  H     52.265800   18.132100   89.842700
  H     51.687500   17.947600   91.498200
  C     53.666200   17.156400   91.168300
  H     54.243300   17.328800   92.084000
  H     54.254900   17.246100   90.343400
  C     53.159500   15.705000   91.377300
  H     52.322500   15.344500   90.766500
  H     52.778100   15.504900   92.382500
  H     54.076200   15.034800   91.299700
  H     50.023500   22.153800   86.539500
  H     54.588100   21.832000   93.214100

 Total Charge           Charge          ....    0
 Multiplicity           Mult            ....    1
 Number of Electrons    NEL             ....  134
 Basis Dimension        Dim             ....  322

ORBITAL ENERGIES
----------------

  NO   OCC          E(Eh)            E(eV)
   0   2.0000     -88.962868     -2420.8027
   1   2.0000     -88.958173     -2420.6749
   2   2.0000     -10.323486      -280.9163
   3   2.0000     -10.321889      -280.8729
   4   2.0000     -10.312115      -280.6069
   5   2.0000     -10.309937      -280.5477
   6   2.0000     -10.299787      -280.2715
   7   2.0000     -10.296112      -280.1715
   8   2.0000     -10.295623      -280.1581
   9   2.0000     -10.286813      -279.9184
  10   2.0000     -10.286224      -279.9024
  11   2.0000     -10.283289      -279.8225
  12   2.0000     -10.282857      -279.8108
  13   2.0000     -10.282006      -279.7876
  14   2.0000     -10.278378      -279.6889
  15   2.0000     -10.276337      -279.6333
  16   2.0000      -8.079345      -219.8502
  17   2.0000      -8.073660      -219.6955
  18   2.0000      -6.037624      -164.2921
  19   2.0000      -6.033451      -164.1785
  20   2.0000      -6.032270      -164.1464
  21   2.0000      -6.030408      -164.0957
  22   2.0000      -6.028098      -164.0329
  23   2.0000      -6.024213      -163.9272
  24   2.0000      -1.016242       -27.6533
  25   2.0000      -0.993404       -27.0319
  26   2.0000      -0.913758       -24.8646
  27   2.0000      -0.911724       -24.8093
  28   2.0000      -0.872170       -23.7330
  29   2.0000      -0.856933       -23.3183
  30   2.0000      -0.842007       -22.9122
  31   2.0000      -0.816419       -22.2159
  32   2.0000      -0.785178       -21.3658
  33   2.0000      -0.776115       -21.1191
  34   2.0000      -0.711570       -19.3628
  35   2.0000      -0.703958       -19.1557
  36   2.0000      -0.697208       -18.9720
  37   2.0000      -0.662986       -18.0408
  38   2.0000      -0.646695       -17.5975
  39   2.0000      -0.622444       -16.9376
  40   2.0000      -0.604798       -16.4574
  41   2.0000      -0.572024       -15.5656
  42   2.0000      -0.569483       -15.4964
  43   2.0000      -0.559765       -15.2320
  44   2.0000      -0.529993       -14.4218
  45   2.0000      -0.525223       -14.2920
  46   2.0000      -0.521096       -14.1797
  47   2.0000      -0.512401       -13.9431
  48   2.0000      -0.509207       -13.8562
  49   2.0000      -0.500130       -13.6092
  50   2.0000      -0.498285       -13.5590
  51   2.0000      -0.478185       -13.0121
  52   2.0000      -0.471883       -12.8406
  53   2.0000      -0.465568       -12.6687
  54   2.0000      -0.462235       -12.5780
  55   2.0000      -0.451745       -12.2926
  56   2.0000      -0.447165       -12.1680
  57   2.0000      -0.434636       -11.8270
  58   2.0000      -0.432691       -11.7741
  59   2.0000      -0.429601       -11.6900
  60   2.0000      -0.421090       -11.4584
  61   2.0000      -0.414190       -11.2707
  62   2.0000      -0.408435       -11.1141
  63   2.0000      -0.350006        -9.5241
  64   2.0000      -0.333011        -9.0617
  65   2.0000      -0.327452        -8.9104
  66   2.0000      -0.292515        -7.9597
  67   0.0000       0.037960         1.0329
  68   0.0000       0.069411         1.8888
  69   0.0000       0.114619         3.1190
  70   0.0000       0.125172         3.4061
  71   0.0000       0.139912         3.8072

MULLIKEN ATOMIC CHARGES
-----------------------
   0 S :    0.087022
   1 C :   -0.129851
   2 C :   -0.066190
   3 C :   -0.001961
   4 C :   -0.106626
   5 H :    0.020310
   6 C :    0.078085
   7 H :    0.023241
   8 H :   -0.011486
   9 C :   -0.063372
  10 H :    0.017651
  11 H :    0.013541
  12 C :   -0.013383
  13 H :    0.036068
  14 H :    0.019632
  15 H :    0.037823
  16 S :    0.112943
  17 C :   -0.082061
  18 C :   -0.024854
  19 C :    0.004118
  20 C :   -0.186066
  21 H :   -0.024297
  22 C :    0.051427
  23 H :    0.036054
  24 H :    0.042185
  25 C :   -0.053739
  26 H :    0.039420
  27 H :    0.020142
  28 C :   -0.082191
  29 H :    0.035747
  30 H :    0.028042
  31 H :    0.044497
  32 H :    0.039915
  33 H :    0.058212
Sum of atomic charges:   -0.0000000

LOEWDIN ATOMIC CHARGES
----------------------
   0 S :    0.388571
   1 C :   -0.173596
   2 C :   -0.061973
   3 C :   -0.076391
   4 C :   -0.195843
   5 H :    0.034768
   6 C :   -0.031406
   7 H :    0.028342
   8 H :    0.017512
   9 C :   -0.031572
  10 H :    0.021100
  11 H :    0.016535
  12 C :   -0.058444
  13 H :    0.022260
  14 H :    0.018725
  15 H :    0.037445
  16 S :    0.439228
  17 C :   -0.203134
  18 C :   -0.066033
  19 C :   -0.057825
  20 C :   -0.192835
  21 H :    0.011870
  22 C :   -0.032165
  23 H :    0.037447
  24 H :    0.034739
  25 C :   -0.035317
  26 H :    0.028763
  27 H :    0.014948
  28 C :   -0.072459
  29 H :    0.023823
  30 H :    0.023744
  31 H :    0.037137
  32 H :    0.022554
  33 H :    0.029482

  Mayer bond orders larger than 0.100000
B(  0-S ,  1-C ) :   1.1162 B(  0-S ,  4-C ) :   1.1452 B(  1-C ,  2-C ) :   1.6212
B(  1-C , 32-H ) :   0.9830 B(  2-C ,  3-C ) :   1.2129 B(  2-C ,  6-C ) :   1.0277
B(  3-C ,  4-C ) :   1.6023 B(  3-C ,  5-H ) :   0.9960 B(  4-C , 20-C ) :   1.0159
B(  6-C ,  7-H ) :   0.9465 B(  6-C ,  8-H ) :   0.9353 B(  6-C ,  9-C ) :   1.0515
B(  9-C , 10-H ) :   0.9615 B(  9-C , 11-H ) :   0.9532 B(  9-C , 12-C ) :   1.0790
B( 12-C , 13-H ) :   0.9771 B( 12-C , 14-H ) :   0.9751 B( 12-C , 15-H ) :   0.9735
B( 16-S , 17-C ) :   1.1828 B( 16-S , 20-C ) :   1.1653 B( 17-C , 18-C ) :   1.5659
B( 17-C , 20-C ) :   0.1042 B( 17-C , 33-H ) :   0.9699 B( 18-C , 19-C ) :   1.2616
B( 18-C , 21-H ) :   1.0007 B( 19-C , 20-C ) :   1.5915 B( 19-C , 22-C ) :   1.0384
B( 22-C , 23-H ) :   0.9263 B( 22-C , 24-H ) :   0.9406 B( 22-C , 25-C ) :   1.0587
B( 25-C , 26-H ) :   0.9522 B( 25-C , 27-H ) :   0.9622 B( 25-C , 28-C ) :   1.0756
B( 28-C , 29-H ) :   0.9767 B( 28-C , 30-H ) :   0.9759 B( 28-C , 31-H ) :   0.9740

Dispersion correction           -0.013166964
FINAL SINGLE POINT ENERGY     -1339.868200447979

DIPOLE MOMENT
-------------
                                X             Y             Z
Electronic contribution:     16.13537      22.14907       0.36192
Nuclear contribution   :    -16.44610     -22.68774      -0.23801
                        -----------------------------------------
Total Dipole Moment    :     -0.31073      -0.53868       0.12391
                        -----------------------------------------
Magnitude (a.u.)       :      0.63410
Magnitude (Debye)      :      1.61174

Rotational constants in cm-1:     0.017915     0.007651     0.006077
Rotational constants in MHz :   537.090280   229.370398   182.189504

                             ****ORCA TERMINATED NORMALLY****
TOTAL RUN TIME: 0 days 0 hours 0 minutes 26 seconds 985 msec
