                         Program Version 4.2.1 -  RELEASE  -
|  1> ! wB97X-D3 SP def2-SVP
|  2> %pal
|  3> nprocs 16
|  4> end
|  5>
|  6> * xyz 0 1
|  7> S 	 24.2721 	 0.253671 	 83.3747
|  8> C 	 24.5564 	 1.7976 	 82.4953
|  9> C 	 23.5742 	 2.81567 	 82.6361
| 10> C 	 22.5835 	 2.3421 	 83.536
| 11> C 	 22.7527 	 1.03198 	 83.9279
| 12> H 	 21.6898 	 2.85269 	 83.8584
| 13> C 	 23.5469 	 4.17694 	 81.932
| 14> H 	 24.5807 	 4.6099 	 82.0745
| 15> H 	 22.8729 	 4.7532 	 82.5561
| 16> C 	 22.9864 	 3.93939 	 80.5351
| 17> H 	 23.5593 	 3.20572 	 79.8987
| 18> H 	 21.8998 	 3.54546 	 80.4921
| 19> C 	 22.9621 	 5.20963 	 79.6114
| 20> H 	 23.6624 	 5.95219 	 79.9915
| 21> H 	 23.195 	 4.85926 	 78.6249
| 22> H 	 22.0027 	 5.75116 	 79.52
| 23> S 	 22.5534 	 -0.444646 	 86.1499
| 24> C 	 21.0057 	 -0.778083 	 86.9202
| 25> C 	 20.0637 	 -0.289978 	 86.0986
| 26> C 	 20.4566 	 0.412371 	 84.8844
| 27> C 	 21.8475 	 0.276454 	 84.7178
| 28> H 	 19.0779 	 -0.280895 	 86.5293
| 29> C 	 19.4829 	 1.03728 	 83.9936
| 30> H 	 20.0409 	 1.60672 	 83.2992
| 31> H 	 19.1329 	 1.75192 	 84.6839
| 32> C 	 18.3913 	 0.226196 	 83.4053
| 33> H 	 17.6654 	 -0.0576797 	 84.1232
| 34> H 	 18.9796 	 -0.685946 	 83.257
| 35> C 	 17.7124 	 0.863739 	 82.1616
| 36> H 	 18.2814 	 0.989631 	 81.233
| 37> H 	 17.1943 	 1.78039 	 82.3672
| 38> H 	 16.8601 	 0.207204 	 81.9561
| 39> H 	 25.2426 	 1.90781 	 81.7194
| 40> H 	 20.7201 	 -1.34241 	 87.8127
| 41> *
| 42>
| 43>                          ****END OF INPUT****

CARTESIAN COORDINATES (ANGSTROEM)
---------------------------------
  S     24.272100    0.253671   83.374700
  C     24.556400    1.797600   82.495300
  C     23.574200    2.815670   82.636100
  C     22.583500    2.342100   83.536000
  C     22.752700    1.031980   83.927900
  H     21.689800    2.852690   83.858400
  C     23.546900    4.176940   81.932000
  H     24.580700    4.609900   82.074500
  H     22.872900    4.753200   82.556100
  C     22.986400    3.939390   80.535100
  H     23.559300    3.205720   79.898700
  H     21.899800    3.545460   80.492100
  C     22.962100    5.209630   79.611400
  H     23.662400    5.952190   79.991500
  H     23.195000    4.859260   78.624900
  H     22.002700    5.751160   79.520000
  S     22.553400   -0.444646   86.149900
  C     21.005700   -0.778083   86.920200
  C     20.063700   -0.289978   86.098600
  C     20.456600    0.412371   84.884400
  C     21.847500    0.276454   84.717800
  H     19.077900   -0.280895   86.529300
  C     19.482900    1.037280   83.993600
  H     20.040900    1.606720   83.299200
  H     19.132900    1.751920   84.683900
  C     18.391300    0.226196   83.405300
  H     17.665400   -0.057680   84.123200
  H     18.979600   -0.685946   83.257000
  C     17.712400    0.863739   82.161600
  H     18.281400    0.989631   81.233000
  H     17.194300    1.780390   82.367200
  H     16.860100    0.207204   81.956100
  H     25.242600    1.907810   81.719400
  H     20.720100   -1.342410   87.812700

 Total Charge           Charge          ....    0
 Multiplicity           Mult            ....    1
 Number of Electrons    NEL             ....  134
 Basis Dimension        Dim             ....  322

ORBITAL ENERGIES
----------------

  NO   OCC          E(Eh)            E(eV)
   0   2.0000     -88.970923     -2421.0219
   1   2.0000     -88.957167     -2420.6476
   2   2.0000     -10.327000      -281.0120
   3   2.0000     -10.321498      -280.8623
   4   2.0000     -10.313938      -280.6565
   5   2.0000     -10.312314      -280.6123
   6   2.0000     -10.305756      -280.4339
   7   2.0000     -10.305653      -280.4311
   8   2.0000     -10.303232      -280.3652
   9   2.0000     -10.302669      -280.3499
  10   2.0000     -10.293211      -280.0925
  11   2.0000     -10.286332      -279.9053
  12   2.0000     -10.284522      -279.8561
  13   2.0000     -10.282101      -279.7902
  14   2.0000     -10.278459      -279.6911
  15   2.0000     -10.275943      -279.6226
  16   2.0000      -8.084014      -219.9772
  17   2.0000      -8.072129      -219.6538
  18   2.0000      -6.042392      -164.4218
  19   2.0000      -6.039140      -164.3333
  20   2.0000      -6.034611      -164.2101
  21   2.0000      -6.030884      -164.1087
  22   2.0000      -6.026520      -163.9899
  23   2.0000      -6.022649      -163.8846
  24   2.0000      -1.005385       -27.3579
  25   2.0000      -0.976341       -26.5676
  26   2.0000      -0.922470       -25.1017
  27   2.0000      -0.911081       -24.7918
  28   2.0000      -0.870483       -23.6871
  29   2.0000      -0.853470       -23.2241
  30   2.0000      -0.844303       -22.9746
  31   2.0000      -0.815251       -22.1841
  32   2.0000      -0.785207       -21.3666
  33   2.0000      -0.772950       -21.0330
  34   2.0000      -0.717337       -19.5197
  35   2.0000      -0.703354       -19.1392
  36   2.0000      -0.697662       -18.9844
  37   2.0000      -0.656632       -17.8679
  38   2.0000      -0.637238       -17.3401
  39   2.0000      -0.619037       -16.8448
  40   2.0000      -0.594514       -16.1775
  41   2.0000      -0.573775       -15.6132
  42   2.0000      -0.565684       -15.3930
  43   2.0000      -0.553890       -15.0721
  44   2.0000      -0.536954       -14.6113
  45   2.0000      -0.529857       -14.4181
  46   2.0000      -0.519179       -14.1276
  47   2.0000      -0.510600       -13.8941
  48   2.0000      -0.502695       -13.6790
  49   2.0000      -0.499398       -13.5893
  50   2.0000      -0.496187       -13.5019
  51   2.0000      -0.481296       -13.0967
  52   2.0000      -0.470628       -12.8064
  53   2.0000      -0.464355       -12.6358
  54   2.0000      -0.455185       -12.3862
  55   2.0000      -0.452038       -12.3006
  56   2.0000      -0.446238       -12.1428
  57   2.0000      -0.439780       -11.9670
  58   2.0000      -0.433329       -11.7915
  59   2.0000      -0.421766       -11.4768
  60   2.0000      -0.417067       -11.3490
  61   2.0000      -0.412498       -11.2246
  62   2.0000      -0.407779       -11.0962
  63   2.0000      -0.351401        -9.5621
  64   2.0000      -0.336340        -9.1523
  65   2.0000      -0.320549        -8.7226
  66   2.0000      -0.281824        -7.6688
  67   0.0000       0.023896         0.6502
  68   0.0000       0.071249         1.9388
  69   0.0000       0.095461         2.5976
  70   0.0000       0.118017         3.2114
  71   0.0000       0.136828         3.7233

MULLIKEN ATOMIC CHARGES
-----------------------
   0 S :    0.113614
   1 C :   -0.075429
   2 C :   -0.135037
   3 C :    0.016602
   4 C :   -0.152932
   5 H :    0.013339
   6 C :    0.101148
   7 H :    0.057769
   8 H :    0.025711
   9 C :   -0.140969
  10 H :    0.044241
  11 H :    0.051489
  12 C :   -0.037906
  13 H :    0.029297
  14 H :    0.029070
  15 H :    0.035808
  16 S :    0.072935
  17 C :   -0.079902
  18 C :   -0.048265
  19 C :   -0.128377
  20 C :   -0.094847
  21 H :    0.009434
  22 C :    0.142253
  23 H :   -0.009091
  24 H :    0.011026
  25 C :   -0.042047
  26 H :    0.018693
  27 H :    0.034023
  28 C :   -0.038892
  29 H :    0.047383
  30 H :    0.023881
  31 H :    0.026959
  32 H :    0.016569
  33 H :    0.062447
Sum of atomic charges:   -0.0000000

LOEWDIN ATOMIC CHARGES
----------------------
   0 S :    0.372480
   1 C :   -0.178302
   2 C :   -0.049573
   3 C :   -0.062221
   4 C :   -0.176186
   5 H :    0.030347
   6 C :   -0.032965
   7 H :    0.045503
   8 H :    0.032394
   9 C :   -0.050639
  10 H :    0.030772
  11 H :    0.039669
  12 C :   -0.072607
  13 H :    0.023485
  14 H :    0.023296
  15 H :    0.025397
  16 S :    0.389554
  17 C :   -0.186576
  18 C :   -0.079390
  19 C :   -0.052079
  20 C :   -0.201944
  21 H :    0.025317
  22 C :   -0.039840
  23 H :    0.023756
  24 H :    0.031128
  25 C :   -0.035993
  26 H :    0.021772
  27 H :    0.033129
  28 C :   -0.064301
  29 H :    0.029981
  30 H :    0.023853
  31 H :    0.031167
  32 H :    0.007247
  33 H :    0.042372

  Mayer bond orders larger than 0.100000
B(  0-S ,  1-C ) :   1.1239 B(  0-S ,  4-C ) :   1.1226 B(  1-C ,  2-C ) :   1.6407
B(  1-C ,  4-C ) :   0.1018 B(  1-C , 32-H ) :   0.9647 B(  2-C ,  3-C ) :   1.2311
B(  2-C ,  6-C ) :   1.0042 B(  3-C ,  4-C ) :   1.6074 B(  3-C ,  5-H ) :   0.9774
B(  4-C , 20-C ) :   1.0482 B(  6-C ,  7-H ) :   0.9391 B(  6-C ,  8-H ) :   0.9388
B(  6-C ,  9-C ) :   1.0567 B(  9-C , 10-H ) :   0.9720 B(  9-C , 11-H ) :   0.9559
B(  9-C , 12-C ) :   1.0570 B( 12-C , 13-H ) :   0.9767 B( 12-C , 14-H ) :   0.9815
B( 12-C , 15-H ) :   0.9793 B( 16-S , 17-C ) :   1.1269 B( 16-S , 20-C ) :   1.1306
B( 17-C , 18-C ) :   1.6567 B( 17-C , 33-H ) :   0.9621 B( 18-C , 19-C ) :   1.2145
B( 18-C , 21-H ) :   0.9843 B( 19-C , 20-C ) :   1.5718 B( 19-C , 22-C ) :   1.0532
B( 22-C , 23-H ) :   0.9220 B( 22-C , 24-H ) :   0.8960 B( 22-C , 25-C ) :   1.0593
B( 25-C , 26-H ) :   0.9442 B( 25-C , 27-H ) :   0.9602 B( 25-C , 28-C ) :   1.0852
B( 28-C , 29-H ) :   0.9764 B( 28-C , 30-H ) :   0.9726 B( 28-C , 31-H ) :   0.9735

Dispersion correction           -0.013722898
FINAL SINGLE POINT ENERGY     -1339.835573867326

DIPOLE MOMENT
-------------
                                X             Y             Z
Electronic contribution:     17.38615     -17.28022      20.00912
Nuclear contribution   :    -18.09979      17.84349     -20.32204
                        -----------------------------------------
Total Dipole Moment    :     -0.71363       0.56327      -0.31292
                        -----------------------------------------
Magnitude (a.u.)       :      0.96149
Magnitude (Debye)      :      2.44392

Rotational constants in cm-1:     0.017062     0.008927     0.006366
Rotational constants in MHz :   511.508030   267.610788   190.855793

                             ****ORCA TERMINATED NORMALLY****
TOTAL RUN TIME: 0 days 0 hours 0 minutes 34 seconds 475 msec
