                         Program Version 4.2.1 -  RELEASE  -
|  1> ! wB97X-D3 SP def2-SVP
|  2> %pal
|  3> nprocs 16
|  4> end
|  5>
|  6> * xyz 0 1
|  7> S 	 50.7603 	 28.2294 	 43.1559
|  8> C 	 52.2499 	 28.669 	 42.4561
|  9> C 	 53.3188 	 28.1826 	 43.2179
| 10> C 	 52.8429 	 27.5664 	 44.4114
| 11> C 	 51.4968 	 27.3755 	 44.424
| 12> H 	 53.4948 	 27.3728 	 45.2389
| 13> C 	 54.7957 	 28.3763 	 42.9491
| 14> H 	 54.8753 	 29.0353 	 42.077
| 15> H 	 55.3124 	 27.4606 	 42.5655
| 16> C 	 55.575 	 28.9733 	 44.1066
| 17> H 	 55.1336 	 29.961 	 44.3514
| 18> H 	 55.5848 	 28.4094 	 45.0599
| 19> C 	 57.0674 	 29.2012 	 43.7288
| 20> H 	 57.1849 	 30.0253 	 43.0811
| 21> H 	 57.6086 	 29.4912 	 44.7026
| 22> H 	 57.5338 	 28.3785 	 43.1794
| 23> S 	 49.1062 	 27.6765 	 45.9267
| 24> C 	 48.6471 	 26.3539 	 47.0159
| 25> C 	 49.554 	 25.2951 	 47.029
| 26> C 	 50.7003 	 25.5876 	 46.172
| 27> C 	 50.5995 	 26.8034 	 45.4279
| 28> H 	 49.4721 	 24.3748 	 47.6765
| 29> C 	 51.8664 	 24.6133 	 46.1301
| 30> H 	 52.7777 	 25.141 	 45.766
| 31> H 	 51.5461 	 23.8499 	 45.3885
| 32> C 	 52.4008 	 23.967 	 47.4276
| 33> H 	 51.6147 	 23.37 	 47.8372
| 34> H 	 52.7153 	 24.7215 	 48.2022
| 35> C 	 53.6632 	 23.0432 	 47.194
| 36> H 	 54.362 	 23.5598 	 46.6129
| 37> H 	 53.3186 	 22.1667 	 46.5557
| 38> H 	 54.1268 	 22.6372 	 48.122
| 39> H 	 52.3972 	 29.3384 	 41.5544
| 40> H 	 47.6768 	 26.4399 	 47.542
| 41> *
| 42>
| 43>                          ****END OF INPUT****

CARTESIAN COORDINATES (ANGSTROEM)
---------------------------------
  S     50.760300   28.229400   43.155900
  C     52.249900   28.669000   42.456100
  C     53.318800   28.182600   43.217900
  C     52.842900   27.566400   44.411400
  C     51.496800   27.375500   44.424000
  H     53.494800   27.372800   45.238900
  C     54.795700   28.376300   42.949100
  H     54.875300   29.035300   42.077000
  H     55.312400   27.460600   42.565500
  C     55.575000   28.973300   44.106600
  H     55.133600   29.961000   44.351400
  H     55.584800   28.409400   45.059900
  C     57.067400   29.201200   43.728800
  H     57.184900   30.025300   43.081100
  H     57.608600   29.491200   44.702600
  H     57.533800   28.378500   43.179400
  S     49.106200   27.676500   45.926700
  C     48.647100   26.353900   47.015900
  C     49.554000   25.295100   47.029000
  C     50.700300   25.587600   46.172000
  C     50.599500   26.803400   45.427900
  H     49.472100   24.374800   47.676500
  C     51.866400   24.613300   46.130100
  H     52.777700   25.141000   45.766000
  H     51.546100   23.849900   45.388500
  C     52.400800   23.967000   47.427600
  H     51.614700   23.370000   47.837200
  H     52.715300   24.721500   48.202200
  C     53.663200   23.043200   47.194000
  H     54.362000   23.559800   46.612900
  H     53.318600   22.166700   46.555700
  H     54.126800   22.637200   48.122000
  H     52.397200   29.338400   41.554400
  H     47.676800   26.439900   47.542000

 Total Charge           Charge          ....    0
 Multiplicity           Mult            ....    1
 Number of Electrons    NEL             ....  134
 Basis Dimension        Dim             ....  322

ORBITAL ENERGIES
----------------

  NO   OCC          E(Eh)            E(eV)
   0   2.0000     -88.967150     -2420.9192
   1   2.0000     -88.964516     -2420.8476
   2   2.0000     -10.333955      -281.2012
   3   2.0000     -10.326770      -281.0057
   4   2.0000     -10.323905      -280.9277
   5   2.0000     -10.315705      -280.7046
   6   2.0000     -10.311962      -280.6027
   7   2.0000     -10.306116      -280.4437
   8   2.0000     -10.300055      -280.2787
   9   2.0000     -10.296102      -280.1712
  10   2.0000     -10.296042      -280.1695
  11   2.0000     -10.293547      -280.1016
  12   2.0000     -10.292714      -280.0790
  13   2.0000     -10.288268      -279.9580
  14   2.0000     -10.285454      -279.8814
  15   2.0000     -10.282718      -279.8070
  16   2.0000      -8.081145      -219.8991
  17   2.0000      -8.080681      -219.8865
  18   2.0000      -6.039490      -164.3429
  19   2.0000      -6.039290      -164.3374
  20   2.0000      -6.035391      -164.2314
  21   2.0000      -6.035294      -164.2287
  22   2.0000      -6.032043      -164.1402
  23   2.0000      -6.031374      -164.1220
  24   2.0000      -1.013010       -27.5654
  25   2.0000      -0.976244       -26.5650
  26   2.0000      -0.913544       -24.8588
  27   2.0000      -0.902243       -24.5513
  28   2.0000      -0.866674       -23.5834
  29   2.0000      -0.851248       -23.1636
  30   2.0000      -0.842169       -22.9166
  31   2.0000      -0.812544       -22.1104
  32   2.0000      -0.780537       -21.2395
  33   2.0000      -0.766090       -20.8464
  34   2.0000      -0.708530       -19.2801
  35   2.0000      -0.697791       -18.9879
  36   2.0000      -0.687529       -18.7086
  37   2.0000      -0.652788       -17.7633
  38   2.0000      -0.639244       -17.3947
  39   2.0000      -0.626592       -17.0504
  40   2.0000      -0.595863       -16.2143
  41   2.0000      -0.568024       -15.4567
  42   2.0000      -0.565823       -15.3968
  43   2.0000      -0.557035       -15.1577
  44   2.0000      -0.529260       -14.4019
  45   2.0000      -0.521121       -14.1804
  46   2.0000      -0.512173       -13.9369
  47   2.0000      -0.507380       -13.8065
  48   2.0000      -0.499953       -13.6044
  49   2.0000      -0.498763       -13.5720
  50   2.0000      -0.492369       -13.3980
  51   2.0000      -0.472067       -12.8456
  52   2.0000      -0.469045       -12.7634
  53   2.0000      -0.463907       -12.6236
  54   2.0000      -0.459830       -12.5126
  55   2.0000      -0.458613       -12.4795
  56   2.0000      -0.447679       -12.1820
  57   2.0000      -0.442391       -12.0381
  58   2.0000      -0.431768       -11.7490
  59   2.0000      -0.421124       -11.4594
  60   2.0000      -0.418794       -11.3960
  61   2.0000      -0.415281       -11.3004
  62   2.0000      -0.414044       -11.2667
  63   2.0000      -0.350429        -9.5356
  64   2.0000      -0.330300        -8.9879
  65   2.0000      -0.327561        -8.9134
  66   2.0000      -0.286488        -7.7957
  67   0.0000       0.027111         0.7377
  68   0.0000       0.073924         2.0116
  69   0.0000       0.107434         2.9234
  70   0.0000       0.118916         3.2359
  71   0.0000       0.130799         3.5592

MULLIKEN ATOMIC CHARGES
-----------------------
   0 S :    0.116378
   1 C :   -0.136898
   2 C :   -0.096668
   3 C :    0.017933
   4 C :   -0.138032
   5 H :    0.015420
   6 C :    0.070563
   7 H :    0.008228
   8 H :    0.041031
   9 C :   -0.114093
  10 H :    0.038025
  11 H :    0.043086
  12 C :   -0.054633
  13 H :    0.019454
  14 H :    0.046097
  15 H :    0.033203
  16 S :    0.093623
  17 C :   -0.113833
  18 C :   -0.031126
  19 C :   -0.051796
  20 C :   -0.128117
  21 H :    0.050814
  22 C :    0.029464
  23 H :    0.020522
  24 H :    0.051893
  25 C :   -0.091623
  26 H :    0.022271
  27 H :    0.045016
  28 C :   -0.056683
  29 H :    0.020565
  30 H :    0.033985
  31 H :    0.050211
  32 H :    0.068884
  33 H :    0.076836
Sum of atomic charges:    0.0000000

LOEWDIN ATOMIC CHARGES
----------------------
   0 S :    0.450159
   1 C :   -0.226139
   2 C :   -0.064879
   3 C :   -0.064456
   4 C :   -0.207041
   5 H :    0.027485
   6 C :   -0.039102
   7 H :    0.029489
   8 H :    0.035608
   9 C :   -0.045144
  10 H :    0.030457
  11 H :    0.024509
  12 C :   -0.068547
  13 H :    0.015924
  14 H :    0.037875
  15 H :    0.024486
  16 S :    0.373012
  17 C :   -0.176924
  18 C :   -0.078713
  19 C :   -0.050207
  20 C :   -0.194428
  21 H :    0.044843
  22 C :   -0.042236
  23 H :    0.031344
  24 H :    0.041497
  25 C :   -0.041207
  26 H :    0.012384
  27 H :    0.031001
  28 C :   -0.064533
  29 H :    0.012935
  30 H :    0.031544
  31 H :    0.032562
  32 H :    0.042361
  33 H :    0.034082

  Mayer bond orders larger than 0.100000
B(  0-S ,  1-C ) :   1.1592 B(  0-S ,  4-C ) :   1.1744 B(  1-C ,  2-C ) :   1.5855
B(  1-C , 32-H ) :   0.9589 B(  2-C ,  3-C ) :   1.2699 B(  2-C ,  6-C ) :   1.0280
B(  3-C ,  4-C ) :   1.5565 B(  3-C ,  5-H ) :   0.9890 B(  4-C , 20-C ) :   1.0444
B(  6-C ,  7-H ) :   0.9393 B(  6-C ,  8-H ) :   0.9327 B(  6-C ,  9-C ) :   1.0628
B(  9-C , 10-H ) :   0.9547 B(  9-C , 11-H ) :   0.9568 B(  9-C , 12-C ) :   1.0770
B( 12-C , 13-H ) :   0.9763 B( 12-C , 14-H ) :   0.9753 B( 12-C , 15-H ) :   0.9744
B( 16-S , 17-C ) :   1.1560 B( 16-S , 20-C ) :   1.1191 B( 17-C , 18-C ) :   1.6004
B( 17-C , 33-H ) :   0.9628 B( 18-C , 19-C ) :   1.2362 B( 18-C , 21-H ) :   0.9790
B( 19-C , 20-C ) :   1.5981 B( 19-C , 22-C ) :   1.0430 B( 22-C , 23-H ) :   0.9412
B( 22-C , 24-H ) :   0.9287 B( 22-C , 25-C ) :   1.0586 B( 25-C , 26-H ) :   0.9521
B( 25-C , 27-H ) :   0.9595 B( 25-C , 28-C ) :   1.0769 B( 28-C , 29-H ) :   0.9777
B( 28-C , 30-H ) :   0.9753 B( 28-C , 31-H ) :   0.9756

Dispersion correction           -0.013210469
FINAL SINGLE POINT ENERGY     -1339.878827011518

DIPOLE MOMENT
-------------
                                X             Y             Z
Electronic contribution:    -29.74160       9.68447      -5.24815
Nuclear contribution   :     30.30785      -9.87559       5.43757
                        -----------------------------------------
Total Dipole Moment    :      0.56625      -0.19112       0.18941
                        -----------------------------------------
Magnitude (a.u.)       :      0.62693
Magnitude (Debye)      :      1.59354

Rotational constants in cm-1:     0.016056     0.008756     0.006153
Rotational constants in MHz :   481.358016   262.508138   184.471616

                             ****ORCA TERMINATED NORMALLY****
TOTAL RUN TIME: 0 days 0 hours 0 minutes 32 seconds 616 msec
