                         Program Version 4.2.1 -  RELEASE  -
|  1> ! wB97X-D3 SP def2-SVP
|  2> %pal
|  3> nprocs 16
|  4> end
|  5>
|  6> * xyz 0 1
|  7> S 	 -44.5427 	 35.0404 	 82.2186
|  8> C 	 -44.2212 	 36.6237 	 81.4258
|  9> C 	 -42.8879 	 36.6817 	 80.9667
| 10> C 	 -42.1751 	 35.4483 	 81.2542
| 11> C 	 -42.9387 	 34.468 	 81.7857
| 12> H 	 -41.1483 	 35.1453 	 81.1181
| 13> C 	 -42.2084 	 37.766 	 80.1457
| 14> H 	 -42.8663 	 38.5282 	 79.8502
| 15> H 	 -41.8047 	 37.2557 	 79.3036
| 16> C 	 -40.9318 	 38.3466 	 80.8391
| 17> H 	 -41.1399 	 38.7949 	 81.8113
| 18> H 	 -40.3615 	 37.4447 	 81.1839
| 19> C 	 -40.0557 	 39.1548 	 79.8892
| 20> H 	 -39.0914 	 39.45 	 80.308
| 21> H 	 -39.7038 	 38.5023 	 79.0806
| 22> H 	 -40.5846 	 39.9869 	 79.4875
| 23> S 	 -43.7323 	 31.8586 	 81.5959
| 24> C 	 -42.7452 	 30.6203 	 82.3396
| 25> C 	 -41.593 	 31.1998 	 82.934
| 26> C 	 -41.5727 	 32.6246 	 82.9792
| 27> C 	 -42.5857 	 33.1006 	 82.1259
| 28> H 	 -40.7737 	 30.5501 	 83.2148
| 29> C 	 -40.4931 	 33.5483 	 83.6503
| 30> H 	 -41.0259 	 33.9778 	 84.533
| 31> H 	 -40.3835 	 34.3343 	 82.9514
| 32> C 	 -39.0806 	 33.0333 	 83.8633
| 33> H 	 -38.4665 	 32.702 	 82.9995
| 34> H 	 -39.1566 	 32.0534 	 84.4677
| 35> C 	 -38.2772 	 34.0364 	 84.7403
| 36> H 	 -38.8692 	 34.2957 	 85.6953
| 37> H 	 -38.2161 	 34.9763 	 84.2834
| 38> H 	 -37.3235 	 33.7438 	 85.1321
| 39> H 	 -44.9908 	 37.3558 	 81.2435
| 40> H 	 -42.734 	 29.5526 	 82.0724
| 41> *
| 42>
| 43>                          ****END OF INPUT****

CARTESIAN COORDINATES (ANGSTROEM)
---------------------------------
  S    -44.542700   35.040400   82.218600
  C    -44.221200   36.623700   81.425800
  C    -42.887900   36.681700   80.966700
  C    -42.175100   35.448300   81.254200
  C    -42.938700   34.468000   81.785700
  H    -41.148300   35.145300   81.118100
  C    -42.208400   37.766000   80.145700
  H    -42.866300   38.528200   79.850200
  H    -41.804700   37.255700   79.303600
  C    -40.931800   38.346600   80.839100
  H    -41.139900   38.794900   81.811300
  H    -40.361500   37.444700   81.183900
  C    -40.055700   39.154800   79.889200
  H    -39.091400   39.450000   80.308000
  H    -39.703800   38.502300   79.080600
  H    -40.584600   39.986900   79.487500
  S    -43.732300   31.858600   81.595900
  C    -42.745200   30.620300   82.339600
  C    -41.593000   31.199800   82.934000
  C    -41.572700   32.624600   82.979200
  C    -42.585700   33.100600   82.125900
  H    -40.773700   30.550100   83.214800
  C    -40.493100   33.548300   83.650300
  H    -41.025900   33.977800   84.533000
  H    -40.383500   34.334300   82.951400
  C    -39.080600   33.033300   83.863300
  H    -38.466500   32.702000   82.999500
  H    -39.156600   32.053400   84.467700
  C    -38.277200   34.036400   84.740300
  H    -38.869200   34.295700   85.695300
  H    -38.216100   34.976300   84.283400
  H    -37.323500   33.743800   85.132100
  H    -44.990800   37.355800   81.243500
  H    -42.734000   29.552600   82.072400

 Total Charge           Charge          ....    0
 Multiplicity           Mult            ....    1
 Number of Electrons    NEL             ....  134
 Basis Dimension        Dim             ....  322

ORBITAL ENERGIES
----------------

  NO   OCC          E(Eh)            E(eV)
   0   2.0000     -88.970911     -2421.0216
   1   2.0000     -88.961927     -2420.7771
   2   2.0000     -10.329121      -281.0697
   3   2.0000     -10.324654      -280.9481
   4   2.0000     -10.320261      -280.8286
   5   2.0000     -10.319366      -280.8042
   6   2.0000     -10.312227      -280.6100
   7   2.0000     -10.310808      -280.5714
   8   2.0000     -10.303114      -280.3620
   9   2.0000     -10.301512      -280.3184
  10   2.0000     -10.298748      -280.2432
  11   2.0000     -10.292267      -280.0668
  12   2.0000     -10.290609      -280.0217
  13   2.0000     -10.289601      -279.9943
  14   2.0000     -10.282438      -279.7994
  15   2.0000     -10.279255      -279.7128
  16   2.0000      -8.084863      -220.0003
  17   2.0000      -8.076000      -219.7591
  18   2.0000      -6.043395      -164.4491
  19   2.0000      -6.039414      -164.3408
  20   2.0000      -6.035702      -164.2398
  21   2.0000      -6.034680      -164.2120
  22   2.0000      -6.030628      -164.1017
  23   2.0000      -6.026586      -163.9917
  24   2.0000      -1.002847       -27.2889
  25   2.0000      -0.975680       -26.5496
  26   2.0000      -0.911259       -24.7966
  27   2.0000      -0.908997       -24.7351
  28   2.0000      -0.865927       -23.5631
  29   2.0000      -0.852725       -23.2038
  30   2.0000      -0.842239       -22.9185
  31   2.0000      -0.812955       -22.1216
  32   2.0000      -0.785845       -21.3839
  33   2.0000      -0.771390       -20.9906
  34   2.0000      -0.709321       -19.3016
  35   2.0000      -0.703243       -19.1362
  36   2.0000      -0.694483       -18.8978
  37   2.0000      -0.653801       -17.7908
  38   2.0000      -0.646750       -17.5990
  39   2.0000      -0.618496       -16.8301
  40   2.0000      -0.593659       -16.1543
  41   2.0000      -0.568576       -15.4717
  42   2.0000      -0.565502       -15.3881
  43   2.0000      -0.555684       -15.1209
  44   2.0000      -0.532159       -14.4808
  45   2.0000      -0.526928       -14.3384
  46   2.0000      -0.516014       -14.0415
  47   2.0000      -0.510103       -13.8806
  48   2.0000      -0.504739       -13.7346
  49   2.0000      -0.496117       -13.5000
  50   2.0000      -0.491135       -13.3645
  51   2.0000      -0.484474       -13.1832
  52   2.0000      -0.471427       -12.8282
  53   2.0000      -0.466547       -12.6954
  54   2.0000      -0.458715       -12.4823
  55   2.0000      -0.451204       -12.2779
  56   2.0000      -0.447265       -12.1707
  57   2.0000      -0.439436       -11.9577
  58   2.0000      -0.432135       -11.7590
  59   2.0000      -0.425323       -11.5736
  60   2.0000      -0.421562       -11.4713
  61   2.0000      -0.418212       -11.3801
  62   2.0000      -0.411292       -11.1918
  63   2.0000      -0.340557        -9.2670
  64   2.0000      -0.335090        -9.1183
  65   2.0000      -0.324929        -8.8418
  66   2.0000      -0.292311        -7.9542
  67   0.0000       0.027986         0.7615
  68   0.0000       0.063173         1.7190
  69   0.0000       0.108647         2.9564
  70   0.0000       0.114219         3.1081
  71   0.0000       0.128491         3.4964

MULLIKEN ATOMIC CHARGES
-----------------------
   0 S :    0.094761
   1 C :   -0.130619
   2 C :   -0.069144
   3 C :    0.011936
   4 C :   -0.147909
   5 H :    0.017413
   6 C :    0.126008
   7 H :    0.010742
   8 H :    0.021720
   9 C :   -0.122513
  10 H :    0.031245
  11 H :    0.019251
  12 C :   -0.016215
  13 H :    0.031880
  14 H :    0.023455
  15 H :    0.034119
  16 S :    0.120187
  17 C :   -0.096428
  18 C :   -0.069872
  19 C :   -0.026475
  20 C :   -0.189837
  21 H :    0.024729
  22 C :    0.103372
  23 H :    0.058601
  24 H :   -0.001894
  25 C :   -0.110196
  26 H :    0.049207
  27 H :    0.038493
  28 C :   -0.035101
  29 H :    0.026489
  30 H :    0.017370
  31 H :    0.034364
  32 H :    0.048187
  33 H :    0.072674
Sum of atomic charges:    0.0000000

LOEWDIN ATOMIC CHARGES
----------------------
   0 S :    0.372799
   1 C :   -0.186881
   2 C :   -0.049842
   3 C :   -0.072728
   4 C :   -0.186750
   5 H :    0.030021
   6 C :   -0.019814
   7 H :    0.020664
   8 H :    0.031596
   9 C :   -0.044284
  10 H :    0.022215
  11 H :    0.024441
  12 C :   -0.064461
  13 H :    0.029302
  14 H :    0.028269
  15 H :    0.021484
  16 S :    0.410362
  17 C :   -0.204769
  18 C :   -0.068968
  19 C :   -0.049131
  20 C :   -0.196888
  21 H :    0.028779
  22 C :   -0.027819
  23 H :    0.048741
  24 H :    0.023342
  25 C :   -0.049567
  26 H :    0.031452
  27 H :    0.028103
  28 C :   -0.065021
  29 H :    0.034690
  30 H :    0.015131
  31 H :    0.023202
  32 H :    0.025788
  33 H :    0.036541

  Mayer bond orders larger than 0.100000
B(  0-S ,  1-C ) :   1.1105 B(  0-S ,  4-C ) :   1.1329 B(  1-C ,  2-C ) :   1.6344
B(  1-C , 32-H ) :   0.9732 B(  2-C ,  3-C ) :   1.1751 B(  2-C ,  6-C ) :   1.0356
B(  3-C ,  4-C ) :   1.6538 B(  3-C ,  5-H ) :   0.9803 B(  4-C , 20-C ) :   1.0300
B(  6-C ,  7-H ) :   0.9434 B(  6-C ,  8-H ) :   0.9380 B(  6-C ,  9-C ) :   1.0427
B(  9-C , 10-H ) :   0.9570 B(  9-C , 11-H ) :   0.9564 B(  9-C , 12-C ) :   1.0805
B( 12-C , 13-H ) :   0.9718 B( 12-C , 14-H ) :   0.9707 B( 12-C , 15-H ) :   0.9767
B( 16-S , 17-C ) :   1.1508 B( 16-S , 20-C ) :   1.1580 B( 17-C , 18-C ) :   1.6081
B( 17-C , 20-C ) :   0.1131 B( 17-C , 33-H ) :   0.9579 B( 18-C , 19-C ) :   1.2521
B( 18-C , 21-H ) :   0.9802 B( 19-C , 20-C ) :   1.5674 B( 19-C , 22-C ) :   1.0106
B( 22-C , 23-H ) :   0.9268 B( 22-C , 24-H ) :   0.9372 B( 22-C , 25-C ) :   1.0561
B( 25-C , 26-H ) :   0.9588 B( 25-C , 27-H ) :   0.9525 B( 25-C , 28-C ) :   1.0721
B( 28-C , 29-H ) :   0.9733 B( 28-C , 30-H ) :   0.9769 B( 28-C , 31-H ) :   0.9753

Dispersion correction           -0.013581596
FINAL SINGLE POINT ENERGY     -1339.860949980986

DIPOLE MOMENT
-------------
                                X             Y             Z
Electronic contribution:    -27.31442     -16.74868      -2.14171
Nuclear contribution   :     28.11760      17.00239       2.02886
                        -----------------------------------------
Total Dipole Moment    :      0.80318       0.25370      -0.11285
                        -----------------------------------------
Magnitude (a.u.)       :      0.84982
Magnitude (Debye)      :      2.16008

Rotational constants in cm-1:     0.015557     0.009204     0.006383
Rotational constants in MHz :   466.389604   275.916002   191.368769

                             ****ORCA TERMINATED NORMALLY****
TOTAL RUN TIME: 0 days 0 hours 0 minutes 27 seconds 826 msec
