                         Program Version 4.2.1 -  RELEASE  -
|  1> ! wB97X-D3 SP def2-SVP
|  2> %pal
|  3> nprocs 16
|  4> end
|  5>
|  6> * xyz 0 1
|  7> S 	 -68.4348 	 51.6201 	 125.351
|  8> C 	 -68.2087 	 52.9841 	 124.311
|  9> C 	 -69.4773 	 53.4284 	 123.876
| 10> C 	 -70.5575 	 52.5303 	 124.219
| 11> C 	 -70.1278 	 51.4705 	 125.042
| 12> H 	 -71.655 	 52.6012 	 123.885
| 13> C 	 -69.7727 	 54.7053 	 123.106
| 14> H 	 -69.2529 	 55.5617 	 123.645
| 15> H 	 -70.8068 	 55.0486 	 123.161
| 16> C 	 -69.3222 	 54.7008 	 121.691
| 17> H 	 -68.2936 	 54.4786 	 121.863
| 18> H 	 -69.6516 	 53.8306 	 121.073
| 19> C 	 -69.3813 	 55.9949 	 120.904
| 20> H 	 -70.349 	 56.4615 	 120.666
| 21> H 	 -68.6847 	 56.7919 	 121.289
| 22> H 	 -68.9328 	 55.8442 	 119.894
| 23> S 	 -70.4316 	 48.6694 	 125.048
| 24> C 	 -71.8419 	 48.0559 	 125.73
| 25> C 	 -72.7361 	 49.0414 	 126.123
| 26> C 	 -72.2249 	 50.3753 	 125.969
| 27> C 	 -71.0092 	 50.3095 	 125.341
| 28> H 	 -73.6989 	 48.7548 	 126.636
| 29> C 	 -72.943 	 51.561 	 126.616
| 30> H 	 -72.1928 	 52.3016 	 126.911
| 31> H 	 -73.2126 	 51.1967 	 127.648
| 32> C 	 -74.2013 	 52.202 	 126.034
| 33> H 	 -74.7871 	 51.3659 	 125.809
| 34> H 	 -73.9907 	 52.6407 	 125.036
| 35> C 	 -75.0382 	 53.0697 	 126.995
| 36> H 	 -75.54 	 52.575 	 127.778
| 37> H 	 -75.8693 	 53.4087 	 126.444
| 38> H 	 -74.5067 	 53.9723 	 127.317
| 39> H 	 -67.2428 	 53.4307 	 124.084
| 40> H 	 -72.2241 	 47.0277 	 125.818
| 41> *
| 42>
| 43>                          ****END OF INPUT****

CARTESIAN COORDINATES (ANGSTROEM)
---------------------------------
  S    -68.434800   51.620100  125.351000
  C    -68.208700   52.984100  124.311000
  C    -69.477300   53.428400  123.876000
  C    -70.557500   52.530300  124.219000
  C    -70.127800   51.470500  125.042000
  H    -71.655000   52.601200  123.885000
  C    -69.772700   54.705300  123.106000
  H    -69.252900   55.561700  123.645000
  H    -70.806800   55.048600  123.161000
  C    -69.322200   54.700800  121.691000
  H    -68.293600   54.478600  121.863000
  H    -69.651600   53.830600  121.073000
  C    -69.381300   55.994900  120.904000
  H    -70.349000   56.461500  120.666000
  H    -68.684700   56.791900  121.289000
  H    -68.932800   55.844200  119.894000
  S    -70.431600   48.669400  125.048000
  C    -71.841900   48.055900  125.730000
  C    -72.736100   49.041400  126.123000
  C    -72.224900   50.375300  125.969000
  C    -71.009200   50.309500  125.341000
  H    -73.698900   48.754800  126.636000
  C    -72.943000   51.561000  126.616000
  H    -72.192800   52.301600  126.911000
  H    -73.212600   51.196700  127.648000
  C    -74.201300   52.202000  126.034000
  H    -74.787100   51.365900  125.809000
  H    -73.990700   52.640700  125.036000
  C    -75.038200   53.069700  126.995000
  H    -75.540000   52.575000  127.778000
  H    -75.869300   53.408700  126.444000
  H    -74.506700   53.972300  127.317000
  H    -67.242800   53.430700  124.084000
  H    -72.224100   47.027700  125.818000

 Total Charge           Charge          ....    0
 Multiplicity           Mult            ....    1
 Number of Electrons    NEL             ....  134
 Basis Dimension        Dim             ....  322

ORBITAL ENERGIES
----------------

  NO   OCC          E(Eh)            E(eV)
   0   2.0000     -88.970257     -2421.0038
   1   2.0000     -88.968993     -2420.9694
   2   2.0000     -10.328919      -281.0642
   3   2.0000     -10.327792      -281.0335
   4   2.0000     -10.318715      -280.7865
   5   2.0000     -10.313004      -280.6311
   6   2.0000     -10.307012      -280.4681
   7   2.0000     -10.303555      -280.3740
   8   2.0000     -10.301043      -280.3056
   9   2.0000     -10.293808      -280.1088
  10   2.0000     -10.293627      -280.1038
  11   2.0000     -10.290874      -280.0289
  12   2.0000     -10.286982      -279.9230
  13   2.0000     -10.284098      -279.8445
  14   2.0000     -10.281454      -279.7726
  15   2.0000     -10.275577      -279.6127
  16   2.0000      -8.085746      -220.0243
  17   2.0000      -8.083912      -219.9744
  18   2.0000      -6.044200      -164.4710
  19   2.0000      -6.042364      -164.4211
  20   2.0000      -6.040207      -164.3624
  21   2.0000      -6.038182      -164.3073
  22   2.0000      -6.036466      -164.2606
  23   2.0000      -6.034933      -164.2189
  24   2.0000      -1.008379       -27.4394
  25   2.0000      -0.987105       -26.8605
  26   2.0000      -0.915099       -24.9011
  27   2.0000      -0.909415       -24.7464
  28   2.0000      -0.866674       -23.5834
  29   2.0000      -0.855452       -23.2780
  30   2.0000      -0.844695       -22.9853
  31   2.0000      -0.808164       -21.9913
  32   2.0000      -0.787872       -21.4391
  33   2.0000      -0.774065       -21.0634
  34   2.0000      -0.708938       -19.2912
  35   2.0000      -0.699384       -19.0312
  36   2.0000      -0.689949       -18.7745
  37   2.0000      -0.655273       -17.8309
  38   2.0000      -0.638290       -17.3688
  39   2.0000      -0.612470       -16.6662
  40   2.0000      -0.595071       -16.1927
  41   2.0000      -0.570611       -15.5271
  42   2.0000      -0.561326       -15.2745
  43   2.0000      -0.555129       -15.1058
  44   2.0000      -0.524639       -14.2761
  45   2.0000      -0.519133       -14.1263
  46   2.0000      -0.516468       -14.0538
  47   2.0000      -0.511854       -13.9283
  48   2.0000      -0.503821       -13.7097
  49   2.0000      -0.501706       -13.6521
  50   2.0000      -0.492937       -13.4135
  51   2.0000      -0.479511       -13.0482
  52   2.0000      -0.474074       -12.9002
  53   2.0000      -0.461969       -12.5708
  54   2.0000      -0.458482       -12.4759
  55   2.0000      -0.454470       -12.3667
  56   2.0000      -0.443985       -12.0814
  57   2.0000      -0.436333       -11.8732
  58   2.0000      -0.429925       -11.6989
  59   2.0000      -0.428679       -11.6650
  60   2.0000      -0.423113       -11.5135
  61   2.0000      -0.411197       -11.1892
  62   2.0000      -0.400961       -10.9107
  63   2.0000      -0.345774        -9.4090
  64   2.0000      -0.334354        -9.0982
  65   2.0000      -0.325910        -8.8685
  66   2.0000      -0.293160        -7.9773
  67   0.0000       0.031246         0.8502
  68   0.0000       0.075292         2.0488
  69   0.0000       0.113119         3.0781
  70   0.0000       0.122577         3.3355
  71   0.0000       0.126655         3.4465

MULLIKEN ATOMIC CHARGES
-----------------------
   0 S :    0.122690
   1 C :   -0.134143
   2 C :   -0.083440
   3 C :   -0.004344
   4 C :   -0.157953
   5 H :    0.049002
   6 C :    0.053194
   7 H :    0.030656
   8 H :    0.014099
   9 C :   -0.057593
  10 H :    0.004646
  11 H :    0.037676
  12 C :   -0.065730
  13 H :    0.038858
  14 H :    0.032170
  15 H :    0.030017
  16 S :    0.142528
  17 C :   -0.087751
  18 C :   -0.075447
  19 C :   -0.014451
  20 C :   -0.177260
  21 H :    0.034350
  22 C :    0.033483
  23 H :    0.025912
  24 H :    0.022304
  25 C :   -0.036519
  26 H :    0.002788
  27 H :    0.029457
  28 C :   -0.010688
  29 H :    0.023735
  30 H :    0.014583
  31 H :    0.040230
  32 H :    0.062112
  33 H :    0.060827
Sum of atomic charges:   -0.0000000

LOEWDIN ATOMIC CHARGES
----------------------
   0 S :    0.430635
   1 C :   -0.212541
   2 C :   -0.060537
   3 C :   -0.069298
   4 C :   -0.210639
   5 H :    0.046558
   6 C :   -0.039465
   7 H :    0.037523
   8 H :    0.023259
   9 C :   -0.053472
  10 H :    0.022383
  11 H :    0.031663
  12 C :   -0.077926
  13 H :    0.024316
  14 H :    0.030247
  15 H :    0.032793
  16 S :    0.432117
  17 C :   -0.217315
  18 C :   -0.080680
  19 C :   -0.056921
  20 C :   -0.194009
  21 H :    0.036980
  22 C :   -0.039522
  23 H :    0.028794
  24 H :    0.037577
  25 C :   -0.038353
  26 H :    0.017603
  27 H :    0.025708
  28 C :   -0.057588
  29 H :    0.023126
  30 H :    0.026272
  31 H :    0.029310
  32 H :    0.032468
  33 H :    0.038932

  Mayer bond orders larger than 0.100000
B(  0-S ,  1-C ) :   1.1530 B(  0-S ,  4-C ) :   1.1761 B(  1-C ,  2-C ) :   1.5557
B(  1-C , 32-H ) :   0.9728 B(  2-C ,  3-C ) :   1.2846 B(  2-C ,  6-C ) :   1.0222
B(  3-C ,  4-C ) :   1.5293 B(  3-C ,  5-H ) :   0.9777 B(  4-C , 20-C ) :   1.0302
B(  6-C ,  7-H ) :   0.9397 B(  6-C ,  8-H ) :   0.9453 B(  6-C ,  9-C ) :   1.0592
B(  9-C , 10-H ) :   0.9499 B(  9-C , 11-H ) :   0.9526 B(  9-C , 12-C ) :   1.0892
B( 12-C , 13-H ) :   0.9760 B( 12-C , 14-H ) :   0.9706 B( 12-C , 15-H ) :   0.9693
B( 16-S , 17-C ) :   1.1562 B( 16-S , 20-C ) :   1.1384 B( 17-C , 18-C ) :   1.6320
B( 17-C , 33-H ) :   0.9585 B( 18-C , 19-C ) :   1.2382 B( 18-C , 21-H ) :   0.9770
B( 19-C , 20-C ) :   1.6136 B( 19-C , 22-C ) :   1.0341 B( 22-C , 23-H ) :   0.9276
B( 22-C , 24-H ) :   0.9376 B( 22-C , 25-C ) :   1.0582 B( 25-C , 26-H ) :   0.9469
B( 25-C , 27-H ) :   0.9512 B( 25-C , 28-C ) :   1.0915 B( 28-C , 29-H ) :   0.9705
B( 28-C , 30-H ) :   0.9670 B( 28-C , 31-H ) :   0.9771

Dispersion correction           -0.013605047
FINAL SINGLE POINT ENERGY     -1339.865712403201

DIPOLE MOMENT
-------------
                                X             Y             Z
Electronic contribution:     15.29343     -24.33489       7.16569
Nuclear contribution   :    -15.76930      24.67487      -7.21994
                        -----------------------------------------
Total Dipole Moment    :     -0.47587       0.33998      -0.05425
                        -----------------------------------------
Magnitude (a.u.)       :      0.58735
Magnitude (Debye)      :      1.49292

Rotational constants in cm-1:     0.016800     0.008161     0.006191
Rotational constants in MHz :   503.644490   244.666658   185.615488

                             ****ORCA TERMINATED NORMALLY****
TOTAL RUN TIME: 0 days 0 hours 0 minutes 30 seconds 302 msec
