                         Program Version 4.2.1 -  RELEASE  -
|  1> ! wB97X-D3 SP def2-SVP
|  2> %pal
|  3> nprocs 16
|  4> end
|  5>
|  6> * xyz 0 1
|  7> S 	 57.5926 	 -4.67041 	 86.8992
|  8> C 	 56.0324 	 -4.43399 	 87.6284
|  9> C 	 55.8704 	 -3.12478 	 88.1378
| 10> C 	 57.0018 	 -2.27847 	 87.7448
| 11> C 	 58.0402 	 -2.97976 	 87.0855
| 12> H 	 57.0435 	 -1.23584 	 87.8934
| 13> C 	 54.6439 	 -2.6157 	 88.9151
| 14> H 	 54.6166 	 -3.19996 	 89.7954
| 15> H 	 53.7799 	 -3.07791 	 88.4347
| 16> C 	 54.4359 	 -1.12419 	 89.0075
| 17> H 	 55.3549 	 -0.572067 	 89.3618
| 18> H 	 54.3039 	 -0.659316 	 87.9779
| 19> C 	 53.3893 	 -0.677334 	 90.0084
| 20> H 	 53.7223 	 -1.01758 	 91.008
| 21> H 	 53.1329 	 0.373199 	 89.9881
| 22> H 	 52.5053 	 -1.25969 	 89.7822
| 23> S 	 59.8052 	 -3.25918 	 84.9485
| 24> C 	 61.1625 	 -2.17834 	 85.0284
| 25> C 	 61.1106 	 -1.23899 	 86.0171
| 26> C 	 59.9046 	 -1.38102 	 86.7774
| 27> C 	 59.1289 	 -2.41869 	 86.324
| 28> H 	 61.8741 	 -0.509921 	 86.0557
| 29> C 	 59.6991 	 -0.31221 	 87.8954
| 30> H 	 58.8074 	 0.282998 	 87.7653
| 31> H 	 60.4495 	 0.374686 	 87.6922
| 32> C 	 59.8012 	 -0.850709 	 89.4006
| 33> H 	 60.7585 	 -1.391 	 89.6039
| 34> H 	 59.0118 	 -1.62396 	 89.6227
| 35> C 	 59.7774 	 0.369069 	 90.3426
| 36> H 	 59.74 	 0.107671 	 91.4249
| 37> H 	 58.8852 	 0.956784 	 90.1175
| 38> H 	 60.7403 	 0.762337 	 90.1987
| 39> H 	 55.1984 	 -5.14432 	 87.8454
| 40> H 	 61.8716 	 -2.07401 	 84.1855
| 41> *
| 42>
| 43>                          ****END OF INPUT****

CARTESIAN COORDINATES (ANGSTROEM)
---------------------------------
  S     57.592600   -4.670410   86.899200
  C     56.032400   -4.433990   87.628400
  C     55.870400   -3.124780   88.137800
  C     57.001800   -2.278470   87.744800
  C     58.040200   -2.979760   87.085500
  H     57.043500   -1.235840   87.893400
  C     54.643900   -2.615700   88.915100
  H     54.616600   -3.199960   89.795400
  H     53.779900   -3.077910   88.434700
  C     54.435900   -1.124190   89.007500
  H     55.354900   -0.572067   89.361800
  H     54.303900   -0.659316   87.977900
  C     53.389300   -0.677334   90.008400
  H     53.722300   -1.017580   91.008000
  H     53.132900    0.373199   89.988100
  H     52.505300   -1.259690   89.782200
  S     59.805200   -3.259180   84.948500
  C     61.162500   -2.178340   85.028400
  C     61.110600   -1.238990   86.017100
  C     59.904600   -1.381020   86.777400
  C     59.128900   -2.418690   86.324000
  H     61.874100   -0.509921   86.055700
  C     59.699100   -0.312210   87.895400
  H     58.807400    0.282998   87.765300
  H     60.449500    0.374686   87.692200
  C     59.801200   -0.850709   89.400600
  H     60.758500   -1.391000   89.603900
  H     59.011800   -1.623960   89.622700
  C     59.777400    0.369069   90.342600
  H     59.740000    0.107671   91.424900
  H     58.885200    0.956784   90.117500
  H     60.740300    0.762337   90.198700
  H     55.198400   -5.144320   87.845400
  H     61.871600   -2.074010   84.185500

 Total Charge           Charge          ....    0
 Multiplicity           Mult            ....    1
 Number of Electrons    NEL             ....  134
 Basis Dimension        Dim             ....  322

ORBITAL ENERGIES
----------------

  NO   OCC          E(Eh)            E(eV)
   0   2.0000     -88.969950     -2420.9954
   1   2.0000     -88.968028     -2420.9431
   2   2.0000     -10.329191      -281.0716
   3   2.0000     -10.323967      -280.9294
   4   2.0000     -10.315035      -280.6864
   5   2.0000     -10.314749      -280.6786
   6   2.0000     -10.307021      -280.4683
   7   2.0000     -10.303133      -280.3625
   8   2.0000     -10.296124      -280.1718
   9   2.0000     -10.295187      -280.1463
  10   2.0000     -10.293325      -280.0956
  11   2.0000     -10.293210      -280.0925
  12   2.0000     -10.292837      -280.0823
  13   2.0000     -10.290044      -280.0063
  14   2.0000     -10.280810      -279.7550
  15   2.0000     -10.276722      -279.6438
  16   2.0000      -8.084937      -220.0023
  17   2.0000      -8.082236      -219.9288
  18   2.0000      -6.043398      -164.4492
  19   2.0000      -6.040909      -164.3815
  20   2.0000      -6.039556      -164.3447
  21   2.0000      -6.036709      -164.2672
  22   2.0000      -6.035585      -164.2366
  23   2.0000      -6.032982      -164.1658
  24   2.0000      -1.007652       -27.4196
  25   2.0000      -0.978364       -26.6226
  26   2.0000      -0.914568       -24.8867
  27   2.0000      -0.901683       -24.5361
  28   2.0000      -0.870819       -23.6962
  29   2.0000      -0.855196       -23.2711
  30   2.0000      -0.844704       -22.9856
  31   2.0000      -0.812023       -22.0963
  32   2.0000      -0.785149       -21.3650
  33   2.0000      -0.771102       -20.9828
  34   2.0000      -0.710797       -19.3418
  35   2.0000      -0.697325       -18.9752
  36   2.0000      -0.683462       -18.5979
  37   2.0000      -0.664576       -18.0840
  38   2.0000      -0.631534       -17.1849
  39   2.0000      -0.619396       -16.8546
  40   2.0000      -0.595158       -16.1951
  41   2.0000      -0.567561       -15.4441
  42   2.0000      -0.564370       -15.3573
  43   2.0000      -0.563507       -15.3338
  44   2.0000      -0.536645       -14.6029
  45   2.0000      -0.520461       -14.1625
  46   2.0000      -0.512344       -13.9416
  47   2.0000      -0.508159       -13.8277
  48   2.0000      -0.503803       -13.7092
  49   2.0000      -0.497810       -13.5461
  50   2.0000      -0.490456       -13.3460
  51   2.0000      -0.485051       -13.1989
  52   2.0000      -0.470781       -12.8106
  53   2.0000      -0.464082       -12.6283
  54   2.0000      -0.455276       -12.3887
  55   2.0000      -0.451720       -12.2919
  56   2.0000      -0.446305       -12.1446
  57   2.0000      -0.438989       -11.9455
  58   2.0000      -0.430371       -11.7110
  59   2.0000      -0.424925       -11.5628
  60   2.0000      -0.421925       -11.4812
  61   2.0000      -0.417747       -11.3675
  62   2.0000      -0.407298       -11.0832
  63   2.0000      -0.357195        -9.7198
  64   2.0000      -0.337219        -9.1762
  65   2.0000      -0.325055        -8.8452
  66   2.0000      -0.277310        -7.5460
  67   0.0000       0.022012         0.5990
  68   0.0000       0.078844         2.1454
  69   0.0000       0.104133         2.8336
  70   0.0000       0.118480         3.2240
  71   0.0000       0.130318         3.5461

MULLIKEN ATOMIC CHARGES
-----------------------
   0 S :    0.110110
   1 C :   -0.131175
   2 C :   -0.121028
   3 C :    0.013961
   4 C :   -0.124065
   5 H :   -0.012363
   6 C :    0.104215
   7 H :    0.020031
   8 H :    0.017697
   9 C :   -0.125372
  10 H :    0.036174
  11 H :    0.044915
  12 C :   -0.019635
  13 H :    0.033081
  14 H :    0.043051
  15 H :    0.017828
  16 S :    0.116137
  17 C :   -0.108250
  18 C :   -0.012752
  19 C :   -0.048183
  20 C :   -0.124311
  21 H :    0.008134
  22 C :    0.085247
  23 H :    0.030843
  24 H :   -0.011131
  25 C :   -0.117922
  26 H :    0.034257
  27 H :    0.055133
  28 C :   -0.032623
  29 H :    0.036368
  30 H :    0.037146
  31 H :    0.027488
  32 H :    0.053600
  33 H :    0.063396
Sum of atomic charges:   -0.0000000

LOEWDIN ATOMIC CHARGES
----------------------
   0 S :    0.408891
   1 C :   -0.226421
   2 C :   -0.052691
   3 C :   -0.063658
   4 C :   -0.183117
   5 H :    0.017673
   6 C :   -0.038008
   7 H :    0.030561
   8 H :    0.036252
   9 C :   -0.053997
  10 H :    0.025079
  11 H :    0.032561
  12 C :   -0.060574
  13 H :    0.029341
  14 H :    0.028217
  15 H :    0.020619
  16 S :    0.409183
  17 C :   -0.188400
  18 C :   -0.065802
  19 C :   -0.047306
  20 C :   -0.202391
  21 H :    0.027471
  22 C :   -0.021400
  23 H :    0.027134
  24 H :    0.019302
  25 C :   -0.042265
  26 H :    0.026952
  27 H :    0.027132
  28 C :   -0.066648
  29 H :    0.029938
  30 H :    0.024860
  31 H :    0.020873
  32 H :    0.038304
  33 H :    0.032333

  Mayer bond orders larger than 0.100000
B(  0-S ,  1-C ) :   1.1358 B(  0-S ,  4-C ) :   1.1446 B(  1-C ,  2-C ) :   1.6059
B(  1-C , 32-H ) :   0.9606 B(  2-C ,  3-C ) :   1.2684 B(  2-C ,  6-C ) :   1.0027
B(  3-C ,  4-C ) :   1.5298 B(  3-C ,  5-H ) :   0.9916 B(  4-C , 20-C ) :   1.0844
B(  6-C ,  7-H ) :   0.9323 B(  6-C ,  8-H ) :   0.9276 B(  6-C ,  9-C ) :   1.0674
B(  9-C , 10-H ) :   0.9510 B(  9-C , 11-H ) :   0.9520 B(  9-C , 12-C ) :   1.0786
B( 12-C , 13-H ) :   0.9751 B( 12-C , 14-H ) :   0.9727 B( 12-C , 15-H ) :   0.9739
B( 16-S , 17-C ) :   1.1517 B( 16-S , 20-C ) :   1.1220 B( 17-C , 18-C ) :   1.6333
B( 17-C , 33-H ) :   0.9556 B( 18-C , 19-C ) :   1.2432 B( 18-C , 21-H ) :   0.9937
B( 19-C , 20-C ) :   1.6074 B( 19-C , 22-C ) :   1.0162 B( 22-C , 23-H ) :   0.9399
B( 22-C , 24-H ) :   0.9331 B( 22-C , 25-C ) :   1.0382 B( 25-C , 26-H ) :   0.9603
B( 25-C , 27-H ) :   0.9589 B( 25-C , 28-C ) :   1.0668 B( 28-C , 29-H ) :   0.9739
B( 28-C , 30-H ) :   0.9750 B( 28-C , 31-H ) :   0.9788

Dispersion correction           -0.014137684
FINAL SINGLE POINT ENERGY     -1339.861126761658

DIPOLE MOMENT
-------------
                                X             Y             Z
Electronic contribution:     11.90139     -20.62588     -22.92236
Nuclear contribution   :    -12.05899      21.23420      23.27020
                        -----------------------------------------
Total Dipole Moment    :     -0.15760       0.60833       0.34784
                        -----------------------------------------
Magnitude (a.u.)       :      0.71826
Magnitude (Debye)      :      1.82567

Rotational constants in cm-1:     0.017322     0.009359     0.006688
Rotational constants in MHz :   519.296852   280.576445   200.487279

                             ****ORCA TERMINATED NORMALLY****
TOTAL RUN TIME: 0 days 0 hours 0 minutes 29 seconds 68 msec
