                         Program Version 4.2.1 -  RELEASE  -
|  1> ! wB97X-D3 SP def2-SVP
|  2> %pal
|  3> nprocs 16
|  4> end
|  5>
|  6> * xyz 0 1
|  7> S 	 -43.1052 	 55.6012 	 107.368
|  8> C 	 -44.3738 	 56.2708 	 106.388
|  9> C 	 -43.8594 	 57.0134 	 105.352
| 10> C 	 -42.4334 	 56.8643 	 105.2
| 11> C 	 -41.894 	 56.0083 	 106.202
| 12> H 	 -41.8734 	 57.2876 	 104.392
| 13> C 	 -44.7415 	 57.9395 	 104.52
| 14> H 	 -45.7297 	 57.5617 	 104.425
| 15> H 	 -44.3074 	 57.8223 	 103.539
| 16> C 	 -44.819 	 59.4214 	 104.998
| 17> H 	 -45.145 	 59.428 	 106.027
| 18> H 	 -43.8454 	 59.9183 	 105.072
| 19> C 	 -45.8197 	 60.2567 	 104.378
| 20> H 	 -45.8874 	 60.1577 	 103.309
| 21> H 	 -46.8213 	 59.8494 	 104.549
| 22> H 	 -45.9265 	 61.2937 	 104.654
| 23> S 	 -40.3208 	 53.864 	 106.547
| 24> C 	 -38.5919 	 54.048 	 106.674
| 25> C 	 -38.2237 	 55.3902 	 106.607
| 26> C 	 -39.292 	 56.3055 	 106.283
| 27> C 	 -40.5449 	 55.5923 	 106.316
| 28> H 	 -37.1849 	 55.4928 	 106.818
| 29> C 	 -39.0521 	 57.8326 	 106.139
| 30> H 	 -39.9912 	 58.3246 	 106.015
| 31> H 	 -38.449 	 57.9967 	 105.259
| 32> C 	 -38.3237 	 58.5356 	 107.319
| 33> H 	 -37.3232 	 58.0155 	 107.46
| 34> H 	 -38.7191 	 58.1185 	 108.274
| 35> C 	 -38.3802 	 60.0696 	 107.19
| 36> H 	 -37.9535 	 60.5625 	 108.147
| 37> H 	 -39.3651 	 60.3788 	 106.969
| 38> H 	 -37.7221 	 60.3788 	 106.323
| 39> H 	 -45.3551 	 56.5817 	 106.644
| 40> H 	 -37.9257 	 53.2114 	 106.782
| 41> *
| 42>
| 43>                          ****END OF INPUT****

CARTESIAN COORDINATES (ANGSTROEM)
---------------------------------
  S    -43.105200   55.601200  107.368000
  C    -44.373800   56.270800  106.388000
  C    -43.859400   57.013400  105.352000
  C    -42.433400   56.864300  105.200000
  C    -41.894000   56.008300  106.202000
  H    -41.873400   57.287600  104.392000
  C    -44.741500   57.939500  104.520000
  H    -45.729700   57.561700  104.425000
  H    -44.307400   57.822300  103.539000
  C    -44.819000   59.421400  104.998000
  H    -45.145000   59.428000  106.027000
  H    -43.845400   59.918300  105.072000
  C    -45.819700   60.256700  104.378000
  H    -45.887400   60.157700  103.309000
  H    -46.821300   59.849400  104.549000
  H    -45.926500   61.293700  104.654000
  S    -40.320800   53.864000  106.547000
  C    -38.591900   54.048000  106.674000
  C    -38.223700   55.390200  106.607000
  C    -39.292000   56.305500  106.283000
  C    -40.544900   55.592300  106.316000
  H    -37.184900   55.492800  106.818000
  C    -39.052100   57.832600  106.139000
  H    -39.991200   58.324600  106.015000
  H    -38.449000   57.996700  105.259000
  C    -38.323700   58.535600  107.319000
  H    -37.323200   58.015500  107.460000
  H    -38.719100   58.118500  108.274000
  C    -38.380200   60.069600  107.190000
  H    -37.953500   60.562500  108.147000
  H    -39.365100   60.378800  106.969000
  H    -37.722100   60.378800  106.323000
  H    -45.355100   56.581700  106.644000
  H    -37.925700   53.211400  106.782000

 Total Charge           Charge          ....    0
 Multiplicity           Mult            ....    1
 Number of Electrons    NEL             ....  134
 Basis Dimension        Dim             ....  322

ORBITAL ENERGIES
----------------

  NO   OCC          E(Eh)            E(eV)
   0   2.0000     -88.969671     -2420.9878
   1   2.0000     -88.965955     -2420.8867
   2   2.0000     -10.331496      -281.1343
   3   2.0000     -10.331040      -281.1219
   4   2.0000     -10.318281      -280.7747
   5   2.0000     -10.316453      -280.7250
   6   2.0000     -10.303802      -280.3807
   7   2.0000     -10.299204      -280.2556
   8   2.0000     -10.296671      -280.1867
   9   2.0000     -10.296056      -280.1699
  10   2.0000     -10.293923      -280.1119
  11   2.0000     -10.293848      -280.1098
  12   2.0000     -10.292278      -280.0671
  13   2.0000     -10.292068      -280.0614
  14   2.0000     -10.283836      -279.8374
  15   2.0000     -10.271094      -279.4907
  16   2.0000      -8.084520      -219.9910
  17   2.0000      -8.080739      -219.8881
  18   2.0000      -6.043088      -164.4408
  19   2.0000      -6.039115      -164.3327
  20   2.0000      -6.039017      -164.3300
  21   2.0000      -6.035181      -164.2256
  22   2.0000      -6.035160      -164.2250
  23   2.0000      -6.031700      -164.1309
  24   2.0000      -1.006705       -27.3938
  25   2.0000      -0.980491       -26.6805
  26   2.0000      -0.918228       -24.9862
  27   2.0000      -0.904574       -24.6147
  28   2.0000      -0.877713       -23.8838
  29   2.0000      -0.852884       -23.2081
  30   2.0000      -0.845871       -23.0173
  31   2.0000      -0.813459       -22.1353
  32   2.0000      -0.784789       -21.3552
  33   2.0000      -0.771494       -20.9934
  34   2.0000      -0.712429       -19.3862
  35   2.0000      -0.706113       -19.2143
  36   2.0000      -0.699437       -19.0326
  37   2.0000      -0.656552       -17.8657
  38   2.0000      -0.633881       -17.2488
  39   2.0000      -0.621936       -16.9237
  40   2.0000      -0.596149       -16.2220
  41   2.0000      -0.570996       -15.5376
  42   2.0000      -0.561866       -15.2891
  43   2.0000      -0.557728       -15.1765
  44   2.0000      -0.536449       -14.5975
  45   2.0000      -0.527155       -14.3446
  46   2.0000      -0.520796       -14.1716
  47   2.0000      -0.512443       -13.9443
  48   2.0000      -0.502962       -13.6863
  49   2.0000      -0.498028       -13.5520
  50   2.0000      -0.491556       -13.3759
  51   2.0000      -0.484343       -13.1796
  52   2.0000      -0.478612       -13.0237
  53   2.0000      -0.464473       -12.6390
  54   2.0000      -0.459257       -12.4970
  55   2.0000      -0.452082       -12.3018
  56   2.0000      -0.444472       -12.0947
  57   2.0000      -0.438808       -11.9406
  58   2.0000      -0.435698       -11.8559
  59   2.0000      -0.428847       -11.6695
  60   2.0000      -0.423909       -11.5351
  61   2.0000      -0.405869       -11.0442
  62   2.0000      -0.402050       -10.9403
  63   2.0000      -0.348685        -9.4882
  64   2.0000      -0.333196        -9.0667
  65   2.0000      -0.327621        -8.9150
  66   2.0000      -0.285972        -7.7817
  67   0.0000       0.024203         0.6586
  68   0.0000       0.068359         1.8601
  69   0.0000       0.111534         3.0350
  70   0.0000       0.120800         3.2871
  71   0.0000       0.126061         3.4303

MULLIKEN ATOMIC CHARGES
-----------------------
   0 S :    0.129630
   1 C :   -0.068793
   2 C :   -0.158265
   3 C :    0.048753
   4 C :   -0.157979
   5 H :    0.007978
   6 C :    0.082981
   7 H :    0.008594
   8 H :    0.020949
   9 C :   -0.033542
  10 H :    0.014156
  11 H :    0.025854
  12 C :   -0.021751
  13 H :    0.007670
  14 H :    0.003075
  15 H :    0.039572
  16 S :    0.113305
  17 C :   -0.107197
  18 C :   -0.048021
  19 C :    0.002910
  20 C :   -0.181212
  21 H :    0.016187
  22 C :    0.095073
  23 H :    0.009977
  24 H :    0.033066
  25 C :   -0.121064
  26 H :    0.028458
  27 H :    0.030228
  28 C :   -0.044511
  29 H :    0.058269
  30 H :    0.032765
  31 H :    0.041027
  32 H :    0.034587
  33 H :    0.057272
Sum of atomic charges:    0.0000000

LOEWDIN ATOMIC CHARGES
----------------------
   0 S :    0.429425
   1 C :   -0.214116
   2 C :   -0.057033
   3 C :   -0.062313
   4 C :   -0.202701
   5 H :    0.027091
   6 C :   -0.023692
   7 H :    0.025438
   8 H :    0.030162
   9 C :   -0.045283
  10 H :    0.026219
  11 H :    0.025443
  12 C :   -0.073308
  13 H :    0.020172
  14 H :    0.025347
  15 H :    0.030011
  16 S :    0.413221
  17 C :   -0.188361
  18 C :   -0.073390
  19 C :   -0.042617
  20 C :   -0.201090
  21 H :    0.029148
  22 C :   -0.027589
  23 H :    0.022573
  24 H :    0.031266
  25 C :   -0.056192
  26 H :    0.026362
  27 H :    0.025743
  28 C :   -0.065841
  29 H :    0.041609
  30 H :    0.019651
  31 H :    0.033421
  32 H :    0.024622
  33 H :    0.026606

  Mayer bond orders larger than 0.100000
B(  0-S ,  1-C ) :   1.1256 B(  0-S ,  4-C ) :   1.1772 B(  1-C ,  2-C ) :   1.6218
B(  1-C , 32-H ) :   0.9582 B(  2-C ,  3-C ) :   1.2636 B(  2-C ,  6-C ) :   1.0303
B(  3-C ,  4-C ) :   1.5091 B(  3-C ,  5-H ) :   0.9986 B(  4-C , 20-C ) :   1.0841
B(  6-C ,  7-H ) :   0.9421 B(  6-C ,  8-H ) :   0.9319 B(  6-C ,  9-C ) :   1.0530
B(  9-C , 10-H ) :   0.9514 B(  9-C , 11-H ) :   0.9525 B(  9-C , 12-C ) :   1.0955
B( 12-C , 13-H ) :   0.9661 B( 12-C , 14-H ) :   0.9619 B( 12-C , 15-H ) :   0.9707
B( 16-S , 17-C ) :   1.1557 B( 16-S , 20-C ) :   1.1619 B( 17-C , 18-C ) :   1.6110
B( 17-C , 20-C ) :   0.1080 B( 17-C , 33-H ) :   0.9695 B( 18-C , 19-C ) :   1.2215
B( 18-C , 21-H ) :   0.9933 B( 19-C , 20-C ) :   1.5391 B( 19-C , 22-C ) :   1.0457
B( 22-C , 23-H ) :   0.9355 B( 22-C , 24-H ) :   0.9309 B( 22-C , 25-C ) :   1.0564
B( 25-C , 26-H ) :   0.9504 B( 25-C , 27-H ) :   0.9582 B( 25-C , 28-C ) :   1.0639
B( 28-C , 29-H ) :   0.9735 B( 28-C , 30-H ) :   0.9757 B( 28-C , 31-H ) :   0.9745

Dispersion correction           -0.013462380
FINAL SINGLE POINT ENERGY     -1339.855916560963

DIPOLE MOMENT
-------------
                                X             Y             Z
Electronic contribution:      1.97048     -29.36716       6.60753
Nuclear contribution   :     -1.79290      29.99984      -6.74013
                        -----------------------------------------
Total Dipole Moment    :      0.17758       0.63269      -0.13260
                        -----------------------------------------
Magnitude (a.u.)       :      0.67038
Magnitude (Debye)      :      1.70397

Rotational constants in cm-1:     0.017497     0.008317     0.006151
Rotational constants in MHz :   524.559845   249.341730   184.394689

                             ****ORCA TERMINATED NORMALLY****
TOTAL RUN TIME: 0 days 0 hours 0 minutes 28 seconds 945 msec
