                         Program Version 4.2.1 -  RELEASE  -
|  1> ! wB97X-D3 SP def2-SVP
|  2> %pal
|  3> nprocs 16
|  4> end
|  5>
|  6> * xyz 0 1
|  7> S 	 -66.7716 	 37.2346 	 142.503
|  8> C 	 -67.8509 	 36.5976 	 141.307
|  9> C 	 -67.4753 	 35.4038 	 140.684
| 10> C 	 -66.0517 	 35.1475 	 141.012
| 11> C 	 -65.4548 	 36.2359 	 141.711
| 12> H 	 -65.4032 	 34.2601 	 140.749
| 13> C 	 -68.4216 	 34.5002 	 139.835
| 14> H 	 -69.2926 	 35.1451 	 139.577
| 15> H 	 -68.7846 	 33.7833 	 140.564
| 16> C 	 -67.8105 	 33.7587 	 138.672
| 17> H 	 -67.4016 	 32.921 	 139.186
| 18> H 	 -68.5464 	 33.2707 	 138.088
| 19> C 	 -66.8678 	 34.6049 	 137.715
| 20> H 	 -67.4257 	 35.4021 	 137.178
| 21> H 	 -66.0814 	 35.0268 	 138.279
| 22> H 	 -66.4479 	 34.0006 	 136.9
| 23> S 	 -63.5447 	 35.9648 	 143.768
| 24> C 	 -61.8746 	 36.1236 	 143.381
| 25> C 	 -61.7665 	 36.7301 	 142.111
| 26> C 	 -63.0085 	 36.8281 	 141.362
| 27> C 	 -64.0641 	 36.3513 	 142.119
| 28> H 	 -60.8125 	 37.0312 	 141.876
| 29> C 	 -63.1824 	 37.4585 	 139.952
| 30> H 	 -63.8836 	 36.8666 	 139.363
| 31> H 	 -62.2342 	 37.252 	 139.434
| 32> C 	 -63.5886 	 38.9175 	 139.746
| 33> H 	 -63.3037 	 39.276 	 138.794
| 34> H 	 -63.1229 	 39.5368 	 140.501
| 35> C 	 -65.1205 	 39.0701 	 139.741
| 36> H 	 -65.4984 	 40.0728 	 139.443
| 37> H 	 -65.4267 	 38.6812 	 140.675
| 38> H 	 -65.553 	 38.3891 	 138.998
| 39> H 	 -68.8441 	 37.0804 	 141.223
| 40> H 	 -61.0925 	 36.0878 	 144.148
| 41> *
| 42>
| 43>                          ****END OF INPUT****

CARTESIAN COORDINATES (ANGSTROEM)
---------------------------------
  S    -66.771600   37.234600  142.503000
  C    -67.850900   36.597600  141.307000
  C    -67.475300   35.403800  140.684000
  C    -66.051700   35.147500  141.012000
  C    -65.454800   36.235900  141.711000
  H    -65.403200   34.260100  140.749000
  C    -68.421600   34.500200  139.835000
  H    -69.292600   35.145100  139.577000
  H    -68.784600   33.783300  140.564000
  C    -67.810500   33.758700  138.672000
  H    -67.401600   32.921000  139.186000
  H    -68.546400   33.270700  138.088000
  C    -66.867800   34.604900  137.715000
  H    -67.425700   35.402100  137.178000
  H    -66.081400   35.026800  138.279000
  H    -66.447900   34.000600  136.900000
  S    -63.544700   35.964800  143.768000
  C    -61.874600   36.123600  143.381000
  C    -61.766500   36.730100  142.111000
  C    -63.008500   36.828100  141.362000
  C    -64.064100   36.351300  142.119000
  H    -60.812500   37.031200  141.876000
  C    -63.182400   37.458500  139.952000
  H    -63.883600   36.866600  139.363000
  H    -62.234200   37.252000  139.434000
  C    -63.588600   38.917500  139.746000
  H    -63.303700   39.276000  138.794000
  H    -63.122900   39.536800  140.501000
  C    -65.120500   39.070100  139.741000
  H    -65.498400   40.072800  139.443000
  H    -65.426700   38.681200  140.675000
  H    -65.553000   38.389100  138.998000
  H    -68.844100   37.080400  141.223000
  H    -61.092500   36.087800  144.148000

 Total Charge           Charge          ....    0
 Multiplicity           Mult            ....    1
 Number of Electrons    NEL             ....  134
 Basis Dimension        Dim             ....  322

ORBITAL ENERGIES
----------------

  NO   OCC          E(Eh)            E(eV)
   0   2.0000     -88.966475     -2420.9009
   1   2.0000     -88.962846     -2420.8021
   2   2.0000     -10.337023      -281.2847
   3   2.0000     -10.324994      -280.9574
   4   2.0000     -10.320122      -280.8248
   5   2.0000     -10.318860      -280.7905
   6   2.0000     -10.314970      -280.6846
   7   2.0000     -10.314678      -280.6766
   8   2.0000     -10.310072      -280.5513
   9   2.0000     -10.300496      -280.2907
  10   2.0000     -10.294343      -280.1233
  11   2.0000     -10.290857      -280.0284
  12   2.0000     -10.286113      -279.8994
  13   2.0000     -10.282147      -279.7914
  14   2.0000     -10.275843      -279.6199
  15   2.0000     -10.262927      -279.2684
  16   2.0000      -8.080032      -219.8688
  17   2.0000      -8.077928      -219.8116
  18   2.0000      -6.038535      -164.3169
  19   2.0000      -6.036397      -164.2587
  20   2.0000      -6.035208      -164.2264
  21   2.0000      -6.032374      -164.1493
  22   2.0000      -6.030347      -164.0941
  23   2.0000      -6.028717      -164.0497
  24   2.0000      -0.998427       -27.1686
  25   2.0000      -0.975364       -26.5410
  26   2.0000      -0.909393       -24.7458
  27   2.0000      -0.903633       -24.5891
  28   2.0000      -0.865516       -23.5519
  29   2.0000      -0.844999       -22.9936
  30   2.0000      -0.838084       -22.8054
  31   2.0000      -0.809417       -22.0254
  32   2.0000      -0.784083       -21.3360
  33   2.0000      -0.769926       -20.9507
  34   2.0000      -0.710891       -19.3443
  35   2.0000      -0.695994       -18.9390
  36   2.0000      -0.689298       -18.7567
  37   2.0000      -0.656875       -17.8745
  38   2.0000      -0.637052       -17.3351
  39   2.0000      -0.612289       -16.6612
  40   2.0000      -0.592737       -16.1292
  41   2.0000      -0.559043       -15.2123
  42   2.0000      -0.556334       -15.1386
  43   2.0000      -0.555596       -15.1185
  44   2.0000      -0.545781       -14.8515
  45   2.0000      -0.528661       -14.3856
  46   2.0000      -0.511264       -13.9122
  47   2.0000      -0.505369       -13.7518
  48   2.0000      -0.495842       -13.4925
  49   2.0000      -0.489754       -13.3269
  50   2.0000      -0.486489       -13.2380
  51   2.0000      -0.479061       -13.0359
  52   2.0000      -0.472213       -12.8496
  53   2.0000      -0.461035       -12.5454
  54   2.0000      -0.458324       -12.4716
  55   2.0000      -0.447465       -12.1761
  56   2.0000      -0.444588       -12.0979
  57   2.0000      -0.438858       -11.9419
  58   2.0000      -0.429207       -11.6793
  59   2.0000      -0.423703       -11.5295
  60   2.0000      -0.422635       -11.5005
  61   2.0000      -0.414984       -11.2923
  62   2.0000      -0.401805       -10.9337
  63   2.0000      -0.334653        -9.1064
  64   2.0000      -0.328763        -8.9461
  65   2.0000      -0.322253        -8.7689
  66   2.0000      -0.296461        -8.0671
  67   0.0000       0.029145         0.7931
  68   0.0000       0.044747         1.2176
  69   0.0000       0.097821         2.6618
  70   0.0000       0.115290         3.1372
  71   0.0000       0.130625         3.5545

MULLIKEN ATOMIC CHARGES
-----------------------
   0 S :    0.095737
   1 C :   -0.128779
   2 C :   -0.112627
   3 C :    0.025530
   4 C :   -0.204654
   5 H :    0.055537
   6 C :    0.072157
   7 H :    0.026762
   8 H :    0.045200
   9 C :   -0.044862
  10 H :    0.015718
  11 H :    0.018125
  12 C :   -0.042876
  13 H :    0.038483
  14 H :    0.033046
  15 H :    0.035297
  16 S :    0.109487
  17 C :   -0.110124
  18 C :   -0.020963
  19 C :   -0.009942
  20 C :   -0.173534
  21 H :   -0.013109
  22 C :    0.063155
  23 H :    0.017685
  24 H :    0.017781
  25 C :   -0.011045
  26 H :    0.012281
  27 H :    0.026344
  28 C :   -0.039384
  29 H :    0.035666
  30 H :    0.021076
  31 H :    0.014698
  32 H :    0.060056
  33 H :    0.072081
Sum of atomic charges:    0.0000000

LOEWDIN ATOMIC CHARGES
----------------------
   0 S :    0.379602
   1 C :   -0.196144
   2 C :   -0.062273
   3 C :   -0.050132
   4 C :   -0.174656
   5 H :    0.045944
   6 C :   -0.029197
   7 H :    0.031409
   8 H :    0.038363
   9 C :   -0.044891
  10 H :    0.023096
  11 H :    0.023534
  12 C :   -0.060318
  13 H :    0.032135
  14 H :    0.016892
  15 H :    0.029009
  16 S :    0.404869
  17 C :   -0.197064
  18 C :   -0.062089
  19 C :   -0.049259
  20 C :   -0.206044
  21 H :    0.014608
  22 C :   -0.032657
  23 H :    0.030448
  24 H :    0.031960
  25 C :   -0.031523
  26 H :    0.018024
  27 H :    0.022545
  28 C :   -0.064327
  29 H :    0.026585
  30 H :    0.006000
  31 H :    0.022424
  32 H :    0.028575
  33 H :    0.034552

  Mayer bond orders larger than 0.100000
B(  0-S ,  1-C ) :   1.1454 B(  0-S ,  4-C ) :   1.1071 B(  1-C ,  2-C ) :   1.6424
B(  1-C , 32-H ) :   0.9602 B(  2-C ,  3-C ) :   1.1844 B(  2-C ,  6-C ) :   1.0034
B(  3-C ,  4-C ) :   1.6229 B(  3-C ,  5-H ) :   0.9754 B(  4-C , 20-C ) :   1.0500
B(  6-C ,  7-H ) :   0.9412 B(  6-C ,  8-H ) :   0.9408 B(  6-C ,  9-C ) :   1.0698
B(  9-C , 10-H ) :   0.9509 B(  9-C , 11-H ) :   0.9521 B(  9-C , 12-C ) :   1.0669
B( 12-C , 13-H ) :   0.9756 B( 12-C , 14-H ) :   0.9761 B( 12-C , 15-H ) :   0.9749
B( 16-S , 17-C ) :   1.1649 B( 16-S , 20-C ) :   1.1454 B( 17-C , 18-C ) :   1.5947
B( 17-C , 33-H ) :   0.9647 B( 18-C , 19-C ) :   1.2311 B( 18-C , 21-H ) :   1.0055
B( 19-C , 20-C ) :   1.5861 B( 19-C , 22-C ) :   1.0401 B( 22-C , 23-H ) :   0.9303
B( 22-C , 24-H ) :   0.9294 B( 22-C , 25-C ) :   1.0695 B( 25-C , 26-H ) :   0.9514
B( 25-C , 27-H ) :   0.9561 B( 25-C , 28-C ) :   1.0810 B( 28-C , 29-H ) :   0.9728
B( 28-C , 30-H ) :   0.9730 B( 28-C , 31-H ) :   0.9707

Dispersion correction           -0.016194835
FINAL SINGLE POINT ENERGY     -1339.847796335945

DIPOLE MOMENT
-------------
                                X             Y             Z
Electronic contribution:      5.14607       0.09501      25.11394
Nuclear contribution   :     -5.22967      -0.33262     -25.61167
                        -----------------------------------------
Total Dipole Moment    :     -0.08360      -0.23761      -0.49773
                        -----------------------------------------
Magnitude (a.u.)       :      0.55783
Magnitude (Debye)      :      1.41790

Rotational constants in cm-1:     0.019099     0.009221     0.008386
Rotational constants in MHz :   572.576300   276.446973   251.398413

                             ****ORCA TERMINATED NORMALLY****
TOTAL RUN TIME: 0 days 0 hours 0 minutes 37 seconds 409 msec
