                         Program Version 4.2.1 -  RELEASE  -
|  1> ! wB97X-D3 SP def2-SVP
|  2> %pal
|  3> nprocs 16
|  4> end
|  5>
|  6> * xyz 0 1
|  7> S 	 8.32358 	 -9.16963 	 69.0993
|  8> C 	 6.73037 	 -8.51492 	 69.3088
|  9> C 	 5.8393 	 -9.45696 	 69.8408
| 10> C 	 6.45787 	 -10.7142 	 69.9936
| 11> C 	 7.7637 	 -10.7422 	 69.5155
| 12> H 	 5.9809 	 -11.5952 	 70.3696
| 13> C 	 4.34763 	 -9.25734 	 69.9359
| 14> H 	 4.1023 	 -8.12349 	 70.0135
| 15> H 	 4.03985 	 -9.65317 	 70.9032
| 16> C 	 3.55361 	 -9.91549 	 68.7882
| 17> H 	 3.78012 	 -10.9636 	 68.8003
| 18> H 	 2.51931 	 -9.86906 	 69.0994
| 19> C 	 3.86867 	 -9.38012 	 67.2853
| 20> H 	 4.66707 	 -9.96519 	 66.8175
| 21> H 	 3.01289 	 -9.63334 	 66.5908
| 22> H 	 4.05794 	 -8.32065 	 67.1842
| 23> S 	 10.4326 	 -11.2572 	 69.7732
| 24> C 	 10.929 	 -12.8927 	 69.8244
| 25> C 	 9.90857 	 -13.7791 	 69.5857
| 26> C 	 8.60566 	 -13.1891 	 69.4383
| 27> C 	 8.70732 	 -11.7994 	 69.5114
| 28> H 	 10.1548 	 -14.8401 	 69.6353
| 29> C 	 7.46547 	 -14.1118 	 69.1217
| 30> H 	 6.58398 	 -13.7228 	 69.6341
| 31> H 	 7.61686 	 -15.0823 	 69.6009
| 32> C 	 7.08708 	 -14.3401 	 67.6516
| 33> H 	 6.96522 	 -13.3895 	 67.1355
| 34> H 	 6.18886 	 -14.8759 	 67.6676
| 35> C 	 8.13215 	 -15.1516 	 66.9638
| 36> H 	 9.01131 	 -14.6203 	 66.7958
| 37> H 	 7.79207 	 -15.4046 	 65.9237
| 38> H 	 8.36962 	 -16.1217 	 67.4891
| 39> H 	 6.45349 	 -7.53039 	 68.9938
| 40> H 	 11.9107 	 -13.173 	 70.1175
| 41> *
| 42>
| 43>                          ****END OF INPUT****

CARTESIAN COORDINATES (ANGSTROEM)
---------------------------------
  S      8.323580   -9.169630   69.099300
  C      6.730370   -8.514920   69.308800
  C      5.839300   -9.456960   69.840800
  C      6.457870  -10.714200   69.993600
  C      7.763700  -10.742200   69.515500
  H      5.980900  -11.595200   70.369600
  C      4.347630   -9.257340   69.935900
  H      4.102300   -8.123490   70.013500
  H      4.039850   -9.653170   70.903200
  C      3.553610   -9.915490   68.788200
  H      3.780120  -10.963600   68.800300
  H      2.519310   -9.869060   69.099400
  C      3.868670   -9.380120   67.285300
  H      4.667070   -9.965190   66.817500
  H      3.012890   -9.633340   66.590800
  H      4.057940   -8.320650   67.184200
  S     10.432600  -11.257200   69.773200
  C     10.929000  -12.892700   69.824400
  C      9.908570  -13.779100   69.585700
  C      8.605660  -13.189100   69.438300
  C      8.707320  -11.799400   69.511400
  H     10.154800  -14.840100   69.635300
  C      7.465470  -14.111800   69.121700
  H      6.583980  -13.722800   69.634100
  H      7.616860  -15.082300   69.600900
  C      7.087080  -14.340100   67.651600
  H      6.965220  -13.389500   67.135500
  H      6.188860  -14.875900   67.667600
  C      8.132150  -15.151600   66.963800
  H      9.011310  -14.620300   66.795800
  H      7.792070  -15.404600   65.923700
  H      8.369620  -16.121700   67.489100
  H      6.453490   -7.530390   68.993800
  H     11.910700  -13.173000   70.117500

 Total Charge           Charge          ....    0
 Multiplicity           Mult            ....    1
 Number of Electrons    NEL             ....  134
 Basis Dimension        Dim             ....  322

ORBITAL ENERGIES
----------------

  NO   OCC          E(Eh)            E(eV)
   0   2.0000     -88.965028     -2420.8615
   1   2.0000     -88.964259     -2420.8406
   2   2.0000     -10.330693      -281.1124
   3   2.0000     -10.324488      -280.9436
   4   2.0000     -10.310448      -280.5616
   5   2.0000     -10.309252      -280.5290
   6   2.0000     -10.306551      -280.4555
   7   2.0000     -10.298995      -280.2499
   8   2.0000     -10.298207      -280.2285
   9   2.0000     -10.292955      -280.0855
  10   2.0000     -10.292377      -280.0698
  11   2.0000     -10.290771      -280.0261
  12   2.0000     -10.290075      -280.0072
  13   2.0000     -10.286958      -279.9224
  14   2.0000     -10.280578      -279.7488
  15   2.0000     -10.273659      -279.5605
  16   2.0000      -8.080726      -219.8877
  17   2.0000      -8.079045      -219.8420
  18   2.0000      -6.039134      -164.3332
  19   2.0000      -6.037594      -164.2913
  20   2.0000      -6.035157      -164.2250
  21   2.0000      -6.033698      -164.1853
  22   2.0000      -6.031498      -164.1254
  23   2.0000      -6.029603      -164.0738
  24   2.0000      -1.010572       -27.4991
  25   2.0000      -0.982853       -26.7448
  26   2.0000      -0.917741       -24.9730
  27   2.0000      -0.907241       -24.6873
  28   2.0000      -0.867213       -23.5981
  29   2.0000      -0.855849       -23.2888
  30   2.0000      -0.841770       -22.9057
  31   2.0000      -0.807367       -21.9696
  32   2.0000      -0.786593       -21.4043
  33   2.0000      -0.774232       -21.0679
  34   2.0000      -0.715305       -19.4644
  35   2.0000      -0.703413       -19.1409
  36   2.0000      -0.691073       -18.8050
  37   2.0000      -0.662452       -18.0262
  38   2.0000      -0.637471       -17.3465
  39   2.0000      -0.621971       -16.9247
  40   2.0000      -0.599012       -16.2999
  41   2.0000      -0.562972       -15.3192
  42   2.0000      -0.559747       -15.2315
  43   2.0000      -0.549431       -14.9508
  44   2.0000      -0.541321       -14.7301
  45   2.0000      -0.533869       -14.5273
  46   2.0000      -0.515499       -14.0274
  47   2.0000      -0.512042       -13.9334
  48   2.0000      -0.502020       -13.6607
  49   2.0000      -0.490026       -13.3343
  50   2.0000      -0.486857       -13.2480
  51   2.0000      -0.484563       -13.1856
  52   2.0000      -0.474254       -12.9051
  53   2.0000      -0.464958       -12.6522
  54   2.0000      -0.455922       -12.4063
  55   2.0000      -0.454757       -12.3746
  56   2.0000      -0.441732       -12.0202
  57   2.0000      -0.439240       -11.9523
  58   2.0000      -0.430493       -11.7143
  59   2.0000      -0.425386       -11.5754
  60   2.0000      -0.422158       -11.4875
  61   2.0000      -0.418756       -11.3949
  62   2.0000      -0.413527       -11.2527
  63   2.0000      -0.358873        -9.7654
  64   2.0000      -0.335879        -9.1397
  65   2.0000      -0.328850        -8.9485
  66   2.0000      -0.275186        -7.4882
  67   0.0000       0.019569         0.5325
  68   0.0000       0.071869         1.9556
  69   0.0000       0.099698         2.7129
  70   0.0000       0.118139         3.2147
  71   0.0000       0.130621         3.5544

MULLIKEN ATOMIC CHARGES
-----------------------
   0 S :    0.099730
   1 C :   -0.105547
   2 C :   -0.065272
   3 C :    0.001346
   4 C :   -0.121672
   5 H :    0.000139
   6 C :    0.021911
   7 H :    0.035498
   8 H :    0.026193
   9 C :   -0.042425
  10 H :    0.019820
  11 H :    0.032443
  12 C :   -0.078423
  13 H :    0.045016
  14 H :    0.037061
  15 H :    0.039175
  16 S :    0.085372
  17 C :   -0.070182
  18 C :   -0.045752
  19 C :   -0.038595
  20 C :   -0.130789
  21 H :    0.018719
  22 C :    0.049381
  23 H :    0.009831
  24 H :    0.019222
  25 C :   -0.001796
  26 H :    0.034743
  27 H :    0.018102
  28 C :   -0.059197
  29 H :    0.029366
  30 H :    0.029497
  31 H :    0.027584
  32 H :    0.035728
  33 H :    0.043774
Sum of atomic charges:   -0.0000000

LOEWDIN ATOMIC CHARGES
----------------------
   0 S :    0.420559
   1 C :   -0.200224
   2 C :   -0.063012
   3 C :   -0.065857
   4 C :   -0.196198
   5 H :    0.025207
   6 C :   -0.037684
   7 H :    0.036334
   8 H :    0.030206
   9 C :   -0.034639
  10 H :    0.020730
  11 H :    0.023512
  12 C :   -0.072468
  13 H :    0.030526
  14 H :    0.033866
  15 H :    0.021676
  16 S :    0.381458
  17 C :   -0.188576
  18 C :   -0.074029
  19 C :   -0.053766
  20 C :   -0.168390
  21 H :    0.031767
  22 C :   -0.031980
  23 H :    0.026471
  24 H :    0.031689
  25 C :   -0.028576
  26 H :    0.030506
  27 H :    0.019312
  28 C :   -0.065825
  29 H :    0.016997
  30 H :    0.030045
  31 H :    0.027315
  32 H :    0.020484
  33 H :    0.022567

  Mayer bond orders larger than 0.100000
B(  0-S ,  1-C ) :   1.1419 B(  0-S ,  4-C ) :   1.1570 B(  1-C ,  2-C ) :   1.5864
B(  1-C ,  4-C ) :   0.1021 B(  1-C , 32-H ) :   0.9725 B(  2-C ,  3-C ) :   1.2580
B(  2-C ,  6-C ) :   1.0318 B(  3-C ,  4-C ) :   1.5357 B(  3-C ,  5-H ) :   0.9966
B(  4-C , 20-C ) :   1.1036 B(  6-C ,  7-H ) :   0.9453 B(  6-C ,  8-H ) :   0.9343
B(  6-C ,  9-C ) :   1.0739 B(  9-C , 10-H ) :   0.9555 B(  9-C , 11-H ) :   0.9617
B(  9-C , 12-C ) :   1.0473 B( 12-C , 13-H ) :   0.9781 B( 12-C , 14-H ) :   0.9768
B( 12-C , 15-H ) :   0.9824 B( 16-S , 17-C ) :   1.1497 B( 16-S , 20-C ) :   1.1148
B( 17-C , 18-C ) :   1.6293 B( 17-C , 33-H ) :   0.9692 B( 18-C , 19-C ) :   1.2122
B( 18-C , 21-H ) :   0.9877 B( 19-C , 20-C ) :   1.6065 B( 19-C , 22-C ) :   1.0502
B( 22-C , 23-H ) :   0.9243 B( 22-C , 24-H ) :   0.9296 B( 22-C , 25-C ) :   1.0832
B( 25-C , 26-H ) :   0.9496 B( 25-C , 27-H ) :   0.9494 B( 25-C , 28-C ) :   1.0949
B( 28-C , 29-H ) :   0.9728 B( 28-C , 30-H ) :   0.9690 B( 28-C , 31-H ) :   0.9712

Dispersion correction           -0.014856064
FINAL SINGLE POINT ENERGY     -1339.880407360316

DIPOLE MOMENT
-------------
                                X             Y             Z
Electronic contribution:     22.13004      11.92952      10.46849
Nuclear contribution   :    -22.64766     -12.41005     -10.55518
                        -----------------------------------------
Total Dipole Moment    :     -0.51762      -0.48053      -0.08669
                        -----------------------------------------
Magnitude (a.u.)       :      0.71158
Magnitude (Debye)      :      1.80870

Rotational constants in cm-1:     0.019261     0.009525     0.007092
Rotational constants in MHz :   577.425093   285.540849   212.612132

                             ****ORCA TERMINATED NORMALLY****
TOTAL RUN TIME: 0 days 0 hours 0 minutes 31 seconds 512 msec
