                         Program Version 4.2.1 -  RELEASE  -
|  1> ! wB97X-D3 SP def2-SVP
|  2> %pal
|  3> nprocs 16
|  4> end
|  5>
|  6> * xyz 0 1
|  7> S 	 -0.558631 	 -9.73452 	 90.3966
|  8> C 	 -0.59519 	 -10.374 	 92.0201
|  9> C 	 -1.84438 	 -10.4641 	 92.5551
| 10> C 	 -2.80078 	 -10.0246 	 91.5712
| 11> C 	 -2.29864 	 -9.72379 	 90.3227
| 12> H 	 -3.83829 	 -10.1437 	 91.7478
| 13> C 	 -2.24 	 -10.9448 	 93.9524
| 14> H 	 -3.32221 	 -10.7516 	 94.1902
| 15> H 	 -1.59388 	 -10.4168 	 94.6729
| 16> C 	 -2.09715 	 -12.4931 	 94.2079
| 17> H 	 -1.12616 	 -12.8949 	 93.8157
| 18> H 	 -2.11267 	 -12.6365 	 95.265
| 19> C 	 -3.19546 	 -13.3517 	 93.6312
| 20> H 	 -4.17002 	 -13.0334 	 94.047
| 21> H 	 -3.27437 	 -13.2602 	 92.504
| 22> H 	 -2.97526 	 -14.4023 	 93.9026
| 23> S 	 -2.58975 	 -7.64983 	 88.4658
| 24> C 	 -3.99796 	 -7.56946 	 87.3981
| 25> C 	 -4.85548 	 -8.69336 	 87.5852
| 26> C 	 -4.32282 	 -9.58547 	 88.5465
| 27> C 	 -3.11111 	 -9.16299 	 89.1809
| 28> H 	 -5.7541 	 -8.73271 	 87.0163
| 29> C 	 -5.00343 	 -10.8813 	 88.9481
| 30> H 	 -6.03213 	 -10.9201 	 88.5751
| 31> H 	 -5.20772 	 -10.9082 	 90.0527
| 32> C 	 -4.22569 	 -12.1687 	 88.6397
| 33> H 	 -3.20856 	 -11.9773 	 88.6816
| 34> H 	 -4.3915 	 -12.3128 	 87.5751
| 35> C 	 -4.73521 	 -13.4031 	 89.4419
| 36> H 	 -5.80012 	 -13.6681 	 89.2255
| 37> H 	 -4.71417 	 -13.2165 	 90.4788
| 38> H 	 -4.18622 	 -14.3454 	 89.2149
| 39> H 	 0.310381 	 -10.6771 	 92.5112
| 40> H 	 -4.27197 	 -6.73472 	 86.871
| 41> *
| 42>
| 43>                          ****END OF INPUT****

CARTESIAN COORDINATES (ANGSTROEM)
---------------------------------
  S     -0.558631   -9.734520   90.396600
  C     -0.595190  -10.374000   92.020100
  C     -1.844380  -10.464100   92.555100
  C     -2.800780  -10.024600   91.571200
  C     -2.298640   -9.723790   90.322700
  H     -3.838290  -10.143700   91.747800
  C     -2.240000  -10.944800   93.952400
  H     -3.322210  -10.751600   94.190200
  H     -1.593880  -10.416800   94.672900
  C     -2.097150  -12.493100   94.207900
  H     -1.126160  -12.894900   93.815700
  H     -2.112670  -12.636500   95.265000
  C     -3.195460  -13.351700   93.631200
  H     -4.170020  -13.033400   94.047000
  H     -3.274370  -13.260200   92.504000
  H     -2.975260  -14.402300   93.902600
  S     -2.589750   -7.649830   88.465800
  C     -3.997960   -7.569460   87.398100
  C     -4.855480   -8.693360   87.585200
  C     -4.322820   -9.585470   88.546500
  C     -3.111110   -9.162990   89.180900
  H     -5.754100   -8.732710   87.016300
  C     -5.003430  -10.881300   88.948100
  H     -6.032130  -10.920100   88.575100
  H     -5.207720  -10.908200   90.052700
  C     -4.225690  -12.168700   88.639700
  H     -3.208560  -11.977300   88.681600
  H     -4.391500  -12.312800   87.575100
  C     -4.735210  -13.403100   89.441900
  H     -5.800120  -13.668100   89.225500
  H     -4.714170  -13.216500   90.478800
  H     -4.186220  -14.345400   89.214900
  H      0.310381  -10.677100   92.511200
  H     -4.271970   -6.734720   86.871000

 Total Charge           Charge          ....    0
 Multiplicity           Mult            ....    1
 Number of Electrons    NEL             ....  134
 Basis Dimension        Dim             ....  322

ORBITAL ENERGIES
----------------

  NO   OCC          E(Eh)            E(eV)
   0   2.0000     -88.969551     -2420.9846
   1   2.0000     -88.969326     -2420.9784
   2   2.0000     -10.336125      -281.2603
   3   2.0000     -10.335089      -281.2321
   4   2.0000     -10.317232      -280.7462
   5   2.0000     -10.313442      -280.6430
   6   2.0000     -10.308942      -280.5206
   7   2.0000     -10.304544      -280.4009
   8   2.0000     -10.303037      -280.3599
   9   2.0000     -10.299384      -280.2605
  10   2.0000     -10.291632      -280.0495
  11   2.0000     -10.290287      -280.0129
  12   2.0000     -10.290011      -280.0054
  13   2.0000     -10.285200      -279.8745
  14   2.0000     -10.279997      -279.7329
  15   2.0000     -10.277225      -279.6575
  16   2.0000      -8.084257      -219.9838
  17   2.0000      -8.083500      -219.9632
  18   2.0000      -6.042818      -164.4334
  19   2.0000      -6.041912      -164.4088
  20   2.0000      -6.038763      -164.3231
  21   2.0000      -6.037857      -164.2984
  22   2.0000      -6.034938      -164.2190
  23   2.0000      -6.034683      -164.2121
  24   2.0000      -1.004716       -27.3397
  25   2.0000      -0.981546       -26.7092
  26   2.0000      -0.909312       -24.7436
  27   2.0000      -0.903608       -24.5884
  28   2.0000      -0.866692       -23.5839
  29   2.0000      -0.849420       -23.1139
  30   2.0000      -0.845475       -23.0065
  31   2.0000      -0.814078       -22.1522
  32   2.0000      -0.781090       -21.2545
  33   2.0000      -0.769653       -20.9433
  34   2.0000      -0.708956       -19.2917
  35   2.0000      -0.697472       -18.9792
  36   2.0000      -0.691258       -18.8101
  37   2.0000      -0.666209       -18.1285
  38   2.0000      -0.643491       -17.5103
  39   2.0000      -0.618613       -16.8333
  40   2.0000      -0.593580       -16.1521
  41   2.0000      -0.578798       -15.7499
  42   2.0000      -0.559396       -15.2220
  43   2.0000      -0.551783       -15.0148
  44   2.0000      -0.541633       -14.7386
  45   2.0000      -0.515794       -14.0355
  46   2.0000      -0.512318       -13.9409
  47   2.0000      -0.510591       -13.8939
  48   2.0000      -0.505041       -13.7429
  49   2.0000      -0.497562       -13.5393
  50   2.0000      -0.491766       -13.3816
  51   2.0000      -0.477719       -12.9994
  52   2.0000      -0.470893       -12.8137
  53   2.0000      -0.467402       -12.7187
  54   2.0000      -0.461724       -12.5641
  55   2.0000      -0.446305       -12.1446
  56   2.0000      -0.440201       -11.9785
  57   2.0000      -0.438191       -11.9238
  58   2.0000      -0.433661       -11.8005
  59   2.0000      -0.427457       -11.6317
  60   2.0000      -0.423032       -11.5113
  61   2.0000      -0.420131       -11.4324
  62   2.0000      -0.408316       -11.1108
  63   2.0000      -0.348224        -9.4757
  64   2.0000      -0.333594        -9.0776
  65   2.0000      -0.331157        -9.0112
  66   2.0000      -0.289475        -7.8770
  67   0.0000       0.026567         0.7229
  68   0.0000       0.063825         1.7368
  69   0.0000       0.107878         2.9355
  70   0.0000       0.121210         3.2983
  71   0.0000       0.126835         3.4514

MULLIKEN ATOMIC CHARGES
-----------------------
   0 S :    0.112277
   1 C :   -0.131281
   2 C :   -0.064216
   3 C :    0.037168
   4 C :   -0.138823
   5 H :   -0.005047
   6 C :    0.055459
   7 H :    0.029569
   8 H :    0.042549
   9 C :   -0.073923
  10 H :    0.030981
  11 H :    0.025899
  12 C :   -0.084554
  13 H :    0.026525
  14 H :    0.054468
  15 H :    0.045509
  16 S :    0.108245
  17 C :   -0.081193
  18 C :   -0.027992
  19 C :   -0.025693
  20 C :   -0.144125
  21 H :    0.017042
  22 C :    0.025166
  23 H :    0.012763
  24 H :    0.020423
  25 C :   -0.023304
  26 H :    0.025186
  27 H :    0.019989
  28 C :   -0.055375
  29 H :    0.027539
  30 H :    0.022872
  31 H :    0.042422
  32 H :    0.041034
  33 H :    0.032440
Sum of atomic charges:   -0.0000000

LOEWDIN ATOMIC CHARGES
----------------------
   0 S :    0.409981
   1 C :   -0.187861
   2 C :   -0.066052
   3 C :   -0.055917
   4 C :   -0.201061
   5 H :    0.020708
   6 C :   -0.030207
   7 H :    0.035056
   8 H :    0.036479
   9 C :   -0.042467
  10 H :    0.025793
  11 H :    0.020139
  12 C :   -0.072800
  13 H :    0.021851
  14 H :    0.030859
  15 H :    0.031972
  16 S :    0.411774
  17 C :   -0.172563
  18 C :   -0.061180
  19 C :   -0.058703
  20 C :   -0.196245
  21 H :    0.031600
  22 C :   -0.038199
  23 H :    0.026672
  24 H :    0.027982
  25 C :   -0.033331
  26 H :    0.016336
  27 H :    0.025801
  28 C :   -0.065657
  29 H :    0.029552
  30 H :    0.013657
  31 H :    0.032578
  32 H :    0.023248
  33 H :    0.010204

  Mayer bond orders larger than 0.100000
B(  0-S ,  1-C ) :   1.1468 B(  0-S ,  4-C ) :   1.1450 B(  1-C ,  2-C ) :   1.6140
B(  1-C , 32-H ) :   0.9673 B(  2-C ,  3-C ) :   1.2541 B(  2-C ,  6-C ) :   1.0164
B(  3-C ,  4-C ) :   1.5734 B(  3-C ,  5-H ) :   0.9927 B(  4-C , 20-C ) :   1.0231
B(  6-C ,  7-H ) :   0.9459 B(  6-C ,  8-H ) :   0.9396 B(  6-C ,  9-C ) :   1.0634
B(  9-C , 10-H ) :   0.9568 B(  9-C , 11-H ) :   0.9551 B(  9-C , 12-C ) :   1.0838
B( 12-C , 13-H ) :   0.9723 B( 12-C , 14-H ) :   0.9732 B( 12-C , 15-H ) :   0.9700
B( 16-S , 17-C ) :   1.1789 B( 16-S , 20-C ) :   1.1609 B( 17-C , 18-C ) :   1.5561
B( 17-C , 20-C ) :   0.1151 B( 17-C , 33-H ) :   0.9764 B( 18-C , 19-C ) :   1.2863
B( 18-C , 21-H ) :   0.9985 B( 19-C , 20-C ) :   1.5408 B( 19-C , 22-C ) :   1.0413
B( 22-C , 23-H ) :   0.9339 B( 22-C , 24-H ) :   0.9439 B( 22-C , 25-C ) :   1.0417
B( 25-C , 26-H ) :   0.9646 B( 25-C , 27-H ) :   0.9498 B( 25-C , 28-C ) :   1.0707
B( 28-C , 29-H ) :   0.9716 B( 28-C , 30-H ) :   0.9753 B( 28-C , 31-H ) :   0.9758

Dispersion correction           -0.015198272
FINAL SINGLE POINT ENERGY     -1339.881271206561

DIPOLE MOMENT
-------------
                                X             Y             Z
Electronic contribution:     13.29155      25.21671     -13.32300
Nuclear contribution   :    -13.70112     -25.58696      13.73668
                        -----------------------------------------
Total Dipole Moment    :     -0.40956      -0.37025       0.41368
                        -----------------------------------------
Magnitude (a.u.)       :      0.68990
Magnitude (Debye)      :      1.75358

Rotational constants in cm-1:     0.019285     0.009470     0.007112
Rotational constants in MHz :   578.143079   283.914402   213.214529

                             ****ORCA TERMINATED NORMALLY****
TOTAL RUN TIME: 0 days 0 hours 0 minutes 36 seconds 783 msec
