                         Program Version 4.2.1 -  RELEASE  -
|  1> ! wB97X-D3 SP def2-SVP
|  2> %pal
|  3> nprocs 16
|  4> end
|  5>
|  6> * xyz 0 1
|  7> S 	 -98.1916 	 37.1359 	 122.75
|  8> C 	 -97.2319 	 36.3465 	 123.988
|  9> C 	 -96.3629 	 37.176 	 124.652
| 10> C 	 -96.4867 	 38.5126 	 124.16
| 11> C 	 -97.4551 	 38.6883 	 123.192
| 12> H 	 -95.9889 	 39.4662 	 124.523
| 13> C 	 -95.3627 	 36.7755 	 125.819
| 14> H 	 -94.6376 	 37.5377 	 125.897
| 15> H 	 -94.7911 	 35.9401 	 125.486
| 16> C 	 -95.9825 	 36.6349 	 127.207
| 17> H 	 -96.3039 	 37.5873 	 127.612
| 18> H 	 -96.8782 	 36.0088 	 127.204
| 19> C 	 -94.9073 	 36.2563 	 128.282
| 20> H 	 -94.5316 	 35.2714 	 128.105
| 21> H 	 -94.1393 	 36.9929 	 128.094
| 22> H 	 -95.2298 	 36.3982 	 129.348
| 23> S 	 -98.4094 	 40.0683 	 121.068
| 24> C 	 -98.7916 	 41.7606 	 121.154
| 25> C 	 -98.4498 	 42.3147 	 122.396
| 26> C 	 -97.9329 	 41.2482 	 123.247
| 27> C 	 -97.9022 	 39.9869 	 122.721
| 28> H 	 -98.703 	 43.256 	 122.683
| 29> C 	 -97.7328 	 41.6345 	 124.653
| 30> H 	 -96.7288 	 42.06 	 124.764
| 31> H 	 -97.8316 	 40.7155 	 125.258
| 32> C 	 -98.8377 	 42.6006 	 125.202
| 33> H 	 -98.8341 	 43.5838 	 124.799
| 34> H 	 -98.6092 	 42.6662 	 126.246
| 35> C 	 -100.25 	 42.0406 	 125.009
| 36> H 	 -100.935 	 42.3647 	 125.769
| 37> H 	 -100.27 	 40.9316 	 125.071
| 38> H 	 -100.673 	 42.3215 	 124.008
| 39> H 	 -97.3393 	 35.3012 	 124.274
| 40> H 	 -99.2241 	 42.3288 	 120.334
| 41> *
| 42>
| 43>                          ****END OF INPUT****

CARTESIAN COORDINATES (ANGSTROEM)
---------------------------------
  S    -98.191600   37.135900  122.750000
  C    -97.231900   36.346500  123.988000
  C    -96.362900   37.176000  124.652000
  C    -96.486700   38.512600  124.160000
  C    -97.455100   38.688300  123.192000
  H    -95.988900   39.466200  124.523000
  C    -95.362700   36.775500  125.819000
  H    -94.637600   37.537700  125.897000
  H    -94.791100   35.940100  125.486000
  C    -95.982500   36.634900  127.207000
  H    -96.303900   37.587300  127.612000
  H    -96.878200   36.008800  127.204000
  C    -94.907300   36.256300  128.282000
  H    -94.531600   35.271400  128.105000
  H    -94.139300   36.992900  128.094000
  H    -95.229800   36.398200  129.348000
  S    -98.409400   40.068300  121.068000
  C    -98.791600   41.760600  121.154000
  C    -98.449800   42.314700  122.396000
  C    -97.932900   41.248200  123.247000
  C    -97.902200   39.986900  122.721000
  H    -98.703000   43.256000  122.683000
  C    -97.732800   41.634500  124.653000
  H    -96.728800   42.060000  124.764000
  H    -97.831600   40.715500  125.258000
  C    -98.837700   42.600600  125.202000
  H    -98.834100   43.583800  124.799000
  H    -98.609200   42.666200  126.246000
  C    -100.250000   42.040600  125.009000
  H    -100.935000   42.364700  125.769000
  H    -100.270000   40.931600  125.071000
  H    -100.673000   42.321500  124.008000
  H    -97.339300   35.301200  124.274000
  H    -99.224100   42.328800  120.334000

 Total Charge           Charge          ....    0
 Multiplicity           Mult            ....    1
 Number of Electrons    NEL             ....  134
 Basis Dimension        Dim             ....  322

ORBITAL ENERGIES
----------------

  NO   OCC          E(Eh)            E(eV)
   0   2.0000     -88.971172     -2421.0287
   1   2.0000     -88.960996     -2420.7518
   2   2.0000     -10.330787      -281.1150
   3   2.0000     -10.322970      -280.9023
   4   2.0000     -10.319847      -280.8173
   5   2.0000     -10.316211      -280.7184
   6   2.0000     -10.306800      -280.4623
   7   2.0000     -10.298528      -280.2372
   8   2.0000     -10.297800      -280.2174
   9   2.0000     -10.295257      -280.1482
  10   2.0000     -10.291003      -280.0324
  11   2.0000     -10.289133      -279.9816
  12   2.0000     -10.289016      -279.9783
  13   2.0000     -10.283517      -279.8287
  14   2.0000     -10.282541      -279.8022
  15   2.0000     -10.276094      -279.6267
  16   2.0000      -8.085229      -220.0103
  17   2.0000      -8.076690      -219.7779
  18   2.0000      -6.043848      -164.4615
  19   2.0000      -6.039939      -164.3551
  20   2.0000      -6.035804      -164.2426
  21   2.0000      -6.035240      -164.2272
  22   2.0000      -6.030998      -164.1118
  23   2.0000      -6.027434      -164.0148
  24   2.0000      -1.008600       -27.4454
  25   2.0000      -0.984354       -26.7856
  26   2.0000      -0.912865       -24.8403
  27   2.0000      -0.908811       -24.7300
  28   2.0000      -0.872394       -23.7391
  29   2.0000      -0.850795       -23.1513
  30   2.0000      -0.841367       -22.8947
  31   2.0000      -0.814367       -22.1601
  32   2.0000      -0.782834       -21.3020
  33   2.0000      -0.771716       -20.9995
  34   2.0000      -0.708944       -19.2914
  35   2.0000      -0.703848       -19.1527
  36   2.0000      -0.693748       -18.8778
  37   2.0000      -0.669195       -18.2097
  38   2.0000      -0.639396       -17.3988
  39   2.0000      -0.615353       -16.7446
  40   2.0000      -0.596623       -16.2349
  41   2.0000      -0.574867       -15.6429
  42   2.0000      -0.564430       -15.3589
  43   2.0000      -0.559752       -15.2316
  44   2.0000      -0.534874       -14.5547
  45   2.0000      -0.526364       -14.3231
  46   2.0000      -0.523060       -14.2332
  47   2.0000      -0.507170       -13.8008
  48   2.0000      -0.502262       -13.6672
  49   2.0000      -0.498641       -13.5687
  50   2.0000      -0.491326       -13.3697
  51   2.0000      -0.481019       -13.0892
  52   2.0000      -0.470912       -12.8142
  53   2.0000      -0.464205       -12.6317
  54   2.0000      -0.453975       -12.3533
  55   2.0000      -0.448560       -12.2059
  56   2.0000      -0.443748       -12.0750
  57   2.0000      -0.440505       -11.9867
  58   2.0000      -0.437835       -11.9141
  59   2.0000      -0.428640       -11.6639
  60   2.0000      -0.419120       -11.4048
  61   2.0000      -0.415847       -11.3158
  62   2.0000      -0.410444       -11.1688
  63   2.0000      -0.357464        -9.7271
  64   2.0000      -0.337133        -9.1739
  65   2.0000      -0.325483        -8.8568
  66   2.0000      -0.287126        -7.8131
  67   0.0000       0.026863         0.7310
  68   0.0000       0.077469         2.1081
  69   0.0000       0.104632         2.8472
  70   0.0000       0.122604         3.3362
  71   0.0000       0.136631         3.7179

MULLIKEN ATOMIC CHARGES
-----------------------
   0 S :    0.119863
   1 C :   -0.124753
   2 C :   -0.082964
   3 C :   -0.024013
   4 C :   -0.118960
   5 H :    0.037650
   6 C :    0.103868
   7 H :   -0.001012
   8 H :    0.026563
   9 C :   -0.068105
  10 H :    0.021744
  11 H :    0.031034
  12 C :   -0.055787
  13 H :    0.032439
  14 H :    0.021717
  15 H :    0.048804
  16 S :    0.088898
  17 C :   -0.087446
  18 C :    0.016196
  19 C :   -0.088344
  20 C :   -0.125055
  21 H :   -0.019609
  22 C :    0.030645
  23 H :    0.043538
  24 H :    0.035486
  25 C :   -0.070015
  26 H :    0.026275
  27 H :    0.024210
  28 C :   -0.059055
  29 H :    0.031899
  30 H :    0.035064
  31 H :    0.039811
  32 H :    0.048206
  33 H :    0.061207
Sum of atomic charges:    0.0000000

LOEWDIN ATOMIC CHARGES
----------------------
   0 S :    0.393629
   1 C :   -0.192104
   2 C :   -0.061132
   3 C :   -0.069873
   4 C :   -0.189934
   5 H :    0.043670
   6 C :   -0.020288
   7 H :    0.023397
   8 H :    0.028107
   9 C :   -0.038902
  10 H :    0.024502
  11 H :    0.019681
  12 C :   -0.062301
  13 H :    0.017993
  14 H :    0.023011
  15 H :    0.033211
  16 S :    0.410263
  17 C :   -0.179457
  18 C :   -0.053229
  19 C :   -0.063251
  20 C :   -0.204082
  21 H :    0.013341
  22 C :   -0.037169
  23 H :    0.032746
  24 H :    0.031782
  25 C :   -0.036749
  26 H :    0.015909
  27 H :    0.023459
  28 C :   -0.069000
  29 H :    0.022694
  30 H :    0.030095
  31 H :    0.030387
  32 H :    0.030007
  33 H :    0.029589

  Mayer bond orders larger than 0.100000
B(  0-S ,  1-C ) :   1.1322 B(  0-S ,  4-C ) :   1.1287 B(  1-C ,  2-C ) :   1.6424
B(  1-C , 32-H ) :   0.9647 B(  2-C ,  3-C ) :   1.2315 B(  2-C ,  6-C ) :   1.0031
B(  3-C ,  4-C ) :   1.5961 B(  3-C ,  5-H ) :   0.9812 B(  4-C , 20-C ) :   1.0523
B(  6-C ,  7-H ) :   0.9360 B(  6-C ,  8-H ) :   0.9460 B(  6-C ,  9-C ) :   1.0616
B(  9-C , 10-H ) :   0.9570 B(  9-C , 11-H ) :   0.9628 B(  9-C , 12-C ) :   1.0623
B( 12-C , 13-H ) :   0.9799 B( 12-C , 14-H ) :   0.9747 B( 12-C , 15-H ) :   0.9777
B( 16-S , 17-C ) :   1.1713 B( 16-S , 20-C ) :   1.1158 B( 17-C , 18-C ) :   1.5882
B( 17-C , 33-H ) :   0.9666 B( 18-C , 19-C ) :   1.2294 B( 18-C , 21-H ) :   1.0040
B( 19-C , 20-C ) :   1.6199 B( 19-C , 22-C ) :   1.0475 B( 22-C , 23-H ) :   0.9219
B( 22-C , 24-H ) :   0.9423 B( 22-C , 25-C ) :   1.0791 B( 25-C , 26-H ) :   0.9512
B( 25-C , 27-H ) :   0.9545 B( 25-C , 28-C ) :   1.0766 B( 28-C , 29-H ) :   0.9743
B( 28-C , 30-H ) :   0.9748 B( 28-C , 31-H ) :   0.9697

Dispersion correction           -0.014203197
FINAL SINGLE POINT ENERGY     -1339.874726637228

DIPOLE MOMENT
-------------
                                X             Y             Z
Electronic contribution:     -5.20852      -4.22378     -27.75364
Nuclear contribution   :      5.35252       4.51423      28.46022
                        -----------------------------------------
Total Dipole Moment    :      0.14400       0.29045       0.70659
                        -----------------------------------------
Magnitude (a.u.)       :      0.77741
Magnitude (Debye)      :      1.97601

Rotational constants in cm-1:     0.020481     0.008076     0.006368
Rotational constants in MHz :   614.013339   242.113119   190.906763

                             ****ORCA TERMINATED NORMALLY****
TOTAL RUN TIME: 0 days 0 hours 0 minutes 33 seconds 891 msec
