                         Program Version 4.2.1 -  RELEASE  -
|  1> ! wB97X-D3 SP def2-SVP
|  2> %pal
|  3> nprocs 16
|  4> end
|  5>
|  6> * xyz 0 1
|  7> S 	 13.9345 	 1.89535 	 84.1804
|  8> C 	 14.4983 	 2.66956 	 82.7366
|  9> C 	 14.8041 	 4.01161 	 82.9671
| 10> C 	 14.6456 	 4.30816 	 84.376
| 11> C 	 14.259 	 3.22445 	 85.1594
| 12> H 	 14.6928 	 5.24811 	 84.9296
| 13> C 	 15.0306 	 5.03636 	 81.9265
| 14> H 	 14.9551 	 4.51259 	 80.9213
| 15> H 	 16.0678 	 5.41594 	 82.0319
| 16> C 	 14.1121 	 6.2858 	 81.8939
| 17> H 	 14.1106 	 6.7808 	 82.8309
| 18> H 	 14.4411 	 6.99408 	 81.1103
| 19> C 	 12.6232 	 6.02883 	 81.5992
| 20> H 	 12.3362 	 5.20818 	 80.9315
| 21> H 	 12.197 	 5.66515 	 82.559
| 22> H 	 12.0889 	 6.91555 	 81.2721
| 23> S 	 15.3771 	 3.62627 	 87.6005
| 24> C 	 14.547 	 2.87237 	 88.8815
| 25> C 	 13.1918 	 2.69095 	 88.6065
| 26> C 	 12.8501 	 2.9151 	 87.2802
| 27> C 	 13.9861 	 3.25157 	 86.5725
| 28> H 	 12.5563 	 2.2294 	 89.3052
| 29> C 	 11.5237 	 2.58274 	 86.7521
| 30> H 	 11.1747 	 1.54206 	 87.0467
| 31> H 	 11.5831 	 2.7133 	 85.6961
| 32> C 	 10.5492 	 3.75337 	 87.2324
| 33> H 	 10.9447 	 4.65826 	 86.9359
| 34> H 	 10.4056 	 3.85909 	 88.2876
| 35> C 	 9.2161 	 3.67575 	 86.4287
| 36> H 	 8.86105 	 2.58614 	 86.4727
| 37> H 	 9.58544 	 3.87469 	 85.387
| 38> H 	 8.3906 	 4.33586 	 86.6833
| 39> H 	 14.4117 	 2.17376 	 81.7828
| 40> H 	 14.8646 	 2.70226 	 89.8734
| 41> *
| 42>
| 43>                          ****END OF INPUT****

CARTESIAN COORDINATES (ANGSTROEM)
---------------------------------
  S     13.934500    1.895350   84.180400
  C     14.498300    2.669560   82.736600
  C     14.804100    4.011610   82.967100
  C     14.645600    4.308160   84.376000
  C     14.259000    3.224450   85.159400
  H     14.692800    5.248110   84.929600
  C     15.030600    5.036360   81.926500
  H     14.955100    4.512590   80.921300
  H     16.067800    5.415940   82.031900
  C     14.112100    6.285800   81.893900
  H     14.110600    6.780800   82.830900
  H     14.441100    6.994080   81.110300
  C     12.623200    6.028830   81.599200
  H     12.336200    5.208180   80.931500
  H     12.197000    5.665150   82.559000
  H     12.088900    6.915550   81.272100
  S     15.377100    3.626270   87.600500
  C     14.547000    2.872370   88.881500
  C     13.191800    2.690950   88.606500
  C     12.850100    2.915100   87.280200
  C     13.986100    3.251570   86.572500
  H     12.556300    2.229400   89.305200
  C     11.523700    2.582740   86.752100
  H     11.174700    1.542060   87.046700
  H     11.583100    2.713300   85.696100
  C     10.549200    3.753370   87.232400
  H     10.944700    4.658260   86.935900
  H     10.405600    3.859090   88.287600
  C      9.216100    3.675750   86.428700
  H      8.861050    2.586140   86.472700
  H      9.585440    3.874690   85.387000
  H      8.390600    4.335860   86.683300
  H     14.411700    2.173760   81.782800
  H     14.864600    2.702260   89.873400

 Total Charge           Charge          ....    0
 Multiplicity           Mult            ....    1
 Number of Electrons    NEL             ....  134
 Basis Dimension        Dim             ....  322

ORBITAL ENERGIES
----------------

  NO   OCC          E(Eh)            E(eV)
   0   2.0000     -88.968254     -2420.9493
   1   2.0000     -88.964729     -2420.8534
   2   2.0000     -10.321121      -280.8520
   3   2.0000     -10.320114      -280.8246
   4   2.0000     -10.312032      -280.6047
   5   2.0000     -10.310107      -280.5523
   6   2.0000     -10.304630      -280.4032
   7   2.0000     -10.297692      -280.2144
   8   2.0000     -10.297285      -280.2034
   9   2.0000     -10.296294      -280.1764
  10   2.0000     -10.291593      -280.0485
  11   2.0000     -10.288184      -279.9557
  12   2.0000     -10.285649      -279.8867
  13   2.0000     -10.283666      -279.8328
  14   2.0000     -10.283348      -279.8241
  15   2.0000     -10.275314      -279.6055
  16   2.0000      -8.083533      -219.9641
  17   2.0000      -8.080695      -219.8869
  18   2.0000      -6.041821      -164.4063
  19   2.0000      -6.038979      -164.3290
  20   2.0000      -6.038221      -164.3083
  21   2.0000      -6.034948      -164.2193
  22   2.0000      -6.034233      -164.1998
  23   2.0000      -6.031697      -164.1308
  24   2.0000      -1.015643       -27.6371
  25   2.0000      -0.991740       -26.9866
  26   2.0000      -0.914400       -24.8821
  27   2.0000      -0.911713       -24.8090
  28   2.0000      -0.869777       -23.6678
  29   2.0000      -0.856560       -23.3082
  30   2.0000      -0.845575       -23.0093
  31   2.0000      -0.810489       -22.0545
  32   2.0000      -0.783142       -21.3104
  33   2.0000      -0.770069       -20.9546
  34   2.0000      -0.707639       -19.2558
  35   2.0000      -0.704346       -19.1662
  36   2.0000      -0.691638       -18.8204
  37   2.0000      -0.669050       -18.2058
  38   2.0000      -0.641268       -17.4498
  39   2.0000      -0.614607       -16.7243
  40   2.0000      -0.599439       -16.3116
  41   2.0000      -0.571419       -15.5491
  42   2.0000      -0.564741       -15.3674
  43   2.0000      -0.548144       -14.9158
  44   2.0000      -0.541188       -14.7265
  45   2.0000      -0.524380       -14.2691
  46   2.0000      -0.520906       -14.1746
  47   2.0000      -0.519540       -14.1374
  48   2.0000      -0.506367       -13.7789
  49   2.0000      -0.495559       -13.4848
  50   2.0000      -0.488808       -13.3011
  51   2.0000      -0.479332       -13.0433
  52   2.0000      -0.465958       -12.6794
  53   2.0000      -0.463718       -12.6184
  54   2.0000      -0.455584       -12.3971
  55   2.0000      -0.453654       -12.3446
  56   2.0000      -0.446131       -12.1398
  57   2.0000      -0.435310       -11.8454
  58   2.0000      -0.432690       -11.7741
  59   2.0000      -0.427586       -11.6352
  60   2.0000      -0.424764       -11.5584
  61   2.0000      -0.420317       -11.4374
  62   2.0000      -0.413384       -11.2487
  63   2.0000      -0.339638        -9.2420
  64   2.0000      -0.334304        -9.0969
  65   2.0000      -0.326004        -8.8710
  66   2.0000      -0.289095        -7.8667
  67   0.0000       0.034674         0.9435
  68   0.0000       0.063664         1.7324
  69   0.0000       0.099600         2.7102
  70   0.0000       0.123214         3.3528
  71   0.0000       0.133980         3.6458

MULLIKEN ATOMIC CHARGES
-----------------------
   0 S :    0.122449
   1 C :   -0.135420
   2 C :   -0.056151
   3 C :    0.000111
   4 C :   -0.162472
   5 H :    0.012931
   6 C :    0.055612
   7 H :    0.026971
   8 H :    0.045227
   9 C :   -0.067819
  10 H :    0.028224
  11 H :    0.037418
  12 C :   -0.076603
  13 H :    0.027436
  14 H :    0.029974
  15 H :    0.038946
  16 S :    0.134943
  17 C :   -0.057087
  18 C :   -0.043480
  19 C :   -0.010054
  20 C :   -0.203154
  21 H :   -0.002242
  22 C :    0.082913
  23 H :    0.056345
  24 H :    0.009319
  25 C :   -0.060529
  26 H :    0.012704
  27 H :    0.028890
  28 C :   -0.079150
  29 H :    0.036483
  30 H :    0.037219
  31 H :    0.046780
  32 H :    0.048978
  33 H :    0.034289
Sum of atomic charges:    0.0000000

LOEWDIN ATOMIC CHARGES
----------------------
   0 S :    0.448580
   1 C :   -0.207313
   2 C :   -0.063637
   3 C :   -0.078065
   4 C :   -0.223038
   5 H :    0.029247
   6 C :   -0.036798
   7 H :    0.035758
   8 H :    0.039197
   9 C :   -0.038101
  10 H :    0.020146
  11 H :    0.029194
  12 C :   -0.074971
  13 H :    0.023234
  14 H :    0.028133
  15 H :    0.025889
  16 S :    0.424729
  17 C :   -0.188847
  18 C :   -0.063783
  19 C :   -0.056296
  20 C :   -0.195992
  21 H :    0.021629
  22 C :   -0.022559
  23 H :    0.041802
  24 H :    0.021052
  25 C :   -0.027368
  26 H :    0.015741
  27 H :    0.017123
  28 C :   -0.072766
  29 H :    0.028881
  30 H :    0.030027
  31 H :    0.023655
  32 H :    0.025304
  33 H :    0.020213

  Mayer bond orders larger than 0.100000
B(  0-S ,  1-C ) :   1.1566 B(  0-S ,  4-C ) :   1.1755 B(  1-C ,  2-C ) :   1.5738
B(  1-C , 32-H ) :   0.9716 B(  2-C ,  3-C ) :   1.2333 B(  2-C ,  6-C ) :   1.0392
B(  3-C ,  4-C ) :   1.5544 B(  3-C ,  5-H ) :   0.9925 B(  4-C , 20-C ) :   1.0318
B(  6-C ,  7-H ) :   0.9437 B(  6-C ,  8-H ) :   0.9287 B(  6-C ,  9-C ) :   1.0771
B(  9-C , 10-H ) :   0.9563 B(  9-C , 11-H ) :   0.9600 B(  9-C , 12-C ) :   1.0615
B( 12-C , 13-H ) :   0.9786 B( 12-C , 14-H ) :   0.9765 B( 12-C , 15-H ) :   0.9770
B( 16-S , 17-C ) :   1.1611 B( 16-S , 20-C ) :   1.1433 B( 17-C , 18-C ) :   1.6058
B( 17-C , 20-C ) :   0.1022 B( 17-C , 33-H ) :   0.9700 B( 18-C , 19-C ) :   1.2323
B( 18-C , 21-H ) :   0.9944 B( 19-C , 20-C ) :   1.5696 B( 19-C , 22-C ) :   1.0627
B( 22-C , 23-H ) :   0.9362 B( 22-C , 24-H ) :   0.9210 B( 22-C , 25-C ) :   1.0429
B( 25-C , 26-H ) :   0.9567 B( 25-C , 27-H ) :   0.9643 B( 25-C , 28-C ) :   1.0655
B( 28-C , 29-H ) :   0.9750 B( 28-C , 30-H ) :   0.9794 B( 28-C , 31-H ) :   0.9764

Dispersion correction           -0.014534326
FINAL SINGLE POINT ENERGY     -1339.861363390566

DIPOLE MOMENT
-------------
                                X             Y             Z
Electronic contribution:     18.91614     -12.07149      10.98874
Nuclear contribution   :    -19.32206      12.29930     -11.00882
                        -----------------------------------------
Total Dipole Moment    :     -0.40592       0.22782      -0.02008
                        -----------------------------------------
Magnitude (a.u.)       :      0.46591
Magnitude (Debye)      :      1.18426

Rotational constants in cm-1:     0.017730     0.009198     0.007493
Rotational constants in MHz :   531.518878   275.757968   224.622858

                             ****ORCA TERMINATED NORMALLY****
TOTAL RUN TIME: 0 days 0 hours 0 minutes 32 seconds 973 msec
