                         Program Version 4.2.1 -  RELEASE  -
|  1> ! wB97X-D3 SP def2-SVP
|  2> %pal
|  3> nprocs 16
|  4> end
|  5>
|  6> * xyz 0 1
|  7> S 	 14.8577 	 20.6842 	 40.5166
|  8> C 	 16.1526 	 20.7316 	 39.3217
|  9> C 	 15.6431 	 21.1394 	 38.1335
| 10> C 	 14.3805 	 21.7766 	 38.1826
| 11> C 	 13.851 	 21.664 	 39.5118
| 12> H 	 13.8363 	 22.2964 	 37.4306
| 13> C 	 16.2287 	 20.9352 	 36.7273
| 14> H 	 15.5524 	 20.2961 	 36.0841
| 15> H 	 17.1005 	 20.2474 	 36.933
| 16> C 	 16.7706 	 22.1861 	 36.0053
| 17> H 	 17.4384 	 21.7429 	 35.3003
| 18> H 	 15.9681 	 22.8442 	 35.6271
| 19> C 	 17.6174 	 22.9828 	 36.9003
| 20> H 	 18.2733 	 22.3007 	 37.429
| 21> H 	 18.3203 	 23.7054 	 36.5018
| 22> H 	 17.1086 	 23.506 	 37.7147
| 23> S 	 12.6694 	 23.5718 	 40.9348
| 24> C 	 11.0393 	 24.1264 	 40.5393
| 25> C 	 10.4768 	 23.31 	 39.5254
| 26> C 	 11.353 	 22.2332 	 39.2264
| 27> C 	 12.5566 	 22.2396 	 39.9076
| 28> H 	 9.45492 	 23.4598 	 39.1397
| 29> C 	 10.8405 	 21.2293 	 38.1276
| 30> H 	 11.2397 	 21.562 	 37.1802
| 31> H 	 9.78908 	 21.371 	 38.062
| 32> C 	 11.2214 	 19.7624 	 38.2843
| 33> H 	 12.3945 	 19.6348 	 38.146
| 34> H 	 10.6772 	 19.2462 	 37.4745
| 35> C 	 10.9384 	 19.0407 	 39.5559
| 36> H 	 11.5368 	 19.3883 	 40.3164
| 37> H 	 10.9628 	 17.9225 	 39.4733
| 38> H 	 9.95217 	 19.2072 	 39.8268
| 39> H 	 17.1293 	 20.3073 	 39.4992
| 40> H 	 10.5682 	 24.9591 	 40.9543
| 41> *
| 42>
| 43>                          ****END OF INPUT****

CARTESIAN COORDINATES (ANGSTROEM)
---------------------------------
  S     14.857700   20.684200   40.516600
  C     16.152600   20.731600   39.321700
  C     15.643100   21.139400   38.133500
  C     14.380500   21.776600   38.182600
  C     13.851000   21.664000   39.511800
  H     13.836300   22.296400   37.430600
  C     16.228700   20.935200   36.727300
  H     15.552400   20.296100   36.084100
  H     17.100500   20.247400   36.933000
  C     16.770600   22.186100   36.005300
  H     17.438400   21.742900   35.300300
  H     15.968100   22.844200   35.627100
  C     17.617400   22.982800   36.900300
  H     18.273300   22.300700   37.429000
  H     18.320300   23.705400   36.501800
  H     17.108600   23.506000   37.714700
  S     12.669400   23.571800   40.934800
  C     11.039300   24.126400   40.539300
  C     10.476800   23.310000   39.525400
  C     11.353000   22.233200   39.226400
  C     12.556600   22.239600   39.907600
  H      9.454920   23.459800   39.139700
  C     10.840500   21.229300   38.127600
  H     11.239700   21.562000   37.180200
  H      9.789080   21.371000   38.062000
  C     11.221400   19.762400   38.284300
  H     12.394500   19.634800   38.146000
  H     10.677200   19.246200   37.474500
  C     10.938400   19.040700   39.555900
  H     11.536800   19.388300   40.316400
  H     10.962800   17.922500   39.473300
  H      9.952170   19.207200   39.826800
  H     17.129300   20.307300   39.499200
  H     10.568200   24.959100   40.954300

 Total Charge           Charge          ....    0
 Multiplicity           Mult            ....    1
 Number of Electrons    NEL             ....  134
 Basis Dimension        Dim             ....  322

ORBITAL ENERGIES
----------------

  NO   OCC          E(Eh)            E(eV)
   0   2.0000     -88.967977     -2420.9417
   1   2.0000     -88.966540     -2420.9026
   2   2.0000     -10.333018      -281.1757
   3   2.0000     -10.320034      -280.8224
   4   2.0000     -10.319671      -280.8125
   5   2.0000     -10.312455      -280.6162
   6   2.0000     -10.303389      -280.3695
   7   2.0000     -10.299851      -280.2732
   8   2.0000     -10.299728      -280.2699
   9   2.0000     -10.298508      -280.2366
  10   2.0000     -10.293149      -280.0908
  11   2.0000     -10.290411      -280.0163
  12   2.0000     -10.285426      -279.8807
  13   2.0000     -10.284215      -279.8477
  14   2.0000     -10.266631      -279.3692
  15   2.0000     -10.257527      -279.1215
  16   2.0000      -8.082726      -219.9422
  17   2.0000      -8.082073      -219.9244
  18   2.0000      -6.041139      -164.3877
  19   2.0000      -6.040460      -164.3693
  20   2.0000      -6.037303      -164.2834
  21   2.0000      -6.036221      -164.2539
  22   2.0000      -6.033533      -164.1808
  23   2.0000      -6.033138      -164.1700
  24   2.0000      -1.010586       -27.4994
  25   2.0000      -0.987047       -26.8589
  26   2.0000      -0.916818       -24.9479
  27   2.0000      -0.905826       -24.6488
  28   2.0000      -0.870796       -23.6956
  29   2.0000      -0.849185       -23.1075
  30   2.0000      -0.848744       -23.0955
  31   2.0000      -0.809413       -22.0252
  32   2.0000      -0.784831       -21.3563
  33   2.0000      -0.776296       -21.1241
  34   2.0000      -0.705323       -19.1928
  35   2.0000      -0.696514       -18.9531
  36   2.0000      -0.680795       -18.5254
  37   2.0000      -0.668390       -18.1878
  38   2.0000      -0.642470       -17.4825
  39   2.0000      -0.616222       -16.7683
  40   2.0000      -0.586700       -15.9649
  41   2.0000      -0.569785       -15.5046
  42   2.0000      -0.558617       -15.2007
  43   2.0000      -0.557310       -15.1652
  44   2.0000      -0.543139       -14.7796
  45   2.0000      -0.541416       -14.7327
  46   2.0000      -0.521212       -14.1829
  47   2.0000      -0.513696       -13.9784
  48   2.0000      -0.502766       -13.6809
  49   2.0000      -0.499523       -13.5927
  50   2.0000      -0.494152       -13.4466
  51   2.0000      -0.476595       -12.9688
  52   2.0000      -0.473417       -12.8823
  53   2.0000      -0.462650       -12.5893
  54   2.0000      -0.452831       -12.3221
  55   2.0000      -0.448633       -12.2079
  56   2.0000      -0.444205       -12.0874
  57   2.0000      -0.436481       -11.8773
  58   2.0000      -0.434265       -11.8169
  59   2.0000      -0.418238       -11.3808
  60   2.0000      -0.412538       -11.2257
  61   2.0000      -0.408141       -11.1061
  62   2.0000      -0.401938       -10.9373
  63   2.0000      -0.342575        -9.3219
  64   2.0000      -0.329655        -8.9704
  65   2.0000      -0.321679        -8.7533
  66   2.0000      -0.299700        -8.1552
  67   0.0000       0.031124         0.8469
  68   0.0000       0.060657         1.6506
  69   0.0000       0.099290         2.7018
  70   0.0000       0.123124         3.3504
  71   0.0000       0.132795         3.6135

MULLIKEN ATOMIC CHARGES
-----------------------
   0 S :    0.117100
   1 C :   -0.127125
   2 C :   -0.072559
   3 C :    0.048012
   4 C :   -0.178037
   5 H :    0.010382
   6 C :   -0.002739
   7 H :    0.054771
   8 H :    0.015254
   9 C :   -0.010049
  10 H :    0.028492
  11 H :    0.042465
  12 C :   -0.051962
  13 H :   -0.003697
  14 H :    0.030338
  15 H :    0.036782
  16 S :    0.121190
  17 C :   -0.082401
  18 C :   -0.051398
  19 C :   -0.079922
  20 C :   -0.131873
  21 H :    0.036645
  22 C :    0.120696
  23 H :    0.026930
  24 H :    0.004694
  25 C :   -0.127201
  26 H :    0.050506
  27 H :    0.026887
  28 C :    0.019555
  29 H :    0.014019
  30 H :    0.034742
  31 H :   -0.004128
  32 H :    0.045954
  33 H :    0.037673
Sum of atomic charges:   -0.0000000

LOEWDIN ATOMIC CHARGES
----------------------
   0 S :    0.412408
   1 C :   -0.197426
   2 C :   -0.066168
   3 C :   -0.053988
   4 C :   -0.199120
   5 H :    0.028552
   6 C :   -0.035233
   7 H :    0.039042
   8 H :    0.028829
   9 C :   -0.041353
  10 H :    0.029527
  11 H :    0.027594
  12 C :   -0.071940
  13 H :    0.020000
  14 H :    0.024891
  15 H :    0.027674
  16 S :    0.445962
  17 C :   -0.171716
  18 C :   -0.072129
  19 C :   -0.056942
  20 C :   -0.240262
  21 H :    0.037899
  22 C :   -0.023796
  23 H :    0.032328
  24 H :    0.022373
  25 C :   -0.053025
  26 H :    0.036770
  27 H :    0.025758
  28 C :   -0.060074
  29 H :    0.012457
  30 H :    0.035667
  31 H :    0.012880
  32 H :    0.027163
  33 H :    0.015399

  Mayer bond orders larger than 0.100000
B(  0-S ,  1-C ) :   1.1274 B(  0-S ,  4-C ) :   1.1807 B(  1-C ,  2-C ) :   1.6108
B(  1-C , 32-H ) :   0.9701 B(  2-C ,  3-C ) :   1.2302 B(  2-C ,  6-C ) :   1.0136
B(  3-C ,  4-C ) :   1.5387 B(  3-C ,  5-H ) :   1.0048 B(  4-C , 20-C ) :   1.0027
B(  6-C ,  7-H ) :   0.9494 B(  6-C ,  8-H ) :   0.9381 B(  6-C ,  9-C ) :   1.0674
B(  9-C , 10-H ) :   0.9504 B(  9-C , 11-H ) :   0.9544 B(  9-C , 12-C ) :   1.0936
B( 12-C , 13-H ) :   0.9678 B( 12-C , 14-H ) :   0.9720 B( 12-C , 15-H ) :   0.9627
B( 16-S , 17-C ) :   1.1906 B( 16-S , 20-C ) :   1.1599 B( 17-C , 18-C ) :   1.5518
B( 17-C , 33-H ) :   0.9784 B( 18-C , 19-C ) :   1.2902 B( 18-C , 21-H ) :   0.9860
B( 19-C , 20-C ) :   1.5762 B( 19-C , 22-C ) :   1.0117 B( 22-C , 23-H ) :   0.9293
B( 22-C , 24-H ) :   0.9354 B( 22-C , 25-C ) :   1.0849 B( 25-C , 26-H ) :   0.9467
B( 25-C , 27-H ) :   0.9510 B( 25-C , 28-C ) :   1.0921 B( 28-C , 29-H ) :   0.9677
B( 28-C , 30-H ) :   0.9711 B( 28-C , 31-H ) :   0.9675

Dispersion correction           -0.015949251
FINAL SINGLE POINT ENERGY     -1339.850715079943

DIPOLE MOMENT
-------------
                                X             Y             Z
Electronic contribution:     -2.68436       7.27982      18.48917
Nuclear contribution   :      2.53774      -7.25897     -19.10920
                        -----------------------------------------
Total Dipole Moment    :     -0.14662       0.02085      -0.62003
                        -----------------------------------------
Magnitude (a.u.)       :      0.63747
Magnitude (Debye)      :      1.62033

Rotational constants in cm-1:     0.019399     0.009110     0.008312
Rotational constants in MHz :   581.580826   273.099857   249.175280

                             ****ORCA TERMINATED NORMALLY****
TOTAL RUN TIME: 0 days 0 hours 0 minutes 37 seconds 435 msec
