                         Program Version 4.2.1 -  RELEASE  -
|  1> ! wB97X-D3 SP def2-SVP
|  2> %pal
|  3> nprocs 16
|  4> end
|  5>
|  6> * xyz 0 1
|  7> S 	 -4.87651 	 -10.6123 	 80.4339
|  8> C 	 -5.07592 	 -10.6514 	 78.6899
|  9> C 	 -6.15767 	 -9.88142 	 78.2925
| 10> C 	 -6.77093 	 -9.19747 	 79.403
| 11> C 	 -6.23144 	 -9.53051 	 80.6822
| 12> H 	 -7.54856 	 -8.43695 	 79.2878
| 13> C 	 -6.76049 	 -9.75553 	 76.8906
| 14> H 	 -5.91749 	 -9.56784 	 76.1911
| 15> H 	 -7.34394 	 -8.79949 	 76.9249
| 16> C 	 -7.54236 	 -11.0122 	 76.4651
| 17> H 	 -7.99142 	 -10.7529 	 75.4894
| 18> H 	 -6.77996 	 -11.8036 	 76.456
| 19> C 	 -8.66199 	 -11.409 	 77.4588
| 20> H 	 -8.5584 	 -11.0833 	 78.57
| 21> H 	 -9.59149 	 -10.9961 	 77.0908
| 22> H 	 -8.83526 	 -12.4617 	 77.5402
| 23> S 	 -5.4631 	 -8.12349 	 82.9065
| 24> C 	 -6.48056 	 -8.02828 	 84.2549
| 25> C 	 -7.81063 	 -8.34886 	 83.8384
| 26> C 	 -7.84855 	 -8.92962 	 82.5322
| 27> C 	 -6.59471 	 -9.03682 	 81.9616
| 28> H 	 -8.64309 	 -8.25804 	 84.4755
| 29> C 	 -9.11861 	 -9.31162 	 81.8084
| 30> H 	 -9.67665 	 -10.1234 	 82.3224
| 31> H 	 -8.88581 	 -9.75899 	 80.862
| 32> C 	 -10.0893 	 -8.09578 	 81.6028
| 33> H 	 -9.74609 	 -7.30603 	 80.9386
| 34> H 	 -10.1069 	 -7.68006 	 82.6333
| 35> C 	 -11.4168 	 -8.66335 	 81.1587
| 36> H 	 -11.3837 	 -9.16886 	 80.234
| 37> H 	 -12.1011 	 -7.83472 	 80.9883
| 38> H 	 -11.9074 	 -9.27815 	 81.9405
| 39> H 	 -4.6022 	 -11.2961 	 77.958
| 40> H 	 -6.10348 	 -7.73212 	 85.2327
| 41> *
| 42>
| 43>                          ****END OF INPUT****

CARTESIAN COORDINATES (ANGSTROEM)
---------------------------------
  S     -4.876510  -10.612300   80.433900
  C     -5.075920  -10.651400   78.689900
  C     -6.157670   -9.881420   78.292500
  C     -6.770930   -9.197470   79.403000
  C     -6.231440   -9.530510   80.682200
  H     -7.548560   -8.436950   79.287800
  C     -6.760490   -9.755530   76.890600
  H     -5.917490   -9.567840   76.191100
  H     -7.343940   -8.799490   76.924900
  C     -7.542360  -11.012200   76.465100
  H     -7.991420  -10.752900   75.489400
  H     -6.779960  -11.803600   76.456000
  C     -8.661990  -11.409000   77.458800
  H     -8.558400  -11.083300   78.570000
  H     -9.591490  -10.996100   77.090800
  H     -8.835260  -12.461700   77.540200
  S     -5.463100   -8.123490   82.906500
  C     -6.480560   -8.028280   84.254900
  C     -7.810630   -8.348860   83.838400
  C     -7.848550   -8.929620   82.532200
  C     -6.594710   -9.036820   81.961600
  H     -8.643090   -8.258040   84.475500
  C     -9.118610   -9.311620   81.808400
  H     -9.676650  -10.123400   82.322400
  H     -8.885810   -9.758990   80.862000
  C    -10.089300   -8.095780   81.602800
  H     -9.746090   -7.306030   80.938600
  H    -10.106900   -7.680060   82.633300
  C    -11.416800   -8.663350   81.158700
  H    -11.383700   -9.168860   80.234000
  H    -12.101100   -7.834720   80.988300
  H    -11.907400   -9.278150   81.940500
  H     -4.602200  -11.296100   77.958000
  H     -6.103480   -7.732120   85.232700

 Total Charge           Charge          ....    0
 Multiplicity           Mult            ....    1
 Number of Electrons    NEL             ....  134
 Basis Dimension        Dim             ....  322

ORBITAL ENERGIES
----------------

  NO   OCC          E(Eh)            E(eV)
   0   2.0000     -88.968839     -2420.9652
   1   2.0000     -88.962141     -2420.7829
   2   2.0000     -10.330680      -281.1121
   3   2.0000     -10.320260      -280.8286
   4   2.0000     -10.318642      -280.7845
   5   2.0000     -10.315412      -280.6966
   6   2.0000     -10.300900      -280.3017
   7   2.0000     -10.300634      -280.2945
   8   2.0000     -10.299540      -280.2647
   9   2.0000     -10.299075      -280.2521
  10   2.0000     -10.296374      -280.1786
  11   2.0000     -10.295697      -280.1602
  12   2.0000     -10.290014      -280.0055
  13   2.0000     -10.288303      -279.9590
  14   2.0000     -10.279579      -279.7216
  15   2.0000     -10.275406      -279.6080
  16   2.0000      -8.082954      -219.9483
  17   2.0000      -8.078442      -219.8256
  18   2.0000      -6.041502      -164.3976
  19   2.0000      -6.037355      -164.2848
  20   2.0000      -6.036735      -164.2679
  21   2.0000      -6.033885      -164.1904
  22   2.0000      -6.032676      -164.1575
  23   2.0000      -6.029379      -164.0677
  24   2.0000      -1.009806       -27.4782
  25   2.0000      -0.983017       -26.7493
  26   2.0000      -0.911014       -24.7899
  27   2.0000      -0.910530       -24.7768
  28   2.0000      -0.870181       -23.6788
  29   2.0000      -0.853073       -23.2133
  30   2.0000      -0.840089       -22.8600
  31   2.0000      -0.806152       -21.9365
  32   2.0000      -0.782752       -21.2998
  33   2.0000      -0.772275       -21.0147
  34   2.0000      -0.704714       -19.1762
  35   2.0000      -0.703673       -19.1479
  36   2.0000      -0.697191       -18.9715
  37   2.0000      -0.663159       -18.0455
  38   2.0000      -0.633929       -17.2501
  39   2.0000      -0.612012       -16.6537
  40   2.0000      -0.597811       -16.2673
  41   2.0000      -0.577350       -15.7105
  42   2.0000      -0.567353       -15.4385
  43   2.0000      -0.550036       -14.9672
  44   2.0000      -0.540597       -14.7104
  45   2.0000      -0.522877       -14.2282
  46   2.0000      -0.519597       -14.1390
  47   2.0000      -0.510206       -13.8834
  48   2.0000      -0.505986       -13.7686
  49   2.0000      -0.500489       -13.6190
  50   2.0000      -0.491392       -13.3715
  51   2.0000      -0.475535       -12.9400
  52   2.0000      -0.471113       -12.8196
  53   2.0000      -0.460958       -12.5433
  54   2.0000      -0.459085       -12.4923
  55   2.0000      -0.451356       -12.2820
  56   2.0000      -0.444239       -12.0884
  57   2.0000      -0.440629       -11.9901
  58   2.0000      -0.435496       -11.8505
  59   2.0000      -0.425712       -11.5842
  60   2.0000      -0.418180       -11.3793
  61   2.0000      -0.417408       -11.3582
  62   2.0000      -0.406168       -11.0524
  63   2.0000      -0.339184        -9.2297
  64   2.0000      -0.330854        -9.0030
  65   2.0000      -0.324702        -8.8356
  66   2.0000      -0.291793        -7.9401
  67   0.0000       0.022884         0.6227
  68   0.0000       0.068856         1.8737
  69   0.0000       0.108604         2.9553
  70   0.0000       0.121242         3.2992
  71   0.0000       0.125399         3.4123

MULLIKEN ATOMIC CHARGES
-----------------------
   0 S :    0.126002
   1 C :   -0.109195
   2 C :   -0.127771
   3 C :    0.025712
   4 C :   -0.189284
   5 H :    0.018061
   6 C :    0.038119
   7 H :    0.038449
   8 H :    0.029724
   9 C :   -0.043154
  10 H :    0.046785
  11 H :    0.032645
  12 C :   -0.083468
  13 H :    0.064397
  14 H :    0.023618
  15 H :    0.028759
  16 S :    0.122922
  17 C :   -0.105618
  18 C :   -0.030277
  19 C :   -0.011195
  20 C :   -0.145918
  21 H :    0.006591
  22 C :    0.058006
  23 H :    0.029575
  24 H :    0.002736
  25 C :   -0.088547
  26 H :    0.036887
  27 H :    0.028269
  28 C :   -0.023553
  29 H :    0.025911
  30 H :    0.023372
  31 H :    0.036394
  32 H :    0.045761
  33 H :    0.069288
Sum of atomic charges:    0.0000000

LOEWDIN ATOMIC CHARGES
----------------------
   0 S :    0.418117
   1 C :   -0.204008
   2 C :   -0.067677
   3 C :   -0.061209
   4 C :   -0.201610
   5 H :    0.029337
   6 C :   -0.036028
   7 H :    0.033865
   8 H :    0.031171
   9 C :   -0.036287
  10 H :    0.031955
  11 H :    0.025578
  12 C :   -0.078524
  13 H :    0.039443
  14 H :    0.022199
  15 H :    0.022846
  16 S :    0.440674
  17 C :   -0.200602
  18 C :   -0.068626
  19 C :   -0.051793
  20 C :   -0.219186
  21 H :    0.020262
  22 C :   -0.032453
  23 H :    0.033407
  24 H :    0.019666
  25 C :   -0.034949
  26 H :    0.024136
  27 H :    0.026637
  28 C :   -0.064601
  29 H :    0.020089
  30 H :    0.025423
  31 H :    0.030433
  32 H :    0.030724
  33 H :    0.031595

  Mayer bond orders larger than 0.100000
B(  0-S ,  1-C ) :   1.1438 B(  0-S ,  4-C ) :   1.1624 B(  1-C ,  2-C ) :   1.6020
B(  1-C ,  4-C ) :   0.1048 B(  1-C , 32-H ) :   0.9642 B(  2-C ,  3-C ) :   1.2684
B(  2-C ,  6-C ) :   1.0103 B(  3-C ,  4-C ) :   1.5202 B(  3-C ,  5-H ) :   0.9878
B(  4-C , 20-C ) :   1.0694 B(  6-C ,  7-H ) :   0.9420 B(  6-C ,  8-H ) :   0.9455
B(  6-C ,  9-C ) :   1.0623 B(  9-C , 10-H ) :   0.9602 B(  9-C , 11-H ) :   0.9590
B(  9-C , 12-C ) :   1.0590 B( 12-C , 13-H ) :   0.9738 B( 12-C , 14-H ) :   0.9769
B( 12-C , 15-H ) :   0.9745 B( 16-S , 17-C ) :   1.1984 B( 16-S , 20-C ) :   1.1583
B( 17-C , 18-C ) :   1.5196 B( 17-C , 20-C ) :   0.1080 B( 17-C , 33-H ) :   0.9743
B( 18-C , 19-C ) :   1.2729 B( 18-C , 21-H ) :   0.9997 B( 19-C , 20-C ) :   1.5519
B( 19-C , 22-C ) :   1.0509 B( 22-C , 23-H ) :   0.9371 B( 22-C , 24-H ) :   0.9274
B( 22-C , 25-C ) :   1.0457 B( 25-C , 26-H ) :   0.9556 B( 25-C , 27-H ) :   0.9574
B( 25-C , 28-C ) :   1.0890 B( 28-C , 29-H ) :   0.9724 B( 28-C , 30-H ) :   0.9701
B( 28-C , 31-H ) :   0.9726

Dispersion correction           -0.015112936
FINAL SINGLE POINT ENERGY     -1339.875360036441

DIPOLE MOMENT
-------------
                                X             Y             Z
Electronic contribution:     26.32618       2.71800      15.25330
Nuclear contribution   :    -26.95488      -2.66863     -15.59564
                        -----------------------------------------
Total Dipole Moment    :     -0.62869       0.04937      -0.34234
                        -----------------------------------------
Magnitude (a.u.)       :      0.71756
Magnitude (Debye)      :      1.82388

Rotational constants in cm-1:     0.017492     0.010312     0.006982
Rotational constants in MHz :   524.405474   309.131355   209.303985

                             ****ORCA TERMINATED NORMALLY****
TOTAL RUN TIME: 0 days 0 hours 0 minutes 37 seconds 812 msec
