                         Program Version 4.2.1 -  RELEASE  -
|  1> ! wB97X-D3 SP def2-SVP
|  2> %pal
|  3> nprocs 16
|  4> end
|  5>
|  6> * xyz 0 1
|  7> S 	 -41.6713 	 19.1405 	 79.3212
|  8> C 	 -40.9957 	 17.5339 	 79.4017
|  9> C 	 -41.9235 	 16.5475 	 79.0633
| 10> C 	 -43.0964 	 17.1147 	 78.4588
| 11> C 	 -43.1668 	 18.5055 	 78.5329
| 12> H 	 -43.9354 	 16.6811 	 77.9776
| 13> C 	 -41.578 	 15.0781 	 78.9478
| 14> H 	 -42.44 	 14.4967 	 79.3166
| 15> H 	 -40.7886 	 14.9322 	 79.6756
| 16> C 	 -41.1662 	 14.4803 	 77.5523
| 17> H 	 -40.3608 	 15.0267 	 77.1177
| 18> H 	 -40.8724 	 13.429 	 77.7781
| 19> C 	 -42.3579 	 14.5113 	 76.5562
| 20> H 	 -41.9648 	 14.1358 	 75.601
| 21> H 	 -43.184 	 13.9175 	 76.9241
| 22> H 	 -42.7707 	 15.4991 	 76.4654
| 23> S 	 -43.2174 	 20.4909 	 76.6117
| 24> C 	 -44.7635 	 21.2042 	 76.2397
| 25> C 	 -45.7965 	 20.582 	 76.9029
| 26> C 	 -45.4037 	 19.4918 	 77.701
| 27> C 	 -44.0203 	 19.3989 	 77.757
| 28> H 	 -46.7872 	 20.9896 	 76.7932
| 29> C 	 -46.4625 	 18.622 	 78.3968
| 30> H 	 -46.3216 	 17.6233 	 78.0378
| 31> H 	 -47.4135 	 19.0159 	 78.14
| 32> C 	 -46.5136 	 18.5012 	 79.9376
| 33> H 	 -45.6817 	 18.03 	 80.3322
| 34> H 	 -47.3693 	 17.9164 	 80.3208
| 35> C 	 -46.7869 	 19.7933 	 80.6334
| 36> H 	 -46.0387 	 20.5023 	 80.3573
| 37> H 	 -46.6964 	 19.6667 	 81.7254
| 38> H 	 -47.7447 	 20.3267 	 80.3824
| 39> H 	 -39.977 	 17.277 	 79.5798
| 40> H 	 -44.8065 	 22.0881 	 75.4696
| 41> *
| 42>
| 43>                          ****END OF INPUT****

CARTESIAN COORDINATES (ANGSTROEM)
---------------------------------
  S    -41.671300   19.140500   79.321200
  C    -40.995700   17.533900   79.401700
  C    -41.923500   16.547500   79.063300
  C    -43.096400   17.114700   78.458800
  C    -43.166800   18.505500   78.532900
  H    -43.935400   16.681100   77.977600
  C    -41.578000   15.078100   78.947800
  H    -42.440000   14.496700   79.316600
  H    -40.788600   14.932200   79.675600
  C    -41.166200   14.480300   77.552300
  H    -40.360800   15.026700   77.117700
  H    -40.872400   13.429000   77.778100
  C    -42.357900   14.511300   76.556200
  H    -41.964800   14.135800   75.601000
  H    -43.184000   13.917500   76.924100
  H    -42.770700   15.499100   76.465400
  S    -43.217400   20.490900   76.611700
  C    -44.763500   21.204200   76.239700
  C    -45.796500   20.582000   76.902900
  C    -45.403700   19.491800   77.701000
  C    -44.020300   19.398900   77.757000
  H    -46.787200   20.989600   76.793200
  C    -46.462500   18.622000   78.396800
  H    -46.321600   17.623300   78.037800
  H    -47.413500   19.015900   78.140000
  C    -46.513600   18.501200   79.937600
  H    -45.681700   18.030000   80.332200
  H    -47.369300   17.916400   80.320800
  C    -46.786900   19.793300   80.633400
  H    -46.038700   20.502300   80.357300
  H    -46.696400   19.666700   81.725400
  H    -47.744700   20.326700   80.382400
  H    -39.977000   17.277000   79.579800
  H    -44.806500   22.088100   75.469600

 Total Charge           Charge          ....    0
 Multiplicity           Mult            ....    1
 Number of Electrons    NEL             ....  134
 Basis Dimension        Dim             ....  322

ORBITAL ENERGIES
----------------

  NO   OCC          E(Eh)            E(eV)
   0   2.0000     -88.967316     -2420.9237
   1   2.0000     -88.966867     -2420.9115
   2   2.0000     -10.331356      -281.1305
   3   2.0000     -10.328422      -281.0507
   4   2.0000     -10.324142      -280.9342
   5   2.0000     -10.314769      -280.6791
   6   2.0000     -10.306302      -280.4487
   7   2.0000     -10.303717      -280.3784
   8   2.0000     -10.296279      -280.1760
   9   2.0000     -10.292710      -280.0789
  10   2.0000     -10.292362      -280.0694
  11   2.0000     -10.292106      -280.0624
  12   2.0000     -10.291127      -280.0358
  13   2.0000     -10.276444      -279.6362
  14   2.0000     -10.275893      -279.6213
  15   2.0000     -10.269489      -279.4470
  16   2.0000      -8.081844      -219.9182
  17   2.0000      -8.080729      -219.8878
  18   2.0000      -6.040256      -164.3637
  19   2.0000      -6.039261      -164.3367
  20   2.0000      -6.036376      -164.2581
  21   2.0000      -6.035360      -164.2305
  22   2.0000      -6.032715      -164.1585
  23   2.0000      -6.031503      -164.1255
  24   2.0000      -1.004162       -27.3246
  25   2.0000      -0.980881       -26.6911
  26   2.0000      -0.911202       -24.7951
  27   2.0000      -0.905369       -24.6363
  28   2.0000      -0.867431       -23.6040
  29   2.0000      -0.855308       -23.2741
  30   2.0000      -0.843430       -22.9509
  31   2.0000      -0.813964       -22.1491
  32   2.0000      -0.786184       -21.3932
  33   2.0000      -0.769610       -20.9421
  34   2.0000      -0.707355       -19.2481
  35   2.0000      -0.701195       -19.0805
  36   2.0000      -0.687741       -18.7144
  37   2.0000      -0.661590       -18.0028
  38   2.0000      -0.644279       -17.5317
  39   2.0000      -0.611601       -16.6425
  40   2.0000      -0.591761       -16.1026
  41   2.0000      -0.573014       -15.5925
  42   2.0000      -0.563375       -15.3302
  43   2.0000      -0.548441       -14.9238
  44   2.0000      -0.542597       -14.7648
  45   2.0000      -0.536964       -14.6115
  46   2.0000      -0.516175       -14.0458
  47   2.0000      -0.510428       -13.8894
  48   2.0000      -0.499103       -13.5813
  49   2.0000      -0.493846       -13.4382
  50   2.0000      -0.484774       -13.1914
  51   2.0000      -0.481696       -13.1076
  52   2.0000      -0.474209       -12.9039
  53   2.0000      -0.468405       -12.7459
  54   2.0000      -0.456724       -12.4281
  55   2.0000      -0.443906       -12.0793
  56   2.0000      -0.440996       -12.0001
  57   2.0000      -0.436375       -11.8744
  58   2.0000      -0.433732       -11.8024
  59   2.0000      -0.428738       -11.6666
  60   2.0000      -0.422832       -11.5058
  61   2.0000      -0.420787       -11.4502
  62   2.0000      -0.405299       -11.0287
  63   2.0000      -0.345904        -9.4125
  64   2.0000      -0.335434        -9.1276
  65   2.0000      -0.326285        -8.8787
  66   2.0000      -0.290280        -7.8989
  67   0.0000       0.022494         0.6121
  68   0.0000       0.064810         1.7636
  69   0.0000       0.107637         2.9289
  70   0.0000       0.117023         3.1844
  71   0.0000       0.131075         3.5667

MULLIKEN ATOMIC CHARGES
-----------------------
   0 S :    0.103375
   1 C :   -0.111722
   2 C :   -0.075477
   3 C :    0.041192
   4 C :   -0.174831
   5 H :    0.003413
   6 C :    0.033780
   7 H :    0.027404
   8 H :    0.018521
   9 C :   -0.047407
  10 H :    0.027391
  11 H :    0.040396
  12 C :   -0.055227
  13 H :    0.041359
  14 H :    0.021967
  15 H :    0.035927
  16 S :    0.119368
  17 C :   -0.138703
  18 C :   -0.035268
  19 C :   -0.028739
  20 C :   -0.174133
  21 H :    0.016679
  22 C :    0.124370
  23 H :    0.030814
  24 H :    0.003201
  25 C :   -0.042001
  26 H :    0.018306
  27 H :    0.026611
  28 C :   -0.078781
  29 H :    0.023995
  30 H :    0.037167
  31 H :    0.030119
  32 H :    0.042749
  33 H :    0.094184
Sum of atomic charges:    0.0000000

LOEWDIN ATOMIC CHARGES
----------------------
   0 S :    0.382562
   1 C :   -0.189300
   2 C :   -0.066823
   3 C :   -0.054562
   4 C :   -0.180794
   5 H :    0.025337
   6 C :   -0.038414
   7 H :    0.032061
   8 H :    0.026625
   9 C :   -0.029415
  10 H :    0.019258
  11 H :    0.030022
  12 C :   -0.064270
  13 H :    0.029736
  14 H :    0.021247
  15 H :    0.022829
  16 S :    0.404663
  17 C :   -0.200755
  18 C :   -0.076841
  19 C :   -0.052737
  20 C :   -0.197097
  21 H :    0.031647
  22 C :   -0.017109
  23 H :    0.031033
  24 H :    0.026348
  25 C :   -0.038609
  26 H :    0.014387
  27 H :    0.031297
  28 C :   -0.071657
  29 H :    0.018013
  30 H :    0.029946
  31 H :    0.026507
  32 H :    0.025026
  33 H :    0.049838

  Mayer bond orders larger than 0.100000
B(  0-S ,  1-C ) :   1.1463 B(  0-S ,  4-C ) :   1.1273 B(  1-C ,  2-C ) :   1.6035
B(  1-C , 32-H ) :   0.9681 B(  2-C ,  3-C ) :   1.2130 B(  2-C ,  6-C ) :   1.0458
B(  3-C ,  4-C ) :   1.5955 B(  3-C ,  5-H ) :   0.9848 B(  4-C , 20-C ) :   1.0518
B(  6-C ,  7-H ) :   0.9372 B(  6-C ,  8-H ) :   0.9396 B(  6-C ,  9-C ) :   1.0591
B(  9-C , 10-H ) :   0.9579 B(  9-C , 11-H ) :   0.9544 B(  9-C , 12-C ) :   1.0774
B( 12-C , 13-H ) :   0.9728 B( 12-C , 14-H ) :   0.9762 B( 12-C , 15-H ) :   0.9707
B( 16-S , 17-C ) :   1.1590 B( 16-S , 20-C ) :   1.1480 B( 17-C , 18-C ) :   1.5987
B( 17-C , 33-H ) :   0.9524 B( 18-C , 19-C ) :   1.2504 B( 18-C , 21-H ) :   0.9934
B( 19-C , 20-C ) :   1.5790 B( 19-C , 22-C ) :   1.0290 B( 22-C , 23-H ) :   0.9294
B( 22-C , 24-H ) :   0.9330 B( 22-C , 25-C ) :   1.0791 B( 25-C , 26-H ) :   0.9521
B( 25-C , 27-H ) :   0.9547 B( 25-C , 28-C ) :   1.0791 B( 28-C , 29-H ) :   0.9741
B( 28-C , 30-H ) :   0.9721 B( 28-C , 31-H ) :   0.9739

Dispersion correction           -0.014988275
FINAL SINGLE POINT ENERGY     -1339.870323924563

DIPOLE MOMENT
-------------
                                X             Y             Z
Electronic contribution:     10.87658      17.82652      -3.97986
Nuclear contribution   :    -11.12733     -18.24981       3.81080
                        -----------------------------------------
Total Dipole Moment    :     -0.25075      -0.42328      -0.16906
                        -----------------------------------------
Magnitude (a.u.)       :      0.52022
Magnitude (Debye)      :      1.32229

Rotational constants in cm-1:     0.018440     0.008825     0.008068
Rotational constants in MHz :   552.807734   264.580513   241.881372

                             ****ORCA TERMINATED NORMALLY****
TOTAL RUN TIME: 0 days 0 hours 0 minutes 29 seconds 540 msec
