                         Program Version 4.2.1 -  RELEASE  -
|  1> ! wB97X-D3 SP def2-SVP
|  2> %pal
|  3> nprocs 16
|  4> end
|  5>
|  6> * xyz 0 1
|  7> S 	 0.52459 	 75.3238 	 46.6507
|  8> C 	 1.69746 	 74.482 	 47.7297
|  9> C 	 1.45444 	 73.1338 	 47.737
| 10> C 	 0.440099 	 72.7985 	 46.7555
| 11> C 	 0.0188855 	 73.8149 	 45.9497
| 12> H 	 0.00397428 	 71.8438 	 46.6101
| 13> C 	 2.34202 	 72.0158 	 48.4631
| 14> H 	 1.673 	 71.4054 	 49.092
| 15> H 	 3.06755 	 72.3902 	 49.1515
| 16> C 	 2.9337 	 70.8939 	 47.5666
| 17> H 	 3.42273 	 70.1376 	 48.136
| 18> H 	 2.09036 	 70.3207 	 47.1362
| 19> C 	 3.87295 	 71.4901 	 46.4817
| 20> H 	 3.39875 	 72.3423 	 45.9095
| 21> H 	 4.69138 	 71.9928 	 47.078
| 22> H 	 4.32008 	 70.7235 	 45.83
| 23> S 	 -2.53958 	 74.4606 	 44.8892
| 24> C 	 -2.95923 	 73.9261 	 43.2528
| 25> C 	 -1.8993 	 73.3321 	 42.6906
| 26> C 	 -0.714433 	 73.3194 	 43.5287
| 27> C 	 -0.911794 	 73.8467 	 44.7963
| 28> H 	 -1.92809 	 72.8508 	 41.7304
| 29> C 	 0.583208 	 72.705 	 43.0687
| 30> H 	 0.398069 	 72.1077 	 42.1925
| 31> H 	 1.07623 	 72.095 	 43.8424
| 32> C 	 1.68171 	 73.7477 	 42.7561
| 33> H 	 2.58599 	 73.1634 	 42.4656
| 34> H 	 1.95722 	 74.29 	 43.6544
| 35> C 	 1.42489 	 74.6914 	 41.5954
| 36> H 	 0.523999 	 75.3063 	 41.7671
| 37> H 	 1.33158 	 74.1372 	 40.6245
| 38> H 	 2.27119 	 75.382 	 41.5127
| 39> H 	 2.56036 	 75.0211 	 48.1663
| 40> H 	 -3.92493 	 73.9248 	 42.8369
| 41> *
| 42>
| 43>                          ****END OF INPUT****

CARTESIAN COORDINATES (ANGSTROEM)
---------------------------------
  S      0.524590   75.323800   46.650700
  C      1.697460   74.482000   47.729700
  C      1.454440   73.133800   47.737000
  C      0.440099   72.798500   46.755500
  C      0.018885   73.814900   45.949700
  H      0.003974   71.843800   46.610100
  C      2.342020   72.015800   48.463100
  H      1.673000   71.405400   49.092000
  H      3.067550   72.390200   49.151500
  C      2.933700   70.893900   47.566600
  H      3.422730   70.137600   48.136000
  H      2.090360   70.320700   47.136200
  C      3.872950   71.490100   46.481700
  H      3.398750   72.342300   45.909500
  H      4.691380   71.992800   47.078000
  H      4.320080   70.723500   45.830000
  S     -2.539580   74.460600   44.889200
  C     -2.959230   73.926100   43.252800
  C     -1.899300   73.332100   42.690600
  C     -0.714433   73.319400   43.528700
  C     -0.911794   73.846700   44.796300
  H     -1.928090   72.850800   41.730400
  C      0.583208   72.705000   43.068700
  H      0.398069   72.107700   42.192500
  H      1.076230   72.095000   43.842400
  C      1.681710   73.747700   42.756100
  H      2.585990   73.163400   42.465600
  H      1.957220   74.290000   43.654400
  C      1.424890   74.691400   41.595400
  H      0.523999   75.306300   41.767100
  H      1.331580   74.137200   40.624500
  H      2.271190   75.382000   41.512700
  H      2.560360   75.021100   48.166300
  H     -3.924930   73.924800   42.836900

 Total Charge           Charge          ....    0
 Multiplicity           Mult            ....    1
 Number of Electrons    NEL             ....  134
 Basis Dimension        Dim             ....  322

ORBITAL ENERGIES
----------------

  NO   OCC          E(Eh)            E(eV)
   0   2.0000     -88.964372     -2420.8436
   1   2.0000     -88.961906     -2420.7765
   2   2.0000     -10.334039      -281.2035
   3   2.0000     -10.328704      -281.0583
   4   2.0000     -10.323405      -280.9141
   5   2.0000     -10.315647      -280.7030
   6   2.0000     -10.314917      -280.6832
   7   2.0000     -10.302976      -280.3582
   8   2.0000     -10.302827      -280.3542
   9   2.0000     -10.297157      -280.1999
  10   2.0000     -10.292664      -280.0776
  11   2.0000     -10.291515      -280.0464
  12   2.0000     -10.287167      -279.9281
  13   2.0000     -10.285915      -279.8940
  14   2.0000     -10.280947      -279.7588
  15   2.0000     -10.274736      -279.5898
  16   2.0000      -8.078992      -219.8405
  17   2.0000      -8.076612      -219.7758
  18   2.0000      -6.037678      -164.2936
  19   2.0000      -6.035240      -164.2272
  20   2.0000      -6.033432      -164.1780
  21   2.0000      -6.031206      -164.1175
  22   2.0000      -6.029631      -164.0746
  23   2.0000      -6.027140      -164.0068
  24   2.0000      -1.007019       -27.4024
  25   2.0000      -0.985286       -26.8110
  26   2.0000      -0.906343       -24.6629
  27   2.0000      -0.904920       -24.6241
  28   2.0000      -0.871123       -23.7044
  29   2.0000      -0.842937       -22.9375
  30   2.0000      -0.837460       -22.7884
  31   2.0000      -0.820270       -22.3207
  32   2.0000      -0.782862       -21.3028
  33   2.0000      -0.773003       -21.0345
  34   2.0000      -0.710202       -19.3256
  35   2.0000      -0.694670       -18.9029
  36   2.0000      -0.682222       -18.5642
  37   2.0000      -0.661996       -18.0138
  38   2.0000      -0.646319       -17.5872
  39   2.0000      -0.621736       -16.9183
  40   2.0000      -0.593522       -16.1506
  41   2.0000      -0.568681       -15.4746
  42   2.0000      -0.554107       -15.0780
  43   2.0000      -0.548167       -14.9164
  44   2.0000      -0.544372       -14.8131
  45   2.0000      -0.538497       -14.6532
  46   2.0000      -0.514722       -14.0063
  47   2.0000      -0.511051       -13.9064
  48   2.0000      -0.508062       -13.8251
  49   2.0000      -0.490164       -13.3380
  50   2.0000      -0.486770       -13.2457
  51   2.0000      -0.483026       -13.1438
  52   2.0000      -0.471872       -12.8403
  53   2.0000      -0.468363       -12.7448
  54   2.0000      -0.458491       -12.4762
  55   2.0000      -0.449754       -12.2384
  56   2.0000      -0.434974       -11.8363
  57   2.0000      -0.431574       -11.7437
  58   2.0000      -0.426812       -11.6142
  59   2.0000      -0.425451       -11.5771
  60   2.0000      -0.419218       -11.4075
  61   2.0000      -0.415275       -11.3002
  62   2.0000      -0.407080       -11.0772
  63   2.0000      -0.345554        -9.4030
  64   2.0000      -0.330235        -8.9862
  65   2.0000      -0.326032        -8.8718
  66   2.0000      -0.305145        -8.3034
  67   0.0000       0.037988         1.0337
  68   0.0000       0.053479         1.4552
  69   0.0000       0.108532         2.9533
  70   0.0000       0.119941         3.2638
  71   0.0000       0.126400         3.4395

MULLIKEN ATOMIC CHARGES
-----------------------
   0 S :    0.085900
   1 C :   -0.148683
   2 C :   -0.054927
   3 C :    0.059473
   4 C :   -0.183932
   5 H :    0.002879
   6 C :    0.057636
   7 H :    0.031692
   8 H :    0.023083
   9 C :   -0.074373
  10 H :    0.025720
  11 H :    0.025827
  12 C :   -0.084248
  13 H :    0.058940
  14 H :    0.027180
  15 H :    0.046312
  16 S :    0.100752
  17 C :   -0.068088
  18 C :   -0.011164
  19 C :   -0.063153
  20 C :   -0.139208
  21 H :    0.015540
  22 C :    0.104235
  23 H :    0.007489
  24 H :    0.030858
  25 C :   -0.100111
  26 H :    0.026000
  27 H :    0.035506
  28 C :   -0.060858
  29 H :    0.043718
  30 H :    0.031079
  31 H :    0.033970
  32 H :    0.070371
  33 H :    0.044584
Sum of atomic charges:    0.0000000

LOEWDIN ATOMIC CHARGES
----------------------
   0 S :    0.377322
   1 C :   -0.178788
   2 C :   -0.059832
   3 C :   -0.056032
   4 C :   -0.185112
   5 H :    0.026426
   6 C :   -0.024917
   7 H :    0.036683
   8 H :    0.023724
   9 C :   -0.043571
  10 H :    0.022067
  11 H :    0.021362
  12 C :   -0.077469
  13 H :    0.033490
  14 H :    0.028644
  15 H :    0.025872
  16 S :    0.396126
  17 C :   -0.165757
  18 C :   -0.068989
  19 C :   -0.053962
  20 C :   -0.211319
  21 H :    0.031164
  22 C :   -0.033096
  23 H :    0.023808
  24 H :    0.036182
  25 C :   -0.042076
  26 H :    0.025812
  27 H :    0.021310
  28 C :   -0.072349
  29 H :    0.026731
  30 H :    0.026411
  31 H :    0.027610
  32 H :    0.036731
  33 H :    0.025793

  Mayer bond orders larger than 0.100000
B(  0-S ,  1-C ) :   1.1224 B(  0-S ,  4-C ) :   1.1336 B(  1-C ,  2-C ) :   1.6468
B(  1-C , 32-H ) :   0.9664 B(  2-C ,  3-C ) :   1.1822 B(  2-C ,  6-C ) :   1.0109
B(  3-C ,  4-C ) :   1.6441 B(  3-C ,  5-H ) :   1.0005 B(  4-C , 20-C ) :   0.9938
B(  6-C ,  7-H ) :   0.9385 B(  6-C ,  8-H ) :   0.9558 B(  6-C ,  9-C ) :   1.0723
B(  9-C , 10-H ) :   0.9546 B(  9-C , 11-H ) :   0.9525 B(  9-C , 12-C ) :   1.0637
B( 12-C , 13-H ) :   0.9735 B( 12-C , 14-H ) :   0.9739 B( 12-C , 15-H ) :   0.9762
B( 16-S , 17-C ) :   1.1426 B( 16-S , 20-C ) :   1.1348 B( 17-C , 18-C ) :   1.6215
B( 17-C , 33-H ) :   0.9726 B( 18-C , 19-C ) :   1.2386 B( 18-C , 21-H ) :   0.9903
B( 19-C , 20-C ) :   1.6100 B( 19-C , 22-C ) :   1.0546 B( 22-C , 23-H ) :   0.9320
B( 22-C , 24-H ) :   0.9273 B( 22-C , 25-C ) :   1.0747 B( 25-C , 26-H ) :   0.9543
B( 25-C , 27-H ) :   0.9552 B( 25-C , 28-C ) :   1.0817 B( 28-C , 29-H ) :   0.9735
B( 28-C , 30-H ) :   0.9741 B( 28-C , 31-H ) :   0.9722

Dispersion correction           -0.015922964
FINAL SINGLE POINT ENERGY     -1339.881288010178

DIPOLE MOMENT
-------------
                                X             Y             Z
Electronic contribution:    -21.66004      13.32826       7.12134
Nuclear contribution   :     22.05113     -14.01098      -7.24759
                        -----------------------------------------
Total Dipole Moment    :      0.39109      -0.68272      -0.12625
                        -----------------------------------------
Magnitude (a.u.)       :      0.79686
Magnitude (Debye)      :      2.02547

Rotational constants in cm-1:     0.019504     0.009349     0.007862
Rotational constants in MHz :   584.704188   280.290574   235.688247

                             ****ORCA TERMINATED NORMALLY****
TOTAL RUN TIME: 0 days 0 hours 0 minutes 35 seconds 373 msec
