                         Program Version 4.2.1 -  RELEASE  -
|  1> ! wB97X-D3 SP def2-SVP
|  2> %pal
|  3> nprocs 16
|  4> end
|  5>
|  6> * xyz 0 1
|  7> S 	 9.74566 	 -9.4252 	 63.5975
|  8> C 	 8.57337 	 -8.72216 	 62.5281
|  9> C 	 9.105 	 -8.07634 	 61.4454
| 10> C 	 10.5703 	 -8.21941 	 61.4463
| 11> C 	 11.1014 	 -8.86454 	 62.5482
| 12> H 	 11.2785 	 -7.76455 	 60.6856
| 13> C 	 8.35582 	 -7.32649 	 60.3734
| 14> H 	 7.90822 	 -8.0546 	 59.6897
| 15> H 	 8.97955 	 -6.82181 	 59.6967
| 16> C 	 7.18449 	 -6.51165 	 60.9673
| 17> H 	 6.59163 	 -6.09199 	 60.1571
| 18> H 	 6.48217 	 -7.25108 	 61.4502
| 19> C 	 7.67815 	 -5.51234 	 61.9582
| 20> H 	 7.936 	 -5.96993 	 62.9512
| 21> H 	 8.59221 	 -4.97813 	 61.658
| 22> H 	 6.97505 	 -4.66335 	 62.1222
| 23> S 	 13.1986 	 -7.4056 	 63.498
| 24> C 	 14.7126 	 -8.16457 	 63.7537
| 25> C 	 14.6869 	 -9.45533 	 63.2889
| 26> C 	 13.4037 	 -9.93734 	 62.8669
| 27> C 	 12.4602 	 -8.90165 	 62.9941
| 28> H 	 15.5784 	 -10.1368 	 63.3193
| 29> C 	 13.11 	 -11.275 	 62.1637
| 30> H 	 12.4613 	 -11.8375 	 62.7959
| 31> H 	 14.0057 	 -11.8788 	 62.2378
| 32> C 	 12.6476 	 -11.2558 	 60.7567
| 33> H 	 13.2859 	 -10.5715 	 60.1546
| 34> H 	 11.6459 	 -10.7859 	 60.7214
| 35> C 	 12.4758 	 -12.6324 	 60.1428
| 36> H 	 11.6436 	 -13.0985 	 60.6663
| 37> H 	 13.2986 	 -13.3823 	 60.2186
| 38> H 	 12.0529 	 -12.5597 	 59.1652
| 39> H 	 7.57368 	 -8.60003 	 62.8329
| 40> H 	 15.6027 	 -7.67534 	 64.1156
| 41> *
| 42>
| 43>                          ****END OF INPUT****

CARTESIAN COORDINATES (ANGSTROEM)
---------------------------------
  S      9.745660   -9.425200   63.597500
  C      8.573370   -8.722160   62.528100
  C      9.105000   -8.076340   61.445400
  C     10.570300   -8.219410   61.446300
  C     11.101400   -8.864540   62.548200
  H     11.278500   -7.764550   60.685600
  C      8.355820   -7.326490   60.373400
  H      7.908220   -8.054600   59.689700
  H      8.979550   -6.821810   59.696700
  C      7.184490   -6.511650   60.967300
  H      6.591630   -6.091990   60.157100
  H      6.482170   -7.251080   61.450200
  C      7.678150   -5.512340   61.958200
  H      7.936000   -5.969930   62.951200
  H      8.592210   -4.978130   61.658000
  H      6.975050   -4.663350   62.122200
  S     13.198600   -7.405600   63.498000
  C     14.712600   -8.164570   63.753700
  C     14.686900   -9.455330   63.288900
  C     13.403700   -9.937340   62.866900
  C     12.460200   -8.901650   62.994100
  H     15.578400  -10.136800   63.319300
  C     13.110000  -11.275000   62.163700
  H     12.461300  -11.837500   62.795900
  H     14.005700  -11.878800   62.237800
  C     12.647600  -11.255800   60.756700
  H     13.285900  -10.571500   60.154600
  H     11.645900  -10.785900   60.721400
  C     12.475800  -12.632400   60.142800
  H     11.643600  -13.098500   60.666300
  H     13.298600  -13.382300   60.218600
  H     12.052900  -12.559700   59.165200
  H      7.573680   -8.600030   62.832900
  H     15.602700   -7.675340   64.115600

 Total Charge           Charge          ....    0
 Multiplicity           Mult            ....    1
 Number of Electrons    NEL             ....  134
 Basis Dimension        Dim             ....  322

ORBITAL ENERGIES
----------------

  NO   OCC          E(Eh)            E(eV)
   0   2.0000     -88.966699     -2420.9070
   1   2.0000     -88.962465     -2420.7917
   2   2.0000     -10.328423      -281.0507
   3   2.0000     -10.321686      -280.8673
   4   2.0000     -10.313813      -280.6531
   5   2.0000     -10.308287      -280.5027
   6   2.0000     -10.305348      -280.4228
   7   2.0000     -10.303837      -280.3817
   8   2.0000     -10.303012      -280.3592
   9   2.0000     -10.295827      -280.1637
  10   2.0000     -10.291756      -280.0529
  11   2.0000     -10.289790      -279.9994
  12   2.0000     -10.285201      -279.8746
  13   2.0000     -10.280939      -279.7586
  14   2.0000     -10.278312      -279.6871
  15   2.0000     -10.274307      -279.5781
  16   2.0000      -8.082051      -219.9238
  17   2.0000      -8.076837      -219.7819
  18   2.0000      -6.040445      -164.3689
  19   2.0000      -6.036419      -164.2593
  20   2.0000      -6.035455      -164.2331
  21   2.0000      -6.032947      -164.1648
  22   2.0000      -6.031385      -164.1223
  23   2.0000      -6.027521      -164.0172
  24   2.0000      -1.006025       -27.3753
  25   2.0000      -0.981898       -26.7188
  26   2.0000      -0.916079       -24.9278
  27   2.0000      -0.912721       -24.8364
  28   2.0000      -0.869947       -23.6724
  29   2.0000      -0.850732       -23.1496
  30   2.0000      -0.842440       -22.9239
  31   2.0000      -0.809763       -22.0348
  32   2.0000      -0.785871       -21.3846
  33   2.0000      -0.774494       -21.0751
  34   2.0000      -0.708779       -19.2868
  35   2.0000      -0.702153       -19.1066
  36   2.0000      -0.690432       -18.7876
  37   2.0000      -0.656998       -17.8778
  38   2.0000      -0.641248       -17.4492
  39   2.0000      -0.607142       -16.5212
  40   2.0000      -0.595749       -16.2112
  41   2.0000      -0.579445       -15.7675
  42   2.0000      -0.562370       -15.3029
  43   2.0000      -0.549748       -14.9594
  44   2.0000      -0.536306       -14.5936
  45   2.0000      -0.523341       -14.2408
  46   2.0000      -0.521600       -14.1934
  47   2.0000      -0.512819       -13.9545
  48   2.0000      -0.500833       -13.6284
  49   2.0000      -0.494652       -13.4602
  50   2.0000      -0.491905       -13.3854
  51   2.0000      -0.476312       -12.9611
  52   2.0000      -0.469967       -12.7884
  53   2.0000      -0.468292       -12.7429
  54   2.0000      -0.456547       -12.4233
  55   2.0000      -0.448659       -12.2086
  56   2.0000      -0.439708       -11.9651
  57   2.0000      -0.436009       -11.8644
  58   2.0000      -0.433003       -11.7826
  59   2.0000      -0.423679       -11.5289
  60   2.0000      -0.419752       -11.4220
  61   2.0000      -0.418708       -11.3936
  62   2.0000      -0.406091       -11.0503
  63   2.0000      -0.335371        -9.1259
  64   2.0000      -0.329809        -8.9746
  65   2.0000      -0.323666        -8.8074
  66   2.0000      -0.303268        -8.2524
  67   0.0000       0.042363         1.1528
  68   0.0000       0.050858         1.3839
  69   0.0000       0.111396         3.0312
  70   0.0000       0.117294         3.1917
  71   0.0000       0.134369         3.6564

MULLIKEN ATOMIC CHARGES
-----------------------
   0 S :    0.101045
   1 C :   -0.109534
   2 C :   -0.110102
   3 C :    0.018196
   4 C :   -0.185820
   5 H :    0.038818
   6 C :    0.111467
   7 H :    0.034717
   8 H :    0.003342
   9 C :   -0.093565
  10 H :    0.029407
  11 H :    0.035520
  12 C :   -0.060349
  13 H :    0.048865
  14 H :    0.028772
  15 H :    0.036110
  16 S :    0.135594
  17 C :   -0.088180
  18 C :   -0.051818
  19 C :   -0.032180
  20 C :   -0.188853
  21 H :    0.031283
  22 C :    0.123117
  23 H :    0.012365
  24 H :   -0.003349
  25 C :   -0.083432
  26 H :    0.030021
  27 H :    0.046147
  28 C :   -0.029770
  29 H :    0.015784
  30 H :    0.037688
  31 H :    0.026192
  32 H :    0.035976
  33 H :    0.056526
Sum of atomic charges:   -0.0000000

LOEWDIN ATOMIC CHARGES
----------------------
   0 S :    0.385265
   1 C :   -0.192765
   2 C :   -0.060431
   3 C :   -0.062625
   4 C :   -0.189001
   5 H :    0.041335
   6 C :   -0.029304
   7 H :    0.038458
   8 H :    0.020963
   9 C :   -0.044618
  10 H :    0.025023
  11 H :    0.028405
  12 C :   -0.078595
  13 H :    0.033830
  14 H :    0.027232
  15 H :    0.029005
  16 S :    0.437116
  17 C :   -0.200230
  18 C :   -0.079437
  19 C :   -0.045587
  20 C :   -0.214922
  21 H :    0.036454
  22 C :   -0.032038
  23 H :    0.029387
  24 H :    0.026662
  25 C :   -0.046746
  26 H :    0.024295
  27 H :    0.033158
  28 C :   -0.067993
  29 H :    0.027274
  30 H :    0.026898
  31 H :    0.026183
  32 H :    0.016106
  33 H :    0.031244

  Mayer bond orders larger than 0.100000
B(  0-S ,  1-C ) :   1.1376 B(  0-S ,  4-C ) :   1.1210 B(  1-C ,  2-C ) :   1.6405
B(  1-C , 32-H ) :   0.9639 B(  2-C ,  3-C ) :   1.2050 B(  2-C ,  6-C ) :   1.0174
B(  3-C ,  4-C ) :   1.6221 B(  3-C ,  5-H ) :   0.9815 B(  4-C , 20-C ) :   1.0474
B(  6-C ,  7-H ) :   0.9298 B(  6-C ,  8-H ) :   0.9420 B(  6-C ,  9-C ) :   1.0765
B(  9-C , 10-H ) :   0.9547 B(  9-C , 11-H ) :   0.9513 B(  9-C , 12-C ) :   1.0746
B( 12-C , 13-H ) :   0.9676 B( 12-C , 14-H ) :   0.9749 B( 12-C , 15-H ) :   0.9733
B( 16-S , 17-C ) :   1.1670 B( 16-S , 20-C ) :   1.1643 B( 17-C , 18-C ) :   1.5832
B( 17-C , 33-H ) :   0.9695 B( 18-C , 19-C ) :   1.2875 B( 18-C , 21-H ) :   0.9767
B( 19-C , 20-C ) :   1.5511 B( 19-C , 22-C ) :   1.0368 B( 22-C , 23-H ) :   0.9164
B( 22-C , 24-H ) :   0.9262 B( 22-C , 25-C ) :   1.0726 B( 25-C , 26-H ) :   0.9558
B( 25-C , 27-H ) :   0.9414 B( 25-C , 28-C ) :   1.0887 B( 28-C , 29-H ) :   0.9683
B( 28-C , 30-H ) :   0.9753 B( 28-C , 31-H ) :   0.9689

Dispersion correction           -0.015139966
FINAL SINGLE POINT ENERGY     -1339.885134683778

DIPOLE MOMENT
-------------
                                X             Y             Z
Electronic contribution:      8.99526       3.65707      15.54641
Nuclear contribution   :     -9.04555      -3.58324     -16.03018
                        -----------------------------------------
Total Dipole Moment    :     -0.05030       0.07383      -0.48378
                        -----------------------------------------
Magnitude (a.u.)       :      0.49196
Magnitude (Debye)      :      1.25045

Rotational constants in cm-1:     0.019697     0.008836     0.007134
Rotational constants in MHz :   590.491762   264.906055   213.878502

                             ****ORCA TERMINATED NORMALLY****
TOTAL RUN TIME: 0 days 0 hours 0 minutes 33 seconds 291 msec
