                         Program Version 4.2.1 -  RELEASE  -
|  1> ! wB97X-D3 SP def2-SVP
|  2> %pal
|  3> nprocs 16
|  4> end
|  5>
|  6> * xyz 0 1
|  7> S 	 -38.1051 	 20.5449 	 76.8202
|  8> C 	 -39.59 	 20.3199 	 75.9596
|  9> C 	 -40.39 	 19.4493 	 76.6452
| 10> C 	 -39.7628 	 18.776 	 77.7455
| 11> C 	 -38.5065 	 19.3181 	 78.021
| 12> H 	 -40.1209 	 17.8908 	 78.3263
| 13> C 	 -41.8205 	 19.0688 	 76.2232
| 14> H 	 -42.126 	 19.7339 	 75.4513
| 15> H 	 -42.4792 	 19.2319 	 77.0652
| 16> C 	 -41.9682 	 17.7371 	 75.5387
| 17> H 	 -42.8233 	 17.774 	 74.9779
| 18> H 	 -41.089 	 17.4834 	 74.9454
| 19> C 	 -42.1274 	 16.5426 	 76.549
| 20> H 	 -41.2971 	 16.3465 	 77.2032
| 21> H 	 -43.0743 	 16.7501 	 77.1017
| 22> H 	 -42.3057 	 15.5748 	 75.9726
| 23> S 	 -35.8026 	 18.4306 	 78.0631
| 24> C 	 -35.0501 	 18.2611 	 79.6014
| 25> C 	 -36.0347 	 17.9956 	 80.5412
| 26> C 	 -37.3694 	 18.2431 	 80.1698
| 27> C 	 -37.4105 	 18.7803 	 78.8639
| 28> H 	 -35.6916 	 17.6061 	 81.5293
| 29> C 	 -38.5302 	 17.8575 	 81.0615
| 30> H 	 -38.1932 	 16.9043 	 81.3943
| 31> H 	 -39.4032 	 17.7517 	 80.3738
| 32> C 	 -38.6709 	 18.7869 	 82.2248
| 33> H 	 -39.313 	 19.5957 	 81.825
| 34> H 	 -37.6783 	 19.1174 	 82.5671
| 35> C 	 -39.4528 	 18.2031 	 83.3417
| 36> H 	 -38.7346 	 17.48 	 83.6792
| 37> H 	 -40.3973 	 17.7451 	 83.0614
| 38> H 	 -39.7677 	 19.023 	 84.0336
| 39> H 	 -39.9822 	 20.9067 	 75.1168
| 40> H 	 -34.0093 	 18.0052 	 79.784
| 41> *
| 42>
| 43>                          ****END OF INPUT****

CARTESIAN COORDINATES (ANGSTROEM)
---------------------------------
  S    -38.105100   20.544900   76.820200
  C    -39.590000   20.319900   75.959600
  C    -40.390000   19.449300   76.645200
  C    -39.762800   18.776000   77.745500
  C    -38.506500   19.318100   78.021000
  H    -40.120900   17.890800   78.326300
  C    -41.820500   19.068800   76.223200
  H    -42.126000   19.733900   75.451300
  H    -42.479200   19.231900   77.065200
  C    -41.968200   17.737100   75.538700
  H    -42.823300   17.774000   74.977900
  H    -41.089000   17.483400   74.945400
  C    -42.127400   16.542600   76.549000
  H    -41.297100   16.346500   77.203200
  H    -43.074300   16.750100   77.101700
  H    -42.305700   15.574800   75.972600
  S    -35.802600   18.430600   78.063100
  C    -35.050100   18.261100   79.601400
  C    -36.034700   17.995600   80.541200
  C    -37.369400   18.243100   80.169800
  C    -37.410500   18.780300   78.863900
  H    -35.691600   17.606100   81.529300
  C    -38.530200   17.857500   81.061500
  H    -38.193200   16.904300   81.394300
  H    -39.403200   17.751700   80.373800
  C    -38.670900   18.786900   82.224800
  H    -39.313000   19.595700   81.825000
  H    -37.678300   19.117400   82.567100
  C    -39.452800   18.203100   83.341700
  H    -38.734600   17.480000   83.679200
  H    -40.397300   17.745100   83.061400
  H    -39.767700   19.023000   84.033600
  H    -39.982200   20.906700   75.116800
  H    -34.009300   18.005200   79.784000

 Total Charge           Charge          ....    0
 Multiplicity           Mult            ....    1
 Number of Electrons    NEL             ....  134
 Basis Dimension        Dim             ....  322

ORBITAL ENERGIES
----------------

  NO   OCC          E(Eh)            E(eV)
   0   2.0000     -88.965530     -2420.8751
   1   2.0000     -88.962657     -2420.7970
   2   2.0000     -10.334009      -281.2027
   3   2.0000     -10.333826      -281.1977
   4   2.0000     -10.314207      -280.6638
   5   2.0000     -10.313990      -280.6579
   6   2.0000     -10.304209      -280.3918
   7   2.0000     -10.301417      -280.3158
   8   2.0000     -10.300475      -280.2902
   9   2.0000     -10.292862      -280.0830
  10   2.0000     -10.292021      -280.0601
  11   2.0000     -10.285781      -279.8903
  12   2.0000     -10.283829      -279.8372
  13   2.0000     -10.282043      -279.7886
  14   2.0000     -10.280613      -279.7497
  15   2.0000     -10.275322      -279.6057
  16   2.0000      -8.080280      -219.8756
  17   2.0000      -8.076710      -219.7784
  18   2.0000      -6.038787      -164.3238
  19   2.0000      -6.035261      -164.2278
  20   2.0000      -6.034708      -164.2127
  21   2.0000      -6.031619      -164.1287
  22   2.0000      -6.031065      -164.1136
  23   2.0000      -6.027132      -164.0066
  24   2.0000      -1.003438       -27.3049
  25   2.0000      -0.984373       -26.7861
  26   2.0000      -0.923989       -25.1430
  27   2.0000      -0.913420       -24.8554
  28   2.0000      -0.866077       -23.5672
  29   2.0000      -0.855794       -23.2874
  30   2.0000      -0.841280       -22.8924
  31   2.0000      -0.810684       -22.0598
  32   2.0000      -0.785049       -21.3623
  33   2.0000      -0.772720       -21.0268
  34   2.0000      -0.702809       -19.1244
  35   2.0000      -0.699221       -19.0268
  36   2.0000      -0.690465       -18.7885
  37   2.0000      -0.655704       -17.8426
  38   2.0000      -0.639057       -17.3896
  39   2.0000      -0.616710       -16.7815
  40   2.0000      -0.596088       -16.2204
  41   2.0000      -0.581657       -15.8277
  42   2.0000      -0.573389       -15.6027
  43   2.0000      -0.545749       -14.8506
  44   2.0000      -0.539807       -14.6889
  45   2.0000      -0.528714       -14.3870
  46   2.0000      -0.520826       -14.1724
  47   2.0000      -0.516268       -14.0484
  48   2.0000      -0.505903       -13.7663
  49   2.0000      -0.501547       -13.6478
  50   2.0000      -0.491888       -13.3850
  51   2.0000      -0.485999       -13.2247
  52   2.0000      -0.478204       -13.0126
  53   2.0000      -0.468667       -12.7531
  54   2.0000      -0.453316       -12.3354
  55   2.0000      -0.443126       -12.0581
  56   2.0000      -0.437331       -11.9004
  57   2.0000      -0.432490       -11.7687
  58   2.0000      -0.431908       -11.7528
  59   2.0000      -0.425922       -11.5899
  60   2.0000      -0.419973       -11.4280
  61   2.0000      -0.412197       -11.2164
  62   2.0000      -0.408334       -11.1113
  63   2.0000      -0.349019        -9.4973
  64   2.0000      -0.331610        -9.0236
  65   2.0000      -0.320757        -8.7282
  66   2.0000      -0.288172        -7.8416
  67   0.0000       0.019521         0.5312
  68   0.0000       0.069415         1.8889
  69   0.0000       0.096595         2.6285
  70   0.0000       0.119630         3.2553
  71   0.0000       0.134281         3.6540

MULLIKEN ATOMIC CHARGES
-----------------------
   0 S :    0.110954
   1 C :   -0.114190
   2 C :   -0.121863
   3 C :    0.004880
   4 C :   -0.152548
   5 H :    0.044853
   6 C :    0.092304
   7 H :   -0.001032
   8 H :    0.030007
   9 C :   -0.029374
  10 H :    0.014583
  11 H :    0.039244
  12 C :   -0.102148
  13 H :    0.039765
  14 H :    0.031540
  15 H :    0.038841
  16 S :    0.098233
  17 C :   -0.078498
  18 C :   -0.085217
  19 C :   -0.022188
  20 C :   -0.176718
  21 H :    0.025312
  22 C :    0.099849
  23 H :    0.011644
  24 H :    0.021852
  25 C :   -0.077673
  26 H :    0.030083
  27 H :    0.040937
  28 C :   -0.028567
  29 H :    0.026198
  30 H :    0.025489
  31 H :    0.044065
  32 H :    0.058455
  33 H :    0.060929
Sum of atomic charges:    0.0000000

LOEWDIN ATOMIC CHARGES
----------------------
   0 S :    0.415083
   1 C :   -0.207647
   2 C :   -0.065217
   3 C :   -0.069843
   4 C :   -0.190737
   5 H :    0.037375
   6 C :   -0.028122
   7 H :    0.024689
   8 H :    0.029491
   9 C :   -0.028817
  10 H :    0.013957
  11 H :    0.030325
  12 C :   -0.072866
  13 H :    0.016625
  14 H :    0.025071
  15 H :    0.031428
  16 S :    0.384641
  17 C :   -0.197222
  18 C :   -0.083499
  19 C :   -0.052090
  20 C :   -0.179576
  21 H :    0.032351
  22 C :   -0.025856
  23 H :    0.026584
  24 H :    0.033695
  25 C :   -0.043966
  26 H :    0.029915
  27 H :    0.028877
  28 C :   -0.065617
  29 H :    0.023052
  30 H :    0.023146
  31 H :    0.034151
  32 H :    0.037966
  33 H :    0.032654

  Mayer bond orders larger than 0.100000
B(  0-S ,  1-C ) :   1.1363 B(  0-S ,  4-C ) :   1.1625 B(  1-C ,  2-C ) :   1.6244
B(  1-C , 32-H ) :   0.9606 B(  2-C ,  3-C ) :   1.2407 B(  2-C ,  6-C ) :   1.0318
B(  3-C ,  4-C ) :   1.5660 B(  3-C ,  5-H ) :   0.9696 B(  4-C , 20-C ) :   1.0496
B(  6-C ,  7-H ) :   0.9351 B(  6-C ,  8-H ) :   0.9407 B(  6-C ,  9-C ) :   1.0667
B(  9-C , 10-H ) :   0.9571 B(  9-C , 11-H ) :   0.9540 B(  9-C , 12-C ) :   1.0791
B( 12-C , 13-H ) :   0.9752 B( 12-C , 14-H ) :   0.9776 B( 12-C , 15-H ) :   0.9732
B( 16-S , 17-C ) :   1.1512 B( 16-S , 20-C ) :   1.1417 B( 17-C , 18-C ) :   1.5992
B( 17-C , 20-C ) :   0.1069 B( 17-C , 33-H ) :   0.9656 B( 18-C , 19-C ) :   1.2600
B( 18-C , 21-H ) :   0.9785 B( 19-C , 20-C ) :   1.5583 B( 19-C , 22-C ) :   1.0157
B( 22-C , 23-H ) :   0.9320 B( 22-C , 24-H ) :   0.9283 B( 22-C , 25-C ) :   1.0713
B( 25-C , 26-H ) :   0.9443 B( 25-C , 27-H ) :   0.9637 B( 25-C , 28-C ) :   1.0787
B( 28-C , 29-H ) :   0.9797 B( 28-C , 30-H ) :   0.9694 B( 28-C , 31-H ) :   0.9719

Dispersion correction           -0.013786156
FINAL SINGLE POINT ENERGY     -1339.847756176075

DIPOLE MOMENT
-------------
                                X             Y             Z
Electronic contribution:     22.19072      11.22800     -11.53367
Nuclear contribution   :    -22.73344     -11.62012      11.73759
                        -----------------------------------------
Total Dipole Moment    :     -0.54272      -0.39212       0.20393
                        -----------------------------------------
Magnitude (a.u.)       :      0.69992
Magnitude (Debye)      :      1.77906

Rotational constants in cm-1:     0.016647     0.008922     0.006863
Rotational constants in MHz :   499.078323   267.479653   205.736861

                             ****ORCA TERMINATED NORMALLY****
TOTAL RUN TIME: 0 days 0 hours 0 minutes 29 seconds 865 msec
