                         Program Version 4.2.1 -  RELEASE  -
|  1> ! wB97X-D3 SP def2-SVP
|  2> %pal
|  3> nprocs 16
|  4> end
|  5>
|  6> * xyz 0 1
|  7> S 	 9.08409 	 23.6086 	 66.8173
|  8> C 	 7.6033 	 23.1909 	 66.0776
|  9> C 	 7.03955 	 24.308 	 65.5203
| 10> C 	 7.70021 	 25.5002 	 65.8956
| 11> C 	 8.85271 	 25.3436 	 66.6022
| 12> H 	 7.43529 	 26.4915 	 65.5896
| 13> C 	 5.71277 	 24.3017 	 64.7154
| 14> H 	 5.78851 	 23.4638 	 64.0927
| 15> H 	 5.92111 	 25.2287 	 64.1838
| 16> C 	 4.39891 	 24.1668 	 65.4688
| 17> H 	 3.46913 	 24.3335 	 64.8171
| 18> H 	 4.13211 	 23.1502 	 65.8532
| 19> C 	 4.32123 	 25.1694 	 66.644
| 20> H 	 3.32528 	 25.1339 	 67.0538
| 21> H 	 5.16189 	 25.057 	 67.3349
| 22> H 	 4.33291 	 26.153 	 66.2234
| 23> S 	 11.3412 	 26.3258 	 66.2724
| 24> C 	 11.9137 	 27.6518 	 67.3215
| 25> C 	 10.9472 	 28.0732 	 68.2019
| 26> C 	 9.63966 	 27.3583 	 68.0572
| 27> C 	 9.84 	 26.3139 	 67.1273
| 28> H 	 11.1749 	 28.908 	 68.8814
| 29> C 	 8.51969 	 27.6362 	 68.9096
| 30> H 	 7.63324 	 27.7313 	 68.3271
| 31> H 	 8.59317 	 28.6192 	 69.3326
| 32> C 	 8.19259 	 26.6279 	 70.0337
| 33> H 	 9.02413 	 26.5283 	 70.7023
| 34> H 	 7.96707 	 25.6354 	 69.6467
| 35> C 	 6.87615 	 26.9321 	 70.8218
| 36> H 	 5.9831 	 26.9694 	 70.1807
| 37> H 	 7.06487 	 27.9277 	 71.146
| 38> H 	 6.78966 	 26.352 	 71.8027
| 39> H 	 7.29858 	 22.2098 	 65.8365
| 40> H 	 12.8779 	 28.0226 	 67.2085
| 41> *
| 42>
| 43>                          ****END OF INPUT****

CARTESIAN COORDINATES (ANGSTROEM)
---------------------------------
  S      9.084090   23.608600   66.817300
  C      7.603300   23.190900   66.077600
  C      7.039550   24.308000   65.520300
  C      7.700210   25.500200   65.895600
  C      8.852710   25.343600   66.602200
  H      7.435290   26.491500   65.589600
  C      5.712770   24.301700   64.715400
  H      5.788510   23.463800   64.092700
  H      5.921110   25.228700   64.183800
  C      4.398910   24.166800   65.468800
  H      3.469130   24.333500   64.817100
  H      4.132110   23.150200   65.853200
  C      4.321230   25.169400   66.644000
  H      3.325280   25.133900   67.053800
  H      5.161890   25.057000   67.334900
  H      4.332910   26.153000   66.223400
  S     11.341200   26.325800   66.272400
  C     11.913700   27.651800   67.321500
  C     10.947200   28.073200   68.201900
  C      9.639660   27.358300   68.057200
  C      9.840000   26.313900   67.127300
  H     11.174900   28.908000   68.881400
  C      8.519690   27.636200   68.909600
  H      7.633240   27.731300   68.327100
  H      8.593170   28.619200   69.332600
  C      8.192590   26.627900   70.033700
  H      9.024130   26.528300   70.702300
  H      7.967070   25.635400   69.646700
  C      6.876150   26.932100   70.821800
  H      5.983100   26.969400   70.180700
  H      7.064870   27.927700   71.146000
  H      6.789660   26.352000   71.802700
  H      7.298580   22.209800   65.836500
  H     12.877900   28.022600   67.208500

 Total Charge           Charge          ....    0
 Multiplicity           Mult            ....    1
 Number of Electrons    NEL             ....  134
 Basis Dimension        Dim             ....  322

ORBITAL ENERGIES
----------------

  NO   OCC          E(Eh)            E(eV)
   0   2.0000     -88.966390     -2420.8985
   1   2.0000     -88.960840     -2420.7475
   2   2.0000     -10.330727      -281.1134
   3   2.0000     -10.327247      -281.0187
   4   2.0000     -10.315819      -280.7077
   5   2.0000     -10.311391      -280.5872
   6   2.0000     -10.306429      -280.4522
   7   2.0000     -10.302630      -280.3488
   8   2.0000     -10.296152      -280.1725
   9   2.0000     -10.295055      -280.1427
  10   2.0000     -10.289256      -279.9849
  11   2.0000     -10.288515      -279.9647
  12   2.0000     -10.285521      -279.8832
  13   2.0000     -10.283154      -279.8188
  14   2.0000     -10.281032      -279.7611
  15   2.0000     -10.270731      -279.4808
  16   2.0000      -8.081205      -219.9008
  17   2.0000      -8.076298      -219.7672
  18   2.0000      -6.039752      -164.3500
  19   2.0000      -6.035767      -164.2416
  20   2.0000      -6.034681      -164.2120
  21   2.0000      -6.031851      -164.1350
  22   2.0000      -6.030554      -164.0997
  23   2.0000      -6.027278      -164.0106
  24   2.0000      -1.008586       -27.4450
  25   2.0000      -0.984196       -26.7813
  26   2.0000      -0.913620       -24.8609
  27   2.0000      -0.908537       -24.7226
  28   2.0000      -0.868746       -23.6398
  29   2.0000      -0.850470       -23.1425
  30   2.0000      -0.844784       -22.9877
  31   2.0000      -0.819799       -22.3079
  32   2.0000      -0.783911       -21.3313
  33   2.0000      -0.770979       -20.9794
  34   2.0000      -0.706379       -19.2216
  35   2.0000      -0.700826       -19.0705
  36   2.0000      -0.692324       -18.8391
  37   2.0000      -0.664641       -18.0858
  38   2.0000      -0.646597       -17.5948
  39   2.0000      -0.617490       -16.8028
  40   2.0000      -0.600429       -16.3385
  41   2.0000      -0.568055       -15.4576
  42   2.0000      -0.562219       -15.2988
  43   2.0000      -0.554838       -15.0979
  44   2.0000      -0.545376       -14.8404
  45   2.0000      -0.523620       -14.2484
  46   2.0000      -0.517777       -14.0894
  47   2.0000      -0.512426       -13.9438
  48   2.0000      -0.510461       -13.8904
  49   2.0000      -0.500023       -13.6063
  50   2.0000      -0.492599       -13.4043
  51   2.0000      -0.476863       -12.9761
  52   2.0000      -0.472560       -12.8590
  53   2.0000      -0.462784       -12.5930
  54   2.0000      -0.458024       -12.4635
  55   2.0000      -0.445358       -12.1188
  56   2.0000      -0.443299       -12.0628
  57   2.0000      -0.438790       -11.9401
  58   2.0000      -0.431086       -11.7304
  59   2.0000      -0.427848       -11.6423
  60   2.0000      -0.423793       -11.5320
  61   2.0000      -0.409490       -11.1428
  62   2.0000      -0.398263       -10.8373
  63   2.0000      -0.344327        -9.3696
  64   2.0000      -0.329687        -8.9712
  65   2.0000      -0.325120        -8.8470
  66   2.0000      -0.301802        -8.2124
  67   0.0000       0.037694         1.0257
  68   0.0000       0.062305         1.6954
  69   0.0000       0.107682         2.9302
  70   0.0000       0.122172         3.3245
  71   0.0000       0.127969         3.4822

MULLIKEN ATOMIC CHARGES
-----------------------
   0 S :    0.104657
   1 C :   -0.085394
   2 C :   -0.159593
   3 C :    0.052039
   4 C :   -0.179934
   5 H :   -0.001277
   6 C :    0.133367
   7 H :    0.010437
   8 H :    0.028137
   9 C :   -0.097851
  10 H :    0.035213
  11 H :    0.029760
  12 C :   -0.042311
  13 H :    0.024379
  14 H :    0.060408
  15 H :    0.011378
  16 S :    0.110564
  17 C :   -0.073204
  18 C :   -0.033418
  19 C :   -0.021548
  20 C :   -0.159478
  21 H :    0.031543
  22 C :    0.113095
  23 H :    0.005995
  24 H :    0.003913
  25 C :   -0.069003
  26 H :    0.024457
  27 H :    0.035015
  28 C :   -0.067109
  29 H :    0.045071
  30 H :    0.007752
  31 H :    0.053469
  32 H :    0.034441
  33 H :    0.035030
Sum of atomic charges:    0.0000000

LOEWDIN ATOMIC CHARGES
----------------------
   0 S :    0.416925
   1 C :   -0.199911
   2 C :   -0.071202
   3 C :   -0.069353
   4 C :   -0.195407
   5 H :    0.027409
   6 C :   -0.026590
   7 H :    0.023984
   8 H :    0.034611
   9 C :   -0.048087
  10 H :    0.032547
  11 H :    0.025243
  12 C :   -0.066403
  13 H :    0.024238
  14 H :    0.028767
  15 H :    0.018885
  16 S :    0.404119
  17 C :   -0.165517
  18 C :   -0.063729
  19 C :   -0.045082
  20 C :   -0.203755
  21 H :    0.036233
  22 C :   -0.040685
  23 H :    0.032089
  24 H :    0.030374
  25 C :   -0.030269
  26 H :    0.019907
  27 H :    0.023837
  28 C :   -0.071601
  29 H :    0.027815
  30 H :    0.014307
  31 H :    0.039766
  32 H :    0.022449
  33 H :    0.014086

  Mayer bond orders larger than 0.100000
B(  0-S ,  1-C ) :   1.1608 B(  0-S ,  4-C ) :   1.1576 B(  1-C ,  2-C ) :   1.5930
B(  1-C ,  4-C ) :   0.1028 B(  1-C , 32-H ) :   0.9744 B(  2-C ,  3-C ) :   1.2470
B(  2-C ,  6-C ) :   0.9980 B(  3-C ,  4-C ) :   1.5934 B(  3-C ,  5-H ) :   1.0003
B(  4-C , 20-C ) :   0.9922 B(  6-C ,  7-H ) :   0.9328 B(  6-C ,  8-H ) :   0.9450
B(  6-C ,  9-C ) :   1.0694 B(  9-C , 10-H ) :   0.9538 B(  9-C , 11-H ) :   0.9558
B(  9-C , 12-C ) :   1.0787 B( 12-C , 13-H ) :   0.9713 B( 12-C , 14-H ) :   0.9720
B( 12-C , 15-H ) :   0.9751 B( 16-S , 17-C ) :   1.1275 B( 16-S , 20-C ) :   1.1663
B( 17-C , 18-C ) :   1.6483 B( 17-C , 33-H ) :   0.9782 B( 18-C , 19-C ) :   1.1890
B( 18-C , 21-H ) :   0.9821 B( 19-C , 20-C ) :   1.5923 B( 19-C , 22-C ) :   1.0962
B( 22-C , 23-H ) :   0.9046 B( 22-C , 24-H ) :   0.9147 B( 22-C , 25-C ) :   1.0594
B( 25-C , 26-H ) :   0.9574 B( 25-C , 27-H ) :   0.9574 B( 25-C , 28-C ) :   1.0719
B( 28-C , 29-H ) :   0.9753 B( 28-C , 30-H ) :   0.9748 B( 28-C , 31-H ) :   0.9728

Dispersion correction           -0.015050330
FINAL SINGLE POINT ENERGY     -1339.864824381223

DIPOLE MOMENT
-------------
                                X             Y             Z
Electronic contribution:     26.31253      -5.22939      -9.80815
Nuclear contribution   :    -26.73803       5.58764       9.87632
                        -----------------------------------------
Total Dipole Moment    :     -0.42550       0.35825       0.06817
                        -----------------------------------------
Magnitude (a.u.)       :      0.56040
Magnitude (Debye)      :      1.42441

Rotational constants in cm-1:     0.018158     0.009625     0.007351
Rotational constants in MHz :   544.356421   288.538361   220.363524

                             ****ORCA TERMINATED NORMALLY****
TOTAL RUN TIME: 0 days 0 hours 0 minutes 36 seconds 275 msec
