                         Program Version 4.2.1 -  RELEASE  -
|  1> ! wB97X-D3 SP def2-SVP
|  2> %pal
|  3> nprocs 16
|  4> end
|  5>
|  6> * xyz 0 1
|  7> S 	 -14.424 	 31.2159 	 36.3311
|  8> C 	 -13.0733 	 32.3709 	 36.1866
|  9> C 	 -13.2512 	 33.0394 	 34.9749
| 10> C 	 -14.2106 	 32.4049 	 34.1289
| 11> C 	 -14.9075 	 31.3477 	 34.6754
| 12> H 	 -14.6212 	 32.819 	 33.1354
| 13> C 	 -12.499 	 34.2196 	 34.5023
| 14> H 	 -11.5777 	 34.1634 	 35.1224
| 15> H 	 -13.0328 	 35.1436 	 34.8557
| 16> C 	 -12.1998 	 34.3052 	 33.0138
| 17> H 	 -11.7987 	 33.3974 	 32.5683
| 18> H 	 -13.1519 	 34.4963 	 32.5225
| 19> C 	 -11.3291 	 35.4394 	 32.6232
| 20> H 	 -10.5112 	 35.2537 	 31.8788
| 21> H 	 -11.8852 	 36.1831 	 32.1058
| 22> H 	 -10.788 	 35.8465 	 33.505
| 23> S 	 -17.3096 	 30.1775 	 35.2507
| 24> C 	 -18.2936 	 29.5348 	 33.9544
| 25> C 	 -17.7044 	 29.6303 	 32.7525
| 26> C 	 -16.3953 	 30.3418 	 32.8356
| 27> C 	 -16.0357 	 30.5686 	 34.1456
| 28> H 	 -18.217 	 29.3108 	 31.8696
| 29> C 	 -15.5474 	 30.5845 	 31.5653
| 30> H 	 -15.3301 	 29.6424 	 31.0575
| 31> H 	 -14.5857 	 30.9779 	 31.9674
| 32> C 	 -16.1564 	 31.5941 	 30.5577
| 33> H 	 -17.2042 	 31.3307 	 30.4321
| 34> H 	 -15.6218 	 31.4657 	 29.6708
| 35> C 	 -15.9937 	 33.0354 	 30.8627
| 36> H 	 -16.3994 	 33.78 	 30.1062
| 37> H 	 -14.9291 	 33.208 	 31.0538
| 38> H 	 -16.5339 	 33.3446 	 31.7359
| 39> H 	 -12.4346 	 32.6372 	 37.053
| 40> H 	 -19.2231 	 28.9587 	 34.0679
| 41> *
| 42>
| 43>                          ****END OF INPUT****

CARTESIAN COORDINATES (ANGSTROEM)
---------------------------------
  S    -14.424000   31.215900   36.331100
  C    -13.073300   32.370900   36.186600
  C    -13.251200   33.039400   34.974900
  C    -14.210600   32.404900   34.128900
  C    -14.907500   31.347700   34.675400
  H    -14.621200   32.819000   33.135400
  C    -12.499000   34.219600   34.502300
  H    -11.577700   34.163400   35.122400
  H    -13.032800   35.143600   34.855700
  C    -12.199800   34.305200   33.013800
  H    -11.798700   33.397400   32.568300
  H    -13.151900   34.496300   32.522500
  C    -11.329100   35.439400   32.623200
  H    -10.511200   35.253700   31.878800
  H    -11.885200   36.183100   32.105800
  H    -10.788000   35.846500   33.505000
  S    -17.309600   30.177500   35.250700
  C    -18.293600   29.534800   33.954400
  C    -17.704400   29.630300   32.752500
  C    -16.395300   30.341800   32.835600
  C    -16.035700   30.568600   34.145600
  H    -18.217000   29.310800   31.869600
  C    -15.547400   30.584500   31.565300
  H    -15.330100   29.642400   31.057500
  H    -14.585700   30.977900   31.967400
  C    -16.156400   31.594100   30.557700
  H    -17.204200   31.330700   30.432100
  H    -15.621800   31.465700   29.670800
  C    -15.993700   33.035400   30.862700
  H    -16.399400   33.780000   30.106200
  H    -14.929100   33.208000   31.053800
  H    -16.533900   33.344600   31.735900
  H    -12.434600   32.637200   37.053000
  H    -19.223100   28.958700   34.067900

 Total Charge           Charge          ....    0
 Multiplicity           Mult            ....    1
 Number of Electrons    NEL             ....  134
 Basis Dimension        Dim             ....  322

ORBITAL ENERGIES
----------------

  NO   OCC          E(Eh)            E(eV)
   0   2.0000     -88.964684     -2420.8521
   1   2.0000     -88.961329     -2420.7608
   2   2.0000     -10.330217      -281.0995
   3   2.0000     -10.329225      -281.0725
   4   2.0000     -10.320711      -280.8408
   5   2.0000     -10.315913      -280.7103
   6   2.0000     -10.308974      -280.5214
   7   2.0000     -10.303274      -280.3663
   8   2.0000     -10.297360      -280.2054
   9   2.0000     -10.295262      -280.1483
  10   2.0000     -10.294598      -280.1303
  11   2.0000     -10.294350      -280.1235
  12   2.0000     -10.283482      -279.8278
  13   2.0000     -10.281971      -279.7867
  14   2.0000     -10.280109      -279.7360
  15   2.0000     -10.276011      -279.6245
  16   2.0000      -8.080115      -219.8711
  17   2.0000      -8.076106      -219.7620
  18   2.0000      -6.038894      -164.3266
  19   2.0000      -6.034702      -164.2126
  20   2.0000      -6.034614      -164.2102
  21   2.0000      -6.030600      -164.1010
  22   2.0000      -6.030443      -164.0967
  23   2.0000      -6.026778      -163.9970
  24   2.0000      -1.009288       -27.4641
  25   2.0000      -0.985224       -26.8093
  26   2.0000      -0.919959       -25.0333
  27   2.0000      -0.913311       -24.8525
  28   2.0000      -0.875806       -23.8319
  29   2.0000      -0.852375       -23.1943
  30   2.0000      -0.844788       -22.9878
  31   2.0000      -0.818975       -22.2854
  32   2.0000      -0.781769       -21.2730
  33   2.0000      -0.773328       -21.0433
  34   2.0000      -0.713664       -19.4198
  35   2.0000      -0.697956       -18.9923
  36   2.0000      -0.690318       -18.7845
  37   2.0000      -0.657542       -17.8926
  38   2.0000      -0.637833       -17.3563
  39   2.0000      -0.617237       -16.7959
  40   2.0000      -0.597073       -16.2472
  41   2.0000      -0.574320       -15.6280
  42   2.0000      -0.567636       -15.4462
  43   2.0000      -0.555918       -15.1273
  44   2.0000      -0.552955       -15.0467
  45   2.0000      -0.529020       -14.3954
  46   2.0000      -0.518342       -14.1048
  47   2.0000      -0.508269       -13.8307
  48   2.0000      -0.505760       -13.7624
  49   2.0000      -0.501859       -13.6563
  50   2.0000      -0.492576       -13.4037
  51   2.0000      -0.483092       -13.1456
  52   2.0000      -0.474512       -12.9121
  53   2.0000      -0.464433       -12.6379
  54   2.0000      -0.457693       -12.4545
  55   2.0000      -0.448382       -12.2011
  56   2.0000      -0.446906       -12.1609
  57   2.0000      -0.444186       -12.0869
  58   2.0000      -0.426464       -11.6047
  59   2.0000      -0.421307       -11.4643
  60   2.0000      -0.418140       -11.3782
  61   2.0000      -0.411784       -11.2052
  62   2.0000      -0.406839       -11.0706
  63   2.0000      -0.360600        -9.8124
  64   2.0000      -0.330817        -9.0020
  65   2.0000      -0.322836        -8.7848
  66   2.0000      -0.290515        -7.9053
  67   0.0000       0.024573         0.6687
  68   0.0000       0.079936         2.1752
  69   0.0000       0.103721         2.8224
  70   0.0000       0.118077         3.2130
  71   0.0000       0.134988         3.6732

MULLIKEN ATOMIC CHARGES
-----------------------
   0 S :    0.075813
   1 C :   -0.137188
   2 C :   -0.089655
   3 C :   -0.022635
   4 C :   -0.120768
   5 H :    0.007774
   6 C :    0.050162
   7 H :    0.022297
   8 H :    0.052582
   9 C :   -0.079290
  10 H :    0.035438
  11 H :    0.037685
  12 C :   -0.041969
  13 H :    0.031162
  14 H :    0.021900
  15 H :    0.032948
  16 S :    0.094644
  17 C :   -0.083488
  18 C :   -0.018302
  19 C :   -0.091961
  20 C :   -0.087615
  21 H :    0.015821
  22 C :    0.030058
  23 H :    0.042293
  24 H :    0.021982
  25 C :   -0.024149
  26 H :    0.026081
  27 H :    0.017377
  28 C :   -0.066217
  29 H :    0.045056
  30 H :    0.034615
  31 H :    0.034335
  32 H :    0.069817
  33 H :    0.063397
Sum of atomic charges:    0.0000000

LOEWDIN ATOMIC CHARGES
----------------------
   0 S :    0.394069
   1 C :   -0.197770
   2 C :   -0.064044
   3 C :   -0.089818
   4 C :   -0.190657
   5 H :    0.041437
   6 C :   -0.038387
   7 H :    0.033227
   8 H :    0.043600
   9 C :   -0.049987
  10 H :    0.028366
  11 H :    0.026135
  12 C :   -0.070924
  13 H :    0.032517
  14 H :    0.021566
  15 H :    0.029078
  16 S :    0.400818
  17 C :   -0.184038
  18 C :   -0.067957
  19 C :   -0.054917
  20 C :   -0.199731
  21 H :    0.029185
  22 C :   -0.029645
  23 H :    0.035088
  24 H :    0.030604
  25 C :   -0.036395
  26 H :    0.023075
  27 H :    0.019906
  28 C :   -0.071582
  29 H :    0.037789
  30 H :    0.022671
  31 H :    0.021157
  32 H :    0.038249
  33 H :    0.037315

  Mayer bond orders larger than 0.100000
B(  0-S ,  1-C ) :   1.1272 B(  0-S ,  4-C ) :   1.1609 B(  1-C ,  2-C ) :   1.5790
B(  1-C ,  4-C ) :   0.1034 B(  1-C , 32-H ) :   0.9696 B(  2-C ,  3-C ) :   1.2665
B(  2-C ,  6-C ) :   1.0314 B(  3-C ,  4-C ) :   1.5609 B(  3-C ,  5-H ) :   0.9570
B(  4-C , 20-C ) :   1.0359 B(  6-C ,  7-H ) :   0.9374 B(  6-C ,  8-H ) :   0.9207
B(  6-C ,  9-C ) :   1.0844 B(  9-C , 10-H ) :   0.9627 B(  9-C , 11-H ) :   0.9436
B(  9-C , 12-C ) :   1.0750 B( 12-C , 13-H ) :   0.9734 B( 12-C , 14-H ) :   0.9768
B( 12-C , 15-H ) :   0.9748 B( 16-S , 17-C ) :   1.1268 B( 16-S , 20-C ) :   1.1224
B( 17-C , 18-C ) :   1.6810 B( 17-C , 33-H ) :   0.9585 B( 18-C , 19-C ) :   1.1786
B( 18-C , 21-H ) :   0.9897 B( 19-C , 20-C ) :   1.6502 B( 19-C , 22-C ) :   1.0302
B( 22-C , 23-H ) :   0.9418 B( 22-C , 24-H ) :   0.9393 B( 22-C , 25-C ) :   1.0647
B( 25-C , 26-H ) :   0.9551 B( 25-C , 27-H ) :   0.9499 B( 25-C , 28-C ) :   1.0975
B( 28-C , 29-H ) :   0.9650 B( 28-C , 30-H ) :   0.9561 B( 28-C , 31-H ) :   0.9641

Dispersion correction           -0.014875591
FINAL SINGLE POINT ENERGY     -1339.870795211964

DIPOLE MOMENT
-------------
                                X             Y             Z
Electronic contribution:    -12.39624     -18.83654      23.42798
Nuclear contribution   :     12.42528      19.24658     -24.13354
                        -----------------------------------------
Total Dipole Moment    :      0.02905       0.41003      -0.70556
                        -----------------------------------------
Magnitude (a.u.)       :      0.81657
Magnitude (Debye)      :      2.07556

Rotational constants in cm-1:     0.018625     0.009905     0.006784
Rotational constants in MHz :   558.349046   296.957879   203.387623

                             ****ORCA TERMINATED NORMALLY****
TOTAL RUN TIME: 0 days 0 hours 0 minutes 36 seconds 307 msec
