                         Program Version 4.2.1 -  RELEASE  -
|  1> ! wB97X-D3 SP def2-SVP
|  2> %pal
|  3> nprocs 16
|  4> end
|  5>
|  6> * xyz 0 1
|  7> S 	 -53.7381 	 32.3302 	 93.9627
|  8> C 	 -55.1674 	 32.0911 	 92.9869
|  9> C 	 -55.8069 	 33.3273 	 92.6912
| 10> C 	 -55.237 	 34.449 	 93.4192
| 11> C 	 -54.0653 	 34.0747 	 94.1052
| 12> H 	 -55.567 	 35.4628 	 93.2735
| 13> C 	 -57.1024 	 33.503 	 91.9361
| 14> H 	 -56.9755 	 32.9965 	 90.9818
| 15> H 	 -57.1727 	 34.5606 	 91.6619
| 16> C 	 -58.3338 	 33.0572 	 92.7628
| 17> H 	 -58.3063 	 31.9863 	 92.9727
| 18> H 	 -58.3778 	 33.4727 	 93.7439
| 19> C 	 -59.694 	 33.3267 	 92.1593
| 20> H 	 -60.4392 	 32.8301 	 92.8037
| 21> H 	 -59.8594 	 34.3773 	 92.0066
| 22> H 	 -59.8507 	 32.8088 	 91.1677
| 23> S 	 -52.5996 	 34.4108 	 96.3899
| 24> C 	 -51.8192 	 35.9132 	 96.7098
| 25> C 	 -51.8157 	 36.7133 	 95.6074
| 26> C 	 -52.6531 	 36.2119 	 94.5478
| 27> C 	 -53.205 	 34.9628 	 94.8309
| 28> H 	 -51.1605 	 37.5459 	 95.7581
| 29> C 	 -52.8712 	 36.9851 	 93.256
| 30> H 	 -53.8162 	 36.6984 	 92.8964
| 31> H 	 -52.129 	 36.5025 	 92.6842
| 32> C 	 -52.775 	 38.5151 	 93.19
| 33> H 	 -51.7916 	 38.9672 	 93.3843
| 34> H 	 -53.4414 	 38.7676 	 94.0794
| 35> C 	 -53.4139 	 39.0715 	 91.9776
| 36> H 	 -53.4429 	 40.1435 	 92.0905
| 37> H 	 -54.3746 	 38.6695 	 91.9487
| 38> H 	 -52.9782 	 39.0503 	 90.9512
| 39> H 	 -55.2311 	 31.1789 	 92.3467
| 40> H 	 -51.2891 	 36.2235 	 97.5415
| 41> *
| 42>
| 43>                          ****END OF INPUT****

CARTESIAN COORDINATES (ANGSTROEM)
---------------------------------
  S    -53.738100   32.330200   93.962700
  C    -55.167400   32.091100   92.986900
  C    -55.806900   33.327300   92.691200
  C    -55.237000   34.449000   93.419200
  C    -54.065300   34.074700   94.105200
  H    -55.567000   35.462800   93.273500
  C    -57.102400   33.503000   91.936100
  H    -56.975500   32.996500   90.981800
  H    -57.172700   34.560600   91.661900
  C    -58.333800   33.057200   92.762800
  H    -58.306300   31.986300   92.972700
  H    -58.377800   33.472700   93.743900
  C    -59.694000   33.326700   92.159300
  H    -60.439200   32.830100   92.803700
  H    -59.859400   34.377300   92.006600
  H    -59.850700   32.808800   91.167700
  S    -52.599600   34.410800   96.389900
  C    -51.819200   35.913200   96.709800
  C    -51.815700   36.713300   95.607400
  C    -52.653100   36.211900   94.547800
  C    -53.205000   34.962800   94.830900
  H    -51.160500   37.545900   95.758100
  C    -52.871200   36.985100   93.256000
  H    -53.816200   36.698400   92.896400
  H    -52.129000   36.502500   92.684200
  C    -52.775000   38.515100   93.190000
  H    -51.791600   38.967200   93.384300
  H    -53.441400   38.767600   94.079400
  C    -53.413900   39.071500   91.977600
  H    -53.442900   40.143500   92.090500
  H    -54.374600   38.669500   91.948700
  H    -52.978200   39.050300   90.951200
  H    -55.231100   31.178900   92.346700
  H    -51.289100   36.223500   97.541500

 Total Charge           Charge          ....    0
 Multiplicity           Mult            ....    1
 Number of Electrons    NEL             ....  134
 Basis Dimension        Dim             ....  322

ORBITAL ENERGIES
----------------

  NO   OCC          E(Eh)            E(eV)
   0   2.0000     -88.969571     -2420.9851
   1   2.0000     -88.961353     -2420.7615
   2   2.0000     -10.335649      -281.2473
   3   2.0000     -10.324406      -280.9414
   4   2.0000     -10.318622      -280.7840
   5   2.0000     -10.308276      -280.5024
   6   2.0000     -10.307610      -280.4843
   7   2.0000     -10.306496      -280.4540
   8   2.0000     -10.298702      -280.2419
   9   2.0000     -10.293820      -280.1091
  10   2.0000     -10.292740      -280.0797
  11   2.0000     -10.288980      -279.9774
  12   2.0000     -10.282556      -279.8026
  13   2.0000     -10.281912      -279.7850
  14   2.0000     -10.278788      -279.7000
  15   2.0000     -10.273724      -279.5622
  16   2.0000      -8.083643      -219.9671
  17   2.0000      -8.076531      -219.7736
  18   2.0000      -6.042193      -164.4164
  19   2.0000      -6.038187      -164.3074
  20   2.0000      -6.035052      -164.2221
  21   2.0000      -6.034454      -164.2058
  22   2.0000      -6.030959      -164.1108
  23   2.0000      -6.027264      -164.0102
  24   2.0000      -1.005103       -27.3503
  25   2.0000      -0.978992       -26.6397
  26   2.0000      -0.917108       -24.9558
  27   2.0000      -0.910091       -24.7648
  28   2.0000      -0.873308       -23.7639
  29   2.0000      -0.857528       -23.3345
  30   2.0000      -0.849021       -23.1030
  31   2.0000      -0.817005       -22.2318
  32   2.0000      -0.783704       -21.3257
  33   2.0000      -0.769034       -20.9265
  34   2.0000      -0.707279       -19.2461
  35   2.0000      -0.702523       -19.1166
  36   2.0000      -0.699682       -19.0393
  37   2.0000      -0.654942       -17.8219
  38   2.0000      -0.636143       -17.3103
  39   2.0000      -0.622252       -16.9323
  40   2.0000      -0.598064       -16.2742
  41   2.0000      -0.576591       -15.6898
  42   2.0000      -0.568095       -15.4587
  43   2.0000      -0.558521       -15.1981
  44   2.0000      -0.530338       -14.4312
  45   2.0000      -0.528969       -14.3940
  46   2.0000      -0.519146       -14.1267
  47   2.0000      -0.514059       -13.9882
  48   2.0000      -0.506585       -13.7849
  49   2.0000      -0.500462       -13.6183
  50   2.0000      -0.497124       -13.5274
  51   2.0000      -0.488009       -13.2794
  52   2.0000      -0.474484       -12.9114
  53   2.0000      -0.464115       -12.6292
  54   2.0000      -0.454420       -12.3654
  55   2.0000      -0.448210       -12.1964
  56   2.0000      -0.444905       -12.1065
  57   2.0000      -0.435836       -11.8597
  58   2.0000      -0.435248       -11.8437
  59   2.0000      -0.423171       -11.5151
  60   2.0000      -0.419461       -11.4141
  61   2.0000      -0.413420       -11.2497
  62   2.0000      -0.405539       -11.0353
  63   2.0000      -0.353197        -9.6110
  64   2.0000      -0.331201        -9.0125
  65   2.0000      -0.325500        -8.8573
  66   2.0000      -0.283005        -7.7010
  67   0.0000       0.025097         0.6829
  68   0.0000       0.067005         1.8233
  69   0.0000       0.104751         2.8504
  70   0.0000       0.123662         3.3650
  71   0.0000       0.131757         3.5853

MULLIKEN ATOMIC CHARGES
-----------------------
   0 S :    0.114449
   1 C :   -0.136560
   2 C :   -0.127969
   3 C :    0.027222
   4 C :   -0.146480
   5 H :    0.022240
   6 C :    0.085402
   7 H :    0.026692
   8 H :    0.011208
   9 C :   -0.056938
  10 H :    0.023664
  11 H :    0.024544
  12 C :   -0.055186
  13 H :    0.037576
  14 H :    0.033015
  15 H :    0.027687
  16 S :    0.101121
  17 C :   -0.053978
  18 C :   -0.056701
  19 C :   -0.051623
  20 C :   -0.151924
  21 H :    0.011363
  22 C :    0.148125
  23 H :   -0.025399
  24 H :    0.030507
  25 C :   -0.090872
  26 H :    0.035975
  27 H :    0.035693
  28 C :   -0.020289
  29 H :    0.022710
  30 H :    0.015289
  31 H :    0.038530
  32 H :    0.077939
  33 H :    0.022971
Sum of atomic charges:    0.0000000

LOEWDIN ATOMIC CHARGES
----------------------
   0 S :    0.401718
   1 C :   -0.221742
   2 C :   -0.053108
   3 C :   -0.062740
   4 C :   -0.179720
   5 H :    0.028480
   6 C :   -0.033283
   7 H :    0.031781
   8 H :    0.027782
   9 C :   -0.040458
  10 H :    0.026424
  11 H :    0.025134
  12 C :   -0.068158
  13 H :    0.031561
  14 H :    0.019210
  15 H :    0.026693
  16 S :    0.405890
  17 C :   -0.178494
  18 C :   -0.077976
  19 C :   -0.044458
  20 C :   -0.205222
  21 H :    0.032359
  22 C :   -0.028449
  23 H :    0.018884
  24 H :    0.034010
  25 C :   -0.042510
  26 H :    0.023792
  27 H :    0.036579
  28 C :   -0.067086
  29 H :    0.028586
  30 H :    0.017123
  31 H :    0.031993
  32 H :    0.037885
  33 H :    0.017522

  Mayer bond orders larger than 0.100000
B(  0-S ,  1-C ) :   1.1352 B(  0-S ,  4-C ) :   1.1600 B(  1-C ,  2-C ) :   1.5864
B(  1-C ,  4-C ) :   0.1022 B(  1-C , 32-H ) :   0.9583 B(  2-C ,  3-C ) :   1.2589
B(  2-C ,  6-C ) :   1.0451 B(  3-C ,  4-C ) :   1.5458 B(  3-C ,  5-H ) :   0.9821
B(  4-C , 20-C ) :   1.0794 B(  6-C ,  7-H ) :   0.9327 B(  6-C ,  8-H ) :   0.9393
B(  6-C ,  9-C ) :   1.0546 B(  9-C , 10-H ) :   0.9532 B(  9-C , 11-H ) :   0.9547
B(  9-C , 12-C ) :   1.0930 B( 12-C , 13-H ) :   0.9721 B( 12-C , 14-H ) :   0.9761
B( 12-C , 15-H ) :   0.9728 B( 16-S , 17-C ) :   1.1571 B( 16-S , 20-C ) :   1.1243
B( 17-C , 18-C ) :   1.6388 B( 17-C , 33-H ) :   0.9695 B( 18-C , 19-C ) :   1.2031
B( 18-C , 21-H ) :   0.9984 B( 19-C , 20-C ) :   1.5918 B( 19-C , 22-C ) :   1.0223
B( 22-C , 23-H ) :   0.9291 B( 22-C , 24-H ) :   0.9084 B( 22-C , 25-C ) :   1.0695
B( 25-C , 26-H ) :   0.9482 B( 25-C , 27-H ) :   0.9545 B( 25-C , 28-C ) :   1.0946
B( 28-C , 29-H ) :   0.9676 B( 28-C , 30-H ) :   0.9700 B( 28-C , 31-H ) :   0.9724

Dispersion correction           -0.013371116
FINAL SINGLE POINT ENERGY     -1339.857119380668

DIPOLE MOMENT
-------------
                                X             Y             Z
Electronic contribution:     18.13440     -15.43805      17.13178
Nuclear contribution   :    -18.27178      15.99497     -17.59308
                        -----------------------------------------
Total Dipole Moment    :     -0.13737       0.55693      -0.46130
                        -----------------------------------------
Magnitude (a.u.)       :      0.73609
Magnitude (Debye)      :      1.87100

Rotational constants in cm-1:     0.017097     0.008147     0.006139
Rotational constants in MHz :   512.568774   244.250955   184.035154

                             ****ORCA TERMINATED NORMALLY****
TOTAL RUN TIME: 0 days 0 hours 0 minutes 29 seconds 644 msec
