                         Program Version 4.2.1 -  RELEASE  -
|  1> ! wB97X-D3 SP def2-SVP
|  2> %pal
|  3> nprocs 16
|  4> end
|  5>
|  6> * xyz 0 1
|  7> S 	 42.6243 	 14.197 	 49.064
|  8> C 	 42.3805 	 14.7733 	 50.7182
|  9> C 	 42.4743 	 13.7167 	 51.6299
| 10> C 	 42.3262 	 12.4626 	 50.9464
| 11> C 	 42.146 	 12.5871 	 49.6222
| 12> H 	 42.196 	 11.5043 	 51.2896
| 13> C 	 42.4332 	 13.8297 	 53.1316
| 14> H 	 41.5585 	 13.3603 	 53.4115
| 15> H 	 42.4451 	 14.9182 	 53.4662
| 16> C 	 43.5808 	 13.0481 	 53.8693
| 17> H 	 43.4726 	 11.9446 	 53.7018
| 18> H 	 44.5297 	 13.344 	 53.4626
| 19> C 	 43.5094 	 13.3024 	 55.4088
| 20> H 	 44.047 	 14.2323 	 55.6496
| 21> H 	 42.4115 	 13.2732 	 55.8195
| 22> H 	 44.1094 	 12.5811 	 55.9403
| 23> S 	 40.0924 	 11.3355 	 48.3572
| 24> C 	 40.2597 	 9.85069 	 47.5339
| 25> C 	 41.5331 	 9.43918 	 47.486
| 26> C 	 42.3938 	 10.2318 	 48.3739
| 27> C 	 41.7937 	 11.4455 	 48.7649
| 28> H 	 41.7013 	 8.48482 	 47.0333
| 29> C 	 43.8544 	 9.72978 	 48.71
| 30> H 	 44.647 	 10.3539 	 48.398
| 31> H 	 44.038 	 8.95154 	 47.9304
| 32> C 	 44.1265 	 9.13631 	 50.0967
| 33> H 	 44.1565 	 9.92515 	 50.8836
| 34> H 	 45.1301 	 8.69619 	 50.0399
| 35> C 	 43.0914 	 8.09006 	 50.5658
| 36> H 	 42.0964 	 8.4847 	 50.6032
| 37> H 	 43.2417 	 7.77536 	 51.6032
| 38> H 	 43.0711 	 7.24825 	 49.8784
| 39> H 	 42.4068 	 15.7806 	 51.0759
| 40> H 	 39.4671 	 9.28096 	 47.0728
| 41> *
| 42>
| 43>                          ****END OF INPUT****

CARTESIAN COORDINATES (ANGSTROEM)
---------------------------------
  S     42.624300   14.197000   49.064000
  C     42.380500   14.773300   50.718200
  C     42.474300   13.716700   51.629900
  C     42.326200   12.462600   50.946400
  C     42.146000   12.587100   49.622200
  H     42.196000   11.504300   51.289600
  C     42.433200   13.829700   53.131600
  H     41.558500   13.360300   53.411500
  H     42.445100   14.918200   53.466200
  C     43.580800   13.048100   53.869300
  H     43.472600   11.944600   53.701800
  H     44.529700   13.344000   53.462600
  C     43.509400   13.302400   55.408800
  H     44.047000   14.232300   55.649600
  H     42.411500   13.273200   55.819500
  H     44.109400   12.581100   55.940300
  S     40.092400   11.335500   48.357200
  C     40.259700    9.850690   47.533900
  C     41.533100    9.439180   47.486000
  C     42.393800   10.231800   48.373900
  C     41.793700   11.445500   48.764900
  H     41.701300    8.484820   47.033300
  C     43.854400    9.729780   48.710000
  H     44.647000   10.353900   48.398000
  H     44.038000    8.951540   47.930400
  C     44.126500    9.136310   50.096700
  H     44.156500    9.925150   50.883600
  H     45.130100    8.696190   50.039900
  C     43.091400    8.090060   50.565800
  H     42.096400    8.484700   50.603200
  H     43.241700    7.775360   51.603200
  H     43.071100    7.248250   49.878400
  H     42.406800   15.780600   51.075900
  H     39.467100    9.280960   47.072800

 Total Charge           Charge          ....    0
 Multiplicity           Mult            ....    1
 Number of Electrons    NEL             ....  134
 Basis Dimension        Dim             ....  322

ORBITAL ENERGIES
----------------

  NO   OCC          E(Eh)            E(eV)
   0   2.0000     -88.963882     -2420.8303
   1   2.0000     -88.959424     -2420.7090
   2   2.0000     -10.328140      -281.0430
   3   2.0000     -10.325012      -280.9579
   4   2.0000     -10.315944      -280.7111
   5   2.0000     -10.313743      -280.6512
   6   2.0000     -10.309736      -280.5422
   7   2.0000     -10.303003      -280.3590
   8   2.0000     -10.294746      -280.1343
   9   2.0000     -10.293874      -280.1105
  10   2.0000     -10.293611      -280.1034
  11   2.0000     -10.291576      -280.0480
  12   2.0000     -10.289991      -280.0049
  13   2.0000     -10.289876      -280.0017
  14   2.0000     -10.285049      -279.8704
  15   2.0000     -10.274229      -279.5760
  16   2.0000      -8.078134      -219.8172
  17   2.0000      -8.075349      -219.7414
  18   2.0000      -6.036785      -164.2693
  19   2.0000      -6.033784      -164.1876
  20   2.0000      -6.033169      -164.1709
  21   2.0000      -6.029611      -164.0741
  22   2.0000      -6.028307      -164.0386
  23   2.0000      -6.026169      -163.9804
  24   2.0000      -1.006995       -27.4017
  25   2.0000      -0.986121       -26.8337
  26   2.0000      -0.907616       -24.6975
  27   2.0000      -0.901938       -24.5430
  28   2.0000      -0.871935       -23.7265
  29   2.0000      -0.846561       -23.0361
  30   2.0000      -0.840154       -22.8617
  31   2.0000      -0.819682       -22.3047
  32   2.0000      -0.783869       -21.3302
  33   2.0000      -0.771870       -21.0036
  34   2.0000      -0.709659       -19.3108
  35   2.0000      -0.696923       -18.9642
  36   2.0000      -0.687816       -18.7164
  37   2.0000      -0.655463       -17.8360
  38   2.0000      -0.647381       -17.6161
  39   2.0000      -0.618670       -16.8349
  40   2.0000      -0.590749       -16.0751
  41   2.0000      -0.576721       -15.6934
  42   2.0000      -0.562758       -15.3134
  43   2.0000      -0.551748       -15.0138
  44   2.0000      -0.543748       -14.7961
  45   2.0000      -0.519448       -14.1349
  46   2.0000      -0.517020       -14.0688
  47   2.0000      -0.509142       -13.8545
  48   2.0000      -0.498848       -13.5743
  49   2.0000      -0.495976       -13.4962
  50   2.0000      -0.483519       -13.1572
  51   2.0000      -0.476165       -12.9571
  52   2.0000      -0.472763       -12.8645
  53   2.0000      -0.463857       -12.6222
  54   2.0000      -0.460349       -12.5267
  55   2.0000      -0.451818       -12.2946
  56   2.0000      -0.447194       -12.1688
  57   2.0000      -0.437871       -11.9151
  58   2.0000      -0.434813       -11.8319
  59   2.0000      -0.425957       -11.5909
  60   2.0000      -0.419973       -11.4280
  61   2.0000      -0.419619       -11.4184
  62   2.0000      -0.403776       -10.9873
  63   2.0000      -0.337429        -9.1819
  64   2.0000      -0.324721        -8.8361
  65   2.0000      -0.321163        -8.7393
  66   2.0000      -0.308719        -8.4007
  67   0.0000       0.038202         1.0395
  68   0.0000       0.058300         1.5864
  69   0.0000       0.100785         2.7425
  70   0.0000       0.122423         3.3313
  71   0.0000       0.127576         3.4715

MULLIKEN ATOMIC CHARGES
-----------------------
   0 S :    0.113850
   1 C :   -0.104214
   2 C :   -0.063176
   3 C :    0.080005
   4 C :   -0.154966
   5 H :   -0.022400
   6 C :    0.075882
   7 H :    0.018411
   8 H :    0.033247
   9 C :   -0.108440
  10 H :    0.040479
  11 H :    0.031349
  12 C :   -0.070048
  13 H :    0.037226
  14 H :    0.052708
  15 H :    0.029968
  16 S :    0.104355
  17 C :   -0.082463
  18 C :   -0.017697
  19 C :   -0.065035
  20 C :   -0.176605
  21 H :    0.015384
  22 C :    0.074041
  23 H :    0.025641
  24 H :    0.008003
  25 C :   -0.073350
  26 H :    0.033737
  27 H :    0.033703
  28 C :   -0.047488
  29 H :    0.031833
  30 H :    0.030718
  31 H :    0.027111
  32 H :    0.033883
  33 H :    0.054349
Sum of atomic charges:   -0.0000000

LOEWDIN ATOMIC CHARGES
----------------------
   0 S :    0.378998
   1 C :   -0.184430
   2 C :   -0.056276
   3 C :   -0.045094
   4 C :   -0.187661
   5 H :    0.017665
   6 C :   -0.027499
   7 H :    0.021374
   8 H :    0.036619
   9 C :   -0.038081
  10 H :    0.025944
  11 H :    0.020644
  12 C :   -0.075784
  13 H :    0.027491
  14 H :    0.038784
  15 H :    0.022639
  16 S :    0.421807
  17 C :   -0.191856
  18 C :   -0.080882
  19 C :   -0.046951
  20 C :   -0.202874
  21 H :    0.029695
  22 C :   -0.037116
  23 H :    0.027552
  24 H :    0.032938
  25 C :   -0.040191
  26 H :    0.023702
  27 H :    0.028228
  28 C :   -0.067140
  29 H :    0.022659
  30 H :    0.027433
  31 H :    0.022727
  32 H :    0.022521
  33 H :    0.032415

  Mayer bond orders larger than 0.100000
B(  0-S ,  1-C ) :   1.1196 B(  0-S ,  4-C ) :   1.1176 B(  1-C ,  2-C ) :   1.6387
B(  1-C , 32-H ) :   0.9710 B(  2-C ,  3-C ) :   1.1616 B(  2-C ,  6-C ) :   1.0401
B(  3-C ,  4-C ) :   1.6498 B(  3-C ,  5-H ) :   1.0057 B(  4-C , 20-C ) :   1.0208
B(  6-C ,  7-H ) :   0.9344 B(  6-C ,  8-H ) :   0.9477 B(  6-C ,  9-C ) :   1.0512
B(  9-C , 10-H ) :   0.9575 B(  9-C , 11-H ) :   0.9609 B(  9-C , 12-C ) :   1.0787
B( 12-C , 13-H ) :   0.9754 B( 12-C , 14-H ) :   0.9727 B( 12-C , 15-H ) :   0.9746
B( 16-S , 17-C ) :   1.1672 B( 16-S , 20-C ) :   1.1426 B( 17-C , 18-C ) :   1.6431
B( 17-C , 33-H ) :   0.9615 B( 18-C , 19-C ) :   1.2230 B( 18-C , 21-H ) :   0.9848
B( 19-C , 20-C ) :   1.6099 B( 19-C , 22-C ) :   1.0154 B( 22-C , 23-H ) :   0.9422
B( 22-C , 24-H ) :   0.9345 B( 22-C , 25-C ) :   1.0737 B( 25-C , 26-H ) :   0.9552
B( 25-C , 27-H ) :   0.9529 B( 25-C , 28-C ) :   1.0776 B( 28-C , 29-H ) :   0.9708
B( 28-C , 30-H ) :   0.9737 B( 28-C , 31-H ) :   0.9765

Dispersion correction           -0.014881677
FINAL SINGLE POINT ENERGY     -1339.850132370397

DIPOLE MOMENT
-------------
                                X             Y             Z
Electronic contribution:    -12.45699      11.54018     -23.29638
Nuclear contribution   :     12.72243     -12.02064      23.82333
                        -----------------------------------------
Total Dipole Moment    :      0.26544      -0.48046       0.52694
                        -----------------------------------------
Magnitude (a.u.)       :      0.76090
Magnitude (Debye)      :      1.93405

Rotational constants in cm-1:     0.018180     0.008860     0.007002
Rotational constants in MHz :   545.017672   265.625859   209.905623

                             ****ORCA TERMINATED NORMALLY****
TOTAL RUN TIME: 0 days 0 hours 0 minutes 35 seconds 488 msec
