                         Program Version 4.2.1 -  RELEASE  -
|  1> ! wB97X-D3 SP def2-SVP
|  2> %pal
|  3> nprocs 16
|  4> end
|  5>
|  6> * xyz 0 1
|  7> S 	 49.8673 	 23.7684 	 43.1037
|  8> C 	 48.6521 	 24.6287 	 42.2124
|  9> C 	 47.585 	 24.9996 	 42.9632
| 10> C 	 47.7398 	 24.5948 	 44.3622
| 11> C 	 48.907 	 23.9646 	 44.6342
| 12> H 	 46.9992 	 24.8222 	 45.2286
| 13> C 	 46.2349 	 25.6116 	 42.5
| 14> H 	 46.4358 	 26.3631 	 41.7484
| 15> H 	 45.6537 	 26.0635 	 43.3089
| 16> C 	 45.1639 	 24.701 	 41.7944
| 17> H 	 44.9967 	 23.9073 	 42.5536
| 18> H 	 44.1893 	 25.2063 	 41.5755
| 19> C 	 45.5837 	 24.0748 	 40.5162
| 20> H 	 46.5198 	 23.6142 	 40.6049
| 21> H 	 44.8924 	 23.2897 	 40.2644
| 22> H 	 45.5533 	 24.8834 	 39.8003
| 23> S 	 51.2563 	 24.1801 	 46.162
| 24> C 	 51.2458 	 23.6657 	 47.8085
| 25> C 	 50.0436 	 23.3214 	 48.2381
| 26> C 	 49.105 	 23.2149 	 47.1388
| 27> C 	 49.5465 	 23.7504 	 45.925
| 28> H 	 49.8543 	 23.012 	 49.2573
| 29> C 	 47.6157 	 22.8691 	 47.4327
| 30> H 	 46.9912 	 23.4684 	 46.8675
| 31> H 	 47.4333 	 23.2196 	 48.5153
| 32> C 	 47.0939 	 21.4425 	 47.1347
| 33> H 	 47.6624 	 21.2539 	 46.2339
| 34> H 	 46.0446 	 21.194 	 46.8303
| 35> C 	 47.4761 	 20.4877 	 48.3071
| 36> H 	 47.2351 	 20.8627 	 49.304
| 37> H 	 48.5243 	 20.3908 	 48.1796
| 38> H 	 47.0628 	 19.5071 	 48.1556
| 39> H 	 48.7455 	 24.7809 	 41.0946
| 40> H 	 52.0256 	 23.9302 	 48.5812
| 41> *
| 42>
| 43>                          ****END OF INPUT****

CARTESIAN COORDINATES (ANGSTROEM)
---------------------------------
  S     49.867300   23.768400   43.103700
  C     48.652100   24.628700   42.212400
  C     47.585000   24.999600   42.963200
  C     47.739800   24.594800   44.362200
  C     48.907000   23.964600   44.634200
  H     46.999200   24.822200   45.228600
  C     46.234900   25.611600   42.500000
  H     46.435800   26.363100   41.748400
  H     45.653700   26.063500   43.308900
  C     45.163900   24.701000   41.794400
  H     44.996700   23.907300   42.553600
  H     44.189300   25.206300   41.575500
  C     45.583700   24.074800   40.516200
  H     46.519800   23.614200   40.604900
  H     44.892400   23.289700   40.264400
  H     45.553300   24.883400   39.800300
  S     51.256300   24.180100   46.162000
  C     51.245800   23.665700   47.808500
  C     50.043600   23.321400   48.238100
  C     49.105000   23.214900   47.138800
  C     49.546500   23.750400   45.925000
  H     49.854300   23.012000   49.257300
  C     47.615700   22.869100   47.432700
  H     46.991200   23.468400   46.867500
  H     47.433300   23.219600   48.515300
  C     47.093900   21.442500   47.134700
  H     47.662400   21.253900   46.233900
  H     46.044600   21.194000   46.830300
  C     47.476100   20.487700   48.307100
  H     47.235100   20.862700   49.304000
  H     48.524300   20.390800   48.179600
  H     47.062800   19.507100   48.155600
  H     48.745500   24.780900   41.094600
  H     52.025600   23.930200   48.581200

 Total Charge           Charge          ....    0
 Multiplicity           Mult            ....    1
 Number of Electrons    NEL             ....  134
 Basis Dimension        Dim             ....  322

ORBITAL ENERGIES
----------------

  NO   OCC          E(Eh)            E(eV)
   0   2.0000     -88.968433     -2420.9541
   1   2.0000     -88.965551     -2420.8757
   2   2.0000     -10.337470      -281.2969
   3   2.0000     -10.334809      -281.2245
   4   2.0000     -10.324097      -280.9329
   5   2.0000     -10.314934      -280.6836
   6   2.0000     -10.311000      -280.5766
   7   2.0000     -10.309349      -280.5316
   8   2.0000     -10.308186      -280.5000
   9   2.0000     -10.297540      -280.2103
  10   2.0000     -10.293357      -280.0965
  11   2.0000     -10.291471      -280.0452
  12   2.0000     -10.288342      -279.9600
  13   2.0000     -10.286730      -279.9162
  14   2.0000     -10.269228      -279.4399
  15   2.0000     -10.266437      -279.3640
  16   2.0000      -8.082793      -219.9440
  17   2.0000      -8.080443      -219.8800
  18   2.0000      -6.041487      -164.3972
  19   2.0000      -6.039076      -164.3316
  20   2.0000      -6.037464      -164.2878
  21   2.0000      -6.034944      -164.2192
  22   2.0000      -6.033240      -164.1728
  23   2.0000      -6.030997      -164.1118
  24   2.0000      -1.008482       -27.4422
  25   2.0000      -0.987948       -26.8834
  26   2.0000      -0.910823       -24.7847
  27   2.0000      -0.903237       -24.5783
  28   2.0000      -0.877907       -23.8891
  29   2.0000      -0.851581       -23.1727
  30   2.0000      -0.842435       -22.9238
  31   2.0000      -0.821129       -22.3440
  32   2.0000      -0.785939       -21.3865
  33   2.0000      -0.774421       -21.0731
  34   2.0000      -0.710341       -19.3294
  35   2.0000      -0.689318       -18.7573
  36   2.0000      -0.687362       -18.7041
  37   2.0000      -0.659439       -17.9443
  38   2.0000      -0.638434       -17.3727
  39   2.0000      -0.618831       -16.8393
  40   2.0000      -0.592438       -16.1211
  41   2.0000      -0.575596       -15.6628
  42   2.0000      -0.556737       -15.1496
  43   2.0000      -0.552901       -15.0452
  44   2.0000      -0.546847       -14.8805
  45   2.0000      -0.537284       -14.6202
  46   2.0000      -0.516703       -14.0602
  47   2.0000      -0.515308       -14.0222
  48   2.0000      -0.504542       -13.7293
  49   2.0000      -0.492944       -13.4137
  50   2.0000      -0.488428       -13.2908
  51   2.0000      -0.484162       -13.1747
  52   2.0000      -0.472631       -12.8610
  53   2.0000      -0.466718       -12.7000
  54   2.0000      -0.462659       -12.5896
  55   2.0000      -0.445493       -12.1225
  56   2.0000      -0.443898       -12.0791
  57   2.0000      -0.436482       -11.8773
  58   2.0000      -0.431944       -11.7538
  59   2.0000      -0.425041       -11.5660
  60   2.0000      -0.414323       -11.2743
  61   2.0000      -0.408627       -11.1193
  62   2.0000      -0.398481       -10.8432
  63   2.0000      -0.364072        -9.9069
  64   2.0000      -0.332507        -9.0480
  65   2.0000      -0.331100        -9.0097
  66   2.0000      -0.296634        -8.0718
  67   0.0000       0.024388         0.6636
  68   0.0000       0.069263         1.8847
  69   0.0000       0.102255         2.7825
  70   0.0000       0.113937         3.1004
  71   0.0000       0.126332         3.4377

MULLIKEN ATOMIC CHARGES
-----------------------
   0 S :    0.097091
   1 C :   -0.146586
   2 C :   -0.070098
   3 C :   -0.019208
   4 C :   -0.132395
   5 H :    0.065256
   6 C :    0.068644
   7 H :    0.017860
   8 H :    0.030927
   9 C :   -0.114497
  10 H :    0.022854
  11 H :    0.040464
  12 C :   -0.008941
  13 H :    0.018817
  14 H :    0.030545
  15 H :    0.023003
  16 S :    0.098588
  17 C :   -0.087660
  18 C :   -0.026597
  19 C :   -0.063867
  20 C :   -0.131689
  21 H :    0.025504
  22 C :    0.054740
  23 H :   -0.011590
  24 H :    0.030430
  25 C :   -0.090386
  26 H :    0.030592
  27 H :    0.040228
  28 C :   -0.030571
  29 H :    0.031313
  30 H :    0.023605
  31 H :    0.026150
  32 H :    0.079752
  33 H :    0.077723
Sum of atomic charges:    0.0000000

LOEWDIN ATOMIC CHARGES
----------------------
   0 S :    0.377258
   1 C :   -0.196285
   2 C :   -0.069290
   3 C :   -0.063173
   4 C :   -0.175189
   5 H :    0.050602
   6 C :   -0.031213
   7 H :    0.024917
   8 H :    0.032979
   9 C :   -0.045021
  10 H :    0.020361
  11 H :    0.030107
  12 C :   -0.061032
  13 H :    0.015822
  14 H :    0.028786
  15 H :    0.023169
  16 S :    0.400191
  17 C :   -0.199124
  18 C :   -0.075386
  19 C :   -0.057039
  20 C :   -0.187398
  21 H :    0.034501
  22 C :   -0.029518
  23 H :    0.013486
  24 H :    0.033593
  25 C :   -0.044406
  26 H :    0.026794
  27 H :    0.027432
  28 C :   -0.063752
  29 H :    0.022716
  30 H :    0.022777
  31 H :    0.021200
  32 H :    0.043547
  33 H :    0.047589

  Mayer bond orders larger than 0.100000
B(  0-S ,  1-C ) :   1.1303 B(  0-S ,  4-C ) :   1.1088 B(  1-C ,  2-C ) :   1.6571
B(  1-C , 32-H ) :   0.9525 B(  2-C ,  3-C ) :   1.2051 B(  2-C ,  6-C ) :   1.0216
B(  3-C ,  4-C ) :   1.6368 B(  3-C ,  5-H ) :   0.9631 B(  4-C , 20-C ) :   1.0549
B(  6-C ,  7-H ) :   0.9413 B(  6-C ,  8-H ) :   0.9461 B(  6-C ,  9-C ) :   1.0593
B(  9-C , 10-H ) :   0.9547 B(  9-C , 11-H ) :   0.9573 B(  9-C , 12-C ) :   1.0905
B( 12-C , 13-H ) :   0.9701 B( 12-C , 14-H ) :   0.9688 B( 12-C , 15-H ) :   0.9759
B( 16-S , 17-C ) :   1.1473 B( 16-S , 20-C ) :   1.1216 B( 17-C , 18-C ) :   1.6522
B( 17-C , 33-H ) :   0.9480 B( 18-C , 19-C ) :   1.2281 B( 18-C , 21-H ) :   0.9853
B( 19-C , 20-C ) :   1.6092 B( 19-C , 22-C ) :   1.0328 B( 22-C , 23-H ) :   0.9389
B( 22-C , 24-H ) :   0.9486 B( 22-C , 25-C ) :   1.0337 B( 25-C , 26-H ) :   0.9581
B( 25-C , 27-H ) :   0.9664 B( 25-C , 28-C ) :   1.0682 B( 28-C , 29-H ) :   0.9797
B( 28-C , 30-H ) :   0.9785 B( 28-C , 31-H ) :   0.9764

Dispersion correction           -0.014169627
FINAL SINGLE POINT ENERGY     -1339.852074118625

DIPOLE MOMENT
-------------
                                X             Y             Z
Electronic contribution:     25.52819       6.87839       0.94335
Nuclear contribution   :    -26.13657      -6.76138      -0.82802
                        -----------------------------------------
Total Dipole Moment    :     -0.60838       0.11701       0.11533
                        -----------------------------------------
Magnitude (a.u.)       :      0.63017
Magnitude (Debye)      :      1.60177

Rotational constants in cm-1:     0.020193     0.008127     0.006399
Rotational constants in MHz :   605.381213   243.634922   191.826332

                             ****ORCA TERMINATED NORMALLY****
TOTAL RUN TIME: 0 days 0 hours 0 minutes 34 seconds 116 msec
