                         Program Version 4.2.1 -  RELEASE  -
|  1> ! wB97X-D3 SP def2-SVP
|  2> %pal
|  3> nprocs 16
|  4> end
|  5>
|  6> * xyz 0 1
|  7> S 	 10.0544 	 24.7913 	 45.9567
|  8> C 	 9.58323 	 23.1458 	 46.3958
|  9> C 	 10.34 	 22.2563 	 45.6418
| 10> C 	 11.3648 	 22.88 	 44.818
| 11> C 	 11.3347 	 24.2391 	 44.84
| 12> H 	 12.0659 	 22.2893 	 44.1939
| 13> C 	 10.3553 	 20.764 	 45.7578
| 14> H 	 10.9089 	 20.2614 	 44.9342
| 15> H 	 9.30543 	 20.6221 	 45.6249
| 16> C 	 10.7354 	 20.1526 	 47.0932
| 17> H 	 10.0814 	 20.597 	 47.8813
| 18> H 	 10.609 	 19.0809 	 46.9846
| 19> C 	 12.2292 	 20.4301 	 47.4512
| 20> H 	 12.9715 	 20.1977 	 46.6146
| 21> H 	 12.3969 	 21.5495 	 47.72
| 22> H 	 12.5058 	 19.8325 	 48.2716
| 23> S 	 13.4963 	 26.0484 	 44.9539
| 24> C 	 13.7328 	 27.0496 	 43.5773
| 25> C 	 13.0197 	 26.5786 	 42.4928
| 26> C 	 12.1299 	 25.4969 	 42.7577
| 27> C 	 12.1275 	 25.2077 	 44.1055
| 28> H 	 13.2158 	 27.0831 	 41.5346
| 29> C 	 11.3782 	 24.6865 	 41.7398
| 30> H 	 11.7009 	 23.624 	 41.8777
| 31> H 	 11.7469 	 24.9902 	 40.753
| 32> C 	 9.79531 	 24.8779 	 41.9523
| 33> H 	 9.67814 	 25.9167 	 41.703
| 34> H 	 9.4542 	 24.6207 	 42.931
| 35> C 	 8.88314 	 24.0856 	 41.0327
| 36> H 	 7.79728 	 24.1638 	 41.1747
| 37> H 	 9.13695 	 23.052 	 41.2595
| 38> H 	 9.0775 	 24.2433 	 39.9832
| 39> H 	 8.85941 	 22.8737 	 47.118
| 40> H 	 14.4863 	 27.8213 	 43.5153
| 41> *
| 42>
| 43>                          ****END OF INPUT****

CARTESIAN COORDINATES (ANGSTROEM)
---------------------------------
  S     10.054400   24.791300   45.956700
  C      9.583230   23.145800   46.395800
  C     10.340000   22.256300   45.641800
  C     11.364800   22.880000   44.818000
  C     11.334700   24.239100   44.840000
  H     12.065900   22.289300   44.193900
  C     10.355300   20.764000   45.757800
  H     10.908900   20.261400   44.934200
  H      9.305430   20.622100   45.624900
  C     10.735400   20.152600   47.093200
  H     10.081400   20.597000   47.881300
  H     10.609000   19.080900   46.984600
  C     12.229200   20.430100   47.451200
  H     12.971500   20.197700   46.614600
  H     12.396900   21.549500   47.720000
  H     12.505800   19.832500   48.271600
  S     13.496300   26.048400   44.953900
  C     13.732800   27.049600   43.577300
  C     13.019700   26.578600   42.492800
  C     12.129900   25.496900   42.757700
  C     12.127500   25.207700   44.105500
  H     13.215800   27.083100   41.534600
  C     11.378200   24.686500   41.739800
  H     11.700900   23.624000   41.877700
  H     11.746900   24.990200   40.753000
  C      9.795310   24.877900   41.952300
  H      9.678140   25.916700   41.703000
  H      9.454200   24.620700   42.931000
  C      8.883140   24.085600   41.032700
  H      7.797280   24.163800   41.174700
  H      9.136950   23.052000   41.259500
  H      9.077500   24.243300   39.983200
  H      8.859410   22.873700   47.118000
  H     14.486300   27.821300   43.515300

 Total Charge           Charge          ....    0
 Multiplicity           Mult            ....    1
 Number of Electrons    NEL             ....  134
 Basis Dimension        Dim             ....  322

ORBITAL ENERGIES
----------------

  NO   OCC          E(Eh)            E(eV)
   0   2.0000     -88.963626     -2420.8233
   1   2.0000     -88.963520     -2420.8204
   2   2.0000     -10.329293      -281.0744
   3   2.0000     -10.324622      -280.9472
   4   2.0000     -10.316765      -280.7334
   5   2.0000     -10.315447      -280.6976
   6   2.0000     -10.304456      -280.3985
   7   2.0000     -10.302242      -280.3383
   8   2.0000     -10.300946      -280.3030
   9   2.0000     -10.297255      -280.2026
  10   2.0000     -10.293939      -280.1123
  11   2.0000     -10.292072      -280.0615
  12   2.0000     -10.286915      -279.9212
  13   2.0000     -10.283841      -279.8376
  14   2.0000     -10.282615      -279.8042
  15   2.0000     -10.270773      -279.4819
  16   2.0000      -8.078119      -219.8168
  17   2.0000      -8.077218      -219.7923
  18   2.0000      -6.036545      -164.2628
  19   2.0000      -6.035884      -164.2448
  20   2.0000      -6.032797      -164.1607
  21   2.0000      -6.031774      -164.1329
  22   2.0000      -6.028834      -164.0529
  23   2.0000      -6.027934      -164.0284
  24   2.0000      -1.002400       -27.2767
  25   2.0000      -0.981246       -26.7011
  26   2.0000      -0.913210       -24.8497
  27   2.0000      -0.903729       -24.5917
  28   2.0000      -0.866220       -23.5710
  29   2.0000      -0.851847       -23.1799
  30   2.0000      -0.840708       -22.8768
  31   2.0000      -0.812382       -22.1060
  32   2.0000      -0.782322       -21.2881
  33   2.0000      -0.769307       -20.9339
  34   2.0000      -0.707347       -19.2479
  35   2.0000      -0.700523       -19.0622
  36   2.0000      -0.690812       -18.7980
  37   2.0000      -0.656730       -17.8705
  38   2.0000      -0.640458       -17.4278
  39   2.0000      -0.610485       -16.6121
  40   2.0000      -0.589220       -16.0335
  41   2.0000      -0.576934       -15.6992
  42   2.0000      -0.569525       -15.4976
  43   2.0000      -0.550808       -14.9883
  44   2.0000      -0.544237       -14.8094
  45   2.0000      -0.520616       -14.1667
  46   2.0000      -0.517665       -14.0864
  47   2.0000      -0.511085       -13.9073
  48   2.0000      -0.499398       -13.5893
  49   2.0000      -0.497369       -13.5341
  50   2.0000      -0.487773       -13.2730
  51   2.0000      -0.476184       -12.9576
  52   2.0000      -0.471038       -12.8176
  53   2.0000      -0.464248       -12.6328
  54   2.0000      -0.458176       -12.4676
  55   2.0000      -0.443136       -12.0584
  56   2.0000      -0.440759       -11.9937
  57   2.0000      -0.434876       -11.8336
  58   2.0000      -0.432533       -11.7698
  59   2.0000      -0.425556       -11.5800
  60   2.0000      -0.422735       -11.5032
  61   2.0000      -0.411540       -11.1986
  62   2.0000      -0.406548       -11.0627
  63   2.0000      -0.335743        -9.1360
  64   2.0000      -0.328998        -8.9525
  65   2.0000      -0.319397        -8.6912
  66   2.0000      -0.305453        -8.3118
  67   0.0000       0.033008         0.8982
  68   0.0000       0.055153         1.5008
  69   0.0000       0.106418         2.8958
  70   0.0000       0.115680         3.1478
  71   0.0000       0.131796         3.5864

MULLIKEN ATOMIC CHARGES
-----------------------
   0 S :    0.103223
   1 C :   -0.115733
   2 C :   -0.104186
   3 C :    0.041765
   4 C :   -0.176260
   5 H :    0.026496
   6 C :    0.051961
   7 H :    0.027453
   8 H :    0.024340
   9 C :   -0.054579
  10 H :    0.034557
  11 H :    0.035479
  12 C :   -0.092740
  13 H :    0.035239
  14 H :    0.058761
  15 H :    0.029573
  16 S :    0.110170
  17 C :   -0.080603
  18 C :   -0.065090
  19 C :    0.010064
  20 C :   -0.195645
  21 H :    0.021420
  22 C :    0.080420
  23 H :    0.034705
  24 H :    0.017895
  25 C :   -0.068717
  26 H :    0.028318
  27 H :    0.047104
  28 C :   -0.036181
  29 H :    0.040599
  30 H :    0.016506
  31 H :    0.019817
  32 H :    0.039134
  33 H :    0.054734
Sum of atomic charges:   -0.0000000

LOEWDIN ATOMIC CHARGES
----------------------
   0 S :    0.387728
   1 C :   -0.190695
   2 C :   -0.060987
   3 C :   -0.063456
   4 C :   -0.184743
   5 H :    0.036829
   6 C :   -0.042330
   7 H :    0.031959
   8 H :    0.032144
   9 C :   -0.036869
  10 H :    0.028359
  11 H :    0.025449
  12 C :   -0.076486
  13 H :    0.029194
  14 H :    0.039030
  15 H :    0.015732
  16 S :    0.393217
  17 C :   -0.187983
  18 C :   -0.081563
  19 C :   -0.046927
  20 C :   -0.189596
  21 H :    0.033484
  22 C :   -0.025441
  23 H :    0.033745
  24 H :    0.029508
  25 C :   -0.028049
  26 H :    0.022037
  27 H :    0.023041
  28 C :   -0.069543
  29 H :    0.029565
  30 H :    0.022996
  31 H :    0.018367
  32 H :    0.023236
  33 H :    0.029044

  Mayer bond orders larger than 0.100000
B(  0-S ,  1-C ) :   1.1241 B(  0-S ,  4-C ) :   1.1357 B(  1-C ,  2-C ) :   1.6123
B(  1-C , 32-H ) :   0.9789 B(  2-C ,  3-C ) :   1.2167 B(  2-C ,  6-C ) :   1.0101
B(  3-C ,  4-C ) :   1.6088 B(  3-C ,  5-H ) :   0.9891 B(  4-C , 20-C ) :   1.0272
B(  6-C ,  7-H ) :   0.9454 B(  6-C ,  8-H ) :   0.9269 B(  6-C ,  9-C ) :   1.0925
B(  9-C , 10-H ) :   0.9512 B(  9-C , 11-H ) :   0.9537 B(  9-C , 12-C ) :   1.0698
B( 12-C , 13-H ) :   0.9750 B( 12-C , 14-H ) :   0.9734 B( 12-C , 15-H ) :   0.9767
B( 16-S , 17-C ) :   1.1588 B( 16-S , 20-C ) :   1.1385 B( 17-C , 18-C ) :   1.6123
B( 17-C , 20-C ) :   0.1024 B( 17-C , 33-H ) :   0.9665 B( 18-C , 19-C ) :   1.2297
B( 18-C , 21-H ) :   0.9876 B( 19-C , 20-C ) :   1.5906 B( 19-C , 22-C ) :   1.0393
B( 22-C , 23-H ) :   0.9330 B( 22-C , 24-H ) :   0.9341 B( 22-C , 25-C ) :   1.0420
B( 25-C , 26-H ) :   0.9579 B( 25-C , 27-H ) :   0.9602 B( 25-C , 28-C ) :   1.0865
B( 28-C , 29-H ) :   0.9748 B( 28-C , 30-H ) :   0.9731 B( 28-C , 31-H ) :   0.9738

Dispersion correction           -0.015364524
FINAL SINGLE POINT ENERGY     -1339.874373948171

DIPOLE MOMENT
-------------
                                X             Y             Z
Electronic contribution:      7.56730      19.02557       7.15440
Nuclear contribution   :     -7.55743     -19.54690      -7.50018
                        -----------------------------------------
Total Dipole Moment    :      0.00987      -0.52133      -0.34579
                        -----------------------------------------
Magnitude (a.u.)       :      0.62566
Magnitude (Debye)      :      1.59030

Rotational constants in cm-1:     0.018562     0.009210     0.007440
Rotational constants in MHz :   556.482089   276.109665   223.036509

                             ****ORCA TERMINATED NORMALLY****
TOTAL RUN TIME: 0 days 0 hours 0 minutes 37 seconds 770 msec
