                         Program Version 4.2.1 -  RELEASE  -
|  1> ! wB97X-D3 SP def2-SVP
|  2> %pal
|  3> nprocs 16
|  4> end
|  5>
|  6> * xyz 0 1
|  7> S 	 36.4017 	 30.8464 	 53.7464
|  8> C 	 36.0227 	 32.4441 	 53.4788
|  9> C 	 35.0046 	 32.8438 	 54.2766
| 10> C 	 34.469 	 31.7542 	 55.0738
| 11> C 	 35.0687 	 30.568 	 54.8043
| 12> H 	 33.8322 	 31.9235 	 55.8954
| 13> C 	 34.524 	 34.2519 	 54.4382
| 14> H 	 35.3024 	 34.9511 	 54.4771
| 15> H 	 33.9182 	 34.3271 	 55.289
| 16> C 	 33.6916 	 34.7395 	 53.2365
| 17> H 	 34.2386 	 34.863 	 52.28
| 18> H 	 32.9619 	 33.9465 	 52.8868
| 19> C 	 32.8432 	 36.0964 	 53.4661
| 20> H 	 32.0273 	 36.0605 	 54.2449
| 21> H 	 33.5475 	 36.9246 	 53.6141
| 22> H 	 32.289 	 36.3673 	 52.5193
| 23> S 	 33.1282 	 28.7447 	 55.419
| 24> C 	 33.5286 	 27.4903 	 56.569
| 25> C 	 34.8476 	 27.4672 	 56.9004
| 26> C 	 35.6114 	 28.6238 	 56.5056
| 27> C 	 34.8187 	 29.3785 	 55.599
| 28> H 	 35.289 	 26.6994 	 57.4246
| 29> C 	 37.065 	 28.8121 	 56.899
| 30> H 	 37.5139 	 29.0241 	 55.9638
| 31> H 	 37.4506 	 27.8197 	 57.178
| 32> C 	 37.335 	 29.8135 	 58.004
| 33> H 	 36.8737 	 29.5314 	 58.9736
| 34> H 	 36.9705 	 30.8121 	 57.6548
| 35> C 	 38.8995 	 29.8957 	 58.3318
| 36> H 	 39.0044 	 30.5462 	 59.1359
| 37> H 	 39.5601 	 30.1775 	 57.5435
| 38> H 	 39.2457 	 28.9421 	 58.7256
| 39> H 	 36.5139 	 33.0518 	 52.7333
| 40> H 	 32.8099 	 26.7829 	 56.8023
| 41> *
| 42>
| 43>                          ****END OF INPUT****

CARTESIAN COORDINATES (ANGSTROEM)
---------------------------------
  S     36.401700   30.846400   53.746400
  C     36.022700   32.444100   53.478800
  C     35.004600   32.843800   54.276600
  C     34.469000   31.754200   55.073800
  C     35.068700   30.568000   54.804300
  H     33.832200   31.923500   55.895400
  C     34.524000   34.251900   54.438200
  H     35.302400   34.951100   54.477100
  H     33.918200   34.327100   55.289000
  C     33.691600   34.739500   53.236500
  H     34.238600   34.863000   52.280000
  H     32.961900   33.946500   52.886800
  C     32.843200   36.096400   53.466100
  H     32.027300   36.060500   54.244900
  H     33.547500   36.924600   53.614100
  H     32.289000   36.367300   52.519300
  S     33.128200   28.744700   55.419000
  C     33.528600   27.490300   56.569000
  C     34.847600   27.467200   56.900400
  C     35.611400   28.623800   56.505600
  C     34.818700   29.378500   55.599000
  H     35.289000   26.699400   57.424600
  C     37.065000   28.812100   56.899000
  H     37.513900   29.024100   55.963800
  H     37.450600   27.819700   57.178000
  C     37.335000   29.813500   58.004000
  H     36.873700   29.531400   58.973600
  H     36.970500   30.812100   57.654800
  C     38.899500   29.895700   58.331800
  H     39.004400   30.546200   59.135900
  H     39.560100   30.177500   57.543500
  H     39.245700   28.942100   58.725600
  H     36.513900   33.051800   52.733300
  H     32.809900   26.782900   56.802300

 Total Charge           Charge          ....    0
 Multiplicity           Mult            ....    1
 Number of Electrons    NEL             ....  134
 Basis Dimension        Dim             ....  322

ORBITAL ENERGIES
----------------

  NO   OCC          E(Eh)            E(eV)
   0   2.0000     -88.963348     -2420.8158
   1   2.0000     -88.963119     -2420.8095
   2   2.0000     -10.330527      -281.1079
   3   2.0000     -10.320958      -280.8475
   4   2.0000     -10.308410      -280.5061
   5   2.0000     -10.305828      -280.4358
   6   2.0000     -10.305698      -280.4323
   7   2.0000     -10.295763      -280.1620
   8   2.0000     -10.295039      -280.1422
   9   2.0000     -10.294826      -280.1365
  10   2.0000     -10.290940      -280.0307
  11   2.0000     -10.290274      -280.0126
  12   2.0000     -10.287250      -279.9303
  13   2.0000     -10.285291      -279.8770
  14   2.0000     -10.283073      -279.8166
  15   2.0000     -10.272483      -279.5285
  16   2.0000      -8.080182      -219.8729
  17   2.0000      -8.077178      -219.7912
  18   2.0000      -6.038535      -164.3169
  19   2.0000      -6.035606      -164.2372
  20   2.0000      -6.034340      -164.2027
  21   2.0000      -6.031975      -164.1384
  22   2.0000      -6.031034      -164.1128
  23   2.0000      -6.027874      -164.0268
  24   2.0000      -1.015513       -27.6335
  25   2.0000      -0.982058       -26.7232
  26   2.0000      -0.908277       -24.7155
  27   2.0000      -0.906284       -24.6612
  28   2.0000      -0.873769       -23.7765
  29   2.0000      -0.847803       -23.0699
  30   2.0000      -0.841990       -22.9117
  31   2.0000      -0.811731       -22.0883
  32   2.0000      -0.785057       -21.3625
  33   2.0000      -0.771710       -20.9993
  34   2.0000      -0.708226       -19.2718
  35   2.0000      -0.697968       -18.9927
  36   2.0000      -0.692110       -18.8333
  37   2.0000      -0.667334       -18.1591
  38   2.0000      -0.651975       -17.7411
  39   2.0000      -0.617763       -16.8102
  40   2.0000      -0.597934       -16.2706
  41   2.0000      -0.570527       -15.5248
  42   2.0000      -0.565909       -15.3992
  43   2.0000      -0.556128       -15.1330
  44   2.0000      -0.528771       -14.3886
  45   2.0000      -0.518968       -14.1218
  46   2.0000      -0.516313       -14.0496
  47   2.0000      -0.509571       -13.8661
  48   2.0000      -0.509094       -13.8531
  49   2.0000      -0.505236       -13.7482
  50   2.0000      -0.489114       -13.3095
  51   2.0000      -0.475042       -12.9265
  52   2.0000      -0.472406       -12.8548
  53   2.0000      -0.463372       -12.6090
  54   2.0000      -0.459977       -12.5166
  55   2.0000      -0.449743       -12.2381
  56   2.0000      -0.445853       -12.1323
  57   2.0000      -0.439524       -11.9601
  58   2.0000      -0.434334       -11.8188
  59   2.0000      -0.423365       -11.5204
  60   2.0000      -0.420351       -11.4383
  61   2.0000      -0.415567       -11.3081
  62   2.0000      -0.412736       -11.2311
  63   2.0000      -0.345441        -9.3999
  64   2.0000      -0.330490        -8.9931
  65   2.0000      -0.322893        -8.7864
  66   2.0000      -0.294438        -8.0121
  67   0.0000       0.035962         0.9786
  68   0.0000       0.070957         1.9308
  69   0.0000       0.101663         2.7664
  70   0.0000       0.113589         3.0909
  71   0.0000       0.139945         3.8081

MULLIKEN ATOMIC CHARGES
-----------------------
   0 S :    0.118438
   1 C :   -0.120717
   2 C :   -0.105401
   3 C :    0.031025
   4 C :   -0.121521
   5 H :    0.006408
   6 C :    0.180452
   7 H :    0.013413
   8 H :    0.001271
   9 C :   -0.142907
  10 H :    0.029971
  11 H :    0.034676
  12 C :   -0.092874
  13 H :    0.049440
  14 H :    0.036922
  15 H :    0.039143
  16 S :    0.096001
  17 C :   -0.057248
  18 C :    0.002739
  19 C :   -0.045002
  20 C :   -0.198733
  21 H :   -0.015622
  22 C :    0.109257
  23 H :    0.014578
  24 H :    0.009518
  25 C :   -0.087772
  26 H :    0.038875
  27 H :    0.045570
  28 C :   -0.018883
  29 H :    0.017611
  30 H :    0.033440
  31 H :    0.018081
  32 H :    0.047424
  33 H :    0.032428
Sum of atomic charges:   -0.0000000

LOEWDIN ATOMIC CHARGES
----------------------
   0 S :    0.449036
   1 C :   -0.216890
   2 C :   -0.064404
   3 C :   -0.053633
   4 C :   -0.218638
   5 H :    0.025199
   6 C :   -0.022386
   7 H :    0.025388
   8 H :    0.024577
   9 C :   -0.047280
  10 H :    0.022938
  11 H :    0.026475
  12 C :   -0.080938
  13 H :    0.029140
  14 H :    0.022553
  15 H :    0.032263
  16 S :    0.383408
  17 C :   -0.171319
  18 C :   -0.059793
  19 C :   -0.047633
  20 C :   -0.172366
  21 H :    0.016078
  22 C :   -0.032639
  23 H :    0.024106
  24 H :    0.030545
  25 C :   -0.031063
  26 H :    0.030321
  27 H :    0.030538
  28 C :   -0.058549
  29 H :    0.017140
  30 H :    0.021732
  31 H :    0.023262
  32 H :    0.030595
  33 H :    0.012238

  Mayer bond orders larger than 0.100000
B(  0-S ,  1-C ) :   1.1623 B(  0-S ,  4-C ) :   1.1594 B(  1-C ,  2-C ) :   1.5872
B(  1-C , 32-H ) :   0.9729 B(  2-C ,  3-C ) :   1.2636 B(  2-C ,  6-C ) :   1.0416
B(  3-C ,  4-C ) :   1.5482 B(  3-C ,  5-H ) :   1.0021 B(  4-C , 20-C ) :   1.0289
B(  6-C ,  7-H ) :   0.9333 B(  6-C ,  8-H ) :   0.9352 B(  6-C ,  9-C ) :   1.0432
B(  9-C , 10-H ) :   0.9588 B(  9-C , 11-H ) :   0.9604 B(  9-C , 12-C ) :   1.0689
B( 12-C , 13-H ) :   0.9779 B( 12-C , 14-H ) :   0.9769 B( 12-C , 15-H ) :   0.9758
B( 16-S , 17-C ) :   1.1392 B( 16-S , 20-C ) :   1.1440 B( 17-C , 18-C ) :   1.6207
B( 17-C , 20-C ) :   0.1011 B( 17-C , 33-H ) :   0.9771 B( 18-C , 19-C ) :   1.2260
B( 18-C , 21-H ) :   0.9947 B( 19-C , 20-C ) :   1.5965 B( 19-C , 22-C ) :   1.0247
B( 22-C , 23-H ) :   0.9308 B( 22-C , 24-H ) :   0.9315 B( 22-C , 25-C ) :   1.0654
B( 25-C , 26-H ) :   0.9555 B( 25-C , 27-H ) :   0.9575 B( 25-C , 28-C ) :   1.0768
B( 28-C , 29-H ) :   0.9764 B( 28-C , 30-H ) :   0.9785 B( 28-C , 31-H ) :   0.9738

Dispersion correction           -0.013902390
FINAL SINGLE POINT ENERGY     -1339.863650513885

DIPOLE MOMENT
-------------
                                X             Y             Z
Electronic contribution:     -5.89237     -17.67956      -7.01468
Nuclear contribution   :      6.15347      17.95502       7.31466
                        -----------------------------------------
Total Dipole Moment    :      0.26111       0.27547       0.29998
                        -----------------------------------------
Magnitude (a.u.)       :      0.48378
Magnitude (Debye)      :      1.22967

Rotational constants in cm-1:     0.019063     0.007747     0.006372
Rotational constants in MHz :   571.497267   232.258115   191.034096

                             ****ORCA TERMINATED NORMALLY****
TOTAL RUN TIME: 0 days 0 hours 0 minutes 33 seconds 541 msec
