                         Program Version 4.2.1 -  RELEASE  -
|  1> ! wB97X-D3 SP def2-SVP
|  2> %pal
|  3> nprocs 16
|  4> end
|  5>
|  6> * xyz 0 1
|  7> S 	 -117.917 	 47.5791 	 134.671
|  8> C 	 -118.251 	 48.1611 	 133.057
|  9> C 	 -117.464 	 49.2407 	 132.707
| 10> C 	 -116.659 	 49.5997 	 133.839
| 11> C 	 -116.68 	 48.778 	 134.941
| 12> H 	 -116.079 	 50.53 	 133.793
| 13> C 	 -117.785 	 50.1459 	 131.533
| 14> H 	 -118.45 	 49.4619 	 130.906
| 15> H 	 -116.822 	 50.2963 	 130.998
| 16> C 	 -118.555 	 51.4995 	 131.726
| 17> H 	 -118.812 	 51.91 	 130.751
| 18> H 	 -119.525 	 51.229 	 132.188
| 19> C 	 -117.657 	 52.4022 	 132.634
| 20> H 	 -116.609 	 52.3588 	 132.233
| 21> H 	 -118.146 	 53.4276 	 132.675
| 22> H 	 -117.557 	 52.0041 	 133.668
| 23> S 	 -117.269 	 49.3527 	 137.535
| 24> C 	 -115.972 	 49.4168 	 138.7
| 25> C 	 -114.73 	 49.5432 	 138.072
| 26> C 	 -114.822 	 49.4692 	 136.626
| 27> C 	 -116.083 	 49.1778 	 136.201
| 28> H 	 -113.818 	 49.5769 	 138.754
| 29> C 	 -113.705 	 49.3761 	 135.7
| 30> H 	 -113.901 	 50.0293 	 134.882
| 31> H 	 -113.802 	 48.4509 	 135.133
| 32> C 	 -112.308 	 49.407 	 136.282
| 33> H 	 -112.109 	 48.5592 	 136.922
| 34> H 	 -112.342 	 50.2355 	 137.002
| 35> C 	 -111.257 	 49.6394 	 135.258
| 36> H 	 -110.328 	 49.864 	 135.78
| 37> H 	 -111.458 	 50.5074 	 134.626
| 38> H 	 -111.09 	 48.7996 	 134.607
| 39> H 	 -118.998 	 47.7676 	 132.388
| 40> H 	 -116.085 	 49.3507 	 139.778
| 41> *
| 42>
| 43>                          ****END OF INPUT****

CARTESIAN COORDINATES (ANGSTROEM)
---------------------------------
  S    -117.917000   47.579100  134.671000
  C    -118.251000   48.161100  133.057000
  C    -117.464000   49.240700  132.707000
  C    -116.659000   49.599700  133.839000
  C    -116.680000   48.778000  134.941000
  H    -116.079000   50.530000  133.793000
  C    -117.785000   50.145900  131.533000
  H    -118.450000   49.461900  130.906000
  H    -116.822000   50.296300  130.998000
  C    -118.555000   51.499500  131.726000
  H    -118.812000   51.910000  130.751000
  H    -119.525000   51.229000  132.188000
  C    -117.657000   52.402200  132.634000
  H    -116.609000   52.358800  132.233000
  H    -118.146000   53.427600  132.675000
  H    -117.557000   52.004100  133.668000
  S    -117.269000   49.352700  137.535000
  C    -115.972000   49.416800  138.700000
  C    -114.730000   49.543200  138.072000
  C    -114.822000   49.469200  136.626000
  C    -116.083000   49.177800  136.201000
  H    -113.818000   49.576900  138.754000
  C    -113.705000   49.376100  135.700000
  H    -113.901000   50.029300  134.882000
  H    -113.802000   48.450900  135.133000
  C    -112.308000   49.407000  136.282000
  H    -112.109000   48.559200  136.922000
  H    -112.342000   50.235500  137.002000
  C    -111.257000   49.639400  135.258000
  H    -110.328000   49.864000  135.780000
  H    -111.458000   50.507400  134.626000
  H    -111.090000   48.799600  134.607000
  H    -118.998000   47.767600  132.388000
  H    -116.085000   49.350700  139.778000

 Total Charge           Charge          ....    0
 Multiplicity           Mult            ....    1
 Number of Electrons    NEL             ....  134
 Basis Dimension        Dim             ....  322

ORBITAL ENERGIES
----------------

  NO   OCC          E(Eh)            E(eV)
   0   2.0000     -88.970823     -2421.0192
   1   2.0000     -88.959365     -2420.7074
   2   2.0000     -10.328361      -281.0490
   3   2.0000     -10.322478      -280.8889
   4   2.0000     -10.317806      -280.7618
   5   2.0000     -10.316332      -280.7217
   6   2.0000     -10.302562      -280.3470
   7   2.0000     -10.301707      -280.3237
   8   2.0000     -10.300443      -280.2893
   9   2.0000     -10.300387      -280.2878
  10   2.0000     -10.297650      -280.2133
  11   2.0000     -10.294927      -280.1392
  12   2.0000     -10.291938      -280.0579
  13   2.0000     -10.281412      -279.7714
  14   2.0000     -10.278507      -279.6924
  15   2.0000     -10.273810      -279.5646
  16   2.0000      -8.085340      -220.0133
  17   2.0000      -8.073847      -219.7005
  18   2.0000      -6.043879      -164.4623
  19   2.0000      -6.039828      -164.3521
  20   2.0000      -6.036094      -164.2505
  21   2.0000      -6.032427      -164.1507
  22   2.0000      -6.028433      -164.0420
  23   2.0000      -6.024518      -163.9355
  24   2.0000      -1.008672       -27.4474
  25   2.0000      -0.983781       -26.7700
  26   2.0000      -0.918864       -25.0036
  27   2.0000      -0.908479       -24.7210
  28   2.0000      -0.871566       -23.7165
  29   2.0000      -0.855180       -23.2706
  30   2.0000      -0.841814       -22.9069
  31   2.0000      -0.813104       -22.1257
  32   2.0000      -0.781041       -21.2532
  33   2.0000      -0.769588       -20.9416
  34   2.0000      -0.711700       -19.3663
  35   2.0000      -0.704105       -19.1597
  36   2.0000      -0.701964       -19.1014
  37   2.0000      -0.648339       -17.6422
  38   2.0000      -0.638040       -17.3620
  39   2.0000      -0.618100       -16.8193
  40   2.0000      -0.598445       -16.2845
  41   2.0000      -0.570200       -15.5159
  42   2.0000      -0.568527       -15.4704
  43   2.0000      -0.545680       -14.8487
  44   2.0000      -0.541653       -14.7391
  45   2.0000      -0.530195       -14.4273
  46   2.0000      -0.512984       -13.9590
  47   2.0000      -0.509034       -13.8515
  48   2.0000      -0.508006       -13.8235
  49   2.0000      -0.501580       -13.6487
  50   2.0000      -0.486856       -13.2480
  51   2.0000      -0.484527       -13.1847
  52   2.0000      -0.470693       -12.8082
  53   2.0000      -0.461462       -12.5570
  54   2.0000      -0.459673       -12.5083
  55   2.0000      -0.455500       -12.3948
  56   2.0000      -0.447404       -12.1745
  57   2.0000      -0.437114       -11.8945
  58   2.0000      -0.433478       -11.7955
  59   2.0000      -0.421709       -11.4753
  60   2.0000      -0.421120       -11.4593
  61   2.0000      -0.413086       -11.2406
  62   2.0000      -0.406935       -11.0733
  63   2.0000      -0.343275        -9.3410
  64   2.0000      -0.331667        -9.0251
  65   2.0000      -0.324429        -8.8282
  66   2.0000      -0.292507        -7.9595
  67   0.0000       0.025126         0.6837
  68   0.0000       0.069352         1.8872
  69   0.0000       0.111558         3.0357
  70   0.0000       0.119631         3.2553
  71   0.0000       0.128789         3.5045

MULLIKEN ATOMIC CHARGES
-----------------------
   0 S :    0.126109
   1 C :   -0.127134
   2 C :   -0.062617
   3 C :   -0.016800
   4 C :   -0.127949
   5 H :    0.021779
   6 C :   -0.020403
   7 H :    0.025922
   8 H :    0.040970
   9 C :   -0.020204
  10 H :    0.039175
  11 H :    0.032515
  12 C :   -0.111676
  13 H :    0.041422
  14 H :    0.055033
  15 H :    0.063433
  16 S :    0.090950
  17 C :   -0.091712
  18 C :   -0.085916
  19 C :   -0.003597
  20 C :   -0.174000
  21 H :    0.049427
  22 C :    0.066316
  23 H :    0.000821
  24 H :    0.027568
  25 C :   -0.070256
  26 H :    0.028547
  27 H :    0.021953
  28 C :   -0.006789
  29 H :    0.026788
  30 H :    0.025689
  31 H :    0.029882
  32 H :    0.048050
  33 H :    0.056703
Sum of atomic charges:    0.0000000

LOEWDIN ATOMIC CHARGES
----------------------
   0 S :    0.417279
   1 C :   -0.184902
   2 C :   -0.076135
   3 C :   -0.057150
   4 C :   -0.215356
   5 H :    0.028280
   6 C :   -0.041143
   7 H :    0.033517
   8 H :    0.030201
   9 C :   -0.034717
  10 H :    0.026373
  11 H :    0.027841
  12 C :   -0.078299
  13 H :    0.027473
  14 H :    0.034924
  15 H :    0.033065
  16 S :    0.378524
  17 C :   -0.186735
  18 C :   -0.085157
  19 C :   -0.055323
  20 C :   -0.176633
  21 H :    0.044985
  22 C :   -0.041755
  23 H :    0.028449
  24 H :    0.039441
  25 C :   -0.042140
  26 H :    0.025466
  27 H :    0.022538
  28 C :   -0.059015
  29 H :    0.028517
  30 H :    0.026770
  31 H :    0.023511
  32 H :    0.027391
  33 H :    0.029917

  Mayer bond orders larger than 0.100000
B(  0-S ,  1-C ) :   1.1604 B(  0-S ,  4-C ) :   1.1341 B(  1-C ,  2-C ) :   1.5869
B(  1-C , 32-H ) :   0.9620 B(  2-C ,  3-C ) :   1.2694 B(  2-C ,  6-C ) :   1.0351
B(  3-C ,  4-C ) :   1.5503 B(  3-C ,  5-H ) :   0.9752 B(  4-C , 20-C ) :   1.0599
B(  6-C ,  7-H ) :   0.9426 B(  6-C ,  8-H ) :   0.9373 B(  6-C ,  9-C ) :   1.0556
B(  9-C , 10-H ) :   0.9562 B(  9-C , 11-H ) :   0.9533 B(  9-C , 12-C ) :   1.0652
B( 12-C , 13-H ) :   0.9730 B( 12-C , 14-H ) :   0.9697 B( 12-C , 15-H ) :   0.9670
B( 16-S , 17-C ) :   1.1480 B( 16-S , 20-C ) :   1.1180 B( 17-C , 18-C ) :   1.6352
B( 17-C , 33-H ) :   0.9645 B( 18-C , 19-C ) :   1.1973 B( 18-C , 21-H ) :   0.9761
B( 19-C , 20-C ) :   1.6286 B( 19-C , 22-C ) :   1.0626 B( 22-C , 23-H ) :   0.9123
B( 22-C , 24-H ) :   0.9120 B( 22-C , 25-C ) :   1.0763 B( 25-C , 26-H ) :   0.9452
B( 25-C , 27-H ) :   0.9494 B( 25-C , 28-C ) :   1.0964 B( 28-C , 29-H ) :   0.9694
B( 28-C , 30-H ) :   0.9719 B( 28-C , 31-H ) :   0.9723

Dispersion correction           -0.014194139
FINAL SINGLE POINT ENERGY     -1339.866077469012

DIPOLE MOMENT
-------------
                                X             Y             Z
Electronic contribution:    -15.54323     -13.53978      13.51070
Nuclear contribution   :     15.78949      13.83810     -13.86060
                        -----------------------------------------
Total Dipole Moment    :      0.24626       0.29832      -0.34990
                        -----------------------------------------
Magnitude (a.u.)       :      0.52160
Magnitude (Debye)      :      1.32581

Rotational constants in cm-1:     0.017243     0.008827     0.007281
Rotational constants in MHz :   516.927554   264.621029   218.265037

                             ****ORCA TERMINATED NORMALLY****
TOTAL RUN TIME: 0 days 0 hours 0 minutes 34 seconds 261 msec
