                         Program Version 4.2.1 -  RELEASE  -
|  1> ! wB97X-D3 SP def2-SVP
|  2> %pal
|  3> nprocs 16
|  4> end
|  5>
|  6> * xyz 0 1
|  7> S 	 -48.6314 	 -0.0461695 	 97.7537
|  8> C 	 -50.0653 	 -1.06286 	 97.6265
|  9> C 	 -50.8317 	 -0.632227 	 96.5285
| 10> C 	 -50.3491 	 0.586694 	 95.9382
| 11> C 	 -49.0995 	 0.930762 	 96.4444
| 12> H 	 -50.7146 	 1.01962 	 94.9805
| 13> C 	 -52.0291 	 -1.40911 	 95.9604
| 14> H 	 -51.7381 	 -2.47911 	 95.8443
| 15> H 	 -52.4142 	 -1.14596 	 94.9285
| 16> C 	 -53.2272 	 -1.32685 	 96.8577
| 17> H 	 -54.0779 	 -2.05055 	 96.5185
| 18> H 	 -53.0269 	 -1.72444 	 97.8587
| 19> C 	 -53.7849 	 0.148867 	 96.9339
| 20> H 	 -53.1413 	 0.869909 	 97.5095
| 21> H 	 -53.9878 	 0.481198 	 95.9187
| 22> H 	 -54.7418 	 0.300955 	 97.5486
| 23> S 	 -48.0893 	 3.47337 	 96.6483
| 24> C 	 -46.9711 	 4.1171 	 95.4868
| 25> C 	 -46.4958 	 3.13777 	 94.6536
| 26> C 	 -47.2612 	 1.90079 	 94.8241
| 27> C 	 -48.262 	 1.96036 	 95.7917
| 28> H 	 -45.7549 	 3.30892 	 93.9012
| 29> C 	 -46.9598 	 0.647616 	 94.021
| 30> H 	 -47.921 	 0.244938 	 93.8849
| 31> H 	 -46.4246 	 -0.00754201 	 94.6672
| 32> C 	 -46.1146 	 0.7089 	 92.7034
| 33> H 	 -45.1137 	 1.06696 	 92.8953
| 34> H 	 -46.5428 	 1.44414 	 91.9947
| 35> C 	 -45.789 	 -0.659744 	 92.1376
| 36> H 	 -45.6411 	 -1.50271 	 92.907
| 37> H 	 -45.0231 	 -0.475704 	 91.4203
| 38> H 	 -46.5404 	 -0.94593 	 91.3435
| 39> H 	 -50.335 	 -1.88942 	 98.2808
| 40> H 	 -46.6042 	 5.1268 	 95.5662
| 41> *
| 42>
| 43>                          ****END OF INPUT****

CARTESIAN COORDINATES (ANGSTROEM)
---------------------------------
  S    -48.631400   -0.046169   97.753700
  C    -50.065300   -1.062860   97.626500
  C    -50.831700   -0.632227   96.528500
  C    -50.349100    0.586694   95.938200
  C    -49.099500    0.930762   96.444400
  H    -50.714600    1.019620   94.980500
  C    -52.029100   -1.409110   95.960400
  H    -51.738100   -2.479110   95.844300
  H    -52.414200   -1.145960   94.928500
  C    -53.227200   -1.326850   96.857700
  H    -54.077900   -2.050550   96.518500
  H    -53.026900   -1.724440   97.858700
  C    -53.784900    0.148867   96.933900
  H    -53.141300    0.869909   97.509500
  H    -53.987800    0.481198   95.918700
  H    -54.741800    0.300955   97.548600
  S    -48.089300    3.473370   96.648300
  C    -46.971100    4.117100   95.486800
  C    -46.495800    3.137770   94.653600
  C    -47.261200    1.900790   94.824100
  C    -48.262000    1.960360   95.791700
  H    -45.754900    3.308920   93.901200
  C    -46.959800    0.647616   94.021000
  H    -47.921000    0.244938   93.884900
  H    -46.424600   -0.007542   94.667200
  C    -46.114600    0.708900   92.703400
  H    -45.113700    1.066960   92.895300
  H    -46.542800    1.444140   91.994700
  C    -45.789000   -0.659744   92.137600
  H    -45.641100   -1.502710   92.907000
  H    -45.023100   -0.475704   91.420300
  H    -46.540400   -0.945930   91.343500
  H    -50.335000   -1.889420   98.280800
  H    -46.604200    5.126800   95.566200

 Total Charge           Charge          ....    0
 Multiplicity           Mult            ....    1
 Number of Electrons    NEL             ....  134
 Basis Dimension        Dim             ....  322

ORBITAL ENERGIES
----------------

  NO   OCC          E(Eh)            E(eV)
   0   2.0000     -88.972204     -2421.0568
   1   2.0000     -88.958264     -2420.6774
   2   2.0000     -10.328560      -281.0544
   3   2.0000     -10.323223      -280.9092
   4   2.0000     -10.319460      -280.8068
   5   2.0000     -10.315817      -280.7077
   6   2.0000     -10.308008      -280.4952
   7   2.0000     -10.307108      -280.4707
   8   2.0000     -10.299203      -280.2556
   9   2.0000     -10.296940      -280.1940
  10   2.0000     -10.294986      -280.1408
  11   2.0000     -10.293912      -280.1116
  12   2.0000     -10.289692      -279.9968
  13   2.0000     -10.285642      -279.8866
  14   2.0000     -10.284784      -279.8632
  15   2.0000     -10.283198      -279.8200
  16   2.0000      -8.087003      -220.0585
  17   2.0000      -8.073746      -219.6978
  18   2.0000      -6.045427      -164.5044
  19   2.0000      -6.041351      -164.3935
  20   2.0000      -6.037984      -164.3019
  21   2.0000      -6.032240      -164.1456
  22   2.0000      -6.028138      -164.0340
  23   2.0000      -6.024490      -163.9347
  24   2.0000      -1.007086       -27.4042
  25   2.0000      -0.984341       -26.7853
  26   2.0000      -0.910132       -24.7660
  27   2.0000      -0.906532       -24.6680
  28   2.0000      -0.865760       -23.5585
  29   2.0000      -0.849669       -23.1207
  30   2.0000      -0.841320       -22.8935
  31   2.0000      -0.812589       -22.1117
  32   2.0000      -0.778814       -21.1926
  33   2.0000      -0.769034       -20.9265
  34   2.0000      -0.703040       -19.1307
  35   2.0000      -0.697672       -18.9846
  36   2.0000      -0.690126       -18.7793
  37   2.0000      -0.652283       -17.7495
  38   2.0000      -0.640936       -17.4408
  39   2.0000      -0.610385       -16.6094
  40   2.0000      -0.596667       -16.2361
  41   2.0000      -0.576374       -15.6839
  42   2.0000      -0.567899       -15.4533
  43   2.0000      -0.550263       -14.9734
  44   2.0000      -0.534718       -14.5504
  45   2.0000      -0.530369       -14.4321
  46   2.0000      -0.515474       -14.0268
  47   2.0000      -0.512313       -13.9407
  48   2.0000      -0.498497       -13.5648
  49   2.0000      -0.497152       -13.5282
  50   2.0000      -0.483848       -13.1662
  51   2.0000      -0.476032       -12.9535
  52   2.0000      -0.469049       -12.7635
  53   2.0000      -0.462160       -12.5760
  54   2.0000      -0.461614       -12.5612
  55   2.0000      -0.447533       -12.1780
  56   2.0000      -0.439242       -11.9524
  57   2.0000      -0.434411       -11.8209
  58   2.0000      -0.432994       -11.7824
  59   2.0000      -0.419457       -11.4140
  60   2.0000      -0.414255       -11.2724
  61   2.0000      -0.411142       -11.1878
  62   2.0000      -0.405774       -11.0417
  63   2.0000      -0.334897        -9.1130
  64   2.0000      -0.328432        -8.9371
  65   2.0000      -0.319349        -8.6899
  66   2.0000      -0.309806        -8.4303
  67   0.0000       0.046179         1.2566
  68   0.0000       0.050286         1.3683
  69   0.0000       0.113032         3.0757
  70   0.0000       0.119044         3.2393
  71   0.0000       0.133087         3.6215

MULLIKEN ATOMIC CHARGES
-----------------------
   0 S :    0.141543
   1 C :   -0.134515
   2 C :   -0.086481
   3 C :    0.041673
   4 C :   -0.169182
   5 H :    0.035883
   6 C :    0.042117
   7 H :    0.040074
   8 H :    0.036428
   9 C :   -0.099414
  10 H :    0.039257
  11 H :    0.024748
  12 C :   -0.091619
  13 H :    0.054383
  14 H :    0.030960
  15 H :    0.038372
  16 S :    0.091822
  17 C :   -0.080576
  18 C :   -0.017432
  19 C :   -0.079647
  20 C :   -0.170433
  21 H :    0.016108
  22 C :    0.122618
  23 H :    0.017913
  24 H :    0.021117
  25 C :   -0.104103
  26 H :    0.025154
  27 H :    0.038024
  28 C :   -0.047361
  29 H :    0.065372
  30 H :    0.017534
  31 H :    0.024732
  32 H :    0.057976
  33 H :    0.056955
Sum of atomic charges:    0.0000000

LOEWDIN ATOMIC CHARGES
----------------------
   0 S :    0.436774
   1 C :   -0.204612
   2 C :   -0.055740
   3 C :   -0.065184
   4 C :   -0.220689
   5 H :    0.040881
   6 C :   -0.042296
   7 H :    0.036446
   8 H :    0.035623
   9 C :   -0.051031
  10 H :    0.030970
  11 H :    0.017440
  12 C :   -0.080511
  13 H :    0.033560
  14 H :    0.020641
  15 H :    0.032698
  16 S :    0.408521
  17 C :   -0.177378
  18 C :   -0.075393
  19 C :   -0.043633
  20 C :   -0.214082
  21 H :    0.028647
  22 C :   -0.030103
  23 H :    0.027169
  24 H :    0.030507
  25 C :   -0.046974
  26 H :    0.020675
  27 H :    0.027844
  28 C :   -0.076990
  29 H :    0.042204
  30 H :    0.024508
  31 H :    0.030344
  32 H :    0.032033
  33 H :    0.027128

  Mayer bond orders larger than 0.100000
B(  0-S ,  1-C ) :   1.1419 B(  0-S ,  4-C ) :   1.1829 B(  1-C ,  2-C ) :   1.5860
B(  1-C , 32-H ) :   0.9701 B(  2-C ,  3-C ) :   1.2682 B(  2-C ,  6-C ) :   1.0046
B(  3-C ,  4-C ) :   1.5486 B(  3-C ,  5-H ) :   0.9831 B(  4-C , 20-C ) :   1.0047
B(  6-C ,  7-H ) :   0.9422 B(  6-C ,  8-H ) :   0.9527 B(  6-C ,  9-C ) :   1.0763
B(  9-C , 10-H ) :   0.9557 B(  9-C , 11-H ) :   0.9582 B(  9-C , 12-C ) :   1.0549
B( 12-C , 13-H ) :   0.9739 B( 12-C , 14-H ) :   0.9768 B( 12-C , 15-H ) :   0.9757
B( 16-S , 17-C ) :   1.1781 B( 16-S , 20-C ) :   1.1332 B( 17-C , 18-C ) :   1.5853
B( 17-C , 33-H ) :   0.9676 B( 18-C , 19-C ) :   1.2401 B( 18-C , 21-H ) :   0.9952
B( 19-C , 20-C ) :   1.6127 B( 19-C , 22-C ) :   1.0286 B( 22-C , 23-H ) :   0.9333
B( 22-C , 24-H ) :   0.9186 B( 22-C , 25-C ) :   1.0771 B( 25-C , 26-H ) :   0.9528
B( 25-C , 27-H ) :   0.9549 B( 25-C , 28-C ) :   1.0799 B( 28-C , 29-H ) :   0.9698
B( 28-C , 30-H ) :   0.9699 B( 28-C , 31-H ) :   0.9689

Dispersion correction           -0.014123620
FINAL SINGLE POINT ENERGY     -1339.860078329258

DIPOLE MOMENT
-------------
                                X             Y             Z
Electronic contribution:      8.60694      13.00224      15.64208
Nuclear contribution   :     -8.53235     -13.35765     -16.14904
                        -----------------------------------------
Total Dipole Moment    :      0.07459      -0.35542      -0.50696
                        -----------------------------------------
Magnitude (a.u.)       :      0.62361
Magnitude (Debye)      :      1.58509

Rotational constants in cm-1:     0.018804     0.007895     0.006573
Rotational constants in MHz :   563.717448   236.686978   197.045101

                             ****ORCA TERMINATED NORMALLY****
TOTAL RUN TIME: 0 days 0 hours 0 minutes 28 seconds 896 msec
