                         Program Version 4.2.1 -  RELEASE  -
|  1> ! wB97X-D3 SP def2-SVP
|  2> %pal
|  3> nprocs 16
|  4> end
|  5>
|  6> * xyz 0 1
|  7> S 	 -4.64909 	 -8.37165 	 83.0859
|  8> C 	 -4.71357 	 -10.166 	 83.1506
|  9> C 	 -5.57978 	 -10.5721 	 84.1334
| 10> C 	 -5.87281 	 -9.50024 	 85.0286
| 11> C 	 -5.31888 	 -8.2756 	 84.6816
| 12> H 	 -6.46363 	 -9.54409 	 85.9662
| 13> C 	 -6.21501 	 -11.9984 	 84.1948
| 14> H 	 -6.01276 	 -12.4109 	 85.1844
| 15> H 	 -5.70723 	 -12.5066 	 83.3398
| 16> C 	 -7.69023 	 -11.8787 	 83.9403
| 17> H 	 -8.23632 	 -11.3693 	 84.7029
| 18> H 	 -7.85756 	 -11.2597 	 83.0124
| 19> C 	 -8.34108 	 -13.2453 	 83.6312
| 20> H 	 -7.99258 	 -13.6153 	 82.6612
| 21> H 	 -8.29937 	 -13.9925 	 84.412
| 22> H 	 -9.34456 	 -13.0143 	 83.3434
| 23> S 	 -7.15821 	 -6.34448 	 85.351
| 24> C 	 -6.63284 	 -4.90977 	 86.2919
| 25> C 	 -5.27405 	 -4.95078 	 86.436
| 26> C 	 -4.65235 	 -6.10484 	 85.9314
| 27> C 	 -5.5267 	 -6.94056 	 85.2916
| 28> H 	 -4.72886 	 -4.21696 	 87.013
| 29> C 	 -3.17657 	 -6.38947 	 86.0557
| 30> H 	 -2.5522 	 -5.55563 	 85.7213
| 31> H 	 -2.86379 	 -7.22565 	 85.3581
| 32> C 	 -2.79154 	 -6.97032 	 87.4548
| 33> H 	 -3.46211 	 -7.86607 	 87.5997
| 34> H 	 -3.0038 	 -6.29464 	 88.2489
| 35> C 	 -1.32727 	 -7.49124 	 87.4721
| 36> H 	 -0.605293 	 -6.61593 	 87.5069
| 37> H 	 -1.05044 	 -8.1624 	 86.669
| 38> H 	 -1.1334 	 -7.95428 	 88.4633
| 39> H 	 -4.58493 	 -10.8319 	 82.3121
| 40> H 	 -7.29532 	 -4.16748 	 86.6902
| 41> *
| 42>
| 43>                          ****END OF INPUT****

CARTESIAN COORDINATES (ANGSTROEM)
---------------------------------
  S     -4.649090   -8.371650   83.085900
  C     -4.713570  -10.166000   83.150600
  C     -5.579780  -10.572100   84.133400
  C     -5.872810   -9.500240   85.028600
  C     -5.318880   -8.275600   84.681600
  H     -6.463630   -9.544090   85.966200
  C     -6.215010  -11.998400   84.194800
  H     -6.012760  -12.410900   85.184400
  H     -5.707230  -12.506600   83.339800
  C     -7.690230  -11.878700   83.940300
  H     -8.236320  -11.369300   84.702900
  H     -7.857560  -11.259700   83.012400
  C     -8.341080  -13.245300   83.631200
  H     -7.992580  -13.615300   82.661200
  H     -8.299370  -13.992500   84.412000
  H     -9.344560  -13.014300   83.343400
  S     -7.158210   -6.344480   85.351000
  C     -6.632840   -4.909770   86.291900
  C     -5.274050   -4.950780   86.436000
  C     -4.652350   -6.104840   85.931400
  C     -5.526700   -6.940560   85.291600
  H     -4.728860   -4.216960   87.013000
  C     -3.176570   -6.389470   86.055700
  H     -2.552200   -5.555630   85.721300
  H     -2.863790   -7.225650   85.358100
  C     -2.791540   -6.970320   87.454800
  H     -3.462110   -7.866070   87.599700
  H     -3.003800   -6.294640   88.248900
  C     -1.327270   -7.491240   87.472100
  H     -0.605293   -6.615930   87.506900
  H     -1.050440   -8.162400   86.669000
  H     -1.133400   -7.954280   88.463300
  H     -4.584930  -10.831900   82.312100
  H     -7.295320   -4.167480   86.690200

 Total Charge           Charge          ....    0
 Multiplicity           Mult            ....    1
 Number of Electrons    NEL             ....  134
 Basis Dimension        Dim             ....  322

ORBITAL ENERGIES
----------------

  NO   OCC          E(Eh)            E(eV)
   0   2.0000     -88.965081     -2420.8629
   1   2.0000     -88.964474     -2420.8464
   2   2.0000     -10.330523      -281.1078
   3   2.0000     -10.324091      -280.9328
   4   2.0000     -10.320216      -280.8274
   5   2.0000     -10.311349      -280.5861
   6   2.0000     -10.302303      -280.3399
   7   2.0000     -10.299752      -280.2705
   8   2.0000     -10.297410      -280.2068
   9   2.0000     -10.296976      -280.1950
  10   2.0000     -10.291815      -280.0545
  11   2.0000     -10.291522      -280.0466
  12   2.0000     -10.288254      -279.9576
  13   2.0000     -10.288037      -279.9517
  14   2.0000     -10.282340      -279.7967
  15   2.0000     -10.276702      -279.6433
  16   2.0000      -8.079399      -219.8516
  17   2.0000      -8.078614      -219.8303
  18   2.0000      -6.037926      -164.3003
  19   2.0000      -6.037163      -164.2796
  20   2.0000      -6.033950      -164.1921
  21   2.0000      -6.033453      -164.1786
  22   2.0000      -6.030173      -164.0894
  23   2.0000      -6.029087      -164.0598
  24   2.0000      -1.006975       -27.4012
  25   2.0000      -0.984518       -26.7901
  26   2.0000      -0.914843       -24.8941
  27   2.0000      -0.900639       -24.5076
  28   2.0000      -0.869751       -23.6671
  29   2.0000      -0.847036       -23.0490
  30   2.0000      -0.840434       -22.8694
  31   2.0000      -0.814901       -22.1746
  32   2.0000      -0.783096       -21.3091
  33   2.0000      -0.767825       -20.8936
  34   2.0000      -0.706532       -19.2257
  35   2.0000      -0.694748       -18.9050
  36   2.0000      -0.690359       -18.7856
  37   2.0000      -0.666708       -18.1420
  38   2.0000      -0.634847       -17.2751
  39   2.0000      -0.613229       -16.6868
  40   2.0000      -0.598786       -16.2938
  41   2.0000      -0.577487       -15.7142
  42   2.0000      -0.562104       -15.2956
  43   2.0000      -0.557426       -15.1683
  44   2.0000      -0.527355       -14.3501
  45   2.0000      -0.521130       -14.1807
  46   2.0000      -0.512244       -13.9389
  47   2.0000      -0.508147       -13.8274
  48   2.0000      -0.506851       -13.7921
  49   2.0000      -0.502029       -13.6609
  50   2.0000      -0.489083       -13.3086
  51   2.0000      -0.473329       -12.8799
  52   2.0000      -0.470592       -12.8055
  53   2.0000      -0.464990       -12.6530
  54   2.0000      -0.458026       -12.4635
  55   2.0000      -0.443470       -12.0674
  56   2.0000      -0.441070       -12.0021
  57   2.0000      -0.439233       -11.9521
  58   2.0000      -0.430046       -11.7021
  59   2.0000      -0.428768       -11.6674
  60   2.0000      -0.418684       -11.3930
  61   2.0000      -0.413209       -11.2440
  62   2.0000      -0.411375       -11.1941
  63   2.0000      -0.338663        -9.2155
  64   2.0000      -0.329596        -8.9688
  65   2.0000      -0.326900        -8.8954
  66   2.0000      -0.306580        -8.3425
  67   0.0000       0.034627         0.9422
  68   0.0000       0.060424         1.6442
  69   0.0000       0.104010         2.8302
  70   0.0000       0.121821         3.3149
  71   0.0000       0.133507         3.6329

MULLIKEN ATOMIC CHARGES
-----------------------
   0 S :    0.102089
   1 C :   -0.097529
   2 C :   -0.136335
   3 C :    0.020431
   4 C :   -0.161887
   5 H :    0.023553
   6 C :    0.108692
   7 H :    0.040581
   8 H :    0.022929
   9 C :   -0.119891
  10 H :    0.032643
  11 H :    0.036303
  12 C :   -0.015215
  13 H :    0.020453
  14 H :    0.040421
  15 H :    0.018780
  16 S :    0.106180
  17 C :   -0.094934
  18 C :   -0.010772
  19 C :   -0.003393
  20 C :   -0.173123
  21 H :    0.014220
  22 C :    0.034384
  23 H :    0.033247
  24 H :    0.027906
  25 C :   -0.081708
  26 H :    0.038437
  27 H :    0.023945
  28 C :   -0.061856
  29 H :    0.030641
  30 H :    0.045968
  31 H :    0.035941
  32 H :    0.043572
  33 H :    0.055323
Sum of atomic charges:    0.0000000

LOEWDIN ATOMIC CHARGES
----------------------
   0 S :    0.396741
   1 C :   -0.195632
   2 C :   -0.058262
   3 C :   -0.072694
   4 C :   -0.194875
   5 H :    0.034885
   6 C :   -0.022254
   7 H :    0.032355
   8 H :    0.034765
   9 C :   -0.043881
  10 H :    0.020038
  11 H :    0.034174
  12 C :   -0.063292
  13 H :    0.025882
  14 H :    0.022764
  15 H :    0.025008
  16 S :    0.395244
  17 C :   -0.165993
  18 C :   -0.067200
  19 C :   -0.060276
  20 C :   -0.206532
  21 H :    0.031613
  22 C :   -0.038256
  23 H :    0.028902
  24 H :    0.034172
  25 C :   -0.037408
  26 H :    0.031643
  27 H :    0.015238
  28 C :   -0.072460
  29 H :    0.028499
  30 H :    0.025382
  31 H :    0.029478
  32 H :    0.024091
  33 H :    0.028144

  Mayer bond orders larger than 0.100000
B(  0-S ,  1-C ) :   1.1185 B(  0-S ,  4-C ) :   1.1634 B(  1-C ,  2-C ) :   1.6526
B(  1-C , 32-H ) :   0.9565 B(  2-C ,  3-C ) :   1.2166 B(  2-C ,  6-C ) :   1.0137
B(  3-C ,  4-C ) :   1.5947 B(  3-C ,  5-H ) :   0.9939 B(  4-C , 20-C ) :   0.9917
B(  6-C ,  7-H ) :   0.9367 B(  6-C ,  8-H ) :   0.9410 B(  6-C ,  9-C ) :   1.0692
B(  9-C , 10-H ) :   0.9550 B(  9-C , 11-H ) :   0.9537 B(  9-C , 12-C ) :   1.0907
B( 12-C , 13-H ) :   0.9725 B( 12-C , 14-H ) :   0.9752 B( 12-C , 15-H ) :   0.9706
B( 16-S , 17-C ) :   1.1428 B( 16-S , 20-C ) :   1.1475 B( 17-C , 18-C ) :   1.5994
B( 17-C , 33-H ) :   0.9735 B( 18-C , 19-C ) :   1.2542 B( 18-C , 21-H ) :   0.9884
B( 19-C , 20-C ) :   1.6099 B( 19-C , 22-C ) :   1.0492 B( 22-C , 23-H ) :   0.9399
B( 22-C , 24-H ) :   0.9314 B( 22-C , 25-C ) :   1.0469 B( 25-C , 26-H ) :   0.9553
B( 25-C , 27-H ) :   0.9601 B( 25-C , 28-C ) :   1.0830 B( 28-C , 29-H ) :   0.9734
B( 28-C , 30-H ) :   0.9751 B( 28-C , 31-H ) :   0.9740

Dispersion correction           -0.014084035
FINAL SINGLE POINT ENERGY     -1339.879986305303

DIPOLE MOMENT
-------------
                                X             Y             Z
Electronic contribution:     -5.56476      16.27799      -7.27570
Nuclear contribution   :      5.41941     -16.51048       7.57304
                        -----------------------------------------
Total Dipole Moment    :     -0.14534      -0.23250       0.29734
                        -----------------------------------------
Magnitude (a.u.)       :      0.40446
Magnitude (Debye)      :      1.02806

Rotational constants in cm-1:     0.019738     0.007828     0.006599
Rotational constants in MHz :   591.733630   234.687683   197.836444

                             ****ORCA TERMINATED NORMALLY****
TOTAL RUN TIME: 0 days 0 hours 0 minutes 32 seconds 466 msec
