                         Program Version 4.2.1 -  RELEASE  -
|  1> ! wB97X-D3 SP def2-SVP
|  2> %pal
|  3> nprocs 16
|  4> end
|  5>
|  6> * xyz 0 1
|  7> S 	 -99.1657 	 46.2252 	 122.674
|  8> C 	 -100.706 	 46.3947 	 123.355
|  9> C 	 -101.231 	 47.6628 	 123.189
| 10> C 	 -100.449 	 48.4388 	 122.305
| 11> C 	 -99.2641 	 47.8149 	 121.931
| 12> H 	 -100.66 	 49.4796 	 121.955
| 13> C 	 -102.52 	 48.151 	 123.806
| 14> H 	 -102.348 	 48.9763 	 124.462
| 15> H 	 -102.944 	 47.3675 	 124.418
| 16> C 	 -103.473 	 48.665 	 122.766
| 17> H 	 -103.042 	 49.3792 	 121.995
| 18> H 	 -103.884 	 47.7599 	 122.303
| 19> C 	 -104.663 	 49.271 	 123.438
| 20> H 	 -105.341 	 49.6232 	 122.713
| 21> H 	 -105.249 	 48.521 	 124.011
| 22> H 	 -104.28 	 50.0913 	 124.147
| 23> S 	 -96.6842 	 47.4491 	 121.113
| 24> C 	 -95.9648 	 48.3671 	 119.801
| 25> C 	 -96.9881 	 49.1286 	 119.22
| 26> C 	 -98.2339 	 49.1377 	 119.903
| 27> C 	 -98.2316 	 48.2335 	 120.946
| 28> H 	 -96.7054 	 49.619 	 118.256
| 29> C 	 -99.4853 	 49.9642 	 119.388
| 30> H 	 -99.815 	 50.5504 	 120.213
| 31> H 	 -100.329 	 49.236 	 119.238
| 32> C 	 -99.2681 	 50.9039 	 118.26
| 33> H 	 -98.8157 	 50.4603 	 117.366
| 34> H 	 -98.553 	 51.7046 	 118.523
| 35> C 	 -100.612 	 51.4103 	 117.687
| 36> H 	 -101.384 	 50.591 	 117.641
| 37> H 	 -100.534 	 51.7807 	 116.657
| 38> H 	 -101.089 	 52.1369 	 118.407
| 39> H 	 -101.14 	 45.6904 	 124.048
| 40> H 	 -94.9686 	 48.1646 	 119.341
| 41> *
| 42>
| 43>                          ****END OF INPUT****

CARTESIAN COORDINATES (ANGSTROEM)
---------------------------------
  S    -99.165700   46.225200  122.674000
  C    -100.706000   46.394700  123.355000
  C    -101.231000   47.662800  123.189000
  C    -100.449000   48.438800  122.305000
  C    -99.264100   47.814900  121.931000
  H    -100.660000   49.479600  121.955000
  C    -102.520000   48.151000  123.806000
  H    -102.348000   48.976300  124.462000
  H    -102.944000   47.367500  124.418000
  C    -103.473000   48.665000  122.766000
  H    -103.042000   49.379200  121.995000
  H    -103.884000   47.759900  122.303000
  C    -104.663000   49.271000  123.438000
  H    -105.341000   49.623200  122.713000
  H    -105.249000   48.521000  124.011000
  H    -104.280000   50.091300  124.147000
  S    -96.684200   47.449100  121.113000
  C    -95.964800   48.367100  119.801000
  C    -96.988100   49.128600  119.220000
  C    -98.233900   49.137700  119.903000
  C    -98.231600   48.233500  120.946000
  H    -96.705400   49.619000  118.256000
  C    -99.485300   49.964200  119.388000
  H    -99.815000   50.550400  120.213000
  H    -100.329000   49.236000  119.238000
  C    -99.268100   50.903900  118.260000
  H    -98.815700   50.460300  117.366000
  H    -98.553000   51.704600  118.523000
  C    -100.612000   51.410300  117.687000
  H    -101.384000   50.591000  117.641000
  H    -100.534000   51.780700  116.657000
  H    -101.089000   52.136900  118.407000
  H    -101.140000   45.690400  124.048000
  H    -94.968600   48.164600  119.341000

 Total Charge           Charge          ....    0
 Multiplicity           Mult            ....    1
 Number of Electrons    NEL             ....  134
 Basis Dimension        Dim             ....  322

ORBITAL ENERGIES
----------------

  NO   OCC          E(Eh)            E(eV)
   0   2.0000     -88.966337     -2420.8971
   1   2.0000     -88.963965     -2420.8326
   2   2.0000     -10.333119      -281.1785
   3   2.0000     -10.330205      -281.0992
   4   2.0000     -10.320947      -280.8473
   5   2.0000     -10.308224      -280.5010
   6   2.0000     -10.307829      -280.4903
   7   2.0000     -10.299023      -280.2507
   8   2.0000     -10.298755      -280.2434
   9   2.0000     -10.297810      -280.2177
  10   2.0000     -10.297349      -280.2051
  11   2.0000     -10.290238      -280.0116
  12   2.0000     -10.289879      -280.0018
  13   2.0000     -10.286878      -279.9202
  14   2.0000     -10.286035      -279.8972
  15   2.0000     -10.279789      -279.7273
  16   2.0000      -8.082026      -219.9231
  17   2.0000      -8.078824      -219.8360
  18   2.0000      -6.040437      -164.3686
  19   2.0000      -6.037378      -164.2854
  20   2.0000      -6.036468      -164.2607
  21   2.0000      -6.033249      -164.1730
  22   2.0000      -6.032765      -164.1599
  23   2.0000      -6.029599      -164.0737
  24   2.0000      -1.010213       -27.4893
  25   2.0000      -0.987639       -26.8750
  26   2.0000      -0.923786       -25.1375
  27   2.0000      -0.913033       -24.8449
  28   2.0000      -0.868602       -23.6359
  29   2.0000      -0.855939       -23.2913
  30   2.0000      -0.843910       -22.9640
  31   2.0000      -0.814663       -22.1681
  32   2.0000      -0.781040       -21.2532
  33   2.0000      -0.772243       -21.0138
  34   2.0000      -0.706049       -19.2126
  35   2.0000      -0.700718       -19.0675
  36   2.0000      -0.686898       -18.6914
  37   2.0000      -0.655242       -17.8300
  38   2.0000      -0.637419       -17.3451
  39   2.0000      -0.624898       -17.0043
  40   2.0000      -0.597346       -16.2546
  41   2.0000      -0.579871       -15.7791
  42   2.0000      -0.568505       -15.4698
  43   2.0000      -0.562893       -15.3171
  44   2.0000      -0.533797       -14.5254
  45   2.0000      -0.526306       -14.3215
  46   2.0000      -0.515829       -14.0364
  47   2.0000      -0.509027       -13.8513
  48   2.0000      -0.502265       -13.6673
  49   2.0000      -0.496836       -13.5196
  50   2.0000      -0.492589       -13.4040
  51   2.0000      -0.480605       -13.0779
  52   2.0000      -0.474528       -12.9126
  53   2.0000      -0.468419       -12.7463
  54   2.0000      -0.460627       -12.5343
  55   2.0000      -0.448752       -12.2112
  56   2.0000      -0.443249       -12.0614
  57   2.0000      -0.440699       -11.9920
  58   2.0000      -0.437122       -11.8947
  59   2.0000      -0.428337       -11.6556
  60   2.0000      -0.420062       -11.4305
  61   2.0000      -0.416104       -11.3228
  62   2.0000      -0.406073       -11.0498
  63   2.0000      -0.359212        -9.7746
  64   2.0000      -0.335605        -9.1323
  65   2.0000      -0.327938        -8.9237
  66   2.0000      -0.282555        -7.6887
  67   0.0000       0.022673         0.6170
  68   0.0000       0.081319         2.2128
  69   0.0000       0.107537         2.9262
  70   0.0000       0.126485         3.4418
  71   0.0000       0.130888         3.5616

MULLIKEN ATOMIC CHARGES
-----------------------
   0 S :    0.111245
   1 C :   -0.112684
   2 C :   -0.080090
   3 C :   -0.034114
   4 C :   -0.111995
   5 H :    0.023086
   6 C :    0.114072
   7 H :    0.015820
   8 H :    0.009646
   9 C :   -0.124539
  10 H :    0.051777
  11 H :    0.028600
  12 C :   -0.037054
  13 H :    0.025184
  14 H :    0.028968
  15 H :    0.035659
  16 S :    0.086291
  17 C :   -0.108594
  18 C :   -0.080803
  19 C :   -0.035329
  20 C :   -0.124061
  21 H :    0.036333
  22 C :    0.045927
  23 H :    0.029759
  24 H :    0.048788
  25 C :   -0.073739
  26 H :    0.028505
  27 H :    0.041906
  28 C :   -0.073300
  29 H :    0.031012
  30 H :    0.045137
  31 H :    0.036186
  32 H :    0.044139
  33 H :    0.078258
Sum of atomic charges:    0.0000000

LOEWDIN ATOMIC CHARGES
----------------------
   0 S :    0.424365
   1 C :   -0.215590
   2 C :   -0.062566
   3 C :   -0.072895
   4 C :   -0.185022
   5 H :    0.036015
   6 C :   -0.027073
   7 H :    0.025445
   8 H :    0.029253
   9 C :   -0.049226
  10 H :    0.031709
  11 H :    0.028482
  12 C :   -0.066289
  13 H :    0.018570
  14 H :    0.027196
  15 H :    0.029523
  16 S :    0.402832
  17 C :   -0.201759
  18 C :   -0.078911
  19 C :   -0.063651
  20 C :   -0.191810
  21 H :    0.037953
  22 C :   -0.030677
  23 H :    0.026178
  24 H :    0.039989
  25 C :   -0.051539
  26 H :    0.023976
  27 H :    0.031266
  28 C :   -0.069493
  29 H :    0.029118
  30 H :    0.028423
  31 H :    0.027385
  32 H :    0.026913
  33 H :    0.041910

  Mayer bond orders larger than 0.100000
B(  0-S ,  1-C ) :   1.1542 B(  0-S ,  4-C ) :   1.1577 B(  1-C ,  2-C ) :   1.6039
B(  1-C , 32-H ) :   0.9624 B(  2-C ,  3-C ) :   1.2550 B(  2-C ,  6-C ) :   1.0299
B(  3-C ,  4-C ) :   1.5706 B(  3-C ,  5-H ) :   0.9808 B(  4-C , 20-C ) :   1.0453
B(  6-C ,  7-H ) :   0.9308 B(  6-C ,  8-H ) :   0.9376 B(  6-C ,  9-C ) :   1.0636
B(  9-C , 10-H ) :   0.9543 B(  9-C , 11-H ) :   0.9489 B(  9-C , 12-C ) :   1.0950
B( 12-C , 13-H ) :   0.9704 B( 12-C , 14-H ) :   0.9704 B( 12-C , 15-H ) :   0.9711
B( 16-S , 17-C ) :   1.1515 B( 16-S , 20-C ) :   1.1535 B( 17-C , 18-C ) :   1.5949
B( 17-C , 20-C ) :   0.1070 B( 17-C , 33-H ) :   0.9607 B( 18-C , 19-C ) :   1.2638
B( 18-C , 21-H ) :   0.9771 B( 19-C , 20-C ) :   1.5949 B( 19-C , 22-C ) :   1.0030
B( 22-C , 23-H ) :   0.9275 B( 22-C , 24-H ) :   0.9414 B( 22-C , 25-C ) :   1.0876
B( 25-C , 26-H ) :   0.9486 B( 25-C , 27-H ) :   0.9486 B( 25-C , 28-C ) :   1.0702
B( 28-C , 29-H ) :   0.9741 B( 28-C , 30-H ) :   0.9766 B( 28-C , 31-H ) :   0.9748

Dispersion correction           -0.013262816
FINAL SINGLE POINT ENERGY     -1339.879924026074

DIPOLE MOMENT
-------------
                                X             Y             Z
Electronic contribution:     25.98831     -19.00773       7.25622
Nuclear contribution   :    -26.53235      19.37690      -7.51955
                        -----------------------------------------
Total Dipole Moment    :     -0.54404       0.36918      -0.26333
                        -----------------------------------------
Magnitude (a.u.)       :      0.70825
Magnitude (Debye)      :      1.80022

Rotational constants in cm-1:     0.016100     0.009296     0.006040
Rotational constants in MHz :   482.679764   278.674520   181.065952

                             ****ORCA TERMINATED NORMALLY****
TOTAL RUN TIME: 0 days 0 hours 0 minutes 32 seconds 605 msec
