                         Program Version 4.2.1 -  RELEASE  -
|  1> ! wB97X-D3 SP def2-SVP
|  2> %pal
|  3> nprocs 16
|  4> end
|  5>
|  6> * xyz 0 1
|  7> S 	 -7.32315 	 14.2595 	 80.1052
|  8> C 	 -7.28531 	 12.7904 	 79.0706
|  9> C 	 -5.96003 	 12.4716 	 78.818
| 10> C 	 -5.01572 	 13.4705 	 79.2126
| 11> C 	 -5.63967 	 14.5685 	 79.804
| 12> H 	 -3.9389 	 13.4462 	 79.0568
| 13> C 	 -5.35588 	 11.134 	 78.2438
| 14> H 	 -5.85455 	 10.3886 	 78.8191
| 15> H 	 -4.25938 	 11.1083 	 78.48
| 16> C 	 -5.72735 	 10.9647 	 76.7332
| 17> H 	 -5.48797 	 9.87406 	 76.5583
| 18> H 	 -6.78437 	 11.0427 	 76.5249
| 19> C 	 -5.07947 	 12.0504 	 75.7854
| 20> H 	 -4.52887 	 11.528 	 74.9751
| 21> H 	 -5.75787 	 12.8098 	 75.4113
| 22> H 	 -4.34862 	 12.5946 	 76.3017
| 23> S 	 -5.63326 	 17.4119 	 80.2009
| 24> C 	 -4.20148 	 18.1477 	 80.8539
| 25> C 	 -3.33243 	 17.1747 	 81.2724
| 26> C 	 -3.77006 	 15.8355 	 81.0587
| 27> C 	 -4.98218 	 15.7627 	 80.3911
| 28> H 	 -2.50729 	 17.3714 	 81.9255
| 29> C 	 -2.91733 	 14.7377 	 81.5397
| 30> H 	 -3.51745 	 13.8192 	 81.4385
| 31> H 	 -2.69714 	 14.8081 	 82.5815
| 32> C 	 -1.54803 	 14.5536 	 80.8178
| 33> H 	 -0.8562 	 15.3568 	 81.0555
| 34> H 	 -1.5795 	 14.7047 	 79.7304
| 35> C 	 -0.790242 	 13.273 	 81.1262
| 36> H 	 -0.700675 	 13.2239 	 82.2213
| 37> H 	 0.277863 	 13.3723 	 80.7694
| 38> H 	 -1.2046 	 12.4007 	 80.6598
| 39> H 	 -8.16537 	 12.1184 	 78.9121
| 40> H 	 -4.07373 	 19.1612 	 81.267
| 41> *
| 42>
| 43>                          ****END OF INPUT****

CARTESIAN COORDINATES (ANGSTROEM)
---------------------------------
  S     -7.323150   14.259500   80.105200
  C     -7.285310   12.790400   79.070600
  C     -5.960030   12.471600   78.818000
  C     -5.015720   13.470500   79.212600
  C     -5.639670   14.568500   79.804000
  H     -3.938900   13.446200   79.056800
  C     -5.355880   11.134000   78.243800
  H     -5.854550   10.388600   78.819100
  H     -4.259380   11.108300   78.480000
  C     -5.727350   10.964700   76.733200
  H     -5.487970    9.874060   76.558300
  H     -6.784370   11.042700   76.524900
  C     -5.079470   12.050400   75.785400
  H     -4.528870   11.528000   74.975100
  H     -5.757870   12.809800   75.411300
  H     -4.348620   12.594600   76.301700
  S     -5.633260   17.411900   80.200900
  C     -4.201480   18.147700   80.853900
  C     -3.332430   17.174700   81.272400
  C     -3.770060   15.835500   81.058700
  C     -4.982180   15.762700   80.391100
  H     -2.507290   17.371400   81.925500
  C     -2.917330   14.737700   81.539700
  H     -3.517450   13.819200   81.438500
  H     -2.697140   14.808100   82.581500
  C     -1.548030   14.553600   80.817800
  H     -0.856200   15.356800   81.055500
  H     -1.579500   14.704700   79.730400
  C     -0.790242   13.273000   81.126200
  H     -0.700675   13.223900   82.221300
  H      0.277863   13.372300   80.769400
  H     -1.204600   12.400700   80.659800
  H     -8.165370   12.118400   78.912100
  H     -4.073730   19.161200   81.267000

 Total Charge           Charge          ....    0
 Multiplicity           Mult            ....    1
 Number of Electrons    NEL             ....  134
 Basis Dimension        Dim             ....  322

ORBITAL ENERGIES
----------------

  NO   OCC          E(Eh)            E(eV)
   0   2.0000     -88.967084     -2420.9174
   1   2.0000     -88.966317     -2420.8966
   2   2.0000     -10.334023      -281.2031
   3   2.0000     -10.331410      -281.1320
   4   2.0000     -10.321761      -280.8694
   5   2.0000     -10.318427      -280.7787
   6   2.0000     -10.305441      -280.4253
   7   2.0000     -10.300011      -280.2775
   8   2.0000     -10.299048      -280.2513
   9   2.0000     -10.296392      -280.1791
  10   2.0000     -10.294676      -280.1324
  11   2.0000     -10.289024      -279.9786
  12   2.0000     -10.288037      -279.9517
  13   2.0000     -10.287742      -279.9437
  14   2.0000     -10.283353      -279.8243
  15   2.0000     -10.275383      -279.6074
  16   2.0000      -8.081292      -219.9031
  17   2.0000      -8.080628      -219.8851
  18   2.0000      -6.039853      -164.3528
  19   2.0000      -6.039376      -164.3398
  20   2.0000      -6.035967      -164.2470
  21   2.0000      -6.035116      -164.2239
  22   2.0000      -6.031923      -164.1370
  23   2.0000      -6.031223      -164.1179
  24   2.0000      -1.004197       -27.3256
  25   2.0000      -0.982791       -26.7431
  26   2.0000      -0.911284       -24.7973
  27   2.0000      -0.901840       -24.5403
  28   2.0000      -0.864144       -23.5145
  29   2.0000      -0.854511       -23.2524
  30   2.0000      -0.840326       -22.8664
  31   2.0000      -0.811846       -22.0914
  32   2.0000      -0.783734       -21.3265
  33   2.0000      -0.773062       -21.0361
  34   2.0000      -0.704812       -19.1789
  35   2.0000      -0.702708       -19.1216
  36   2.0000      -0.694714       -18.9041
  37   2.0000      -0.660536       -17.9741
  38   2.0000      -0.636004       -17.3065
  39   2.0000      -0.614773       -16.7288
  40   2.0000      -0.597156       -16.2494
  41   2.0000      -0.566786       -15.4230
  42   2.0000      -0.565224       -15.3805
  43   2.0000      -0.546248       -14.8642
  44   2.0000      -0.532668       -14.4946
  45   2.0000      -0.524512       -14.2727
  46   2.0000      -0.517144       -14.0722
  47   2.0000      -0.514331       -13.9957
  48   2.0000      -0.511690       -13.9238
  49   2.0000      -0.497137       -13.5278
  50   2.0000      -0.487202       -13.2574
  51   2.0000      -0.480190       -13.0666
  52   2.0000      -0.476599       -12.9689
  53   2.0000      -0.462369       -12.5817
  54   2.0000      -0.461113       -12.5475
  55   2.0000      -0.447833       -12.1862
  56   2.0000      -0.444229       -12.0881
  57   2.0000      -0.433481       -11.7956
  58   2.0000      -0.431039       -11.7292
  59   2.0000      -0.426202       -11.5975
  60   2.0000      -0.421425       -11.4676
  61   2.0000      -0.415235       -11.2991
  62   2.0000      -0.406610       -11.0644
  63   2.0000      -0.346631        -9.4323
  64   2.0000      -0.330565        -8.9951
  65   2.0000      -0.329181        -8.9575
  66   2.0000      -0.294039        -8.0012
  67   0.0000       0.021717         0.5910
  68   0.0000       0.072949         1.9851
  69   0.0000       0.097379         2.6498
  70   0.0000       0.118565         3.2263
  71   0.0000       0.134008         3.6465

MULLIKEN ATOMIC CHARGES
-----------------------
   0 S :    0.101257
   1 C :   -0.145689
   2 C :   -0.096269
   3 C :    0.006565
   4 C :   -0.135163
   5 H :    0.019523
   6 C :    0.062744
   7 H :    0.026824
   8 H :    0.041017
   9 C :   -0.096631
  10 H :    0.039739
  11 H :    0.032712
  12 C :   -0.032383
  13 H :    0.040967
  14 H :    0.045334
  15 H :    0.008222
  16 S :    0.105769
  17 C :   -0.082079
  18 C :   -0.035189
  19 C :   -0.040612
  20 C :   -0.144304
  21 H :    0.013446
  22 C :    0.075663
  23 H :    0.023664
  24 H :    0.022219
  25 C :   -0.099926
  26 H :    0.017813
  27 H :    0.025850
  28 C :   -0.047551
  29 H :    0.030778
  30 H :    0.037715
  31 H :    0.036316
  32 H :    0.068079
  33 H :    0.073578
Sum of atomic charges:    0.0000000

LOEWDIN ATOMIC CHARGES
----------------------
   0 S :    0.396184
   1 C :   -0.201899
   2 C :   -0.058769
   3 C :   -0.071661
   4 C :   -0.186169
   5 H :    0.032893
   6 C :   -0.025083
   7 H :    0.026540
   8 H :    0.034711
   9 C :   -0.043905
  10 H :    0.028268
  11 H :    0.023291
  12 C :   -0.064734
  13 H :    0.033820
  14 H :    0.031379
  15 H :    0.014933
  16 S :    0.398705
  17 C :   -0.194332
  18 C :   -0.070271
  19 C :   -0.056863
  20 C :   -0.194181
  21 H :    0.026859
  22 C :   -0.034445
  23 H :    0.032033
  24 H :    0.030092
  25 C :   -0.048682
  26 H :    0.022352
  27 H :    0.021994
  28 C :   -0.065142
  29 H :    0.026595
  30 H :    0.034875
  31 H :    0.019369
  32 H :    0.038745
  33 H :    0.042500

  Mayer bond orders larger than 0.100000
B(  0-S ,  1-C ) :   1.1184 B(  0-S ,  4-C ) :   1.1754 B(  1-C ,  2-C ) :   1.6166
B(  1-C ,  4-C ) :   0.1008 B(  1-C , 32-H ) :   0.9661 B(  2-C ,  3-C ) :   1.2417
B(  2-C ,  6-C ) :   0.9926 B(  3-C ,  4-C ) :   1.5525 B(  3-C ,  5-H ) :   0.9949
B(  4-C , 20-C ) :   1.0282 B(  6-C ,  7-H ) :   0.9390 B(  6-C ,  8-H ) :   0.9535
B(  6-C ,  9-C ) :   1.0733 B(  9-C , 10-H ) :   0.9654 B(  9-C , 11-H ) :   0.9652
B(  9-C , 12-C ) :   1.0376 B( 12-C , 13-H ) :   0.9770 B( 12-C , 14-H ) :   0.9784
B( 12-C , 15-H ) :   0.9838 B( 16-S , 17-C ) :   1.1533 B( 16-S , 20-C ) :   1.1248
B( 17-C , 18-C ) :   1.6062 B( 17-C , 33-H ) :   0.9572 B( 18-C , 19-C ) :   1.2589
B( 18-C , 21-H ) :   0.9852 B( 19-C , 20-C ) :   1.5796 B( 19-C , 22-C ) :   1.0687
B( 22-C , 23-H ) :   0.9332 B( 22-C , 24-H ) :   0.9217 B( 22-C , 25-C ) :   1.0461
B( 25-C , 26-H ) :   0.9486 B( 25-C , 27-H ) :   0.9556 B( 25-C , 28-C ) :   1.0945
B( 28-C , 29-H ) :   0.9715 B( 28-C , 30-H ) :   0.9721 B( 28-C , 31-H ) :   0.9772

Dispersion correction           -0.014532997
FINAL SINGLE POINT ENERGY     -1339.869639058722

DIPOLE MOMENT
-------------
                                X             Y             Z
Electronic contribution:    -19.99130      19.49569       8.17360
Nuclear contribution   :     20.58296     -19.97474      -7.99940
                        -----------------------------------------
Total Dipole Moment    :      0.59165      -0.47906       0.17420
                        -----------------------------------------
Magnitude (a.u.)       :      0.78096
Magnitude (Debye)      :      1.98504

Rotational constants in cm-1:     0.016927     0.009284     0.006940
Rotational constants in MHz :   507.450795   278.318785   208.065042

                             ****ORCA TERMINATED NORMALLY****
TOTAL RUN TIME: 0 days 0 hours 0 minutes 34 seconds 834 msec
