                         Program Version 4.2.1 -  RELEASE  -
|  1> ! wB97X-D3 SP def2-SVP
|  2> %pal
|  3> nprocs 16
|  4> end
|  5>
|  6> * xyz 0 1
|  7> S 	 8.87726 	 23.5719 	 67.9782
|  8> C 	 8.00567 	 22.6593 	 66.8938
|  9> C 	 7.57993 	 23.3634 	 65.7937
| 10> C 	 8.15536 	 24.7187 	 65.8238
| 11> C 	 9.08638 	 24.8567 	 66.847
| 12> H 	 7.99886 	 25.5014 	 65.1247
| 13> C 	 6.62644 	 22.9867 	 64.6227
| 14> H 	 6.68364 	 21.9276 	 64.3319
| 15> H 	 7.10715 	 23.5614 	 63.8134
| 16> C 	 5.13035 	 23.3233 	 64.8485
| 17> H 	 4.53742 	 22.8269 	 64
| 18> H 	 4.75074 	 22.834 	 65.8052
| 19> C 	 4.93674 	 24.8302 	 64.8373
| 20> H 	 3.85862 	 25.1245 	 64.8861
| 21> H 	 5.35822 	 25.3115 	 65.7109
| 22> H 	 5.41909 	 25.2106 	 63.9666
| 23> S 	 9.33435 	 27.6188 	 66.6588
| 24> C 	 10.7185 	 28.3787 	 67.3827
| 25> C 	 11.5828 	 27.4242 	 67.9104
| 26> C 	 11.1419 	 26.0938 	 67.7891
| 27> C 	 9.87548 	 26.03 	 67.2462
| 28> H 	 12.4546 	 27.8698 	 68.474
| 29> C 	 12.0559 	 24.9437 	 68.2156
| 30> H 	 13.0122 	 25.1008 	 67.6961
| 31> H 	 11.7499 	 23.8795 	 67.8926
| 32> C 	 12.1712 	 24.7912 	 69.795
| 33> H 	 11.1725 	 24.5204 	 70.1662
| 34> H 	 12.489 	 25.6092 	 70.3969
| 35> C 	 13.036 	 23.5275 	 70.1197
| 36> H 	 14.1349 	 23.674 	 69.9146
| 37> H 	 12.5014 	 22.6521 	 69.7098
| 38> H 	 13.0156 	 23.2899 	 71.1708
| 39> H 	 7.6693 	 21.6219 	 66.9291
| 40> H 	 10.8795 	 29.4859 	 67.371
| 41> *
| 42>
| 43>                          ****END OF INPUT****

CARTESIAN COORDINATES (ANGSTROEM)
---------------------------------
  S      8.877260   23.571900   67.978200
  C      8.005670   22.659300   66.893800
  C      7.579930   23.363400   65.793700
  C      8.155360   24.718700   65.823800
  C      9.086380   24.856700   66.847000
  H      7.998860   25.501400   65.124700
  C      6.626440   22.986700   64.622700
  H      6.683640   21.927600   64.331900
  H      7.107150   23.561400   63.813400
  C      5.130350   23.323300   64.848500
  H      4.537420   22.826900   64.000000
  H      4.750740   22.834000   65.805200
  C      4.936740   24.830200   64.837300
  H      3.858620   25.124500   64.886100
  H      5.358220   25.311500   65.710900
  H      5.419090   25.210600   63.966600
  S      9.334350   27.618800   66.658800
  C     10.718500   28.378700   67.382700
  C     11.582800   27.424200   67.910400
  C     11.141900   26.093800   67.789100
  C      9.875480   26.030000   67.246200
  H     12.454600   27.869800   68.474000
  C     12.055900   24.943700   68.215600
  H     13.012200   25.100800   67.696100
  H     11.749900   23.879500   67.892600
  C     12.171200   24.791200   69.795000
  H     11.172500   24.520400   70.166200
  H     12.489000   25.609200   70.396900
  C     13.036000   23.527500   70.119700
  H     14.134900   23.674000   69.914600
  H     12.501400   22.652100   69.709800
  H     13.015600   23.289900   71.170800
  H      7.669300   21.621900   66.929100
  H     10.879500   29.485900   67.371000

 Total Charge           Charge          ....    0
 Multiplicity           Mult            ....    1
 Number of Electrons    NEL             ....  134
 Basis Dimension        Dim             ....  322

ORBITAL ENERGIES
----------------

  NO   OCC          E(Eh)            E(eV)
   0   2.0000     -88.966105     -2420.8908
   1   2.0000     -88.965527     -2420.8751
   2   2.0000     -10.329009      -281.0666
   3   2.0000     -10.326705      -281.0039
   4   2.0000     -10.322780      -280.8971
   5   2.0000     -10.306211      -280.4463
   6   2.0000     -10.305364      -280.4232
   7   2.0000     -10.303350      -280.3684
   8   2.0000     -10.301918      -280.3295
   9   2.0000     -10.297815      -280.2178
  10   2.0000     -10.297737      -280.2157
  11   2.0000     -10.297547      -280.2105
  12   2.0000     -10.292475      -280.0725
  13   2.0000     -10.289096      -279.9805
  14   2.0000     -10.280321      -279.7417
  15   2.0000     -10.273961      -279.5687
  16   2.0000      -8.081864      -219.9187
  17   2.0000      -8.080690      -219.8867
  18   2.0000      -6.040268      -164.3641
  19   2.0000      -6.039206      -164.3352
  20   2.0000      -6.036247      -164.2546
  21   2.0000      -6.035253      -164.2276
  22   2.0000      -6.032546      -164.1539
  23   2.0000      -6.031438      -164.1238
  24   2.0000      -1.012307       -27.5463
  25   2.0000      -0.989415       -26.9233
  26   2.0000      -0.907602       -24.6971
  27   2.0000      -0.899032       -24.4639
  28   2.0000      -0.868949       -23.6453
  29   2.0000      -0.851654       -23.1747
  30   2.0000      -0.843331       -22.9482
  31   2.0000      -0.808757       -22.0074
  32   2.0000      -0.780004       -21.2250
  33   2.0000      -0.769226       -20.9317
  34   2.0000      -0.701338       -19.0844
  35   2.0000      -0.696729       -18.9590
  36   2.0000      -0.692752       -18.8507
  37   2.0000      -0.659524       -17.9466
  38   2.0000      -0.637932       -17.3590
  39   2.0000      -0.609503       -16.5854
  40   2.0000      -0.596190       -16.2231
  41   2.0000      -0.568794       -15.4777
  42   2.0000      -0.560676       -15.2568
  43   2.0000      -0.547029       -14.8854
  44   2.0000      -0.538266       -14.6470
  45   2.0000      -0.521151       -14.1812
  46   2.0000      -0.515508       -14.0277
  47   2.0000      -0.512968       -13.9586
  48   2.0000      -0.503079       -13.6895
  49   2.0000      -0.493475       -13.4281
  50   2.0000      -0.482892       -13.1402
  51   2.0000      -0.472779       -12.8650
  52   2.0000      -0.471484       -12.8297
  53   2.0000      -0.462536       -12.5863
  54   2.0000      -0.459247       -12.4967
  55   2.0000      -0.444064       -12.0836
  56   2.0000      -0.437760       -11.9121
  57   2.0000      -0.435684       -11.8556
  58   2.0000      -0.431414       -11.7394
  59   2.0000      -0.424633       -11.5549
  60   2.0000      -0.424208       -11.5433
  61   2.0000      -0.416890       -11.3441
  62   2.0000      -0.410125       -11.1601
  63   2.0000      -0.355434        -9.6719
  64   2.0000      -0.333283        -9.0691
  65   2.0000      -0.324379        -8.8268
  66   2.0000      -0.287513        -7.8236
  67   0.0000       0.025294         0.6883
  68   0.0000       0.083176         2.2633
  69   0.0000       0.103306         2.8111
  70   0.0000       0.116985         3.1833
  71   0.0000       0.132382         3.6023

MULLIKEN ATOMIC CHARGES
-----------------------
   0 S :    0.119772
   1 C :   -0.087860
   2 C :   -0.117894
   3 C :   -0.009261
   4 C :   -0.131276
   5 H :    0.004092
   6 C :    0.039848
   7 H :    0.027383
   8 H :    0.033712
   9 C :   -0.090402
  10 H :    0.043428
  11 H :    0.042193
  12 C :   -0.044368
  13 H :    0.037914
  14 H :    0.043046
  15 H :    0.021941
  16 S :    0.090319
  17 C :   -0.118465
  18 C :   -0.053267
  19 C :   -0.007358
  20 C :   -0.128315
  21 H :    0.043495
  22 C :    0.024624
  23 H :    0.041982
  24 H :    0.036683
  25 C :   -0.070944
  26 H :    0.027126
  27 H :    0.030167
  28 C :   -0.072090
  29 H :    0.047520
  30 H :    0.037847
  31 H :    0.021843
  32 H :    0.039341
  33 H :    0.077227
Sum of atomic charges:   -0.0000000

LOEWDIN ATOMIC CHARGES
----------------------
   0 S :    0.456676
   1 C :   -0.233138
   2 C :   -0.062024
   3 C :   -0.069723
   4 C :   -0.194162
   5 H :    0.018326
   6 C :   -0.035306
   7 H :    0.029811
   8 H :    0.032674
   9 C :   -0.045913
  10 H :    0.030557
  11 H :    0.030670
  12 C :   -0.068317
  13 H :    0.030870
  14 H :    0.027175
  15 H :    0.019336
  16 S :    0.396893
  17 C :   -0.191906
  18 C :   -0.080774
  19 C :   -0.059951
  20 C :   -0.191359
  21 H :    0.043604
  22 C :   -0.036405
  23 H :    0.033667
  24 H :    0.032983
  25 C :   -0.035947
  26 H :    0.024370
  27 H :    0.016153
  28 C :   -0.075436
  29 H :    0.030857
  30 H :    0.029785
  31 H :    0.021326
  32 H :    0.034454
  33 H :    0.040172

  Mayer bond orders larger than 0.100000
B(  0-S ,  1-C ) :   1.1468 B(  0-S ,  4-C ) :   1.1678 B(  1-C ,  2-C ) :   1.6345
B(  1-C , 32-H ) :   0.9585 B(  2-C ,  3-C ) :   1.2377 B(  2-C ,  6-C ) :   1.0020
B(  3-C ,  4-C ) :   1.5687 B(  3-C ,  5-H ) :   0.9924 B(  4-C , 20-C ) :   1.0548
B(  6-C ,  7-H ) :   0.9447 B(  6-C ,  8-H ) :   0.9490 B(  6-C ,  9-C ) :   1.0629
B(  9-C , 10-H ) :   0.9563 B(  9-C , 11-H ) :   0.9542 B(  9-C , 12-C ) :   1.0770
B( 12-C , 13-H ) :   0.9714 B( 12-C , 14-H ) :   0.9712 B( 12-C , 15-H ) :   0.9738
B( 16-S , 17-C ) :   1.1607 B( 16-S , 20-C ) :   1.1293 B( 17-C , 18-C ) :   1.6140
B( 17-C , 33-H ) :   0.9622 B( 18-C , 19-C ) :   1.2350 B( 18-C , 21-H ) :   0.9826
B( 19-C , 20-C ) :   1.5794 B( 19-C , 22-C ) :   1.0361 B( 22-C , 23-H ) :   0.9411
B( 22-C , 24-H ) :   0.9373 B( 22-C , 25-C ) :   1.0385 B( 25-C , 26-H ) :   0.9541
B( 25-C , 27-H ) :   0.9647 B( 25-C , 28-C ) :   1.0875 B( 28-C , 29-H ) :   0.9757
B( 28-C , 30-H ) :   0.9723 B( 28-C , 31-H ) :   0.9736

Dispersion correction           -0.014495115
FINAL SINGLE POINT ENERGY     -1339.871065373438

DIPOLE MOMENT
-------------
                                X             Y             Z
Electronic contribution:      1.40995       9.58558       0.28898
Nuclear contribution   :     -1.34289      -9.63006      -0.30851
                        -----------------------------------------
Total Dipole Moment    :      0.06706      -0.04448      -0.01953
                        -----------------------------------------
Magnitude (a.u.)       :      0.08281
Magnitude (Debye)      :      0.21047

Rotational constants in cm-1:     0.021359     0.008524     0.006369
Rotational constants in MHz :   640.337598   255.540010   190.928392

                             ****ORCA TERMINATED NORMALLY****
TOTAL RUN TIME: 0 days 0 hours 0 minutes 36 seconds 906 msec
