                         Program Version 4.2.1 -  RELEASE  -
|  1> ! wB97X-D3 SP def2-SVP
|  2> %pal
|  3> nprocs 16
|  4> end
|  5>
|  6> * xyz 0 1
|  7> S 	 49.3582 	 29.5692 	 44.5262
|  8> C 	 50.7832 	 30.4654 	 45.0583
|  9> C 	 51.8419 	 29.6812 	 45.4446
| 10> C 	 51.4197 	 28.3159 	 45.4031
| 11> C 	 50.1239 	 28.0658 	 44.9895
| 12> H 	 51.9812 	 27.5088 	 45.8004
| 13> C 	 53.1177 	 30.1817 	 46.013
| 14> H 	 53.2706 	 29.5066 	 46.7937
| 15> H 	 53.171 	 31.2091 	 46.4277
| 16> C 	 54.315 	 30.0076 	 45.1123
| 17> H 	 54.3834 	 28.9522 	 44.6832
| 18> H 	 54.2341 	 30.7142 	 44.261
| 19> C 	 55.6512 	 30.2083 	 45.8764
| 20> H 	 55.5167 	 29.7748 	 46.8422
| 21> H 	 56.5701 	 29.7796 	 45.3354
| 22> H 	 55.7576 	 31.2758 	 46.0781
| 23> S 	 47.9206 	 26.9628 	 45.855
| 24> C 	 47.7584 	 25.2129 	 45.9547
| 25> C 	 48.9167 	 24.5395 	 45.6666
| 26> C 	 49.8807 	 25.4761 	 45.2225
| 27> C 	 49.4658 	 26.8295 	 45.1719
| 28> H 	 48.9397 	 23.442 	 45.9025
| 29> C 	 51.1731 	 25.0216 	 44.5388
| 30> H 	 51.6093 	 25.7763 	 43.9539
| 31> H 	 50.8081 	 24.231 	 43.8531
| 32> C 	 52.1599 	 24.4084 	 45.6011
| 33> H 	 51.5898 	 23.5674 	 46.07
| 34> H 	 52.3592 	 25.1672 	 46.3312
| 35> C 	 53.5264 	 23.8373 	 45.0458
| 36> H 	 54.21 	 24.5904 	 44.6578
| 37> H 	 53.3602 	 22.965 	 44.4244
| 38> H 	 54.0515 	 23.2746 	 45.8321
| 39> H 	 50.8231 	 31.5462 	 45.1243
| 40> H 	 46.8984 	 24.6331 	 46.3434
| 41> *
| 42>
| 43>                          ****END OF INPUT****

CARTESIAN COORDINATES (ANGSTROEM)
---------------------------------
  S     49.358200   29.569200   44.526200
  C     50.783200   30.465400   45.058300
  C     51.841900   29.681200   45.444600
  C     51.419700   28.315900   45.403100
  C     50.123900   28.065800   44.989500
  H     51.981200   27.508800   45.800400
  C     53.117700   30.181700   46.013000
  H     53.270600   29.506600   46.793700
  H     53.171000   31.209100   46.427700
  C     54.315000   30.007600   45.112300
  H     54.383400   28.952200   44.683200
  H     54.234100   30.714200   44.261000
  C     55.651200   30.208300   45.876400
  H     55.516700   29.774800   46.842200
  H     56.570100   29.779600   45.335400
  H     55.757600   31.275800   46.078100
  S     47.920600   26.962800   45.855000
  C     47.758400   25.212900   45.954700
  C     48.916700   24.539500   45.666600
  C     49.880700   25.476100   45.222500
  C     49.465800   26.829500   45.171900
  H     48.939700   23.442000   45.902500
  C     51.173100   25.021600   44.538800
  H     51.609300   25.776300   43.953900
  H     50.808100   24.231000   43.853100
  C     52.159900   24.408400   45.601100
  H     51.589800   23.567400   46.070000
  H     52.359200   25.167200   46.331200
  C     53.526400   23.837300   45.045800
  H     54.210000   24.590400   44.657800
  H     53.360200   22.965000   44.424400
  H     54.051500   23.274600   45.832100
  H     50.823100   31.546200   45.124300
  H     46.898400   24.633100   46.343400

 Total Charge           Charge          ....    0
 Multiplicity           Mult            ....    1
 Number of Electrons    NEL             ....  134
 Basis Dimension        Dim             ....  322

ORBITAL ENERGIES
----------------

  NO   OCC          E(Eh)            E(eV)
   0   2.0000     -88.968819     -2420.9646
   1   2.0000     -88.964825     -2420.8560
   2   2.0000     -10.327620      -281.0288
   3   2.0000     -10.321537      -280.8633
   4   2.0000     -10.316435      -280.7245
   5   2.0000     -10.313745      -280.6513
   6   2.0000     -10.304181      -280.3910
   7   2.0000     -10.301730      -280.3243
   8   2.0000     -10.298171      -280.2275
   9   2.0000     -10.293414      -280.0980
  10   2.0000     -10.292415      -280.0708
  11   2.0000     -10.291527      -280.0467
  12   2.0000     -10.290982      -280.0319
  13   2.0000     -10.286639      -279.9137
  14   2.0000     -10.284094      -279.8444
  15   2.0000     -10.281384      -279.7707
  16   2.0000      -8.083258      -219.9566
  17   2.0000      -8.080528      -219.8824
  18   2.0000      -6.041874      -164.4077
  19   2.0000      -6.038950      -164.3282
  20   2.0000      -6.037882      -164.2991
  21   2.0000      -6.034886      -164.2176
  22   2.0000      -6.033849      -164.1894
  23   2.0000      -6.031301      -164.1200
  24   2.0000      -1.015140       -27.6234
  25   2.0000      -0.987321       -26.8664
  26   2.0000      -0.922582       -25.1047
  27   2.0000      -0.899844       -24.4860
  28   2.0000      -0.879045       -23.9200
  29   2.0000      -0.850867       -23.1533
  30   2.0000      -0.844749       -22.9868
  31   2.0000      -0.815938       -22.2028
  32   2.0000      -0.783764       -21.3273
  33   2.0000      -0.768748       -20.9187
  34   2.0000      -0.709805       -19.3148
  35   2.0000      -0.696675       -18.9575
  36   2.0000      -0.695476       -18.9249
  37   2.0000      -0.663662       -18.0592
  38   2.0000      -0.638927       -17.3861
  39   2.0000      -0.626256       -17.0413
  40   2.0000      -0.590168       -16.0593
  41   2.0000      -0.574103       -15.6221
  42   2.0000      -0.569141       -15.4871
  43   2.0000      -0.561455       -15.2780
  44   2.0000      -0.529675       -14.4132
  45   2.0000      -0.524705       -14.2780
  46   2.0000      -0.513485       -13.9726
  47   2.0000      -0.508311       -13.8318
  48   2.0000      -0.502893       -13.6844
  49   2.0000      -0.500285       -13.6134
  50   2.0000      -0.493064       -13.4169
  51   2.0000      -0.483765       -13.1639
  52   2.0000      -0.474284       -12.9059
  53   2.0000      -0.464611       -12.6427
  54   2.0000      -0.461713       -12.5638
  55   2.0000      -0.452300       -12.3077
  56   2.0000      -0.445973       -12.1355
  57   2.0000      -0.436959       -11.8902
  58   2.0000      -0.432492       -11.7687
  59   2.0000      -0.423467       -11.5231
  60   2.0000      -0.421633       -11.4732
  61   2.0000      -0.421211       -11.4617
  62   2.0000      -0.409590       -11.1455
  63   2.0000      -0.357947        -9.7402
  64   2.0000      -0.332700        -9.0532
  65   2.0000      -0.329256        -8.9595
  66   2.0000      -0.282066        -7.6754
  67   0.0000       0.022977         0.6252
  68   0.0000       0.080934         2.2023
  69   0.0000       0.106549         2.8994
  70   0.0000       0.117343         3.1931
  71   0.0000       0.127211         3.4616

MULLIKEN ATOMIC CHARGES
-----------------------
   0 S :    0.112874
   1 C :   -0.136877
   2 C :   -0.041205
   3 C :    0.021133
   4 C :   -0.129812
   5 H :   -0.020311
   6 C :    0.094281
   7 H :    0.004917
   8 H :    0.033990
   9 C :   -0.126334
  10 H :    0.037423
  11 H :    0.036626
  12 C :   -0.044870
  13 H :    0.017685
  14 H :    0.059409
  15 H :    0.027039
  16 S :    0.105155
  17 C :   -0.103673
  18 C :   -0.053992
  19 C :   -0.055141
  20 C :   -0.118396
  21 H :    0.050427
  22 C :    0.063770
  23 H :    0.016222
  24 H :    0.033876
  25 C :   -0.108824
  26 H :    0.030802
  27 H :    0.032389
  28 C :   -0.032986
  29 H :    0.046458
  30 H :    0.024107
  31 H :    0.022737
  32 H :    0.041968
  33 H :    0.059135
Sum of atomic charges:   -0.0000000

LOEWDIN ATOMIC CHARGES
----------------------
   0 S :    0.393583
   1 C :   -0.185619
   2 C :   -0.057285
   3 C :   -0.053159
   4 C :   -0.198629
   5 H :    0.021204
   6 C :   -0.032438
   7 H :    0.025372
   8 H :    0.037659
   9 C :   -0.044834
  10 H :    0.028433
  11 H :    0.023504
  12 C :   -0.070512
  13 H :    0.018287
  14 H :    0.039061
  15 H :    0.023492
  16 S :    0.429719
  17 C :   -0.188786
  18 C :   -0.079787
  19 C :   -0.059098
  20 C :   -0.214936
  21 H :    0.049062
  22 C :   -0.028468
  23 H :    0.017196
  24 H :    0.034341
  25 C :   -0.037256
  26 H :    0.027436
  27 H :    0.015966
  28 C :   -0.075110
  29 H :    0.026183
  30 H :    0.025864
  31 H :    0.029495
  32 H :    0.025643
  33 H :    0.034416

  Mayer bond orders larger than 0.100000
B(  0-S ,  1-C ) :   1.1262 B(  0-S ,  4-C ) :   1.1296 B(  1-C ,  2-C ) :   1.6212
B(  1-C , 32-H ) :   0.9660 B(  2-C ,  3-C ) :   1.2399 B(  2-C ,  6-C ) :   1.0202
B(  3-C ,  4-C ) :   1.5729 B(  3-C ,  5-H ) :   0.9906 B(  4-C , 20-C ) :   1.0871
B(  6-C ,  7-H ) :   0.9243 B(  6-C ,  8-H ) :   0.9467 B(  6-C ,  9-C ) :   1.0602
B(  9-C , 10-H ) :   0.9587 B(  9-C , 11-H ) :   0.9567 B(  9-C , 12-C ) :   1.0681
B( 12-C , 13-H ) :   0.9736 B( 12-C , 14-H ) :   0.9753 B( 12-C , 15-H ) :   0.9731
B( 16-S , 17-C ) :   1.1609 B( 16-S , 20-C ) :   1.1476 B( 17-C , 18-C ) :   1.6199
B( 17-C , 33-H ) :   0.9597 B( 18-C , 19-C ) :   1.2509 B( 18-C , 21-H ) :   0.9812
B( 19-C , 20-C ) :   1.5505 B( 19-C , 22-C ) :   1.0319 B( 22-C , 23-H ) :   0.9493
B( 22-C , 24-H ) :   0.9449 B( 22-C , 25-C ) :   1.0383 B( 25-C , 26-H ) :   0.9585
B( 25-C , 27-H ) :   0.9603 B( 25-C , 28-C ) :   1.0837 B( 28-C , 29-H ) :   0.9766
B( 28-C , 30-H ) :   0.9714 B( 28-C , 31-H ) :   0.9708

Dispersion correction           -0.013763979
FINAL SINGLE POINT ENERGY     -1339.863985489659

DIPOLE MOMENT
-------------
                                X             Y             Z
Electronic contribution:    -32.22072       7.03022      -2.29235
Nuclear contribution   :     32.80615      -7.29399       2.63738
                        -----------------------------------------
Total Dipole Moment    :      0.58543      -0.26376       0.34503
                        -----------------------------------------
Magnitude (a.u.)       :      0.72893
Magnitude (Debye)      :      1.85280

Rotational constants in cm-1:     0.016457     0.009549     0.006379
Rotational constants in MHz :   493.362556   286.266377   191.238302

                             ****ORCA TERMINATED NORMALLY****
TOTAL RUN TIME: 0 days 0 hours 0 minutes 34 seconds 240 msec
