                         Program Version 4.2.1 -  RELEASE  -
|  1> ! wB97X-D3 SP def2-SVP
|  2> %pal
|  3> nprocs 16
|  4> end
|  5>
|  6> * xyz 0 1
|  7> S 	 0.301933 	 78.9348 	 48.8137
|  8> C 	 0.575767 	 80.2317 	 49.9393
|  9> C 	 0.469967 	 79.7593 	 51.2217
| 10> C 	 0.159715 	 78.3738 	 51.3001
| 11> C 	 0.101974 	 77.7256 	 50.0533
| 12> H 	 0.192662 	 77.7903 	 52.2071
| 13> C 	 0.793524 	 80.4444 	 52.5237
| 14> H 	 0.190209 	 80.0035 	 53.2991
| 15> H 	 0.421334 	 81.4211 	 52.4429
| 16> C 	 2.30131 	 80.3597 	 52.935
| 17> H 	 2.52995 	 79.3353 	 53.2294
| 18> H 	 2.93171 	 80.6573 	 52.1011
| 19> C 	 2.78761 	 81.2799 	 54.0829
| 20> H 	 2.34049 	 80.9032 	 54.9622
| 21> H 	 3.82645 	 81.3951 	 54.1843
| 22> H 	 2.38789 	 82.2935 	 53.9027
| 23> S 	 1.17229 	 75.5401 	 48.8347
| 24> C 	 0.279145 	 74.0566 	 48.8492
| 25> C 	 -0.783829 	 74.1511 	 49.7042
| 26> C 	 -0.911023 	 75.4646 	 50.3053
| 27> C 	 -0.0523376 	 76.3802 	 49.7011
| 28> H 	 -1.33263 	 73.2456 	 49.8843
| 29> C 	 -2.03516 	 75.7484 	 51.2057
| 30> H 	 -2.65597 	 76.4956 	 50.7931
| 31> H 	 -1.54952 	 76.1549 	 52.0729
| 32> C 	 -3.00256 	 74.6091 	 51.5955
| 33> H 	 -2.34096 	 73.918 	 52.087
| 34> H 	 -3.29479 	 74.129 	 50.6802
| 35> C 	 -4.18654 	 74.8813 	 52.5581
| 36> H 	 -3.81874 	 75.5929 	 53.2553
| 37> H 	 -4.51925 	 73.9792 	 53.1351
| 38> H 	 -5.00479 	 75.3635 	 52.0011
| 39> H 	 0.779996 	 81.2609 	 49.7475
| 40> H 	 0.642818 	 73.184 	 48.4054
| 41> *
| 42>
| 43>                          ****END OF INPUT****

CARTESIAN COORDINATES (ANGSTROEM)
---------------------------------
  S      0.301933   78.934800   48.813700
  C      0.575767   80.231700   49.939300
  C      0.469967   79.759300   51.221700
  C      0.159715   78.373800   51.300100
  C      0.101974   77.725600   50.053300
  H      0.192662   77.790300   52.207100
  C      0.793524   80.444400   52.523700
  H      0.190209   80.003500   53.299100
  H      0.421334   81.421100   52.442900
  C      2.301310   80.359700   52.935000
  H      2.529950   79.335300   53.229400
  H      2.931710   80.657300   52.101100
  C      2.787610   81.279900   54.082900
  H      2.340490   80.903200   54.962200
  H      3.826450   81.395100   54.184300
  H      2.387890   82.293500   53.902700
  S      1.172290   75.540100   48.834700
  C      0.279145   74.056600   48.849200
  C     -0.783829   74.151100   49.704200
  C     -0.911023   75.464600   50.305300
  C     -0.052338   76.380200   49.701100
  H     -1.332630   73.245600   49.884300
  C     -2.035160   75.748400   51.205700
  H     -2.655970   76.495600   50.793100
  H     -1.549520   76.154900   52.072900
  C     -3.002560   74.609100   51.595500
  H     -2.340960   73.918000   52.087000
  H     -3.294790   74.129000   50.680200
  C     -4.186540   74.881300   52.558100
  H     -3.818740   75.592900   53.255300
  H     -4.519250   73.979200   53.135100
  H     -5.004790   75.363500   52.001100
  H      0.779996   81.260900   49.747500
  H      0.642818   73.184000   48.405400

 Total Charge           Charge          ....    0
 Multiplicity           Mult            ....    1
 Number of Electrons    NEL             ....  134
 Basis Dimension        Dim             ....  322

ORBITAL ENERGIES
----------------

  NO   OCC          E(Eh)            E(eV)
   0   2.0000     -88.964091     -2420.8360
   1   2.0000     -88.962618     -2420.7959
   2   2.0000     -10.325991      -280.9845
   3   2.0000     -10.318830      -280.7896
   4   2.0000     -10.310333      -280.5584
   5   2.0000     -10.310235      -280.5558
   6   2.0000     -10.303499      -280.3724
   7   2.0000     -10.295836      -280.1640
   8   2.0000     -10.291631      -280.0495
   9   2.0000     -10.291326      -280.0412
  10   2.0000     -10.287304      -279.9318
  11   2.0000     -10.287183      -279.9285
  12   2.0000     -10.284329      -279.8508
  13   2.0000     -10.283830      -279.8372
  14   2.0000     -10.281752      -279.7807
  15   2.0000     -10.271987      -279.5150
  16   2.0000      -8.079086      -219.8431
  17   2.0000      -8.078475      -219.8265
  18   2.0000      -6.037641      -164.2926
  19   2.0000      -6.036915      -164.2728
  20   2.0000      -6.033294      -164.1743
  21   2.0000      -6.032881      -164.1630
  22   2.0000      -6.030031      -164.0855
  23   2.0000      -6.029167      -164.0620
  24   2.0000      -1.014007       -27.5925
  25   2.0000      -0.987948       -26.8834
  26   2.0000      -0.914219       -24.8772
  27   2.0000      -0.910076       -24.7644
  28   2.0000      -0.877324       -23.8732
  29   2.0000      -0.853137       -23.2150
  30   2.0000      -0.846487       -23.0341
  31   2.0000      -0.816096       -22.2071
  32   2.0000      -0.785969       -21.3873
  33   2.0000      -0.775284       -21.0966
  34   2.0000      -0.713539       -19.4164
  35   2.0000      -0.707890       -19.2627
  36   2.0000      -0.701300       -19.0833
  37   2.0000      -0.652977       -17.7684
  38   2.0000      -0.639558       -17.4032
  39   2.0000      -0.621419       -16.9097
  40   2.0000      -0.602214       -16.3871
  41   2.0000      -0.577383       -15.7114
  42   2.0000      -0.574022       -15.6199
  43   2.0000      -0.562375       -15.3030
  44   2.0000      -0.528970       -14.3940
  45   2.0000      -0.524165       -14.2633
  46   2.0000      -0.520172       -14.1546
  47   2.0000      -0.513144       -13.9634
  48   2.0000      -0.510290       -13.8857
  49   2.0000      -0.508571       -13.8389
  50   2.0000      -0.501640       -13.6503
  51   2.0000      -0.480814       -13.0836
  52   2.0000      -0.475324       -12.9342
  53   2.0000      -0.466161       -12.6849
  54   2.0000      -0.462868       -12.5953
  55   2.0000      -0.454435       -12.3658
  56   2.0000      -0.441094       -12.0028
  57   2.0000      -0.434539       -11.8244
  58   2.0000      -0.428935       -11.6719
  59   2.0000      -0.427007       -11.6194
  60   2.0000      -0.421386       -11.4665
  61   2.0000      -0.414110       -11.2685
  62   2.0000      -0.409512       -11.1434
  63   2.0000      -0.350208        -9.5296
  64   2.0000      -0.330089        -8.9822
  65   2.0000      -0.325662        -8.8617
  66   2.0000      -0.289589        -7.8801
  67   0.0000       0.024874         0.6768
  68   0.0000       0.074282         2.0213
  69   0.0000       0.117681         3.2023
  70   0.0000       0.124618         3.3910
  71   0.0000       0.133795         3.6408

MULLIKEN ATOMIC CHARGES
-----------------------
   0 S :    0.114426
   1 C :   -0.100006
   2 C :   -0.113352
   3 C :    0.027940
   4 C :   -0.186825
   5 H :    0.015317
   6 C :    0.103464
   7 H :    0.013968
   8 H :    0.002039
   9 C :   -0.076475
  10 H :    0.028365
  11 H :    0.028490
  12 C :   -0.018071
  13 H :    0.018854
  14 H :    0.032110
  15 H :    0.021548
  16 S :    0.113965
  17 C :   -0.057216
  18 C :   -0.051622
  19 C :   -0.054538
  20 C :   -0.120879
  21 H :    0.017472
  22 C :    0.097309
  23 H :    0.031263
  24 H :    0.011969
  25 C :   -0.116350
  26 H :    0.018576
  27 H :    0.030863
  28 C :   -0.010671
  29 H :    0.019091
  30 H :    0.050477
  31 H :    0.040276
  32 H :    0.033625
  33 H :    0.034597
Sum of atomic charges:   -0.0000000

LOEWDIN ATOMIC CHARGES
----------------------
   0 S :    0.421905
   1 C :   -0.201178
   2 C :   -0.064853
   3 C :   -0.063031
   4 C :   -0.195245
   5 H :    0.027067
   6 C :   -0.026016
   7 H :    0.028173
   8 H :    0.020335
   9 C :   -0.033374
  10 H :    0.022952
  11 H :    0.023142
  12 C :   -0.058033
  13 H :    0.017372
  14 H :    0.021107
  15 H :    0.025877
  16 S :    0.427813
  17 C :   -0.177248
  18 C :   -0.073184
  19 C :   -0.043460
  20 C :   -0.224617
  21 H :    0.030650
  22 C :   -0.033847
  23 H :    0.031194
  24 H :    0.029278
  25 C :   -0.042177
  26 H :    0.019207
  27 H :    0.018350
  28 C :   -0.060744
  29 H :    0.021204
  30 H :    0.037398
  31 H :    0.028964
  32 H :    0.027249
  33 H :    0.017769

  Mayer bond orders larger than 0.100000
B(  0-S ,  1-C ) :   1.1382 B(  0-S ,  4-C ) :   1.1646 B(  1-C ,  2-C ) :   1.5987
B(  1-C ,  4-C ) :   0.1023 B(  1-C , 32-H ) :   0.9737 B(  2-C ,  3-C ) :   1.2694
B(  2-C ,  6-C ) :   1.0357 B(  3-C ,  4-C ) :   1.5381 B(  3-C ,  5-H ) :   0.9890
B(  4-C , 20-C ) :   1.0771 B(  6-C ,  7-H ) :   0.9356 B(  6-C ,  8-H ) :   0.9315
B(  6-C ,  9-C ) :   1.0552 B(  9-C , 10-H ) :   0.9582 B(  9-C , 11-H ) :   0.9619
B(  9-C , 12-C ) :   1.0800 B( 12-C , 13-H ) :   0.9775 B( 12-C , 14-H ) :   0.9767
B( 12-C , 15-H ) :   0.9750 B( 16-S , 17-C ) :   1.1633 B( 16-S , 20-C ) :   1.1530
B( 17-C , 18-C ) :   1.5890 B( 17-C , 33-H ) :   0.9723 B( 18-C , 19-C ) :   1.2437
B( 18-C , 21-H ) :   0.9912 B( 19-C , 20-C ) :   1.5493 B( 19-C , 22-C ) :   1.0497
B( 22-C , 23-H ) :   0.9266 B( 22-C , 24-H ) :   0.9031 B( 22-C , 25-C ) :   1.0962
B( 25-C , 26-H ) :   0.9514 B( 25-C , 27-H ) :   0.9474 B( 25-C , 28-C ) :   1.0730
B( 28-C , 29-H ) :   0.9727 B( 28-C , 30-H ) :   0.9740 B( 28-C , 31-H ) :   0.9750

Dispersion correction           -0.013469445
FINAL SINGLE POINT ENERGY     -1339.867300179282

DIPOLE MOMENT
-------------
                                X             Y             Z
Electronic contribution:      7.46505      -4.34175     -24.98825
Nuclear contribution   :     -7.59308       4.23290      25.65633
                        -----------------------------------------
Total Dipole Moment    :     -0.12803      -0.10885       0.66808
                        -----------------------------------------
Magnitude (a.u.)       :      0.68889
Magnitude (Debye)      :      1.75103

Rotational constants in cm-1:     0.017705     0.007769     0.006340
Rotational constants in MHz :   530.792698   232.910721   190.075346

                             ****ORCA TERMINATED NORMALLY****
TOTAL RUN TIME: 0 days 0 hours 0 minutes 33 seconds 504 msec
