                         Program Version 4.2.1 -  RELEASE  -
|  1> ! wB97X-D3 SP def2-SVP
|  2> %pal
|  3> nprocs 16
|  4> end
|  5>
|  6> * xyz 0 1
|  7> S 	 -36.8111 	 71.3392 	 167.621
|  8> C 	 -35.9944 	 71.9796 	 166.247
|  9> C 	 -35.7414 	 73.336 	 166.356
| 10> C 	 -36.2409 	 73.8607 	 167.588
| 11> C 	 -36.8436 	 72.9418 	 168.441
| 12> H 	 -36.1673 	 74.8983 	 167.93
| 13> C 	 -35.0413 	 74.1717 	 165.283
| 14> H 	 -35.0011 	 73.6693 	 164.341
| 15> H 	 -33.9985 	 74.1885 	 165.564
| 16> C 	 -35.5509 	 75.5119 	 165
| 17> H 	 -36.6483 	 75.4452 	 165.202
| 18> H 	 -35.2286 	 76.2541 	 165.714
| 19> C 	 -35.2515 	 76.037 	 163.569
| 20> H 	 -35.9514 	 76.864 	 163.244
| 21> H 	 -34.2185 	 76.4221 	 163.643
| 22> H 	 -35.2892 	 75.2471 	 162.735
| 23> S 	 -36.5299 	 72.0395 	 171.056
| 24> C 	 -37.3348 	 72.8877 	 172.353
| 25> C 	 -38.3527 	 73.6729 	 171.829
| 26> C 	 -38.2295 	 73.898 	 170.392
| 27> C 	 -37.2612 	 73.0341 	 169.841
| 28> H 	 -39.1503 	 74.1827 	 172.464
| 29> C 	 -39.1703 	 74.7982 	 169.618
| 30> H 	 -38.6653 	 75.1503 	 168.713
| 31> H 	 -39.2377 	 75.6452 	 170.333
| 32> C 	 -40.607 	 74.2534 	 169.419
| 33> H 	 -41.3472 	 75.0887 	 169.319
| 34> H 	 -40.9604 	 73.8389 	 170.424
| 35> C 	 -40.6935 	 73.159 	 168.338
| 36> H 	 -40.0027 	 72.3101 	 168.538
| 37> H 	 -40.3654 	 73.5632 	 167.379
| 38> H 	 -41.6611 	 72.7456 	 168.305
| 39> H 	 -35.8155 	 71.2952 	 165.487
| 40> H 	 -37.2387 	 72.6637 	 173.436
| 41> *
| 42>
| 43>                          ****END OF INPUT****

CARTESIAN COORDINATES (ANGSTROEM)
---------------------------------
  S    -36.811100   71.339200  167.621000
  C    -35.994400   71.979600  166.247000
  C    -35.741400   73.336000  166.356000
  C    -36.240900   73.860700  167.588000
  C    -36.843600   72.941800  168.441000
  H    -36.167300   74.898300  167.930000
  C    -35.041300   74.171700  165.283000
  H    -35.001100   73.669300  164.341000
  H    -33.998500   74.188500  165.564000
  C    -35.550900   75.511900  165.000000
  H    -36.648300   75.445200  165.202000
  H    -35.228600   76.254100  165.714000
  C    -35.251500   76.037000  163.569000
  H    -35.951400   76.864000  163.244000
  H    -34.218500   76.422100  163.643000
  H    -35.289200   75.247100  162.735000
  S    -36.529900   72.039500  171.056000
  C    -37.334800   72.887700  172.353000
  C    -38.352700   73.672900  171.829000
  C    -38.229500   73.898000  170.392000
  C    -37.261200   73.034100  169.841000
  H    -39.150300   74.182700  172.464000
  C    -39.170300   74.798200  169.618000
  H    -38.665300   75.150300  168.713000
  H    -39.237700   75.645200  170.333000
  C    -40.607000   74.253400  169.419000
  H    -41.347200   75.088700  169.319000
  H    -40.960400   73.838900  170.424000
  C    -40.693500   73.159000  168.338000
  H    -40.002700   72.310100  168.538000
  H    -40.365400   73.563200  167.379000
  H    -41.661100   72.745600  168.305000
  H    -35.815500   71.295200  165.487000
  H    -37.238700   72.663700  173.436000

 Total Charge           Charge          ....    0
 Multiplicity           Mult            ....    1
 Number of Electrons    NEL             ....  134
 Basis Dimension        Dim             ....  322

ORBITAL ENERGIES
----------------

  NO   OCC          E(Eh)            E(eV)
   0   2.0000     -88.967003     -2420.9152
   1   2.0000     -88.962231     -2420.7854
   2   2.0000     -10.334154      -281.2066
   3   2.0000     -10.327768      -281.0329
   4   2.0000     -10.322366      -280.8859
   5   2.0000     -10.310161      -280.5537
   6   2.0000     -10.306658      -280.4584
   7   2.0000     -10.305396      -280.4241
   8   2.0000     -10.303524      -280.3731
   9   2.0000     -10.299386      -280.2605
  10   2.0000     -10.295761      -280.1619
  11   2.0000     -10.294577      -280.1297
  12   2.0000     -10.293919      -280.1118
  13   2.0000     -10.285263      -279.8762
  14   2.0000     -10.285076      -279.8712
  15   2.0000     -10.271264      -279.4953
  16   2.0000      -8.081949      -219.9210
  17   2.0000      -8.077030      -219.7872
  18   2.0000      -6.040604      -164.3732
  19   2.0000      -6.036410      -164.2591
  20   2.0000      -6.035413      -164.2319
  21   2.0000      -6.032547      -164.1539
  22   2.0000      -6.031465      -164.1245
  23   2.0000      -6.027986      -164.0298
  24   2.0000      -1.003563       -27.3083
  25   2.0000      -0.983044       -26.7500
  26   2.0000      -0.918138       -24.9838
  27   2.0000      -0.904117       -24.6023
  28   2.0000      -0.868525       -23.6338
  29   2.0000      -0.847020       -23.0486
  30   2.0000      -0.841607       -22.9013
  31   2.0000      -0.813693       -22.1417
  32   2.0000      -0.781609       -21.2687
  33   2.0000      -0.769700       -20.9446
  34   2.0000      -0.708292       -19.2736
  35   2.0000      -0.695349       -18.9214
  36   2.0000      -0.689317       -18.7573
  37   2.0000      -0.654675       -17.8146
  38   2.0000      -0.648759       -17.6536
  39   2.0000      -0.620505       -16.8848
  40   2.0000      -0.591513       -16.0959
  41   2.0000      -0.573202       -15.5976
  42   2.0000      -0.561918       -15.2906
  43   2.0000      -0.549663       -14.9571
  44   2.0000      -0.531889       -14.4734
  45   2.0000      -0.520066       -14.1517
  46   2.0000      -0.517304       -14.0766
  47   2.0000      -0.514703       -14.0058
  48   2.0000      -0.501779       -13.6541
  49   2.0000      -0.495329       -13.4786
  50   2.0000      -0.490228       -13.3398
  51   2.0000      -0.477529       -12.9942
  52   2.0000      -0.469855       -12.7854
  53   2.0000      -0.465117       -12.6565
  54   2.0000      -0.460463       -12.5298
  55   2.0000      -0.445593       -12.1252
  56   2.0000      -0.440565       -11.9884
  57   2.0000      -0.436551       -11.8792
  58   2.0000      -0.434351       -11.8193
  59   2.0000      -0.427740       -11.6394
  60   2.0000      -0.422977       -11.5098
  61   2.0000      -0.408007       -11.1024
  62   2.0000      -0.407308       -11.0834
  63   2.0000      -0.348501        -9.4832
  64   2.0000      -0.329126        -8.9560
  65   2.0000      -0.325696        -8.8626
  66   2.0000      -0.291828        -7.9410
  67   0.0000       0.032994         0.8978
  68   0.0000       0.062250         1.6939
  69   0.0000       0.112324         3.0565
  70   0.0000       0.120979         3.2920
  71   0.0000       0.127439         3.4678

MULLIKEN ATOMIC CHARGES
-----------------------
   0 S :    0.087342
   1 C :   -0.114158
   2 C :   -0.080308
   3 C :    0.036359
   4 C :   -0.180288
   5 H :    0.021105
   6 C :    0.125328
   7 H :   -0.000549
   8 H :    0.031933
   9 C :   -0.099672
  10 H :    0.032699
  11 H :    0.029789
  12 C :   -0.094804
  13 H :    0.052185
  14 H :    0.042850
  15 H :    0.046287
  16 S :    0.122601
  17 C :   -0.111385
  18 C :   -0.053020
  19 C :   -0.079906
  20 C :   -0.140021
  21 H :    0.046538
  22 C :    0.077732
  23 H :    0.025821
  24 H :    0.024479
  25 C :   -0.088520
  26 H :    0.035336
  27 H :    0.021744
  28 C :   -0.016417
  29 H :    0.035485
  30 H :    0.030697
  31 H :    0.027516
  32 H :    0.029320
  33 H :    0.075905
Sum of atomic charges:    0.0000000

LOEWDIN ATOMIC CHARGES
----------------------
   0 S :    0.391826
   1 C :   -0.186617
   2 C :   -0.060863
   3 C :   -0.063963
   4 C :   -0.177222
   5 H :    0.034196
   6 C :   -0.034228
   7 H :    0.027300
   8 H :    0.033983
   9 C :   -0.052955
  10 H :    0.027342
  11 H :    0.022491
  12 C :   -0.072955
  13 H :    0.034875
  14 H :    0.028947
  15 H :    0.030852
  16 S :    0.418920
  17 C :   -0.197490
  18 C :   -0.077621
  19 C :   -0.055505
  20 C :   -0.217774
  21 H :    0.040755
  22 C :   -0.035817
  23 H :    0.029601
  24 H :    0.035684
  25 C :   -0.044861
  26 H :    0.026865
  27 H :    0.027256
  28 C :   -0.062359
  29 H :    0.030854
  30 H :    0.025963
  31 H :    0.019659
  32 H :    0.012685
  33 H :    0.040178

  Mayer bond orders larger than 0.100000
B(  0-S ,  1-C ) :   1.1575 B(  0-S ,  4-C ) :   1.1436 B(  1-C ,  2-C ) :   1.5867
B(  1-C ,  4-C ) :   0.1018 B(  1-C , 32-H ) :   0.9834 B(  2-C ,  3-C ) :   1.2430
B(  2-C ,  6-C ) :   1.0213 B(  3-C ,  4-C ) :   1.5863 B(  3-C ,  5-H ) :   0.9875
B(  4-C , 20-C ) :   1.0344 B(  6-C ,  7-H ) :   0.9406 B(  6-C ,  8-H ) :   0.9191
B(  6-C ,  9-C ) :   1.0657 B(  9-C , 10-H ) :   0.9630 B(  9-C , 11-H ) :   0.9444
B(  9-C , 12-C ) :   1.0751 B( 12-C , 13-H ) :   0.9756 B( 12-C , 14-H ) :   0.9769
B( 12-C , 15-H ) :   0.9757 B( 16-S , 17-C ) :   1.1523 B( 16-S , 20-C ) :   1.1477
B( 17-C , 18-C ) :   1.6078 B( 17-C , 33-H ) :   0.9639 B( 18-C , 19-C ) :   1.2487
B( 18-C , 21-H ) :   0.9706 B( 19-C , 20-C ) :   1.5678 B( 19-C , 22-C ) :   1.0474
B( 22-C , 23-H ) :   0.9348 B( 22-C , 24-H ) :   0.9241 B( 22-C , 25-C ) :   1.0696
B( 25-C , 26-H ) :   0.9559 B( 25-C , 27-H ) :   0.9519 B( 25-C , 28-C ) :   1.0672
B( 28-C , 29-H ) :   0.9733 B( 28-C , 30-H ) :   0.9762 B( 28-C , 31-H ) :   0.9732

Dispersion correction           -0.014742190
FINAL SINGLE POINT ENERGY     -1339.881179701706

DIPOLE MOMENT
-------------
                                X             Y             Z
Electronic contribution:      7.36253     -18.08350      17.28287
Nuclear contribution   :     -7.48633      18.57891     -17.45499
                        -----------------------------------------
Total Dipole Moment    :     -0.12379       0.49541      -0.17211
                        -----------------------------------------
Magnitude (a.u.)       :      0.53887
Magnitude (Debye)      :      1.36969

Rotational constants in cm-1:     0.020054     0.008004     0.007062
Rotational constants in MHz :   601.215119   239.946911   211.724808

                             ****ORCA TERMINATED NORMALLY****
TOTAL RUN TIME: 0 days 0 hours 0 minutes 34 seconds 959 msec
