                         Program Version 4.2.1 -  RELEASE  -
|  1> ! wB97X-D3 SP def2-SVP
|  2> %pal
|  3> nprocs 16
|  4> end
|  5>
|  6> * xyz 0 1
|  7> S 	 -8.31114 	 69.4272 	 53.8244
|  8> C 	 -8.94786 	 67.8477 	 54.3933
|  9> C 	 -10.0373 	 67.428 	 53.664
| 10> C 	 -10.1947 	 68.2751 	 52.503
| 11> C 	 -9.27256 	 69.2897 	 52.3449
| 12> H 	 -10.9053 	 68.2234 	 51.6773
| 13> C 	 -10.9915 	 66.3839 	 54.0532
| 14> H 	 -11.9513 	 66.6806 	 53.6449
| 15> H 	 -10.9052 	 66.3258 	 55.1693
| 16> C 	 -10.5488 	 65.0548 	 53.4188
| 17> H 	 -10.7189 	 65.0771 	 52.4156
| 18> H 	 -9.42145 	 64.8973 	 53.536
| 19> C 	 -11.1033 	 63.7703 	 54.0158
| 20> H 	 -11.2981 	 62.9278 	 53.349
| 21> H 	 -10.4079 	 63.4975 	 54.809
| 22> H 	 -12.0721 	 63.9598 	 54.5064
| 23> S 	 -9.69913 	 71.7965 	 51.3009
| 24> C 	 -9.05857 	 72.2093 	 49.7503
| 25> C 	 -8.45723 	 71.1214 	 49.1582
| 26> C 	 -8.6209 	 69.8925 	 49.9014
| 27> C 	 -9.16358 	 70.1068 	 51.1688
| 28> H 	 -7.93859 	 71.2763 	 48.2392
| 29> C 	 -7.98157 	 68.6057 	 49.4959
| 30> H 	 -8.3827 	 68.3882 	 48.4662
| 31> H 	 -8.46673 	 67.7664 	 50.0486
| 32> C 	 -6.48972 	 68.5147 	 49.6759
| 33> H 	 -6.33511 	 68.4391 	 50.7238
| 34> H 	 -5.96534 	 69.456 	 49.445
| 35> C 	 -5.79531 	 67.281 	 49.0336
| 36> H 	 -4.73323 	 67.4841 	 49.0838
| 37> H 	 -6.17422 	 67.1278 	 48.0158
| 38> H 	 -6.0555 	 66.4244 	 49.5807
| 39> H 	 -8.59203 	 67.2889 	 55.3132
| 40> H 	 -8.99699 	 73.241 	 49.3946
| 41> *
| 42>
| 43>                          ****END OF INPUT****

CARTESIAN COORDINATES (ANGSTROEM)
---------------------------------
  S     -8.311140   69.427200   53.824400
  C     -8.947860   67.847700   54.393300
  C    -10.037300   67.428000   53.664000
  C    -10.194700   68.275100   52.503000
  C     -9.272560   69.289700   52.344900
  H    -10.905300   68.223400   51.677300
  C    -10.991500   66.383900   54.053200
  H    -11.951300   66.680600   53.644900
  H    -10.905200   66.325800   55.169300
  C    -10.548800   65.054800   53.418800
  H    -10.718900   65.077100   52.415600
  H     -9.421450   64.897300   53.536000
  C    -11.103300   63.770300   54.015800
  H    -11.298100   62.927800   53.349000
  H    -10.407900   63.497500   54.809000
  H    -12.072100   63.959800   54.506400
  S     -9.699130   71.796500   51.300900
  C     -9.058570   72.209300   49.750300
  C     -8.457230   71.121400   49.158200
  C     -8.620900   69.892500   49.901400
  C     -9.163580   70.106800   51.168800
  H     -7.938590   71.276300   48.239200
  C     -7.981570   68.605700   49.495900
  H     -8.382700   68.388200   48.466200
  H     -8.466730   67.766400   50.048600
  C     -6.489720   68.514700   49.675900
  H     -6.335110   68.439100   50.723800
  H     -5.965340   69.456000   49.445000
  C     -5.795310   67.281000   49.033600
  H     -4.733230   67.484100   49.083800
  H     -6.174220   67.127800   48.015800
  H     -6.055500   66.424400   49.580700
  H     -8.592030   67.288900   55.313200
  H     -8.996990   73.241000   49.394600

 Total Charge           Charge          ....    0
 Multiplicity           Mult            ....    1
 Number of Electrons    NEL             ....  134
 Basis Dimension        Dim             ....  322

ORBITAL ENERGIES
----------------

  NO   OCC          E(Eh)            E(eV)
   0   2.0000     -88.966985     -2420.9147
   1   2.0000     -88.959941     -2420.7231
   2   2.0000     -10.327299      -281.0201
   3   2.0000     -10.325625      -280.9745
   4   2.0000     -10.321891      -280.8729
   5   2.0000     -10.316451      -280.7249
   6   2.0000     -10.306035      -280.4415
   7   2.0000     -10.301805      -280.3264
   8   2.0000     -10.297317      -280.2042
   9   2.0000     -10.295299      -280.1493
  10   2.0000     -10.292718      -280.0791
  11   2.0000     -10.290011      -280.0054
  12   2.0000     -10.283456      -279.8271
  13   2.0000     -10.279058      -279.7074
  14   2.0000     -10.277755      -279.6719
  15   2.0000     -10.273449      -279.5548
  16   2.0000      -8.080543      -219.8828
  17   2.0000      -8.075047      -219.7332
  18   2.0000      -6.039225      -164.3357
  19   2.0000      -6.035397      -164.2315
  20   2.0000      -6.033490      -164.1796
  21   2.0000      -6.030980      -164.1113
  22   2.0000      -6.029422      -164.0689
  23   2.0000      -6.025945      -163.9743
  24   2.0000      -1.003287       -27.3008
  25   2.0000      -0.981520       -26.7085
  26   2.0000      -0.919646       -25.0248
  27   2.0000      -0.908791       -24.7294
  28   2.0000      -0.871362       -23.7110
  29   2.0000      -0.849951       -23.1283
  30   2.0000      -0.846003       -23.0209
  31   2.0000      -0.813642       -22.1403
  32   2.0000      -0.783223       -21.3126
  33   2.0000      -0.770851       -20.9759
  34   2.0000      -0.708181       -19.2706
  35   2.0000      -0.700632       -19.0652
  36   2.0000      -0.694994       -18.9118
  37   2.0000      -0.657898       -17.9023
  38   2.0000      -0.639533       -17.4026
  39   2.0000      -0.615716       -16.7545
  40   2.0000      -0.595743       -16.2110
  41   2.0000      -0.578060       -15.7298
  42   2.0000      -0.563228       -15.3262
  43   2.0000      -0.553162       -15.0523
  44   2.0000      -0.533036       -14.5047
  45   2.0000      -0.525159       -14.2903
  46   2.0000      -0.518987       -14.1224
  47   2.0000      -0.514497       -14.0002
  48   2.0000      -0.508652       -13.8411
  49   2.0000      -0.499548       -13.5934
  50   2.0000      -0.493240       -13.4218
  51   2.0000      -0.478229       -13.0133
  52   2.0000      -0.469689       -12.7809
  53   2.0000      -0.463578       -12.6146
  54   2.0000      -0.458732       -12.4827
  55   2.0000      -0.446827       -12.1588
  56   2.0000      -0.440801       -11.9948
  57   2.0000      -0.438030       -11.9194
  58   2.0000      -0.434237       -11.8162
  59   2.0000      -0.429261       -11.6808
  60   2.0000      -0.417530       -11.3616
  61   2.0000      -0.416410       -11.3311
  62   2.0000      -0.403395       -10.9769
  63   2.0000      -0.332035        -9.0351
  64   2.0000      -0.329391        -8.9632
  65   2.0000      -0.325611        -8.8603
  66   2.0000      -0.301483        -8.2038
  67   0.0000       0.035733         0.9723
  68   0.0000       0.054171         1.4741
  69   0.0000       0.104353         2.8396
  70   0.0000       0.120986         3.2922
  71   0.0000       0.130526         3.5518

MULLIKEN ATOMIC CHARGES
-----------------------
   0 S :    0.114093
   1 C :   -0.155273
   2 C :   -0.082794
   3 C :    0.039352
   4 C :   -0.158469
   5 H :    0.014265
   6 C :    0.108088
   7 H :    0.033775
   8 H :    0.034202
   9 C :   -0.088428
  10 H :    0.004936
  11 H :    0.036856
  12 C :   -0.043414
  13 H :    0.040679
  14 H :    0.032594
  15 H :    0.023614
  16 S :    0.094463
  17 C :   -0.094463
  18 C :   -0.034963
  19 C :   -0.020015
  20 C :   -0.200444
  21 H :    0.013740
  22 C :    0.054297
  23 H :    0.023764
  24 H :    0.019128
  25 C :   -0.065144
  26 H :    0.018065
  27 H :    0.024624
  28 C :   -0.012448
  29 H :    0.040960
  30 H :    0.028683
  31 H :    0.022253
  32 H :    0.066306
  33 H :    0.067119
Sum of atomic charges:    0.0000000

LOEWDIN ATOMIC CHARGES
----------------------
   0 S :    0.376990
   1 C :   -0.190730
   2 C :   -0.064524
   3 C :   -0.056727
   4 C :   -0.198270
   5 H :    0.032158
   6 C :   -0.025922
   7 H :    0.036960
   8 H :    0.038723
   9 C :   -0.040050
  10 H :    0.008463
  11 H :    0.032978
  12 C :   -0.071391
  13 H :    0.028482
  14 H :    0.026145
  15 H :    0.024044
  16 S :    0.396592
  17 C :   -0.189053
  18 C :   -0.070633
  19 C :   -0.048739
  20 C :   -0.195631
  21 H :    0.028853
  22 C :   -0.043451
  23 H :    0.031699
  24 H :    0.033498
  25 C :   -0.041376
  26 H :    0.023955
  27 H :    0.023338
  28 C :   -0.054094
  29 H :    0.030158
  30 H :    0.024851
  31 H :    0.018514
  32 H :    0.040334
  33 H :    0.033858

  Mayer bond orders larger than 0.100000
B(  0-S ,  1-C ) :   1.1273 B(  0-S ,  4-C ) :   1.1122 B(  1-C ,  2-C ) :   1.6349
B(  1-C , 32-H ) :   0.9565 B(  2-C ,  3-C ) :   1.1952 B(  2-C ,  6-C ) :   1.0235
B(  3-C ,  4-C ) :   1.6217 B(  3-C ,  5-H ) :   0.9878 B(  4-C , 20-C ) :   1.0513
B(  6-C ,  7-H ) :   0.9305 B(  6-C ,  8-H ) :   0.9406 B(  6-C ,  9-C ) :   1.0570
B(  9-C , 10-H ) :   0.9578 B(  9-C , 11-H ) :   0.9698 B(  9-C , 12-C ) :   1.0636
B( 12-C , 13-H ) :   0.9759 B( 12-C , 14-H ) :   0.9834 B( 12-C , 15-H ) :   0.9735
B( 16-S , 17-C ) :   1.1583 B( 16-S , 20-C ) :   1.1385 B( 17-C , 18-C ) :   1.6157
B( 17-C , 33-H ) :   0.9650 B( 18-C , 19-C ) :   1.2189 B( 18-C , 21-H ) :   0.9966
B( 19-C , 20-C ) :   1.5939 B( 19-C , 22-C ) :   1.0681 B( 22-C , 23-H ) :   0.9259
B( 22-C , 24-H ) :   0.9247 B( 22-C , 25-C ) :   1.0576 B( 25-C , 26-H ) :   0.9464
B( 25-C , 27-H ) :   0.9627 B( 25-C , 28-C ) :   1.0739 B( 28-C , 29-H ) :   0.9748
B( 28-C , 30-H ) :   0.9787 B( 28-C , 31-H ) :   0.9762

Dispersion correction           -0.014164087
FINAL SINGLE POINT ENERGY     -1339.865907948014

DIPOLE MOMENT
-------------
                                X             Y             Z
Electronic contribution:     -2.89243      27.42292       5.35250
Nuclear contribution   :      2.88968     -27.96588      -5.54950
                        -----------------------------------------
Total Dipole Moment    :     -0.00275      -0.54296      -0.19700
                        -----------------------------------------
Magnitude (a.u.)       :      0.57760
Magnitude (Debye)      :      1.46814

Rotational constants in cm-1:     0.018304     0.008180     0.006710
Rotational constants in MHz :   548.729590   245.232985   201.150638

                             ****ORCA TERMINATED NORMALLY****
TOTAL RUN TIME: 0 days 0 hours 0 minutes 33 seconds 702 msec
