                         Program Version 4.2.1 -  RELEASE  -
|  1> ! wB97X-D3 SP def2-SVP
|  2> %pal
|  3> nprocs 16
|  4> end
|  5>
|  6> * xyz 0 1
|  7> S 	 -22.4745 	 50.9445 	 65.7062
|  8> C 	 -22.1134 	 49.5447 	 64.6605
|  9> C 	 -22.7103 	 48.4006 	 65.1967
| 10> C 	 -23.4109 	 48.6586 	 66.4372
| 11> C 	 -23.4422 	 49.9988 	 66.7537
| 12> H 	 -23.873 	 48.0106 	 67.1409
| 13> C 	 -22.6389 	 46.9423 	 64.6619
| 14> H 	 -22.315 	 46.2427 	 65.4581
| 15> H 	 -21.7541 	 47.0845 	 63.9642
| 16> C 	 -23.7815 	 46.3311 	 63.8935
| 17> H 	 -23.4698 	 45.4571 	 63.3722
| 18> H 	 -24.5837 	 46.0644 	 64.5652
| 19> C 	 -24.3476 	 47.2281 	 62.8323
| 20> H 	 -24.5171 	 48.3028 	 62.92
| 21> H 	 -23.7076 	 47.237 	 61.927
| 22> H 	 -25.3151 	 46.873 	 62.5366
| 23> S 	 -23.2282 	 51.8533 	 68.8507
| 24> C 	 -24.3137 	 51.6261 	 70.1801
| 25> C 	 -25.4494 	 50.89 	 69.7846
| 26> C 	 -25.3013 	 50.2479 	 68.5533
| 27> C 	 -24.1045 	 50.5886 	 67.9124
| 28> H 	 -26.296 	 50.7501 	 70.5
| 29> C 	 -26.1877 	 49.1785 	 68.2259
| 30> H 	 -26.0781 	 48.8845 	 67.1344
| 31> H 	 -27.2345 	 49.4744 	 68.4729
| 32> C 	 -25.8527 	 47.8908 	 69.1472
| 33> H 	 -25.9401 	 48.2036 	 70.1906
| 34> H 	 -24.7992 	 47.6102 	 68.9415
| 35> C 	 -26.7228 	 46.6402 	 68.8021
| 36> H 	 -27.6807 	 46.7913 	 69.3031
| 37> H 	 -26.2042 	 45.8227 	 69.2651
| 38> H 	 -26.8 	 46.5623 	 67.6761
| 39> H 	 -21.6105 	 49.5188 	 63.6587
| 40> H 	 -24.3465 	 52.2941 	 71.022
| 41> *
| 42>
| 43>                          ****END OF INPUT****

CARTESIAN COORDINATES (ANGSTROEM)
---------------------------------
  S    -22.474500   50.944500   65.706200
  C    -22.113400   49.544700   64.660500
  C    -22.710300   48.400600   65.196700
  C    -23.410900   48.658600   66.437200
  C    -23.442200   49.998800   66.753700
  H    -23.873000   48.010600   67.140900
  C    -22.638900   46.942300   64.661900
  H    -22.315000   46.242700   65.458100
  H    -21.754100   47.084500   63.964200
  C    -23.781500   46.331100   63.893500
  H    -23.469800   45.457100   63.372200
  H    -24.583700   46.064400   64.565200
  C    -24.347600   47.228100   62.832300
  H    -24.517100   48.302800   62.920000
  H    -23.707600   47.237000   61.927000
  H    -25.315100   46.873000   62.536600
  S    -23.228200   51.853300   68.850700
  C    -24.313700   51.626100   70.180100
  C    -25.449400   50.890000   69.784600
  C    -25.301300   50.247900   68.553300
  C    -24.104500   50.588600   67.912400
  H    -26.296000   50.750100   70.500000
  C    -26.187700   49.178500   68.225900
  H    -26.078100   48.884500   67.134400
  H    -27.234500   49.474400   68.472900
  C    -25.852700   47.890800   69.147200
  H    -25.940100   48.203600   70.190600
  H    -24.799200   47.610200   68.941500
  C    -26.722800   46.640200   68.802100
  H    -27.680700   46.791300   69.303100
  H    -26.204200   45.822700   69.265100
  H    -26.800000   46.562300   67.676100
  H    -21.610500   49.518800   63.658700
  H    -24.346500   52.294100   71.022000

 Total Charge           Charge          ....    0
 Multiplicity           Mult            ....    1
 Number of Electrons    NEL             ....  134
 Basis Dimension        Dim             ....  322

ORBITAL ENERGIES
----------------

  NO   OCC          E(Eh)            E(eV)
   0   2.0000     -88.967676     -2420.9335
   1   2.0000     -88.967504     -2420.9289
   2   2.0000     -10.330479      -281.1066
   3   2.0000     -10.327542      -281.0267
   4   2.0000     -10.322247      -280.8826
   5   2.0000     -10.318695      -280.7860
   6   2.0000     -10.308664      -280.5130
   7   2.0000     -10.298972      -280.2493
   8   2.0000     -10.298434      -280.2346
   9   2.0000     -10.297548      -280.2105
  10   2.0000     -10.297230      -280.2019
  11   2.0000     -10.297125      -280.1990
  12   2.0000     -10.289800      -279.9997
  13   2.0000     -10.286484      -279.9095
  14   2.0000     -10.283551      -279.8297
  15   2.0000     -10.270693      -279.4798
  16   2.0000      -8.082485      -219.9356
  17   2.0000      -8.081762      -219.9159
  18   2.0000      -6.041120      -164.3872
  19   2.0000      -6.040286      -164.3645
  20   2.0000      -6.036959      -164.2740
  21   2.0000      -6.036373      -164.2581
  22   2.0000      -6.033133      -164.1699
  23   2.0000      -6.032506      -164.1528
  24   2.0000      -1.007710       -27.4212
  25   2.0000      -0.983738       -26.7689
  26   2.0000      -0.914555       -24.8863
  27   2.0000      -0.910931       -24.7877
  28   2.0000      -0.867713       -23.6117
  29   2.0000      -0.856055       -23.2945
  30   2.0000      -0.845052       -22.9950
  31   2.0000      -0.809635       -22.0313
  32   2.0000      -0.783490       -21.3198
  33   2.0000      -0.772173       -21.0119
  34   2.0000      -0.706308       -19.2196
  35   2.0000      -0.699192       -19.0260
  36   2.0000      -0.694385       -18.8952
  37   2.0000      -0.663144       -18.0451
  38   2.0000      -0.638117       -17.3640
  39   2.0000      -0.614596       -16.7240
  40   2.0000      -0.593585       -16.1523
  41   2.0000      -0.566430       -15.4133
  42   2.0000      -0.561196       -15.2709
  43   2.0000      -0.557080       -15.1589
  44   2.0000      -0.546357       -14.8671
  45   2.0000      -0.525337       -14.2951
  46   2.0000      -0.521884       -14.2012
  47   2.0000      -0.517259       -14.0753
  48   2.0000      -0.508528       -13.8377
  49   2.0000      -0.498574       -13.5669
  50   2.0000      -0.495088       -13.4720
  51   2.0000      -0.473892       -12.8953
  52   2.0000      -0.468122       -12.7383
  53   2.0000      -0.461409       -12.5556
  54   2.0000      -0.454870       -12.3776
  55   2.0000      -0.448438       -12.2026
  56   2.0000      -0.439329       -11.9548
  57   2.0000      -0.436123       -11.8675
  58   2.0000      -0.432486       -11.7685
  59   2.0000      -0.430128       -11.7044
  60   2.0000      -0.425201       -11.5703
  61   2.0000      -0.420581       -11.4446
  62   2.0000      -0.407885       -11.0991
  63   2.0000      -0.350951        -9.5499
  64   2.0000      -0.332119        -9.0374
  65   2.0000      -0.328446        -8.9375
  66   2.0000      -0.285145        -7.7592
  67   0.0000       0.022017         0.5991
  68   0.0000       0.068742         1.8706
  69   0.0000       0.101283         2.7560
  70   0.0000       0.115694         3.1482
  71   0.0000       0.125840         3.4243

MULLIKEN ATOMIC CHARGES
-----------------------
   0 S :    0.105302
   1 C :   -0.134992
   2 C :   -0.090571
   3 C :    0.027543
   4 C :   -0.121905
   5 H :   -0.026625
   6 C :    0.028771
   7 H :    0.043360
   8 H :    0.018692
   9 C :    0.008568
  10 H :    0.030488
  11 H :    0.023447
  12 C :   -0.084778
  13 H :    0.038770
  14 H :    0.019038
  15 H :    0.019619
  16 S :    0.103351
  17 C :   -0.084034
  18 C :   -0.080389
  19 C :    0.020605
  20 C :   -0.145908
  21 H :    0.037061
  22 C :   -0.003022
  23 H :    0.045640
  24 H :    0.033409
  25 C :   -0.134234
  26 H :    0.034995
  27 H :    0.038509
  28 C :   -0.019640
  29 H :    0.038113
  30 H :    0.038826
  31 H :    0.046055
  32 H :    0.067121
  33 H :    0.058816
Sum of atomic charges:   -0.0000000

LOEWDIN ATOMIC CHARGES
----------------------
   0 S :    0.406782
   1 C :   -0.207194
   2 C :   -0.055497
   3 C :   -0.071009
   4 C :   -0.194062
   5 H :    0.022805
   6 C :   -0.037258
   7 H :    0.035622
   8 H :    0.032928
   9 C :   -0.038869
  10 H :    0.030273
  11 H :    0.022438
  12 C :   -0.075367
  13 H :    0.027707
  14 H :    0.025140
  15 H :    0.023053
  16 S :    0.392818
  17 C :   -0.188447
  18 C :   -0.071432
  19 C :   -0.063069
  20 C :   -0.182613
  21 H :    0.037578
  22 C :   -0.041757
  23 H :    0.035505
  24 H :    0.035316
  25 C :   -0.033957
  26 H :    0.022526
  27 H :    0.020171
  28 C :   -0.064598
  29 H :    0.026502
  30 H :    0.026036
  31 H :    0.033664
  32 H :    0.042852
  33 H :    0.025414

  Mayer bond orders larger than 0.100000
B(  0-S ,  1-C ) :   1.1175 B(  0-S ,  4-C ) :   1.1527 B(  1-C ,  2-C ) :   1.6335
B(  1-C , 32-H ) :   0.9576 B(  2-C ,  3-C ) :   1.2048 B(  2-C ,  6-C ) :   1.0135
B(  3-C ,  4-C ) :   1.5735 B(  3-C ,  5-H ) :   0.9982 B(  4-C , 20-C ) :   1.0522
B(  6-C ,  7-H ) :   0.9447 B(  6-C ,  8-H ) :   0.9390 B(  6-C ,  9-C ) :   1.0816
B(  9-C , 10-H ) :   0.9486 B(  9-C , 11-H ) :   0.9538 B(  9-C , 12-C ) :   1.0752
B( 12-C , 13-H ) :   0.9751 B( 12-C , 14-H ) :   0.9753 B( 12-C , 15-H ) :   0.9728
B( 16-S , 17-C ) :   1.1698 B( 16-S , 20-C ) :   1.1281 B( 17-C , 18-C ) :   1.5906
B( 17-C , 20-C ) :   0.1104 B( 17-C , 33-H ) :   0.9632 B( 18-C , 19-C ) :   1.2478
B( 18-C , 21-H ) :   0.9801 B( 19-C , 20-C ) :   1.5575 B( 19-C , 22-C ) :   1.0950
B( 22-C , 23-H ) :   0.9258 B( 22-C , 24-H ) :   0.9241 B( 22-C , 25-C ) :   1.0426
B( 25-C , 26-H ) :   0.9538 B( 25-C , 27-H ) :   0.9571 B( 25-C , 28-C ) :   1.0697
B( 28-C , 29-H ) :   0.9763 B( 28-C , 30-H ) :   0.9754 B( 28-C , 31-H ) :   0.9734

Dispersion correction           -0.014807088
FINAL SINGLE POINT ENERGY     -1339.865019928969

DIPOLE MOMENT
-------------
                                X             Y             Z
Electronic contribution:     13.67617      26.47563       7.47801
Nuclear contribution   :    -14.12644     -27.11487      -7.36340
                        -----------------------------------------
Total Dipole Moment    :     -0.45027      -0.63924       0.11461
                        -----------------------------------------
Magnitude (a.u.)       :      0.79026
Magnitude (Debye)      :      2.00868

Rotational constants in cm-1:     0.018058     0.009920     0.006854
Rotational constants in MHz :   541.358616   297.405658   205.486905

                             ****ORCA TERMINATED NORMALLY****
TOTAL RUN TIME: 0 days 0 hours 0 minutes 30 seconds 692 msec
