                         Program Version 4.2.1 -  RELEASE  -
|  1> ! wB97X-D3 SP def2-SVP
|  2> %pal
|  3> nprocs 16
|  4> end
|  5>
|  6> * xyz 0 1
|  7> S 	 -13.8624 	 57.336 	 59.0219
|  8> C 	 -13.1656 	 56.4379 	 57.7396
|  9> C 	 -12.549 	 55.2806 	 58.1549
| 10> C 	 -12.7245 	 55.0995 	 59.5294
| 11> C 	 -13.4212 	 56.102 	 60.1173
| 12> H 	 -12.413 	 54.2959 	 60.0971
| 13> C 	 -11.6546 	 54.3121 	 57.4401
| 14> H 	 -10.5958 	 54.4313 	 57.7938
| 15> H 	 -11.6368 	 54.7744 	 56.4341
| 16> C 	 -12.0409 	 52.8611 	 57.3798
| 17> H 	 -11.1415 	 52.2344 	 56.9426
| 18> H 	 -12.0796 	 52.4635 	 58.4305
| 19> C 	 -13.2207 	 52.5428 	 56.5348
| 20> H 	 -13.4543 	 51.4881 	 56.748
| 21> H 	 -14.1418 	 53.0835 	 56.7949
| 22> H 	 -13.1328 	 52.654 	 55.4483
| 23> S 	 -13.1316 	 57.8894 	 62.2093
| 24> C 	 -13.5885 	 57.4482 	 63.7672
| 25> C 	 -13.8841 	 56.1216 	 63.8289
| 26> C 	 -13.9421 	 55.3898 	 62.5928
| 27> C 	 -13.6037 	 56.3083 	 61.546
| 28> H 	 -14.2052 	 55.8105 	 64.7803
| 29> C 	 -14.2825 	 53.9048 	 62.4532
| 30> H 	 -13.3525 	 53.3344 	 62.4618
| 31> H 	 -14.765 	 53.7826 	 61.4367
| 32> C 	 -15.1255 	 53.3352 	 63.6255
| 33> H 	 -14.5914 	 53.5848 	 64.5775
| 34> H 	 -15.09 	 52.2409 	 63.5949
| 35> C 	 -16.5953 	 53.8599 	 63.6739
| 36> H 	 -17.2855 	 53.6333 	 62.8307
| 37> H 	 -16.6886 	 54.9269 	 63.8544
| 38> H 	 -17.1226 	 53.4142 	 64.5158
| 39> H 	 -12.9562 	 56.726 	 56.7086
| 40> H 	 -13.5131 	 58.1045 	 64.6482
| 41> *
| 42>
| 43>                          ****END OF INPUT****

CARTESIAN COORDINATES (ANGSTROEM)
---------------------------------
  S    -13.862400   57.336000   59.021900
  C    -13.165600   56.437900   57.739600
  C    -12.549000   55.280600   58.154900
  C    -12.724500   55.099500   59.529400
  C    -13.421200   56.102000   60.117300
  H    -12.413000   54.295900   60.097100
  C    -11.654600   54.312100   57.440100
  H    -10.595800   54.431300   57.793800
  H    -11.636800   54.774400   56.434100
  C    -12.040900   52.861100   57.379800
  H    -11.141500   52.234400   56.942600
  H    -12.079600   52.463500   58.430500
  C    -13.220700   52.542800   56.534800
  H    -13.454300   51.488100   56.748000
  H    -14.141800   53.083500   56.794900
  H    -13.132800   52.654000   55.448300
  S    -13.131600   57.889400   62.209300
  C    -13.588500   57.448200   63.767200
  C    -13.884100   56.121600   63.828900
  C    -13.942100   55.389800   62.592800
  C    -13.603700   56.308300   61.546000
  H    -14.205200   55.810500   64.780300
  C    -14.282500   53.904800   62.453200
  H    -13.352500   53.334400   62.461800
  H    -14.765000   53.782600   61.436700
  C    -15.125500   53.335200   63.625500
  H    -14.591400   53.584800   64.577500
  H    -15.090000   52.240900   63.594900
  C    -16.595300   53.859900   63.673900
  H    -17.285500   53.633300   62.830700
  H    -16.688600   54.926900   63.854400
  H    -17.122600   53.414200   64.515800
  H    -12.956200   56.726000   56.708600
  H    -13.513100   58.104500   64.648200

 Total Charge           Charge          ....    0
 Multiplicity           Mult            ....    1
 Number of Electrons    NEL             ....  134
 Basis Dimension        Dim             ....  322

ORBITAL ENERGIES
----------------

  NO   OCC          E(Eh)            E(eV)
   0   2.0000     -88.968293     -2420.9503
   1   2.0000     -88.962538     -2420.7937
   2   2.0000     -10.327785      -281.0333
   3   2.0000     -10.318623      -280.7840
   4   2.0000     -10.309252      -280.5290
   5   2.0000     -10.309090      -280.5246
   6   2.0000     -10.308614      -280.5116
   7   2.0000     -10.301667      -280.3226
   8   2.0000     -10.298202      -280.2283
   9   2.0000     -10.298069      -280.2247
  10   2.0000     -10.292617      -280.0764
  11   2.0000     -10.291679      -280.0508
  12   2.0000     -10.284993      -279.8689
  13   2.0000     -10.279190      -279.7110
  14   2.0000     -10.277329      -279.6603
  15   2.0000     -10.277264      -279.6586
  16   2.0000      -8.084242      -219.9834
  17   2.0000      -8.078180      -219.8185
  18   2.0000      -6.042636      -164.4285
  19   2.0000      -6.038668      -164.3205
  20   2.0000      -6.036553      -164.2630
  21   2.0000      -6.034957      -164.2195
  22   2.0000      -6.032478      -164.1521
  23   2.0000      -6.029123      -164.0608
  24   2.0000      -1.015804       -27.6414
  25   2.0000      -0.989826       -26.9345
  26   2.0000      -0.918336       -24.9892
  27   2.0000      -0.905051       -24.6277
  28   2.0000      -0.871083       -23.7034
  29   2.0000      -0.857030       -23.3210
  30   2.0000      -0.841169       -22.8894
  31   2.0000      -0.814276       -22.1576
  32   2.0000      -0.787817       -21.4376
  33   2.0000      -0.775743       -21.1090
  34   2.0000      -0.711732       -19.3672
  35   2.0000      -0.697693       -18.9852
  36   2.0000      -0.692029       -18.8311
  37   2.0000      -0.650903       -17.7120
  38   2.0000      -0.636344       -17.3158
  39   2.0000      -0.627558       -17.0767
  40   2.0000      -0.597603       -16.2616
  41   2.0000      -0.565745       -15.3947
  42   2.0000      -0.554083       -15.0774
  43   2.0000      -0.549799       -14.9608
  44   2.0000      -0.538534       -14.6543
  45   2.0000      -0.531812       -14.4713
  46   2.0000      -0.520149       -14.1540
  47   2.0000      -0.515410       -14.0250
  48   2.0000      -0.500026       -13.6064
  49   2.0000      -0.496512       -13.5108
  50   2.0000      -0.490224       -13.3397
  51   2.0000      -0.478017       -13.0075
  52   2.0000      -0.472634       -12.8610
  53   2.0000      -0.466335       -12.6896
  54   2.0000      -0.459196       -12.4954
  55   2.0000      -0.448488       -12.2040
  56   2.0000      -0.443571       -12.0702
  57   2.0000      -0.438177       -11.9234
  58   2.0000      -0.433662       -11.8005
  59   2.0000      -0.429051       -11.6751
  60   2.0000      -0.422182       -11.4882
  61   2.0000      -0.417011       -11.3474
  62   2.0000      -0.404322       -11.0022
  63   2.0000      -0.349285        -9.5045
  64   2.0000      -0.333650        -9.0791
  65   2.0000      -0.328315        -8.9339
  66   2.0000      -0.287230        -7.8159
  67   0.0000       0.031324         0.8524
  68   0.0000       0.079324         2.1585
  69   0.0000       0.119342         3.2475
  70   0.0000       0.124477         3.3872
  71   0.0000       0.127096         3.4585

MULLIKEN ATOMIC CHARGES
-----------------------
   0 S :    0.131667
   1 C :   -0.101884
   2 C :   -0.104967
   3 C :    0.045106
   4 C :   -0.152598
   5 H :   -0.030212
   6 C :    0.068993
   7 H :    0.050004
   8 H :    0.001916
   9 C :   -0.102032
  10 H :    0.040600
  11 H :    0.037730
  12 C :   -0.046749
  13 H :    0.030968
  14 H :    0.037088
  15 H :    0.038040
  16 S :    0.108530
  17 C :   -0.096813
  18 C :   -0.042346
  19 C :   -0.026148
  20 C :   -0.165553
  21 H :   -0.004873
  22 C :    0.058848
  23 H :    0.047043
  24 H :    0.049150
  25 C :   -0.083442
  26 H :    0.037893
  27 H :    0.031962
  28 C :   -0.060148
  29 H :    0.038629
  30 H :    0.037509
  31 H :    0.024961
  32 H :    0.036707
  33 H :    0.064419
Sum of atomic charges:    0.0000000

LOEWDIN ATOMIC CHARGES
----------------------
   0 S :    0.442722
   1 C :   -0.215822
   2 C :   -0.068159
   3 C :   -0.052752
   4 C :   -0.206713
   5 H :    0.017063
   6 C :   -0.042296
   7 H :    0.041852
   8 H :    0.027668
   9 C :   -0.054367
  10 H :    0.038453
  11 H :    0.027651
  12 C :   -0.072979
  13 H :    0.031527
  14 H :    0.027668
  15 H :    0.028358
  16 S :    0.418280
  17 C :   -0.212043
  18 C :   -0.078473
  19 C :   -0.052407
  20 C :   -0.191666
  21 H :    0.018896
  22 C :   -0.036513
  23 H :    0.034560
  24 H :    0.040935
  25 C :   -0.041735
  26 H :    0.029924
  27 H :    0.026503
  28 C :   -0.075724
  29 H :    0.030796
  30 H :    0.026001
  31 H :    0.025785
  32 H :    0.029834
  33 H :    0.037174

  Mayer bond orders larger than 0.100000
B(  0-S ,  1-C ) :   1.1419 B(  0-S ,  4-C ) :   1.1597 B(  1-C ,  2-C ) :   1.6210
B(  1-C , 32-H ) :   0.9533 B(  2-C ,  3-C ) :   1.2413 B(  2-C ,  6-C ) :   1.0165
B(  3-C ,  4-C ) :   1.5670 B(  3-C ,  5-H ) :   1.0109 B(  4-C , 20-C ) :   1.0410
B(  6-C ,  7-H ) :   0.9382 B(  6-C ,  8-H ) :   0.9301 B(  6-C ,  9-C ) :   1.0763
B(  9-C , 10-H ) :   0.9467 B(  9-C , 11-H ) :   0.9535 B(  9-C , 12-C ) :   1.0801
B( 12-C , 13-H ) :   0.9692 B( 12-C , 14-H ) :   0.9740 B( 12-C , 15-H ) :   0.9722
B( 16-S , 17-C ) :   1.1574 B( 16-S , 20-C ) :   1.1659 B( 17-C , 18-C ) :   1.6135
B( 17-C , 33-H ) :   0.9608 B( 18-C , 19-C ) :   1.2395 B( 18-C , 21-H ) :   0.9892
B( 19-C , 20-C ) :   1.5577 B( 19-C , 22-C ) :   1.0325 B( 22-C , 23-H ) :   0.9277
B( 22-C , 24-H ) :   0.9354 B( 22-C , 25-C ) :   1.0783 B( 25-C , 26-H ) :   0.9474
B( 25-C , 27-H ) :   0.9556 B( 25-C , 28-C ) :   1.0718 B( 28-C , 29-H ) :   0.9762
B( 28-C , 30-H ) :   0.9754 B( 28-C , 31-H ) :   0.9741

Dispersion correction           -0.014168975
FINAL SINGLE POINT ENERGY     -1339.878710300363

DIPOLE MOMENT
-------------
                                X             Y             Z
Electronic contribution:      4.02114      26.53192       2.54733
Nuclear contribution   :     -3.86520     -27.15858      -2.40647
                        -----------------------------------------
Total Dipole Moment    :      0.15594      -0.62665       0.14087
                        -----------------------------------------
Magnitude (a.u.)       :      0.66095
Magnitude (Debye)      :      1.68000

Rotational constants in cm-1:     0.018730     0.008772     0.006677
Rotational constants in MHz :   561.496644   262.992440   200.177705

                             ****ORCA TERMINATED NORMALLY****
TOTAL RUN TIME: 0 days 0 hours 0 minutes 33 seconds 527 msec
