                         Program Version 4.2.1 -  RELEASE  -
|  1> ! wB97X-D3 SP def2-SVP
|  2> %pal
|  3> nprocs 16
|  4> end
|  5>
|  6> * xyz 0 1
|  7> S 	 -6.68132 	 29.2378 	 47.5743
|  8> C 	 -5.43785 	 28.9203 	 48.7454
|  9> C 	 -4.18606 	 28.9773 	 48.1796
| 10> C 	 -4.27452 	 29.3095 	 46.7959
| 11> C 	 -5.51603 	 29.5668 	 46.362
| 12> H 	 -3.51978 	 29.4865 	 46.114
| 13> C 	 -2.96049 	 28.4728 	 48.7944
| 14> H 	 -3.43017 	 27.8519 	 49.5802
| 15> H 	 -2.50071 	 29.2611 	 49.3155
| 16> C 	 -1.95665 	 27.7264 	 47.9874
| 17> H 	 -1.51301 	 28.3455 	 47.2564
| 18> H 	 -1.16394 	 27.3261 	 48.606
| 19> C 	 -2.52866 	 26.4385 	 47.4447
| 20> H 	 -2.83055 	 25.8664 	 48.3621
| 21> H 	 -3.43397 	 26.4562 	 46.7895
| 22> H 	 -1.8179 	 25.8947 	 46.9005
| 23> S 	 -7.31635 	 28.8708 	 44.3215
| 24> C 	 -7.16843 	 29.812 	 42.8087
| 25> C 	 -6.07504 	 30.6362 	 42.7702
| 26> C 	 -5.4375 	 30.6278 	 44.0155
| 27> C 	 -5.94439 	 29.7743 	 44.9741
| 28> H 	 -5.84777 	 31.0893 	 41.8677
| 29> C 	 -4.28342 	 31.6136 	 44.2422
| 30> H 	 -3.93091 	 31.7706 	 43.222
| 31> H 	 -3.42919 	 31.2447 	 44.811
| 32> C 	 -4.64631 	 32.9957 	 44.772
| 33> H 	 -5.39847 	 32.8441 	 45.6008
| 34> H 	 -5.14567 	 33.569 	 43.9717
| 35> C 	 -3.44719 	 33.9175 	 45.1767
| 36> H 	 -3.7876 	 34.9075 	 45.3592
| 37> H 	 -2.60935 	 33.843 	 44.417
| 38> H 	 -2.98715 	 33.6831 	 46.1339
| 39> H 	 -5.523 	 28.6917 	 49.7885
| 40> H 	 -7.81596 	 29.7736 	 41.9863
| 41> *
| 42>
| 43>                          ****END OF INPUT****

CARTESIAN COORDINATES (ANGSTROEM)
---------------------------------
  S     -6.681320   29.237800   47.574300
  C     -5.437850   28.920300   48.745400
  C     -4.186060   28.977300   48.179600
  C     -4.274520   29.309500   46.795900
  C     -5.516030   29.566800   46.362000
  H     -3.519780   29.486500   46.114000
  C     -2.960490   28.472800   48.794400
  H     -3.430170   27.851900   49.580200
  H     -2.500710   29.261100   49.315500
  C     -1.956650   27.726400   47.987400
  H     -1.513010   28.345500   47.256400
  H     -1.163940   27.326100   48.606000
  C     -2.528660   26.438500   47.444700
  H     -2.830550   25.866400   48.362100
  H     -3.433970   26.456200   46.789500
  H     -1.817900   25.894700   46.900500
  S     -7.316350   28.870800   44.321500
  C     -7.168430   29.812000   42.808700
  C     -6.075040   30.636200   42.770200
  C     -5.437500   30.627800   44.015500
  C     -5.944390   29.774300   44.974100
  H     -5.847770   31.089300   41.867700
  C     -4.283420   31.613600   44.242200
  H     -3.930910   31.770600   43.222000
  H     -3.429190   31.244700   44.811000
  C     -4.646310   32.995700   44.772000
  H     -5.398470   32.844100   45.600800
  H     -5.145670   33.569000   43.971700
  C     -3.447190   33.917500   45.176700
  H     -3.787600   34.907500   45.359200
  H     -2.609350   33.843000   44.417000
  H     -2.987150   33.683100   46.133900
  H     -5.523000   28.691700   49.788500
  H     -7.815960   29.773600   41.986300

 Total Charge           Charge          ....    0
 Multiplicity           Mult            ....    1
 Number of Electrons    NEL             ....  134
 Basis Dimension        Dim             ....  322

ORBITAL ENERGIES
----------------

  NO   OCC          E(Eh)            E(eV)
   0   2.0000     -88.968695     -2420.9613
   1   2.0000     -88.964233     -2420.8399
   2   2.0000     -10.326666      -281.0029
   3   2.0000     -10.321005      -280.8488
   4   2.0000     -10.314563      -280.6735
   5   2.0000     -10.308264      -280.5021
   6   2.0000     -10.299854      -280.2733
   7   2.0000     -10.294216      -280.1198
   8   2.0000     -10.288878      -279.9746
   9   2.0000     -10.288121      -279.9540
  10   2.0000     -10.287764      -279.9443
  11   2.0000     -10.281591      -279.7763
  12   2.0000     -10.281387      -279.7708
  13   2.0000     -10.280553      -279.7481
  14   2.0000     -10.280083      -279.7353
  15   2.0000     -10.273400      -279.5534
  16   2.0000      -8.082441      -219.9344
  17   2.0000      -8.079937      -219.8663
  18   2.0000      -6.040973      -164.3832
  19   2.0000      -6.038469      -164.3151
  20   2.0000      -6.037211      -164.2809
  21   2.0000      -6.034313      -164.2020
  22   2.0000      -6.033104      -164.1691
  23   2.0000      -6.030607      -164.1012
  24   2.0000      -1.013851       -27.5883
  25   2.0000      -0.988600       -26.9012
  26   2.0000      -0.927256       -25.2319
  27   2.0000      -0.902527       -24.5590
  28   2.0000      -0.875808       -23.8319
  29   2.0000      -0.852142       -23.1880
  30   2.0000      -0.847323       -23.0568
  31   2.0000      -0.823271       -22.4023
  32   2.0000      -0.785454       -21.3733
  33   2.0000      -0.773129       -21.0379
  34   2.0000      -0.715335       -19.4653
  35   2.0000      -0.698781       -19.0148
  36   2.0000      -0.688723       -18.7411
  37   2.0000      -0.666642       -18.1403
  38   2.0000      -0.645564       -17.5667
  39   2.0000      -0.628117       -17.0919
  40   2.0000      -0.595435       -16.2026
  41   2.0000      -0.575888       -15.6707
  42   2.0000      -0.569736       -15.5033
  43   2.0000      -0.556817       -15.1518
  44   2.0000      -0.549394       -14.9498
  45   2.0000      -0.526652       -14.3309
  46   2.0000      -0.519426       -14.1343
  47   2.0000      -0.509800       -13.8724
  48   2.0000      -0.501648       -13.6505
  49   2.0000      -0.498982       -13.5780
  50   2.0000      -0.493136       -13.4189
  51   2.0000      -0.479761       -13.0550
  52   2.0000      -0.470264       -12.7965
  53   2.0000      -0.465824       -12.6757
  54   2.0000      -0.458016       -12.4632
  55   2.0000      -0.448544       -12.2055
  56   2.0000      -0.439747       -11.9661
  57   2.0000      -0.437184       -11.8964
  58   2.0000      -0.435099       -11.8397
  59   2.0000      -0.429967       -11.7000
  60   2.0000      -0.420236       -11.4352
  61   2.0000      -0.415198       -11.2981
  62   2.0000      -0.407185       -11.0801
  63   2.0000      -0.352125        -9.5818
  64   2.0000      -0.336565        -9.1584
  65   2.0000      -0.327679        -8.9166
  66   2.0000      -0.289189        -7.8692
  67   0.0000       0.029528         0.8035
  68   0.0000       0.074966         2.0399
  69   0.0000       0.104505         2.8437
  70   0.0000       0.129530         3.5247
  71   0.0000       0.132597         3.6081

MULLIKEN ATOMIC CHARGES
-----------------------
   0 S :    0.110247
   1 C :   -0.112270
   2 C :   -0.097428
   3 C :    0.034946
   4 C :   -0.131280
   5 H :   -0.031071
   6 C :    0.104100
   7 H :    0.006702
   8 H :    0.022712
   9 C :   -0.027181
  10 H :    0.022310
  11 H :    0.028260
  12 C :   -0.070536
  13 H :    0.026411
  14 H :    0.048090
  15 H :    0.022074
  16 S :    0.105575
  17 C :   -0.073168
  18 C :   -0.009478
  19 C :   -0.037319
  20 C :   -0.135548
  21 H :   -0.002699
  22 C :    0.071596
  23 H :    0.008631
  24 H :    0.019965
  25 C :   -0.087118
  26 H :    0.045904
  27 H :    0.026416
  28 C :   -0.048310
  29 H :    0.030205
  30 H :    0.037620
  31 H :    0.026202
  32 H :    0.035261
  33 H :    0.030177
Sum of atomic charges:   -0.0000000

LOEWDIN ATOMIC CHARGES
----------------------
   0 S :    0.421449
   1 C :   -0.201903
   2 C :   -0.058624
   3 C :   -0.057117
   4 C :   -0.196822
   5 H :    0.016577
   6 C :   -0.035725
   7 H :    0.035101
   8 H :    0.028345
   9 C :   -0.036959
  10 H :    0.017301
  11 H :    0.034486
  12 C :   -0.064185
  13 H :    0.030407
  14 H :    0.029055
  15 H :    0.015928
  16 S :    0.382079
  17 C :   -0.156117
  18 C :   -0.058676
  19 C :   -0.059168
  20 C :   -0.190039
  21 H :    0.026187
  22 C :   -0.035304
  23 H :    0.028064
  24 H :    0.023345
  25 C :   -0.043497
  26 H :    0.030962
  27 H :    0.023855
  28 C :   -0.069406
  29 H :    0.023711
  30 H :    0.031198
  31 H :    0.022693
  32 H :    0.025921
  33 H :    0.016877

  Mayer bond orders larger than 0.100000
B(  0-S ,  1-C ) :   1.1351 B(  0-S ,  4-C ) :   1.1483 B(  1-C ,  2-C ) :   1.6273
B(  1-C , 32-H ) :   0.9634 B(  2-C ,  3-C ) :   1.2225 B(  2-C ,  6-C ) :   1.0085
B(  3-C ,  4-C ) :   1.5945 B(  3-C ,  5-H ) :   1.0047 B(  4-C , 20-C ) :   1.0331
B(  6-C ,  7-H ) :   0.9386 B(  6-C ,  8-H ) :   0.9098 B(  6-C ,  9-C ) :   1.1080
B(  9-C , 10-H ) :   0.9427 B(  9-C , 11-H ) :   0.9468 B(  9-C , 12-C ) :   1.0736
B( 12-C , 13-H ) :   0.9739 B( 12-C , 14-H ) :   0.9755 B( 12-C , 15-H ) :   0.9750
B( 16-S , 17-C ) :   1.1432 B( 16-S , 20-C ) :   1.1211 B( 17-C , 18-C ) :   1.6338
B( 17-C , 33-H ) :   0.9671 B( 18-C , 19-C ) :   1.2307 B( 18-C , 21-H ) :   1.0033
B( 19-C , 20-C ) :   1.6204 B( 19-C , 22-C ) :   1.0392 B( 22-C , 23-H ) :   0.9235
B( 22-C , 24-H ) :   0.9410 B( 22-C , 25-C ) :   1.0645 B( 25-C , 26-H ) :   0.9589
B( 25-C , 27-H ) :   0.9564 B( 25-C , 28-C ) :   1.0731 B( 28-C , 29-H ) :   0.9745
B( 28-C , 30-H ) :   0.9745 B( 28-C , 31-H ) :   0.9738

Dispersion correction           -0.014470208
FINAL SINGLE POINT ENERGY     -1339.862067505681

DIPOLE MOMENT
-------------
                                X             Y             Z
Electronic contribution:    -23.43652      -6.62056      -2.87544
Nuclear contribution   :     24.06899       6.76587       2.79169
                        -----------------------------------------
Total Dipole Moment    :      0.63248       0.14531      -0.08375
                        -----------------------------------------
Magnitude (a.u.)       :      0.65434
Magnitude (Debye)      :      1.66319

Rotational constants in cm-1:     0.016874     0.009523     0.007746
Rotational constants in MHz :   505.856674   285.489046   232.217013

                             ****ORCA TERMINATED NORMALLY****
TOTAL RUN TIME: 0 days 0 hours 0 minutes 35 seconds 965 msec
