                         Program Version 4.2.1 -  RELEASE  -
|  1> ! wB97X-D3 SP def2-SVP
|  2> %pal
|  3> nprocs 16
|  4> end
|  5>
|  6> * xyz 0 1
|  7> S 	 -7.56616 	 44.386 	 36.9635
|  8> C 	 -6.96698 	 45.8915 	 36.1283
|  9> C 	 -6.06738 	 46.5979 	 36.849
| 10> C 	 -5.56852 	 45.8147 	 37.9456
| 11> C 	 -6.23077 	 44.6028 	 38.1988
| 12> H 	 -4.80391 	 46.1113 	 38.6409
| 13> C 	 -5.50831 	 47.8797 	 36.3584
| 14> H 	 -5.25593 	 47.7753 	 35.2704
| 15> H 	 -4.49308 	 48.1408 	 36.7372
| 16> C 	 -6.43759 	 49.1491 	 36.5062
| 17> H 	 -6.0564 	 50.0463 	 35.9913
| 18> H 	 -7.38595 	 48.9165 	 36.009
| 19> C 	 -6.73884 	 49.5071 	 37.9761
| 20> H 	 -7.25813 	 48.7013 	 38.4661
| 21> H 	 -5.82679 	 49.6687 	 38.5158
| 22> H 	 -7.39666 	 50.3817 	 37.971
| 23> S 	 -7.34916 	 43.2726 	 40.2922
| 24> C 	 -6.39503 	 42.3513 	 41.3568
| 25> C 	 -5.02327 	 42.5789 	 41.1626
| 26> C 	 -4.76172 	 43.3295 	 39.9655
| 27> C 	 -5.96555 	 43.6972 	 39.3649
| 28> H 	 -4.35508 	 42.1911 	 41.8844
| 29> C 	 -3.42409 	 43.5286 	 39.2683
| 30> H 	 -3.5914 	 43.9686 	 38.2781
| 31> H 	 -2.95992 	 42.5041 	 39.234
| 32> C 	 -2.45202 	 44.4761 	 39.937
| 33> H 	 -2.38881 	 44.1901 	 40.9948
| 34> H 	 -2.94359 	 45.509 	 39.9094
| 35> C 	 -1.09978 	 44.5058 	 39.113
| 36> H 	 -1.20823 	 44.8529 	 38.1503
| 37> H 	 -0.535574 	 43.5998 	 39.0858
| 38> H 	 -0.460188 	 45.2389 	 39.4988
| 39> H 	 -7.48448 	 46.3189 	 35.2378
| 40> H 	 -6.78815 	 41.9162 	 42.205
| 41> *
| 42>
| 43>                          ****END OF INPUT****

CARTESIAN COORDINATES (ANGSTROEM)
---------------------------------
  S     -7.566160   44.386000   36.963500
  C     -6.966980   45.891500   36.128300
  C     -6.067380   46.597900   36.849000
  C     -5.568520   45.814700   37.945600
  C     -6.230770   44.602800   38.198800
  H     -4.803910   46.111300   38.640900
  C     -5.508310   47.879700   36.358400
  H     -5.255930   47.775300   35.270400
  H     -4.493080   48.140800   36.737200
  C     -6.437590   49.149100   36.506200
  H     -6.056400   50.046300   35.991300
  H     -7.385950   48.916500   36.009000
  C     -6.738840   49.507100   37.976100
  H     -7.258130   48.701300   38.466100
  H     -5.826790   49.668700   38.515800
  H     -7.396660   50.381700   37.971000
  S     -7.349160   43.272600   40.292200
  C     -6.395030   42.351300   41.356800
  C     -5.023270   42.578900   41.162600
  C     -4.761720   43.329500   39.965500
  C     -5.965550   43.697200   39.364900
  H     -4.355080   42.191100   41.884400
  C     -3.424090   43.528600   39.268300
  H     -3.591400   43.968600   38.278100
  H     -2.959920   42.504100   39.234000
  C     -2.452020   44.476100   39.937000
  H     -2.388810   44.190100   40.994800
  H     -2.943590   45.509000   39.909400
  C     -1.099780   44.505800   39.113000
  H     -1.208230   44.852900   38.150300
  H     -0.535574   43.599800   39.085800
  H     -0.460188   45.238900   39.498800
  H     -7.484480   46.318900   35.237800
  H     -6.788150   41.916200   42.205000

 Total Charge           Charge          ....    0
 Multiplicity           Mult            ....    1
 Number of Electrons    NEL             ....  134
 Basis Dimension        Dim             ....  322

ORBITAL ENERGIES
----------------

  NO   OCC          E(Eh)            E(eV)
   0   2.0000     -88.968548     -2420.9573
   1   2.0000     -88.965782     -2420.8820
   2   2.0000     -10.341102      -281.3957
   3   2.0000     -10.326841      -281.0076
   4   2.0000     -10.320629      -280.8386
   5   2.0000     -10.310377      -280.5596
   6   2.0000     -10.305765      -280.4341
   7   2.0000     -10.302929      -280.3569
   8   2.0000     -10.299945      -280.2758
   9   2.0000     -10.299377      -280.2603
  10   2.0000     -10.296261      -280.1755
  11   2.0000     -10.296249      -280.1752
  12   2.0000     -10.292019      -280.0601
  13   2.0000     -10.291569      -280.0478
  14   2.0000     -10.272963      -279.5415
  15   2.0000     -10.270374      -279.4711
  16   2.0000      -8.082105      -219.9253
  17   2.0000      -8.080917      -219.8929
  18   2.0000      -6.040323      -164.3656
  19   2.0000      -6.039716      -164.3490
  20   2.0000      -6.036366      -164.2579
  21   2.0000      -6.035928      -164.2459
  22   2.0000      -6.033114      -164.1694
  23   2.0000      -6.031323      -164.1206
  24   2.0000      -1.006377       -27.3849
  25   2.0000      -0.979252       -26.6468
  26   2.0000      -0.910660       -24.7803
  27   2.0000      -0.905804       -24.6482
  28   2.0000      -0.864700       -23.5297
  29   2.0000      -0.853022       -23.2119
  30   2.0000      -0.841277       -22.8923
  31   2.0000      -0.814094       -22.1526
  32   2.0000      -0.787214       -21.4212
  33   2.0000      -0.773613       -21.0511
  34   2.0000      -0.704215       -19.1627
  35   2.0000      -0.701883       -19.0992
  36   2.0000      -0.695011       -18.9122
  37   2.0000      -0.663235       -18.0475
  38   2.0000      -0.634491       -17.2654
  39   2.0000      -0.615196       -16.7403
  40   2.0000      -0.597876       -16.2690
  41   2.0000      -0.576916       -15.6987
  42   2.0000      -0.568473       -15.4689
  43   2.0000      -0.547479       -14.8977
  44   2.0000      -0.535351       -14.5676
  45   2.0000      -0.519458       -14.1352
  46   2.0000      -0.516344       -14.0504
  47   2.0000      -0.510274       -13.8853
  48   2.0000      -0.506998       -13.7961
  49   2.0000      -0.492529       -13.4024
  50   2.0000      -0.488432       -13.2909
  51   2.0000      -0.480456       -13.0739
  52   2.0000      -0.473440       -12.8830
  53   2.0000      -0.468312       -12.7434
  54   2.0000      -0.459464       -12.5026
  55   2.0000      -0.451599       -12.2886
  56   2.0000      -0.438609       -11.9352
  57   2.0000      -0.435489       -11.8502
  58   2.0000      -0.433654       -11.8003
  59   2.0000      -0.428311       -11.6549
  60   2.0000      -0.427043       -11.6204
  61   2.0000      -0.418761       -11.3951
  62   2.0000      -0.414690       -11.2843
  63   2.0000      -0.347101        -9.4451
  64   2.0000      -0.332873        -9.0579
  65   2.0000      -0.330628        -8.9968
  66   2.0000      -0.290915        -7.9162
  67   0.0000       0.025295         0.6883
  68   0.0000       0.065301         1.7769
  69   0.0000       0.101364         2.7582
  70   0.0000       0.116210         3.1622
  71   0.0000       0.124072         3.3762

MULLIKEN ATOMIC CHARGES
-----------------------
   0 S :    0.089046
   1 C :   -0.133635
   2 C :   -0.038300
   3 C :    0.036265
   4 C :   -0.139477
   5 H :   -0.004893
   6 C :    0.006295
   7 H :    0.043121
   8 H :    0.025531
   9 C :   -0.084966
  10 H :    0.034357
  11 H :    0.022985
  12 C :   -0.038903
  13 H :    0.038864
  14 H :    0.024903
  15 H :    0.037131
  16 S :    0.118567
  17 C :   -0.062261
  18 C :   -0.040036
  19 C :   -0.011567
  20 C :   -0.161433
  21 H :    0.007025
  22 C :    0.034375
  23 H :    0.032378
  24 H :    0.042621
  25 C :   -0.114270
  26 H :    0.032216
  27 H :    0.035147
  28 C :    0.021701
  29 H :    0.008460
  30 H :    0.029539
  31 H :    0.012962
  32 H :    0.065648
  33 H :    0.030606
Sum of atomic charges:    0.0000000

LOEWDIN ATOMIC CHARGES
----------------------
   0 S :    0.338121
   1 C :   -0.165842
   2 C :   -0.072049
   3 C :   -0.057413
   4 C :   -0.166931
   5 H :    0.025708
   6 C :   -0.041912
   7 H :    0.040440
   8 H :    0.030509
   9 C :   -0.038700
  10 H :    0.024986
  11 H :    0.020040
  12 C :   -0.062291
  13 H :    0.025479
  14 H :    0.020046
  15 H :    0.028729
  16 S :    0.443305
  17 C :   -0.188898
  18 C :   -0.062616
  19 C :   -0.058016
  20 C :   -0.206542
  21 H :    0.025076
  22 C :   -0.037371
  23 H :    0.031166
  24 H :    0.037704
  25 C :   -0.038551
  26 H :    0.021630
  27 H :    0.026881
  28 C :   -0.055455
  29 H :    0.018278
  30 H :    0.025226
  31 H :    0.022164
  32 H :    0.035511
  33 H :    0.011586

  Mayer bond orders larger than 0.100000
B(  0-S ,  1-C ) :   1.1120 B(  0-S ,  4-C ) :   1.1174 B(  1-C ,  2-C ) :   1.6588
B(  1-C , 32-H ) :   0.9540 B(  2-C ,  3-C ) :   1.2023 B(  2-C ,  6-C ) :   1.0144
B(  3-C ,  4-C ) :   1.5995 B(  3-C ,  5-H ) :   0.9895 B(  4-C , 20-C ) :   1.0296
B(  6-C ,  7-H ) :   0.9462 B(  6-C ,  8-H ) :   0.9498 B(  6-C ,  9-C ) :   1.0619
B(  9-C , 10-H ) :   0.9588 B(  9-C , 11-H ) :   0.9586 B(  9-C , 12-C ) :   1.0744
B( 12-C , 13-H ) :   0.9754 B( 12-C , 14-H ) :   0.9767 B( 12-C , 15-H ) :   0.9744
B( 16-S , 17-C ) :   1.1762 B( 16-S , 20-C ) :   1.1730 B( 17-C , 18-C ) :   1.5838
B( 17-C , 33-H ) :   0.9768 B( 18-C , 19-C ) :   1.2398 B( 18-C , 21-H ) :   1.0016
B( 19-C , 20-C ) :   1.5751 B( 19-C , 22-C ) :   1.0331 B( 22-C , 23-H ) :   0.9348
B( 22-C , 24-H ) :   0.9397 B( 22-C , 25-C ) :   1.0611 B( 25-C , 26-H ) :   0.9595
B( 25-C , 27-H ) :   0.9505 B( 25-C , 28-C ) :   1.0725 B( 28-C , 29-H ) :   0.9691
B( 28-C , 30-H ) :   0.9763 B( 28-C , 31-H ) :   0.9707

Dispersion correction           -0.014290603
FINAL SINGLE POINT ENERGY     -1339.870301474562

DIPOLE MOMENT
-------------
                                X             Y             Z
Electronic contribution:    -19.99623     -18.93103       2.36624
Nuclear contribution   :     20.53019      19.39233      -2.27158
                        -----------------------------------------
Total Dipole Moment    :      0.53396       0.46130       0.09466
                        -----------------------------------------
Magnitude (a.u.)       :      0.71195
Magnitude (Debye)      :      1.80963

Rotational constants in cm-1:     0.016609     0.009064     0.006947
Rotational constants in MHz :   497.910712   271.737621   208.275177

                             ****ORCA TERMINATED NORMALLY****
TOTAL RUN TIME: 0 days 0 hours 0 minutes 33 seconds 844 msec
