                         Program Version 4.2.1 -  RELEASE  -
|  1> ! wB97X-D3 SP def2-SVP
|  2> %pal
|  3> nprocs 16
|  4> end
|  5>
|  6> * xyz 0 1
|  7> S 	 -0.0784146 	 25.6024 	 36.756
|  8> C 	 -0.29596 	 24.6304 	 35.2677
|  9> C 	 -0.931303 	 25.3843 	 34.2422
| 10> C 	 -1.27237 	 26.6944 	 34.7472
| 11> C 	 -1.03274 	 26.9038 	 36.0958
| 12> H 	 -1.71526 	 27.5376 	 34.1287
| 13> C 	 -1.1154 	 25.0447 	 32.8387
| 14> H 	 -2.08543 	 25.5955 	 32.6056
| 15> H 	 -1.3824 	 23.9939 	 32.8447
| 16> C 	 0.0779533 	 25.3752 	 31.9793
| 17> H 	 0.398567 	 26.3846 	 32.0338
| 18> H 	 0.993302 	 24.8415 	 32.3378
| 19> C 	 -0.211611 	 24.9985 	 30.4953
| 20> H 	 -0.928881 	 25.6482 	 30.0231
| 21> H 	 0.792941 	 24.9348 	 29.969
| 22> H 	 -0.647759 	 24.0218 	 30.3874
| 23> S 	 -2.73791 	 27.7219 	 38.0733
| 24> C 	 -2.61712 	 29.4427 	 38.703
| 25> C 	 -1.79041 	 30.2417 	 37.879
| 26> C 	 -1.08827 	 29.3896 	 36.9447
| 27> C 	 -1.46287 	 28.0164 	 36.9098
| 28> H 	 -1.65075 	 31.265 	 38.0789
| 29> C 	 0.0580228 	 29.9503 	 36.1614
| 30> H 	 -0.385527 	 30.8281 	 35.7268
| 31> H 	 0.390543 	 29.2863 	 35.4037
| 32> C 	 1.30409 	 30.3168 	 37.0043
| 33> H 	 1.05518 	 31.0767 	 37.8102
| 34> H 	 2.07864 	 30.8862 	 36.5497
| 35> C 	 1.85925 	 29.0341 	 37.6706
| 36> H 	 1.07588 	 28.5149 	 38.243
| 37> H 	 2.63967 	 29.3153 	 38.3522
| 38> H 	 2.23452 	 28.4116 	 36.8774
| 39> H 	 0.141374 	 23.6721 	 35.1472
| 40> H 	 -3.32751 	 29.9136 	 39.3551
| 41> *
| 42>
| 43>                          ****END OF INPUT****

CARTESIAN COORDINATES (ANGSTROEM)
---------------------------------
  S     -0.078415   25.602400   36.756000
  C     -0.295960   24.630400   35.267700
  C     -0.931303   25.384300   34.242200
  C     -1.272370   26.694400   34.747200
  C     -1.032740   26.903800   36.095800
  H     -1.715260   27.537600   34.128700
  C     -1.115400   25.044700   32.838700
  H     -2.085430   25.595500   32.605600
  H     -1.382400   23.993900   32.844700
  C      0.077953   25.375200   31.979300
  H      0.398567   26.384600   32.033800
  H      0.993302   24.841500   32.337800
  C     -0.211611   24.998500   30.495300
  H     -0.928881   25.648200   30.023100
  H      0.792941   24.934800   29.969000
  H     -0.647759   24.021800   30.387400
  S     -2.737910   27.721900   38.073300
  C     -2.617120   29.442700   38.703000
  C     -1.790410   30.241700   37.879000
  C     -1.088270   29.389600   36.944700
  C     -1.462870   28.016400   36.909800
  H     -1.650750   31.265000   38.078900
  C      0.058023   29.950300   36.161400
  H     -0.385527   30.828100   35.726800
  H      0.390543   29.286300   35.403700
  C      1.304090   30.316800   37.004300
  H      1.055180   31.076700   37.810200
  H      2.078640   30.886200   36.549700
  C      1.859250   29.034100   37.670600
  H      1.075880   28.514900   38.243000
  H      2.639670   29.315300   38.352200
  H      2.234520   28.411600   36.877400
  H      0.141374   23.672100   35.147200
  H     -3.327510   29.913600   39.355100

 Total Charge           Charge          ....    0
 Multiplicity           Mult            ....    1
 Number of Electrons    NEL             ....  134
 Basis Dimension        Dim             ....  322

ORBITAL ENERGIES
----------------

  NO   OCC          E(Eh)            E(eV)
   0   2.0000     -88.967341     -2420.9244
   1   2.0000     -88.966469     -2420.9007
   2   2.0000     -10.328758      -281.0598
   3   2.0000     -10.328280      -281.0468
   4   2.0000     -10.326388      -280.9953
   5   2.0000     -10.318963      -280.7933
   6   2.0000     -10.307779      -280.4889
   7   2.0000     -10.304357      -280.3958
   8   2.0000     -10.300473      -280.2901
   9   2.0000     -10.299514      -280.2640
  10   2.0000     -10.293348      -280.0962
  11   2.0000     -10.290990      -280.0321
  12   2.0000     -10.284342      -279.8512
  13   2.0000     -10.282646      -279.8050
  14   2.0000     -10.281885      -279.7843
  15   2.0000     -10.267395      -279.3900
  16   2.0000      -8.081257      -219.9022
  17   2.0000      -8.079762      -219.8615
  18   2.0000      -6.039773      -164.3506
  19   2.0000      -6.038378      -164.3126
  20   2.0000      -6.035917      -164.2456
  21   2.0000      -6.034454      -164.2058
  22   2.0000      -6.032019      -164.1396
  23   2.0000      -6.030482      -164.0978
  24   2.0000      -0.998816       -27.1792
  25   2.0000      -0.973396       -26.4875
  26   2.0000      -0.919865       -25.0308
  27   2.0000      -0.904174       -24.6038
  28   2.0000      -0.867417       -23.6036
  29   2.0000      -0.847069       -23.0499
  30   2.0000      -0.839647       -22.8480
  31   2.0000      -0.812154       -22.0998
  32   2.0000      -0.780038       -21.2259
  33   2.0000      -0.763977       -20.7889
  34   2.0000      -0.712081       -19.3767
  35   2.0000      -0.704966       -19.1831
  36   2.0000      -0.693291       -18.8654
  37   2.0000      -0.661899       -18.0112
  38   2.0000      -0.641456       -17.4549
  39   2.0000      -0.617495       -16.8029
  40   2.0000      -0.588279       -16.0079
  41   2.0000      -0.567550       -15.4438
  42   2.0000      -0.559828       -15.2337
  43   2.0000      -0.556638       -15.1469
  44   2.0000      -0.541045       -14.7226
  45   2.0000      -0.534045       -14.5321
  46   2.0000      -0.517778       -14.0895
  47   2.0000      -0.509323       -13.8594
  48   2.0000      -0.503648       -13.7050
  49   2.0000      -0.496475       -13.5098
  50   2.0000      -0.488362       -13.2890
  51   2.0000      -0.466250       -12.6873
  52   2.0000      -0.465794       -12.6749
  53   2.0000      -0.460335       -12.5264
  54   2.0000      -0.455458       -12.3936
  55   2.0000      -0.450378       -12.2554
  56   2.0000      -0.448512       -12.2046
  57   2.0000      -0.440213       -11.9788
  58   2.0000      -0.429462       -11.6863
  59   2.0000      -0.422856       -11.5065
  60   2.0000      -0.417565       -11.3625
  61   2.0000      -0.416535       -11.3345
  62   2.0000      -0.408261       -11.1093
  63   2.0000      -0.338786        -9.2188
  64   2.0000      -0.325996        -8.8708
  65   2.0000      -0.322250        -8.7689
  66   2.0000      -0.297303        -8.0900
  67   0.0000       0.031167         0.8481
  68   0.0000       0.051876         1.4116
  69   0.0000       0.106158         2.8887
  70   0.0000       0.107508         2.9255
  71   0.0000       0.123988         3.3739

MULLIKEN ATOMIC CHARGES
-----------------------
   0 S :    0.116782
   1 C :   -0.115959
   2 C :   -0.109797
   3 C :    0.029030
   4 C :   -0.184426
   5 H :    0.037427
   6 C :    0.058422
   7 H :    0.037328
   8 H :    0.025154
   9 C :   -0.047659
  10 H :    0.021171
  11 H :    0.029334
  12 C :   -0.039425
  13 H :    0.033644
  14 H :    0.044021
  15 H :    0.019860
  16 S :    0.103434
  17 C :   -0.090847
  18 C :   -0.020753
  19 C :   -0.062789
  20 C :   -0.157228
  21 H :    0.019113
  22 C :    0.112800
  23 H :    0.020956
  24 H :    0.014424
  25 C :   -0.089483
  26 H :    0.015929
  27 H :    0.020344
  28 C :   -0.043599
  29 H :    0.048401
  30 H :    0.028054
  31 H :    0.030231
  32 H :    0.037773
  33 H :    0.058333
Sum of atomic charges:    0.0000000

LOEWDIN ATOMIC CHARGES
----------------------
   0 S :    0.401453
   1 C :   -0.184515
   2 C :   -0.060276
   3 C :   -0.065328
   4 C :   -0.209919
   5 H :    0.042045
   6 C :   -0.043366
   7 H :    0.042254
   8 H :    0.033847
   9 C :   -0.034920
  10 H :    0.021614
  11 H :    0.031606
  12 C :   -0.066349
  13 H :    0.023067
  14 H :    0.035211
  15 H :    0.020347
  16 S :    0.382896
  17 C :   -0.158234
  18 C :   -0.055884
  19 C :   -0.048676
  20 C :   -0.210946
  21 H :    0.028214
  22 C :   -0.029862
  23 H :    0.029918
  24 H :    0.023372
  25 C :   -0.042750
  26 H :    0.022045
  27 H :    0.017732
  28 C :   -0.060139
  29 H :    0.028204
  30 H :    0.022383
  31 H :    0.021755
  32 H :    0.018282
  33 H :    0.024917

  Mayer bond orders larger than 0.100000
B(  0-S ,  1-C ) :   1.1378 B(  0-S ,  4-C ) :   1.1545 B(  1-C ,  2-C ) :   1.5799
B(  1-C ,  4-C ) :   0.1027 B(  1-C , 32-H ) :   0.9769 B(  2-C ,  3-C ) :   1.2481
B(  2-C ,  6-C ) :   1.0329 B(  3-C ,  4-C ) :   1.5823 B(  3-C ,  5-H ) :   0.9792
B(  4-C , 20-C ) :   1.0382 B(  6-C ,  7-H ) :   0.9359 B(  6-C ,  8-H ) :   0.9277
B(  6-C ,  9-C ) :   1.0627 B(  9-C , 10-H ) :   0.9551 B(  9-C , 11-H ) :   0.9532
B(  9-C , 12-C ) :   1.0741 B( 12-C , 13-H ) :   0.9767 B( 12-C , 14-H ) :   0.9754
B( 12-C , 15-H ) :   0.9745 B( 16-S , 17-C ) :   1.1456 B( 16-S , 20-C ) :   1.1353
B( 17-C , 18-C ) :   1.6157 B( 17-C , 20-C ) :   0.1029 B( 17-C , 33-H ) :   0.9636
B( 18-C , 19-C ) :   1.2301 B( 18-C , 21-H ) :   0.9924 B( 19-C , 20-C ) :   1.5775
B( 19-C , 22-C ) :   1.0532 B( 22-C , 23-H ) :   0.9255 B( 22-C , 24-H ) :   0.9370
B( 22-C , 25-C ) :   1.0662 B( 25-C , 26-H ) :   0.9539 B( 25-C , 27-H ) :   0.9588
B( 25-C , 28-C ) :   1.0671 B( 28-C , 29-H ) :   0.9760 B( 28-C , 30-H ) :   0.9728
B( 28-C , 31-H ) :   0.9768

Dispersion correction           -0.015176473
FINAL SINGLE POINT ENERGY     -1339.863753027901

DIPOLE MOMENT
-------------
                                X             Y             Z
Electronic contribution:    -12.55568      -3.98616      19.15731
Nuclear contribution   :     12.74477       4.29917     -19.73722
                        -----------------------------------------
Total Dipole Moment    :      0.18909       0.31301      -0.57991
                        -----------------------------------------
Magnitude (a.u.)       :      0.68559
Magnitude (Debye)      :      1.74262

Rotational constants in cm-1:     0.021757     0.007700     0.007035
Rotational constants in MHz :   652.263689   230.836727   210.918475

                             ****ORCA TERMINATED NORMALLY****
TOTAL RUN TIME: 0 days 0 hours 0 minutes 35 seconds 97 msec
