                         Program Version 4.2.1 -  RELEASE  -
|  1> ! wB97X-D3 SP def2-SVP
|  2> %pal
|  3> nprocs 16
|  4> end
|  5>
|  6> * xyz 0 1
|  7> S 	 41.0322 	 15.3302 	 80.8162
|  8> C 	 39.6275 	 16.0569 	 81.4068
|  9> C 	 39.2801 	 17.2192 	 80.7208
| 10> C 	 40.3313 	 17.5234 	 79.7967
| 11> C 	 41.1889 	 16.4812 	 79.565
| 12> H 	 40.366 	 18.4823 	 79.306
| 13> C 	 38.1642 	 18.111 	 80.9976
| 14> H 	 38.6077 	 19.1849 	 81.1106
| 15> H 	 37.7025 	 17.9743 	 81.977
| 16> C 	 36.9892 	 18.1962 	 79.9615
| 17> H 	 37.3161 	 18.2315 	 78.9363
| 18> H 	 36.4879 	 17.2717 	 80.1027
| 19> C 	 36.0003 	 19.3593 	 80.2555
| 20> H 	 36.6423 	 20.0995 	 80.7456
| 21> H 	 35.5436 	 19.7986 	 79.4034
| 22> H 	 35.261 	 18.9773 	 80.8506
| 23> S 	 43.8681 	 15.6824 	 79.0035
| 24> C 	 44.5493 	 16.1395 	 77.4424
| 25> C 	 43.5782 	 16.7152 	 76.5973
| 26> C 	 42.3403 	 16.8115 	 77.2634
| 27> C 	 42.3162 	 16.4349 	 78.6105
| 28> H 	 43.7165 	 17.0284 	 75.6004
| 29> C 	 41.1651 	 17.4558 	 76.553
| 30> H 	 41.426 	 17.4643 	 75.4773
| 31> H 	 41.0973 	 18.4888 	 76.9454
| 32> C 	 39.7588 	 16.8651 	 76.8088
| 33> H 	 38.9663 	 17.6054 	 76.5494
| 34> H 	 39.5266 	 16.633 	 77.783
| 35> C 	 39.262 	 15.6563 	 75.9726
| 36> H 	 38.2454 	 15.2648 	 76.0574
| 37> H 	 40.0557 	 14.8937 	 76.0622
| 38> H 	 39.3773 	 16.0049 	 74.959
| 39> H 	 38.9719 	 15.6857 	 82.1593
| 40> H 	 45.5478 	 15.9468 	 77.1103
| 41> *
| 42>
| 43>                          ****END OF INPUT****

CARTESIAN COORDINATES (ANGSTROEM)
---------------------------------
  S     41.032200   15.330200   80.816200
  C     39.627500   16.056900   81.406800
  C     39.280100   17.219200   80.720800
  C     40.331300   17.523400   79.796700
  C     41.188900   16.481200   79.565000
  H     40.366000   18.482300   79.306000
  C     38.164200   18.111000   80.997600
  H     38.607700   19.184900   81.110600
  H     37.702500   17.974300   81.977000
  C     36.989200   18.196200   79.961500
  H     37.316100   18.231500   78.936300
  H     36.487900   17.271700   80.102700
  C     36.000300   19.359300   80.255500
  H     36.642300   20.099500   80.745600
  H     35.543600   19.798600   79.403400
  H     35.261000   18.977300   80.850600
  S     43.868100   15.682400   79.003500
  C     44.549300   16.139500   77.442400
  C     43.578200   16.715200   76.597300
  C     42.340300   16.811500   77.263400
  C     42.316200   16.434900   78.610500
  H     43.716500   17.028400   75.600400
  C     41.165100   17.455800   76.553000
  H     41.426000   17.464300   75.477300
  H     41.097300   18.488800   76.945400
  C     39.758800   16.865100   76.808800
  H     38.966300   17.605400   76.549400
  H     39.526600   16.633000   77.783000
  C     39.262000   15.656300   75.972600
  H     38.245400   15.264800   76.057400
  H     40.055700   14.893700   76.062200
  H     39.377300   16.004900   74.959000
  H     38.971900   15.685700   82.159300
  H     45.547800   15.946800   77.110300

 Total Charge           Charge          ....    0
 Multiplicity           Mult            ....    1
 Number of Electrons    NEL             ....  134
 Basis Dimension        Dim             ....  322

ORBITAL ENERGIES
----------------

  NO   OCC          E(Eh)            E(eV)
   0   2.0000     -88.970751     -2421.0172
   1   2.0000     -88.967829     -2420.9377
   2   2.0000     -10.329955      -281.0924
   3   2.0000     -10.327431      -281.0237
   4   2.0000     -10.323910      -280.9279
   5   2.0000     -10.309149      -280.5262
   6   2.0000     -10.301025      -280.3052
   7   2.0000     -10.299585      -280.2660
   8   2.0000     -10.298111      -280.2259
   9   2.0000     -10.297760      -280.2163
  10   2.0000     -10.295041      -280.1423
  11   2.0000     -10.291062      -280.0340
  12   2.0000     -10.284642      -279.8593
  13   2.0000     -10.273787      -279.5640
  14   2.0000     -10.271769      -279.5090
  15   2.0000     -10.269877      -279.4576
  16   2.0000      -8.084557      -219.9920
  17   2.0000      -8.084394      -219.9875
  18   2.0000      -6.043176      -164.4432
  19   2.0000      -6.042721      -164.4308
  20   2.0000      -6.039099      -164.3322
  21   2.0000      -6.038665      -164.3204
  22   2.0000      -6.035375      -164.2309
  23   2.0000      -6.035241      -164.2273
  24   2.0000      -1.015781       -27.6408
  25   2.0000      -0.987662       -26.8757
  26   2.0000      -0.914530       -24.8856
  27   2.0000      -0.903353       -24.5815
  28   2.0000      -0.870379       -23.6842
  29   2.0000      -0.855866       -23.2893
  30   2.0000      -0.849225       -23.1086
  31   2.0000      -0.816822       -22.2269
  32   2.0000      -0.783020       -21.3071
  33   2.0000      -0.770535       -20.9673
  34   2.0000      -0.709438       -19.3048
  35   2.0000      -0.706574       -19.2269
  36   2.0000      -0.686836       -18.6898
  37   2.0000      -0.668291       -18.1851
  38   2.0000      -0.643792       -17.5185
  39   2.0000      -0.627526       -17.0759
  40   2.0000      -0.592346       -16.1186
  41   2.0000      -0.575506       -15.6603
  42   2.0000      -0.567370       -15.4389
  43   2.0000      -0.550924       -14.9914
  44   2.0000      -0.539681       -14.6855
  45   2.0000      -0.530860       -14.4454
  46   2.0000      -0.519344       -14.1321
  47   2.0000      -0.509290       -13.8585
  48   2.0000      -0.504763       -13.7353
  49   2.0000      -0.500133       -13.6093
  50   2.0000      -0.497480       -13.5371
  51   2.0000      -0.479410       -13.0454
  52   2.0000      -0.474100       -12.9009
  53   2.0000      -0.466546       -12.6954
  54   2.0000      -0.460826       -12.5397
  55   2.0000      -0.456371       -12.4185
  56   2.0000      -0.446269       -12.1436
  57   2.0000      -0.438123       -11.9219
  58   2.0000      -0.431445       -11.7402
  59   2.0000      -0.430056       -11.7024
  60   2.0000      -0.418895       -11.3987
  61   2.0000      -0.412995       -11.2382
  62   2.0000      -0.399365       -10.8673
  63   2.0000      -0.351506        -9.5650
  64   2.0000      -0.333878        -9.0853
  65   2.0000      -0.325854        -8.8669
  66   2.0000      -0.284586        -7.7440
  67   0.0000       0.022886         0.6228
  68   0.0000       0.074318         2.0223
  69   0.0000       0.102620         2.7924
  70   0.0000       0.112851         3.0708
  71   0.0000       0.126352         3.4382

MULLIKEN ATOMIC CHARGES
-----------------------
   0 S :    0.126058
   1 C :   -0.086563
   2 C :   -0.077252
   3 C :    0.005814
   4 C :   -0.144673
   5 H :    0.010201
   6 C :   -0.009709
   7 H :    0.038067
   8 H :    0.018723
   9 C :   -0.068212
  10 H :    0.028773
  11 H :    0.018843
  12 C :   -0.001659
  13 H :    0.026340
  14 H :    0.028872
  15 H :    0.020333
  16 S :    0.107969
  17 C :   -0.081328
  18 C :   -0.010987
  19 C :   -0.057768
  20 C :   -0.120107
  21 H :    0.005675
  22 C :    0.057458
  23 H :    0.023458
  24 H :    0.050254
  25 C :   -0.089503
  26 H :    0.017052
  27 H :    0.045718
  28 C :   -0.045190
  29 H :    0.047612
  30 H :    0.026802
  31 H :    0.005554
  32 H :    0.030533
  33 H :    0.052841
Sum of atomic charges:    0.0000000

LOEWDIN ATOMIC CHARGES
----------------------
   0 S :    0.449892
   1 C :   -0.208571
   2 C :   -0.070536
   3 C :   -0.052048
   4 C :   -0.207461
   5 H :    0.028025
   6 C :   -0.042671
   7 H :    0.038945
   8 H :    0.028681
   9 C :   -0.033624
  10 H :    0.019215
  11 H :    0.018419
  12 C :   -0.052020
  13 H :    0.027409
  14 H :    0.024726
  15 H :    0.015556
  16 S :    0.397648
  17 C :   -0.172442
  18 C :   -0.064854
  19 C :   -0.060506
  20 C :   -0.198177
  21 H :    0.026676
  22 C :   -0.028677
  23 H :    0.032261
  24 H :    0.041607
  25 C :   -0.044814
  26 H :    0.024576
  27 H :    0.011862
  28 C :   -0.068193
  29 H :    0.029198
  30 H :    0.024369
  31 H :    0.016149
  32 H :    0.023486
  33 H :    0.025894

  Mayer bond orders larger than 0.100000
B(  0-S ,  1-C ) :   1.1640 B(  0-S ,  4-C ) :   1.1611 B(  1-C ,  2-C ) :   1.5799
B(  1-C , 32-H ) :   0.9681 B(  2-C ,  3-C ) :   1.2638 B(  2-C ,  6-C ) :   1.0514
B(  3-C ,  4-C ) :   1.5414 B(  3-C ,  5-H ) :   0.9942 B(  4-C , 20-C ) :   1.0529
B(  6-C ,  7-H ) :   0.9335 B(  6-C ,  8-H ) :   0.9412 B(  6-C ,  9-C ) :   1.0488
B(  9-C , 10-H ) :   0.9626 B(  9-C , 11-H ) :   0.9584 B(  9-C , 12-C ) :   1.0665
B( 12-C , 13-H ) :   0.9781 B( 12-C , 14-H ) :   0.9761 B( 12-C , 15-H ) :   0.9784
B( 16-S , 17-C ) :   1.1723 B( 16-S , 20-C ) :   1.1244 B( 17-C , 18-C ) :   1.5595
B( 17-C , 20-C ) :   0.1053 B( 17-C , 33-H ) :   0.9698 B( 18-C , 19-C ) :   1.2868
B( 18-C , 21-H ) :   0.9951 B( 19-C , 20-C ) :   1.5650 B( 19-C , 22-C ) :   1.0355
B( 22-C , 23-H ) :   0.9422 B( 22-C , 24-H ) :   0.9314 B( 22-C , 25-C ) :   1.0558
B( 25-C , 26-H ) :   0.9528 B( 25-C , 27-H ) :   0.9570 B( 25-C , 28-C ) :   1.0675
B( 28-C , 29-H ) :   0.9766 B( 28-C , 30-H ) :   0.9776 B( 28-C , 31-H ) :   0.9746

Dispersion correction           -0.015205432
FINAL SINGLE POINT ENERGY     -1339.855090166308

DIPOLE MOMENT
-------------
                                X             Y             Z
Electronic contribution:     27.10417     -13.12684       9.91741
Nuclear contribution   :    -27.55404      13.56046     -10.16225
                        -----------------------------------------
Total Dipole Moment    :     -0.44987       0.43362      -0.24484
                        -----------------------------------------
Magnitude (a.u.)       :      0.67108
Magnitude (Debye)      :      1.70576

Rotational constants in cm-1:     0.021428     0.008926     0.007107
Rotational constants in MHz :   642.380559   267.601788   213.049118

                             ****ORCA TERMINATED NORMALLY****
TOTAL RUN TIME: 0 days 0 hours 0 minutes 32 seconds 896 msec
