                         Program Version 4.2.1 -  RELEASE  -
|  1> ! wB97X-D3 SP def2-SVP
|  2> %pal
|  3> nprocs 16
|  4> end
|  5>
|  6> * xyz 0 1
|  7> S 	 -5.43393 	 61.2435 	 56.9895
|  8> C 	 -5.15461 	 60.3621 	 58.5125
|  9> C 	 -6.34876 	 60.0029 	 59.0362
| 10> C 	 -7.48087 	 60.1332 	 58.1623
| 11> C 	 -7.121 	 60.6608 	 56.9328
| 12> H 	 -8.48811 	 59.7906 	 58.3988
| 13> C 	 -6.3985 	 59.2019 	 60.2992
| 14> H 	 -5.61518 	 59.4513 	 60.9602
| 15> H 	 -6.18345 	 58.1945 	 60.001
| 16> C 	 -7.8004 	 59.0992 	 60.9863
| 17> H 	 -8.02237 	 60.1146 	 61.3173
| 18> H 	 -8.69197 	 58.7942 	 60.4587
| 19> C 	 -7.82151 	 58.3621 	 62.3591
| 20> H 	 -8.76016 	 58.423 	 62.8849
| 21> H 	 -7.54325 	 57.3539 	 62.1595
| 22> H 	 -7.02319 	 58.8003 	 63.0565
| 23> S 	 -8.75085 	 59.3898 	 55.0683
| 24> C 	 -9.54754 	 60.3976 	 53.8772
| 25> C 	 -9.16113 	 61.6862 	 53.9814
| 26> C 	 -8.17765 	 61.9342 	 54.973
| 27> C 	 -7.96302 	 60.7985 	 55.758
| 28> H 	 -9.63309 	 62.4776 	 53.4522
| 29> C 	 -7.66467 	 63.3554 	 55.1973
| 30> H 	 -7.82845 	 63.9268 	 54.3174
| 31> H 	 -6.56941 	 63.2078 	 55.2468
| 32> C 	 -8.1809 	 64.1507 	 56.4254
| 33> H 	 -8.22761 	 63.5027 	 57.2675
| 34> H 	 -9.23043 	 64.3408 	 56.2586
| 35> C 	 -7.40938 	 65.4525 	 56.8035
| 36> H 	 -8.0253 	 66.146 	 57.4143
| 37> H 	 -7.16219 	 66.0622 	 55.8915
| 38> H 	 -6.49521 	 65.1578 	 57.319
| 39> H 	 -4.22111 	 60.2015 	 59.0587
| 40> H 	 -10.1777 	 59.978 	 53.1508
| 41> *
| 42>
| 43>                          ****END OF INPUT****

CARTESIAN COORDINATES (ANGSTROEM)
---------------------------------
  S     -5.433930   61.243500   56.989500
  C     -5.154610   60.362100   58.512500
  C     -6.348760   60.002900   59.036200
  C     -7.480870   60.133200   58.162300
  C     -7.121000   60.660800   56.932800
  H     -8.488110   59.790600   58.398800
  C     -6.398500   59.201900   60.299200
  H     -5.615180   59.451300   60.960200
  H     -6.183450   58.194500   60.001000
  C     -7.800400   59.099200   60.986300
  H     -8.022370   60.114600   61.317300
  H     -8.691970   58.794200   60.458700
  C     -7.821510   58.362100   62.359100
  H     -8.760160   58.423000   62.884900
  H     -7.543250   57.353900   62.159500
  H     -7.023190   58.800300   63.056500
  S     -8.750850   59.389800   55.068300
  C     -9.547540   60.397600   53.877200
  C     -9.161130   61.686200   53.981400
  C     -8.177650   61.934200   54.973000
  C     -7.963020   60.798500   55.758000
  H     -9.633090   62.477600   53.452200
  C     -7.664670   63.355400   55.197300
  H     -7.828450   63.926800   54.317400
  H     -6.569410   63.207800   55.246800
  C     -8.180900   64.150700   56.425400
  H     -8.227610   63.502700   57.267500
  H     -9.230430   64.340800   56.258600
  C     -7.409380   65.452500   56.803500
  H     -8.025300   66.146000   57.414300
  H     -7.162190   66.062200   55.891500
  H     -6.495210   65.157800   57.319000
  H     -4.221110   60.201500   59.058700
  H    -10.177700   59.978000   53.150800

 Total Charge           Charge          ....    0
 Multiplicity           Mult            ....    1
 Number of Electrons    NEL             ....  134
 Basis Dimension        Dim             ....  322

ORBITAL ENERGIES
----------------

  NO   OCC          E(Eh)            E(eV)
   0   2.0000     -88.967113     -2420.9182
   1   2.0000     -88.964840     -2420.8564
   2   2.0000     -10.333449      -281.1874
   3   2.0000     -10.326915      -281.0096
   4   2.0000     -10.311678      -280.5950
   5   2.0000     -10.310964      -280.5756
   6   2.0000     -10.301390      -280.3151
   7   2.0000     -10.296869      -280.1920
   8   2.0000     -10.296597      -280.1846
   9   2.0000     -10.290327      -280.0140
  10   2.0000     -10.289563      -279.9932
  11   2.0000     -10.288345      -279.9601
  12   2.0000     -10.286761      -279.9170
  13   2.0000     -10.283296      -279.8227
  14   2.0000     -10.281253      -279.7671
  15   2.0000     -10.280711      -279.7524
  16   2.0000      -8.081730      -219.9151
  17   2.0000      -8.078284      -219.8213
  18   2.0000      -6.040236      -164.3632
  19   2.0000      -6.037063      -164.2768
  20   2.0000      -6.036245      -164.2546
  21   2.0000      -6.033129      -164.1698
  22   2.0000      -6.032521      -164.1532
  23   2.0000      -6.028684      -164.0488
  24   2.0000      -1.005572       -27.3630
  25   2.0000      -0.984454       -26.7884
  26   2.0000      -0.909794       -24.7568
  27   2.0000      -0.901269       -24.5248
  28   2.0000      -0.871761       -23.7218
  29   2.0000      -0.849242       -23.1090
  30   2.0000      -0.842333       -22.9210
  31   2.0000      -0.818204       -22.2645
  32   2.0000      -0.781899       -21.2766
  33   2.0000      -0.769522       -20.9398
  34   2.0000      -0.715902       -19.4807
  35   2.0000      -0.700335       -19.0571
  36   2.0000      -0.688680       -18.7399
  37   2.0000      -0.668987       -18.2041
  38   2.0000      -0.632944       -17.2233
  39   2.0000      -0.619271       -16.8512
  40   2.0000      -0.598634       -16.2897
  41   2.0000      -0.569050       -15.4846
  42   2.0000      -0.565436       -15.3863
  43   2.0000      -0.560217       -15.2443
  44   2.0000      -0.527160       -14.3448
  45   2.0000      -0.518582       -14.1113
  46   2.0000      -0.517179       -14.0731
  47   2.0000      -0.511453       -13.9173
  48   2.0000      -0.510734       -13.8978
  49   2.0000      -0.498264       -13.5584
  50   2.0000      -0.486405       -13.2358
  51   2.0000      -0.480558       -13.0766
  52   2.0000      -0.479557       -13.0494
  53   2.0000      -0.463646       -12.6164
  54   2.0000      -0.456775       -12.4295
  55   2.0000      -0.450823       -12.2675
  56   2.0000      -0.446124       -12.1396
  57   2.0000      -0.437721       -11.9110
  58   2.0000      -0.434065       -11.8115
  59   2.0000      -0.423878       -11.5343
  60   2.0000      -0.418907       -11.3990
  61   2.0000      -0.410406       -11.1677
  62   2.0000      -0.409625       -11.1465
  63   2.0000      -0.347130        -9.4459
  64   2.0000      -0.333240        -9.0679
  65   2.0000      -0.327379        -8.9084
  66   2.0000      -0.289984        -7.8909
  67   0.0000       0.027436         0.7466
  68   0.0000       0.066597         1.8122
  69   0.0000       0.102608         2.7921
  70   0.0000       0.116718         3.1761
  71   0.0000       0.131678         3.5832

MULLIKEN ATOMIC CHARGES
-----------------------
   0 S :    0.094770
   1 C :   -0.129045
   2 C :   -0.057786
   3 C :    0.015353
   4 C :   -0.136366
   5 H :    0.020488
   6 C :    0.086325
   7 H :    0.011380
   8 H :    0.034701
   9 C :   -0.119583
  10 H :    0.024666
  11 H :    0.041138
  12 C :   -0.054149
  13 H :    0.040394
  14 H :    0.023766
  15 H :    0.032737
  16 S :    0.112701
  17 C :   -0.075915
  18 C :   -0.008668
  19 C :   -0.056443
  20 C :   -0.166562
  21 H :    0.008026
  22 C :    0.078958
  23 H :    0.008029
  24 H :    0.026220
  25 C :   -0.037732
  26 H :    0.023504
  27 H :    0.014519
  28 C :   -0.067454
  29 H :    0.040379
  30 H :    0.034385
  31 H :    0.046965
  32 H :    0.049664
  33 H :    0.040636
Sum of atomic charges:    0.0000000

LOEWDIN ATOMIC CHARGES
----------------------
   0 S :    0.373333
   1 C :   -0.189586
   2 C :   -0.063898
   3 C :   -0.062724
   4 C :   -0.170626
   5 H :    0.033990
   6 C :   -0.025016
   7 H :    0.025455
   8 H :    0.033886
   9 C :   -0.047067
  10 H :    0.023108
  11 H :    0.023661
  12 C :   -0.063416
  13 H :    0.025443
  14 H :    0.015308
  15 H :    0.030582
  16 S :    0.407995
  17 C :   -0.174740
  18 C :   -0.066002
  19 C :   -0.054317
  20 C :   -0.198905
  21 H :    0.028211
  22 C :   -0.031787
  23 H :    0.023479
  24 H :    0.027459
  25 C :   -0.039143
  26 H :    0.021184
  27 H :    0.020605
  28 C :   -0.067897
  29 H :    0.030572
  30 H :    0.028086
  31 H :    0.028207
  32 H :    0.035157
  33 H :    0.019401

  Mayer bond orders larger than 0.100000
B(  0-S ,  1-C ) :   1.1014 B(  0-S ,  4-C ) :   1.1281 B(  1-C ,  2-C ) :   1.6505
B(  1-C , 32-H ) :   0.9707 B(  2-C ,  3-C ) :   1.2004 B(  2-C ,  6-C ) :   1.0331
B(  3-C ,  4-C ) :   1.5785 B(  3-C ,  5-H ) :   0.9966 B(  4-C , 20-C ) :   1.0673
B(  6-C ,  7-H ) :   0.9393 B(  6-C ,  8-H ) :   0.9363 B(  6-C ,  9-C ) :   1.0501
B(  9-C , 10-H ) :   0.9622 B(  9-C , 11-H ) :   0.9544 B(  9-C , 12-C ) :   1.0845
B( 12-C , 13-H ) :   0.9749 B( 12-C , 14-H ) :   0.9775 B( 12-C , 15-H ) :   0.9757
B( 16-S , 17-C ) :   1.1463 B( 16-S , 20-C ) :   1.1487 B( 17-C , 18-C ) :   1.5988
B( 17-C , 33-H ) :   0.9754 B( 18-C , 19-C ) :   1.2615 B( 18-C , 21-H ) :   0.9933
B( 19-C , 20-C ) :   1.5629 B( 19-C , 22-C ) :   1.0438 B( 22-C , 23-H ) :   0.9295
B( 22-C , 24-H ) :   0.9269 B( 22-C , 25-C ) :   1.0555 B( 25-C , 26-H ) :   0.9588
B( 25-C , 27-H ) :   0.9536 B( 25-C , 28-C ) :   1.0700 B( 28-C , 29-H ) :   0.9752
B( 28-C , 30-H ) :   0.9774 B( 28-C , 31-H ) :   0.9770

Dispersion correction           -0.014241691
FINAL SINGLE POINT ENERGY     -1339.873050076412

DIPOLE MOMENT
-------------
                                X             Y             Z
Electronic contribution:      3.06095      -8.51990     -19.32443
Nuclear contribution   :     -3.30993       8.59187      19.64306
                        -----------------------------------------
Total Dipole Moment    :     -0.24898       0.07197       0.31863
                        -----------------------------------------
Magnitude (a.u.)       :      0.41073
Magnitude (Debye)      :      1.04399

Rotational constants in cm-1:     0.017797     0.008320     0.006897
Rotational constants in MHz :   533.553152   249.417745   206.756676

                             ****ORCA TERMINATED NORMALLY****
TOTAL RUN TIME: 0 days 0 hours 0 minutes 31 seconds 321 msec
