                         Program Version 4.2.1 -  RELEASE  -
|  1> ! wB97X-D3 SP def2-SVP
|  2> %pal
|  3> nprocs 16
|  4> end
|  5>
|  6> * xyz 0 1
|  7> S 	 48.7859 	 10.4714 	 76.7585
|  8> C 	 48.8211 	 9.71839 	 78.3473
|  9> C 	 49.3285 	 10.6714 	 79.2933
| 10> C 	 49.6455 	 11.9342 	 78.7552
| 11> C 	 49.2726 	 12.0522 	 77.4511
| 12> H 	 50.0114 	 12.7592 	 79.322
| 13> C 	 49.5552 	 10.4228 	 80.7854
| 14> H 	 50.6487 	 10.6259 	 80.9799
| 15> H 	 49.4785 	 9.34706 	 81.0221
| 16> C 	 48.6029 	 11.2463 	 81.7264
| 17> H 	 48.7262 	 12.3196 	 81.5534
| 18> H 	 47.5832 	 10.9774 	 81.5702
| 19> C 	 48.7238 	 10.9041 	 83.2354
| 20> H 	 48.5268 	 9.88113 	 83.5
| 21> H 	 49.7342 	 11.1415 	 83.5134
| 22> H 	 47.9658 	 11.5075 	 83.7989
| 23> S 	 50.2796 	 13.2162 	 75.0109
| 24> C 	 50.0031 	 14.8979 	 74.6847
| 25> C 	 49.4184 	 15.4882 	 75.7796
| 26> C 	 49.0293 	 14.6417 	 76.8763
| 27> C 	 49.3877 	 13.2867 	 76.6132
| 28> H 	 49.2423 	 16.5149 	 75.5853
| 29> C 	 48.4043 	 15.1309 	 78.1744
| 30> H 	 48.3346 	 14.3233 	 78.829
| 31> H 	 47.3269 	 15.2644 	 77.9612
| 32> C 	 49.0794 	 16.3222 	 78.9434
| 33> H 	 48.5892 	 16.4148 	 79.9056
| 34> H 	 48.9282 	 17.1866 	 78.2826
| 35> C 	 50.5667 	 16.1865 	 79.1781
| 36> H 	 51.1607 	 15.9584 	 78.2146
| 37> H 	 50.6062 	 15.215 	 79.6612
| 38> H 	 51.0049 	 17.0821 	 79.6843
| 39> H 	 48.5555 	 8.77839 	 78.5997
| 40> H 	 50.5033 	 15.5431 	 73.9524
| 41> *
| 42>
| 43>                          ****END OF INPUT****

CARTESIAN COORDINATES (ANGSTROEM)
---------------------------------
  S     48.785900   10.471400   76.758500
  C     48.821100    9.718390   78.347300
  C     49.328500   10.671400   79.293300
  C     49.645500   11.934200   78.755200
  C     49.272600   12.052200   77.451100
  H     50.011400   12.759200   79.322000
  C     49.555200   10.422800   80.785400
  H     50.648700   10.625900   80.979900
  H     49.478500    9.347060   81.022100
  C     48.602900   11.246300   81.726400
  H     48.726200   12.319600   81.553400
  H     47.583200   10.977400   81.570200
  C     48.723800   10.904100   83.235400
  H     48.526800    9.881130   83.500000
  H     49.734200   11.141500   83.513400
  H     47.965800   11.507500   83.798900
  S     50.279600   13.216200   75.010900
  C     50.003100   14.897900   74.684700
  C     49.418400   15.488200   75.779600
  C     49.029300   14.641700   76.876300
  C     49.387700   13.286700   76.613200
  H     49.242300   16.514900   75.585300
  C     48.404300   15.130900   78.174400
  H     48.334600   14.323300   78.829000
  H     47.326900   15.264400   77.961200
  C     49.079400   16.322200   78.943400
  H     48.589200   16.414800   79.905600
  H     48.928200   17.186600   78.282600
  C     50.566700   16.186500   79.178100
  H     51.160700   15.958400   78.214600
  H     50.606200   15.215000   79.661200
  H     51.004900   17.082100   79.684300
  H     48.555500    8.778390   78.599700
  H     50.503300   15.543100   73.952400

 Total Charge           Charge          ....    0
 Multiplicity           Mult            ....    1
 Number of Electrons    NEL             ....  134
 Basis Dimension        Dim             ....  322

ORBITAL ENERGIES
----------------

  NO   OCC          E(Eh)            E(eV)
   0   2.0000     -88.970972     -2421.0232
   1   2.0000     -88.965190     -2420.8659
   2   2.0000     -10.340977      -281.3923
   3   2.0000     -10.337423      -281.2956
   4   2.0000     -10.316959      -280.7387
   5   2.0000     -10.315402      -280.6963
   6   2.0000     -10.315234      -280.6918
   7   2.0000     -10.306430      -280.4522
   8   2.0000     -10.301180      -280.3094
   9   2.0000     -10.292626      -280.0766
  10   2.0000     -10.291896      -280.0567
  11   2.0000     -10.291318      -280.0410
  12   2.0000     -10.291143      -280.0362
  13   2.0000     -10.290220      -280.0111
  14   2.0000     -10.285545      -279.8839
  15   2.0000     -10.280634      -279.7503
  16   2.0000      -8.084492      -219.9902
  17   2.0000      -8.078820      -219.8359
  18   2.0000      -6.043105      -164.4412
  19   2.0000      -6.039190      -164.3347
  20   2.0000      -6.037432      -164.2869
  21   2.0000      -6.035183      -164.2257
  22   2.0000      -6.033443      -164.1783
  23   2.0000      -6.029551      -164.0724
  24   2.0000      -0.998118       -27.1602
  25   2.0000      -0.978160       -26.6171
  26   2.0000      -0.909429       -24.7468
  27   2.0000      -0.903958       -24.5980
  28   2.0000      -0.866953       -23.5910
  29   2.0000      -0.853121       -23.2146
  30   2.0000      -0.845364       -23.0035
  31   2.0000      -0.817121       -22.2350
  32   2.0000      -0.783375       -21.3167
  33   2.0000      -0.768905       -20.9230
  34   2.0000      -0.709116       -19.2960
  35   2.0000      -0.700373       -19.0581
  36   2.0000      -0.694346       -18.8941
  37   2.0000      -0.649495       -17.6736
  38   2.0000      -0.644533       -17.5386
  39   2.0000      -0.627119       -17.0648
  40   2.0000      -0.595872       -16.2145
  41   2.0000      -0.567609       -15.4454
  42   2.0000      -0.562380       -15.3031
  43   2.0000      -0.556723       -15.1492
  44   2.0000      -0.544538       -14.8176
  45   2.0000      -0.525465       -14.2986
  46   2.0000      -0.520001       -14.1500
  47   2.0000      -0.513737       -13.9795
  48   2.0000      -0.501446       -13.6450
  49   2.0000      -0.498922       -13.5764
  50   2.0000      -0.494330       -13.4514
  51   2.0000      -0.476905       -12.9772
  52   2.0000      -0.474591       -12.9143
  53   2.0000      -0.471104       -12.8194
  54   2.0000      -0.455187       -12.3863
  55   2.0000      -0.446213       -12.1421
  56   2.0000      -0.441427       -12.0118
  57   2.0000      -0.435338       -11.8462
  58   2.0000      -0.434056       -11.8113
  59   2.0000      -0.433254       -11.7894
  60   2.0000      -0.417157       -11.3514
  61   2.0000      -0.410251       -11.1635
  62   2.0000      -0.407570       -11.0905
  63   2.0000      -0.351216        -9.5571
  64   2.0000      -0.331053        -9.0084
  65   2.0000      -0.329338        -8.9617
  66   2.0000      -0.289597        -7.8803
  67   0.0000       0.023298         0.6340
  68   0.0000       0.062521         1.7013
  69   0.0000       0.106265         2.8916
  70   0.0000       0.121207         3.2982
  71   0.0000       0.124211         3.3800

MULLIKEN ATOMIC CHARGES
-----------------------
   0 S :    0.114523
   1 C :   -0.057492
   2 C :   -0.100691
   3 C :    0.055626
   4 C :   -0.145256
   5 H :   -0.000037
   6 C :    0.035181
   7 H :    0.041972
   8 H :    0.015118
   9 C :   -0.072295
  10 H :    0.033364
  11 H :    0.026483
  12 C :   -0.050880
  13 H :    0.030038
  14 H :    0.024325
  15 H :    0.041884
  16 S :    0.090446
  17 C :   -0.096739
  18 C :   -0.058212
  19 C :   -0.034667
  20 C :   -0.155584
  21 H :    0.010177
  22 C :    0.089230
  23 H :   -0.014420
  24 H :    0.042873
  25 C :   -0.059462
  26 H :    0.039169
  27 H :    0.033184
  28 C :   -0.084306
  29 H :    0.052611
  30 H :    0.020795
  31 H :    0.060796
  32 H :    0.000633
  33 H :    0.071612
Sum of atomic charges:    0.0000000

LOEWDIN ATOMIC CHARGES
----------------------
   0 S :    0.395196
   1 C :   -0.181094
   2 C :   -0.055201
   3 C :   -0.059541
   4 C :   -0.173969
   5 H :    0.027869
   6 C :   -0.039283
   7 H :    0.037016
   8 H :    0.027631
   9 C :   -0.038441
  10 H :    0.022370
  11 H :    0.022753
  12 C :   -0.062618
  13 H :    0.021229
  14 H :    0.018504
  15 H :    0.033324
  16 S :    0.375402
  17 C :   -0.196387
  18 C :   -0.077367
  19 C :   -0.049965
  20 C :   -0.173418
  21 H :    0.025959
  22 C :   -0.035073
  23 H :    0.016299
  24 H :    0.043476
  25 C :   -0.036826
  26 H :    0.027993
  27 H :    0.021207
  28 C :   -0.078395
  29 H :    0.037685
  30 H :    0.021311
  31 H :    0.035887
  32 H :    0.005220
  33 H :    0.041248

  Mayer bond orders larger than 0.100000
B(  0-S ,  1-C ) :   1.1332 B(  0-S ,  4-C ) :   1.1500 B(  1-C ,  2-C ) :   1.5858
B(  1-C ,  4-C ) :   0.1035 B(  1-C , 32-H ) :   0.9847 B(  2-C ,  3-C ) :   1.2493
B(  2-C ,  6-C ) :   1.0320 B(  3-C ,  4-C ) :   1.5594 B(  3-C ,  5-H ) :   0.9944
B(  4-C , 20-C ) :   1.0366 B(  6-C ,  7-H ) :   0.9420 B(  6-C ,  8-H ) :   0.9443
B(  6-C ,  9-C ) :   1.0504 B(  9-C , 10-H ) :   0.9587 B(  9-C , 11-H ) :   0.9589
B(  9-C , 12-C ) :   1.0808 B( 12-C , 13-H ) :   0.9770 B( 12-C , 14-H ) :   0.9773
B( 12-C , 15-H ) :   0.9755 B( 16-S , 17-C ) :   1.1453 B( 16-S , 20-C ) :   1.1380
B( 17-C , 18-C ) :   1.6431 B( 17-C , 33-H ) :   0.9572 B( 18-C , 19-C ) :   1.2156
B( 18-C , 21-H ) :   0.9917 B( 19-C , 20-C ) :   1.5762 B( 19-C , 22-C ) :   1.0447
B( 22-C , 23-H ) :   0.9263 B( 22-C , 24-H ) :   0.9253 B( 22-C , 25-C ) :   1.0602
B( 25-C , 26-H ) :   0.9565 B( 25-C , 27-H ) :   0.9551 B( 25-C , 28-C ) :   1.0752
B( 28-C , 29-H ) :   0.9682 B( 28-C , 30-H ) :   0.9742 B( 28-C , 31-H ) :   0.9704

Dispersion correction           -0.014687101
FINAL SINGLE POINT ENERGY     -1339.858163016530

DIPOLE MOMENT
-------------
                                X             Y             Z
Electronic contribution:      1.10250      -9.89771     -29.98244
Nuclear contribution   :     -1.13670      10.27392      30.70418
                        -----------------------------------------
Total Dipole Moment    :     -0.03420       0.37621       0.72174
                        -----------------------------------------
Magnitude (a.u.)       :      0.81462
Magnitude (Debye)      :      2.07060

Rotational constants in cm-1:     0.017887     0.009201     0.006486
Rotational constants in MHz :   536.250698   275.840125   194.437305

                             ****ORCA TERMINATED NORMALLY****
TOTAL RUN TIME: 0 days 0 hours 0 minutes 29 seconds 62 msec
