                         Program Version 4.2.1 -  RELEASE  -
|  1> ! wB97X-D3 SP def2-SVP
|  2> %pal
|  3> nprocs 16
|  4> end
|  5>
|  6> * xyz 0 1
|  7> S 	 1.68797 	 -25.8093 	 84.1496
|  8> C 	 3.22032 	 -26.4395 	 83.5201
|  9> C 	 4.228 	 -25.5285 	 83.4311
| 10> C 	 3.7471 	 -24.2643 	 83.8931
| 11> C 	 2.35019 	 -24.2113 	 83.9966
| 12> H 	 4.24918 	 -23.314 	 84.0144
| 13> C 	 5.60812 	 -25.8239 	 82.9038
| 14> H 	 5.7183 	 -25.8362 	 81.8476
| 15> H 	 5.98076 	 -26.8748 	 83.2342
| 16> C 	 6.6835 	 -24.6968 	 83.281
| 17> H 	 6.21305 	 -23.8303 	 82.8053
| 18> H 	 6.74737 	 -24.5553 	 84.3988
| 19> C 	 8.11181 	 -24.8992 	 82.6607
| 20> H 	 8.54011 	 -25.8611 	 82.9711
| 21> H 	 7.94476 	 -24.8815 	 81.5481
| 22> H 	 8.80604 	 -24.0655 	 82.812
| 23> S 	 0.530706 	 -22.6241 	 85.3223
| 24> C 	 -0.0447701 	 -21.1754 	 84.5528
| 25> C 	 0.602371 	 -20.9324 	 83.3934
| 26> C 	 1.62309 	 -21.9162 	 83.1112
| 27> C 	 1.57854 	 -22.988 	 83.9862
| 28> H 	 0.468506 	 -20.0294 	 82.848
| 29> C 	 2.47069 	 -21.8236 	 81.8827
| 30> H 	 3.37442 	 -22.3637 	 82.035
| 31> H 	 2.83228 	 -20.8109 	 81.6437
| 32> C 	 1.82585 	 -22.5037 	 80.6299
| 33> H 	 2.26253 	 -22.0098 	 79.7403
| 34> H 	 0.863839 	 -22.0884 	 80.5267
| 35> C 	 1.95538 	 -24.0545 	 80.5535
| 36> H 	 1.25393 	 -24.4676 	 81.219
| 37> H 	 2.92787 	 -24.4668 	 80.8546
| 38> H 	 1.62326 	 -24.5052 	 79.6477
| 39> H 	 3.26795 	 -27.3897 	 83.073
| 40> H 	 -0.752852 	 -20.6177 	 85.0703
| 41> *
| 42>
| 43>                          ****END OF INPUT****

CARTESIAN COORDINATES (ANGSTROEM)
---------------------------------
  S      1.687970  -25.809300   84.149600
  C      3.220320  -26.439500   83.520100
  C      4.228000  -25.528500   83.431100
  C      3.747100  -24.264300   83.893100
  C      2.350190  -24.211300   83.996600
  H      4.249180  -23.314000   84.014400
  C      5.608120  -25.823900   82.903800
  H      5.718300  -25.836200   81.847600
  H      5.980760  -26.874800   83.234200
  C      6.683500  -24.696800   83.281000
  H      6.213050  -23.830300   82.805300
  H      6.747370  -24.555300   84.398800
  C      8.111810  -24.899200   82.660700
  H      8.540110  -25.861100   82.971100
  H      7.944760  -24.881500   81.548100
  H      8.806040  -24.065500   82.812000
  S      0.530706  -22.624100   85.322300
  C     -0.044770  -21.175400   84.552800
  C      0.602371  -20.932400   83.393400
  C      1.623090  -21.916200   83.111200
  C      1.578540  -22.988000   83.986200
  H      0.468506  -20.029400   82.848000
  C      2.470690  -21.823600   81.882700
  H      3.374420  -22.363700   82.035000
  H      2.832280  -20.810900   81.643700
  C      1.825850  -22.503700   80.629900
  H      2.262530  -22.009800   79.740300
  H      0.863839  -22.088400   80.526700
  C      1.955380  -24.054500   80.553500
  H      1.253930  -24.467600   81.219000
  H      2.927870  -24.466800   80.854600
  H      1.623260  -24.505200   79.647700
  H      3.267950  -27.389700   83.073000
  H     -0.752852  -20.617700   85.070300

 Total Charge           Charge          ....    0
 Multiplicity           Mult            ....    1
 Number of Electrons    NEL             ....  134
 Basis Dimension        Dim             ....  322

ORBITAL ENERGIES
----------------

  NO   OCC          E(Eh)            E(eV)
   0   2.0000     -88.967606     -2420.9316
   1   2.0000     -88.959685     -2420.7161
   2   2.0000     -10.327926      -281.0372
   3   2.0000     -10.322718      -280.8954
   4   2.0000     -10.311453      -280.5889
   5   2.0000     -10.308383      -280.5054
   6   2.0000     -10.305110      -280.4163
   7   2.0000     -10.304354      -280.3957
   8   2.0000     -10.302596      -280.3479
   9   2.0000     -10.299417      -280.2614
  10   2.0000     -10.294803      -280.1358
  11   2.0000     -10.291086      -280.0347
  12   2.0000     -10.290402      -280.0161
  13   2.0000     -10.286322      -279.9051
  14   2.0000     -10.283050      -279.8160
  15   2.0000     -10.268038      -279.4075
  16   2.0000      -8.082259      -219.9294
  17   2.0000      -8.075604      -219.7484
  18   2.0000      -6.040686      -164.3754
  19   2.0000      -6.037022      -164.2757
  20   2.0000      -6.033997      -164.1934
  21   2.0000      -6.032860      -164.1625
  22   2.0000      -6.030009      -164.0849
  23   2.0000      -6.026366      -163.9858
  24   2.0000      -1.010318       -27.4922
  25   2.0000      -0.987844       -26.8806
  26   2.0000      -0.906781       -24.6748
  27   2.0000      -0.904416       -24.6104
  28   2.0000      -0.871157       -23.7054
  29   2.0000      -0.847499       -23.0616
  30   2.0000      -0.842916       -22.9369
  31   2.0000      -0.814719       -22.1696
  32   2.0000      -0.784730       -21.3536
  33   2.0000      -0.775340       -21.0981
  34   2.0000      -0.713181       -19.4067
  35   2.0000      -0.703372       -19.1397
  36   2.0000      -0.688524       -18.7357
  37   2.0000      -0.663022       -18.0417
  38   2.0000      -0.644634       -17.5414
  39   2.0000      -0.619627       -16.8609
  40   2.0000      -0.604822       -16.4580
  41   2.0000      -0.573140       -15.5959
  42   2.0000      -0.564155       -15.3514
  43   2.0000      -0.549256       -14.9460
  44   2.0000      -0.533409       -14.5148
  45   2.0000      -0.522423       -14.2158
  46   2.0000      -0.511894       -13.9294
  47   2.0000      -0.507395       -13.8069
  48   2.0000      -0.499646       -13.5961
  49   2.0000      -0.494573       -13.4580
  50   2.0000      -0.490248       -13.3403
  51   2.0000      -0.486168       -13.2293
  52   2.0000      -0.476262       -12.9598
  53   2.0000      -0.471637       -12.8339
  54   2.0000      -0.458099       -12.4655
  55   2.0000      -0.452209       -12.3052
  56   2.0000      -0.438351       -11.9281
  57   2.0000      -0.436372       -11.8743
  58   2.0000      -0.431157       -11.7324
  59   2.0000      -0.428462       -11.6591
  60   2.0000      -0.427507       -11.6331
  61   2.0000      -0.414058       -11.2671
  62   2.0000      -0.406850       -11.0710
  63   2.0000      -0.344034        -9.3617
  64   2.0000      -0.332240        -9.0407
  65   2.0000      -0.326891        -8.8952
  66   2.0000      -0.290096        -7.8939
  67   0.0000       0.025508         0.6941
  68   0.0000       0.065771         1.7897
  69   0.0000       0.108447         2.9510
  70   0.0000       0.119601         3.2545
  71   0.0000       0.128537         3.4977

MULLIKEN ATOMIC CHARGES
-----------------------
   0 S :    0.119667
   1 C :   -0.106580
   2 C :   -0.044863
   3 C :    0.017480
   4 C :   -0.176243
   5 H :    0.025668
   6 C :    0.042174
   7 H :    0.026813
   8 H :    0.043203
   9 C :   -0.147206
  10 H :    0.038456
  11 H :    0.052400
  12 C :   -0.047356
  13 H :    0.044193
  14 H :    0.029947
  15 H :    0.045860
  16 S :    0.090234
  17 C :   -0.061100
  18 C :   -0.003128
  19 C :   -0.049255
  20 C :   -0.152767
  21 H :    0.009636
  22 C :    0.079756
  23 H :   -0.007848
  24 H :    0.024409
  25 C :   -0.051199
  26 H :    0.013568
  27 H :    0.003855
  28 C :    0.004667
  29 H :    0.014213
  30 H :    0.033750
  31 H :    0.021229
  32 H :    0.030418
  33 H :    0.035950
Sum of atomic charges:   -0.0000000

LOEWDIN ATOMIC CHARGES
----------------------
   0 S :    0.400586
   1 C :   -0.177769
   2 C :   -0.063445
   3 C :   -0.060853
   4 C :   -0.192247
   5 H :    0.030458
   6 C :   -0.033638
   7 H :    0.025390
   8 H :    0.038250
   9 C :   -0.044307
  10 H :    0.022398
  11 H :    0.026994
  12 C :   -0.070626
  13 H :    0.026623
  14 H :    0.029351
  15 H :    0.030160
  16 S :    0.404081
  17 C :   -0.165009
  18 C :   -0.065748
  19 C :   -0.050407
  20 C :   -0.207384
  21 H :    0.028989
  22 C :   -0.034229
  23 H :    0.020836
  24 H :    0.033920
  25 C :   -0.032729
  26 H :    0.022601
  27 H :    0.015226
  28 C :   -0.061964
  29 H :    0.020274
  30 H :    0.028875
  31 H :    0.024184
  32 H :    0.016751
  33 H :    0.014412

  Mayer bond orders larger than 0.100000
B(  0-S ,  1-C ) :   1.1235 B(  0-S ,  4-C ) :   1.1501 B(  1-C ,  2-C ) :   1.6511
B(  1-C , 32-H ) :   0.9723 B(  2-C ,  3-C ) :   1.2044 B(  2-C ,  6-C ) :   1.0174
B(  3-C ,  4-C ) :   1.5771 B(  3-C ,  5-H ) :   0.9892 B(  4-C , 20-C ) :   1.0413
B(  6-C ,  7-H ) :   0.9383 B(  6-C ,  8-H ) :   0.9441 B(  6-C ,  9-C ) :   1.0558
B(  9-C , 10-H ) :   0.9507 B(  9-C , 11-H ) :   0.9619 B(  9-C , 12-C ) :   1.0748
B( 12-C , 13-H ) :   0.9771 B( 12-C , 14-H ) :   0.9725 B( 12-C , 15-H ) :   0.9746
B( 16-S , 17-C ) :   1.1549 B( 16-S , 20-C ) :   1.1441 B( 17-C , 18-C ) :   1.5983
B( 17-C , 33-H ) :   0.9816 B( 18-C , 19-C ) :   1.2260 B( 18-C , 21-H ) :   0.9988
B( 19-C , 20-C ) :   1.5956 B( 19-C , 22-C ) :   1.0674 B( 22-C , 23-H ) :   0.9233
B( 22-C , 24-H ) :   0.9315 B( 22-C , 25-C ) :   1.0679 B( 25-C , 26-H ) :   0.9552
B( 25-C , 27-H ) :   0.9560 B( 25-C , 28-C ) :   1.0673 B( 28-C , 29-H ) :   0.9669
B( 28-C , 30-H ) :   0.9740 B( 28-C , 31-H ) :   0.9714

Dispersion correction           -0.016314263
FINAL SINGLE POINT ENERGY     -1339.862355974579

DIPOLE MOMENT
-------------
                                X             Y             Z
Electronic contribution:    -22.17200      -0.34578      18.83555
Nuclear contribution   :     22.62187       0.62773     -19.35025
                        -----------------------------------------
Total Dipole Moment    :      0.44988       0.28195      -0.51470
                        -----------------------------------------
Magnitude (a.u.)       :      0.73946
Magnitude (Debye)      :      1.87955

Rotational constants in cm-1:     0.020108     0.008845     0.007885
Rotational constants in MHz :   602.835954   265.170943   236.378055

                             ****ORCA TERMINATED NORMALLY****
TOTAL RUN TIME: 0 days 0 hours 0 minutes 37 seconds 662 msec
