                         Program Version 4.2.1 -  RELEASE  -
|  1> ! wB97X-D3 SP def2-SVP
|  2> %pal
|  3> nprocs 16
|  4> end
|  5>
|  6> * xyz 0 1
|  7> S 	 -3.66277 	 -14.8916 	 81.5052
|  8> C 	 -3.60241 	 -16.4336 	 82.489
|  9> C 	 -4.84747 	 -16.899 	 82.7268
| 10> C 	 -5.89756 	 -16.0654 	 82.2002
| 11> C 	 -5.45409 	 -14.8993 	 81.5073
| 12> H 	 -6.93963 	 -16.0892 	 82.3482
| 13> C 	 -5.09438 	 -18.1337 	 83.568
| 14> H 	 -4.21596 	 -18.4346 	 84.2586
| 15> H 	 -5.25052 	 -18.986 	 82.89
| 16> C 	 -6.42889 	 -18.1714 	 84.3621
| 17> H 	 -6.4617 	 -17.3351 	 85.0406
| 18> H 	 -7.3121 	 -18.0376 	 83.6565
| 19> C 	 -6.74957 	 -19.5127 	 85.0104
| 20> H 	 -6.69392 	 -20.3515 	 84.3149
| 21> H 	 -6.13416 	 -19.8516 	 85.9045
| 22> H 	 -7.79534 	 -19.5408 	 85.3339
| 23> S 	 -5.96294 	 -12.224 	 81.1926
| 24> C 	 -7.30288 	 -11.759 	 80.1095
| 25> C 	 -8.04808 	 -12.8322 	 79.7433
| 26> C 	 -7.40132 	 -14.0937 	 80.0348
| 27> C 	 -6.21571 	 -13.9301 	 80.7633
| 28> H 	 -8.96424 	 -12.7453 	 79.1764
| 29> C 	 -8.08387 	 -15.4154 	 79.7191
| 30> H 	 -7.26001 	 -16.1419 	 79.6706
| 31> H 	 -8.56704 	 -15.4359 	 78.6704
| 32> C 	 -9.28058 	 -15.8394 	 80.6601
| 33> H 	 -10.1927 	 -15.3707 	 80.3233
| 34> H 	 -9.15062 	 -15.4706 	 81.6772
| 35> C 	 -9.42595 	 -17.4173 	 80.6838
| 36> H 	 -9.76697 	 -17.9168 	 79.7181
| 37> H 	 -10.1964 	 -17.7432 	 81.4278
| 38> H 	 -8.47913 	 -17.8675 	 80.9335
| 39> H 	 -2.73771 	 -16.7893 	 82.9671
| 40> H 	 -7.58976 	 -10.7132 	 79.8002
| 41> *
| 42>
| 43>                          ****END OF INPUT****

CARTESIAN COORDINATES (ANGSTROEM)
---------------------------------
  S     -3.662770  -14.891600   81.505200
  C     -3.602410  -16.433600   82.489000
  C     -4.847470  -16.899000   82.726800
  C     -5.897560  -16.065400   82.200200
  C     -5.454090  -14.899300   81.507300
  H     -6.939630  -16.089200   82.348200
  C     -5.094380  -18.133700   83.568000
  H     -4.215960  -18.434600   84.258600
  H     -5.250520  -18.986000   82.890000
  C     -6.428890  -18.171400   84.362100
  H     -6.461700  -17.335100   85.040600
  H     -7.312100  -18.037600   83.656500
  C     -6.749570  -19.512700   85.010400
  H     -6.693920  -20.351500   84.314900
  H     -6.134160  -19.851600   85.904500
  H     -7.795340  -19.540800   85.333900
  S     -5.962940  -12.224000   81.192600
  C     -7.302880  -11.759000   80.109500
  C     -8.048080  -12.832200   79.743300
  C     -7.401320  -14.093700   80.034800
  C     -6.215710  -13.930100   80.763300
  H     -8.964240  -12.745300   79.176400
  C     -8.083870  -15.415400   79.719100
  H     -7.260010  -16.141900   79.670600
  H     -8.567040  -15.435900   78.670400
  C     -9.280580  -15.839400   80.660100
  H    -10.192700  -15.370700   80.323300
  H     -9.150620  -15.470600   81.677200
  C     -9.425950  -17.417300   80.683800
  H     -9.766970  -17.916800   79.718100
  H    -10.196400  -17.743200   81.427800
  H     -8.479130  -17.867500   80.933500
  H     -2.737710  -16.789300   82.967100
  H     -7.589760  -10.713200   79.800200

 Total Charge           Charge          ....    0
 Multiplicity           Mult            ....    1
 Number of Electrons    NEL             ....  134
 Basis Dimension        Dim             ....  322

ORBITAL ENERGIES
----------------

  NO   OCC          E(Eh)            E(eV)
   0   2.0000     -88.967346     -2420.9246
   1   2.0000     -88.962983     -2420.8058
   2   2.0000     -10.337161      -281.2884
   3   2.0000     -10.331093      -281.1233
   4   2.0000     -10.325734      -280.9775
   5   2.0000     -10.314587      -280.6742
   6   2.0000     -10.310786      -280.5708
   7   2.0000     -10.305850      -280.4364
   8   2.0000     -10.303079      -280.3610
   9   2.0000     -10.302787      -280.3531
  10   2.0000     -10.299743      -280.2703
  11   2.0000     -10.298365      -280.2328
  12   2.0000     -10.295569      -280.1567
  13   2.0000     -10.294703      -280.1331
  14   2.0000     -10.291962      -280.0585
  15   2.0000     -10.285918      -279.8941
  16   2.0000      -8.081296      -219.9032
  17   2.0000      -8.076085      -219.7615
  18   2.0000      -6.040029      -164.3575
  19   2.0000      -6.036095      -164.2505
  20   2.0000      -6.034775      -164.2146
  21   2.0000      -6.031657      -164.1297
  22   2.0000      -6.030815      -164.1068
  23   2.0000      -6.026741      -163.9960
  24   2.0000      -0.999764       -27.2050
  25   2.0000      -0.975486       -26.5443
  26   2.0000      -0.909171       -24.7398
  27   2.0000      -0.899895       -24.4874
  28   2.0000      -0.874147       -23.7867
  29   2.0000      -0.845754       -23.0141
  30   2.0000      -0.839665       -22.8484
  31   2.0000      -0.815175       -22.1820
  32   2.0000      -0.779844       -21.2206
  33   2.0000      -0.768681       -20.9169
  34   2.0000      -0.714896       -19.4533
  35   2.0000      -0.701491       -19.0885
  36   2.0000      -0.691563       -18.8184
  37   2.0000      -0.660199       -17.9649
  38   2.0000      -0.645367       -17.5613
  39   2.0000      -0.614583       -16.7237
  40   2.0000      -0.591985       -16.1087
  41   2.0000      -0.571167       -15.5422
  42   2.0000      -0.561817       -15.2878
  43   2.0000      -0.557545       -15.1716
  44   2.0000      -0.524523       -14.2730
  45   2.0000      -0.520548       -14.1648
  46   2.0000      -0.515590       -14.0299
  47   2.0000      -0.508948       -13.8492
  48   2.0000      -0.504786       -13.7359
  49   2.0000      -0.497384       -13.5345
  50   2.0000      -0.487689       -13.2707
  51   2.0000      -0.477258       -12.9868
  52   2.0000      -0.473341       -12.8803
  53   2.0000      -0.468283       -12.7426
  54   2.0000      -0.455009       -12.3814
  55   2.0000      -0.451098       -12.2750
  56   2.0000      -0.446232       -12.1426
  57   2.0000      -0.441205       -12.0058
  58   2.0000      -0.428478       -11.6595
  59   2.0000      -0.424427       -11.5492
  60   2.0000      -0.419039       -11.4026
  61   2.0000      -0.418314       -11.3829
  62   2.0000      -0.415192       -11.2980
  63   2.0000      -0.347715        -9.4618
  64   2.0000      -0.331698        -9.0260
  65   2.0000      -0.326704        -8.8901
  66   2.0000      -0.294631        -8.0173
  67   0.0000       0.016816         0.4576
  68   0.0000       0.071348         1.9415
  69   0.0000       0.100037         2.7221
  70   0.0000       0.115239         3.1358
  71   0.0000       0.118315         3.2195

MULLIKEN ATOMIC CHARGES
-----------------------
   0 S :    0.080486
   1 C :   -0.118435
   2 C :   -0.018289
   3 C :    0.042159
   4 C :   -0.159823
   5 H :   -0.019774
   6 C :    0.040298
   7 H :    0.045438
   8 H :    0.034894
   9 C :   -0.109684
  10 H :    0.036152
  11 H :    0.040258
  12 C :   -0.062030
  13 H :    0.022990
  14 H :    0.041436
  15 H :    0.033611
  16 S :    0.098141
  17 C :   -0.098079
  18 C :   -0.021876
  19 C :   -0.048889
  20 C :   -0.122564
  21 H :    0.021497
  22 C :    0.001184
  23 H :    0.044244
  24 H :    0.041816
  25 C :   -0.054946
  26 H :    0.029312
  27 H :    0.041138
  28 C :   -0.090987
  29 H :    0.043208
  30 H :    0.042650
  31 H :    0.034305
  32 H :    0.033350
  33 H :    0.076806
Sum of atomic charges:   -0.0000000

LOEWDIN ATOMIC CHARGES
----------------------
   0 S :    0.352670
   1 C :   -0.159978
   2 C :   -0.062737
   3 C :   -0.058384
   4 C :   -0.176314
   5 H :    0.020909
   6 C :   -0.038092
   7 H :    0.040124
   8 H :    0.034993
   9 C :   -0.047038
  10 H :    0.020587
  11 H :    0.032126
  12 C :   -0.074417
  13 H :    0.023305
  14 H :    0.029591
  15 H :    0.029372
  16 S :    0.381416
  17 C :   -0.173515
  18 C :   -0.071242
  19 C :   -0.048786
  20 C :   -0.198222
  21 H :    0.032491
  22 C :   -0.041786
  23 H :    0.031832
  24 H :    0.040369
  25 C :   -0.035728
  26 H :    0.022644
  27 H :    0.021509
  28 C :   -0.073191
  29 H :    0.032449
  30 H :    0.030017
  31 H :    0.018894
  32 H :    0.020704
  33 H :    0.043429

  Mayer bond orders larger than 0.100000
B(  0-S ,  1-C ) :   1.1103 B(  0-S ,  4-C ) :   1.1356 B(  1-C ,  2-C ) :   1.6410
B(  1-C , 32-H ) :   0.9778 B(  2-C ,  3-C ) :   1.2026 B(  2-C ,  6-C ) :   1.0192
B(  3-C ,  4-C ) :   1.5757 B(  3-C ,  5-H ) :   0.9968 B(  4-C , 20-C ) :   1.0539
B(  6-C ,  7-H ) :   0.9505 B(  6-C ,  8-H ) :   0.9281 B(  6-C ,  9-C ) :   1.0637
B(  9-C , 10-H ) :   0.9601 B(  9-C , 11-H ) :   0.9434 B(  9-C , 12-C ) :   1.0827
B( 12-C , 13-H ) :   0.9711 B( 12-C , 14-H ) :   0.9738 B( 12-C , 15-H ) :   0.9741
B( 16-S , 17-C ) :   1.1329 B( 16-S , 20-C ) :   1.1202 B( 17-C , 18-C ) :   1.6390
B( 17-C , 33-H ) :   0.9589 B( 18-C , 19-C ) :   1.2190 B( 18-C , 21-H ) :   0.9893
B( 19-C , 20-C ) :   1.5961 B( 19-C , 22-C ) :   1.0595 B( 22-C , 23-H ) :   0.9440
B( 22-C , 24-H ) :   0.9363 B( 22-C , 25-C ) :   1.0302 B( 25-C , 26-H ) :   0.9541
B( 25-C , 27-H ) :   0.9613 B( 25-C , 28-C ) :   1.0679 B( 28-C , 29-H ) :   0.9762
B( 28-C , 30-H ) :   0.9763 B( 28-C , 31-H ) :   0.9769

Dispersion correction           -0.014860724
FINAL SINGLE POINT ENERGY     -1339.871611233804

DIPOLE MOMENT
-------------
                                X             Y             Z
Electronic contribution:     18.86449      26.91990      -8.11929
Nuclear contribution   :    -19.62442     -27.40358       8.25124
                        -----------------------------------------
Total Dipole Moment    :     -0.75993      -0.48369       0.13195
                        -----------------------------------------
Magnitude (a.u.)       :      0.91041
Magnitude (Debye)      :      2.31409

Rotational constants in cm-1:     0.017416     0.009521     0.006796
Rotational constants in MHz :   522.130165   285.442092   203.753648

                             ****ORCA TERMINATED NORMALLY****
TOTAL RUN TIME: 0 days 0 hours 0 minutes 34 seconds 274 msec
