                         Program Version 4.2.1 -  RELEASE  -
|  1> ! wB97X-D3 SP def2-SVP
|  2> %pal
|  3> nprocs 16
|  4> end
|  5>
|  6> * xyz 0 1
|  7> S 	 24.0666 	 -9.18861 	 76.9928
|  8> C 	 25.2862 	 -9.11306 	 75.7209
|  9> C 	 26.4996 	 -9.08154 	 76.3732
| 10> C 	 26.4954 	 -9.33144 	 77.7702
| 11> C 	 25.2287 	 -9.31205 	 78.2546
| 12> H 	 27.3012 	 -9.40162 	 78.4542
| 13> C 	 27.741 	 -8.7818 	 75.5952
| 14> H 	 27.6292 	 -7.78989 	 75.2117
| 15> H 	 27.8212 	 -9.37982 	 74.6866
| 16> C 	 29.146 	 -8.79107 	 76.254
| 17> H 	 29.169 	 -7.98323 	 77.052
| 18> H 	 29.256 	 -9.7096 	 76.8955
| 19> C 	 30.3535 	 -8.6403 	 75.271
| 20> H 	 31.255 	 -8.79255 	 75.9535
| 21> H 	 30.2863 	 -9.45138 	 74.4923
| 22> H 	 30.356 	 -7.64061 	 74.8587
| 23> S 	 24.0136 	 -11.1406 	 79.8148
| 24> C 	 23.8769 	 -10.8479 	 81.4889
| 25> C 	 24.3636 	 -9.60009 	 81.8862
| 26> C 	 25.0081 	 -8.89311 	 80.8336
| 27> C 	 24.7747 	 -9.55126 	 79.6162
| 28> H 	 24.2301 	 -9.27117 	 82.9338
| 29> C 	 25.7283 	 -7.55174 	 80.9897
| 30> H 	 25.9471 	 -7.11961 	 80.0115
| 31> H 	 26.6992 	 -7.79179 	 81.3391
| 32> C 	 24.9873 	 -6.51824 	 81.815
| 33> H 	 24.6927 	 -6.84335 	 82.8335
| 34> H 	 23.992 	 -6.40521 	 81.3239
| 35> C 	 25.5099 	 -5.0954 	 81.8565
| 36> H 	 26.4004 	 -5.03199 	 82.5837
| 37> H 	 24.854 	 -4.29517 	 82.1883
| 38> H 	 25.8863 	 -4.70583 	 80.9466
| 39> H 	 25.0734 	 -8.97777 	 74.7136
| 40> H 	 23.3248 	 -11.6064 	 82.1266
| 41> *
| 42>
| 43>                          ****END OF INPUT****

CARTESIAN COORDINATES (ANGSTROEM)
---------------------------------
  S     24.066600   -9.188610   76.992800
  C     25.286200   -9.113060   75.720900
  C     26.499600   -9.081540   76.373200
  C     26.495400   -9.331440   77.770200
  C     25.228700   -9.312050   78.254600
  H     27.301200   -9.401620   78.454200
  C     27.741000   -8.781800   75.595200
  H     27.629200   -7.789890   75.211700
  H     27.821200   -9.379820   74.686600
  C     29.146000   -8.791070   76.254000
  H     29.169000   -7.983230   77.052000
  H     29.256000   -9.709600   76.895500
  C     30.353500   -8.640300   75.271000
  H     31.255000   -8.792550   75.953500
  H     30.286300   -9.451380   74.492300
  H     30.356000   -7.640610   74.858700
  S     24.013600  -11.140600   79.814800
  C     23.876900  -10.847900   81.488900
  C     24.363600   -9.600090   81.886200
  C     25.008100   -8.893110   80.833600
  C     24.774700   -9.551260   79.616200
  H     24.230100   -9.271170   82.933800
  C     25.728300   -7.551740   80.989700
  H     25.947100   -7.119610   80.011500
  H     26.699200   -7.791790   81.339100
  C     24.987300   -6.518240   81.815000
  H     24.692700   -6.843350   82.833500
  H     23.992000   -6.405210   81.323900
  C     25.509900   -5.095400   81.856500
  H     26.400400   -5.031990   82.583700
  H     24.854000   -4.295170   82.188300
  H     25.886300   -4.705830   80.946600
  H     25.073400   -8.977770   74.713600
  H     23.324800  -11.606400   82.126600

 Total Charge           Charge          ....    0
 Multiplicity           Mult            ....    1
 Number of Electrons    NEL             ....  134
 Basis Dimension        Dim             ....  322

ORBITAL ENERGIES
----------------

  NO   OCC          E(Eh)            E(eV)
   0   2.0000     -88.965400     -2420.8716
   1   2.0000     -88.959789     -2420.7189
   2   2.0000     -10.324928      -280.9556
   3   2.0000     -10.321613      -280.8654
   4   2.0000     -10.319698      -280.8133
   5   2.0000     -10.310039      -280.5504
   6   2.0000     -10.306849      -280.4636
   7   2.0000     -10.299611      -280.2667
   8   2.0000     -10.297463      -280.2082
   9   2.0000     -10.295456      -280.1536
  10   2.0000     -10.293554      -280.1018
  11   2.0000     -10.292436      -280.0714
  12   2.0000     -10.291331      -280.0414
  13   2.0000     -10.286889      -279.9205
  14   2.0000     -10.283698      -279.8336
  15   2.0000     -10.280540      -279.7477
  16   2.0000      -8.080788      -219.8894
  17   2.0000      -8.075061      -219.7336
  18   2.0000      -6.039022      -164.3301
  19   2.0000      -6.035233      -164.2270
  20   2.0000      -6.033540      -164.1810
  21   2.0000      -6.031746      -164.1322
  22   2.0000      -6.029295      -164.0655
  23   2.0000      -6.026031      -163.9766
  24   2.0000      -1.010709       -27.5028
  25   2.0000      -0.986440       -26.8424
  26   2.0000      -0.912214       -24.8226
  27   2.0000      -0.906310       -24.6620
  28   2.0000      -0.868021       -23.6201
  29   2.0000      -0.854682       -23.2571
  30   2.0000      -0.843720       -22.9588
  31   2.0000      -0.815347       -22.1867
  32   2.0000      -0.788188       -21.4477
  33   2.0000      -0.768623       -20.9153
  34   2.0000      -0.708592       -19.2818
  35   2.0000      -0.700347       -19.0574
  36   2.0000      -0.685926       -18.6650
  37   2.0000      -0.652221       -17.7478
  38   2.0000      -0.648307       -17.6413
  39   2.0000      -0.620390       -16.8817
  40   2.0000      -0.601373       -16.3642
  41   2.0000      -0.563932       -15.3454
  42   2.0000      -0.562726       -15.3126
  43   2.0000      -0.561247       -15.2723
  44   2.0000      -0.531605       -14.4657
  45   2.0000      -0.523982       -14.2583
  46   2.0000      -0.520132       -14.1535
  47   2.0000      -0.506587       -13.7849
  48   2.0000      -0.504651       -13.7323
  49   2.0000      -0.502013       -13.6605
  50   2.0000      -0.491538       -13.3754
  51   2.0000      -0.476970       -12.9790
  52   2.0000      -0.473319       -12.8797
  53   2.0000      -0.469197       -12.7675
  54   2.0000      -0.457227       -12.4418
  55   2.0000      -0.454470       -12.3668
  56   2.0000      -0.449706       -12.2371
  57   2.0000      -0.435540       -11.8516
  58   2.0000      -0.432584       -11.7712
  59   2.0000      -0.424982       -11.5644
  60   2.0000      -0.416645       -11.3375
  61   2.0000      -0.410392       -11.1673
  62   2.0000      -0.403794       -10.9878
  63   2.0000      -0.340696        -9.2708
  64   2.0000      -0.332195        -9.0395
  65   2.0000      -0.322371        -8.7722
  66   2.0000      -0.298226        -8.1152
  67   0.0000       0.038559         1.0492
  68   0.0000       0.063714         1.7338
  69   0.0000       0.120362         3.2752
  70   0.0000       0.125113         3.4045
  71   0.0000       0.136215         3.7066

MULLIKEN ATOMIC CHARGES
-----------------------
   0 S :    0.099357
   1 C :   -0.107739
   2 C :   -0.053283
   3 C :    0.054114
   4 C :   -0.161489
   5 H :   -0.002432
   6 C :    0.059429
   7 H :    0.023515
   8 H :    0.021893
   9 C :   -0.146759
  10 H :    0.029661
  11 H :    0.035494
  12 C :   -0.051641
  13 H :    0.050373
  14 H :    0.049074
  15 H :    0.043554
  16 S :    0.127099
  17 C :   -0.120542
  18 C :   -0.055762
  19 C :   -0.022249
  20 C :   -0.190467
  21 H :    0.031716
  22 C :    0.144648
  23 H :    0.019097
  24 H :    0.020952
  25 C :   -0.107711
  26 H :    0.034495
  27 H :    0.036263
  28 C :   -0.047723
  29 H :    0.027482
  30 H :    0.036054
  31 H :    0.016742
  32 H :    0.026547
  33 H :    0.080238
Sum of atomic charges:   -0.0000000

LOEWDIN ATOMIC CHARGES
----------------------
   0 S :    0.411345
   1 C :   -0.186621
   2 C :   -0.055445
   3 C :   -0.066448
   4 C :   -0.203631
   5 H :    0.028762
   6 C :   -0.044181
   7 H :    0.030548
   8 H :    0.029290
   9 C :   -0.055346
  10 H :    0.023250
  11 H :    0.021770
  12 C :   -0.065481
  13 H :    0.039349
  14 H :    0.031402
  15 H :    0.024181
  16 S :    0.425979
  17 C :   -0.206488
  18 C :   -0.081078
  19 C :   -0.043888
  20 C :   -0.200729
  21 H :    0.036481
  22 C :   -0.024677
  23 H :    0.034311
  24 H :    0.027199
  25 C :   -0.050590
  26 H :    0.025360
  27 H :    0.033706
  28 C :   -0.071102
  29 H :    0.029177
  30 H :    0.029506
  31 H :    0.018088
  32 H :    0.017228
  33 H :    0.038774

  Mayer bond orders larger than 0.100000
B(  0-S ,  1-C ) :   1.1244 B(  0-S ,  4-C ) :   1.1817 B(  1-C ,  2-C ) :   1.5893
B(  1-C , 32-H ) :   0.9936 B(  2-C ,  3-C ) :   1.2350 B(  2-C ,  6-C ) :   1.0117
B(  3-C ,  4-C ) :   1.5640 B(  3-C ,  5-H ) :   1.0040 B(  4-C , 20-C ) :   0.9917
B(  6-C ,  7-H ) :   0.9332 B(  6-C ,  8-H ) :   0.9402 B(  6-C ,  9-C ) :   1.0723
B(  9-C , 10-H ) :   0.9505 B(  9-C , 11-H ) :   0.9553 B(  9-C , 12-C ) :   1.0717
B( 12-C , 13-H ) :   0.9735 B( 12-C , 14-H ) :   0.9749 B( 12-C , 15-H ) :   0.9767
B( 16-S , 17-C ) :   1.1816 B( 16-S , 20-C ) :   1.1626 B( 17-C , 18-C ) :   1.5880
B( 17-C , 20-C ) :   0.1075 B( 17-C , 33-H ) :   0.9582 B( 18-C , 19-C ) :   1.2377
B( 18-C , 21-H ) :   0.9881 B( 19-C , 20-C ) :   1.5950 B( 19-C , 22-C ) :   1.0373
B( 22-C , 23-H ) :   0.9299 B( 22-C , 24-H ) :   0.9206 B( 22-C , 25-C ) :   1.0571
B( 25-C , 26-H ) :   0.9529 B( 25-C , 27-H ) :   0.9549 B( 25-C , 28-C ) :   1.0896
B( 28-C , 29-H ) :   0.9727 B( 28-C , 30-H ) :   0.9749 B( 28-C , 31-H ) :   0.9722

Dispersion correction           -0.013454430
FINAL SINGLE POINT ENERGY     -1339.874991735396

DIPOLE MOMENT
-------------
                                X             Y             Z
Electronic contribution:    -21.38392     -18.00439      -1.35547
Nuclear contribution   :     21.83078      18.37513       1.48482
                        -----------------------------------------
Total Dipole Moment    :      0.44685       0.37073       0.12934
                        -----------------------------------------
Magnitude (a.u.)       :      0.59485
Magnitude (Debye)      :      1.51200

Rotational constants in cm-1:     0.016528     0.008124     0.006530
Rotational constants in MHz :   495.487165   243.540896   195.766569

                             ****ORCA TERMINATED NORMALLY****
TOTAL RUN TIME: 0 days 0 hours 0 minutes 27 seconds 132 msec
