                         Program Version 4.2.1 -  RELEASE  -
|  1> ! wB97X-D3 SP def2-SVP
|  2> %pal
|  3> nprocs 16
|  4> end
|  5>
|  6> * xyz 0 1
|  7> S 	 40.0539 	 14.7109 	 49.5048
|  8> C 	 40.1981 	 14.4775 	 51.2175
|  9> C 	 39.3733 	 15.2975 	 51.9455
| 10> C 	 38.5782 	 16.0587 	 51.0535
| 11> C 	 38.7617 	 15.833 	 49.7111
| 12> H 	 37.8741 	 16.7538 	 51.413
| 13> C 	 39.1994 	 15.4552 	 53.4569
| 14> H 	 38.111 	 15.5183 	 53.7115
| 15> H 	 39.623 	 16.4479 	 53.6546
| 16> C 	 39.9867 	 14.5422 	 54.4144
| 17> H 	 39.9971 	 13.5389 	 53.9733
| 18> H 	 40.9974 	 14.9677 	 54.5686
| 19> C 	 39.1846 	 14.2323 	 55.6717
| 20> H 	 39.6974 	 13.7538 	 56.5049
| 21> H 	 38.8967 	 15.1577 	 56.2567
| 22> H 	 38.2808 	 13.7294 	 55.5133
| 23> S 	 38.9135 	 17.4025 	 47.3943
| 24> C 	 37.515 	 17.5798 	 46.4225
| 25> C 	 36.3668 	 16.9908 	 47.0227
| 26> C 	 36.705 	 16.2736 	 48.1857
| 27> C 	 38.0382 	 16.4264 	 48.5736
| 28> H 	 35.4391 	 16.9916 	 46.4846
| 29> C 	 35.6417 	 15.5125 	 48.974
| 30> H 	 34.8217 	 16.1845 	 49.1497
| 31> H 	 36.0153 	 15.3162 	 49.9868
| 32> C 	 35.2713 	 14.1413 	 48.3835
| 33> H 	 35.0525 	 14.2152 	 47.2894
| 34> H 	 34.2965 	 13.7352 	 48.8393
| 35> C 	 36.4057 	 13.0311 	 48.4625
| 36> H 	 36.4179 	 12.651 	 49.5265
| 37> H 	 37.3608 	 13.5024 	 48.4303
| 38> H 	 36.2255 	 12.1573 	 47.8096
| 39> H 	 40.9457 	 13.7554 	 51.6025
| 40> H 	 37.5665 	 18.1906 	 45.5267
| 41> *
| 42>
| 43>                          ****END OF INPUT****

CARTESIAN COORDINATES (ANGSTROEM)
---------------------------------
  S     40.053900   14.710900   49.504800
  C     40.198100   14.477500   51.217500
  C     39.373300   15.297500   51.945500
  C     38.578200   16.058700   51.053500
  C     38.761700   15.833000   49.711100
  H     37.874100   16.753800   51.413000
  C     39.199400   15.455200   53.456900
  H     38.111000   15.518300   53.711500
  H     39.623000   16.447900   53.654600
  C     39.986700   14.542200   54.414400
  H     39.997100   13.538900   53.973300
  H     40.997400   14.967700   54.568600
  C     39.184600   14.232300   55.671700
  H     39.697400   13.753800   56.504900
  H     38.896700   15.157700   56.256700
  H     38.280800   13.729400   55.513300
  S     38.913500   17.402500   47.394300
  C     37.515000   17.579800   46.422500
  C     36.366800   16.990800   47.022700
  C     36.705000   16.273600   48.185700
  C     38.038200   16.426400   48.573600
  H     35.439100   16.991600   46.484600
  C     35.641700   15.512500   48.974000
  H     34.821700   16.184500   49.149700
  H     36.015300   15.316200   49.986800
  C     35.271300   14.141300   48.383500
  H     35.052500   14.215200   47.289400
  H     34.296500   13.735200   48.839300
  C     36.405700   13.031100   48.462500
  H     36.417900   12.651000   49.526500
  H     37.360800   13.502400   48.430300
  H     36.225500   12.157300   47.809600
  H     40.945700   13.755400   51.602500
  H     37.566500   18.190600   45.526700

 Total Charge           Charge          ....    0
 Multiplicity           Mult            ....    1
 Number of Electrons    NEL             ....  134
 Basis Dimension        Dim             ....  322

ORBITAL ENERGIES
----------------

  NO   OCC          E(Eh)            E(eV)
   0   2.0000     -88.967316     -2420.9238
   1   2.0000     -88.964735     -2420.8535
   2   2.0000     -10.326993      -281.0118
   3   2.0000     -10.326433      -280.9965
   4   2.0000     -10.320112      -280.8245
   5   2.0000     -10.314562      -280.6735
   6   2.0000     -10.303943      -280.3846
   7   2.0000     -10.301434      -280.3163
   8   2.0000     -10.300129      -280.2808
   9   2.0000     -10.295085      -280.1435
  10   2.0000     -10.294419      -280.1254
  11   2.0000     -10.294053      -280.1154
  12   2.0000     -10.290079      -280.0073
  13   2.0000     -10.287083      -279.9258
  14   2.0000     -10.279831      -279.7284
  15   2.0000     -10.275391      -279.6076
  16   2.0000      -8.082468      -219.9351
  17   2.0000      -8.080070      -219.8699
  18   2.0000      -6.040750      -164.3772
  19   2.0000      -6.038438      -164.3142
  20   2.0000      -6.036737      -164.2680
  21   2.0000      -6.034456      -164.2059
  22   2.0000      -6.033641      -164.1837
  23   2.0000      -6.030963      -164.1109
  24   2.0000      -1.009584       -27.4722
  25   2.0000      -0.988102       -26.8876
  26   2.0000      -0.913657       -24.8619
  27   2.0000      -0.901371       -24.5276
  28   2.0000      -0.867199       -23.5977
  29   2.0000      -0.852491       -23.1975
  30   2.0000      -0.842881       -22.9360
  31   2.0000      -0.808451       -21.9991
  32   2.0000      -0.784497       -21.3472
  33   2.0000      -0.772479       -21.0202
  34   2.0000      -0.710311       -19.3286
  35   2.0000      -0.694922       -18.9098
  36   2.0000      -0.688002       -18.7215
  37   2.0000      -0.659104       -17.9351
  38   2.0000      -0.643918       -17.5219
  39   2.0000      -0.616712       -16.7816
  40   2.0000      -0.597084       -16.2475
  41   2.0000      -0.579649       -15.7730
  42   2.0000      -0.567605       -15.4453
  43   2.0000      -0.552406       -15.0317
  44   2.0000      -0.529676       -14.4132
  45   2.0000      -0.519834       -14.1454
  46   2.0000      -0.513581       -13.9753
  47   2.0000      -0.511634       -13.9223
  48   2.0000      -0.497441       -13.5361
  49   2.0000      -0.494688       -13.4611
  50   2.0000      -0.490850       -13.3567
  51   2.0000      -0.476406       -12.9637
  52   2.0000      -0.473942       -12.8966
  53   2.0000      -0.466522       -12.6947
  54   2.0000      -0.454534       -12.3685
  55   2.0000      -0.449978       -12.2445
  56   2.0000      -0.447616       -12.1802
  57   2.0000      -0.442063       -12.0291
  58   2.0000      -0.437022       -11.8920
  59   2.0000      -0.428426       -11.6581
  60   2.0000      -0.412603       -11.2275
  61   2.0000      -0.408701       -11.1213
  62   2.0000      -0.403342       -10.9755
  63   2.0000      -0.337309        -9.1786
  64   2.0000      -0.336169        -9.1476
  65   2.0000      -0.328767        -8.9462
  66   2.0000      -0.298195        -8.1143
  67   0.0000       0.038305         1.0423
  68   0.0000       0.065289         1.7766
  69   0.0000       0.119491         3.2515
  70   0.0000       0.124234         3.3806
  71   0.0000       0.129247         3.5170

MULLIKEN ATOMIC CHARGES
-----------------------
   0 S :    0.119833
   1 C :   -0.168318
   2 C :   -0.059966
   3 C :    0.048898
   4 C :   -0.161014
   5 H :   -0.011227
   6 C :    0.029436
   7 H :    0.044586
   8 H :    0.041591
   9 C :   -0.048407
  10 H :    0.036005
  11 H :    0.050825
  12 C :   -0.073451
  13 H :    0.029989
  14 H :    0.017966
  15 H :    0.031631
  16 S :    0.120989
  17 C :   -0.114049
  18 C :   -0.025822
  19 C :   -0.034160
  20 C :   -0.174434
  21 H :    0.021995
  22 C :    0.096447
  23 H :    0.029687
  24 H :    0.014378
  25 C :   -0.110575
  26 H :    0.030263
  27 H :    0.039150
  28 C :   -0.048419
  29 H :    0.024653
  30 H :    0.023757
  31 H :    0.050790
  32 H :    0.061317
  33 H :    0.065657
Sum of atomic charges:   -0.0000000

LOEWDIN ATOMIC CHARGES
----------------------
   0 S :    0.424489
   1 C :   -0.207085
   2 C :   -0.067858
   3 C :   -0.055475
   4 C :   -0.206851
   5 H :    0.022172
   6 C :   -0.035495
   7 H :    0.037174
   8 H :    0.040838
   9 C :   -0.043613
  10 H :    0.028250
  11 H :    0.032763
  12 C :   -0.070955
  13 H :    0.027620
  14 H :    0.025798
  15 H :    0.019062
  16 S :    0.425376
  17 C :   -0.192969
  18 C :   -0.071115
  19 C :   -0.051226
  20 C :   -0.208343
  21 H :    0.031210
  22 C :   -0.032934
  23 H :    0.031608
  24 H :    0.029987
  25 C :   -0.047193
  26 H :    0.021102
  27 H :    0.028692
  28 C :   -0.070084
  29 H :    0.028686
  30 H :    0.016203
  31 H :    0.030949
  32 H :    0.031572
  33 H :    0.027645

  Mayer bond orders larger than 0.100000
B(  0-S ,  1-C ) :   1.1499 B(  0-S ,  4-C ) :   1.1585 B(  1-C ,  2-C ) :   1.6016
B(  1-C , 32-H ) :   0.9616 B(  2-C ,  3-C ) :   1.2619 B(  2-C ,  6-C ) :   0.9970
B(  3-C ,  4-C ) :   1.5725 B(  3-C ,  5-H ) :   1.0066 B(  4-C , 20-C ) :   1.0129
B(  6-C ,  7-H ) :   0.9528 B(  6-C ,  8-H ) :   0.9309 B(  6-C ,  9-C ) :   1.0563
B(  9-C , 10-H ) :   0.9595 B(  9-C , 11-H ) :   0.9558 B(  9-C , 12-C ) :   1.0774
B( 12-C , 13-H ) :   0.9725 B( 12-C , 14-H ) :   0.9705 B( 12-C , 15-H ) :   0.9787
B( 16-S , 17-C ) :   1.1976 B( 16-S , 20-C ) :   1.1568 B( 17-C , 18-C ) :   1.5468
B( 17-C , 20-C ) :   0.1105 B( 17-C , 33-H ) :   0.9685 B( 18-C , 19-C ) :   1.2777
B( 18-C , 21-H ) :   0.9946 B( 19-C , 20-C ) :   1.5684 B( 19-C , 22-C ) :   1.0347
B( 22-C , 23-H ) :   0.9378 B( 22-C , 24-H ) :   0.9328 B( 22-C , 25-C ) :   1.0573
B( 25-C , 26-H ) :   0.9639 B( 25-C , 27-H ) :   0.9588 B( 25-C , 28-C ) :   1.0570
B( 28-C , 29-H ) :   0.9734 B( 28-C , 30-H ) :   0.9756 B( 28-C , 31-H ) :   0.9770

Dispersion correction           -0.014775571
FINAL SINGLE POINT ENERGY     -1339.883885284940

DIPOLE MOMENT
-------------
                                X             Y             Z
Electronic contribution:     11.09227      12.34313     -21.07695
Nuclear contribution   :    -11.40864     -12.32660      21.56840
                        -----------------------------------------
Total Dipole Moment    :     -0.31638       0.01653       0.49145
                        -----------------------------------------
Magnitude (a.u.)       :      0.58471
Magnitude (Debye)      :      1.48623

Rotational constants in cm-1:     0.022567     0.007555     0.006689
Rotational constants in MHz :   676.547920   226.495425   200.516255

                             ****ORCA TERMINATED NORMALLY****
TOTAL RUN TIME: 0 days 0 hours 0 minutes 34 seconds 751 msec
