                         Program Version 4.2.1 -  RELEASE  -
|  1> ! wB97X-D3 SP def2-SVP
|  2> %pal
|  3> nprocs 16
|  4> end
|  5>
|  6> * xyz 0 1
|  7> S 	 31.5537 	 12.9238 	 67.659
|  8> C 	 30.4783 	 14.3095 	 68.113
|  9> C 	 31.2539 	 15.4693 	 68.3023
| 10> C 	 32.6328 	 15.2459 	 67.9408
| 11> C 	 32.9966 	 13.9704 	 67.5801
| 12> H 	 33.4608 	 16.0057 	 68.0106
| 13> C 	 30.8491 	 16.7237 	 68.9487
| 14> H 	 30.8501 	 16.3675 	 69.9755
| 15> H 	 29.7975 	 16.8427 	 68.7537
| 16> C 	 31.7277 	 17.9578 	 68.6005
| 17> H 	 32.6314 	 17.9384 	 69.2043
| 18> H 	 32.0009 	 17.9979 	 67.5581
| 19> C 	 31.0373 	 19.2687 	 68.8949
| 20> H 	 30.9414 	 19.5262 	 69.9582
| 21> H 	 31.5728 	 20.1268 	 68.485
| 22> H 	 30.0226 	 19.2732 	 68.468
| 23> S 	 35.4127 	 14.5838 	 66.2536
| 24> C 	 36.7553 	 13.4159 	 66.3687
| 25> C 	 36.3865 	 12.2791 	 67.0422
| 26> C 	 35.0684 	 12.376 	 67.6887
| 27> C 	 34.3405 	 13.524 	 67.2519
| 28> H 	 37.0604 	 11.5312 	 67.232
| 29> C 	 34.5989 	 11.1665 	 68.5492
| 30> H 	 34.9399 	 10.1787 	 68.2409
| 31> H 	 33.5309 	 10.962 	 68.4434
| 32> C 	 34.9267 	 11.3755 	 70.0124
| 33> H 	 34.3716 	 12.2917 	 70.2416
| 34> H 	 35.931 	 11.5578 	 70.1563
| 35> C 	 34.5114 	 10.231 	 70.9068
| 36> H 	 35.0723 	 9.35255 	 70.6705
| 37> H 	 33.4261 	 10.0395 	 70.6789
| 38> H 	 34.7111 	 10.5609 	 71.9043
| 39> H 	 29.4415 	 14.0526 	 68.3123
| 40> H 	 37.7069 	 13.5523 	 65.9822
| 41> *
| 42>
| 43>                          ****END OF INPUT****

CARTESIAN COORDINATES (ANGSTROEM)
---------------------------------
  S     31.553700   12.923800   67.659000
  C     30.478300   14.309500   68.113000
  C     31.253900   15.469300   68.302300
  C     32.632800   15.245900   67.940800
  C     32.996600   13.970400   67.580100
  H     33.460800   16.005700   68.010600
  C     30.849100   16.723700   68.948700
  H     30.850100   16.367500   69.975500
  H     29.797500   16.842700   68.753700
  C     31.727700   17.957800   68.600500
  H     32.631400   17.938400   69.204300
  H     32.000900   17.997900   67.558100
  C     31.037300   19.268700   68.894900
  H     30.941400   19.526200   69.958200
  H     31.572800   20.126800   68.485000
  H     30.022600   19.273200   68.468000
  S     35.412700   14.583800   66.253600
  C     36.755300   13.415900   66.368700
  C     36.386500   12.279100   67.042200
  C     35.068400   12.376000   67.688700
  C     34.340500   13.524000   67.251900
  H     37.060400   11.531200   67.232000
  C     34.598900   11.166500   68.549200
  H     34.939900   10.178700   68.240900
  H     33.530900   10.962000   68.443400
  C     34.926700   11.375500   70.012400
  H     34.371600   12.291700   70.241600
  H     35.931000   11.557800   70.156300
  C     34.511400   10.231000   70.906800
  H     35.072300    9.352550   70.670500
  H     33.426100   10.039500   70.678900
  H     34.711100   10.560900   71.904300
  H     29.441500   14.052600   68.312300
  H     37.706900   13.552300   65.982200

 Total Charge           Charge          ....    0
 Multiplicity           Mult            ....    1
 Number of Electrons    NEL             ....  134
 Basis Dimension        Dim             ....  322

ORBITAL ENERGIES
----------------

  NO   OCC          E(Eh)            E(eV)
   0   2.0000     -88.968579     -2420.9581
   1   2.0000     -88.963208     -2420.8120
   2   2.0000     -10.338609      -281.3278
   3   2.0000     -10.332399      -281.1589
   4   2.0000     -10.321267      -280.8560
   5   2.0000     -10.316888      -280.7368
   6   2.0000     -10.314718      -280.6777
   7   2.0000     -10.308489      -280.5082
   8   2.0000     -10.295799      -280.1629
   9   2.0000     -10.291649      -280.0500
  10   2.0000     -10.291354      -280.0420
  11   2.0000     -10.290471      -280.0179
  12   2.0000     -10.289598      -279.9942
  13   2.0000     -10.278578      -279.6943
  14   2.0000     -10.273077      -279.5446
  15   2.0000     -10.270400      -279.4718
  16   2.0000      -8.081595      -219.9114
  17   2.0000      -8.076288      -219.7670
  18   2.0000      -6.040412      -164.3680
  19   2.0000      -6.036330      -164.2569
  20   2.0000      -6.035036      -164.2217
  21   2.0000      -6.032147      -164.1431
  22   2.0000      -6.031048      -164.1132
  23   2.0000      -6.026893      -164.0001
  24   2.0000      -0.993718       -27.0404
  25   2.0000      -0.971960       -26.4484
  26   2.0000      -0.916344       -24.9350
  27   2.0000      -0.910905       -24.7870
  28   2.0000      -0.870817       -23.6961
  29   2.0000      -0.849016       -23.1029
  30   2.0000      -0.842340       -22.9212
  31   2.0000      -0.814213       -22.1559
  32   2.0000      -0.782205       -21.2849
  33   2.0000      -0.767894       -20.8955
  34   2.0000      -0.716212       -19.4891
  35   2.0000      -0.697869       -18.9900
  36   2.0000      -0.689291       -18.7566
  37   2.0000      -0.669039       -18.2055
  38   2.0000      -0.633646       -17.2424
  39   2.0000      -0.616866       -16.7858
  40   2.0000      -0.599912       -16.3244
  41   2.0000      -0.574518       -15.6334
  42   2.0000      -0.568156       -15.4603
  43   2.0000      -0.562345       -15.3022
  44   2.0000      -0.535023       -14.5587
  45   2.0000      -0.528255       -14.3746
  46   2.0000      -0.515871       -14.0376
  47   2.0000      -0.511696       -13.9239
  48   2.0000      -0.507626       -13.8132
  49   2.0000      -0.500592       -13.6218
  50   2.0000      -0.485897       -13.2219
  51   2.0000      -0.478259       -13.0141
  52   2.0000      -0.471816       -12.8388
  53   2.0000      -0.458882       -12.4868
  54   2.0000      -0.452858       -12.3229
  55   2.0000      -0.448535       -12.2052
  56   2.0000      -0.443637       -12.0720
  57   2.0000      -0.437687       -11.9101
  58   2.0000      -0.433413       -11.7938
  59   2.0000      -0.428262       -11.6536
  60   2.0000      -0.422021       -11.4838
  61   2.0000      -0.412757       -11.2317
  62   2.0000      -0.406440       -11.0598
  63   2.0000      -0.349023        -9.4974
  64   2.0000      -0.330565        -8.9951
  65   2.0000      -0.324581        -8.8323
  66   2.0000      -0.286937        -7.8079
  67   0.0000       0.019655         0.5349
  68   0.0000       0.074136         2.0173
  69   0.0000       0.101949         2.7742
  70   0.0000       0.110804         3.0151
  71   0.0000       0.127709         3.4751

MULLIKEN ATOMIC CHARGES
-----------------------
   0 S :    0.078378
   1 C :   -0.155317
   2 C :   -0.083049
   3 C :   -0.038276
   4 C :   -0.110329
   5 H :    0.035617
   6 C :    0.086204
   7 H :    0.051192
   8 H :    0.014498
   9 C :   -0.072812
  10 H :    0.040264
  11 H :    0.043645
  12 C :   -0.048523
  13 H :    0.029883
  14 H :    0.030739
  15 H :    0.030957
  16 S :    0.094107
  17 C :   -0.061956
  18 C :    0.020571
  19 C :   -0.046300
  20 C :   -0.137001
  21 H :   -0.007828
  22 C :    0.039941
  23 H :    0.010583
  24 H :    0.011348
  25 C :   -0.072028
  26 H :    0.031124
  27 H :    0.006906
  28 C :   -0.010510
  29 H :    0.023370
  30 H :    0.035110
  31 H :    0.036210
  32 H :    0.058412
  33 H :    0.034870
Sum of atomic charges:   -0.0000000

LOEWDIN ATOMIC CHARGES
----------------------
   0 S :    0.366524
   1 C :   -0.187941
   2 C :   -0.054106
   3 C :   -0.077798
   4 C :   -0.182851
   5 H :    0.036528
   6 C :   -0.035212
   7 H :    0.047179
   8 H :    0.030150
   9 C :   -0.039002
  10 H :    0.029277
  11 H :    0.029787
  12 C :   -0.067869
  13 H :    0.024774
  14 H :    0.026824
  15 H :    0.025294
  16 S :    0.371759
  17 C :   -0.159599
  18 C :   -0.053956
  19 C :   -0.041806
  20 C :   -0.178728
  21 H :    0.016908
  22 C :   -0.037459
  23 H :    0.025004
  24 H :    0.020320
  25 C :   -0.037772
  26 H :    0.028216
  27 H :    0.010140
  28 C :   -0.056851
  29 H :    0.019650
  30 H :    0.031994
  31 H :    0.026228
  32 H :    0.026983
  33 H :    0.017412

  Mayer bond orders larger than 0.100000
B(  0-S ,  1-C ) :   1.1192 B(  0-S ,  4-C ) :   1.1312 B(  1-C ,  2-C ) :   1.5885
B(  1-C , 32-H ) :   0.9777 B(  2-C ,  3-C ) :   1.2362 B(  2-C ,  6-C ) :   1.0153
B(  3-C ,  4-C ) :   1.5752 B(  3-C ,  5-H ) :   0.9767 B(  4-C , 20-C ) :   1.0768
B(  6-C ,  7-H ) :   0.9240 B(  6-C ,  8-H ) :   0.9355 B(  6-C ,  9-C ) :   1.0599
B(  9-C , 10-H ) :   0.9406 B(  9-C , 11-H ) :   0.9631 B(  9-C , 12-C ) :   1.0941
B( 12-C , 13-H ) :   0.9736 B( 12-C , 14-H ) :   0.9728 B( 12-C , 15-H ) :   0.9745
B( 16-S , 17-C ) :   1.1294 B( 16-S , 20-C ) :   1.1152 B( 17-C , 18-C ) :   1.6385
B( 17-C , 33-H ) :   0.9739 B( 18-C , 19-C ) :   1.2214 B( 18-C , 21-H ) :   0.9929
B( 19-C , 20-C ) :   1.5874 B( 19-C , 22-C ) :   1.0309 B( 22-C , 23-H ) :   0.9447
B( 22-C , 24-H ) :   0.9381 B( 22-C , 25-C ) :   1.0526 B( 25-C , 26-H ) :   0.9541
B( 25-C , 27-H ) :   0.9562 B( 25-C , 28-C ) :   1.0865 B( 28-C , 29-H ) :   0.9724
B( 28-C , 30-H ) :   0.9732 B( 28-C , 31-H ) :   0.9730

Dispersion correction           -0.013709797
FINAL SINGLE POINT ENERGY     -1339.864767400232

DIPOLE MOMENT
-------------
                                X             Y             Z
Electronic contribution:      3.68415      -5.18980     -16.54266
Nuclear contribution   :     -3.58121       5.37491      17.07540
                        -----------------------------------------
Total Dipole Moment    :      0.10293       0.18511       0.53274
                        -----------------------------------------
Magnitude (a.u.)       :      0.57330
Magnitude (Debye)      :      1.45722

Rotational constants in cm-1:     0.018182     0.008059     0.006585
Rotational constants in MHz :   545.088867   241.607286   197.412169

                             ****ORCA TERMINATED NORMALLY****
TOTAL RUN TIME: 0 days 0 hours 0 minutes 27 seconds 710 msec
