                         Program Version 4.2.1 -  RELEASE  -
|  1> ! wB97X-D3 SP def2-SVP
|  2> %pal
|  3> nprocs 16
|  4> end
|  5>
|  6> * xyz 0 1
|  7> S 	 3.51703 	 -27.6359 	 79.6939
|  8> C 	 2.49651 	 -29.0602 	 79.9379
|  9> C 	 3.30163 	 -30.1645 	 79.762
| 10> C 	 4.65223 	 -29.9367 	 79.4544
| 11> C 	 4.94259 	 -28.5812 	 79.2456
| 12> H 	 5.37869 	 -30.783 	 79.2951
| 13> C 	 2.83618 	 -31.628 	 80.0865
| 14> H 	 3.10955 	 -32.173 	 79.2094
| 15> H 	 1.80502 	 -31.5477 	 80.1615
| 16> C 	 3.52153 	 -32.35 	 81.2795
| 17> H 	 3.07938 	 -33.3532 	 81.282
| 18> H 	 4.62699 	 -32.494 	 81.1898
| 19> C 	 3.19764 	 -31.7059 	 82.69
| 20> H 	 3.05278 	 -32.5373 	 83.4784
| 21> H 	 3.97018 	 -30.9426 	 83.0835
| 22> H 	 2.20134 	 -31.2538 	 82.6844
| 23> S 	 6.62261 	 -26.3508 	 79.5707
| 24> C 	 8.13359 	 -26.2527 	 78.6656
| 25> C 	 8.28891 	 -27.3351 	 77.8961
| 26> C 	 7.12781 	 -28.2329 	 77.8378
| 27> C 	 6.15627 	 -27.9345 	 78.846
| 28> H 	 9.26943 	 -27.4022 	 77.4103
| 29> C 	 7.05518 	 -29.512 	 77.0238
| 30> H 	 7.28451 	 -29.0224 	 76.0491
| 31> H 	 6.01893 	 -29.8304 	 76.9881
| 32> C 	 7.95665 	 -30.7015 	 77.4031
| 33> H 	 7.74865 	 -31.5616 	 76.8117
| 34> H 	 7.71047 	 -30.9507 	 78.3991
| 35> C 	 9.48263 	 -30.4533 	 77.2579
| 36> H 	 9.82793 	 -29.9653 	 76.404
| 37> H 	 10.061 	 -31.3847 	 77.3318
| 38> H 	 9.79134 	 -29.8175 	 78.1162
| 39> H 	 1.43179 	 -29.1175 	 80.2342
| 40> H 	 8.78955 	 -25.3847 	 78.7789
| 41> *
| 42>
| 43>                          ****END OF INPUT****

CARTESIAN COORDINATES (ANGSTROEM)
---------------------------------
  S      3.517030  -27.635900   79.693900
  C      2.496510  -29.060200   79.937900
  C      3.301630  -30.164500   79.762000
  C      4.652230  -29.936700   79.454400
  C      4.942590  -28.581200   79.245600
  H      5.378690  -30.783000   79.295100
  C      2.836180  -31.628000   80.086500
  H      3.109550  -32.173000   79.209400
  H      1.805020  -31.547700   80.161500
  C      3.521530  -32.350000   81.279500
  H      3.079380  -33.353200   81.282000
  H      4.626990  -32.494000   81.189800
  C      3.197640  -31.705900   82.690000
  H      3.052780  -32.537300   83.478400
  H      3.970180  -30.942600   83.083500
  H      2.201340  -31.253800   82.684400
  S      6.622610  -26.350800   79.570700
  C      8.133590  -26.252700   78.665600
  C      8.288910  -27.335100   77.896100
  C      7.127810  -28.232900   77.837800
  C      6.156270  -27.934500   78.846000
  H      9.269430  -27.402200   77.410300
  C      7.055180  -29.512000   77.023800
  H      7.284510  -29.022400   76.049100
  H      6.018930  -29.830400   76.988100
  C      7.956650  -30.701500   77.403100
  H      7.748650  -31.561600   76.811700
  H      7.710470  -30.950700   78.399100
  C      9.482630  -30.453300   77.257900
  H      9.827930  -29.965300   76.404000
  H     10.061000  -31.384700   77.331800
  H      9.791340  -29.817500   78.116200
  H      1.431790  -29.117500   80.234200
  H      8.789550  -25.384700   78.778900

 Total Charge           Charge          ....    0
 Multiplicity           Mult            ....    1
 Number of Electrons    NEL             ....  134
 Basis Dimension        Dim             ....  322

ORBITAL ENERGIES
----------------

  NO   OCC          E(Eh)            E(eV)
   0   2.0000     -88.966856     -2420.9112
   1   2.0000     -88.959104     -2420.7003
   2   2.0000     -10.337091      -281.2865
   3   2.0000     -10.334792      -281.2240
   4   2.0000     -10.319919      -280.8193
   5   2.0000     -10.318952      -280.7930
   6   2.0000     -10.314476      -280.6712
   7   2.0000     -10.300904      -280.3019
   8   2.0000     -10.299044      -280.2512
   9   2.0000     -10.298503      -280.2365
  10   2.0000     -10.297668      -280.2138
  11   2.0000     -10.292882      -280.0836
  12   2.0000     -10.291108      -280.0353
  13   2.0000     -10.290031      -280.0060
  14   2.0000     -10.286903      -279.9209
  15   2.0000     -10.277060      -279.6530
  16   2.0000      -8.080892      -219.8922
  17   2.0000      -8.073387      -219.6880
  18   2.0000      -6.039569      -164.3450
  19   2.0000      -6.035419      -164.2321
  20   2.0000      -6.032041      -164.1402
  21   2.0000      -6.031550      -164.1268
  22   2.0000      -6.027955      -164.0290
  23   2.0000      -6.024006      -163.9215
  24   2.0000      -1.002486       -27.2790
  25   2.0000      -0.979535       -26.6545
  26   2.0000      -0.907229       -24.6870
  27   2.0000      -0.904373       -24.6093
  28   2.0000      -0.871190       -23.7063
  29   2.0000      -0.845257       -23.0006
  30   2.0000      -0.837149       -22.7800
  31   2.0000      -0.816586       -22.2204
  32   2.0000      -0.782713       -21.2987
  33   2.0000      -0.771443       -20.9920
  34   2.0000      -0.719815       -19.5872
  35   2.0000      -0.701643       -19.0927
  36   2.0000      -0.693297       -18.8656
  37   2.0000      -0.653218       -17.7750
  38   2.0000      -0.633279       -17.2324
  39   2.0000      -0.622731       -16.9454
  40   2.0000      -0.589455       -16.0399
  41   2.0000      -0.566260       -15.4087
  42   2.0000      -0.554437       -15.0870
  43   2.0000      -0.545781       -14.8514
  44   2.0000      -0.542160       -14.7529
  45   2.0000      -0.534634       -14.5481
  46   2.0000      -0.521779       -14.1983
  47   2.0000      -0.513132       -13.9630
  48   2.0000      -0.507901       -13.8207
  49   2.0000      -0.498308       -13.5596
  50   2.0000      -0.490344       -13.3429
  51   2.0000      -0.478220       -13.0130
  52   2.0000      -0.472849       -12.8669
  53   2.0000      -0.465296       -12.6613
  54   2.0000      -0.457584       -12.4515
  55   2.0000      -0.445642       -12.1265
  56   2.0000      -0.440272       -11.9804
  57   2.0000      -0.437190       -11.8966
  58   2.0000      -0.434735       -11.8297
  59   2.0000      -0.426865       -11.6156
  60   2.0000      -0.421961       -11.4821
  61   2.0000      -0.404920       -11.0184
  62   2.0000      -0.402849       -10.9621
  63   2.0000      -0.356029        -9.6881
  64   2.0000      -0.332076        -9.0362
  65   2.0000      -0.324946        -8.8422
  66   2.0000      -0.288119        -7.8401
  67   0.0000       0.016898         0.4598
  68   0.0000       0.076864         2.0916
  69   0.0000       0.106150         2.8885
  70   0.0000       0.123116         3.3502
  71   0.0000       0.130743         3.5577

MULLIKEN ATOMIC CHARGES
-----------------------
   0 S :    0.103744
   1 C :   -0.128735
   2 C :   -0.117093
   3 C :    0.006890
   4 C :   -0.136762
   5 H :    0.031030
   6 C :    0.109570
   7 H :    0.022762
   8 H :    0.000020
   9 C :   -0.077889
  10 H :    0.036657
  11 H :    0.043612
  12 C :   -0.107575
  13 H :    0.039557
  14 H :    0.066897
  15 H :    0.026647
  16 S :    0.070138
  17 C :   -0.098023
  18 C :   -0.032547
  19 C :   -0.061038
  20 C :   -0.128885
  21 H :    0.030629
  22 C :    0.036391
  23 H :    0.034711
  24 H :    0.030356
  25 C :   -0.005812
  26 H :    0.025333
  27 H :    0.018013
  28 C :   -0.066022
  29 H :    0.021200
  30 H :    0.033797
  31 H :    0.038570
  32 H :    0.063305
  33 H :    0.070552
Sum of atomic charges:    0.0000000

LOEWDIN ATOMIC CHARGES
----------------------
   0 S :    0.398358
   1 C :   -0.202791
   2 C :   -0.070446
   3 C :   -0.071191
   4 C :   -0.182883
   5 H :    0.039536
   6 C :   -0.019657
   7 H :    0.028534
   8 H :    0.016662
   9 C :   -0.043428
  10 H :    0.028890
  11 H :    0.029166
  12 C :   -0.084892
  13 H :    0.032925
  14 H :    0.039079
  15 H :    0.021005
  16 S :    0.361226
  17 C :   -0.171606
  18 C :   -0.083415
  19 C :   -0.047815
  20 C :   -0.184825
  21 H :    0.038404
  22 C :   -0.037936
  23 H :    0.037712
  24 H :    0.031193
  25 C :   -0.027959
  26 H :    0.022508
  27 H :    0.018698
  28 C :   -0.066165
  29 H :    0.013663
  30 H :    0.029481
  31 H :    0.030213
  32 H :    0.041307
  33 H :    0.036451

  Mayer bond orders larger than 0.100000
B(  0-S ,  1-C ) :   1.1253 B(  0-S ,  4-C ) :   1.1545 B(  1-C ,  2-C ) :   1.6032
B(  1-C ,  4-C ) :   0.1038 B(  1-C , 32-H ) :   0.9637 B(  2-C ,  3-C ) :   1.2710
B(  2-C ,  6-C ) :   1.0130 B(  3-C ,  4-C ) :   1.5179 B(  3-C ,  5-H ) :   0.9839
B(  4-C , 20-C ) :   1.1074 B(  6-C ,  7-H ) :   0.9350 B(  6-C ,  8-H ) :   0.9426
B(  6-C ,  9-C ) :   1.0799 B(  9-C , 10-H ) :   0.9565 B(  9-C , 11-H ) :   0.9565
B(  9-C , 12-C ) :   1.0528 B( 12-C , 13-H ) :   0.9781 B( 12-C , 14-H ) :   0.9763
B( 12-C , 15-H ) :   0.9783 B( 16-S , 17-C ) :   1.1365 B( 16-S , 20-C ) :   1.1140
B( 17-C , 18-C ) :   1.6517 B( 17-C , 33-H ) :   0.9644 B( 18-C , 19-C ) :   1.1924
B( 18-C , 21-H ) :   0.9854 B( 19-C , 20-C ) :   1.5689 B( 19-C , 22-C ) :   1.0462
B( 22-C , 23-H ) :   0.9329 B( 22-C , 24-H ) :   0.9328 B( 22-C , 25-C ) :   1.0622
B( 25-C , 26-H ) :   0.9568 B( 25-C , 27-H ) :   0.9505 B( 25-C , 28-C ) :   1.0805
B( 28-C , 29-H ) :   0.9788 B( 28-C , 30-H ) :   0.9725 B( 28-C , 31-H ) :   0.9729

Dispersion correction           -0.014664491
FINAL SINGLE POINT ENERGY     -1339.865031760071

DIPOLE MOMENT
-------------
                                X             Y             Z
Electronic contribution:     -5.27360      25.66230      -0.54962
Nuclear contribution   :      5.50340     -26.38363       0.39142
                        -----------------------------------------
Total Dipole Moment    :      0.22980      -0.72133      -0.15820
                        -----------------------------------------
Magnitude (a.u.)       :      0.77340
Magnitude (Debye)      :      1.96584

Rotational constants in cm-1:     0.018910     0.008760     0.006769
Rotational constants in MHz :   566.911420   262.618033   202.936460

                             ****ORCA TERMINATED NORMALLY****
TOTAL RUN TIME: 0 days 0 hours 0 minutes 33 seconds 969 msec
