                         Program Version 4.2.1 -  RELEASE  -
|  1> ! wB97X-D3 SP def2-SVP
|  2> %pal
|  3> nprocs 16
|  4> end
|  5>
|  6> * xyz 0 1
|  7> S 	 -43.2117 	 25.5844 	 76.2271
|  8> C 	 -43.8227 	 24.8435 	 77.7505
|  9> C 	 -42.9964 	 23.7925 	 78.1658
| 10> C 	 -42.0842 	 23.4266 	 77.0953
| 11> C 	 -41.9025 	 24.3827 	 76.1404
| 12> H 	 -41.4638 	 22.5304 	 77.0912
| 13> C 	 -43.2285 	 23.0674 	 79.455
| 14> H 	 -44.0412 	 22.3953 	 79.4619
| 15> H 	 -43.4802 	 23.8319 	 80.1788
| 16> C 	 -42.0654 	 22.2547 	 80.0931
| 17> H 	 -42.3334 	 21.6133 	 80.9903
| 18> H 	 -41.8006 	 21.553 	 79.3329
| 19> C 	 -40.7455 	 22.9043 	 80.5352
| 20> H 	 -40.8385 	 23.6054 	 81.4114
| 21> H 	 -40.0057 	 22.2141 	 80.9191
| 22> H 	 -40.1832 	 23.3415 	 79.664
| 23> S 	 -40.3744 	 22.8356 	 74.3555
| 24> C 	 -39.3538 	 23.6564 	 73.1856
| 25> C 	 -39.34 	 25.0034 	 73.3809
| 26> C 	 -40.2018 	 25.399 	 74.4643
| 27> C 	 -40.9407 	 24.3517 	 75.0151
| 28> H 	 -38.8436 	 25.6298 	 72.7381
| 29> C 	 -40.3201 	 26.9042 	 74.7856
| 30> H 	 -39.275 	 27.2997 	 74.902
| 31> H 	 -40.7803 	 27.0059 	 75.7426
| 32> C 	 -41.1218 	 27.6879 	 73.705
| 33> H 	 -42.2175 	 27.3854 	 73.6362
| 34> H 	 -40.6415 	 27.5797 	 72.7581
| 35> C 	 -41.0596 	 29.1663 	 74.1208
| 36> H 	 -41.3947 	 29.2791 	 75.1243
| 37> H 	 -41.8304 	 29.7551 	 73.5724
| 38> H 	 -40.0747 	 29.5638 	 74.1448
| 39> H 	 -44.5173 	 25.4044 	 78.3163
| 40> H 	 -38.9957 	 23.1086 	 72.2959
| 41> *
| 42>
| 43>                          ****END OF INPUT****

CARTESIAN COORDINATES (ANGSTROEM)
---------------------------------
  S    -43.211700   25.584400   76.227100
  C    -43.822700   24.843500   77.750500
  C    -42.996400   23.792500   78.165800
  C    -42.084200   23.426600   77.095300
  C    -41.902500   24.382700   76.140400
  H    -41.463800   22.530400   77.091200
  C    -43.228500   23.067400   79.455000
  H    -44.041200   22.395300   79.461900
  H    -43.480200   23.831900   80.178800
  C    -42.065400   22.254700   80.093100
  H    -42.333400   21.613300   80.990300
  H    -41.800600   21.553000   79.332900
  C    -40.745500   22.904300   80.535200
  H    -40.838500   23.605400   81.411400
  H    -40.005700   22.214100   80.919100
  H    -40.183200   23.341500   79.664000
  S    -40.374400   22.835600   74.355500
  C    -39.353800   23.656400   73.185600
  C    -39.340000   25.003400   73.380900
  C    -40.201800   25.399000   74.464300
  C    -40.940700   24.351700   75.015100
  H    -38.843600   25.629800   72.738100
  C    -40.320100   26.904200   74.785600
  H    -39.275000   27.299700   74.902000
  H    -40.780300   27.005900   75.742600
  C    -41.121800   27.687900   73.705000
  H    -42.217500   27.385400   73.636200
  H    -40.641500   27.579700   72.758100
  C    -41.059600   29.166300   74.120800
  H    -41.394700   29.279100   75.124300
  H    -41.830400   29.755100   73.572400
  H    -40.074700   29.563800   74.144800
  H    -44.517300   25.404400   78.316300
  H    -38.995700   23.108600   72.295900

 Total Charge           Charge          ....    0
 Multiplicity           Mult            ....    1
 Number of Electrons    NEL             ....  134
 Basis Dimension        Dim             ....  322

ORBITAL ENERGIES
----------------

  NO   OCC          E(Eh)            E(eV)
   0   2.0000     -88.966671     -2420.9062
   1   2.0000     -88.964352     -2420.8431
   2   2.0000     -10.335114      -281.2327
   3   2.0000     -10.330006      -281.0937
   4   2.0000     -10.320127      -280.8249
   5   2.0000     -10.317451      -280.7521
   6   2.0000     -10.311518      -280.5907
   7   2.0000     -10.304475      -280.3990
   8   2.0000     -10.296978      -280.1950
   9   2.0000     -10.292636      -280.0769
  10   2.0000     -10.292579      -280.0753
  11   2.0000     -10.291370      -280.0424
  12   2.0000     -10.289584      -279.9938
  13   2.0000     -10.289487      -279.9912
  14   2.0000     -10.281321      -279.7690
  15   2.0000     -10.270797      -279.4826
  16   2.0000      -8.079879      -219.8647
  17   2.0000      -8.079205      -219.8463
  18   2.0000      -6.038571      -164.3179
  19   2.0000      -6.037823      -164.2975
  20   2.0000      -6.034671      -164.2117
  21   2.0000      -6.033698      -164.1853
  22   2.0000      -6.030481      -164.0977
  23   2.0000      -6.029870      -164.0811
  24   2.0000      -1.003223       -27.2991
  25   2.0000      -0.980693       -26.6860
  26   2.0000      -0.909064       -24.7369
  27   2.0000      -0.905328       -24.6352
  28   2.0000      -0.869185       -23.6517
  29   2.0000      -0.849364       -23.1124
  30   2.0000      -0.840181       -22.8625
  31   2.0000      -0.820290       -22.3212
  32   2.0000      -0.784316       -21.3423
  33   2.0000      -0.768149       -20.9024
  34   2.0000      -0.706397       -19.2220
  35   2.0000      -0.699079       -19.0229
  36   2.0000      -0.687638       -18.7116
  37   2.0000      -0.669687       -18.2231
  38   2.0000      -0.636608       -17.3230
  39   2.0000      -0.623076       -16.9548
  40   2.0000      -0.597513       -16.2592
  41   2.0000      -0.569106       -15.4862
  42   2.0000      -0.565349       -15.3839
  43   2.0000      -0.554144       -15.0790
  44   2.0000      -0.539966       -14.6932
  45   2.0000      -0.523714       -14.2510
  46   2.0000      -0.519112       -14.1258
  47   2.0000      -0.512339       -13.9415
  48   2.0000      -0.501682       -13.6515
  49   2.0000      -0.497999       -13.5512
  50   2.0000      -0.489084       -13.3087
  51   2.0000      -0.478007       -13.0072
  52   2.0000      -0.465033       -12.6542
  53   2.0000      -0.462186       -12.5767
  54   2.0000      -0.460486       -12.5305
  55   2.0000      -0.452373       -12.3097
  56   2.0000      -0.447124       -12.1669
  57   2.0000      -0.435925       -11.8621
  58   2.0000      -0.430569       -11.7164
  59   2.0000      -0.427363       -11.6291
  60   2.0000      -0.416070       -11.3218
  61   2.0000      -0.410832       -11.1793
  62   2.0000      -0.407547       -11.0899
  63   2.0000      -0.355561        -9.6753
  64   2.0000      -0.329986        -8.9794
  65   2.0000      -0.328980        -8.9520
  66   2.0000      -0.289202        -7.8696
  67   0.0000       0.025028         0.6810
  68   0.0000       0.072363         1.9691
  69   0.0000       0.100222         2.7272
  70   0.0000       0.109169         2.9706
  71   0.0000       0.132186         3.5970

MULLIKEN ATOMIC CHARGES
-----------------------
   0 S :    0.078479
   1 C :   -0.111328
   2 C :   -0.078154
   3 C :   -0.020393
   4 C :   -0.108774
   5 H :    0.022958
   6 C :    0.110171
   7 H :    0.039908
   8 H :    0.021155
   9 C :   -0.115299
  10 H :    0.039575
  11 H :    0.020314
  12 C :   -0.078560
  13 H :    0.037046
  14 H :    0.026014
  15 H :    0.042335
  16 S :    0.084195
  17 C :   -0.100069
  18 C :    0.017713
  19 C :   -0.062818
  20 C :   -0.114369
  21 H :   -0.009433
  22 C :    0.031128
  23 H :    0.037277
  24 H :    0.015470
  25 C :   -0.071373
  26 H :    0.047835
  27 H :    0.026116
  28 C :   -0.015438
  29 H :    0.008814
  30 H :    0.035735
  31 H :    0.022487
  32 H :    0.046320
  33 H :    0.074963
Sum of atomic charges:    0.0000000

LOEWDIN ATOMIC CHARGES
----------------------
   0 S :    0.374944
   1 C :   -0.172545
   2 C :   -0.049370
   3 C :   -0.072661
   4 C :   -0.169011
   5 H :    0.028219
   6 C :   -0.029572
   7 H :    0.034217
   8 H :    0.033350
   9 C :   -0.050551
  10 H :    0.035696
  11 H :    0.017836
  12 C :   -0.081024
  13 H :    0.027794
  14 H :    0.025785
  15 H :    0.030299
  16 S :    0.395483
  17 C :   -0.176676
  18 C :   -0.059678
  19 C :   -0.052657
  20 C :   -0.200906
  21 H :    0.018517
  22 C :   -0.034197
  23 H :    0.037285
  24 H :    0.015222
  25 C :   -0.034508
  26 H :    0.033448
  27 H :    0.017318
  28 C :   -0.065825
  29 H :    0.020105
  30 H :    0.030333
  31 H :    0.019691
  32 H :    0.016993
  33 H :    0.036647

  Mayer bond orders larger than 0.100000
B(  0-S ,  1-C ) :   1.1200 B(  0-S ,  4-C ) :   1.1322 B(  1-C ,  2-C ) :   1.6309
B(  1-C , 32-H ) :   0.9712 B(  2-C ,  3-C ) :   1.2071 B(  2-C ,  6-C ) :   1.0197
B(  3-C ,  4-C ) :   1.6203 B(  3-C ,  5-H ) :   0.9797 B(  4-C , 20-C ) :   1.0383
B(  6-C ,  7-H ) :   0.9367 B(  6-C ,  8-H ) :   0.9377 B(  6-C ,  9-C ) :   1.0647
B(  9-C , 10-H ) :   0.9577 B(  9-C , 11-H ) :   0.9515 B(  9-C , 12-C ) :   1.0873
B( 12-C , 13-H ) :   0.9741 B( 12-C , 14-H ) :   0.9707 B( 12-C , 15-H ) :   0.9717
B( 16-S , 17-C ) :   1.1517 B( 16-S , 20-C ) :   1.1275 B( 17-C , 18-C ) :   1.6141
B( 17-C , 33-H ) :   0.9615 B( 18-C , 19-C ) :   1.2245 B( 18-C , 21-H ) :   1.0064
B( 19-C , 20-C ) :   1.5916 B( 19-C , 22-C ) :   1.0446 B( 22-C , 23-H ) :   0.9394
B( 22-C , 24-H ) :   0.9301 B( 22-C , 25-C ) :   1.0610 B( 25-C , 26-H ) :   0.9532
B( 25-C , 27-H ) :   0.9584 B( 25-C , 28-C ) :   1.0830 B( 28-C , 29-H ) :   0.9694
B( 28-C , 30-H ) :   0.9726 B( 28-C , 31-H ) :   0.9736

Dispersion correction           -0.014174102
FINAL SINGLE POINT ENERGY     -1339.870089258679

DIPOLE MOMENT
-------------
                                X             Y             Z
Electronic contribution:     -3.39369      -8.60228     -12.18517
Nuclear contribution   :      3.54090       8.69545      12.38291
                        -----------------------------------------
Total Dipole Moment    :      0.14721       0.09317       0.19774
                        -----------------------------------------
Magnitude (a.u.)       :      0.26354
Magnitude (Debye)      :      0.66987

Rotational constants in cm-1:     0.018991     0.008497     0.006773
Rotational constants in MHz :   569.340187   254.721443   203.041847

                             ****ORCA TERMINATED NORMALLY****
TOTAL RUN TIME: 0 days 0 hours 0 minutes 29 seconds 472 msec
