                         Program Version 4.2.1 -  RELEASE  -
|  1> ! wB97X-D3 SP def2-SVP
|  2> %pal
|  3> nprocs 16
|  4> end
|  5>
|  6> * xyz 0 1
|  7> S 	 -11.754 	 58.1346 	 58.8048
|  8> C 	 -10.8973 	 56.7618 	 58.3114
|  9> C 	 -10.9671 	 55.7309 	 59.255
| 10> C 	 -11.8111 	 56.0951 	 60.4032
| 11> C 	 -12.2311 	 57.4361 	 60.3118
| 12> H 	 -11.9527 	 55.5402 	 61.3271
| 13> C 	 -10.4985 	 54.2619 	 59.0172
| 14> H 	 -9.33337 	 54.3396 	 58.9758
| 15> H 	 -10.6944 	 53.975 	 58.031
| 16> C 	 -10.9404 	 53.0453 	 59.8379
| 17> H 	 -10.4252 	 52.2754 	 59.254
| 18> H 	 -10.5266 	 53.0361 	 60.8245
| 19> C 	 -12.4727 	 52.8623 	 59.7893
| 20> H 	 -12.6349 	 51.805 	 60.0318
| 21> H 	 -13.0658 	 53.5157 	 60.5488
| 22> H 	 -12.8468 	 53.1033 	 58.8305
| 23> S 	 -12.3054 	 59.0938 	 62.5343
| 24> C 	 -13.8342 	 59.7822 	 63.0451
| 25> C 	 -14.8775 	 59.1921 	 62.3332
| 26> C 	 -14.4517 	 58.2491 	 61.3031
| 27> C 	 -13.0948 	 58.2086 	 61.1839
| 28> H 	 -15.9069 	 59.315 	 62.5924
| 29> C 	 -15.5119 	 57.5951 	 60.424
| 30> H 	 -16.3244 	 57.1973 	 61.0031
| 31> H 	 -15.0473 	 56.7677 	 59.9143
| 32> C 	 -16.1989 	 58.5908 	 59.4409
| 33> H 	 -16.7211 	 59.4174 	 59.9825
| 34> H 	 -17.0784 	 58.0304 	 58.9679
| 35> C 	 -15.2298 	 59.1084 	 58.3533
| 36> H 	 -14.3874 	 59.6453 	 58.7355
| 37> H 	 -15.7728 	 59.7891 	 57.7576
| 38> H 	 -14.7497 	 58.3362 	 57.8065
| 39> H 	 -10.255 	 56.743 	 57.3866
| 40> H 	 -14.1279 	 60.3078 	 63.9718
| 41> *
| 42>
| 43>                          ****END OF INPUT****

CARTESIAN COORDINATES (ANGSTROEM)
---------------------------------
  S    -11.754000   58.134600   58.804800
  C    -10.897300   56.761800   58.311400
  C    -10.967100   55.730900   59.255000
  C    -11.811100   56.095100   60.403200
  C    -12.231100   57.436100   60.311800
  H    -11.952700   55.540200   61.327100
  C    -10.498500   54.261900   59.017200
  H     -9.333370   54.339600   58.975800
  H    -10.694400   53.975000   58.031000
  C    -10.940400   53.045300   59.837900
  H    -10.425200   52.275400   59.254000
  H    -10.526600   53.036100   60.824500
  C    -12.472700   52.862300   59.789300
  H    -12.634900   51.805000   60.031800
  H    -13.065800   53.515700   60.548800
  H    -12.846800   53.103300   58.830500
  S    -12.305400   59.093800   62.534300
  C    -13.834200   59.782200   63.045100
  C    -14.877500   59.192100   62.333200
  C    -14.451700   58.249100   61.303100
  C    -13.094800   58.208600   61.183900
  H    -15.906900   59.315000   62.592400
  C    -15.511900   57.595100   60.424000
  H    -16.324400   57.197300   61.003100
  H    -15.047300   56.767700   59.914300
  C    -16.198900   58.590800   59.440900
  H    -16.721100   59.417400   59.982500
  H    -17.078400   58.030400   58.967900
  C    -15.229800   59.108400   58.353300
  H    -14.387400   59.645300   58.735500
  H    -15.772800   59.789100   57.757600
  H    -14.749700   58.336200   57.806500
  H    -10.255000   56.743000   57.386600
  H    -14.127900   60.307800   63.971800

 Total Charge           Charge          ....    0
 Multiplicity           Mult            ....    1
 Number of Electrons    NEL             ....  134
 Basis Dimension        Dim             ....  322

ORBITAL ENERGIES
----------------

  NO   OCC          E(Eh)            E(eV)
   0   2.0000     -88.967246     -2420.9218
   1   2.0000     -88.963355     -2420.8160
   2   2.0000     -10.327405      -281.0230
   3   2.0000     -10.325363      -280.9674
   4   2.0000     -10.319779      -280.8155
   5   2.0000     -10.315911      -280.7102
   6   2.0000     -10.309697      -280.5411
   7   2.0000     -10.303042      -280.3600
   8   2.0000     -10.302535      -280.3462
   9   2.0000     -10.296014      -280.1688
  10   2.0000     -10.294342      -280.1233
  11   2.0000     -10.291836      -280.0551
  12   2.0000     -10.290254      -280.0121
  13   2.0000     -10.288837      -279.9735
  14   2.0000     -10.284402      -279.8528
  15   2.0000     -10.262062      -279.2449
  16   2.0000      -8.082881      -219.9464
  17   2.0000      -8.077261      -219.7935
  18   2.0000      -6.041158      -164.3883
  19   2.0000      -6.037028      -164.2759
  20   2.0000      -6.035999      -164.2479
  21   2.0000      -6.034061      -164.1952
  22   2.0000      -6.031934      -164.1373
  23   2.0000      -6.027764      -164.0238
  24   2.0000      -1.005043       -27.3486
  25   2.0000      -0.979969       -26.6663
  26   2.0000      -0.909688       -24.7539
  27   2.0000      -0.901872       -24.5412
  28   2.0000      -0.868672       -23.6378
  29   2.0000      -0.844075       -22.9684
  30   2.0000      -0.840189       -22.8627
  31   2.0000      -0.810147       -22.0452
  32   2.0000      -0.785389       -21.3715
  33   2.0000      -0.773116       -21.0376
  34   2.0000      -0.707847       -19.2615
  35   2.0000      -0.695845       -18.9349
  36   2.0000      -0.685430       -18.6515
  37   2.0000      -0.656820       -17.8730
  38   2.0000      -0.643537       -17.5115
  39   2.0000      -0.617078       -16.7916
  40   2.0000      -0.590042       -16.0559
  41   2.0000      -0.567733       -15.4488
  42   2.0000      -0.548223       -14.9179
  43   2.0000      -0.545450       -14.8425
  44   2.0000      -0.536981       -14.6120
  45   2.0000      -0.528741       -14.3878
  46   2.0000      -0.515645       -14.0314
  47   2.0000      -0.510149       -13.8819
  48   2.0000      -0.500521       -13.6199
  49   2.0000      -0.499412       -13.5897
  50   2.0000      -0.494751       -13.4629
  51   2.0000      -0.483101       -13.1458
  52   2.0000      -0.468789       -12.7564
  53   2.0000      -0.461318       -12.5531
  54   2.0000      -0.457002       -12.4357
  55   2.0000      -0.443615       -12.0714
  56   2.0000      -0.441843       -12.0232
  57   2.0000      -0.434534       -11.8243
  58   2.0000      -0.431504       -11.7418
  59   2.0000      -0.423431       -11.5221
  60   2.0000      -0.421336       -11.4651
  61   2.0000      -0.416001       -11.3200
  62   2.0000      -0.407527       -11.0894
  63   2.0000      -0.333824        -9.0838
  64   2.0000      -0.324124        -8.8199
  65   2.0000      -0.319214        -8.6863
  66   2.0000      -0.312039        -8.4910
  67   0.0000       0.047930         1.3042
  68   0.0000       0.049958         1.3594
  69   0.0000       0.106175         2.8892
  70   0.0000       0.117973         3.2102
  71   0.0000       0.130260         3.5446

MULLIKEN ATOMIC CHARGES
-----------------------
   0 S :    0.131401
   1 C :   -0.143644
   2 C :   -0.074822
   3 C :    0.043085
   4 C :   -0.194718
   5 H :    0.030123
   6 C :   -0.013605
   7 H :    0.041191
   8 H :    0.015235
   9 C :   -0.035921
  10 H :    0.031762
  11 H :    0.032223
  12 C :   -0.061049
  13 H :    0.039829
  14 H :    0.049814
  15 H :    0.025455
  16 S :    0.103427
  17 C :   -0.079278
  18 C :   -0.052461
  19 C :   -0.001369
  20 C :   -0.204004
  21 H :    0.011168
  22 C :    0.097691
  23 H :    0.019072
  24 H :    0.024645
  25 C :   -0.117761
  26 H :    0.034443
  27 H :    0.036135
  28 C :   -0.002308
  29 H :    0.025839
  30 H :    0.022694
  31 H :    0.021370
  32 H :    0.073078
  33 H :    0.071259
Sum of atomic charges:   -0.0000000

LOEWDIN ATOMIC CHARGES
----------------------
   0 S :    0.461388
   1 C :   -0.230244
   2 C :   -0.065666
   3 C :   -0.059471
   4 C :   -0.213178
   5 H :    0.035098
   6 C :   -0.043880
   7 H :    0.041040
   8 H :    0.019628
   9 C :   -0.039116
  10 H :    0.034164
  11 H :    0.019971
  12 C :   -0.065530
  13 H :    0.028791
  14 H :    0.036781
  15 H :    0.019037
  16 S :    0.384351
  17 C :   -0.194228
  18 C :   -0.068662
  19 C :   -0.047101
  20 C :   -0.200051
  21 H :    0.023449
  22 C :   -0.028498
  23 H :    0.029793
  24 H :    0.027945
  25 C :   -0.039229
  26 H :    0.024929
  27 H :    0.028917
  28 C :   -0.062151
  29 H :    0.018557
  30 H :    0.021414
  31 H :    0.018055
  32 H :    0.041384
  33 H :    0.042315

  Mayer bond orders larger than 0.100000
B(  0-S ,  1-C ) :   1.1732 B(  0-S ,  4-C ) :   1.1881 B(  1-C ,  2-C ) :   1.5862
B(  1-C , 32-H ) :   0.9635 B(  2-C ,  3-C ) :   1.2585 B(  2-C ,  6-C ) :   0.9954
B(  3-C ,  4-C ) :   1.5653 B(  3-C ,  5-H ) :   0.9859 B(  4-C , 20-C ) :   1.0078
B(  6-C ,  7-H ) :   0.9362 B(  6-C ,  8-H ) :   0.9546 B(  6-C ,  9-C ) :   1.0806
B(  9-C , 10-H ) :   0.9504 B(  9-C , 11-H ) :   0.9536 B(  9-C , 12-C ) :   1.0683
B( 12-C , 13-H ) :   0.9747 B( 12-C , 14-H ) :   0.9724 B( 12-C , 15-H ) :   0.9770
B( 16-S , 17-C ) :   1.1371 B( 16-S , 20-C ) :   1.1188 B( 17-C , 18-C ) :   1.6393
B( 17-C , 33-H ) :   0.9585 B( 18-C , 19-C ) :   1.2084 B( 18-C , 21-H ) :   0.9842
B( 19-C , 20-C ) :   1.6364 B( 19-C , 22-C ) :   1.0532 B( 22-C , 23-H ) :   0.9290
B( 22-C , 24-H ) :   0.9344 B( 22-C , 25-C ) :   1.0712 B( 25-C , 26-H ) :   0.9559
B( 25-C , 27-H ) :   0.9561 B( 25-C , 28-C ) :   1.0677 B( 28-C , 29-H ) :   0.9728
B( 28-C , 30-H ) :   0.9714 B( 28-C , 31-H ) :   0.9731

Dispersion correction           -0.015663238
FINAL SINGLE POINT ENERGY     -1339.868779978613

DIPOLE MOMENT
-------------
                                X             Y             Z
Electronic contribution:      9.94511      16.77585       8.76476
Nuclear contribution   :    -10.24994     -17.37152      -8.88555
                        -----------------------------------------
Total Dipole Moment    :     -0.30483      -0.59567      -0.12079
                        -----------------------------------------
Magnitude (a.u.)       :      0.67995
Magnitude (Debye)      :      1.72829

Rotational constants in cm-1:     0.019454     0.008637     0.008100
Rotational constants in MHz :   583.214325   258.944720   242.844953

                             ****ORCA TERMINATED NORMALLY****
TOTAL RUN TIME: 0 days 0 hours 0 minutes 32 seconds 684 msec
