                         Program Version 4.2.1 -  RELEASE  -
|  1> ! wB97X-D3 SP def2-SVP
|  2> %pal
|  3> nprocs 16
|  4> end
|  5>
|  6> * xyz 0 1
|  7> S 	 54.4081 	 0.136507 	 82.7473
|  8> C 	 53.0995 	 0.137996 	 83.8972
|  9> C 	 53.2755 	 1.15964 	 84.8722
| 10> C 	 54.4503 	 1.99546 	 84.5536
| 11> C 	 55.0721 	 1.63921 	 83.3902
| 12> H 	 54.7608 	 2.8243 	 85.0735
| 13> C 	 52.3518 	 1.42816 	 85.9536
| 14> H 	 52.5984 	 2.39954 	 86.3855
| 15> H 	 52.574 	 0.717305 	 86.7532
| 16> C 	 50.8475 	 1.47802 	 85.6079
| 17> H 	 50.7852 	 2.18632 	 84.7079
| 18> H 	 50.5373 	 0.532099 	 85.0783
| 19> C 	 49.7502 	 1.82883 	 86.6228
| 20> H 	 50.0358 	 2.75018 	 87.0547
| 21> H 	 48.753 	 1.8368 	 86.1641
| 22> H 	 49.6956 	 1.06873 	 87.4651
| 23> S 	 55.9517 	 4.26896 	 82.9173
| 24> C 	 57.2219 	 4.63802 	 81.6967
| 25> C 	 57.4898 	 3.52065 	 81.0113
| 26> C 	 56.7861 	 2.34916 	 81.4213
| 27> C 	 56.0177 	 2.5041 	 82.5533
| 28> H 	 58.2302 	 3.56619 	 80.2259
| 29> C 	 57.2056 	 1.07029 	 80.7348
| 30> H 	 57.2907 	 0.414957 	 81.6223
| 31> H 	 58.166 	 1.23499 	 80.3439
| 32> C 	 56.3116 	 0.49406 	 79.5935
| 33> H 	 56.2859 	 1.22162 	 78.7732
| 34> H 	 55.2995 	 0.330054 	 80.0189
| 35> C 	 56.9112 	 -0.801316 	 79.0217
| 36> H 	 57.1309 	 -1.69161 	 79.7156
| 37> H 	 57.84 	 -0.642578 	 78.36
| 38> H 	 56.0852 	 -1.19933 	 78.3127
| 39> H 	 52.4301 	 -0.676827 	 83.9921
| 40> H 	 57.4905 	 5.57806 	 81.2946
| 41> *
| 42>
| 43>                          ****END OF INPUT****

CARTESIAN COORDINATES (ANGSTROEM)
---------------------------------
  S     54.408100    0.136507   82.747300
  C     53.099500    0.137996   83.897200
  C     53.275500    1.159640   84.872200
  C     54.450300    1.995460   84.553600
  C     55.072100    1.639210   83.390200
  H     54.760800    2.824300   85.073500
  C     52.351800    1.428160   85.953600
  H     52.598400    2.399540   86.385500
  H     52.574000    0.717305   86.753200
  C     50.847500    1.478020   85.607900
  H     50.785200    2.186320   84.707900
  H     50.537300    0.532099   85.078300
  C     49.750200    1.828830   86.622800
  H     50.035800    2.750180   87.054700
  H     48.753000    1.836800   86.164100
  H     49.695600    1.068730   87.465100
  S     55.951700    4.268960   82.917300
  C     57.221900    4.638020   81.696700
  C     57.489800    3.520650   81.011300
  C     56.786100    2.349160   81.421300
  C     56.017700    2.504100   82.553300
  H     58.230200    3.566190   80.225900
  C     57.205600    1.070290   80.734800
  H     57.290700    0.414957   81.622300
  H     58.166000    1.234990   80.343900
  C     56.311600    0.494060   79.593500
  H     56.285900    1.221620   78.773200
  H     55.299500    0.330054   80.018900
  C     56.911200   -0.801316   79.021700
  H     57.130900   -1.691610   79.715600
  H     57.840000   -0.642578   78.360000
  H     56.085200   -1.199330   78.312700
  H     52.430100   -0.676827   83.992100
  H     57.490500    5.578060   81.294600

 Total Charge           Charge          ....    0
 Multiplicity           Mult            ....    1
 Number of Electrons    NEL             ....  134
 Basis Dimension        Dim             ....  322

ORBITAL ENERGIES
----------------

  NO   OCC          E(Eh)            E(eV)
   0   2.0000     -88.969129     -2420.9731
   1   2.0000     -88.961954     -2420.7778
   2   2.0000     -10.340997      -281.3928
   3   2.0000     -10.339903      -281.3631
   4   2.0000     -10.317651      -280.7576
   5   2.0000     -10.313779      -280.6522
   6   2.0000     -10.310975      -280.5759
   7   2.0000     -10.301191      -280.3097
   8   2.0000     -10.297220      -280.2016
   9   2.0000     -10.296321      -280.1771
  10   2.0000     -10.295015      -280.1416
  11   2.0000     -10.292802      -280.0814
  12   2.0000     -10.292105      -280.0624
  13   2.0000     -10.288442      -279.9628
  14   2.0000     -10.285761      -279.8898
  15   2.0000     -10.285623      -279.8860
  16   2.0000      -8.083346      -219.9590
  17   2.0000      -8.075295      -219.7399
  18   2.0000      -6.041981      -164.4107
  19   2.0000      -6.037846      -164.2981
  20   2.0000      -6.034176      -164.1983
  21   2.0000      -6.034108      -164.1964
  22   2.0000      -6.030089      -164.0871
  23   2.0000      -6.025645      -163.9661
  24   2.0000      -1.001779       -27.2598
  25   2.0000      -0.982752       -26.7420
  26   2.0000      -0.913947       -24.8698
  27   2.0000      -0.902534       -24.5592
  28   2.0000      -0.868257       -23.6265
  29   2.0000      -0.853869       -23.2349
  30   2.0000      -0.843229       -22.9454
  31   2.0000      -0.822777       -22.3889
  32   2.0000      -0.780727       -21.2447
  33   2.0000      -0.765176       -20.8215
  34   2.0000      -0.706395       -19.2220
  35   2.0000      -0.699844       -19.0437
  36   2.0000      -0.687370       -18.7043
  37   2.0000      -0.667579       -18.1657
  38   2.0000      -0.648002       -17.6330
  39   2.0000      -0.613276       -16.6881
  40   2.0000      -0.588316       -16.0089
  41   2.0000      -0.576973       -15.7002
  42   2.0000      -0.565391       -15.3851
  43   2.0000      -0.558566       -15.1994
  44   2.0000      -0.528357       -14.3773
  45   2.0000      -0.523097       -14.2342
  46   2.0000      -0.518100       -14.0982
  47   2.0000      -0.511915       -13.9299
  48   2.0000      -0.508024       -13.8240
  49   2.0000      -0.504768       -13.7354
  50   2.0000      -0.491201       -13.3663
  51   2.0000      -0.482906       -13.1405
  52   2.0000      -0.471053       -12.8180
  53   2.0000      -0.466494       -12.6939
  54   2.0000      -0.458415       -12.4741
  55   2.0000      -0.449056       -12.2194
  56   2.0000      -0.444029       -12.0827
  57   2.0000      -0.433972       -11.8090
  58   2.0000      -0.428512       -11.6604
  59   2.0000      -0.420864       -11.4523
  60   2.0000      -0.418299       -11.3825
  61   2.0000      -0.407807       -11.0970
  62   2.0000      -0.403689       -10.9849
  63   2.0000      -0.361660        -9.8413
  64   2.0000      -0.328809        -8.9474
  65   2.0000      -0.327383        -8.9086
  66   2.0000      -0.289331        -7.8731
  67   0.0000       0.018865         0.5133
  68   0.0000       0.074443         2.0257
  69   0.0000       0.100936         2.7466
  70   0.0000       0.115605         3.1458
  71   0.0000       0.130654         3.5553

MULLIKEN ATOMIC CHARGES
-----------------------
   0 S :    0.097519
   1 C :   -0.106011
   2 C :   -0.110714
   3 C :    0.024072
   4 C :   -0.083112
   5 H :   -0.010715
   6 C :    0.105331
   7 H :    0.013506
   8 H :    0.040589
   9 C :   -0.155210
  10 H :    0.039314
  11 H :    0.025398
  12 C :   -0.020532
  13 H :    0.025867
  14 H :    0.048305
  15 H :    0.034940
  16 S :    0.050812
  17 C :   -0.051544
  18 C :   -0.041230
  19 C :   -0.059045
  20 C :   -0.105288
  21 H :    0.017378
  22 C :    0.033745
  23 H :    0.033575
  24 H :    0.003501
  25 C :   -0.037876
  26 H :    0.031136
  27 H :    0.041716
  28 C :   -0.124133
  29 H :    0.052598
  30 H :    0.047975
  31 H :    0.045006
  32 H :    0.047755
  33 H :    0.045370
Sum of atomic charges:    0.0000000

LOEWDIN ATOMIC CHARGES
----------------------
   0 S :    0.410103
   1 C :   -0.194334
   2 C :   -0.049309
   3 C :   -0.057087
   4 C :   -0.176445
   5 H :    0.014695
   6 C :   -0.043231
   7 H :    0.030742
   8 H :    0.036911
   9 C :   -0.053665
  10 H :    0.032779
  11 H :    0.021340
  12 C :   -0.063156
  13 H :    0.018385
  14 H :    0.034958
  15 H :    0.030590
  16 S :    0.355550
  17 C :   -0.161877
  18 C :   -0.068777
  19 C :   -0.067247
  20 C :   -0.166187
  21 H :    0.031059
  22 C :   -0.035205
  23 H :    0.032543
  24 H :    0.020344
  25 C :   -0.040418
  26 H :    0.028117
  27 H :    0.019974
  28 C :   -0.088823
  29 H :    0.032751
  30 H :    0.031210
  31 H :    0.035313
  32 H :    0.020445
  33 H :    0.027951

  Mayer bond orders larger than 0.100000
B(  0-S ,  1-C ) :   1.1384 B(  0-S ,  4-C ) :   1.1422 B(  1-C ,  2-C ) :   1.5913
B(  1-C , 32-H ) :   0.9735 B(  2-C ,  3-C ) :   1.2250 B(  2-C ,  6-C ) :   1.0534
B(  3-C ,  4-C ) :   1.5814 B(  3-C ,  5-H ) :   1.0005 B(  4-C , 20-C ) :   1.0341
B(  6-C ,  7-H ) :   0.9365 B(  6-C ,  8-H ) :   0.9163 B(  6-C ,  9-C ) :   1.0544
B(  9-C , 10-H ) :   0.9559 B(  9-C , 11-H ) :   0.9525 B(  9-C , 12-C ) :   1.0830
B( 12-C , 13-H ) :   0.9748 B( 12-C , 14-H ) :   0.9717 B( 12-C , 15-H ) :   0.9735
B( 16-S , 17-C ) :   1.1186 B( 16-S , 20-C ) :   1.1087 B( 17-C , 18-C ) :   1.6654
B( 17-C , 33-H ) :   0.9643 B( 18-C , 19-C ) :   1.2254 B( 18-C , 21-H ) :   0.9853
B( 19-C , 20-C ) :   1.6268 B( 19-C , 22-C ) :   1.0251 B( 22-C , 23-H ) :   0.9433
B( 22-C , 24-H ) :   0.9395 B( 22-C , 25-C ) :   1.0614 B( 25-C , 26-H ) :   0.9501
B( 25-C , 27-H ) :   0.9517 B( 25-C , 28-C ) :   1.0747 B( 28-C , 29-H ) :   0.9744
B( 28-C , 30-H ) :   0.9731 B( 28-C , 31-H ) :   0.9741

Dispersion correction           -0.013639331
FINAL SINGLE POINT ENERGY     -1339.857419861597

DIPOLE MOMENT
-------------
                                X             Y             Z
Electronic contribution:     10.22908       8.93246       0.67171
Nuclear contribution   :    -10.39075      -9.00006      -0.71807
                        -----------------------------------------
Total Dipole Moment    :     -0.16166      -0.06760      -0.04636
                        -----------------------------------------
Magnitude (a.u.)       :      0.18126
Magnitude (Debye)      :      0.46071

Rotational constants in cm-1:     0.021598     0.007428     0.005775
Rotational constants in MHz :   647.506154   222.695148   173.119304

                             ****ORCA TERMINATED NORMALLY****
TOTAL RUN TIME: 0 days 0 hours 0 minutes 28 seconds 543 msec
