                         Program Version 4.2.1 -  RELEASE  -
|  1> ! wB97X-D3 SP def2-SVP
|  2> %pal
|  3> nprocs 16
|  4> end
|  5>
|  6> * xyz 0 1
|  7> S 	 -43.0945 	 39.7001 	 81.2661
|  8> C 	 -43.0134 	 39.9364 	 79.4945
|  9> C 	 -44.1614 	 40.5097 	 79.0114
| 10> C 	 -45.0681 	 40.8349 	 79.9988
| 11> C 	 -44.6611 	 40.4496 	 81.2594
| 12> H 	 -45.9468 	 41.4355 	 79.9339
| 13> C 	 -44.6331 	 40.5785 	 77.5579
| 14> H 	 -43.7937 	 40.9331 	 77.0437
| 15> H 	 -45.4676 	 41.232 	 77.2633
| 16> C 	 -45.0102 	 39.2353 	 76.9175
| 17> H 	 -45.1445 	 39.3656 	 75.8148
| 18> H 	 -44.2116 	 38.4793 	 77.118
| 19> C 	 -46.31 	 38.6807 	 77.4931
| 20> H 	 -46.2139 	 38.4416 	 78.569
| 21> H 	 -47.0489 	 39.4155 	 77.411
| 22> H 	 -46.5626 	 37.7576 	 76.956
| 23> S 	 -45.0106 	 41.923 	 83.6509
| 24> C 	 -46.4395 	 41.6346 	 84.5502
| 25> C 	 -47.2392 	 40.6305 	 84.0201
| 26> C 	 -46.6735 	 40.0979 	 82.8448
| 27> C 	 -45.4191 	 40.6027 	 82.5411
| 28> H 	 -48.1434 	 40.1659 	 84.4853
| 29> C 	 -47.3233 	 38.9311 	 82.0884
| 30> H 	 -47.5167 	 39.3312 	 81.0934
| 31> H 	 -48.2627 	 38.7589 	 82.513
| 32> C 	 -46.6491 	 37.5493 	 82.0016
| 33> H 	 -45.6696 	 37.5883 	 81.5202
| 34> H 	 -47.1889 	 36.9992 	 81.2568
| 35> C 	 -46.5928 	 36.8206 	 83.3398
| 36> H 	 -47.6183 	 36.8744 	 83.9319
| 37> H 	 -45.845 	 37.292 	 84.0002
| 38> H 	 -46.3005 	 35.7633 	 83.2772
| 39> H 	 -42.3711 	 39.3378 	 78.8863
| 40> H 	 -46.5292 	 42.0137 	 85.5292
| 41> *
| 42>
| 43>                          ****END OF INPUT****

CARTESIAN COORDINATES (ANGSTROEM)
---------------------------------
  S    -43.094500   39.700100   81.266100
  C    -43.013400   39.936400   79.494500
  C    -44.161400   40.509700   79.011400
  C    -45.068100   40.834900   79.998800
  C    -44.661100   40.449600   81.259400
  H    -45.946800   41.435500   79.933900
  C    -44.633100   40.578500   77.557900
  H    -43.793700   40.933100   77.043700
  H    -45.467600   41.232000   77.263300
  C    -45.010200   39.235300   76.917500
  H    -45.144500   39.365600   75.814800
  H    -44.211600   38.479300   77.118000
  C    -46.310000   38.680700   77.493100
  H    -46.213900   38.441600   78.569000
  H    -47.048900   39.415500   77.411000
  H    -46.562600   37.757600   76.956000
  S    -45.010600   41.923000   83.650900
  C    -46.439500   41.634600   84.550200
  C    -47.239200   40.630500   84.020100
  C    -46.673500   40.097900   82.844800
  C    -45.419100   40.602700   82.541100
  H    -48.143400   40.165900   84.485300
  C    -47.323300   38.931100   82.088400
  H    -47.516700   39.331200   81.093400
  H    -48.262700   38.758900   82.513000
  C    -46.649100   37.549300   82.001600
  H    -45.669600   37.588300   81.520200
  H    -47.188900   36.999200   81.256800
  C    -46.592800   36.820600   83.339800
  H    -47.618300   36.874400   83.931900
  H    -45.845000   37.292000   84.000200
  H    -46.300500   35.763300   83.277200
  H    -42.371100   39.337800   78.886300
  H    -46.529200   42.013700   85.529200

 Total Charge           Charge          ....    0
 Multiplicity           Mult            ....    1
 Number of Electrons    NEL             ....  134
 Basis Dimension        Dim             ....  322

ORBITAL ENERGIES
----------------

  NO   OCC          E(Eh)            E(eV)
   0   2.0000     -88.969922     -2420.9947
   1   2.0000     -88.966705     -2420.9071
   2   2.0000     -10.329943      -281.0921
   3   2.0000     -10.324272      -280.9377
   4   2.0000     -10.314358      -280.6680
   5   2.0000     -10.313818      -280.6533
   6   2.0000     -10.300579      -280.2930
   7   2.0000     -10.300202      -280.2827
   8   2.0000     -10.296574      -280.1840
   9   2.0000     -10.291034      -280.0333
  10   2.0000     -10.289087      -279.9803
  11   2.0000     -10.286955      -279.9223
  12   2.0000     -10.285990      -279.8960
  13   2.0000     -10.285631      -279.8863
  14   2.0000     -10.283022      -279.8153
  15   2.0000     -10.272896      -279.5397
  16   2.0000      -8.084081      -219.9790
  17   2.0000      -8.081767      -219.9161
  18   2.0000      -6.042447      -164.4233
  19   2.0000      -6.040076      -164.3588
  20   2.0000      -6.038711      -164.3217
  21   2.0000      -6.036200      -164.2534
  22   2.0000      -6.034974      -164.2200
  23   2.0000      -6.032759      -164.1597
  24   2.0000      -1.007879       -27.4258
  25   2.0000      -0.988715       -26.9043
  26   2.0000      -0.914340       -24.8804
  27   2.0000      -0.906713       -24.6729
  28   2.0000      -0.864529       -23.5250
  29   2.0000      -0.851854       -23.1801
  30   2.0000      -0.848484       -23.0884
  31   2.0000      -0.811818       -22.0907
  32   2.0000      -0.786452       -21.4005
  33   2.0000      -0.774374       -21.0718
  34   2.0000      -0.706953       -19.2372
  35   2.0000      -0.697482       -18.9795
  36   2.0000      -0.687222       -18.7003
  37   2.0000      -0.661847       -18.0098
  38   2.0000      -0.645462       -17.5639
  39   2.0000      -0.615097       -16.7376
  40   2.0000      -0.594473       -16.1764
  41   2.0000      -0.579527       -15.7697
  42   2.0000      -0.555986       -15.1292
  43   2.0000      -0.554381       -15.0855
  44   2.0000      -0.541327       -14.7303
  45   2.0000      -0.540121       -14.6974
  46   2.0000      -0.515939       -14.0394
  47   2.0000      -0.507589       -13.8122
  48   2.0000      -0.500682       -13.6243
  49   2.0000      -0.489045       -13.3076
  50   2.0000      -0.481274       -13.0961
  51   2.0000      -0.477480       -12.9929
  52   2.0000      -0.474443       -12.9102
  53   2.0000      -0.465117       -12.6565
  54   2.0000      -0.462292       -12.5796
  55   2.0000      -0.444349       -12.0914
  56   2.0000      -0.440312       -11.9815
  57   2.0000      -0.438597       -11.9348
  58   2.0000      -0.434222       -11.8158
  59   2.0000      -0.428782       -11.6677
  60   2.0000      -0.424770       -11.5586
  61   2.0000      -0.418652       -11.3921
  62   2.0000      -0.408980       -11.1289
  63   2.0000      -0.340276        -9.2594
  64   2.0000      -0.334314        -9.0971
  65   2.0000      -0.327821        -8.9205
  66   2.0000      -0.303763        -8.2658
  67   0.0000       0.033598         0.9142
  68   0.0000       0.054488         1.4827
  69   0.0000       0.110302         3.0015
  70   0.0000       0.119521         3.2523
  71   0.0000       0.128935         3.5085

MULLIKEN ATOMIC CHARGES
-----------------------
   0 S :    0.109543
   1 C :   -0.113413
   2 C :   -0.066830
   3 C :    0.051416
   4 C :   -0.193989
   5 H :    0.008959
   6 C :    0.074943
   7 H :    0.014239
   8 H :    0.029122
   9 C :   -0.105941
  10 H :    0.040234
  11 H :    0.027718
  12 C :   -0.036383
  13 H :    0.041768
  14 H :    0.008931
  15 H :    0.037654
  16 S :    0.115191
  17 C :   -0.079824
  18 C :   -0.036046
  19 C :   -0.072212
  20 C :   -0.153266
  21 H :    0.035649
  22 C :    0.109468
  23 H :    0.021428
  24 H :   -0.010955
  25 C :   -0.028049
  26 H :    0.028135
  27 H :    0.017667
  28 C :   -0.090331
  29 H :    0.034667
  30 H :    0.045125
  31 H :    0.041242
  32 H :    0.044256
  33 H :    0.049884
Sum of atomic charges:    0.0000000

LOEWDIN ATOMIC CHARGES
----------------------
   0 S :    0.405025
   1 C :   -0.187934
   2 C :   -0.057590
   3 C :   -0.062349
   4 C :   -0.188728
   5 H :    0.031936
   6 C :   -0.030192
   7 H :    0.024353
   8 H :    0.033417
   9 C :   -0.040609
  10 H :    0.028326
  11 H :    0.022673
  12 C :   -0.063885
  13 H :    0.028712
  14 H :    0.011933
  15 H :    0.028790
  16 S :    0.419622
  17 C :   -0.186358
  18 C :   -0.077871
  19 C :   -0.055098
  20 C :   -0.210478
  21 H :    0.040914
  22 C :   -0.024152
  23 H :    0.033123
  24 H :    0.018075
  25 C :   -0.040933
  26 H :    0.023860
  27 H :    0.022419
  28 C :   -0.075863
  29 H :    0.032047
  30 H :    0.029074
  31 H :    0.027046
  32 H :    0.021067
  33 H :    0.019630

  Mayer bond orders larger than 0.100000
B(  0-S ,  1-C ) :   1.1303 B(  0-S ,  4-C ) :   1.1753 B(  1-C ,  2-C ) :   1.6220
B(  1-C ,  4-C ) :   0.1029 B(  1-C , 32-H ) :   0.9643 B(  2-C ,  3-C ) :   1.2410
B(  2-C ,  6-C ) :   1.0097 B(  3-C ,  4-C ) :   1.5813 B(  3-C ,  5-H ) :   1.0046
B(  4-C , 20-C ) :   0.9768 B(  6-C ,  7-H ) :   0.9269 B(  6-C ,  8-H ) :   0.9519
B(  6-C ,  9-C ) :   1.0790 B(  9-C , 10-H ) :   0.9547 B(  9-C , 11-H ) :   0.9540
B(  9-C , 12-C ) :   1.0802 B( 12-C , 13-H ) :   0.9725 B( 12-C , 14-H ) :   0.9736
B( 12-C , 15-H ) :   0.9718 B( 16-S , 17-C ) :   1.1943 B( 16-S , 20-C ) :   1.1440
B( 17-C , 18-C ) :   1.5586 B( 17-C , 20-C ) :   0.1027 B( 17-C , 33-H ) :   0.9675
B( 18-C , 19-C ) :   1.2877 B( 18-C , 21-H ) :   0.9809 B( 19-C , 20-C ) :   1.5881
B( 19-C , 22-C ) :   1.0339 B( 22-C , 23-H ) :   0.9197 B( 22-C , 24-H ) :   0.9304
B( 22-C , 25-C ) :   1.0835 B( 25-C , 26-H ) :   0.9486 B( 25-C , 27-H ) :   0.9492
B( 25-C , 28-C ) :   1.0678 B( 28-C , 29-H ) :   0.9739 B( 28-C , 30-H ) :   0.9753
B( 28-C , 31-H ) :   0.9735

Dispersion correction           -0.016397022
FINAL SINGLE POINT ENERGY     -1339.877980055468

DIPOLE MOMENT
-------------
                                X             Y             Z
Electronic contribution:     13.51925      16.77579      15.21610
Nuclear contribution   :    -13.98144     -17.08959     -15.57807
                        -----------------------------------------
Total Dipole Moment    :     -0.46219      -0.31380      -0.36197
                        -----------------------------------------
Magnitude (a.u.)       :      0.66567
Magnitude (Debye)      :      1.69200

Rotational constants in cm-1:     0.019396     0.009651     0.008054
Rotational constants in MHz :   581.471379   289.332792   241.452887

                             ****ORCA TERMINATED NORMALLY****
TOTAL RUN TIME: 0 days 0 hours 0 minutes 32 seconds 480 msec
