                         Program Version 4.2.1 -  RELEASE  -
|  1> ! wB97X-D3 SP def2-SVP
|  2> %pal
|  3> nprocs 16
|  4> end
|  5>
|  6> * xyz 0 1
|  7> S 	 -42.2032 	 25.5672 	 79.1123
|  8> C 	 -41.4085 	 25.6342 	 80.623
|  9> C 	 -40.3206 	 24.7203 	 80.6446
| 10> C 	 -40.3763 	 23.8264 	 79.4999
| 11> C 	 -41.358 	 24.045 	 78.6835
| 12> H 	 -39.6579 	 23.0266 	 79.2906
| 13> C 	 -39.3516 	 24.56 	 81.7515
| 14> H 	 -38.8497 	 23.5689 	 81.7697
| 15> H 	 -40.0091 	 24.5527 	 82.6303
| 16> C 	 -38.3838 	 25.7039 	 81.8828
| 17> H 	 -37.68 	 25.5244 	 82.665
| 18> H 	 -37.7009 	 25.8477 	 80.9798
| 19> C 	 -39.0434 	 27.0689 	 82.1143
| 20> H 	 -38.2151 	 27.8219 	 82.2848
| 21> H 	 -39.5462 	 27.4516 	 81.2083
| 22> H 	 -39.799 	 27.03 	 82.8844
| 23> S 	 -43.0302 	 23.1192 	 76.7148
| 24> C 	 -42.526 	 22.4033 	 75.2388
| 25> C 	 -41.1272 	 22.4667 	 75.2008
| 26> C 	 -40.5391 	 23.0637 	 76.3838
| 27> C 	 -41.4318 	 23.4245 	 77.3586
| 28> H 	 -40.6255 	 21.898 	 74.4152
| 29> C 	 -39.0272 	 23.0999 	 76.539
| 30> H 	 -38.6078 	 22.1628 	 75.9817
| 31> H 	 -38.7079 	 22.9037 	 77.5754
| 32> C 	 -38.4203 	 24.4003 	 75.9649
| 33> H 	 -38.9045 	 24.7057 	 74.9824
| 34> H 	 -37.3003 	 24.3638 	 75.8858
| 35> C 	 -38.8548 	 25.6944 	 76.7577
| 36> H 	 -38.5532 	 25.6056 	 77.8222
| 37> H 	 -39.9371 	 25.9578 	 76.8133
| 38> H 	 -38.4112 	 26.4687 	 76.2506
| 39> H 	 -41.6668 	 26.3801 	 81.4742
| 40> H 	 -43.1726 	 22.0602 	 74.4661
| 41> *
| 42>
| 43>                          ****END OF INPUT****

CARTESIAN COORDINATES (ANGSTROEM)
---------------------------------
  S    -42.203200   25.567200   79.112300
  C    -41.408500   25.634200   80.623000
  C    -40.320600   24.720300   80.644600
  C    -40.376300   23.826400   79.499900
  C    -41.358000   24.045000   78.683500
  H    -39.657900   23.026600   79.290600
  C    -39.351600   24.560000   81.751500
  H    -38.849700   23.568900   81.769700
  H    -40.009100   24.552700   82.630300
  C    -38.383800   25.703900   81.882800
  H    -37.680000   25.524400   82.665000
  H    -37.700900   25.847700   80.979800
  C    -39.043400   27.068900   82.114300
  H    -38.215100   27.821900   82.284800
  H    -39.546200   27.451600   81.208300
  H    -39.799000   27.030000   82.884400
  S    -43.030200   23.119200   76.714800
  C    -42.526000   22.403300   75.238800
  C    -41.127200   22.466700   75.200800
  C    -40.539100   23.063700   76.383800
  C    -41.431800   23.424500   77.358600
  H    -40.625500   21.898000   74.415200
  C    -39.027200   23.099900   76.539000
  H    -38.607800   22.162800   75.981700
  H    -38.707900   22.903700   77.575400
  C    -38.420300   24.400300   75.964900
  H    -38.904500   24.705700   74.982400
  H    -37.300300   24.363800   75.885800
  C    -38.854800   25.694400   76.757700
  H    -38.553200   25.605600   77.822200
  H    -39.937100   25.957800   76.813300
  H    -38.411200   26.468700   76.250600
  H    -41.666800   26.380100   81.474200
  H    -43.172600   22.060200   74.466100

 Total Charge           Charge          ....    0
 Multiplicity           Mult            ....    1
 Number of Electrons    NEL             ....  134
 Basis Dimension        Dim             ....  322

ORBITAL ENERGIES
----------------

  NO   OCC          E(Eh)            E(eV)
   0   2.0000     -88.966108     -2420.8909
   1   2.0000     -88.958383     -2420.6807
   2   2.0000     -10.326052      -280.9861
   3   2.0000     -10.325134      -280.9612
   4   2.0000     -10.323696      -280.9221
   5   2.0000     -10.317764      -280.7606
   6   2.0000     -10.305688      -280.4320
   7   2.0000     -10.305436      -280.4252
   8   2.0000     -10.300829      -280.2998
   9   2.0000     -10.297393      -280.2063
  10   2.0000     -10.295994      -280.1682
  11   2.0000     -10.292668      -280.0777
  12   2.0000     -10.289836      -280.0007
  13   2.0000     -10.288755      -279.9712
  14   2.0000     -10.282252      -279.7943
  15   2.0000     -10.268920      -279.4315
  16   2.0000      -8.080878      -219.8919
  17   2.0000      -8.074088      -219.7071
  18   2.0000      -6.039549      -164.3445
  19   2.0000      -6.035518      -164.2348
  20   2.0000      -6.032510      -164.1529
  21   2.0000      -6.031290      -164.1198
  22   2.0000      -6.028140      -164.0340
  23   2.0000      -6.025190      -163.9538
  24   2.0000      -1.011892       -27.5350
  25   2.0000      -0.988752       -26.9053
  26   2.0000      -0.919006       -25.0074
  27   2.0000      -0.901876       -24.5413
  28   2.0000      -0.874184       -23.7878
  29   2.0000      -0.850056       -23.1312
  30   2.0000      -0.839440       -22.8423
  31   2.0000      -0.818014       -22.2593
  32   2.0000      -0.779326       -21.2065
  33   2.0000      -0.771753       -21.0005
  34   2.0000      -0.705084       -19.1863
  35   2.0000      -0.692049       -18.8316
  36   2.0000      -0.688409       -18.7326
  37   2.0000      -0.660404       -17.9705
  38   2.0000      -0.642669       -17.4879
  39   2.0000      -0.624959       -17.0060
  40   2.0000      -0.594235       -16.1700
  41   2.0000      -0.572860       -15.5883
  42   2.0000      -0.550794       -14.9879
  43   2.0000      -0.547401       -14.8955
  44   2.0000      -0.544877       -14.8268
  45   2.0000      -0.530890       -14.4462
  46   2.0000      -0.524978       -14.2854
  47   2.0000      -0.514986       -14.0135
  48   2.0000      -0.506757       -13.7895
  49   2.0000      -0.497280       -13.5317
  50   2.0000      -0.492753       -13.4085
  51   2.0000      -0.477363       -12.9897
  52   2.0000      -0.466651       -12.6982
  53   2.0000      -0.462906       -12.5963
  54   2.0000      -0.458208       -12.4685
  55   2.0000      -0.445924       -12.1342
  56   2.0000      -0.442141       -12.0313
  57   2.0000      -0.437544       -11.9062
  58   2.0000      -0.436696       -11.8831
  59   2.0000      -0.424742       -11.5578
  60   2.0000      -0.410530       -11.1711
  61   2.0000      -0.405580       -11.0364
  62   2.0000      -0.396978       -10.8023
  63   2.0000      -0.355072        -9.6620
  64   2.0000      -0.327895        -8.9225
  65   2.0000      -0.325257        -8.8507
  66   2.0000      -0.295616        -8.0441
  67   0.0000       0.029462         0.8017
  68   0.0000       0.069941         1.9032
  69   0.0000       0.106709         2.9037
  70   0.0000       0.115961         3.1555
  71   0.0000       0.128437         3.4949

MULLIKEN ATOMIC CHARGES
-----------------------
   0 S :    0.108512
   1 C :   -0.144105
   2 C :   -0.107867
   3 C :   -0.023363
   4 C :   -0.034418
   5 H :    0.020120
   6 C :    0.057500
   7 H :    0.030642
   8 H :    0.033861
   9 C :   -0.063201
  10 H :    0.023863
  11 H :    0.034225
  12 C :   -0.083999
  13 H :    0.043528
  14 H :    0.047700
  15 H :    0.025176
  16 S :    0.088614
  17 C :   -0.082551
  18 C :   -0.045845
  19 C :   -0.046780
  20 C :   -0.179399
  21 H :    0.030819
  22 C :    0.029075
  23 H :    0.037305
  24 H :    0.022139
  25 C :   -0.093808
  26 H :    0.042369
  27 H :    0.047410
  28 C :   -0.057058
  29 H :    0.030423
  30 H :    0.044315
  31 H :    0.017652
  32 H :    0.089493
  33 H :    0.057652
Sum of atomic charges:    0.0000000

LOEWDIN ATOMIC CHARGES
----------------------
   0 S :    0.400848
   1 C :   -0.218619
   2 C :   -0.060773
   3 C :   -0.059921
   4 C :   -0.183248
   5 H :    0.036277
   6 C :   -0.043329
   7 H :    0.035221
   8 H :    0.037663
   9 C :   -0.044269
  10 H :    0.019403
  11 H :    0.031397
  12 C :   -0.070877
  13 H :    0.035758
  14 H :    0.026841
  15 H :    0.015026
  16 S :    0.416435
  17 C :   -0.188353
  18 C :   -0.077902
  19 C :   -0.061132
  20 C :   -0.196632
  21 H :    0.033457
  22 C :   -0.041221
  23 H :    0.039351
  24 H :    0.023935
  25 C :   -0.044305
  26 H :    0.034858
  27 H :    0.028762
  28 C :   -0.067792
  29 H :    0.021686
  30 H :    0.028935
  31 H :    0.012268
  32 H :    0.051411
  33 H :    0.028840

  Mayer bond orders larger than 0.100000
B(  0-S ,  1-C ) :   1.1438 B(  0-S ,  4-C ) :   1.1192 B(  1-C ,  2-C ) :   1.5953
B(  1-C , 32-H ) :   0.9523 B(  2-C ,  3-C ) :   1.2140 B(  2-C ,  6-C ) :   1.0187
B(  3-C ,  4-C ) :   1.6195 B(  3-C ,  5-H ) :   1.0066 B(  4-C , 20-C ) :   1.0272
B(  6-C ,  7-H ) :   0.9450 B(  6-C ,  8-H ) :   0.9410 B(  6-C ,  9-C ) :   1.0743
B(  9-C , 10-H ) :   0.9556 B(  9-C , 11-H ) :   0.9493 B(  9-C , 12-C ) :   1.0823
B( 12-C , 13-H ) :   0.9685 B( 12-C , 14-H ) :   0.9661 B( 12-C , 15-H ) :   0.9745
B( 16-S , 17-C ) :   1.1820 B( 16-S , 20-C ) :   1.1357 B( 17-C , 18-C ) :   1.5768
B( 17-C , 33-H ) :   0.9747 B( 18-C , 19-C ) :   1.2546 B( 18-C , 21-H ) :   0.9876
B( 19-C , 20-C ) :   1.5942 B( 19-C , 22-C ) :   1.0248 B( 22-C , 23-H ) :   0.9383
B( 22-C , 24-H ) :   0.9501 B( 22-C , 25-C ) :   1.0591 B( 25-C , 26-H ) :   0.9595
B( 25-C , 27-H ) :   0.9578 B( 25-C , 28-C ) :   1.0614 B( 28-C , 29-H ) :   0.9743
B( 28-C , 30-H ) :   0.9717 B( 28-C , 31-H ) :   0.9754

Dispersion correction           -0.016348064
FINAL SINGLE POINT ENERGY     -1339.861431628435

DIPOLE MOMENT
-------------
                                X             Y             Z
Electronic contribution:    -23.51699      -8.59470      -8.26020
Nuclear contribution   :     24.19331       8.52636       8.40227
                        -----------------------------------------
Total Dipole Moment    :      0.67632      -0.06834       0.14207
                        -----------------------------------------
Magnitude (a.u.)       :      0.69445
Magnitude (Debye)      :      1.76516

Rotational constants in cm-1:     0.024152     0.008994     0.007516
Rotational constants in MHz :   724.056378   269.635260   225.326636

                             ****ORCA TERMINATED NORMALLY****
TOTAL RUN TIME: 0 days 0 hours 0 minutes 33 seconds 588 msec
