                         Program Version 4.2.1 -  RELEASE  -
|  1> ! wB97X-D3 SP def2-SVP
|  2> %pal
|  3> nprocs 16
|  4> end
|  5>
|  6> * xyz 0 1
|  7> S 	 -105.953 	 40.8245 	 128.469
|  8> C 	 -104.34 	 40.3135 	 128.007
|  9> C 	 -103.509 	 41.3839 	 127.678
| 10> C 	 -104.209 	 42.6173 	 127.846
| 11> C 	 -105.524 	 42.4931 	 128.25
| 12> H 	 -103.892 	 43.5876 	 127.729
| 13> C 	 -102.005 	 41.3876 	 127.318
| 14> H 	 -101.904 	 41.4325 	 126.234
| 15> H 	 -101.553 	 40.389 	 127.49
| 16> C 	 -101.172 	 42.4434 	 128.072
| 17> H 	 -100.09 	 42.3055 	 127.875
| 18> H 	 -101.422 	 43.3989 	 127.587
| 19> C 	 -101.356 	 42.3753 	 129.638
| 20> H 	 -102.417 	 42.2947 	 129.93
| 21> H 	 -100.842 	 41.6086 	 130.201
| 22> H 	 -100.914 	 43.2545 	 130.017
| 23> S 	 -107.153 	 43.6236 	 130.141
| 24> C 	 -107.923 	 45.1734 	 129.972
| 25> C 	 -107.296 	 45.7657 	 128.891
| 26> C 	 -106.474 	 44.9122 	 128.075
| 27> C 	 -106.333 	 43.6484 	 128.609
| 28> H 	 -107.618 	 46.7306 	 128.571
| 29> C 	 -105.939 	 45.4588 	 126.738
| 30> H 	 -106.735 	 45.9719 	 126.314
| 31> H 	 -105.82 	 44.5079 	 126.113
| 32> C 	 -104.593 	 46.2643 	 126.787
| 33> H 	 -103.852 	 45.5702 	 127.223
| 34> H 	 -104.687 	 47.2945 	 127.297
| 35> C 	 -104.099 	 46.4945 	 125.406
| 36> H 	 -104.203 	 45.555 	 124.8
| 37> H 	 -103.042 	 46.797 	 125.517
| 38> H 	 -104.538 	 47.3376 	 124.892
| 39> H 	 -104.014 	 39.32 	 127.79
| 40> H 	 -108.774 	 45.5519 	 130.557
| 41> *
| 42>
| 43>                          ****END OF INPUT****

CARTESIAN COORDINATES (ANGSTROEM)
---------------------------------
  S    -105.953000   40.824500  128.469000
  C    -104.340000   40.313500  128.007000
  C    -103.509000   41.383900  127.678000
  C    -104.209000   42.617300  127.846000
  C    -105.524000   42.493100  128.250000
  H    -103.892000   43.587600  127.729000
  C    -102.005000   41.387600  127.318000
  H    -101.904000   41.432500  126.234000
  H    -101.553000   40.389000  127.490000
  C    -101.172000   42.443400  128.072000
  H    -100.090000   42.305500  127.875000
  H    -101.422000   43.398900  127.587000
  C    -101.356000   42.375300  129.638000
  H    -102.417000   42.294700  129.930000
  H    -100.842000   41.608600  130.201000
  H    -100.914000   43.254500  130.017000
  S    -107.153000   43.623600  130.141000
  C    -107.923000   45.173400  129.972000
  C    -107.296000   45.765700  128.891000
  C    -106.474000   44.912200  128.075000
  C    -106.333000   43.648400  128.609000
  H    -107.618000   46.730600  128.571000
  C    -105.939000   45.458800  126.738000
  H    -106.735000   45.971900  126.314000
  H    -105.820000   44.507900  126.113000
  C    -104.593000   46.264300  126.787000
  H    -103.852000   45.570200  127.223000
  H    -104.687000   47.294500  127.297000
  C    -104.099000   46.494500  125.406000
  H    -104.203000   45.555000  124.800000
  H    -103.042000   46.797000  125.517000
  H    -104.538000   47.337600  124.892000
  H    -104.014000   39.320000  127.790000
  H    -108.774000   45.551900  130.557000

 Total Charge           Charge          ....    0
 Multiplicity           Mult            ....    1
 Number of Electrons    NEL             ....  134
 Basis Dimension        Dim             ....  322

ORBITAL ENERGIES
----------------

  NO   OCC          E(Eh)            E(eV)
   0   2.0000     -88.972107     -2421.0541
   1   2.0000     -88.957135     -2420.6467
   2   2.0000     -10.328642      -281.0566
   3   2.0000     -10.325729      -280.9774
   4   2.0000     -10.317975      -280.7664
   5   2.0000     -10.316835      -280.7353
   6   2.0000     -10.306796      -280.4622
   7   2.0000     -10.300767      -280.2981
   8   2.0000     -10.298222      -280.2289
   9   2.0000     -10.297487      -280.2089
  10   2.0000     -10.297441      -280.2076
  11   2.0000     -10.293921      -280.1118
  12   2.0000     -10.289713      -279.9973
  13   2.0000     -10.288122      -279.9540
  14   2.0000     -10.278553      -279.6936
  15   2.0000     -10.274606      -279.5862
  16   2.0000      -8.086537      -220.0458
  17   2.0000      -8.072732      -219.6702
  18   2.0000      -6.045079      -164.4950
  19   2.0000      -6.041045      -164.3852
  20   2.0000      -6.037312      -164.2836
  21   2.0000      -6.031257      -164.1188
  22   2.0000      -6.027035      -164.0040
  23   2.0000      -6.023468      -163.9069
  24   2.0000      -1.009617       -27.4731
  25   2.0000      -0.986068       -26.8323
  26   2.0000      -0.910101       -24.7651
  27   2.0000      -0.906946       -24.6792
  28   2.0000      -0.871506       -23.7149
  29   2.0000      -0.852806       -23.2060
  30   2.0000      -0.843292       -22.9472
  31   2.0000      -0.814316       -22.1587
  32   2.0000      -0.784345       -21.3431
  33   2.0000      -0.771956       -21.0060
  34   2.0000      -0.706986       -19.2381
  35   2.0000      -0.698522       -19.0077
  36   2.0000      -0.690151       -18.7800
  37   2.0000      -0.664887       -18.0925
  38   2.0000      -0.643905       -17.5215
  39   2.0000      -0.622593       -16.9416
  40   2.0000      -0.590727       -16.0745
  41   2.0000      -0.573014       -15.5925
  42   2.0000      -0.564594       -15.3634
  43   2.0000      -0.552582       -15.0365
  44   2.0000      -0.537237       -14.6189
  45   2.0000      -0.528144       -14.3715
  46   2.0000      -0.521556       -14.1923
  47   2.0000      -0.512509       -13.9461
  48   2.0000      -0.506806       -13.7909
  49   2.0000      -0.500521       -13.6199
  50   2.0000      -0.492265       -13.3952
  51   2.0000      -0.480126       -13.0649
  52   2.0000      -0.470584       -12.8052
  53   2.0000      -0.462169       -12.5763
  54   2.0000      -0.458399       -12.4737
  55   2.0000      -0.449024       -12.2186
  56   2.0000      -0.440605       -11.9895
  57   2.0000      -0.439279       -11.9534
  58   2.0000      -0.429008       -11.6739
  59   2.0000      -0.425165       -11.5693
  60   2.0000      -0.422181       -11.4881
  61   2.0000      -0.412893       -11.2354
  62   2.0000      -0.406783       -11.0691
  63   2.0000      -0.351487        -9.5644
  64   2.0000      -0.333790        -9.0829
  65   2.0000      -0.323714        -8.8087
  66   2.0000      -0.292856        -7.9690
  67   0.0000       0.025620         0.6971
  68   0.0000       0.079292         2.1576
  69   0.0000       0.117316         3.1923
  70   0.0000       0.120011         3.2657
  71   0.0000       0.128106         3.4860

MULLIKEN ATOMIC CHARGES
-----------------------
   0 S :    0.132207
   1 C :   -0.104474
   2 C :   -0.086461
   3 C :    0.072220
   4 C :   -0.147876
   5 H :   -0.079014
   6 C :    0.075558
   7 H :    0.038603
   8 H :    0.013938
   9 C :   -0.099903
  10 H :    0.037821
  11 H :    0.038040
  12 C :   -0.041465
  13 H :    0.056729
  14 H :    0.029479
  15 H :    0.022603
  16 S :    0.081997
  17 C :   -0.107064
  18 C :   -0.015677
  19 C :   -0.065245
  20 C :   -0.125288
  21 H :    0.002560
  22 C :    0.037365
  23 H :    0.011152
  24 H :    0.036726
  25 C :   -0.074595
  26 H :    0.042160
  27 H :    0.052057
  28 C :   -0.049963
  29 H :    0.038089
  30 H :    0.031512
  31 H :    0.030740
  32 H :    0.038210
  33 H :    0.077261
Sum of atomic charges:    0.0000000

LOEWDIN ATOMIC CHARGES
----------------------
   0 S :    0.418938
   1 C :   -0.193555
   2 C :   -0.058001
   3 C :   -0.048535
   4 C :   -0.200356
   5 H :    0.010796
   6 C :   -0.037720
   7 H :    0.032888
   8 H :    0.028830
   9 C :   -0.040996
  10 H :    0.031064
  11 H :    0.023539
  12 C :   -0.064944
  13 H :    0.032846
  14 H :    0.026615
  15 H :    0.021979
  16 S :    0.404853
  17 C :   -0.193607
  18 C :   -0.071542
  19 C :   -0.068054
  20 C :   -0.197224
  21 H :    0.021024
  22 C :   -0.032031
  23 H :    0.018603
  24 H :    0.039281
  25 C :   -0.044091
  26 H :    0.025757
  27 H :    0.038556
  28 C :   -0.071691
  29 H :    0.030093
  30 H :    0.028919
  31 H :    0.021160
  32 H :    0.025356
  33 H :    0.041250

  Mayer bond orders larger than 0.100000
B(  0-S ,  1-C ) :   1.1422 B(  0-S ,  4-C ) :   1.1486 B(  1-C ,  2-C ) :   1.6145
B(  1-C , 32-H ) :   0.9639 B(  2-C ,  3-C ) :   1.2309 B(  2-C ,  6-C ) :   1.0106
B(  3-C ,  4-C ) :   1.5682 B(  3-C ,  5-H ) :   1.0060 B(  4-C , 20-C ) :   1.0439
B(  6-C ,  7-H ) :   0.9382 B(  6-C ,  8-H ) :   0.9434 B(  6-C ,  9-C ) :   1.0701
B(  9-C , 10-H ) :   0.9559 B(  9-C , 11-H ) :   0.9561 B(  9-C , 12-C ) :   1.0619
B( 12-C , 13-H ) :   0.9753 B( 12-C , 14-H ) :   0.9763 B( 12-C , 15-H ) :   0.9740
B( 16-S , 17-C ) :   1.1523 B( 16-S , 20-C ) :   1.1442 B( 17-C , 18-C ) :   1.5831
B( 17-C , 20-C ) :   0.1008 B( 17-C , 33-H ) :   0.9708 B( 18-C , 19-C ) :   1.2603
B( 18-C , 21-H ) :   0.9889 B( 19-C , 20-C ) :   1.5887 B( 19-C , 22-C ) :   1.0323
B( 22-C , 23-H ) :   0.9362 B( 22-C , 24-H ) :   0.9379 B( 22-C , 25-C ) :   1.0654
B( 25-C , 26-H ) :   0.9515 B( 25-C , 27-H ) :   0.9468 B( 25-C , 28-C ) :   1.0904
B( 28-C , 29-H ) :   0.9694 B( 28-C , 30-H ) :   0.9723 B( 28-C , 31-H ) :   0.9738

Dispersion correction           -0.014987964
FINAL SINGLE POINT ENERGY     -1339.867929285050

DIPOLE MOMENT
-------------
                                X             Y             Z
Electronic contribution:    -22.68658     -12.41397      11.56300
Nuclear contribution   :     23.17652      12.79875     -11.96771
                        -----------------------------------------
Total Dipole Moment    :      0.48995       0.38478      -0.40471
                        -----------------------------------------
Magnitude (a.u.)       :      0.74290
Magnitude (Debye)      :      1.88829

Rotational constants in cm-1:     0.015844     0.010639     0.007714
Rotational constants in MHz :   474.983955   318.938387   231.270782

                             ****ORCA TERMINATED NORMALLY****
TOTAL RUN TIME: 0 days 0 hours 0 minutes 35 seconds 539 msec
