                         Program Version 4.2.1 -  RELEASE  -
|  1> ! wB97X-D3 SP def2-SVP
|  2> %pal
|  3> nprocs 16
|  4> end
|  5>
|  6> * xyz 0 1
|  7> S 	 -14.8663 	 46.5713 	 30.9985
|  8> C 	 -13.153 	 47.0205 	 30.8417
|  9> C 	 -12.4963 	 46.8091 	 32.0491
| 10> C 	 -13.3834 	 46.3204 	 33.1149
| 11> C 	 -14.6537 	 46.0808 	 32.6663
| 12> H 	 -13.1268 	 46.0836 	 34.1719
| 13> C 	 -11.0071 	 47.042 	 32.2575
| 14> H 	 -10.9593 	 47.2736 	 33.2966
| 15> H 	 -10.603 	 47.8776 	 31.6815
| 16> C 	 -10.1676 	 45.737 	 32.0114
| 17> H 	 -10.2884 	 45.2376 	 31.0763
| 18> H 	 -9.10333 	 45.9817 	 32.1133
| 19> C 	 -10.3768 	 44.666 	 33.152
| 20> H 	 -10.3354 	 44.943 	 34.2471
| 21> H 	 -11.3355 	 44.2564 	 33.2077
| 22> H 	 -9.72554 	 43.8175 	 33.0484
| 23> S 	 -17.2176 	 46.5451 	 33.6889
| 24> C 	 -18.0192 	 45.3192 	 34.6612
| 25> C 	 -17.256 	 44.1835 	 34.6731
| 26> C 	 -15.9431 	 44.2592 	 34.1015
| 27> C 	 -15.7607 	 45.5486 	 33.4818
| 28> H 	 -17.4828 	 43.2685 	 35.3059
| 29> C 	 -14.9853 	 43.0655 	 34.0534
| 30> H 	 -15.0717 	 42.6226 	 35.0545
| 31> H 	 -13.9387 	 43.4673 	 33.9202
| 32> C 	 -15.1868 	 41.8977 	 33.0258
| 33> H 	 -15.2098 	 42.2696 	 31.9997
| 34> H 	 -16.1504 	 41.3735 	 33.1688
| 35> C 	 -14.0365 	 40.9248 	 33.1068
| 36> H 	 -13.705 	 40.6726 	 34.0942
| 37> H 	 -13.065 	 41.3537 	 32.7689
| 38> H 	 -14.182 	 40.0763 	 32.537
| 39> H 	 -12.5962 	 47.2898 	 29.9549
| 40> H 	 -18.9547 	 45.488 	 35.142
| 41> *
| 42>
| 43>                          ****END OF INPUT****

CARTESIAN COORDINATES (ANGSTROEM)
---------------------------------
  S    -14.866300   46.571300   30.998500
  C    -13.153000   47.020500   30.841700
  C    -12.496300   46.809100   32.049100
  C    -13.383400   46.320400   33.114900
  C    -14.653700   46.080800   32.666300
  H    -13.126800   46.083600   34.171900
  C    -11.007100   47.042000   32.257500
  H    -10.959300   47.273600   33.296600
  H    -10.603000   47.877600   31.681500
  C    -10.167600   45.737000   32.011400
  H    -10.288400   45.237600   31.076300
  H     -9.103330   45.981700   32.113300
  C    -10.376800   44.666000   33.152000
  H    -10.335400   44.943000   34.247100
  H    -11.335500   44.256400   33.207700
  H     -9.725540   43.817500   33.048400
  S    -17.217600   46.545100   33.688900
  C    -18.019200   45.319200   34.661200
  C    -17.256000   44.183500   34.673100
  C    -15.943100   44.259200   34.101500
  C    -15.760700   45.548600   33.481800
  H    -17.482800   43.268500   35.305900
  C    -14.985300   43.065500   34.053400
  H    -15.071700   42.622600   35.054500
  H    -13.938700   43.467300   33.920200
  C    -15.186800   41.897700   33.025800
  H    -15.209800   42.269600   31.999700
  H    -16.150400   41.373500   33.168800
  C    -14.036500   40.924800   33.106800
  H    -13.705000   40.672600   34.094200
  H    -13.065000   41.353700   32.768900
  H    -14.182000   40.076300   32.537000
  H    -12.596200   47.289800   29.954900
  H    -18.954700   45.488000   35.142000

 Total Charge           Charge          ....    0
 Multiplicity           Mult            ....    1
 Number of Electrons    NEL             ....  134
 Basis Dimension        Dim             ....  322

ORBITAL ENERGIES
----------------

  NO   OCC          E(Eh)            E(eV)
   0   2.0000     -88.966720     -2420.9075
   1   2.0000     -88.966662     -2420.9060
   2   2.0000     -10.335497      -281.2432
   3   2.0000     -10.330905      -281.1182
   4   2.0000     -10.319498      -280.8078
   5   2.0000     -10.316023      -280.7133
   6   2.0000     -10.311735      -280.5966
   7   2.0000     -10.305992      -280.4403
   8   2.0000     -10.302196      -280.3370
   9   2.0000     -10.299890      -280.2743
  10   2.0000     -10.299171      -280.2547
  11   2.0000     -10.294801      -280.1358
  12   2.0000     -10.294608      -280.1305
  13   2.0000     -10.290504      -280.0189
  14   2.0000     -10.276111      -279.6272
  15   2.0000     -10.270851      -279.4841
  16   2.0000      -8.080867      -219.8916
  17   2.0000      -8.080761      -219.8887
  18   2.0000      -6.039466      -164.3422
  19   2.0000      -6.039378      -164.3398
  20   2.0000      -6.035356      -164.2304
  21   2.0000      -6.035338      -164.2299
  22   2.0000      -6.031767      -164.1327
  23   2.0000      -6.031348      -164.1213
  24   2.0000      -0.999352       -27.1938
  25   2.0000      -0.977840       -26.6084
  26   2.0000      -0.906307       -24.6619
  27   2.0000      -0.905325       -24.6351
  28   2.0000      -0.864750       -23.5310
  29   2.0000      -0.852190       -23.1893
  30   2.0000      -0.839400       -22.8412
  31   2.0000      -0.814077       -22.1522
  32   2.0000      -0.782673       -21.2976
  33   2.0000      -0.770899       -20.9772
  34   2.0000      -0.711405       -19.3583
  35   2.0000      -0.707092       -19.2410
  36   2.0000      -0.695917       -18.9369
  37   2.0000      -0.654377       -17.8065
  38   2.0000      -0.639155       -17.3923
  39   2.0000      -0.611460       -16.6387
  40   2.0000      -0.597024       -16.2459
  41   2.0000      -0.566976       -15.4282
  42   2.0000      -0.558776       -15.2051
  43   2.0000      -0.545155       -14.8344
  44   2.0000      -0.536862       -14.6088
  45   2.0000      -0.534054       -14.5324
  46   2.0000      -0.513827       -13.9819
  47   2.0000      -0.508285       -13.8311
  48   2.0000      -0.505135       -13.7454
  49   2.0000      -0.500284       -13.6134
  50   2.0000      -0.484337       -13.1795
  51   2.0000      -0.478050       -13.0084
  52   2.0000      -0.470523       -12.8036
  53   2.0000      -0.463415       -12.6102
  54   2.0000      -0.453546       -12.3416
  55   2.0000      -0.451779       -12.2935
  56   2.0000      -0.442663       -12.0455
  57   2.0000      -0.438613       -11.9353
  58   2.0000      -0.436843       -11.8871
  59   2.0000      -0.427859       -11.6426
  60   2.0000      -0.421522       -11.4702
  61   2.0000      -0.415325       -11.3016
  62   2.0000      -0.412361       -11.2209
  63   2.0000      -0.343310        -9.3419
  64   2.0000      -0.330620        -8.9966
  65   2.0000      -0.327552        -8.9132
  66   2.0000      -0.296530        -8.0690
  67   0.0000       0.033388         0.9085
  68   0.0000       0.060619         1.6495
  69   0.0000       0.114478         3.1151
  70   0.0000       0.117402         3.1947
  71   0.0000       0.125519         3.4156

MULLIKEN ATOMIC CHARGES
-----------------------
   0 S :    0.111205
   1 C :   -0.109905
   2 C :   -0.118096
   3 C :    0.027368
   4 C :   -0.154061
   5 H :    0.032190
   6 C :    0.090641
   7 H :    0.016721
   8 H :    0.034078
   9 C :   -0.037352
  10 H :    0.033803
  11 H :    0.036200
  12 C :   -0.079289
  13 H :    0.023042
  14 H :    0.011589
  15 H :    0.028470
  16 S :    0.103597
  17 C :   -0.085919
  18 C :   -0.039617
  19 C :   -0.030106
  20 C :   -0.182587
  21 H :    0.037538
  22 C :    0.027595
  23 H :    0.027685
  24 H :    0.032724
  25 C :   -0.042050
  26 H :    0.036230
  27 H :    0.031519
  28 C :   -0.017751
  29 H :    0.009371
  30 H :    0.018789
  31 H :    0.022325
  32 H :    0.046575
  33 H :    0.057478
Sum of atomic charges:   -0.0000000

LOEWDIN ATOMIC CHARGES
----------------------
   0 S :    0.392396
   1 C :   -0.194804
   2 C :   -0.057497
   3 C :   -0.069513
   4 C :   -0.196194
   5 H :    0.039695
   6 C :   -0.026340
   7 H :    0.028978
   8 H :    0.031865
   9 C :   -0.026902
  10 H :    0.023194
  11 H :    0.027065
  12 C :   -0.078469
  13 H :    0.030284
  14 H :    0.011805
  15 H :    0.023701
  16 S :    0.397866
  17 C :   -0.178690
  18 C :   -0.081431
  19 C :   -0.056236
  20 C :   -0.194227
  21 H :    0.039537
  22 C :   -0.036091
  23 H :    0.032102
  24 H :    0.035655
  25 C :   -0.035862
  26 H :    0.028959
  27 H :    0.025985
  28 C :   -0.063899
  29 H :    0.020076
  30 H :    0.030210
  31 H :    0.017464
  32 H :    0.031491
  33 H :    0.027824

  Mayer bond orders larger than 0.100000
B(  0-S ,  1-C ) :   1.1137 B(  0-S ,  4-C ) :   1.1448 B(  1-C ,  2-C ) :   1.6482
B(  1-C , 32-H ) :   0.9683 B(  2-C ,  3-C ) :   1.2004 B(  2-C ,  6-C ) :   1.0233
B(  3-C ,  4-C ) :   1.6150 B(  3-C ,  5-H ) :   0.9820 B(  4-C , 20-C ) :   1.0245
B(  6-C ,  7-H ) :   0.9391 B(  6-C ,  8-H ) :   0.9476 B(  6-C ,  9-C ) :   1.0610
B(  9-C , 10-H ) :   0.9599 B(  9-C , 11-H ) :   0.9601 B(  9-C , 12-C ) :   1.0622
B( 12-C , 13-H ) :   0.9730 B( 12-C , 14-H ) :   0.9760 B( 12-C , 15-H ) :   0.9736
B( 16-S , 17-C ) :   1.1490 B( 16-S , 20-C ) :   1.1587 B( 17-C , 18-C ) :   1.5897
B( 17-C , 20-C ) :   0.1052 B( 17-C , 33-H ) :   0.9754 B( 18-C , 19-C ) :   1.2730
B( 18-C , 21-H ) :   0.9707 B( 19-C , 20-C ) :   1.5543 B( 19-C , 22-C ) :   1.0431
B( 22-C , 23-H ) :   0.9274 B( 22-C , 24-H ) :   0.9378 B( 22-C , 25-C ) :   1.0634
B( 25-C , 26-H ) :   0.9539 B( 25-C , 27-H ) :   0.9535 B( 25-C , 28-C ) :   1.0845
B( 28-C , 29-H ) :   0.9720 B( 28-C , 30-H ) :   0.9689 B( 28-C , 31-H ) :   0.9720

Dispersion correction           -0.014771722
FINAL SINGLE POINT ENERGY     -1339.874779055032

DIPOLE MOMENT
-------------
                                X             Y             Z
Electronic contribution:    -22.84144      19.91157      -4.10339
Nuclear contribution   :     23.33260     -20.38630       4.32785
                        -----------------------------------------
Total Dipole Moment    :      0.49116      -0.47473       0.22446
                        -----------------------------------------
Magnitude (a.u.)       :      0.71902
Magnitude (Debye)      :      1.82761

Rotational constants in cm-1:     0.016581     0.009868     0.007186
Rotational constants in MHz :   497.086239   295.844361   215.421085

                             ****ORCA TERMINATED NORMALLY****
TOTAL RUN TIME: 0 days 0 hours 0 minutes 34 seconds 244 msec
