                         Program Version 4.2.1 -  RELEASE  -
|  1> ! wB97X-D3 SP def2-SVP
|  2> %pal
|  3> nprocs 16
|  4> end
|  5>
|  6> * xyz 0 1
|  7> S 	 27.4893 	 33.5654 	 56.7031
|  8> C 	 28.4482 	 32.2542 	 56.1339
|  9> C 	 29.3087 	 31.8142 	 57.0784
| 10> C 	 29.2588 	 32.6424 	 58.271
| 11> C 	 28.3005 	 33.6158 	 58.2061
| 12> H 	 29.8346 	 32.5244 	 59.1413
| 13> C 	 30.3059 	 30.6958 	 56.9299
| 14> H 	 29.8148 	 29.8237 	 56.5318
| 15> H 	 30.575 	 30.3654 	 57.8907
| 16> C 	 31.6292 	 31.0807 	 56.2262
| 17> H 	 31.383 	 31.1712 	 55.1278
| 18> H 	 31.9329 	 32.0992 	 56.5855
| 19> C 	 32.8362 	 30.227 	 56.4604
| 20> H 	 32.4805 	 29.2045 	 56.2424
| 21> H 	 33.7214 	 30.3816 	 55.8117
| 22> H 	 33.1591 	 30.3075 	 57.4596
| 23> S 	 28.4601 	 36.2175 	 59.1462
| 24> C 	 27.7822 	 36.6382 	 60.7104
| 25> C 	 27.2713 	 35.5116 	 61.3309
| 26> C 	 27.5084 	 34.3098 	 60.606
| 27> C 	 28.0816 	 34.5378 	 59.3427
| 28> H 	 26.959 	 35.7005 	 62.3347
| 29> C 	 27.1414 	 32.9619 	 61.1372
| 30> H 	 27.3048 	 32.2148 	 60.4241
| 31> H 	 26.0346 	 33.1203 	 61.3393
| 32> C 	 27.9229 	 32.5275 	 62.3821
| 33> H 	 27.3484 	 31.7498 	 62.8984
| 34> H 	 27.9944 	 33.2309 	 63.1985
| 35> C 	 29.3599 	 32.1555 	 61.9652
| 36> H 	 29.847 	 32.886 	 61.3774
| 37> H 	 29.3275 	 31.199 	 61.3716
| 38> H 	 30.0153 	 31.9762 	 62.7869
| 39> H 	 28.4568 	 31.7124 	 55.1962
| 40> H 	 27.6892 	 37.6275 	 61.1663
| 41> *
| 42>
| 43>                          ****END OF INPUT****

CARTESIAN COORDINATES (ANGSTROEM)
---------------------------------
  S     27.489300   33.565400   56.703100
  C     28.448200   32.254200   56.133900
  C     29.308700   31.814200   57.078400
  C     29.258800   32.642400   58.271000
  C     28.300500   33.615800   58.206100
  H     29.834600   32.524400   59.141300
  C     30.305900   30.695800   56.929900
  H     29.814800   29.823700   56.531800
  H     30.575000   30.365400   57.890700
  C     31.629200   31.080700   56.226200
  H     31.383000   31.171200   55.127800
  H     31.932900   32.099200   56.585500
  C     32.836200   30.227000   56.460400
  H     32.480500   29.204500   56.242400
  H     33.721400   30.381600   55.811700
  H     33.159100   30.307500   57.459600
  S     28.460100   36.217500   59.146200
  C     27.782200   36.638200   60.710400
  C     27.271300   35.511600   61.330900
  C     27.508400   34.309800   60.606000
  C     28.081600   34.537800   59.342700
  H     26.959000   35.700500   62.334700
  C     27.141400   32.961900   61.137200
  H     27.304800   32.214800   60.424100
  H     26.034600   33.120300   61.339300
  C     27.922900   32.527500   62.382100
  H     27.348400   31.749800   62.898400
  H     27.994400   33.230900   63.198500
  C     29.359900   32.155500   61.965200
  H     29.847000   32.886000   61.377400
  H     29.327500   31.199000   61.371600
  H     30.015300   31.976200   62.786900
  H     28.456800   31.712400   55.196200
  H     27.689200   37.627500   61.166300

 Total Charge           Charge          ....    0
 Multiplicity           Mult            ....    1
 Number of Electrons    NEL             ....  134
 Basis Dimension        Dim             ....  322

ORBITAL ENERGIES
----------------

  NO   OCC          E(Eh)            E(eV)
   0   2.0000     -88.967976     -2420.9417
   1   2.0000     -88.963864     -2420.8298
   2   2.0000     -10.325752      -280.9780
   3   2.0000     -10.324364      -280.9402
   4   2.0000     -10.318037      -280.7681
   5   2.0000     -10.307703      -280.4868
   6   2.0000     -10.303247      -280.3656
   7   2.0000     -10.295251      -280.1480
   8   2.0000     -10.290670      -280.0234
   9   2.0000     -10.290512      -280.0191
  10   2.0000     -10.287748      -279.9439
  11   2.0000     -10.287279      -279.9311
  12   2.0000     -10.286857      -279.9196
  13   2.0000     -10.286538      -279.9109
  14   2.0000     -10.276866      -279.6477
  15   2.0000     -10.276173      -279.6289
  16   2.0000      -8.083573      -219.9652
  17   2.0000      -8.078695      -219.8325
  18   2.0000      -6.042165      -164.4157
  19   2.0000      -6.037894      -164.2994
  20   2.0000      -6.037154      -164.2793
  21   2.0000      -6.034238      -164.2000
  22   2.0000      -6.033056      -164.1678
  23   2.0000      -6.029643      -164.0749
  24   2.0000      -1.011312       -27.5192
  25   2.0000      -0.988379       -26.8952
  26   2.0000      -0.914087       -24.8736
  27   2.0000      -0.911897       -24.8140
  28   2.0000      -0.872227       -23.7345
  29   2.0000      -0.852407       -23.1952
  30   2.0000      -0.846670       -23.0391
  31   2.0000      -0.818753       -22.2794
  32   2.0000      -0.784695       -21.3526
  33   2.0000      -0.773593       -21.0505
  34   2.0000      -0.710956       -19.3461
  35   2.0000      -0.698988       -19.0204
  36   2.0000      -0.695235       -18.9183
  37   2.0000      -0.654520       -17.8104
  38   2.0000      -0.643836       -17.5197
  39   2.0000      -0.620328       -16.8800
  40   2.0000      -0.597234       -16.2516
  41   2.0000      -0.577278       -15.7085
  42   2.0000      -0.564673       -15.3655
  43   2.0000      -0.557137       -15.1605
  44   2.0000      -0.535145       -14.5620
  45   2.0000      -0.525654       -14.3038
  46   2.0000      -0.520414       -14.1612
  47   2.0000      -0.514742       -14.0068
  48   2.0000      -0.506668       -13.7871
  49   2.0000      -0.502382       -13.6705
  50   2.0000      -0.488954       -13.3051
  51   2.0000      -0.481982       -13.1154
  52   2.0000      -0.474369       -12.9082
  53   2.0000      -0.466171       -12.6852
  54   2.0000      -0.459020       -12.4906
  55   2.0000      -0.455917       -12.4061
  56   2.0000      -0.445345       -12.1185
  57   2.0000      -0.438426       -11.9302
  58   2.0000      -0.431541       -11.7428
  59   2.0000      -0.424392       -11.5483
  60   2.0000      -0.415921       -11.3178
  61   2.0000      -0.413062       -11.2400
  62   2.0000      -0.411087       -11.1862
  63   2.0000      -0.338454        -9.2098
  64   2.0000      -0.329535        -8.9671
  65   2.0000      -0.327264        -8.9053
  66   2.0000      -0.303896        -8.2694
  67   0.0000       0.043019         1.1706
  68   0.0000       0.067844         1.8461
  69   0.0000       0.120749         3.2857
  70   0.0000       0.124358         3.3840
  71   0.0000       0.131180         3.5696

MULLIKEN ATOMIC CHARGES
-----------------------
   0 S :    0.139092
   1 C :   -0.109031
   2 C :   -0.106817
   3 C :    0.047250
   4 C :   -0.137004
   5 H :   -0.029350
   6 C :    0.118949
   7 H :    0.020688
   8 H :   -0.011916
   9 C :   -0.097226
  10 H :    0.032446
  11 H :    0.032808
  12 C :   -0.033232
  13 H :    0.023218
  14 H :    0.044106
  15 H :    0.027636
  16 S :    0.111753
  17 C :   -0.109874
  18 C :   -0.032902
  19 C :   -0.040409
  20 C :   -0.191779
  21 H :    0.014245
  22 C :    0.094584
  23 H :    0.010053
  24 H :    0.046232
  25 C :   -0.052417
  26 H :    0.026816
  27 H :    0.016231
  28 C :   -0.059088
  29 H :    0.045622
  30 H :    0.034671
  31 H :    0.024837
  32 H :    0.037494
  33 H :    0.062312
Sum of atomic charges:   -0.0000000

LOEWDIN ATOMIC CHARGES
----------------------
   0 S :    0.437421
   1 C :   -0.206586
   2 C :   -0.063397
   3 C :   -0.053076
   4 C :   -0.213357
   5 H :    0.019319
   6 C :   -0.031190
   7 H :    0.028624
   8 H :    0.020827
   9 C :   -0.045402
  10 H :    0.025809
  11 H :    0.027578
  12 C :   -0.067221
  13 H :    0.025710
  14 H :    0.034197
  15 H :    0.018752
  16 S :    0.411873
  17 C :   -0.185024
  18 C :   -0.074541
  19 C :   -0.054165
  20 C :   -0.210873
  21 H :    0.029997
  22 C :   -0.027555
  23 H :    0.021848
  24 H :    0.043920
  25 C :   -0.038567
  26 H :    0.026973
  27 H :    0.018602
  28 C :   -0.061623
  29 H :    0.019501
  30 H :    0.029699
  31 H :    0.022482
  32 H :    0.034435
  33 H :    0.035010

  Mayer bond orders larger than 0.100000
B(  0-S ,  1-C ) :   1.1345 B(  0-S ,  4-C ) :   1.1536 B(  1-C ,  2-C ) :   1.6382
B(  1-C , 32-H ) :   0.9626 B(  2-C ,  3-C ) :   1.2282 B(  2-C ,  6-C ) :   1.0396
B(  3-C ,  4-C ) :   1.5782 B(  3-C ,  5-H ) :   1.0033 B(  4-C , 20-C ) :   1.0142
B(  6-C ,  7-H ) :   0.9289 B(  6-C ,  8-H ) :   0.9291 B(  6-C ,  9-C ) :   1.0507
B(  9-C , 10-H ) :   0.9547 B(  9-C , 11-H ) :   0.9590 B(  9-C , 12-C ) :   1.0842
B( 12-C , 13-H ) :   0.9731 B( 12-C , 14-H ) :   0.9724 B( 12-C , 15-H ) :   0.9742
B( 16-S , 17-C ) :   1.1613 B( 16-S , 20-C ) :   1.1531 B( 17-C , 18-C ) :   1.6161
B( 17-C , 33-H ) :   0.9642 B( 18-C , 19-C ) :   1.2385 B( 18-C , 21-H ) :   0.9914
B( 19-C , 20-C ) :   1.5734 B( 19-C , 22-C ) :   1.0542 B( 22-C , 23-H ) :   0.9302
B( 22-C , 24-H ) :   0.9294 B( 22-C , 25-C ) :   1.0625 B( 25-C , 26-H ) :   0.9553
B( 25-C , 27-H ) :   0.9598 B( 25-C , 28-C ) :   1.0648 B( 28-C , 29-H ) :   0.9710
B( 28-C , 30-H ) :   0.9744 B( 28-C , 31-H ) :   0.9686

Dispersion correction           -0.015069011
FINAL SINGLE POINT ENERGY     -1339.878096997745

DIPOLE MOMENT
-------------
                                X             Y             Z
Electronic contribution:    -15.27068      21.51856      -7.87038
Nuclear contribution   :     15.49875     -21.97130       8.31756
                        -----------------------------------------
Total Dipole Moment    :      0.22807      -0.45275       0.44719
                        -----------------------------------------
Magnitude (a.u.)       :      0.67600
Magnitude (Debye)      :      1.71824

Rotational constants in cm-1:     0.019674     0.008381     0.007031
Rotational constants in MHz :   589.799052   251.258320   210.787636

                             ****ORCA TERMINATED NORMALLY****
TOTAL RUN TIME: 0 days 0 hours 0 minutes 35 seconds 748 msec
