                         Program Version 4.2.1 -  RELEASE  -
|  1> ! wB97X-D3 SP def2-SVP
|  2> %pal
|  3> nprocs 16
|  4> end
|  5>
|  6> * xyz 0 1
|  7> S 	 35.5108 	 1.95359 	 68.0778
|  8> C 	 35.5309 	 3.65216 	 67.7162
|  9> C 	 34.6533 	 4.35016 	 68.5528
| 10> C 	 34.0473 	 3.44734 	 69.4942
| 11> C 	 34.4711 	 2.11948 	 69.3858
| 12> H 	 33.4516 	 3.65796 	 70.286
| 13> C 	 34.319 	 5.83779 	 68.4508
| 14> H 	 35.2519 	 6.31928 	 68.124
| 15> H 	 34.2657 	 6.16201 	 69.4971
| 16> C 	 33.0862 	 6.27738 	 67.603
| 17> H 	 32.2035 	 5.67304 	 67.9357
| 18> H 	 32.9105 	 7.37017 	 67.7084
| 19> C 	 33.3052 	 6.1427 	 66.0614
| 20> H 	 32.3438 	 6.13274 	 65.6139
| 21> H 	 33.8272 	 7.07029 	 65.6878
| 22> H 	 33.8551 	 5.2288 	 65.7338
| 23> S 	 33.1745 	 -0.352621 	 69.0349
| 24> C 	 32.6877 	 -1.26226 	 70.4307
| 25> C 	 33.2307 	 -0.777382 	 71.5778
| 26> C 	 33.8354 	 0.495403 	 71.3826
| 27> C 	 33.9383 	 0.90098 	 70.0251
| 28> H 	 33.1555 	 -1.34766 	 72.5067
| 29> C 	 34.4029 	 1.31027 	 72.5402
| 30> H 	 35.3017 	 1.73619 	 72.2032
| 31> H 	 34.8134 	 0.633337 	 73.3572
| 32> C 	 33.4755 	 2.30141 	 73.3196
| 33> H 	 32.9228 	 2.96547 	 72.7069
| 34> H 	 34.0607 	 3.0749 	 73.8465
| 35> C 	 32.4268 	 1.70442 	 74.2482
| 36> H 	 31.7628 	 2.44892 	 74.5608
| 37> H 	 32.9003 	 1.27841 	 75.1798
| 38> H 	 32.002 	 0.746901 	 73.8181
| 39> H 	 36.0599 	 3.9674 	 66.832
| 40> H 	 31.9561 	 -2.11406 	 70.4089
| 41> *
| 42>
| 43>                          ****END OF INPUT****

CARTESIAN COORDINATES (ANGSTROEM)
---------------------------------
  S     35.510800    1.953590   68.077800
  C     35.530900    3.652160   67.716200
  C     34.653300    4.350160   68.552800
  C     34.047300    3.447340   69.494200
  C     34.471100    2.119480   69.385800
  H     33.451600    3.657960   70.286000
  C     34.319000    5.837790   68.450800
  H     35.251900    6.319280   68.124000
  H     34.265700    6.162010   69.497100
  C     33.086200    6.277380   67.603000
  H     32.203500    5.673040   67.935700
  H     32.910500    7.370170   67.708400
  C     33.305200    6.142700   66.061400
  H     32.343800    6.132740   65.613900
  H     33.827200    7.070290   65.687800
  H     33.855100    5.228800   65.733800
  S     33.174500   -0.352621   69.034900
  C     32.687700   -1.262260   70.430700
  C     33.230700   -0.777382   71.577800
  C     33.835400    0.495403   71.382600
  C     33.938300    0.900980   70.025100
  H     33.155500   -1.347660   72.506700
  C     34.402900    1.310270   72.540200
  H     35.301700    1.736190   72.203200
  H     34.813400    0.633337   73.357200
  C     33.475500    2.301410   73.319600
  H     32.922800    2.965470   72.706900
  H     34.060700    3.074900   73.846500
  C     32.426800    1.704420   74.248200
  H     31.762800    2.448920   74.560800
  H     32.900300    1.278410   75.179800
  H     32.002000    0.746901   73.818100
  H     36.059900    3.967400   66.832000
  H     31.956100   -2.114060   70.408900

 Total Charge           Charge          ....    0
 Multiplicity           Mult            ....    1
 Number of Electrons    NEL             ....  134
 Basis Dimension        Dim             ....  322

ORBITAL ENERGIES
----------------

  NO   OCC          E(Eh)            E(eV)
   0   2.0000     -88.966807     -2420.9099
   1   2.0000     -88.963751     -2420.8267
   2   2.0000     -10.332791      -281.1695
   3   2.0000     -10.327219      -281.0179
   4   2.0000     -10.319505      -280.8080
   5   2.0000     -10.314251      -280.6651
   6   2.0000     -10.308180      -280.4998
   7   2.0000     -10.307452      -280.4800
   8   2.0000     -10.297972      -280.2221
   9   2.0000     -10.296188      -280.1735
  10   2.0000     -10.293558      -280.1020
  11   2.0000     -10.293296      -280.0948
  12   2.0000     -10.288522      -279.9649
  13   2.0000     -10.285297      -279.8772
  14   2.0000     -10.281109      -279.7632
  15   2.0000     -10.279303      -279.7141
  16   2.0000      -8.081432      -219.9069
  17   2.0000      -8.080265      -219.8752
  18   2.0000      -6.039935      -164.3550
  19   2.0000      -6.038459      -164.3148
  20   2.0000      -6.035870      -164.2444
  21   2.0000      -6.034318      -164.2022
  22   2.0000      -6.032274      -164.1465
  23   2.0000      -6.031452      -164.1242
  24   2.0000      -1.010314       -27.4920
  25   2.0000      -0.987321       -26.8664
  26   2.0000      -0.905862       -24.6498
  27   2.0000      -0.902577       -24.5604
  28   2.0000      -0.867163       -23.5967
  29   2.0000      -0.850511       -23.1436
  30   2.0000      -0.846180       -23.0257
  31   2.0000      -0.816324       -22.2133
  32   2.0000      -0.784678       -21.3522
  33   2.0000      -0.771469       -20.9927
  34   2.0000      -0.707087       -19.2408
  35   2.0000      -0.697360       -18.9761
  36   2.0000      -0.687873       -18.7180
  37   2.0000      -0.659548       -17.9472
  38   2.0000      -0.648466       -17.6457
  39   2.0000      -0.617849       -16.8125
  40   2.0000      -0.593054       -16.1378
  41   2.0000      -0.569627       -15.5003
  42   2.0000      -0.559060       -15.2128
  43   2.0000      -0.547606       -14.9011
  44   2.0000      -0.542022       -14.7492
  45   2.0000      -0.531046       -14.4505
  46   2.0000      -0.520794       -14.1715
  47   2.0000      -0.511185       -13.9100
  48   2.0000      -0.500213       -13.6115
  49   2.0000      -0.496364       -13.5067
  50   2.0000      -0.485210       -13.2032
  51   2.0000      -0.476218       -12.9586
  52   2.0000      -0.473568       -12.8864
  53   2.0000      -0.470047       -12.7906
  54   2.0000      -0.457133       -12.4392
  55   2.0000      -0.450964       -12.2713
  56   2.0000      -0.443909       -12.0794
  57   2.0000      -0.438006       -11.9188
  58   2.0000      -0.430088       -11.7033
  59   2.0000      -0.424531       -11.5521
  60   2.0000      -0.420319       -11.4375
  61   2.0000      -0.413485       -11.2515
  62   2.0000      -0.402959       -10.9651
  63   2.0000      -0.346167        -9.4197
  64   2.0000      -0.331810        -9.0290
  65   2.0000      -0.329791        -8.9741
  66   2.0000      -0.293710        -7.9923
  67   0.0000       0.033738         0.9181
  68   0.0000       0.061525         1.6742
  69   0.0000       0.115925         3.1545
  70   0.0000       0.119965         3.2644
  71   0.0000       0.135039         3.6746

MULLIKEN ATOMIC CHARGES
-----------------------
   0 S :    0.108107
   1 C :   -0.133083
   2 C :   -0.091224
   3 C :    0.088143
   4 C :   -0.170603
   5 H :   -0.047610
   6 C :    0.067080
   7 H :    0.020586
   8 H :    0.026757
   9 C :   -0.068689
  10 H :    0.044739
  11 H :    0.042441
  12 C :   -0.076727
  13 H :    0.030755
  14 H :    0.038523
  15 H :    0.044442
  16 S :    0.113156
  17 C :   -0.117361
  18 C :   -0.026260
  19 C :   -0.033707
  20 C :   -0.141813
  21 H :    0.029794
  22 C :    0.054174
  23 H :    0.019797
  24 H :    0.025542
  25 C :   -0.044369
  26 H :    0.007827
  27 H :    0.021559
  28 C :   -0.056740
  29 H :    0.033167
  30 H :    0.021648
  31 H :    0.038428
  32 H :    0.054175
  33 H :    0.077349
Sum of atomic charges:    0.0000000

LOEWDIN ATOMIC CHARGES
----------------------
   0 S :    0.446611
   1 C :   -0.203355
   2 C :   -0.059586
   3 C :   -0.052935
   4 C :   -0.217425
   5 H :    0.010214
   6 C :   -0.038807
   7 H :    0.031352
   8 H :    0.032572
   9 C :   -0.039714
  10 H :    0.029647
  11 H :    0.032083
  12 C :   -0.071618
  13 H :    0.022008
  14 H :    0.029998
  15 H :    0.027064
  16 S :    0.406841
  17 C :   -0.193072
  18 C :   -0.079818
  19 C :   -0.052896
  20 C :   -0.200533
  21 H :    0.036859
  22 C :   -0.034337
  23 H :    0.025846
  24 H :    0.038433
  25 C :   -0.044533
  26 H :    0.014253
  27 H :    0.028402
  28 C :   -0.067650
  29 H :    0.020195
  30 H :    0.024939
  31 H :    0.032524
  32 H :    0.023986
  33 H :    0.042449

  Mayer bond orders larger than 0.100000
B(  0-S ,  1-C ) :   1.1675 B(  0-S ,  4-C ) :   1.1898 B(  1-C ,  2-C ) :   1.5571
B(  1-C , 32-H ) :   0.9750 B(  2-C ,  3-C ) :   1.2642 B(  2-C ,  6-C ) :   1.0179
B(  3-C ,  4-C ) :   1.5393 B(  3-C ,  5-H ) :   1.0141 B(  4-C , 20-C ) :   1.0163
B(  6-C ,  7-H ) :   0.9420 B(  6-C ,  8-H ) :   0.9393 B(  6-C ,  9-C ) :   1.0583
B(  9-C , 10-H ) :   0.9611 B(  9-C , 11-H ) :   0.9573 B(  9-C , 12-C ) :   1.0658
B( 12-C , 13-H ) :   0.9749 B( 12-C , 14-H ) :   0.9783 B( 12-C , 15-H ) :   0.9776
B( 16-S , 17-C ) :   1.1702 B( 16-S , 20-C ) :   1.1395 B( 17-C , 18-C ) :   1.5959
B( 17-C , 20-C ) :   0.1003 B( 17-C , 33-H ) :   0.9576 B( 18-C , 19-C ) :   1.2560
B( 18-C , 21-H ) :   0.9879 B( 19-C , 20-C ) :   1.5822 B( 19-C , 22-C ) :   1.0420
B( 22-C , 23-H ) :   0.9321 B( 22-C , 24-H ) :   0.9452 B( 22-C , 25-C ) :   1.0556
B( 25-C , 26-H ) :   0.9564 B( 25-C , 27-H ) :   0.9505 B( 25-C , 28-C ) :   1.0790
B( 28-C , 29-H ) :   0.9739 B( 28-C , 30-H ) :   0.9727 B( 28-C , 31-H ) :   0.9735

Dispersion correction           -0.014346844
FINAL SINGLE POINT ENERGY     -1339.870127674873

DIPOLE MOMENT
-------------
                                X             Y             Z
Electronic contribution:      6.98356     -19.75561     -10.58152
Nuclear contribution   :     -7.20115      20.14173      10.89665
                        -----------------------------------------
Total Dipole Moment    :     -0.21759       0.38612       0.31512
                        -----------------------------------------
Magnitude (a.u.)       :      0.54382
Magnitude (Debye)      :      1.38227

Rotational constants in cm-1:     0.020056     0.007983     0.006593
Rotational constants in MHz :   601.275611   239.318638   197.665516

                             ****ORCA TERMINATED NORMALLY****
TOTAL RUN TIME: 0 days 0 hours 0 minutes 29 seconds 587 msec
