                         Program Version 4.2.1 -  RELEASE  -
|  1> ! wB97X-D3 SP def2-SVP
|  2> %pal
|  3> nprocs 16
|  4> end
|  5>
|  6> * xyz 0 1
|  7> S 	 -14.7624 	 40.5838 	 30.9007
|  8> C 	 -15.8138 	 39.5957 	 31.9417
|  9> C 	 -17.1288 	 40.1321 	 31.8874
| 10> C 	 -17.2624 	 41.2526 	 31.0378
| 11> C 	 -16.0761 	 41.5408 	 30.3438
| 12> H 	 -18.2185 	 41.7657 	 30.9647
| 13> C 	 -18.2183 	 39.6923 	 32.8713
| 14> H 	 -18.7113 	 38.8803 	 32.3829
| 15> H 	 -19.0168 	 40.3624 	 32.8639
| 16> C 	 -17.786 	 39.3984 	 34.3123
| 17> H 	 -18.7198 	 39.2531 	 34.8686
| 18> H 	 -17.3376 	 38.4447 	 34.3911
| 19> C 	 -16.9874 	 40.6073 	 34.9482
| 20> H 	 -16.0463 	 40.8412 	 34.4941
| 21> H 	 -17.6605 	 41.4431 	 35.0273
| 22> H 	 -16.7035 	 40.3032 	 35.9784
| 23> S 	 -16.0611 	 42.1303 	 27.5826
| 24> C 	 -15.4077 	 43.688 	 27.0213
| 25> C 	 -15.2808 	 44.5032 	 28.1396
| 26> C 	 -15.5493 	 43.943 	 29.4389
| 27> C 	 -15.8525 	 42.5776 	 29.3226
| 28> H 	 -15.0661 	 45.5549 	 27.8352
| 29> C 	 -15.3658 	 44.5846 	 30.7251
| 30> H 	 -14.3742 	 44.9922 	 30.6864
| 31> H 	 -15.3587 	 43.7795 	 31.5552
| 32> C 	 -16.5081 	 45.496 	 31.115
| 33> H 	 -16.422 	 45.9339 	 32.1109
| 34> H 	 -17.4123 	 44.9352 	 31.0111
| 35> C 	 -16.6141 	 46.727 	 30.189
| 36> H 	 -17.4296 	 47.5056 	 30.4482
| 37> H 	 -16.6559 	 46.4088 	 29.1549
| 38> H 	 -15.6963 	 47.3745 	 30.2962
| 39> H 	 -15.6596 	 38.7571 	 32.5728
| 40> H 	 -15.2228 	 44.0122 	 26.0174
| 41> *
| 42>
| 43>                          ****END OF INPUT****

CARTESIAN COORDINATES (ANGSTROEM)
---------------------------------
  S    -14.762400   40.583800   30.900700
  C    -15.813800   39.595700   31.941700
  C    -17.128800   40.132100   31.887400
  C    -17.262400   41.252600   31.037800
  C    -16.076100   41.540800   30.343800
  H    -18.218500   41.765700   30.964700
  C    -18.218300   39.692300   32.871300
  H    -18.711300   38.880300   32.382900
  H    -19.016800   40.362400   32.863900
  C    -17.786000   39.398400   34.312300
  H    -18.719800   39.253100   34.868600
  H    -17.337600   38.444700   34.391100
  C    -16.987400   40.607300   34.948200
  H    -16.046300   40.841200   34.494100
  H    -17.660500   41.443100   35.027300
  H    -16.703500   40.303200   35.978400
  S    -16.061100   42.130300   27.582600
  C    -15.407700   43.688000   27.021300
  C    -15.280800   44.503200   28.139600
  C    -15.549300   43.943000   29.438900
  C    -15.852500   42.577600   29.322600
  H    -15.066100   45.554900   27.835200
  C    -15.365800   44.584600   30.725100
  H    -14.374200   44.992200   30.686400
  H    -15.358700   43.779500   31.555200
  C    -16.508100   45.496000   31.115000
  H    -16.422000   45.933900   32.110900
  H    -17.412300   44.935200   31.011100
  C    -16.614100   46.727000   30.189000
  H    -17.429600   47.505600   30.448200
  H    -16.655900   46.408800   29.154900
  H    -15.696300   47.374500   30.296200
  H    -15.659600   38.757100   32.572800
  H    -15.222800   44.012200   26.017400

 Total Charge           Charge          ....    0
 Multiplicity           Mult            ....    1
 Number of Electrons    NEL             ....  134
 Basis Dimension        Dim             ....  322

ORBITAL ENERGIES
----------------

  NO   OCC          E(Eh)            E(eV)
   0   2.0000     -88.973530     -2421.0928
   1   2.0000     -88.961632     -2420.7691
   2   2.0000     -10.331887      -281.1450
   3   2.0000     -10.331602      -281.1372
   4   2.0000     -10.321327      -280.8576
   5   2.0000     -10.315478      -280.6984
   6   2.0000     -10.306125      -280.4439
   7   2.0000     -10.300125      -280.2807
   8   2.0000     -10.298966      -280.2491
   9   2.0000     -10.296910      -280.1932
  10   2.0000     -10.290227      -280.0113
  11   2.0000     -10.289233      -279.9843
  12   2.0000     -10.284608      -279.8584
  13   2.0000     -10.284294      -279.8499
  14   2.0000     -10.281667      -279.7784
  15   2.0000     -10.279394      -279.7165
  16   2.0000      -8.087351      -220.0680
  17   2.0000      -8.075072      -219.7339
  18   2.0000      -6.045867      -164.5164
  19   2.0000      -6.041759      -164.4046
  20   2.0000      -6.038365      -164.3123
  21   2.0000      -6.033707      -164.1855
  22   2.0000      -6.029757      -164.0780
  23   2.0000      -6.025756      -163.9692
  24   2.0000      -1.001162       -27.2430
  25   2.0000      -0.978208       -26.6184
  26   2.0000      -0.915131       -24.9020
  27   2.0000      -0.910987       -24.7892
  28   2.0000      -0.861595       -23.4452
  29   2.0000      -0.846774       -23.0419
  30   2.0000      -0.840742       -22.8778
  31   2.0000      -0.809561       -22.0293
  32   2.0000      -0.786855       -21.4114
  33   2.0000      -0.771193       -20.9852
  34   2.0000      -0.712581       -19.3903
  35   2.0000      -0.708730       -19.2855
  36   2.0000      -0.692719       -18.8498
  37   2.0000      -0.654074       -17.7983
  38   2.0000      -0.634411       -17.2632
  39   2.0000      -0.612812       -16.6755
  40   2.0000      -0.593906       -16.1610
  41   2.0000      -0.578807       -15.7501
  42   2.0000      -0.559897       -15.2356
  43   2.0000      -0.555270       -15.1097
  44   2.0000      -0.541846       -14.7444
  45   2.0000      -0.538341       -14.6490
  46   2.0000      -0.512160       -13.9366
  47   2.0000      -0.509328       -13.8595
  48   2.0000      -0.503213       -13.6931
  49   2.0000      -0.492021       -13.3886
  50   2.0000      -0.488712       -13.2985
  51   2.0000      -0.486332       -13.2338
  52   2.0000      -0.471183       -12.8215
  53   2.0000      -0.463616       -12.6156
  54   2.0000      -0.458974       -12.4893
  55   2.0000      -0.446671       -12.1545
  56   2.0000      -0.432859       -11.7787
  57   2.0000      -0.430896       -11.7253
  58   2.0000      -0.427527       -11.6336
  59   2.0000      -0.425545       -11.5797
  60   2.0000      -0.420102       -11.4315
  61   2.0000      -0.418816       -11.3966
  62   2.0000      -0.408825       -11.1247
  63   2.0000      -0.335511        -9.1297
  64   2.0000      -0.325391        -8.8543
  65   2.0000      -0.316246        -8.6055
  66   2.0000      -0.311070        -8.4646
  67   0.0000       0.037155         1.0110
  68   0.0000       0.046169         1.2563
  69   0.0000       0.111417         3.0318
  70   0.0000       0.115590         3.1454
  71   0.0000       0.130606         3.5540

MULLIKEN ATOMIC CHARGES
-----------------------
   0 S :    0.144283
   1 C :   -0.099942
   2 C :   -0.140551
   3 C :    0.056447
   4 C :   -0.191736
   5 H :    0.016653
   6 C :    0.105825
   7 H :    0.024506
   8 H :   -0.010766
   9 C :   -0.069258
  10 H :    0.026883
  11 H :    0.019941
  12 C :   -0.037503
  13 H :    0.043750
  14 H :    0.032755
  15 H :    0.028917
  16 S :    0.094533
  17 C :   -0.089746
  18 C :   -0.070468
  19 C :    0.004058
  20 C :   -0.179556
  21 H :    0.037148
  22 C :    0.050622
  23 H :    0.032395
  24 H :    0.047008
  25 C :   -0.017184
  26 H :    0.034381
  27 H :    0.023847
  28 C :   -0.112035
  29 H :    0.046120
  30 H :    0.037977
  31 H :    0.024201
  32 H :    0.032276
  33 H :    0.054220
Sum of atomic charges:   -0.0000000

LOEWDIN ATOMIC CHARGES
----------------------
   0 S :    0.435150
   1 C :   -0.198714
   2 C :   -0.056883
   3 C :   -0.061215
   4 C :   -0.213829
   5 H :    0.034345
   6 C :   -0.034332
   7 H :    0.034004
   8 H :    0.019255
   9 C :   -0.036522
  10 H :    0.030325
  11 H :    0.014347
  12 C :   -0.058378
  13 H :    0.022737
  14 H :    0.024677
  15 H :    0.029103
  16 S :    0.367846
  17 C :   -0.173174
  18 C :   -0.083928
  19 C :   -0.053770
  20 C :   -0.184690
  21 H :    0.036775
  22 C :   -0.037827
  23 H :    0.031273
  24 H :    0.045355
  25 C :   -0.033265
  26 H :    0.026908
  27 H :    0.023178
  28 C :   -0.081480
  29 H :    0.033826
  30 H :    0.019112
  31 H :    0.024594
  32 H :    0.024376
  33 H :    0.030820

  Mayer bond orders larger than 0.100000
B(  0-S ,  1-C ) :   1.1412 B(  0-S ,  4-C ) :   1.1833 B(  1-C ,  2-C ) :   1.5765
B(  1-C ,  4-C ) :   0.1124 B(  1-C , 32-H ) :   0.9705 B(  2-C ,  3-C ) :   1.2980
B(  2-C ,  6-C ) :   1.0105 B(  3-C ,  4-C ) :   1.5206 B(  3-C ,  5-H ) :   0.9934
B(  4-C , 20-C ) :   1.0124 B(  6-C ,  7-H ) :   0.9215 B(  6-C ,  8-H ) :   0.9400
B(  6-C ,  9-C ) :   1.0789 B(  9-C , 10-H ) :   0.9524 B(  9-C , 11-H ) :   0.9556
B(  9-C , 12-C ) :   1.0679 B( 12-C , 13-H ) :   0.9757 B( 12-C , 14-H ) :   0.9780
B( 12-C , 15-H ) :   0.9746 B( 16-S , 17-C ) :   1.1394 B( 16-S , 20-C ) :   1.1359
B( 17-C , 18-C ) :   1.6356 B( 17-C , 20-C ) :   0.1040 B( 17-C , 33-H ) :   0.9699
B( 18-C , 19-C ) :   1.1985 B( 18-C , 21-H ) :   0.9759 B( 19-C , 20-C ) :   1.5952
B( 19-C , 22-C ) :   1.0488 B( 22-C , 23-H ) :   0.9379 B( 22-C , 24-H ) :   0.9218
B( 22-C , 25-C ) :   1.0662 B( 25-C , 26-H ) :   0.9570 B( 25-C , 27-H ) :   0.9483
B( 25-C , 28-C ) :   1.0753 B( 28-C , 29-H ) :   0.9726 B( 28-C , 30-H ) :   0.9716
B( 28-C , 31-H ) :   0.9745

Dispersion correction           -0.015160661
FINAL SINGLE POINT ENERGY     -1339.859566847226

DIPOLE MOMENT
-------------
                                X             Y             Z
Electronic contribution:      9.46841     -10.59877     -20.49614
Nuclear contribution   :     -9.78116      10.83836      21.00867
                        -----------------------------------------
Total Dipole Moment    :     -0.31275       0.23959       0.51253
                        -----------------------------------------
Magnitude (a.u.)       :      0.64645
Magnitude (Debye)      :      1.64315

Rotational constants in cm-1:     0.021579     0.008311     0.006818
Rotational constants in MHz :   646.918675   249.152423   204.391981

                             ****ORCA TERMINATED NORMALLY****
TOTAL RUN TIME: 0 days 0 hours 0 minutes 34 seconds 449 msec
