                         Program Version 4.2.1 -  RELEASE  -
|  1> ! wB97X-D3 SP def2-SVP
|  2> %pal
|  3> nprocs 16
|  4> end
|  5>
|  6> * xyz 0 1
|  7> S 	 -38.6916 	 40.5345 	 94.9553
|  8> C 	 -40.0284 	 41.5939 	 94.4768
|  9> C 	 -41.2246 	 41.326 	 95.2176
| 10> C 	 -40.9549 	 40.3151 	 96.2127
| 11> C 	 -39.6747 	 39.7278 	 96.15
| 12> H 	 -41.64 	 39.8614 	 96.8508
| 13> C 	 -42.5302 	 42.0114 	 95.0837
| 14> H 	 -43.232 	 41.3301 	 95.5263
| 15> H 	 -42.844 	 42.095 	 93.9863
| 16> C 	 -42.6379 	 43.4083 	 95.7321
| 17> H 	 -42.1723 	 43.4115 	 96.7166
| 18> H 	 -41.9958 	 43.9789 	 95.0828
| 19> C 	 -44.0896 	 44.0267 	 95.7338
| 20> H 	 -44.5714 	 43.9706 	 94.7648
| 21> H 	 -44.7484 	 43.3333 	 96.3674
| 22> H 	 -44.1246 	 45.0645 	 96.1268
| 23> S 	 -38.7402 	 37.1418 	 95.7536
| 24> C 	 -38.0872 	 36.3737 	 97.2451
| 25> C 	 -38.2613 	 37.0848 	 98.4178
| 26> C 	 -38.8091 	 38.3566 	 98.1484
| 27> C 	 -39.2967 	 38.5051 	 96.8381
| 28> H 	 -37.8693 	 36.7129 	 99.3099
| 29> C 	 -38.7458 	 39.446 	 99.2049
| 30> H 	 -38.3952 	 40.3474 	 98.765
| 31> H 	 -38.0835 	 39.2127 	 100.045
| 32> C 	 -40.0629 	 39.8784 	 99.7301
| 33> H 	 -40.4021 	 39.0015 	 100.335
| 34> H 	 -40.8051 	 39.7962 	 98.966
| 35> C 	 -40.1195 	 41.2367 	 100.509
| 36> H 	 -39.4483 	 41.2227 	 101.366
| 37> H 	 -41.1479 	 41.4485 	 100.849
| 38> H 	 -39.8276 	 42.1508 	 99.9146
| 39> H 	 -39.9088 	 42.2588 	 93.6154
| 40> H 	 -37.5761 	 35.4153 	 97.1116
| 41> *
| 42>
| 43>                          ****END OF INPUT****

CARTESIAN COORDINATES (ANGSTROEM)
---------------------------------
  S    -38.691600   40.534500   94.955300
  C    -40.028400   41.593900   94.476800
  C    -41.224600   41.326000   95.217600
  C    -40.954900   40.315100   96.212700
  C    -39.674700   39.727800   96.150000
  H    -41.640000   39.861400   96.850800
  C    -42.530200   42.011400   95.083700
  H    -43.232000   41.330100   95.526300
  H    -42.844000   42.095000   93.986300
  C    -42.637900   43.408300   95.732100
  H    -42.172300   43.411500   96.716600
  H    -41.995800   43.978900   95.082800
  C    -44.089600   44.026700   95.733800
  H    -44.571400   43.970600   94.764800
  H    -44.748400   43.333300   96.367400
  H    -44.124600   45.064500   96.126800
  S    -38.740200   37.141800   95.753600
  C    -38.087200   36.373700   97.245100
  C    -38.261300   37.084800   98.417800
  C    -38.809100   38.356600   98.148400
  C    -39.296700   38.505100   96.838100
  H    -37.869300   36.712900   99.309900
  C    -38.745800   39.446000   99.204900
  H    -38.395200   40.347400   98.765000
  H    -38.083500   39.212700  100.045000
  C    -40.062900   39.878400   99.730100
  H    -40.402100   39.001500  100.335000
  H    -40.805100   39.796200   98.966000
  C    -40.119500   41.236700  100.509000
  H    -39.448300   41.222700  101.366000
  H    -41.147900   41.448500  100.849000
  H    -39.827600   42.150800   99.914600
  H    -39.908800   42.258800   93.615400
  H    -37.576100   35.415300   97.111600

 Total Charge           Charge          ....    0
 Multiplicity           Mult            ....    1
 Number of Electrons    NEL             ....  134
 Basis Dimension        Dim             ....  322

ORBITAL ENERGIES
----------------

  NO   OCC          E(Eh)            E(eV)
   0   2.0000     -88.968496     -2420.9559
   1   2.0000     -88.967700     -2420.9342
   2   2.0000     -10.329768      -281.0873
   3   2.0000     -10.326987      -281.0116
   4   2.0000     -10.325756      -280.9781
   5   2.0000     -10.321044      -280.8499
   6   2.0000     -10.309792      -280.5437
   7   2.0000     -10.308449      -280.5072
   8   2.0000     -10.294305      -280.1223
   9   2.0000     -10.293774      -280.1078
  10   2.0000     -10.292070      -280.0615
  11   2.0000     -10.290462      -280.0177
  12   2.0000     -10.289221      -279.9839
  13   2.0000     -10.286065      -279.8980
  14   2.0000     -10.284629      -279.8590
  15   2.0000     -10.281465      -279.7729
  16   2.0000      -8.082536      -219.9370
  17   2.0000      -8.080757      -219.8886
  18   2.0000      -6.040932      -164.3821
  19   2.0000      -6.039210      -164.3353
  20   2.0000      -6.036987      -164.2748
  21   2.0000      -6.035777      -164.2418
  22   2.0000      -6.033612      -164.1829
  23   2.0000      -6.031390      -164.1225
  24   2.0000      -0.997287       -27.1376
  25   2.0000      -0.974389       -26.5145
  26   2.0000      -0.911727       -24.8094
  27   2.0000      -0.909321       -24.7439
  28   2.0000      -0.863522       -23.4976
  29   2.0000      -0.846041       -23.0219
  30   2.0000      -0.844886       -22.9905
  31   2.0000      -0.809040       -22.0151
  32   2.0000      -0.782293       -21.2873
  33   2.0000      -0.767238       -20.8776
  34   2.0000      -0.705994       -19.2111
  35   2.0000      -0.703708       -19.1489
  36   2.0000      -0.689160       -18.7530
  37   2.0000      -0.664741       -18.0885
  38   2.0000      -0.646426       -17.5901
  39   2.0000      -0.614587       -16.7238
  40   2.0000      -0.601347       -16.3635
  41   2.0000      -0.568837       -15.4788
  42   2.0000      -0.563505       -15.3337
  43   2.0000      -0.554227       -15.0813
  44   2.0000      -0.525185       -14.2910
  45   2.0000      -0.518742       -14.1157
  46   2.0000      -0.510798       -13.8995
  47   2.0000      -0.506634       -13.7862
  48   2.0000      -0.503744       -13.7076
  49   2.0000      -0.498727       -13.5710
  50   2.0000      -0.485515       -13.2115
  51   2.0000      -0.478344       -13.0164
  52   2.0000      -0.471020       -12.8171
  53   2.0000      -0.460332       -12.5263
  54   2.0000      -0.457183       -12.4406
  55   2.0000      -0.449340       -12.2272
  56   2.0000      -0.443213       -12.0604
  57   2.0000      -0.437316       -11.9000
  58   2.0000      -0.436024       -11.8648
  59   2.0000      -0.429669       -11.6919
  60   2.0000      -0.427101       -11.6220
  61   2.0000      -0.413728       -11.2581
  62   2.0000      -0.406463       -11.0604
  63   2.0000      -0.339765        -9.2455
  64   2.0000      -0.331088        -9.0094
  65   2.0000      -0.324465        -8.8291
  66   2.0000      -0.293282        -7.9806
  67   0.0000       0.024872         0.6768
  68   0.0000       0.053274         1.4497
  69   0.0000       0.100760         2.7418
  70   0.0000       0.118590         3.2270
  71   0.0000       0.123921         3.3721

MULLIKEN ATOMIC CHARGES
-----------------------
   0 S :    0.121559
   1 C :   -0.142483
   2 C :   -0.077991
   3 C :    0.051627
   4 C :   -0.169422
   5 H :    0.002014
   6 C :    0.041173
   7 H :    0.010813
   8 H :    0.041225
   9 C :   -0.052081
  10 H :    0.035390
  11 H :    0.019258
  12 C :   -0.069554
  13 H :    0.030612
  14 H :    0.035258
  15 H :    0.055196
  16 S :    0.084795
  17 C :   -0.113564
  18 C :    0.024119
  19 C :   -0.051413
  20 C :   -0.163237
  21 H :    0.000675
  22 C :    0.129503
  23 H :    0.011449
  24 H :    0.022496
  25 C :   -0.080254
  26 H :    0.011882
  27 H :   -0.000609
  28 C :   -0.051164
  29 H :    0.032139
  30 H :    0.038897
  31 H :    0.043532
  32 H :    0.061307
  33 H :    0.066852
Sum of atomic charges:    0.0000000

LOEWDIN ATOMIC CHARGES
----------------------
   0 S :    0.408338
   1 C :   -0.196875
   2 C :   -0.058225
   3 C :   -0.051695
   4 C :   -0.207636
   5 H :    0.017654
   6 C :   -0.040140
   7 H :    0.023600
   8 H :    0.040148
   9 C :   -0.036440
  10 H :    0.025596
  11 H :    0.019668
  12 C :   -0.072587
  13 H :    0.022963
  14 H :    0.031354
  15 H :    0.032797
  16 S :    0.355310
  17 C :   -0.150870
  18 C :   -0.064839
  19 C :   -0.032720
  20 C :   -0.187459
  21 H :    0.026194
  22 C :   -0.029455
  23 H :    0.028077
  24 H :    0.030803
  25 C :   -0.046965
  26 H :    0.025151
  27 H :    0.015348
  28 C :   -0.068508
  29 H :    0.023427
  30 H :    0.030748
  31 H :    0.032519
  32 H :    0.028151
  33 H :    0.026567

  Mayer bond orders larger than 0.100000
B(  0-S ,  1-C ) :   1.1545 B(  0-S ,  4-C ) :   1.1554 B(  1-C ,  2-C ) :   1.5552
B(  1-C , 32-H ) :   0.9701 B(  2-C ,  3-C ) :   1.2621 B(  2-C ,  6-C ) :   1.0441
B(  3-C ,  4-C ) :   1.5558 B(  3-C ,  5-H ) :   0.9858 B(  4-C , 20-C ) :   1.0517
B(  6-C ,  7-H ) :   0.9351 B(  6-C ,  8-H ) :   0.9375 B(  6-C ,  9-C ) :   1.0512
B(  9-C , 10-H ) :   0.9593 B(  9-C , 11-H ) :   0.9561 B(  9-C , 12-C ) :   1.0692
B( 12-C , 13-H ) :   0.9747 B( 12-C , 14-H ) :   0.9765 B( 12-C , 15-H ) :   0.9754
B( 16-S , 17-C ) :   1.1616 B( 16-S , 20-C ) :   1.1078 B( 17-C , 18-C ) :   1.6112
B( 17-C , 33-H ) :   0.9620 B( 18-C , 19-C ) :   1.2277 B( 18-C , 21-H ) :   1.0015
B( 19-C , 20-C ) :   1.6059 B( 19-C , 22-C ) :   1.0446 B( 22-C , 23-H ) :   0.9146
B( 22-C , 24-H ) :   0.9387 B( 22-C , 25-C ) :   1.0624 B( 25-C , 26-H ) :   0.9437
B( 25-C , 27-H ) :   0.9550 B( 25-C , 28-C ) :   1.0723 B( 28-C , 29-H ) :   0.9756
B( 28-C , 30-H ) :   0.9744 B( 28-C , 31-H ) :   0.9736

Dispersion correction           -0.014284082
FINAL SINGLE POINT ENERGY     -1339.865246895994

DIPOLE MOMENT
-------------
                                X             Y             Z
Electronic contribution:     18.15059     -20.14133     -14.73073
Nuclear contribution   :    -18.31451      20.35927      15.06371
                        -----------------------------------------
Total Dipole Moment    :     -0.16392       0.21794       0.33297
                        -----------------------------------------
Magnitude (a.u.)       :      0.43040
Magnitude (Debye)      :      1.09398

Rotational constants in cm-1:     0.019330     0.008422     0.006546
Rotational constants in MHz :   579.485434   252.471120   196.243355

                             ****ORCA TERMINATED NORMALLY****
TOTAL RUN TIME: 0 days 0 hours 0 minutes 28 seconds 346 msec
