                         Program Version 4.2.1 -  RELEASE  -
|  1> ! wB97X-D3 SP def2-SVP
|  2> %pal
|  3> nprocs 16
|  4> end
|  5>
|  6> * xyz 0 1
|  7> S 	 48.8341 	 6.00139 	 98.4911
|  8> C 	 48.6748 	 7.55753 	 99.3306
|  9> C 	 49.8294 	 8.35507 	 99.2569
| 10> C 	 50.8165 	 7.68474 	 98.4141
| 11> C 	 50.4303 	 6.49862 	 97.8794
| 12> H 	 51.7836 	 8.11413 	 98.073
| 13> C 	 50.0218 	 9.7046 	 99.8375
| 14> H 	 50.2899 	 9.49251 	 100.804
| 15> H 	 48.9671 	 10.17 	 100.012
| 16> C 	 51.0695 	 10.5934 	 99.1863
| 17> H 	 52.0531 	 10.1012 	 98.9335
| 18> H 	 50.6469 	 10.8888 	 98.2784
| 19> C 	 51.3859 	 11.8063 	 100.202
| 20> H 	 51.7252 	 11.4522 	 101.1
| 21> H 	 52.216 	 12.4055 	 99.7864
| 22> H 	 50.5391 	 12.4567 	 100.441
| 23> S 	 51.6972 	 4.06134 	 97.56
| 24> C 	 52.4998 	 3.70831 	 96.113
| 25> C 	 52.3695 	 4.75342 	 95.1969
| 26> C 	 51.7387 	 5.92352 	 95.7779
| 27> C 	 51.2089 	 5.65269 	 96.9821
| 28> H 	 52.7837 	 4.57047 	 94.2317
| 29> C 	 51.7228 	 7.21138 	 95.0225
| 30> H 	 52.6916 	 7.17729 	 94.5206
| 31> H 	 51.7828 	 7.95101 	 95.7565
| 32> C 	 50.5996 	 7.27429 	 94.0835
| 33> H 	 50.3716 	 6.24873 	 93.7267
| 34> H 	 50.7938 	 7.96053 	 93.1863
| 35> C 	 49.2733 	 7.83813 	 94.7035
| 36> H 	 49.5296 	 8.64759 	 95.3596
| 37> H 	 48.8335 	 6.96821 	 95.2387
| 38> H 	 48.5682 	 8.24468 	 93.9542
| 39> H 	 47.8335 	 7.80867 	 99.9595
| 40> H 	 53.0638 	 2.83123 	 95.8134
| 41> *
| 42>
| 43>                          ****END OF INPUT****

CARTESIAN COORDINATES (ANGSTROEM)
---------------------------------
  S     48.834100    6.001390   98.491100
  C     48.674800    7.557530   99.330600
  C     49.829400    8.355070   99.256900
  C     50.816500    7.684740   98.414100
  C     50.430300    6.498620   97.879400
  H     51.783600    8.114130   98.073000
  C     50.021800    9.704600   99.837500
  H     50.289900    9.492510  100.804000
  H     48.967100   10.170000  100.012000
  C     51.069500   10.593400   99.186300
  H     52.053100   10.101200   98.933500
  H     50.646900   10.888800   98.278400
  C     51.385900   11.806300  100.202000
  H     51.725200   11.452200  101.100000
  H     52.216000   12.405500   99.786400
  H     50.539100   12.456700  100.441000
  S     51.697200    4.061340   97.560000
  C     52.499800    3.708310   96.113000
  C     52.369500    4.753420   95.196900
  C     51.738700    5.923520   95.777900
  C     51.208900    5.652690   96.982100
  H     52.783700    4.570470   94.231700
  C     51.722800    7.211380   95.022500
  H     52.691600    7.177290   94.520600
  H     51.782800    7.951010   95.756500
  C     50.599600    7.274290   94.083500
  H     50.371600    6.248730   93.726700
  H     50.793800    7.960530   93.186300
  C     49.273300    7.838130   94.703500
  H     49.529600    8.647590   95.359600
  H     48.833500    6.968210   95.238700
  H     48.568200    8.244680   93.954200
  H     47.833500    7.808670   99.959500
  H     53.063800    2.831230   95.813400

 Total Charge           Charge          ....    0
 Multiplicity           Mult            ....    1
 Number of Electrons    NEL             ....  134
 Basis Dimension        Dim             ....  322

ORBITAL ENERGIES
----------------

  NO   OCC          E(Eh)            E(eV)
   0   2.0000     -88.965684     -2420.8793
   1   2.0000     -88.962552     -2420.7941
   2   2.0000     -10.327348      -281.0214
   3   2.0000     -10.319415      -280.8056
   4   2.0000     -10.315472      -280.6983
   5   2.0000     -10.312806      -280.6257
   6   2.0000     -10.305753      -280.4338
   7   2.0000     -10.298082      -280.2250
   8   2.0000     -10.297073      -280.1976
   9   2.0000     -10.295944      -280.1669
  10   2.0000     -10.292938      -280.0851
  11   2.0000     -10.289733      -279.9979
  12   2.0000     -10.286364      -279.9062
  13   2.0000     -10.281519      -279.7744
  14   2.0000     -10.280445      -279.7451
  15   2.0000     -10.272443      -279.5274
  16   2.0000      -8.079350      -219.8503
  17   2.0000      -8.078211      -219.8193
  18   2.0000      -6.037972      -164.3016
  19   2.0000      -6.036691      -164.2667
  20   2.0000      -6.034068      -164.1953
  21   2.0000      -6.032554      -164.1542
  22   2.0000      -6.029988      -164.0843
  23   2.0000      -6.028971      -164.0566
  24   2.0000      -1.008413       -27.4403
  25   2.0000      -0.981061       -26.6960
  26   2.0000      -0.919585       -25.0232
  27   2.0000      -0.915014       -24.8988
  28   2.0000      -0.867701       -23.6113
  29   2.0000      -0.846335       -23.0299
  30   2.0000      -0.840661       -22.8755
  31   2.0000      -0.814484       -22.1632
  32   2.0000      -0.784700       -21.3528
  33   2.0000      -0.774054       -21.0631
  34   2.0000      -0.721081       -19.6216
  35   2.0000      -0.695454       -18.9243
  36   2.0000      -0.691395       -18.8138
  37   2.0000      -0.658878       -17.9290
  38   2.0000      -0.641256       -17.4495
  39   2.0000      -0.619384       -16.8543
  40   2.0000      -0.598066       -16.2742
  41   2.0000      -0.568948       -15.4819
  42   2.0000      -0.564810       -15.3693
  43   2.0000      -0.554168       -15.0797
  44   2.0000      -0.536717       -14.6048
  45   2.0000      -0.525631       -14.3031
  46   2.0000      -0.518695       -14.1144
  47   2.0000      -0.503461       -13.6999
  48   2.0000      -0.502726       -13.6799
  49   2.0000      -0.497207       -13.5297
  50   2.0000      -0.495829       -13.4922
  51   2.0000      -0.477962       -13.0060
  52   2.0000      -0.474987       -12.9251
  53   2.0000      -0.465941       -12.6789
  54   2.0000      -0.459307       -12.4984
  55   2.0000      -0.451188       -12.2775
  56   2.0000      -0.442879       -12.0513
  57   2.0000      -0.440013       -11.9734
  58   2.0000      -0.435965       -11.8632
  59   2.0000      -0.430054       -11.7024
  60   2.0000      -0.419098       -11.4042
  61   2.0000      -0.416325       -11.3288
  62   2.0000      -0.399309       -10.8657
  63   2.0000      -0.343354        -9.3431
  64   2.0000      -0.330096        -8.9824
  65   2.0000      -0.322803        -8.7839
  66   2.0000      -0.296471        -8.0674
  67   0.0000       0.040918         1.1134
  68   0.0000       0.065711         1.7881
  69   0.0000       0.114915         3.1270
  70   0.0000       0.118184         3.2160
  71   0.0000       0.131631         3.5819

MULLIKEN ATOMIC CHARGES
-----------------------
   0 S :    0.107262
   1 C :   -0.126938
   2 C :   -0.094420
   3 C :    0.019297
   4 C :   -0.167191
   5 H :    0.026841
   6 C :    0.086872
   7 H :    0.011187
   8 H :    0.040569
   9 C :   -0.084386
  10 H :    0.052292
  11 H :    0.027605
  12 C :   -0.035565
  13 H :    0.012574
  14 H :    0.035740
  15 H :    0.037614
  16 S :    0.121198
  17 C :   -0.086094
  18 C :   -0.053458
  19 C :   -0.089467
  20 C :   -0.166799
  21 H :    0.008199
  22 C :    0.185108
  23 H :    0.021150
  24 H :   -0.014513
  25 C :   -0.104858
  26 H :    0.037039
  27 H :    0.036813
  28 C :   -0.049348
  29 H :    0.024854
  30 H :    0.044596
  31 H :    0.039169
  32 H :    0.042138
  33 H :    0.054925
Sum of atomic charges:   -0.0000000

LOEWDIN ATOMIC CHARGES
----------------------
   0 S :    0.380453
   1 C :   -0.193624
   2 C :   -0.055100
   3 C :   -0.068593
   4 C :   -0.183268
   5 H :    0.033424
   6 C :   -0.040390
   7 H :    0.023144
   8 H :    0.047434
   9 C :   -0.029347
  10 H :    0.033631
  11 H :    0.017452
  12 C :   -0.056493
  13 H :    0.011272
  14 H :    0.029589
  15 H :    0.027865
  16 S :    0.420210
  17 C :   -0.202977
  18 C :   -0.074948
  19 C :   -0.049179
  20 C :   -0.204455
  21 H :    0.025590
  22 C :   -0.027755
  23 H :    0.038262
  24 H :    0.017798
  25 C :   -0.044978
  26 H :    0.028334
  27 H :    0.027516
  28 C :   -0.064179
  29 H :    0.018631
  30 H :    0.029189
  31 H :    0.027360
  32 H :    0.024004
  33 H :    0.034128

  Mayer bond orders larger than 0.100000
B(  0-S ,  1-C ) :   1.1225 B(  0-S ,  4-C ) :   1.1279 B(  1-C ,  2-C ) :   1.6393
B(  1-C , 32-H ) :   0.9679 B(  2-C ,  3-C ) :   1.2052 B(  2-C ,  6-C ) :   1.0099
B(  3-C ,  4-C ) :   1.6383 B(  3-C ,  5-H ) :   0.9731 B(  4-C , 20-C ) :   1.0154
B(  6-C ,  7-H ) :   0.9197 B(  6-C ,  8-H ) :   0.9370 B(  6-C ,  9-C ) :   1.0602
B(  9-C , 10-H ) :   0.9491 B(  9-C , 11-H ) :   0.9623 B(  9-C , 12-C ) :   1.0680
B( 12-C , 13-H ) :   0.9786 B( 12-C , 14-H ) :   0.9774 B( 12-C , 15-H ) :   0.9777
B( 16-S , 17-C ) :   1.1618 B( 16-S , 20-C ) :   1.1296 B( 17-C , 18-C ) :   1.6340
B( 17-C , 33-H ) :   0.9648 B( 18-C , 19-C ) :   1.2043 B( 18-C , 21-H ) :   0.9932
B( 19-C , 20-C ) :   1.6416 B( 19-C , 22-C ) :   1.0263 B( 22-C , 23-H ) :   0.9170
B( 22-C , 24-H ) :   0.9245 B( 22-C , 25-C ) :   1.0694 B( 25-C , 26-H ) :   0.9586
B( 25-C , 27-H ) :   0.9563 B( 25-C , 28-C ) :   1.0702 B( 28-C , 29-H ) :   0.9774
B( 28-C , 30-H ) :   0.9741 B( 28-C , 31-H ) :   0.9772

Dispersion correction           -0.015386048
FINAL SINGLE POINT ENERGY     -1339.860959109809

DIPOLE MOMENT
-------------
                                X             Y             Z
Electronic contribution:     -1.71856     -26.59744       4.83841
Nuclear contribution   :      2.04127      27.22809      -4.93223
                        -----------------------------------------
Total Dipole Moment    :      0.32272       0.63066      -0.09381
                        -----------------------------------------
Magnitude (a.u.)       :      0.71461
Magnitude (Debye)      :      1.81640

Rotational constants in cm-1:     0.019424     0.008607     0.007675
Rotational constants in MHz :   582.304442   258.027038   230.095783

                             ****ORCA TERMINATED NORMALLY****
TOTAL RUN TIME: 0 days 0 hours 0 minutes 31 seconds 220 msec
