                         Program Version 4.2.1 -  RELEASE  -
|  1> ! wB97X-D3 SP def2-SVP
|  2> %pal
|  3> nprocs 16
|  4> end
|  5>
|  6> * xyz 0 1
|  7> S 	 -33.3933 	 64.9633 	 109.296
|  8> C 	 -32.6849 	 65.9122 	 108.003
|  9> C 	 -31.3318 	 66.0786 	 108.234
| 10> C 	 -30.8707 	 65.28 	 109.367
| 11> C 	 -31.8538 	 64.5919 	 110.082
| 12> H 	 -29.8756 	 65.3227 	 109.751
| 13> C 	 -30.3075 	 66.6808 	 107.316
| 14> H 	 -29.6665 	 67.3675 	 107.9
| 15> H 	 -31.1006 	 67.3487 	 106.745
| 16> C 	 -29.4584 	 65.7713 	 106.377
| 17> H 	 -28.7188 	 66.2633 	 105.76
| 18> H 	 -28.7178 	 65.2386 	 107.021
| 19> C 	 -30.3664 	 64.8376 	 105.539
| 20> H 	 -29.8226 	 64.212 	 104.92
| 21> H 	 -30.9876 	 64.1724 	 106.201
| 22> H 	 -30.9691 	 65.4479 	 104.855
| 23> S 	 -33.1783 	 63.6385 	 112.249
| 24> C 	 -32.3679 	 62.9159 	 113.552
| 25> C 	 -31.0313 	 62.799 	 113.28
| 26> C 	 -30.6129 	 63.261 	 111.984
| 27> C 	 -31.6747 	 63.8724 	 111.317
| 28> H 	 -30.4007 	 62.2406 	 114.003
| 29> C 	 -29.2719 	 62.9969 	 111.374
| 30> H 	 -29.2736 	 63.0669 	 110.323
| 31> H 	 -29.2467 	 61.9275 	 111.69
| 32> C 	 -28.0655 	 63.6897 	 112.096
| 33> H 	 -28.296 	 63.6789 	 113.163
| 34> H 	 -28.0666 	 64.7852 	 111.874
| 35> C 	 -26.7569 	 62.8901 	 111.804
| 36> H 	 -26.7216 	 61.9581 	 112.328
| 37> H 	 -25.9202 	 63.5476 	 112.087
| 38> H 	 -26.7132 	 62.6789 	 110.777
| 39> H 	 -33.2672 	 66.3445 	 107.178
| 40> H 	 -32.8731 	 62.5861 	 114.454
| 41> *
| 42>
| 43>                          ****END OF INPUT****

CARTESIAN COORDINATES (ANGSTROEM)
---------------------------------
  S    -33.393300   64.963300  109.296000
  C    -32.684900   65.912200  108.003000
  C    -31.331800   66.078600  108.234000
  C    -30.870700   65.280000  109.367000
  C    -31.853800   64.591900  110.082000
  H    -29.875600   65.322700  109.751000
  C    -30.307500   66.680800  107.316000
  H    -29.666500   67.367500  107.900000
  H    -31.100600   67.348700  106.745000
  C    -29.458400   65.771300  106.377000
  H    -28.718800   66.263300  105.760000
  H    -28.717800   65.238600  107.021000
  C    -30.366400   64.837600  105.539000
  H    -29.822600   64.212000  104.920000
  H    -30.987600   64.172400  106.201000
  H    -30.969100   65.447900  104.855000
  S    -33.178300   63.638500  112.249000
  C    -32.367900   62.915900  113.552000
  C    -31.031300   62.799000  113.280000
  C    -30.612900   63.261000  111.984000
  C    -31.674700   63.872400  111.317000
  H    -30.400700   62.240600  114.003000
  C    -29.271900   62.996900  111.374000
  H    -29.273600   63.066900  110.323000
  H    -29.246700   61.927500  111.690000
  C    -28.065500   63.689700  112.096000
  H    -28.296000   63.678900  113.163000
  H    -28.066600   64.785200  111.874000
  C    -26.756900   62.890100  111.804000
  H    -26.721600   61.958100  112.328000
  H    -25.920200   63.547600  112.087000
  H    -26.713200   62.678900  110.777000
  H    -33.267200   66.344500  107.178000
  H    -32.873100   62.586100  114.454000

 Total Charge           Charge          ....    0
 Multiplicity           Mult            ....    1
 Number of Electrons    NEL             ....  134
 Basis Dimension        Dim             ....  322

ORBITAL ENERGIES
----------------

  NO   OCC          E(Eh)            E(eV)
   0   2.0000     -88.965511     -2420.8746
   1   2.0000     -88.960747     -2420.7450
   2   2.0000     -10.333972      -281.2017
   3   2.0000     -10.329545      -281.0812
   4   2.0000     -10.320081      -280.8237
   5   2.0000     -10.316367      -280.7226
   6   2.0000     -10.308560      -280.5102
   7   2.0000     -10.302999      -280.3589
   8   2.0000     -10.302833      -280.3543
   9   2.0000     -10.296977      -280.1950
  10   2.0000     -10.295825      -280.1636
  11   2.0000     -10.294931      -280.1393
  12   2.0000     -10.294219      -280.1199
  13   2.0000     -10.291314      -280.0409
  14   2.0000     -10.279279      -279.7134
  15   2.0000     -10.275923      -279.6221
  16   2.0000      -8.079796      -219.8624
  17   2.0000      -8.076570      -219.7746
  18   2.0000      -6.038579      -164.3181
  19   2.0000      -6.035025      -164.2214
  20   2.0000      -6.034262      -164.2006
  21   2.0000      -6.030940      -164.1102
  22   2.0000      -6.030378      -164.0949
  23   2.0000      -6.027302      -164.0112
  24   2.0000      -1.007575       -27.4175
  25   2.0000      -0.983907       -26.7735
  26   2.0000      -0.912226       -24.8229
  27   2.0000      -0.906940       -24.6791
  28   2.0000      -0.871813       -23.7232
  29   2.0000      -0.854030       -23.2393
  30   2.0000      -0.840551       -22.8726
  31   2.0000      -0.813212       -22.1286
  32   2.0000      -0.782615       -21.2960
  33   2.0000      -0.772459       -21.0197
  34   2.0000      -0.714524       -19.4432
  35   2.0000      -0.705357       -19.1937
  36   2.0000      -0.699680       -19.0393
  37   2.0000      -0.661742       -18.0069
  38   2.0000      -0.635184       -17.2842
  39   2.0000      -0.618908       -16.8413
  40   2.0000      -0.599017       -16.3001
  41   2.0000      -0.561059       -15.2672
  42   2.0000      -0.559879       -15.2351
  43   2.0000      -0.548880       -14.9358
  44   2.0000      -0.540974       -14.7207
  45   2.0000      -0.531993       -14.4763
  46   2.0000      -0.519725       -14.1424
  47   2.0000      -0.515035       -14.0148
  48   2.0000      -0.507041       -13.7973
  49   2.0000      -0.499818       -13.6007
  50   2.0000      -0.489319       -13.3150
  51   2.0000      -0.486224       -13.2308
  52   2.0000      -0.470551       -12.8044
  53   2.0000      -0.469011       -12.7624
  54   2.0000      -0.451200       -12.2778
  55   2.0000      -0.448769       -12.2116
  56   2.0000      -0.445931       -12.1344
  57   2.0000      -0.441604       -12.0167
  58   2.0000      -0.436794       -11.8858
  59   2.0000      -0.429512       -11.6876
  60   2.0000      -0.424555       -11.5527
  61   2.0000      -0.403812       -10.9883
  62   2.0000      -0.400918       -10.9095
  63   2.0000      -0.366250        -9.9662
  64   2.0000      -0.330565        -8.9951
  65   2.0000      -0.322834        -8.7848
  66   2.0000      -0.282243        -7.6802
  67   0.0000       0.019836         0.5398
  68   0.0000       0.084169         2.2904
  69   0.0000       0.104518         2.8441
  70   0.0000       0.111356         3.0301
  71   0.0000       0.132375         3.6021

MULLIKEN ATOMIC CHARGES
-----------------------
   0 S :    0.096783
   1 C :   -0.130234
   2 C :   -0.082388
   3 C :   -0.017823
   4 C :   -0.090868
   5 H :    0.000945
   6 C :    0.011130
   7 H :    0.038777
   8 H :    0.028899
   9 C :   -0.046073
  10 H :    0.025613
  11 H :    0.018385
  12 C :   -0.034420
  13 H :    0.011729
  14 H :    0.059167
  15 H :    0.028597
  16 S :    0.084265
  17 C :   -0.076529
  18 C :   -0.055455
  19 C :   -0.038485
  20 C :   -0.144765
  21 H :    0.026884
  22 C :    0.035364
  23 H :    0.026011
  24 H :    0.037230
  25 C :   -0.090592
  26 H :    0.026510
  27 H :    0.039475
  28 C :   -0.015501
  29 H :    0.035005
  30 H :    0.040281
  31 H :    0.023965
  32 H :    0.064906
  33 H :    0.063213
Sum of atomic charges:   -0.0000000

LOEWDIN ATOMIC CHARGES
----------------------
   0 S :    0.391764
   1 C :   -0.196459
   2 C :   -0.072448
   3 C :   -0.069519
   4 C :   -0.186240
   5 H :    0.022269
   6 C :   -0.042475
   7 H :    0.032470
   8 H :    0.037964
   9 C :   -0.043575
  10 H :    0.025132
  11 H :    0.024954
  12 C :   -0.060566
  13 H :    0.013526
  14 H :    0.037247
  15 H :    0.026769
  16 S :    0.404342
  17 C :   -0.194021
  18 C :   -0.084982
  19 C :   -0.054027
  20 C :   -0.182899
  21 H :    0.034641
  22 C :   -0.031234
  23 H :    0.022060
  24 H :    0.044843
  25 C :   -0.039499
  26 H :    0.023275
  27 H :    0.026595
  28 C :   -0.056180
  29 H :    0.025240
  30 H :    0.031580
  31 H :    0.018383
  32 H :    0.036985
  33 H :    0.034084

  Mayer bond orders larger than 0.100000
B(  0-S ,  1-C ) :   1.1321 B(  0-S ,  4-C ) :   1.1283 B(  1-C ,  2-C ) :   1.6003
B(  1-C , 32-H ) :   0.9660 B(  2-C ,  3-C ) :   1.2274 B(  2-C ,  6-C ) :   1.0256
B(  3-C ,  4-C ) :   1.5630 B(  3-C ,  5-H ) :   0.9952 B(  4-C , 20-C ) :   1.1122
B(  6-C ,  7-H ) :   0.9395 B(  6-C ,  8-H ) :   0.9477 B(  6-C ,  9-C ) :   1.0550
B(  9-C , 10-H ) :   0.9558 B(  9-C , 11-H ) :   0.9495 B(  9-C , 12-C ) :   1.0710
B( 12-C , 13-H ) :   0.9731 B( 12-C , 14-H ) :   0.9738 B( 12-C , 15-H ) :   0.9763
B( 16-S , 17-C ) :   1.1690 B( 16-S , 20-C ) :   1.1249 B( 17-C , 18-C ) :   1.6063
B( 17-C , 33-H ) :   0.9684 B( 18-C , 19-C ) :   1.2371 B( 18-C , 21-H ) :   0.9822
B( 19-C , 20-C ) :   1.5716 B( 19-C , 22-C ) :   1.0255 B( 22-C , 23-H ) :   0.9416
B( 22-C , 24-H ) :   0.9358 B( 22-C , 25-C ) :   1.0494 B( 25-C , 26-H ) :   0.9583
B( 25-C , 27-H ) :   0.9572 B( 25-C , 28-C ) :   1.0649 B( 28-C , 29-H ) :   0.9763
B( 28-C , 30-H ) :   0.9747 B( 28-C , 31-H ) :   0.9776

Dispersion correction           -0.014258444
FINAL SINGLE POINT ENERGY     -1339.868720925363

DIPOLE MOMENT
-------------
                                X             Y             Z
Electronic contribution:    -27.10598       0.27147      11.40721
Nuclear contribution   :     27.87031      -0.43038     -11.44369
                        -----------------------------------------
Total Dipole Moment    :      0.76433      -0.15891      -0.03649
                        -----------------------------------------
Magnitude (a.u.)       :      0.78153
Magnitude (Debye)      :      1.98649

Rotational constants in cm-1:     0.016835     0.009643     0.006497
Rotational constants in MHz :   504.700718   289.082817   194.786579

                             ****ORCA TERMINATED NORMALLY****
TOTAL RUN TIME: 0 days 0 hours 0 minutes 27 seconds 501 msec
