                         Program Version 4.2.1 -  RELEASE  -
|  1> ! wB97X-D3 SP def2-SVP
|  2> %pal
|  3> nprocs 16
|  4> end
|  5>
|  6> * xyz 0 1
|  7> S 	 -49.6554 	 35.1389 	 109.113
|  8> C 	 -48.5836 	 36.4738 	 109.352
|  9> C 	 -49.2324 	 37.6865 	 109.186
| 10> C 	 -50.6826 	 37.5209 	 108.956
| 11> C 	 -51.0544 	 36.2083 	 108.829
| 12> H 	 -51.3233 	 38.2824 	 108.693
| 13> C 	 -48.5046 	 39.0506 	 109.174
| 14> H 	 -49.1819 	 39.8311 	 108.85
| 15> H 	 -47.7649 	 38.9305 	 108.44
| 16> C 	 -48.0989 	 39.4816 	 110.566
| 17> H 	 -48.9092 	 39.42 	 111.271
| 18> H 	 -47.385 	 38.8039 	 110.925
| 19> C 	 -47.6822 	 40.9595 	 110.713
| 20> H 	 -48.1579 	 41.5911 	 110
| 21> H 	 -47.8982 	 41.2704 	 111.78
| 22> H 	 -46.64 	 41.2016 	 110.593
| 23> S 	 -52.8146 	 35.0862 	 106.943
| 24> C 	 -54.3408 	 34.7458 	 107.462
| 25> C 	 -54.6239 	 35.1554 	 108.781
| 26> C 	 -53.4739 	 35.6609 	 109.451
| 27> C 	 -52.398 	 35.6859 	 108.563
| 28> H 	 -55.6429 	 35.0466 	 109.208
| 29> C 	 -53.5012 	 36.0082 	 110.956
| 30> H 	 -52.6026 	 36.6904 	 111.177
| 31> H 	 -53.4822 	 35.0566 	 111.488
| 32> C 	 -54.8148 	 36.6893 	 111.422
| 33> H 	 -55.03 	 36.813 	 112.528
| 34> H 	 -55.6074 	 36.003 	 111.079
| 35> C 	 -54.8673 	 38.1203 	 110.811
| 36> H 	 -54.3048 	 38.1251 	 109.862
| 37> H 	 -54.4342 	 38.8916 	 111.439
| 38> H 	 -55.8263 	 38.3961 	 110.459
| 39> H 	 -47.5559 	 36.4537 	 109.46
| 40> H 	 -55.1889 	 34.364 	 106.822
| 41> *
| 42>
| 43>                          ****END OF INPUT****

CARTESIAN COORDINATES (ANGSTROEM)
---------------------------------
  S    -49.655400   35.138900  109.113000
  C    -48.583600   36.473800  109.352000
  C    -49.232400   37.686500  109.186000
  C    -50.682600   37.520900  108.956000
  C    -51.054400   36.208300  108.829000
  H    -51.323300   38.282400  108.693000
  C    -48.504600   39.050600  109.174000
  H    -49.181900   39.831100  108.850000
  H    -47.764900   38.930500  108.440000
  C    -48.098900   39.481600  110.566000
  H    -48.909200   39.420000  111.271000
  H    -47.385000   38.803900  110.925000
  C    -47.682200   40.959500  110.713000
  H    -48.157900   41.591100  110.000000
  H    -47.898200   41.270400  111.780000
  H    -46.640000   41.201600  110.593000
  S    -52.814600   35.086200  106.943000
  C    -54.340800   34.745800  107.462000
  C    -54.623900   35.155400  108.781000
  C    -53.473900   35.660900  109.451000
  C    -52.398000   35.685900  108.563000
  H    -55.642900   35.046600  109.208000
  C    -53.501200   36.008200  110.956000
  H    -52.602600   36.690400  111.177000
  H    -53.482200   35.056600  111.488000
  C    -54.814800   36.689300  111.422000
  H    -55.030000   36.813000  112.528000
  H    -55.607400   36.003000  111.079000
  C    -54.867300   38.120300  110.811000
  H    -54.304800   38.125100  109.862000
  H    -54.434200   38.891600  111.439000
  H    -55.826300   38.396100  110.459000
  H    -47.555900   36.453700  109.460000
  H    -55.188900   34.364000  106.822000

 Total Charge           Charge          ....    0
 Multiplicity           Mult            ....    1
 Number of Electrons    NEL             ....  134
 Basis Dimension        Dim             ....  322

ORBITAL ENERGIES
----------------

  NO   OCC          E(Eh)            E(eV)
   0   2.0000     -88.971572     -2421.0395
   1   2.0000     -88.961689     -2420.7706
   2   2.0000     -10.327412      -281.0232
   3   2.0000     -10.325522      -280.9717
   4   2.0000     -10.317699      -280.7589
   5   2.0000     -10.308242      -280.5015
   6   2.0000     -10.306344      -280.4499
   7   2.0000     -10.302035      -280.3326
   8   2.0000     -10.300914      -280.3021
   9   2.0000     -10.294999      -280.1412
  10   2.0000     -10.294594      -280.1301
  11   2.0000     -10.290698      -280.0241
  12   2.0000     -10.287157      -279.9278
  13   2.0000     -10.279119      -279.7090
  14   2.0000     -10.277445      -279.6635
  15   2.0000     -10.271729      -279.5080
  16   2.0000      -8.087639      -220.0758
  17   2.0000      -8.076291      -219.7670
  18   2.0000      -6.045734      -164.5128
  19   2.0000      -6.041993      -164.4110
  20   2.0000      -6.038711      -164.3217
  21   2.0000      -6.034917      -164.2184
  22   2.0000      -6.030764      -164.1054
  23   2.0000      -6.026992      -164.0028
  24   2.0000      -1.006948       -27.4004
  25   2.0000      -0.982793       -26.7431
  26   2.0000      -0.911949       -24.8154
  27   2.0000      -0.908521       -24.7221
  28   2.0000      -0.867480       -23.6053
  29   2.0000      -0.848497       -23.0888
  30   2.0000      -0.843017       -22.9397
  31   2.0000      -0.809872       -22.0377
  32   2.0000      -0.783413       -21.3177
  33   2.0000      -0.770534       -20.9673
  34   2.0000      -0.706894       -19.2356
  35   2.0000      -0.704123       -19.1602
  36   2.0000      -0.691158       -18.8074
  37   2.0000      -0.650327       -17.6963
  38   2.0000      -0.647277       -17.6133
  39   2.0000      -0.614459       -16.7203
  40   2.0000      -0.593782       -16.1576
  41   2.0000      -0.575515       -15.6605
  42   2.0000      -0.558404       -15.1949
  43   2.0000      -0.553145       -15.0518
  44   2.0000      -0.539621       -14.6838
  45   2.0000      -0.531061       -14.4509
  46   2.0000      -0.515486       -14.0271
  47   2.0000      -0.507012       -13.7965
  48   2.0000      -0.504400       -13.7254
  49   2.0000      -0.495248       -13.4764
  50   2.0000      -0.486268       -13.2320
  51   2.0000      -0.479928       -13.0595
  52   2.0000      -0.470361       -12.7992
  53   2.0000      -0.462007       -12.5718
  54   2.0000      -0.459570       -12.5055
  55   2.0000      -0.448488       -12.2040
  56   2.0000      -0.446954       -12.1622
  57   2.0000      -0.437483       -11.9045
  58   2.0000      -0.436069       -11.8661
  59   2.0000      -0.427743       -11.6395
  60   2.0000      -0.419874       -11.4254
  61   2.0000      -0.411446       -11.1960
  62   2.0000      -0.406942       -11.0734
  63   2.0000      -0.337156        -9.1745
  64   2.0000      -0.333960        -9.0875
  65   2.0000      -0.319593        -8.6966
  66   2.0000      -0.304351        -8.2818
  67   0.0000       0.043124         1.1735
  68   0.0000       0.060094         1.6352
  69   0.0000       0.117607         3.2002
  70   0.0000       0.124963         3.4004
  71   0.0000       0.128853         3.5063

MULLIKEN ATOMIC CHARGES
-----------------------
   0 S :    0.108147
   1 C :   -0.076752
   2 C :   -0.150272
   3 C :    0.088387
   4 C :   -0.178067
   5 H :   -0.013676
   6 C :    0.111434
   7 H :    0.005597
   8 H :    0.028787
   9 C :   -0.049352
  10 H :    0.024797
  11 H :    0.011644
  12 C :   -0.048314
  13 H :    0.020764
  14 H :    0.037781
  15 H :    0.024309
  16 S :    0.156428
  17 C :   -0.104107
  18 C :   -0.081809
  19 C :   -0.006454
  20 C :   -0.216976
  21 H :    0.031506
  22 C :    0.074621
  23 H :    0.054418
  24 H :    0.048538
  25 C :   -0.115946
  26 H :    0.048098
  27 H :    0.029168
  28 C :   -0.038121
  29 H :    0.026062
  30 H :    0.038830
  31 H :    0.018415
  32 H :    0.017134
  33 H :    0.074981
Sum of atomic charges:   -0.0000000

LOEWDIN ATOMIC CHARGES
----------------------
   0 S :    0.395435
   1 C :   -0.196706
   2 C :   -0.052991
   3 C :   -0.050607
   4 C :   -0.185905
   5 H :    0.018406
   6 C :   -0.024414
   7 H :    0.026853
   8 H :    0.025315
   9 C :   -0.036987
  10 H :    0.028206
  11 H :    0.015311
  12 C :   -0.067132
  13 H :    0.019198
  14 H :    0.034493
  15 H :    0.020571
  16 S :    0.453427
  17 C :   -0.226521
  18 C :   -0.088343
  19 C :   -0.044902
  20 C :   -0.212516
  21 H :    0.033840
  22 C :   -0.029124
  23 H :    0.040503
  24 H :    0.037269
  25 C :   -0.049406
  26 H :    0.033822
  27 H :    0.020938
  28 C :   -0.068732
  29 H :    0.027504
  30 H :    0.026749
  31 H :    0.019674
  32 H :    0.014357
  33 H :    0.042411

  Mayer bond orders larger than 0.100000
B(  0-S ,  1-C ) :   1.1340 B(  0-S ,  4-C ) :   1.1374 B(  1-C ,  2-C ) :   1.6365
B(  1-C , 32-H ) :   0.9736 B(  2-C ,  3-C ) :   1.2183 B(  2-C ,  6-C ) :   1.0156
B(  3-C ,  4-C ) :   1.6118 B(  3-C ,  5-H ) :   1.0035 B(  4-C , 20-C ) :   1.0179
B(  6-C ,  7-H ) :   0.9379 B(  6-C ,  8-H ) :   0.9425 B(  6-C ,  9-C ) :   1.0669
B(  9-C , 10-H ) :   0.9602 B(  9-C , 11-H ) :   0.9565 B(  9-C , 12-C ) :   1.0691
B( 12-C , 13-H ) :   0.9748 B( 12-C , 14-H ) :   0.9813 B( 12-C , 15-H ) :   0.9754
B( 16-S , 17-C ) :   1.1995 B( 16-S , 20-C ) :   1.1588 B( 17-C , 18-C ) :   1.5822
B( 17-C , 33-H ) :   0.9538 B( 18-C , 19-C ) :   1.2600 B( 18-C , 21-H ) :   0.9815
B( 19-C , 20-C ) :   1.5800 B( 19-C , 22-C ) :   1.0206 B( 22-C , 23-H ) :   0.9389
B( 22-C , 24-H ) :   0.9342 B( 22-C , 25-C ) :   1.0635 B( 25-C , 26-H ) :   0.9606
B( 25-C , 27-H ) :   0.9551 B( 25-C , 28-C ) :   1.0595 B( 28-C , 29-H ) :   0.9776
B( 28-C , 30-H ) :   0.9768 B( 28-C , 31-H ) :   0.9728

Dispersion correction           -0.014286701
FINAL SINGLE POINT ENERGY     -1339.865450911196

DIPOLE MOMENT
-------------
                                X             Y             Z
Electronic contribution:      0.20205     -23.29857     -16.65748
Nuclear contribution   :     -0.40816      23.76178      16.82198
                        -----------------------------------------
Total Dipole Moment    :     -0.20611       0.46322       0.16450
                        -----------------------------------------
Magnitude (a.u.)       :      0.53302
Magnitude (Debye)      :      1.35483

Rotational constants in cm-1:     0.019346     0.007976     0.006420
Rotational constants in MHz :   579.971035   239.102634   192.473495

                             ****ORCA TERMINATED NORMALLY****
TOTAL RUN TIME: 0 days 0 hours 0 minutes 29 seconds 527 msec
