                         Program Version 4.2.1 -  RELEASE  -
|  1> ! wB97X-D3 SP def2-SVP
|  2> %pal
|  3> nprocs 16
|  4> end
|  5>
|  6> * xyz 0 1
|  7> S 	 -14.817 	 31.278 	 36.4732
|  8> C 	 -15.0679 	 31.781 	 38.1183
|  9> C 	 -14.3633 	 32.9671 	 38.422
| 10> C 	 -13.7134 	 33.4979 	 37.2367
| 11> C 	 -13.9206 	 32.7297 	 36.1151
| 12> H 	 -13.2344 	 34.4548 	 37.1397
| 13> C 	 -14.3595 	 33.6925 	 39.7511
| 14> H 	 -13.7671 	 34.6177 	 39.6917
| 15> H 	 -13.8532 	 33.0727 	 40.4621
| 16> C 	 -15.7008 	 34.1754 	 40.2408
| 17> H 	 -16.4307 	 33.337 	 40.1788
| 18> H 	 -15.643 	 34.5266 	 41.2101
| 19> C 	 -16.3582 	 35.2822 	 39.4218
| 20> H 	 -15.8963 	 36.234 	 39.5292
| 21> H 	 -16.3055 	 34.898 	 38.4379
| 22> H 	 -17.4099 	 35.4716 	 39.649
| 23> S 	 -12.3378 	 32.1908 	 33.9525
| 24> C 	 -12.5169 	 33.084 	 32.4272
| 25> C 	 -13.4656 	 34.0517 	 32.6489
| 26> C 	 -14.0216 	 34.1955 	 33.9474
| 27> C 	 -13.6406 	 33.1253 	 34.7521
| 28> H 	 -13.6113 	 34.7864 	 31.8281
| 29> C 	 -15.0976 	 35.1844 	 34.3381
| 30> H 	 -15.2169 	 34.9215 	 35.4165
| 31> H 	 -15.9303 	 34.923 	 33.7075
| 32> C 	 -14.6059 	 36.6287 	 34.1567
| 33> H 	 -14.4191 	 36.6577 	 33.1005
| 34> H 	 -13.6926 	 36.681 	 34.6732
| 35> C 	 -15.7074 	 37.6585 	 34.7325
| 36> H 	 -15.3277 	 38.6096 	 34.7526
| 37> H 	 -15.9482 	 37.4209 	 35.7587
| 38> H 	 -16.5344 	 37.5907 	 34.0817
| 39> H 	 -15.5963 	 31.2147 	 38.8857
| 40> H 	 -11.7998 	 33.1467 	 31.5279
| 41> *
| 42>
| 43>                          ****END OF INPUT****

CARTESIAN COORDINATES (ANGSTROEM)
---------------------------------
  S    -14.817000   31.278000   36.473200
  C    -15.067900   31.781000   38.118300
  C    -14.363300   32.967100   38.422000
  C    -13.713400   33.497900   37.236700
  C    -13.920600   32.729700   36.115100
  H    -13.234400   34.454800   37.139700
  C    -14.359500   33.692500   39.751100
  H    -13.767100   34.617700   39.691700
  H    -13.853200   33.072700   40.462100
  C    -15.700800   34.175400   40.240800
  H    -16.430700   33.337000   40.178800
  H    -15.643000   34.526600   41.210100
  C    -16.358200   35.282200   39.421800
  H    -15.896300   36.234000   39.529200
  H    -16.305500   34.898000   38.437900
  H    -17.409900   35.471600   39.649000
  S    -12.337800   32.190800   33.952500
  C    -12.516900   33.084000   32.427200
  C    -13.465600   34.051700   32.648900
  C    -14.021600   34.195500   33.947400
  C    -13.640600   33.125300   34.752100
  H    -13.611300   34.786400   31.828100
  C    -15.097600   35.184400   34.338100
  H    -15.216900   34.921500   35.416500
  H    -15.930300   34.923000   33.707500
  C    -14.605900   36.628700   34.156700
  H    -14.419100   36.657700   33.100500
  H    -13.692600   36.681000   34.673200
  C    -15.707400   37.658500   34.732500
  H    -15.327700   38.609600   34.752600
  H    -15.948200   37.420900   35.758700
  H    -16.534400   37.590700   34.081700
  H    -15.596300   31.214700   38.885700
  H    -11.799800   33.146700   31.527900

 Total Charge           Charge          ....    0
 Multiplicity           Mult            ....    1
 Number of Electrons    NEL             ....  134
 Basis Dimension        Dim             ....  322

ORBITAL ENERGIES
----------------

  NO   OCC          E(Eh)            E(eV)
   0   2.0000     -88.970155     -2421.0010
   1   2.0000     -88.960349     -2420.7342
   2   2.0000     -10.327787      -281.0334
   3   2.0000     -10.327293      -281.0199
   4   2.0000     -10.324020      -280.9309
   5   2.0000     -10.319949      -280.8201
   6   2.0000     -10.308489      -280.5082
   7   2.0000     -10.302576      -280.3474
   8   2.0000     -10.297424      -280.2072
   9   2.0000     -10.293333      -280.0958
  10   2.0000     -10.291741      -280.0525
  11   2.0000     -10.288574      -279.9663
  12   2.0000     -10.285774      -279.8901
  13   2.0000     -10.280627      -279.7501
  14   2.0000     -10.273911      -279.5673
  15   2.0000     -10.268715      -279.4260
  16   2.0000      -8.084994      -220.0039
  17   2.0000      -8.074246      -219.7114
  18   2.0000      -6.043453      -164.4507
  19   2.0000      -6.039435      -164.3414
  20   2.0000      -6.035833      -164.2434
  21   2.0000      -6.032887      -164.1632
  22   2.0000      -6.028805      -164.0521
  23   2.0000      -6.024949      -163.9472
  24   2.0000      -1.005597       -27.3637
  25   2.0000      -0.981132       -26.6980
  26   2.0000      -0.919211       -25.0130
  27   2.0000      -0.907859       -24.7041
  28   2.0000      -0.869873       -23.6705
  29   2.0000      -0.851339       -23.1661
  30   2.0000      -0.842833       -22.9347
  31   2.0000      -0.813811       -22.1449
  32   2.0000      -0.785882       -21.3849
  33   2.0000      -0.774595       -21.0778
  34   2.0000      -0.709064       -19.2946
  35   2.0000      -0.704586       -19.1728
  36   2.0000      -0.696906       -18.9638
  37   2.0000      -0.654096       -17.7989
  38   2.0000      -0.642559       -17.4849
  39   2.0000      -0.611474       -16.6390
  40   2.0000      -0.587652       -15.9908
  41   2.0000      -0.578645       -15.7457
  42   2.0000      -0.574226       -15.6255
  43   2.0000      -0.561233       -15.2719
  44   2.0000      -0.545447       -14.8424
  45   2.0000      -0.523840       -14.2544
  46   2.0000      -0.517414       -14.0796
  47   2.0000      -0.508878       -13.8473
  48   2.0000      -0.504385       -13.7250
  49   2.0000      -0.500661       -13.6237
  50   2.0000      -0.490412       -13.3448
  51   2.0000      -0.479179       -13.0391
  52   2.0000      -0.473696       -12.8899
  53   2.0000      -0.468759       -12.7556
  54   2.0000      -0.463348       -12.6083
  55   2.0000      -0.449639       -12.2353
  56   2.0000      -0.445512       -12.1230
  57   2.0000      -0.440840       -11.9959
  58   2.0000      -0.432168       -11.7599
  59   2.0000      -0.427090       -11.6217
  60   2.0000      -0.423370       -11.5205
  61   2.0000      -0.410034       -11.1576
  62   2.0000      -0.407950       -11.1009
  63   2.0000      -0.339856        -9.2480
  64   2.0000      -0.331728        -9.0268
  65   2.0000      -0.327294        -8.9061
  66   2.0000      -0.300245        -8.1701
  67   0.0000       0.035532         0.9669
  68   0.0000       0.053857         1.4655
  69   0.0000       0.116733         3.1765
  70   0.0000       0.120246         3.2721
  71   0.0000       0.123075         3.3491

MULLIKEN ATOMIC CHARGES
-----------------------
   0 S :    0.138767
   1 C :   -0.124693
   2 C :   -0.125952
   3 C :    0.052871
   4 C :   -0.174493
   5 H :    0.012841
   6 C :    0.088467
   7 H :    0.015239
   8 H :    0.036319
   9 C :   -0.050542
  10 H :    0.022270
  11 H :    0.013006
  12 C :   -0.047871
  13 H :    0.020192
  14 H :    0.030351
  15 H :    0.032206
  16 S :    0.083112
  17 C :   -0.111978
  18 C :   -0.066337
  19 C :   -0.029991
  20 C :   -0.180410
  21 H :    0.028011
  22 C :    0.066082
  23 H :    0.035053
  24 H :    0.042402
  25 C :   -0.095584
  26 H :    0.024779
  27 H :    0.019071
  28 C :    0.025622
  29 H :    0.016647
  30 H :    0.029303
  31 H :    0.027117
  32 H :    0.055843
  33 H :    0.092281
Sum of atomic charges:   -0.0000000

LOEWDIN ATOMIC CHARGES
----------------------
   0 S :    0.426840
   1 C :   -0.204070
   2 C :   -0.060786
   3 C :   -0.056229
   4 C :   -0.209279
   5 H :    0.031192
   6 C :   -0.032458
   7 H :    0.032065
   8 H :    0.033102
   9 C :   -0.033747
  10 H :    0.024669
  11 H :    0.012643
  12 C :   -0.060888
  13 H :    0.016909
  14 H :    0.021352
  15 H :    0.029220
  16 S :    0.374743
  17 C :   -0.197880
  18 C :   -0.085781
  19 C :   -0.057555
  20 C :   -0.186785
  21 H :    0.031339
  22 C :   -0.027768
  23 H :    0.033852
  24 H :    0.031939
  25 C :   -0.027185
  26 H :    0.019416
  27 H :    0.016347
  28 C :   -0.045255
  29 H :    0.013566
  30 H :    0.027646
  31 H :    0.022424
  32 H :    0.030253
  33 H :    0.056148

  Mayer bond orders larger than 0.100000
B(  0-S ,  1-C ) :   1.1510 B(  0-S ,  4-C ) :   1.1589 B(  1-C ,  2-C ) :   1.5974
B(  1-C , 32-H ) :   0.9663 B(  2-C ,  3-C ) :   1.2337 B(  2-C ,  6-C ) :   1.0210
B(  3-C ,  4-C ) :   1.5760 B(  3-C ,  5-H ) :   0.9990 B(  4-C , 20-C ) :   1.0095
B(  6-C ,  7-H ) :   0.9424 B(  6-C ,  8-H ) :   0.9313 B(  6-C ,  9-C ) :   1.0791
B(  9-C , 10-H ) :   0.9574 B(  9-C , 11-H ) :   0.9541 B(  9-C , 12-C ) :   1.0737
B( 12-C , 13-H ) :   0.9744 B( 12-C , 14-H ) :   0.9793 B( 12-C , 15-H ) :   0.9720
B( 16-S , 17-C ) :   1.1340 B( 16-S , 20-C ) :   1.1459 B( 17-C , 18-C ) :   1.6350
B( 17-C , 20-C ) :   0.1055 B( 17-C , 33-H ) :   0.9529 B( 18-C , 19-C ) :   1.2299
B( 18-C , 21-H ) :   0.9724 B( 19-C , 20-C ) :   1.5929 B( 19-C , 22-C ) :   1.0295
B( 22-C , 23-H ) :   0.9326 B( 22-C , 24-H ) :   0.9401 B( 22-C , 25-C ) :   1.0461
B( 25-C , 26-H ) :   0.9638 B( 25-C , 27-H ) :   0.9596 B( 25-C , 28-C ) :   1.0710
B( 28-C , 29-H ) :   0.9770 B( 28-C , 30-H ) :   0.9761 B( 28-C , 31-H ) :   0.9761

Dispersion correction           -0.014765122
FINAL SINGLE POINT ENERGY     -1339.863007870268

DIPOLE MOMENT
-------------
                                X             Y             Z
Electronic contribution:     12.57856     -25.39610     -11.76602
Nuclear contribution   :    -12.77163      26.13625      12.04607
                        -----------------------------------------
Total Dipole Moment    :     -0.19307       0.74015       0.28005
                        -----------------------------------------
Magnitude (a.u.)       :      0.81457
Magnitude (Debye)      :      2.07048

Rotational constants in cm-1:     0.017190     0.009896     0.006862
Rotational constants in MHz :   515.337708   296.661271   205.724192

                             ****ORCA TERMINATED NORMALLY****
TOTAL RUN TIME: 0 days 0 hours 0 minutes 34 seconds 248 msec
