                         Program Version 4.2.1 -  RELEASE  -
|  1> ! wB97X-D3 SP def2-SVP
|  2> %pal
|  3> nprocs 16
|  4> end
|  5>
|  6> * xyz 0 1
|  7> S 	 -7.24494 	 62.796 	 57.9814
|  8> C 	 -6.46983 	 62.2794 	 59.4864
|  9> C 	 -5.51006 	 61.3007 	 59.2119
| 10> C 	 -5.56905 	 60.8503 	 57.8711
| 11> C 	 -6.47688 	 61.5581 	 57.067
| 12> H 	 -5.15163 	 60.0117 	 57.3907
| 13> C 	 -4.58825 	 60.6003 	 60.1951
| 14> H 	 -4.28012 	 61.3864 	 60.8831
| 15> H 	 -3.73906 	 60.1264 	 59.7515
| 16> C 	 -5.19815 	 59.5116 	 61.1309
| 17> H 	 -5.79251 	 59.9315 	 61.9563
| 18> H 	 -5.831 	 58.815 	 60.541
| 19> C 	 -4.12487 	 58.6218 	 61.8253
| 20> H 	 -4.51944 	 57.697 	 62.1944
| 21> H 	 -3.37547 	 58.3666 	 61.043
| 22> H 	 -3.46125 	 59.1364 	 62.5221
| 23> S 	 -7.4576 	 59.5245 	 55.4944
| 24> C 	 -7.83649 	 59.8951 	 53.851
| 25> C 	 -7.79876 	 61.2429 	 53.5764
| 26> C 	 -7.13975 	 61.9791 	 54.6271
| 27> C 	 -6.85483 	 61.219 	 55.718
| 28> H 	 -8.07555 	 61.5111 	 52.5651
| 29> C 	 -6.91684 	 63.5309 	 54.5271
| 30> H 	 -6.34559 	 63.7453 	 53.6545
| 31> H 	 -6.10034 	 63.8173 	 55.2738
| 32> C 	 -8.06255 	 64.4623 	 54.6608
| 33> H 	 -8.50925 	 64.406 	 55.6221
| 34> H 	 -8.80334 	 63.9898 	 53.9859
| 35> C 	 -7.78886 	 65.9101 	 54.303
| 36> H 	 -8.63645 	 66.5762 	 54.3266
| 37> H 	 -7.53294 	 65.8998 	 53.2456
| 38> H 	 -6.95158 	 66.339 	 54.8119
| 39> H 	 -6.58991 	 62.8455 	 60.4175
| 40> H 	 -8.28418 	 59.0932 	 53.2379
| 41> *
| 42>
| 43>                          ****END OF INPUT****

CARTESIAN COORDINATES (ANGSTROEM)
---------------------------------
  S     -7.244940   62.796000   57.981400
  C     -6.469830   62.279400   59.486400
  C     -5.510060   61.300700   59.211900
  C     -5.569050   60.850300   57.871100
  C     -6.476880   61.558100   57.067000
  H     -5.151630   60.011700   57.390700
  C     -4.588250   60.600300   60.195100
  H     -4.280120   61.386400   60.883100
  H     -3.739060   60.126400   59.751500
  C     -5.198150   59.511600   61.130900
  H     -5.792510   59.931500   61.956300
  H     -5.831000   58.815000   60.541000
  C     -4.124870   58.621800   61.825300
  H     -4.519440   57.697000   62.194400
  H     -3.375470   58.366600   61.043000
  H     -3.461250   59.136400   62.522100
  S     -7.457600   59.524500   55.494400
  C     -7.836490   59.895100   53.851000
  C     -7.798760   61.242900   53.576400
  C     -7.139750   61.979100   54.627100
  C     -6.854830   61.219000   55.718000
  H     -8.075550   61.511100   52.565100
  C     -6.916840   63.530900   54.527100
  H     -6.345590   63.745300   53.654500
  H     -6.100340   63.817300   55.273800
  C     -8.062550   64.462300   54.660800
  H     -8.509250   64.406000   55.622100
  H     -8.803340   63.989800   53.985900
  C     -7.788860   65.910100   54.303000
  H     -8.636450   66.576200   54.326600
  H     -7.532940   65.899800   53.245600
  H     -6.951580   66.339000   54.811900
  H     -6.589910   62.845500   60.417500
  H     -8.284180   59.093200   53.237900

 Total Charge           Charge          ....    0
 Multiplicity           Mult            ....    1
 Number of Electrons    NEL             ....  134
 Basis Dimension        Dim             ....  322

ORBITAL ENERGIES
----------------

  NO   OCC          E(Eh)            E(eV)
   0   2.0000     -88.968217     -2420.9483
   1   2.0000     -88.963440     -2420.8183
   2   2.0000     -10.327487      -281.0252
   3   2.0000     -10.325439      -280.9695
   4   2.0000     -10.319730      -280.8141
   5   2.0000     -10.319323      -280.8031
   6   2.0000     -10.309854      -280.5454
   7   2.0000     -10.306112      -280.4436
   8   2.0000     -10.297292      -280.2035
   9   2.0000     -10.292107      -280.0625
  10   2.0000     -10.291744      -280.0526
  11   2.0000     -10.290902      -280.0297
  12   2.0000     -10.288970      -279.9771
  13   2.0000     -10.279281      -279.7135
  14   2.0000     -10.279014      -279.7062
  15   2.0000     -10.273621      -279.5595
  16   2.0000      -8.082529      -219.9368
  17   2.0000      -8.078215      -219.8194
  18   2.0000      -6.041007      -164.3842
  19   2.0000      -6.036917      -164.2729
  20   2.0000      -6.036623      -164.2649
  21   2.0000      -6.033537      -164.1809
  22   2.0000      -6.032915      -164.1640
  23   2.0000      -6.028865      -164.0538
  24   2.0000      -1.007081       -27.4041
  25   2.0000      -0.983381       -26.7592
  26   2.0000      -0.912724       -24.8365
  27   2.0000      -0.907509       -24.6946
  28   2.0000      -0.870027       -23.6746
  29   2.0000      -0.852365       -23.1940
  30   2.0000      -0.847138       -23.0518
  31   2.0000      -0.810376       -22.0515
  32   2.0000      -0.786562       -21.4034
  33   2.0000      -0.773754       -21.0549
  34   2.0000      -0.705002       -19.1841
  35   2.0000      -0.698638       -19.0109
  36   2.0000      -0.694527       -18.8990
  37   2.0000      -0.665409       -18.1067
  38   2.0000      -0.642567       -17.4851
  39   2.0000      -0.613665       -16.6987
  40   2.0000      -0.599090       -16.3021
  41   2.0000      -0.573193       -15.5974
  42   2.0000      -0.564694       -15.3661
  43   2.0000      -0.557157       -15.1610
  44   2.0000      -0.527997       -14.3675
  45   2.0000      -0.524378       -14.2690
  46   2.0000      -0.520104       -14.1527
  47   2.0000      -0.514167       -13.9912
  48   2.0000      -0.508854       -13.8466
  49   2.0000      -0.499665       -13.5966
  50   2.0000      -0.489711       -13.3257
  51   2.0000      -0.478151       -13.0111
  52   2.0000      -0.467656       -12.7256
  53   2.0000      -0.463987       -12.6257
  54   2.0000      -0.459255       -12.4970
  55   2.0000      -0.454161       -12.3583
  56   2.0000      -0.441360       -12.0100
  57   2.0000      -0.436892       -11.8884
  58   2.0000      -0.431355       -11.7378
  59   2.0000      -0.422985       -11.5100
  60   2.0000      -0.419524       -11.4158
  61   2.0000      -0.417635       -11.3644
  62   2.0000      -0.402427       -10.9506
  63   2.0000      -0.344203        -9.3662
  64   2.0000      -0.334562        -9.1039
  65   2.0000      -0.331674        -9.0253
  66   2.0000      -0.294465        -8.0128
  67   0.0000       0.026925         0.7327
  68   0.0000       0.067611         1.8398
  69   0.0000       0.099557         2.7091
  70   0.0000       0.107508         2.9255
  71   0.0000       0.134905         3.6710

MULLIKEN ATOMIC CHARGES
-----------------------
   0 S :    0.117892
   1 C :   -0.139587
   2 C :   -0.049187
   3 C :    0.026970
   4 C :   -0.161211
   5 H :   -0.006311
   6 C :    0.082806
   7 H :    0.024254
   8 H :    0.017083
   9 C :   -0.083891
  10 H :    0.035476
  11 H :    0.034874
  12 C :   -0.059901
  13 H :    0.041794
  14 H :    0.014386
  15 H :    0.029954
  16 S :    0.092202
  17 C :   -0.111338
  18 C :   -0.028098
  19 C :   -0.030804
  20 C :   -0.131083
  21 H :    0.025484
  22 C :    0.027592
  23 H :    0.010685
  24 H :    0.021736
  25 C :   -0.032847
  26 H :    0.017515
  27 H :    0.019130
  28 C :   -0.018562
  29 H :    0.034355
  30 H :    0.015049
  31 H :    0.031099
  32 H :    0.060423
  33 H :    0.072061
Sum of atomic charges:    0.0000000

LOEWDIN ATOMIC CHARGES
----------------------
   0 S :    0.427201
   1 C :   -0.196578
   2 C :   -0.058989
   3 C :   -0.061519
   4 C :   -0.205153
   5 H :    0.022058
   6 C :   -0.030011
   7 H :    0.033593
   8 H :    0.026365
   9 C :   -0.038600
  10 H :    0.023496
  11 H :    0.026024
  12 C :   -0.070776
  13 H :    0.025361
  14 H :    0.024163
  15 H :    0.023729
  16 S :    0.386376
  17 C :   -0.184316
  18 C :   -0.074621
  19 C :   -0.051464
  20 C :   -0.176542
  21 H :    0.033919
  22 C :   -0.039062
  23 H :    0.024657
  24 H :    0.030690
  25 C :   -0.044874
  26 H :    0.013912
  27 H :    0.027302
  28 C :   -0.059027
  29 H :    0.028314
  30 H :    0.025915
  31 H :    0.023853
  32 H :    0.031775
  33 H :    0.032828

  Mayer bond orders larger than 0.100000
B(  0-S ,  1-C ) :   1.1478 B(  0-S ,  4-C ) :   1.1659 B(  1-C ,  2-C ) :   1.5698
B(  1-C ,  4-C ) :   0.1026 B(  1-C , 32-H ) :   0.9703 B(  2-C ,  3-C ) :   1.2412
B(  2-C ,  6-C ) :   1.0388 B(  3-C ,  4-C ) :   1.5324 B(  3-C ,  5-H ) :   1.0079
B(  4-C , 20-C ) :   1.0588 B(  6-C ,  7-H ) :   0.9305 B(  6-C ,  8-H ) :   0.9472
B(  6-C ,  9-C ) :   1.0597 B(  9-C , 10-H ) :   0.9573 B(  9-C , 11-H ) :   0.9597
B(  9-C , 12-C ) :   1.0761 B( 12-C , 13-H ) :   0.9760 B( 12-C , 14-H ) :   0.9723
B( 12-C , 15-H ) :   0.9763 B( 16-S , 17-C ) :   1.1579 B( 16-S , 20-C ) :   1.1148
B( 17-C , 18-C ) :   1.6326 B( 17-C , 33-H ) :   0.9613 B( 18-C , 19-C ) :   1.1928
B( 18-C , 21-H ) :   0.9918 B( 19-C , 20-C ) :   1.6463 B( 19-C , 22-C ) :   1.0326
B( 22-C , 23-H ) :   0.9350 B( 22-C , 24-H ) :   0.9287 B( 22-C , 25-C ) :   1.0629
B( 25-C , 26-H ) :   0.9473 B( 25-C , 27-H ) :   0.9520 B( 25-C , 28-C ) :   1.0815
B( 28-C , 29-H ) :   0.9727 B( 28-C , 30-H ) :   0.9708 B( 28-C , 31-H ) :   0.9761

Dispersion correction           -0.013787494
FINAL SINGLE POINT ENERGY     -1339.874001933990

DIPOLE MOMENT
-------------
                                X             Y             Z
Electronic contribution:     -7.46621      -5.66391      -7.59652
Nuclear contribution   :      7.55082       5.72717       7.56459
                        -----------------------------------------
Total Dipole Moment    :      0.08461       0.06326      -0.03193
                        -----------------------------------------
Magnitude (a.u.)       :      0.11036
Magnitude (Debye)      :      0.28052

Rotational constants in cm-1:     0.022530     0.007467     0.005904
Rotational constants in MHz :   675.417839   223.841579   176.986018

                             ****ORCA TERMINATED NORMALLY****
TOTAL RUN TIME: 0 days 0 hours 0 minutes 30 seconds 354 msec
