                         Program Version 4.2.1 -  RELEASE  -
|  1> ! wB97X-D3 SP def2-SVP
|  2> %pal
|  3> nprocs 16
|  4> end
|  5>
|  6> * xyz 0 1
|  7> S 	 0.14404 	 20.842 	 54.647
|  8> C 	 1.68759 	 21.1949 	 53.8642
|  9> C 	 2.80317 	 20.7687 	 54.6026
| 10> C 	 2.39575 	 20.0979 	 55.7947
| 11> C 	 1.01126 	 20.0349 	 55.9385
| 12> H 	 3.0504 	 19.6861 	 56.5787
| 13> C 	 4.27017 	 20.8444 	 54.134
| 14> H 	 4.81123 	 21.6725 	 54.5159
| 15> H 	 4.23792 	 20.8475 	 53.0465
| 16> C 	 5.21181 	 19.7523 	 54.6086
| 17> H 	 5.13508 	 19.7514 	 55.6781
| 18> H 	 4.74577 	 18.7929 	 54.3156
| 19> C 	 6.70918 	 19.8632 	 54.1671
| 20> H 	 7.34297 	 18.9722 	 54.2822
| 21> H 	 6.71363 	 20.0689 	 53.0689
| 22> H 	 7.25506 	 20.686 	 54.6388
| 23> S 	 -0.214626 	 17.6266 	 56.5774
| 24> C 	 -0.563039 	 17.3233 	 58.2035
| 25> C 	 -0.381549 	 18.452 	 59.0268
| 26> C 	 0.219642 	 19.5632 	 58.3256
| 27> C 	 0.423738 	 19.2536 	 57.0044
| 28> H 	 -0.628485 	 18.3481 	 60.038
| 29> C 	 0.603289 	 20.85 	 59.0497
| 30> H 	 -0.378389 	 21.3299 	 59.1434
| 31> H 	 1.30504 	 21.2849 	 58.3216
| 32> C 	 1.37616 	 20.6812 	 60.3814
| 33> H 	 0.981867 	 19.9675 	 61.1008
| 34> H 	 1.4235 	 21.6107 	 60.9255
| 35> C 	 2.75021 	 20.1214 	 59.9745
| 36> H 	 3.11183 	 20.7922 	 59.1711
| 37> H 	 2.84058 	 19.1432 	 59.5192
| 38> H 	 3.45989 	 20.2317 	 60.751
| 39> H 	 1.83207 	 21.5934 	 52.8833
| 40> H 	 -1.06351 	 16.3475 	 58.4962
| 41> *
| 42>
| 43>                          ****END OF INPUT****

CARTESIAN COORDINATES (ANGSTROEM)
---------------------------------
  S      0.144040   20.842000   54.647000
  C      1.687590   21.194900   53.864200
  C      2.803170   20.768700   54.602600
  C      2.395750   20.097900   55.794700
  C      1.011260   20.034900   55.938500
  H      3.050400   19.686100   56.578700
  C      4.270170   20.844400   54.134000
  H      4.811230   21.672500   54.515900
  H      4.237920   20.847500   53.046500
  C      5.211810   19.752300   54.608600
  H      5.135080   19.751400   55.678100
  H      4.745770   18.792900   54.315600
  C      6.709180   19.863200   54.167100
  H      7.342970   18.972200   54.282200
  H      6.713630   20.068900   53.068900
  H      7.255060   20.686000   54.638800
  S     -0.214626   17.626600   56.577400
  C     -0.563039   17.323300   58.203500
  C     -0.381549   18.452000   59.026800
  C      0.219642   19.563200   58.325600
  C      0.423738   19.253600   57.004400
  H     -0.628485   18.348100   60.038000
  C      0.603289   20.850000   59.049700
  H     -0.378389   21.329900   59.143400
  H      1.305040   21.284900   58.321600
  C      1.376160   20.681200   60.381400
  H      0.981867   19.967500   61.100800
  H      1.423500   21.610700   60.925500
  C      2.750210   20.121400   59.974500
  H      3.111830   20.792200   59.171100
  H      2.840580   19.143200   59.519200
  H      3.459890   20.231700   60.751000
  H      1.832070   21.593400   52.883300
  H     -1.063510   16.347500   58.496200

 Total Charge           Charge          ....    0
 Multiplicity           Mult            ....    1
 Number of Electrons    NEL             ....  134
 Basis Dimension        Dim             ....  322

ORBITAL ENERGIES
----------------

  NO   OCC          E(Eh)            E(eV)
   0   2.0000     -88.973115     -2421.0816
   1   2.0000     -88.961061     -2420.7535
   2   2.0000     -10.325529      -280.9719
   3   2.0000     -10.320785      -280.8428
   4   2.0000     -10.319349      -280.8038
   5   2.0000     -10.315872      -280.7092
   6   2.0000     -10.305487      -280.4266
   7   2.0000     -10.303664      -280.3770
   8   2.0000     -10.295645      -280.1587
   9   2.0000     -10.294465      -280.1266
  10   2.0000     -10.290625      -280.0221
  11   2.0000     -10.289749      -279.9983
  12   2.0000     -10.289503      -279.9916
  13   2.0000     -10.288374      -279.9609
  14   2.0000     -10.287893      -279.9478
  15   2.0000     -10.272987      -279.5422
  16   2.0000      -8.086974      -220.0578
  17   2.0000      -8.076595      -219.7753
  18   2.0000      -6.045444      -164.5049
  19   2.0000      -6.041649      -164.4016
  20   2.0000      -6.037797      -164.2968
  21   2.0000      -6.034899      -164.2180
  22   2.0000      -6.031062      -164.1135
  23   2.0000      -6.027458      -164.0155
  24   2.0000      -1.002718       -27.2853
  25   2.0000      -0.979947       -26.6657
  26   2.0000      -0.912333       -24.8258
  27   2.0000      -0.911638       -24.8069
  28   2.0000      -0.866540       -23.5798
  29   2.0000      -0.848894       -23.0996
  30   2.0000      -0.845385       -23.0041
  31   2.0000      -0.805848       -21.9282
  32   2.0000      -0.783310       -21.3150
  33   2.0000      -0.772045       -21.0084
  34   2.0000      -0.713934       -19.4271
  35   2.0000      -0.701949       -19.1010
  36   2.0000      -0.688073       -18.7234
  37   2.0000      -0.654318       -17.8049
  38   2.0000      -0.638458       -17.3733
  39   2.0000      -0.617055       -16.7909
  40   2.0000      -0.593201       -16.1418
  41   2.0000      -0.576848       -15.6968
  42   2.0000      -0.565029       -15.3752
  43   2.0000      -0.559078       -15.2133
  44   2.0000      -0.539778       -14.6881
  45   2.0000      -0.518203       -14.1010
  46   2.0000      -0.513765       -13.9803
  47   2.0000      -0.505146       -13.7457
  48   2.0000      -0.499928       -13.6037
  49   2.0000      -0.495942       -13.4953
  50   2.0000      -0.490293       -13.3416
  51   2.0000      -0.477993       -13.0068
  52   2.0000      -0.467875       -12.7315
  53   2.0000      -0.462878       -12.5956
  54   2.0000      -0.455094       -12.3837
  55   2.0000      -0.453700       -12.3458
  56   2.0000      -0.445205       -12.1146
  57   2.0000      -0.436710       -11.8835
  58   2.0000      -0.433365       -11.7925
  59   2.0000      -0.429392       -11.6843
  60   2.0000      -0.421550       -11.4710
  61   2.0000      -0.419555       -11.4167
  62   2.0000      -0.413593       -11.2544
  63   2.0000      -0.337874        -9.1940
  64   2.0000      -0.329160        -8.9569
  65   2.0000      -0.319849        -8.7035
  66   2.0000      -0.302728        -8.2376
  67   0.0000       0.040607         1.1050
  68   0.0000       0.056376         1.5341
  69   0.0000       0.116365         3.1664
  70   0.0000       0.122570         3.3353
  71   0.0000       0.125029         3.4022

MULLIKEN ATOMIC CHARGES
-----------------------
   0 S :    0.137396
   1 C :   -0.122976
   2 C :   -0.067563
   3 C :    0.010888
   4 C :   -0.180191
   5 H :    0.026682
   6 C :    0.100657
   7 H :    0.025251
   8 H :    0.021833
   9 C :   -0.115001
  10 H :    0.027151
  11 H :    0.030539
  12 C :   -0.057025
  13 H :    0.045487
  14 H :    0.031349
  15 H :    0.036043
  16 S :    0.115800
  17 C :   -0.122383
  18 C :   -0.026243
  19 C :   -0.031392
  20 C :   -0.214209
  21 H :   -0.002555
  22 C :    0.080466
  23 H :    0.050318
  24 H :    0.037260
  25 C :   -0.046923
  26 H :    0.032155
  27 H :    0.033526
  28 C :   -0.061357
  29 H :    0.013827
  30 H :    0.052519
  31 H :    0.021389
  32 H :    0.036133
  33 H :    0.081149
Sum of atomic charges:    0.0000000

LOEWDIN ATOMIC CHARGES
----------------------
   0 S :    0.410047
   1 C :   -0.192867
   2 C :   -0.057619
   3 C :   -0.060228
   4 C :   -0.205125
   5 H :    0.035880
   6 C :   -0.028650
   7 H :    0.028255
   8 H :    0.028126
   9 C :   -0.044456
  10 H :    0.016557
  11 H :    0.024351
  12 C :   -0.070060
  13 H :    0.032421
  14 H :    0.029467
  15 H :    0.025879
  16 S :    0.407078
  17 C :   -0.206046
  18 C :   -0.075481
  19 C :   -0.046895
  20 C :   -0.199700
  21 H :    0.019490
  22 C :   -0.027182
  23 H :    0.038476
  24 H :    0.034548
  25 C :   -0.036262
  26 H :    0.022930
  27 H :    0.027229
  28 C :   -0.064576
  29 H :    0.023832
  30 H :    0.028948
  31 H :    0.018237
  32 H :    0.022998
  33 H :    0.040397

  Mayer bond orders larger than 0.100000
B(  0-S ,  1-C ) :   1.1390 B(  0-S ,  4-C ) :   1.1494 B(  1-C ,  2-C ) :   1.6182
B(  1-C , 32-H ) :   0.9662 B(  2-C ,  3-C ) :   1.2470 B(  2-C ,  6-C ) :   1.0162
B(  3-C ,  4-C ) :   1.5734 B(  3-C ,  5-H ) :   0.9823 B(  4-C , 20-C ) :   1.0402
B(  6-C ,  7-H ) :   0.9334 B(  6-C ,  8-H ) :   0.9427 B(  6-C ,  9-C ) :   1.0689
B(  9-C , 10-H ) :   0.9481 B(  9-C , 11-H ) :   0.9596 B(  9-C , 12-C ) :   1.0732
B( 12-C , 13-H ) :   0.9758 B( 12-C , 14-H ) :   0.9764 B( 12-C , 15-H ) :   0.9742
B( 16-S , 17-C ) :   1.1801 B( 16-S , 20-C ) :   1.1308 B( 17-C , 18-C ) :   1.6009
B( 17-C , 33-H ) :   0.9573 B( 18-C , 19-C ) :   1.2089 B( 18-C , 21-H ) :   1.0021
B( 19-C , 20-C ) :   1.6255 B( 19-C , 22-C ) :   1.0127 B( 22-C , 23-H ) :   0.9282
B( 22-C , 24-H ) :   0.9401 B( 22-C , 25-C ) :   1.0725 B( 25-C , 26-H ) :   0.9558
B( 25-C , 27-H ) :   0.9552 B( 25-C , 28-C ) :   1.0644 B( 28-C , 29-H ) :   0.9738
B( 28-C , 30-H ) :   0.9756 B( 28-C , 31-H ) :   0.9711

Dispersion correction           -0.014812267
FINAL SINGLE POINT ENERGY     -1339.871143649242

DIPOLE MOMENT
-------------
                                X             Y             Z
Electronic contribution:    -25.57085      -5.22560      -8.50359
Nuclear contribution   :     26.03290       5.29232       8.83446
                        -----------------------------------------
Total Dipole Moment    :      0.46205       0.06672       0.33088
                        -----------------------------------------
Magnitude (a.u.)       :      0.57221
Magnitude (Debye)      :      1.45443

Rotational constants in cm-1:     0.017372     0.008595     0.007308
Rotational constants in MHz :   520.800744   257.657330   219.076656

                             ****ORCA TERMINATED NORMALLY****
TOTAL RUN TIME: 0 days 0 hours 0 minutes 35 seconds 668 msec
