                         Program Version 4.2.1 -  RELEASE  -
|  1> ! wB97X-D3 SP def2-SVP
|  2> %pal
|  3> nprocs 16
|  4> end
|  5>
|  6> * xyz 0 1
|  7> S 	 -111.369 	 53.6704 	 115.146
|  8> C 	 -110.461 	 52.7624 	 116.361
|  9> C 	 -109.941 	 53.6146 	 117.317
| 10> C 	 -110.233 	 55.0178 	 117.095
| 11> C 	 -111.028 	 55.1999 	 115.978
| 12> H 	 -109.739 	 55.7835 	 117.604
| 13> C 	 -109.139 	 53.0921 	 118.492
| 14> H 	 -109.634 	 52.3638 	 119.062
| 15> H 	 -109.087 	 53.9706 	 119.1
| 16> C 	 -107.654 	 52.7001 	 118.195
| 17> H 	 -107.112 	 52.6198 	 119.148
| 18> H 	 -107.612 	 51.7033 	 117.672
| 19> C 	 -106.781 	 53.6367 	 117.256
| 20> H 	 -107.176 	 53.3634 	 116.256
| 21> H 	 -107.074 	 54.6123 	 117.552
| 22> H 	 -105.683 	 53.4624 	 117.345
| 23> S 	 -111.836 	 56.5675 	 113.712
| 24> C 	 -112.524 	 58.1567 	 113.899
| 25> C 	 -112.33 	 58.5682 	 115.14
| 26> C 	 -111.903 	 57.5602 	 116.089
| 27> C 	 -111.573 	 56.448 	 115.416
| 28> H 	 -112.758 	 59.5811 	 115.348
| 29> C 	 -112.116 	 57.7856 	 117.553
| 30> H 	 -112.374 	 56.8452 	 118.046
| 31> H 	 -113.112 	 58.2782 	 117.653
| 32> C 	 -111.14 	 58.5412 	 118.344
| 33> H 	 -110.176 	 57.9719 	 118.249
| 34> H 	 -111.514 	 58.5277 	 119.398
| 35> C 	 -111.06 	 59.9587 	 117.921
| 36> H 	 -110.36 	 59.9377 	 117.114
| 37> H 	 -110.671 	 60.6583 	 118.727
| 38> H 	 -112.001 	 60.4757 	 117.538
| 39> H 	 -110.383 	 51.7152 	 116.312
| 40> H 	 -113.13 	 58.7353 	 113.166
| 41> *
| 42>
| 43>                          ****END OF INPUT****

CARTESIAN COORDINATES (ANGSTROEM)
---------------------------------
  S    -111.369000   53.670400  115.146000
  C    -110.461000   52.762400  116.361000
  C    -109.941000   53.614600  117.317000
  C    -110.233000   55.017800  117.095000
  C    -111.028000   55.199900  115.978000
  H    -109.739000   55.783500  117.604000
  C    -109.139000   53.092100  118.492000
  H    -109.634000   52.363800  119.062000
  H    -109.087000   53.970600  119.100000
  C    -107.654000   52.700100  118.195000
  H    -107.112000   52.619800  119.148000
  H    -107.612000   51.703300  117.672000
  C    -106.781000   53.636700  117.256000
  H    -107.176000   53.363400  116.256000
  H    -107.074000   54.612300  117.552000
  H    -105.683000   53.462400  117.345000
  S    -111.836000   56.567500  113.712000
  C    -112.524000   58.156700  113.899000
  C    -112.330000   58.568200  115.140000
  C    -111.903000   57.560200  116.089000
  C    -111.573000   56.448000  115.416000
  H    -112.758000   59.581100  115.348000
  C    -112.116000   57.785600  117.553000
  H    -112.374000   56.845200  118.046000
  H    -113.112000   58.278200  117.653000
  C    -111.140000   58.541200  118.344000
  H    -110.176000   57.971900  118.249000
  H    -111.514000   58.527700  119.398000
  C    -111.060000   59.958700  117.921000
  H    -110.360000   59.937700  117.114000
  H    -110.671000   60.658300  118.727000
  H    -112.001000   60.475700  117.538000
  H    -110.383000   51.715200  116.312000
  H    -113.130000   58.735300  113.166000

 Total Charge           Charge          ....    0
 Multiplicity           Mult            ....    1
 Number of Electrons    NEL             ....  134
 Basis Dimension        Dim             ....  322

ORBITAL ENERGIES
----------------

  NO   OCC          E(Eh)            E(eV)
   0   2.0000     -88.965102     -2420.8635
   1   2.0000     -88.961684     -2420.7705
   2   2.0000     -10.334928      -281.2277
   3   2.0000     -10.323772      -280.9241
   4   2.0000     -10.313224      -280.6371
   5   2.0000     -10.312808      -280.6258
   6   2.0000     -10.303652      -280.3766
   7   2.0000     -10.298710      -280.2421
   8   2.0000     -10.296684      -280.1870
   9   2.0000     -10.292175      -280.0643
  10   2.0000     -10.289830      -280.0005
  11   2.0000     -10.288963      -279.9769
  12   2.0000     -10.287836      -279.9462
  13   2.0000     -10.287200      -279.9289
  14   2.0000     -10.280880      -279.7570
  15   2.0000     -10.280167      -279.7376
  16   2.0000      -8.079355      -219.8504
  17   2.0000      -8.077532      -219.8008
  18   2.0000      -6.037908      -164.2998
  19   2.0000      -6.036171      -164.2526
  20   2.0000      -6.033913      -164.1911
  21   2.0000      -6.032068      -164.1409
  22   2.0000      -6.030124      -164.0880
  23   2.0000      -6.027886      -164.0271
  24   2.0000      -1.014454       -27.6047
  25   2.0000      -0.985021       -26.8038
  26   2.0000      -0.925771       -25.1915
  27   2.0000      -0.906052       -24.6549
  28   2.0000      -0.870645       -23.6915
  29   2.0000      -0.853051       -23.2127
  30   2.0000      -0.841602       -22.9011
  31   2.0000      -0.820580       -22.3291
  32   2.0000      -0.786528       -21.4025
  33   2.0000      -0.777090       -21.1457
  34   2.0000      -0.708261       -19.2728
  35   2.0000      -0.695231       -18.9182
  36   2.0000      -0.688039       -18.7225
  37   2.0000      -0.661407       -17.9978
  38   2.0000      -0.641614       -17.4592
  39   2.0000      -0.618964       -16.8429
  40   2.0000      -0.601962       -16.3802
  41   2.0000      -0.568115       -15.4592
  42   2.0000      -0.560526       -15.2527
  43   2.0000      -0.553454       -15.0603
  44   2.0000      -0.546395       -14.8682
  45   2.0000      -0.539880       -14.6909
  46   2.0000      -0.521695       -14.1960
  47   2.0000      -0.517172       -14.0730
  48   2.0000      -0.504352       -13.7241
  49   2.0000      -0.499741       -13.5986
  50   2.0000      -0.490110       -13.3366
  51   2.0000      -0.485604       -13.2139
  52   2.0000      -0.474983       -12.9249
  53   2.0000      -0.466123       -12.6838
  54   2.0000      -0.463235       -12.6053
  55   2.0000      -0.447210       -12.1692
  56   2.0000      -0.441187       -12.0053
  57   2.0000      -0.431058       -11.7297
  58   2.0000      -0.429593       -11.6898
  59   2.0000      -0.419126       -11.4050
  60   2.0000      -0.411347       -11.1933
  61   2.0000      -0.408438       -11.1142
  62   2.0000      -0.407506       -11.0888
  63   2.0000      -0.359101        -9.7716
  64   2.0000      -0.333026        -9.0621
  65   2.0000      -0.328973        -8.9518
  66   2.0000      -0.293300        -7.9811
  67   0.0000       0.024286         0.6609
  68   0.0000       0.086223         2.3463
  69   0.0000       0.100681         2.7397
  70   0.0000       0.119415         3.2495
  71   0.0000       0.129440         3.5222

MULLIKEN ATOMIC CHARGES
-----------------------
   0 S :    0.089050
   1 C :   -0.104091
   2 C :   -0.125833
   3 C :    0.042110
   4 C :   -0.119556
   5 H :   -0.009790
   6 C :    0.126937
   7 H :    0.031643
   8 H :    0.000554
   9 C :   -0.134933
  10 H :    0.034573
  11 H :    0.032392
  12 C :   -0.050096
  13 H :    0.050764
  14 H :    0.018353
  15 H :    0.054520
  16 S :    0.096346
  17 C :   -0.105110
  18 C :   -0.039957
  19 C :   -0.047043
  20 C :   -0.111722
  21 H :    0.026722
  22 C :    0.017197
  23 H :    0.025225
  24 H :    0.024844
  25 C :   -0.036286
  26 H :    0.036382
  27 H :    0.033625
  28 C :   -0.077883
  29 H :    0.032459
  30 H :    0.044249
  31 H :    0.038806
  32 H :    0.034565
  33 H :    0.070986
Sum of atomic charges:   -0.0000000

LOEWDIN ATOMIC CHARGES
----------------------
   0 S :    0.383410
   1 C :   -0.180484
   2 C :   -0.058417
   3 C :   -0.060306
   4 C :   -0.166311
   5 H :    0.020632
   6 C :   -0.028077
   7 H :    0.028861
   8 H :    0.025924
   9 C :   -0.042700
  10 H :    0.021091
  11 H :    0.021370
  12 C :   -0.065144
  13 H :    0.032758
  14 H :    0.014082
  15 H :    0.033985
  16 S :    0.395636
  17 C :   -0.189730
  18 C :   -0.076637
  19 C :   -0.064297
  20 C :   -0.195701
  21 H :    0.036156
  22 C :   -0.040345
  23 H :    0.032901
  24 H :    0.035472
  25 C :   -0.047662
  26 H :    0.028350
  27 H :    0.030783
  28 C :   -0.076026
  29 H :    0.024515
  30 H :    0.032830
  31 H :    0.030285
  32 H :    0.018553
  33 H :    0.044244

  Mayer bond orders larger than 0.100000
B(  0-S ,  1-C ) :   1.1233 B(  0-S ,  4-C ) :   1.1524 B(  1-C ,  2-C ) :   1.6122
B(  1-C , 32-H ) :   0.9834 B(  2-C ,  3-C ) :   1.2344 B(  2-C ,  6-C ) :   1.0173
B(  3-C ,  4-C ) :   1.5740 B(  3-C ,  5-H ) :   0.9941 B(  4-C , 20-C ) :   1.0378
B(  6-C ,  7-H ) :   0.9457 B(  6-C ,  8-H ) :   0.9295 B(  6-C ,  9-C ) :   1.0608
B(  9-C , 10-H ) :   0.9620 B(  9-C , 11-H ) :   0.9648 B(  9-C , 12-C ) :   1.0606
B( 12-C , 13-H ) :   0.9750 B( 12-C , 14-H ) :   0.9805 B( 12-C , 15-H ) :   0.9763
B( 16-S , 17-C ) :   1.1139 B( 16-S , 20-C ) :   1.1242 B( 17-C , 18-C ) :   1.7006
B( 17-C , 33-H ) :   0.9583 B( 18-C , 19-C ) :   1.1833 B( 18-C , 21-H ) :   0.9726
B( 19-C , 20-C ) :   1.6599 B( 19-C , 22-C ) :   1.0273 B( 22-C , 23-H ) :   0.9290
B( 22-C , 24-H ) :   0.9348 B( 22-C , 25-C ) :   1.0946 B( 25-C , 26-H ) :   0.9470
B( 25-C , 27-H ) :   0.9460 B( 25-C , 28-C ) :   1.0767 B( 28-C , 29-H ) :   0.9700
B( 28-C , 30-H ) :   0.9717 B( 28-C , 31-H ) :   0.9708

Dispersion correction           -0.014876543
FINAL SINGLE POINT ENERGY     -1339.863736218883

DIPOLE MOMENT
-------------
                                X             Y             Z
Electronic contribution:    -13.69557      -6.65222     -21.10286
Nuclear contribution   :     13.71301       6.88857      21.69045
                        -----------------------------------------
Total Dipole Moment    :      0.01743       0.23635       0.58759
                        -----------------------------------------
Magnitude (a.u.)       :      0.63358
Magnitude (Debye)      :      1.61043

Rotational constants in cm-1:     0.019422     0.008973     0.006887
Rotational constants in MHz :   582.248933   268.996472   206.478312

                             ****ORCA TERMINATED NORMALLY****
TOTAL RUN TIME: 0 days 0 hours 0 minutes 36 seconds 505 msec
