                         Program Version 4.2.1 -  RELEASE  -
|  1> ! wB97X-D3 SP def2-SVP
|  2> %pal
|  3> nprocs 16
|  4> end
|  5>
|  6> * xyz 0 1
|  7> S 	 -99.1229 	 55.7346 	 114.814
|  8> C 	 -97.4567 	 56.259 	 115.083
|  9> C 	 -97.1351 	 56.3023 	 116.472
| 10> C 	 -98.2112 	 55.856 	 117.281
| 11> C 	 -99.3485 	 55.5702 	 116.594
| 12> H 	 -98.3051 	 55.8955 	 118.402
| 13> C 	 -95.8563 	 56.8713 	 117.113
| 14> H 	 -94.9275 	 56.6857 	 116.545
| 15> H 	 -95.7214 	 56.3283 	 117.998
| 16> C 	 -96.1781 	 58.2671 	 117.716
| 17> H 	 -96.9918 	 58.2268 	 118.47
| 18> H 	 -95.2393 	 58.6221 	 118.212
| 19> C 	 -96.3513 	 59.3896 	 116.606
| 20> H 	 -95.6784 	 59.3154 	 115.666
| 21> H 	 -97.3379 	 59.2757 	 116.242
| 22> H 	 -96.1579 	 60.3929 	 117.002
| 23> S 	 -101.298 	 53.6482 	 116.311
| 24> C 	 -102.617 	 53.573 	 117.485
| 25> C 	 -102.441 	 54.4834 	 118.575
| 26> C 	 -101.23 	 55.2099 	 118.368
| 27> C 	 -100.569 	 55.0044 	 117.143
| 28> H 	 -103.058 	 54.5132 	 119.46
| 29> C 	 -100.777 	 56.2841 	 119.38
| 30> H 	 -101.727 	 56.8034 	 119.696
| 31> H 	 -100.207 	 57.0096 	 118.871
| 32> C 	 -100.019 	 55.8259 	 120.614
| 33> H 	 -99.1121 	 55.2133 	 120.27
| 34> H 	 -100.521 	 55.0532 	 121.26
| 35> C 	 -99.7359 	 57.0318 	 121.501
| 36> H 	 -99.1113 	 57.7956 	 120.949
| 37> H 	 -99.1848 	 56.808 	 122.393
| 38> H 	 -100.613 	 57.5484 	 121.838
| 39> H 	 -96.8259 	 56.6455 	 114.276
| 40> H 	 -103.466 	 52.8468 	 117.473
| 41> *
| 42>
| 43>                          ****END OF INPUT****

CARTESIAN COORDINATES (ANGSTROEM)
---------------------------------
  S    -99.122900   55.734600  114.814000
  C    -97.456700   56.259000  115.083000
  C    -97.135100   56.302300  116.472000
  C    -98.211200   55.856000  117.281000
  C    -99.348500   55.570200  116.594000
  H    -98.305100   55.895500  118.402000
  C    -95.856300   56.871300  117.113000
  H    -94.927500   56.685700  116.545000
  H    -95.721400   56.328300  117.998000
  C    -96.178100   58.267100  117.716000
  H    -96.991800   58.226800  118.470000
  H    -95.239300   58.622100  118.212000
  C    -96.351300   59.389600  116.606000
  H    -95.678400   59.315400  115.666000
  H    -97.337900   59.275700  116.242000
  H    -96.157900   60.392900  117.002000
  S    -101.298000   53.648200  116.311000
  C    -102.617000   53.573000  117.485000
  C    -102.441000   54.483400  118.575000
  C    -101.230000   55.209900  118.368000
  C    -100.569000   55.004400  117.143000
  H    -103.058000   54.513200  119.460000
  C    -100.777000   56.284100  119.380000
  H    -101.727000   56.803400  119.696000
  H    -100.207000   57.009600  118.871000
  C    -100.019000   55.825900  120.614000
  H    -99.112100   55.213300  120.270000
  H    -100.521000   55.053200  121.260000
  C    -99.735900   57.031800  121.501000
  H    -99.111300   57.795600  120.949000
  H    -99.184800   56.808000  122.393000
  H    -100.613000   57.548400  121.838000
  H    -96.825900   56.645500  114.276000
  H    -103.466000   52.846800  117.473000

 Total Charge           Charge          ....    0
 Multiplicity           Mult            ....    1
 Number of Electrons    NEL             ....  134
 Basis Dimension        Dim             ....  322

ORBITAL ENERGIES
----------------

  NO   OCC          E(Eh)            E(eV)
   0   2.0000     -88.970654     -2421.0146
   1   2.0000     -88.969375     -2420.9798
   2   2.0000     -10.332467      -281.1607
   3   2.0000     -10.328105      -281.0420
   4   2.0000     -10.327632      -281.0291
   5   2.0000     -10.321982      -280.8754
   6   2.0000     -10.309174      -280.5269
   7   2.0000     -10.305681      -280.4318
   8   2.0000     -10.301456      -280.3169
   9   2.0000     -10.300166      -280.2818
  10   2.0000     -10.298981      -280.2495
  11   2.0000     -10.297050      -280.1970
  12   2.0000     -10.294242      -280.1206
  13   2.0000     -10.292231      -280.0658
  14   2.0000     -10.282356      -279.7971
  15   2.0000     -10.280731      -279.7529
  16   2.0000      -8.084621      -219.9937
  17   2.0000      -8.082910      -219.9472
  18   2.0000      -6.043120      -164.4417
  19   2.0000      -6.041488      -164.3973
  20   2.0000      -6.039171      -164.3342
  21   2.0000      -6.037680      -164.2936
  22   2.0000      -6.035499      -164.2343
  23   2.0000      -6.033579      -164.1820
  24   2.0000      -1.002199       -27.2712
  25   2.0000      -0.976835       -26.5810
  26   2.0000      -0.911394       -24.8003
  27   2.0000      -0.905940       -24.6519
  28   2.0000      -0.864450       -23.5229
  29   2.0000      -0.853015       -23.2117
  30   2.0000      -0.841374       -22.8950
  31   2.0000      -0.808860       -22.0102
  32   2.0000      -0.782540       -21.2940
  33   2.0000      -0.769238       -20.9320
  34   2.0000      -0.704650       -19.1745
  35   2.0000      -0.695283       -18.9196
  36   2.0000      -0.692035       -18.8312
  37   2.0000      -0.664536       -18.0829
  38   2.0000      -0.640568       -17.4307
  39   2.0000      -0.619571       -16.8594
  40   2.0000      -0.593589       -16.1524
  41   2.0000      -0.566737       -15.4217
  42   2.0000      -0.561628       -15.2827
  43   2.0000      -0.541253       -14.7283
  44   2.0000      -0.538644       -14.6572
  45   2.0000      -0.524365       -14.2687
  46   2.0000      -0.514955       -14.0126
  47   2.0000      -0.513671       -13.9777
  48   2.0000      -0.502653       -13.6779
  49   2.0000      -0.495878       -13.4935
  50   2.0000      -0.489446       -13.3185
  51   2.0000      -0.478168       -13.0116
  52   2.0000      -0.474914       -12.9231
  53   2.0000      -0.461741       -12.5646
  54   2.0000      -0.460974       -12.5437
  55   2.0000      -0.453360       -12.3366
  56   2.0000      -0.444078       -12.0840
  57   2.0000      -0.442827       -12.0499
  58   2.0000      -0.436483       -11.8773
  59   2.0000      -0.423564       -11.5258
  60   2.0000      -0.417603       -11.3636
  61   2.0000      -0.413082       -11.2405
  62   2.0000      -0.404445       -11.0055
  63   2.0000      -0.353479        -9.6186
  64   2.0000      -0.333322        -9.0701
  65   2.0000      -0.330216        -8.9856
  66   2.0000      -0.283091        -7.7033
  67   0.0000       0.021614         0.5882
  68   0.0000       0.068619         1.8672
  69   0.0000       0.099754         2.7144
  70   0.0000       0.115812         3.1514
  71   0.0000       0.118594         3.2271

MULLIKEN ATOMIC CHARGES
-----------------------
   0 S :    0.102329
   1 C :   -0.130802
   2 C :   -0.087960
   3 C :    0.001585
   4 C :   -0.147573
   5 H :    0.020029
   6 C :    0.104302
   7 H :    0.041236
   8 H :    0.008477
   9 C :   -0.117978
  10 H :    0.049933
  11 H :    0.038379
  12 C :   -0.074740
  13 H :    0.037131
  14 H :    0.038232
  15 H :    0.039227
  16 S :    0.114860
  17 C :   -0.114800
  18 C :   -0.018919
  19 C :   -0.044473
  20 C :   -0.121804
  21 H :    0.024774
  22 C :    0.021648
  23 H :    0.029933
  24 H :    0.016643
  25 C :   -0.095725
  26 H :    0.042680
  27 H :    0.032716
  28 C :   -0.031068
  29 H :    0.027902
  30 H :    0.030833
  31 H :    0.028961
  32 H :    0.060256
  33 H :    0.073778
Sum of atomic charges:   -0.0000000

LOEWDIN ATOMIC CHARGES
----------------------
   0 S :    0.376854
   1 C :   -0.198275
   2 C :   -0.056165
   3 C :   -0.070490
   4 C :   -0.174922
   5 H :    0.041880
   6 C :   -0.030982
   7 H :    0.036643
   8 H :    0.025611
   9 C :   -0.037832
  10 H :    0.028855
  11 H :    0.027438
  12 C :   -0.074779
  13 H :    0.033705
  14 H :    0.017966
  15 H :    0.024445
  16 S :    0.410291
  17 C :   -0.189135
  18 C :   -0.067077
  19 C :   -0.057225
  20 C :   -0.203766
  21 H :    0.034201
  22 C :   -0.035539
  23 H :    0.035573
  24 H :    0.019851
  25 C :   -0.052659
  26 H :    0.028479
  27 H :    0.028387
  28 C :   -0.065680
  29 H :    0.028267
  30 H :    0.023666
  31 H :    0.024618
  32 H :    0.031020
  33 H :    0.036778

  Mayer bond orders larger than 0.100000
B(  0-S ,  1-C ) :   1.1322 B(  0-S ,  4-C ) :   1.1307 B(  1-C ,  2-C ) :   1.5970
B(  1-C ,  4-C ) :   0.1010 B(  1-C , 32-H ) :   0.9685 B(  2-C ,  3-C ) :   1.2350
B(  2-C ,  6-C ) :   1.0250 B(  3-C ,  4-C ) :   1.5958 B(  3-C ,  5-H ) :   0.9697
B(  4-C , 20-C ) :   1.0574 B(  6-C ,  7-H ) :   0.9496 B(  6-C ,  8-H ) :   0.9293
B(  6-C ,  9-C ) :   1.0624 B(  9-C , 10-H ) :   0.9574 B(  9-C , 11-H ) :   0.9617
B(  9-C , 12-C ) :   1.0503 B( 12-C , 13-H ) :   0.9772 B( 12-C , 14-H ) :   0.9790
B( 12-C , 15-H ) :   0.9800 B( 16-S , 17-C ) :   1.1702 B( 16-S , 20-C ) :   1.1362
B( 17-C , 18-C ) :   1.5657 B( 17-C , 20-C ) :   0.1040 B( 17-C , 33-H ) :   0.9618
B( 18-C , 19-C ) :   1.2793 B( 18-C , 21-H ) :   0.9902 B( 19-C , 20-C ) :   1.5667
B( 19-C , 22-C ) :   1.0355 B( 22-C , 23-H ) :   0.9402 B( 22-C , 24-H ) :   0.9414
B( 22-C , 25-C ) :   1.0525 B( 25-C , 26-H ) :   0.9457 B( 25-C , 27-H ) :   0.9513
B( 25-C , 28-C ) :   1.0757 B( 28-C , 29-H ) :   0.9726 B( 28-C , 30-H ) :   0.9732
B( 28-C , 31-H ) :   0.9721

Dispersion correction           -0.015035699
FINAL SINGLE POINT ENERGY     -1339.867441509187

DIPOLE MOMENT
-------------
                                X             Y             Z
Electronic contribution:    -13.41433     -18.64811     -21.20685
Nuclear contribution   :     13.64295      18.93792      21.90961
                        -----------------------------------------
Total Dipole Moment    :      0.22862       0.28981       0.70276
                        -----------------------------------------
Magnitude (a.u.)       :      0.79380
Magnitude (Debye)      :      2.01769

Rotational constants in cm-1:     0.017350     0.010227     0.006896
Rotational constants in MHz :   520.152396   306.601373   206.738910

                             ****ORCA TERMINATED NORMALLY****
TOTAL RUN TIME: 0 days 0 hours 0 minutes 33 seconds 551 msec
