                         Program Version 4.2.1 -  RELEASE  -
|  1> ! wB97X-D3 SP def2-SVP
|  2> %pal
|  3> nprocs 16
|  4> end
|  5>
|  6> * xyz 0 1
|  7> S 	 -38.6942 	 58.4473 	 114.367
|  8> C 	 -40.3673 	 58.8024 	 114.019
|  9> C 	 -40.7712 	 58.0995 	 112.909
| 10> C 	 -39.7544 	 57.2897 	 112.318
| 11> C 	 -38.6391 	 57.2492 	 113.069
| 12> H 	 -39.6717 	 56.6738 	 111.439
| 13> C 	 -42.1921 	 57.9785 	 112.311
| 14> H 	 -43.0114 	 58.3981 	 112.915
| 15> H 	 -42.5493 	 56.94 	 112.325
| 16> C 	 -42.4259 	 58.3572 	 110.822
| 17> H 	 -42.2398 	 57.4237 	 110.189
| 18> H 	 -43.4887 	 58.4554 	 110.773
| 19> C 	 -41.6251 	 59.436 	 110.212
| 20> H 	 -41.7778 	 60.3748 	 110.772
| 21> H 	 -40.6374 	 59.1241 	 109.93
| 22> H 	 -42.094 	 59.5861 	 109.273
| 23> S 	 -35.9786 	 57.3779 	 112.761
| 24> C 	 -35.0929 	 55.8933 	 112.388
| 25> C 	 -35.9445 	 54.7695 	 112.403
| 26> C 	 -37.2834 	 55.1356 	 112.514
| 27> C 	 -37.4633 	 56.5031 	 112.695
| 28> H 	 -35.5495 	 53.7811 	 112.307
| 29> C 	 -38.3515 	 54.0448 	 112.631
| 30> H 	 -37.9392 	 53.1848 	 112.072
| 31> H 	 -39.1987 	 54.403 	 112.078
| 32> C 	 -38.61 	 53.7191 	 114.083
| 33> H 	 -39.0441 	 54.6025 	 114.422
| 34> H 	 -37.6835 	 53.6198 	 114.646
| 35> C 	 -39.5834 	 52.5033 	 114.228
| 36> H 	 -40.5848 	 52.6545 	 113.636
| 37> H 	 -39.7843 	 52.351 	 115.26
| 38> H 	 -39.0746 	 51.5739 	 113.898
| 39> H 	 -40.9402 	 59.3245 	 114.704
| 40> H 	 -34.0128 	 55.8076 	 112.381
| 41> *
| 42>
| 43>                          ****END OF INPUT****

CARTESIAN COORDINATES (ANGSTROEM)
---------------------------------
  S    -38.694200   58.447300  114.367000
  C    -40.367300   58.802400  114.019000
  C    -40.771200   58.099500  112.909000
  C    -39.754400   57.289700  112.318000
  C    -38.639100   57.249200  113.069000
  H    -39.671700   56.673800  111.439000
  C    -42.192100   57.978500  112.311000
  H    -43.011400   58.398100  112.915000
  H    -42.549300   56.940000  112.325000
  C    -42.425900   58.357200  110.822000
  H    -42.239800   57.423700  110.189000
  H    -43.488700   58.455400  110.773000
  C    -41.625100   59.436000  110.212000
  H    -41.777800   60.374800  110.772000
  H    -40.637400   59.124100  109.930000
  H    -42.094000   59.586100  109.273000
  S    -35.978600   57.377900  112.761000
  C    -35.092900   55.893300  112.388000
  C    -35.944500   54.769500  112.403000
  C    -37.283400   55.135600  112.514000
  C    -37.463300   56.503100  112.695000
  H    -35.549500   53.781100  112.307000
  C    -38.351500   54.044800  112.631000
  H    -37.939200   53.184800  112.072000
  H    -39.198700   54.403000  112.078000
  C    -38.610000   53.719100  114.083000
  H    -39.044100   54.602500  114.422000
  H    -37.683500   53.619800  114.646000
  C    -39.583400   52.503300  114.228000
  H    -40.584800   52.654500  113.636000
  H    -39.784300   52.351000  115.260000
  H    -39.074600   51.573900  113.898000
  H    -40.940200   59.324500  114.704000
  H    -34.012800   55.807600  112.381000

 Total Charge           Charge          ....    0
 Multiplicity           Mult            ....    1
 Number of Electrons    NEL             ....  134
 Basis Dimension        Dim             ....  322

ORBITAL ENERGIES
----------------

  NO   OCC          E(Eh)            E(eV)
   0   2.0000     -88.968471     -2420.9552
   1   2.0000     -88.963178     -2420.8111
   2   2.0000     -10.323296      -280.9112
   3   2.0000     -10.320976      -280.8480
   4   2.0000     -10.318787      -280.7885
   5   2.0000     -10.311267      -280.5838
   6   2.0000     -10.306571      -280.4561
   7   2.0000     -10.298336      -280.2320
   8   2.0000     -10.292280      -280.0672
   9   2.0000     -10.290787      -280.0266
  10   2.0000     -10.287811      -279.9456
  11   2.0000     -10.287099      -279.9262
  12   2.0000     -10.285787      -279.8905
  13   2.0000     -10.284250      -279.8487
  14   2.0000     -10.279183      -279.7108
  15   2.0000     -10.267875      -279.4031
  16   2.0000      -8.083208      -219.9553
  17   2.0000      -8.078098      -219.8162
  18   2.0000      -6.041600      -164.4003
  19   2.0000      -6.037744      -164.2954
  20   2.0000      -6.036658      -164.2658
  21   2.0000      -6.034071      -164.1954
  22   2.0000      -6.032650      -164.1568
  23   2.0000      -6.028725      -164.0499
  24   2.0000      -1.011938       -27.5362
  25   2.0000      -0.985910       -26.8280
  26   2.0000      -0.911637       -24.8069
  27   2.0000      -0.908030       -24.7087
  28   2.0000      -0.875478       -23.8230
  29   2.0000      -0.853434       -23.2231
  30   2.0000      -0.845525       -23.0079
  31   2.0000      -0.814261       -22.1572
  32   2.0000      -0.785254       -21.3678
  33   2.0000      -0.771771       -21.0010
  34   2.0000      -0.707419       -19.2499
  35   2.0000      -0.696341       -18.9484
  36   2.0000      -0.690902       -18.8004
  37   2.0000      -0.667433       -18.1618
  38   2.0000      -0.649220       -17.6662
  39   2.0000      -0.616956       -16.7882
  40   2.0000      -0.592784       -16.1305
  41   2.0000      -0.566745       -15.4219
  42   2.0000      -0.558499       -15.1975
  43   2.0000      -0.556341       -15.1388
  44   2.0000      -0.538100       -14.6424
  45   2.0000      -0.529491       -14.4082
  46   2.0000      -0.520276       -14.1574
  47   2.0000      -0.513238       -13.9659
  48   2.0000      -0.505795       -13.7634
  49   2.0000      -0.497318       -13.5327
  50   2.0000      -0.486978       -13.2513
  51   2.0000      -0.481551       -13.1037
  52   2.0000      -0.472827       -12.8663
  53   2.0000      -0.463764       -12.6197
  54   2.0000      -0.461755       -12.5650
  55   2.0000      -0.449835       -12.2406
  56   2.0000      -0.446123       -12.1396
  57   2.0000      -0.441853       -12.0234
  58   2.0000      -0.430450       -11.7131
  59   2.0000      -0.422005       -11.4833
  60   2.0000      -0.416298       -11.3281
  61   2.0000      -0.411834       -11.2066
  62   2.0000      -0.400458       -10.8970
  63   2.0000      -0.351434        -9.5630
  64   2.0000      -0.335818        -9.1381
  65   2.0000      -0.326681        -8.8894
  66   2.0000      -0.289102        -7.8669
  67   0.0000       0.029582         0.8050
  68   0.0000       0.068160         1.8547
  69   0.0000       0.109347         2.9755
  70   0.0000       0.119479         3.2512
  71   0.0000       0.131519         3.5788

MULLIKEN ATOMIC CHARGES
-----------------------
   0 S :    0.092244
   1 C :   -0.100859
   2 C :   -0.016366
   3 C :    0.009544
   4 C :   -0.135716
   5 H :    0.018711
   6 C :    0.046169
   7 H :    0.013414
   8 H :    0.028046
   9 C :   -0.133255
  10 H :    0.021904
  11 H :    0.020586
  12 C :    0.030503
  13 H :    0.037596
  14 H :    0.032621
  15 H :    0.012189
  16 S :    0.114829
  17 C :   -0.097890
  18 C :   -0.037127
  19 C :   -0.064355
  20 C :   -0.182425
  21 H :    0.013449
  22 C :    0.099134
  23 H :    0.014533
  24 H :    0.008641
  25 C :   -0.037612
  26 H :    0.016573
  27 H :    0.028955
  28 C :   -0.049524
  29 H :    0.049413
  30 H :    0.030379
  31 H :    0.033577
  32 H :    0.026690
  33 H :    0.055429
Sum of atomic charges:    0.0000000

LOEWDIN ATOMIC CHARGES
----------------------
   0 S :    0.384148
   1 C :   -0.181420
   2 C :   -0.054721
   3 C :   -0.064813
   4 C :   -0.184138
   5 H :    0.034898
   6 C :   -0.044473
   7 H :    0.025683
   8 H :    0.035605
   9 C :   -0.048848
  10 H :    0.025292
  11 H :    0.021492
  12 C :   -0.064166
  13 H :    0.031666
  14 H :    0.028379
  15 H :    0.026512
  16 S :    0.419506
  17 C :   -0.183676
  18 C :   -0.064210
  19 C :   -0.058877
  20 C :   -0.210077
  21 H :    0.029857
  22 C :   -0.024439
  23 H :    0.026859
  24 H :    0.022969
  25 C :   -0.034010
  26 H :    0.019516
  27 H :    0.027902
  28 C :   -0.068561
  29 H :    0.039067
  30 H :    0.019546
  31 H :    0.026159
  32 H :    0.015307
  33 H :    0.026064

  Mayer bond orders larger than 0.100000
B(  0-S ,  1-C ) :   1.1186 B(  0-S ,  4-C ) :   1.1244 B(  1-C ,  2-C ) :   1.6296
B(  1-C , 32-H ) :   0.9831 B(  2-C ,  3-C ) :   1.1754 B(  2-C ,  6-C ) :   1.0227
B(  3-C ,  4-C ) :   1.6275 B(  3-C ,  5-H ) :   0.9936 B(  4-C , 20-C ) :   1.0506
B(  6-C ,  7-H ) :   0.9497 B(  6-C ,  8-H ) :   0.9451 B(  6-C ,  9-C ) :   1.0590
B(  9-C , 10-H ) :   0.9524 B(  9-C , 11-H ) :   0.9565 B(  9-C , 12-C ) :   1.1071
B( 12-C , 13-H ) :   0.9718 B( 12-C , 14-H ) :   0.9629 B( 12-C , 15-H ) :   0.9613
B( 16-S , 17-C ) :   1.1637 B( 16-S , 20-C ) :   1.1556 B( 17-C , 18-C ) :   1.5758
B( 17-C , 20-C ) :   0.1090 B( 17-C , 33-H ) :   0.9682 B( 18-C , 19-C ) :   1.2877
B( 18-C , 21-H ) :   0.9924 B( 19-C , 20-C ) :   1.5566 B( 19-C , 22-C ) :   1.0356
B( 22-C , 23-H ) :   0.9326 B( 22-C , 24-H ) :   0.9248 B( 22-C , 25-C ) :   1.0611
B( 25-C , 26-H ) :   0.9504 B( 25-C , 27-H ) :   0.9548 B( 25-C , 28-C ) :   1.0784
B( 28-C , 29-H ) :   0.9722 B( 28-C , 30-H ) :   0.9750 B( 28-C , 31-H ) :   0.9755

Dispersion correction           -0.014687539
FINAL SINGLE POINT ENERGY     -1339.860618096277

DIPOLE MOMENT
-------------
                                X             Y             Z
Electronic contribution:     20.21089      12.30598       7.54539
Nuclear contribution   :    -20.60930     -12.77642      -7.66315
                        -----------------------------------------
Total Dipole Moment    :     -0.39841      -0.47045      -0.11776
                        -----------------------------------------
Magnitude (a.u.)       :      0.62763
Magnitude (Debye)      :      1.59530

Rotational constants in cm-1:     0.017542     0.009208     0.007652
Rotational constants in MHz :   525.890085   276.059977   229.410653

                             ****ORCA TERMINATED NORMALLY****
TOTAL RUN TIME: 0 days 0 hours 0 minutes 29 seconds 13 msec
