                         Program Version 4.2.1 -  RELEASE  -
|  1> ! wB97X-D3 SP def2-SVP
|  2> %pal
|  3> nprocs 16
|  4> end
|  5>
|  6> * xyz 0 1
|  7> S 	 57.2748 	 12.1318 	 50.7234
|  8> C 	 57.3395 	 13.2609 	 49.3905
|  9> C 	 56.1342 	 13.8715 	 49.1625
| 10> C 	 55.2245 	 13.6262 	 50.2218
| 11> C 	 55.7307 	 12.8315 	 51.2669
| 12> H 	 54.191 	 14.0671 	 50.3323
| 13> C 	 55.8361 	 14.7331 	 47.9842
| 14> H 	 56.2579 	 14.2297 	 47.132
| 15> H 	 56.3852 	 15.7098 	 48.1465
| 16> C 	 54.2913 	 15.0254 	 47.5575
| 17> H 	 53.8677 	 15.4499 	 48.4516
| 18> H 	 54.3118 	 15.8939 	 46.8467
| 19> C 	 53.4642 	 13.7958 	 47.0458
| 20> H 	 54.0785 	 13.044 	 46.538
| 21> H 	 53.1686 	 13.3461 	 47.9662
| 22> H 	 52.498 	 14.0716 	 46.6387
| 23> S 	 55.7702 	 11.2354 	 53.5911
| 24> C 	 54.4331 	 11.3203 	 54.7556
| 25> C 	 53.5541 	 12.2774 	 54.3808
| 26> C 	 53.9379 	 12.9498 	 53.1406
| 27> C 	 55.1513 	 12.5063 	 52.5477
| 28> H 	 52.6695 	 12.4541 	 55.0088
| 29> C 	 53.0268 	 14.0473 	 52.6537
| 30> H 	 53.5425 	 14.8473 	 52.0503
| 31> H 	 52.6766 	 14.5127 	 53.5611
| 32> C 	 51.938 	 13.5746 	 51.7336
| 33> H 	 51.2336 	 12.9124 	 52.226
| 34> H 	 52.3851 	 12.9722 	 50.9571
| 35> C 	 51.1154 	 14.7172 	 51.0883
| 36> H 	 50.1384 	 14.3149 	 50.7201
| 37> H 	 51.6451 	 15.0204 	 50.1607
| 38> H 	 51.1256 	 15.5867 	 51.7145
| 39> H 	 58.1242 	 13.3571 	 48.7202
| 40> H 	 54.4683 	 10.7437 	 55.627
| 41> *
| 42>
| 43>                          ****END OF INPUT****

CARTESIAN COORDINATES (ANGSTROEM)
---------------------------------
  S     57.274800   12.131800   50.723400
  C     57.339500   13.260900   49.390500
  C     56.134200   13.871500   49.162500
  C     55.224500   13.626200   50.221800
  C     55.730700   12.831500   51.266900
  H     54.191000   14.067100   50.332300
  C     55.836100   14.733100   47.984200
  H     56.257900   14.229700   47.132000
  H     56.385200   15.709800   48.146500
  C     54.291300   15.025400   47.557500
  H     53.867700   15.449900   48.451600
  H     54.311800   15.893900   46.846700
  C     53.464200   13.795800   47.045800
  H     54.078500   13.044000   46.538000
  H     53.168600   13.346100   47.966200
  H     52.498000   14.071600   46.638700
  S     55.770200   11.235400   53.591100
  C     54.433100   11.320300   54.755600
  C     53.554100   12.277400   54.380800
  C     53.937900   12.949800   53.140600
  C     55.151300   12.506300   52.547700
  H     52.669500   12.454100   55.008800
  C     53.026800   14.047300   52.653700
  H     53.542500   14.847300   52.050300
  H     52.676600   14.512700   53.561100
  C     51.938000   13.574600   51.733600
  H     51.233600   12.912400   52.226000
  H     52.385100   12.972200   50.957100
  C     51.115400   14.717200   51.088300
  H     50.138400   14.314900   50.720100
  H     51.645100   15.020400   50.160700
  H     51.125600   15.586700   51.714500
  H     58.124200   13.357100   48.720200
  H     54.468300   10.743700   55.627000

 Total Charge           Charge          ....    0
 Multiplicity           Mult            ....    1
 Number of Electrons    NEL             ....  134
 Basis Dimension        Dim             ....  322

ORBITAL ENERGIES
----------------

  NO   OCC          E(Eh)            E(eV)
   0   2.0000     -88.967715     -2420.9346
   1   2.0000     -88.962881     -2420.8031
   2   2.0000     -10.338003      -281.3114
   3   2.0000     -10.335376      -281.2399
   4   2.0000     -10.318365      -280.7770
   5   2.0000     -10.309956      -280.5482
   6   2.0000     -10.307851      -280.4909
   7   2.0000     -10.300847      -280.3003
   8   2.0000     -10.300448      -280.2894
   9   2.0000     -10.300294      -280.2852
  10   2.0000     -10.300049      -280.2786
  11   2.0000     -10.299732      -280.2700
  12   2.0000     -10.292045      -280.0608
  13   2.0000     -10.284625      -279.8589
  14   2.0000     -10.283181      -279.8196
  15   2.0000     -10.282544      -279.8023
  16   2.0000      -8.081900      -219.9197
  17   2.0000      -8.077439      -219.7983
  18   2.0000      -6.040487      -164.3700
  19   2.0000      -6.036660      -164.2659
  20   2.0000      -6.036154      -164.2521
  21   2.0000      -6.032454      -164.1514
  22   2.0000      -6.031878      -164.1357
  23   2.0000      -6.028087      -164.0326
  24   2.0000      -1.004910       -27.3450
  25   2.0000      -0.983811       -26.7709
  26   2.0000      -0.915272       -24.9058
  27   2.0000      -0.905043       -24.6275
  28   2.0000      -0.873452       -23.7678
  29   2.0000      -0.849433       -23.1142
  30   2.0000      -0.843267       -22.9465
  31   2.0000      -0.820680       -22.3319
  32   2.0000      -0.783336       -21.3157
  33   2.0000      -0.771775       -21.0011
  34   2.0000      -0.717400       -19.5215
  35   2.0000      -0.701034       -19.0761
  36   2.0000      -0.696335       -18.9482
  37   2.0000      -0.663617       -18.0579
  38   2.0000      -0.636965       -17.3327
  39   2.0000      -0.625706       -17.0263
  40   2.0000      -0.601940       -16.3796
  41   2.0000      -0.569274       -15.4907
  42   2.0000      -0.566555       -15.4167
  43   2.0000      -0.552999       -15.0479
  44   2.0000      -0.533785       -14.5250
  45   2.0000      -0.527919       -14.3654
  46   2.0000      -0.521453       -14.1894
  47   2.0000      -0.515355       -14.0235
  48   2.0000      -0.507890       -13.8204
  49   2.0000      -0.502487       -13.6734
  50   2.0000      -0.493309       -13.4236
  51   2.0000      -0.488584       -13.2950
  52   2.0000      -0.472027       -12.8445
  53   2.0000      -0.469397       -12.7729
  54   2.0000      -0.456907       -12.4331
  55   2.0000      -0.451782       -12.2936
  56   2.0000      -0.446613       -12.1530
  57   2.0000      -0.443759       -12.0753
  58   2.0000      -0.431226       -11.7343
  59   2.0000      -0.422017       -11.4837
  60   2.0000      -0.415901       -11.3172
  61   2.0000      -0.415267       -11.3000
  62   2.0000      -0.405631       -11.0378
  63   2.0000      -0.367562       -10.0019
  64   2.0000      -0.333976        -9.0880
  65   2.0000      -0.325438        -8.8556
  66   2.0000      -0.278844        -7.5877
  67   0.0000       0.010788         0.2936
  68   0.0000       0.085527         2.3273
  69   0.0000       0.095014         2.5855
  70   0.0000       0.114644         3.1196
  71   0.0000       0.121662         3.3106

MULLIKEN ATOMIC CHARGES
-----------------------
   0 S :    0.107283
   1 C :   -0.090987
   2 C :   -0.058656
   3 C :   -0.018424
   4 C :   -0.127283
   5 H :    0.003186
   6 C :    0.012276
   7 H :    0.029136
   8 H :    0.061343
   9 C :   -0.103615
  10 H :    0.025799
  11 H :    0.036782
  12 C :   -0.012213
  13 H :    0.048588
  14 H :    0.011436
  15 H :    0.040669
  16 S :    0.072536
  17 C :   -0.073616
  18 C :   -0.011839
  19 C :   -0.094353
  20 C :   -0.066909
  21 H :    0.034001
  22 C :    0.023234
  23 H :    0.030785
  24 H :    0.022768
  25 C :   -0.078125
  26 H :    0.018810
  27 H :    0.031689
  28 C :   -0.036657
  29 H :    0.046928
  30 H :    0.021640
  31 H :    0.034562
  32 H :    0.013331
  33 H :    0.045896
Sum of atomic charges:   -0.0000000

LOEWDIN ATOMIC CHARGES
----------------------
   0 S :    0.392659
   1 C :   -0.182157
   2 C :   -0.069278
   3 C :   -0.072535
   4 C :   -0.172803
   5 H :    0.035797
   6 C :   -0.035525
   7 H :    0.026932
   8 H :    0.046277
   9 C :   -0.038870
  10 H :    0.014228
  11 H :    0.027496
  12 C :   -0.066956
  13 H :    0.032215
  14 H :    0.023993
  15 H :    0.031458
  16 S :    0.381854
  17 C :   -0.159196
  18 C :   -0.072460
  19 C :   -0.052264
  20 C :   -0.195421
  21 H :    0.040041
  22 C :   -0.041037
  23 H :    0.031049
  24 H :    0.028269
  25 C :   -0.045424
  26 H :    0.020114
  27 H :    0.021713
  28 C :   -0.065868
  29 H :    0.035261
  30 H :    0.023917
  31 H :    0.022364
  32 H :    0.013541
  33 H :    0.020619

  Mayer bond orders larger than 0.100000
B(  0-S ,  1-C ) :   1.1331 B(  0-S ,  4-C ) :   1.1351 B(  1-C ,  2-C ) :   1.6112
B(  1-C ,  4-C ) :   0.1017 B(  1-C , 32-H ) :   0.9773 B(  2-C ,  3-C ) :   1.2573
B(  2-C ,  6-C ) :   1.0051 B(  3-C ,  4-C ) :   1.5459 B(  3-C ,  5-H ) :   0.9688
B(  4-C , 20-C ) :   1.1326 B(  6-C ,  7-H ) :   0.9429 B(  6-C ,  8-H ) :   0.9394
B(  6-C ,  9-C ) :   1.0730 B(  9-C , 10-H ) :   0.9558 B(  9-C , 11-H ) :   0.9587
B(  9-C , 12-C ) :   1.0566 B( 12-C , 13-H ) :   0.9776 B( 12-C , 14-H ) :   0.9719
B( 12-C , 15-H ) :   0.9725 B( 16-S , 17-C ) :   1.1466 B( 16-S , 20-C ) :   1.1123
B( 17-C , 18-C ) :   1.6065 B( 17-C , 33-H ) :   0.9766 B( 18-C , 19-C ) :   1.2404
B( 18-C , 21-H ) :   0.9877 B( 19-C , 20-C ) :   1.5615 B( 19-C , 22-C ) :   1.0490
B( 22-C , 23-H ) :   0.9422 B( 22-C , 24-H ) :   0.9254 B( 22-C , 25-C ) :   1.0607
B( 25-C , 26-H ) :   0.9516 B( 25-C , 27-H ) :   0.9539 B( 25-C , 28-C ) :   1.0765
B( 28-C , 29-H ) :   0.9728 B( 28-C , 30-H ) :   0.9734 B( 28-C , 31-H ) :   0.9726

Dispersion correction           -0.015322668
FINAL SINGLE POINT ENERGY     -1339.865918032163

DIPOLE MOMENT
-------------
                                X             Y             Z
Electronic contribution:     22.60678     -16.22065      17.23322
Nuclear contribution   :    -23.23106      16.60420     -17.42220
                        -----------------------------------------
Total Dipole Moment    :     -0.62427       0.38355      -0.18898
                        -----------------------------------------
Magnitude (a.u.)       :      0.75666
Magnitude (Debye)      :      1.92329

Rotational constants in cm-1:     0.017379     0.010607     0.006963
Rotational constants in MHz :   521.012145   317.978419   208.748614

                             ****ORCA TERMINATED NORMALLY****
TOTAL RUN TIME: 0 days 0 hours 0 minutes 32 seconds 350 msec
