                         Program Version 4.2.1 -  RELEASE  -
|  1> ! wB97X-D3 SP def2-SVP
|  2> %pal
|  3> nprocs 16
|  4> end
|  5>
|  6> * xyz 0 1
|  7> S 	 -40.0116 	 35.3392 	 86.8448
|  8> C 	 -40.9657 	 35.4586 	 85.4343
|  9> C 	 -41.4648 	 34.2262 	 85.0462
| 10> C 	 -40.9661 	 33.0977 	 85.8184
| 11> C 	 -40.0471 	 33.5506 	 86.7894
| 12> H 	 -41.1917 	 32.1053 	 85.6777
| 13> C 	 -42.5024 	 34.0983 	 83.9704
| 14> H 	 -43.4832 	 34.5715 	 84.2377
| 15> H 	 -42.957 	 33.0026 	 84.0317
| 16> C 	 -42.2457 	 34.4321 	 82.4846
| 17> H 	 -43.0782 	 34.7175 	 81.8467
| 18> H 	 -41.743 	 35.3632 	 82.3898
| 19> C 	 -41.357 	 33.3755 	 81.8635
| 20> H 	 -41.1468 	 33.5638 	 80.8538
| 21> H 	 -40.3489 	 33.396 	 82.3044
| 22> H 	 -41.8797 	 32.4461 	 82.01
| 23> S 	 -39.1732 	 33.1416 	 89.4373
| 24> C 	 -38.036 	 31.7835 	 89.7622
| 25> C 	 -37.8006 	 31.061 	 88.5994
| 26> C 	 -38.4542 	 31.6367 	 87.4553
| 27> C 	 -39.3066 	 32.7188 	 87.7558
| 28> H 	 -37.0004 	 30.3535 	 88.7135
| 29> C 	 -38.3784 	 30.9777 	 86.1257
| 30> H 	 -39.4161 	 30.7099 	 85.8046
| 31> H 	 -37.9901 	 29.9699 	 86.3764
| 32> C 	 -37.5813 	 31.5712 	 84.978
| 33> H 	 -36.6301 	 31.9089 	 85.3569
| 34> H 	 -38.1973 	 32.3316 	 84.5269
| 35> C 	 -37.3094 	 30.4563 	 83.9702
| 36> H 	 -38.1553 	 30.0896 	 83.413
| 37> H 	 -36.9409 	 29.5076 	 84.4034
| 38> H 	 -36.5374 	 30.6579 	 83.236
| 39> H 	 -41.2699 	 36.4182 	 84.9361
| 40> H 	 -37.691 	 31.5064 	 90.7343
| 41> *
| 42>
| 43>                          ****END OF INPUT****

CARTESIAN COORDINATES (ANGSTROEM)
---------------------------------
  S    -40.011600   35.339200   86.844800
  C    -40.965700   35.458600   85.434300
  C    -41.464800   34.226200   85.046200
  C    -40.966100   33.097700   85.818400
  C    -40.047100   33.550600   86.789400
  H    -41.191700   32.105300   85.677700
  C    -42.502400   34.098300   83.970400
  H    -43.483200   34.571500   84.237700
  H    -42.957000   33.002600   84.031700
  C    -42.245700   34.432100   82.484600
  H    -43.078200   34.717500   81.846700
  H    -41.743000   35.363200   82.389800
  C    -41.357000   33.375500   81.863500
  H    -41.146800   33.563800   80.853800
  H    -40.348900   33.396000   82.304400
  H    -41.879700   32.446100   82.010000
  S    -39.173200   33.141600   89.437300
  C    -38.036000   31.783500   89.762200
  C    -37.800600   31.061000   88.599400
  C    -38.454200   31.636700   87.455300
  C    -39.306600   32.718800   87.755800
  H    -37.000400   30.353500   88.713500
  C    -38.378400   30.977700   86.125700
  H    -39.416100   30.709900   85.804600
  H    -37.990100   29.969900   86.376400
  C    -37.581300   31.571200   84.978000
  H    -36.630100   31.908900   85.356900
  H    -38.197300   32.331600   84.526900
  C    -37.309400   30.456300   83.970200
  H    -38.155300   30.089600   83.413000
  H    -36.940900   29.507600   84.403400
  H    -36.537400   30.657900   83.236000
  H    -41.269900   36.418200   84.936100
  H    -37.691000   31.506400   90.734300

 Total Charge           Charge          ....    0
 Multiplicity           Mult            ....    1
 Number of Electrons    NEL             ....  134
 Basis Dimension        Dim             ....  322

ORBITAL ENERGIES
----------------

  NO   OCC          E(Eh)            E(eV)
   0   2.0000     -88.970638     -2421.0141
   1   2.0000     -88.967171     -2420.9198
   2   2.0000     -10.339159      -281.3428
   3   2.0000     -10.329655      -281.0842
   4   2.0000     -10.321311      -280.8572
   5   2.0000     -10.317186      -280.7449
   6   2.0000     -10.306061      -280.4422
   7   2.0000     -10.304369      -280.3961
   8   2.0000     -10.302149      -280.3357
   9   2.0000     -10.299709      -280.2693
  10   2.0000     -10.297286      -280.2034
  11   2.0000     -10.287220      -279.9295
  12   2.0000     -10.282745      -279.8077
  13   2.0000     -10.282596      -279.8037
  14   2.0000     -10.273120      -279.5458
  15   2.0000     -10.268373      -279.4166
  16   2.0000      -8.085298      -220.0121
  17   2.0000      -8.081173      -219.8999
  18   2.0000      -6.043817      -164.4606
  19   2.0000      -6.039779      -164.3508
  20   2.0000      -6.039693      -164.3484
  21   2.0000      -6.036082      -164.2501
  22   2.0000      -6.035723      -164.2404
  23   2.0000      -6.032027      -164.1398
  24   2.0000      -1.002442       -27.2778
  25   2.0000      -0.981231       -26.7007
  26   2.0000      -0.910846       -24.7854
  27   2.0000      -0.909166       -24.7397
  28   2.0000      -0.870147       -23.6779
  29   2.0000      -0.854465       -23.2512
  30   2.0000      -0.847901       -23.0726
  31   2.0000      -0.817724       -22.2514
  32   2.0000      -0.777037       -21.1442
  33   2.0000      -0.764730       -20.8094
  34   2.0000      -0.711758       -19.3679
  35   2.0000      -0.707090       -19.2409
  36   2.0000      -0.692519       -18.8444
  37   2.0000      -0.664672       -18.0866
  38   2.0000      -0.643832       -17.5196
  39   2.0000      -0.615345       -16.7444
  40   2.0000      -0.592439       -16.1211
  41   2.0000      -0.574651       -15.6370
  42   2.0000      -0.565755       -15.3950
  43   2.0000      -0.556895       -15.1539
  44   2.0000      -0.539819       -14.6892
  45   2.0000      -0.523474       -14.2445
  46   2.0000      -0.519251       -14.1295
  47   2.0000      -0.511915       -13.9299
  48   2.0000      -0.502149       -13.6642
  49   2.0000      -0.499388       -13.5891
  50   2.0000      -0.493367       -13.4252
  51   2.0000      -0.472222       -12.8498
  52   2.0000      -0.467917       -12.7327
  53   2.0000      -0.463731       -12.6188
  54   2.0000      -0.453133       -12.3304
  55   2.0000      -0.446774       -12.1573
  56   2.0000      -0.440296       -11.9811
  57   2.0000      -0.437066       -11.8932
  58   2.0000      -0.432978       -11.7819
  59   2.0000      -0.424969       -11.5640
  60   2.0000      -0.421405       -11.4670
  61   2.0000      -0.412047       -11.2124
  62   2.0000      -0.406337       -11.0570
  63   2.0000      -0.352850        -9.6015
  64   2.0000      -0.334446        -9.1007
  65   2.0000      -0.326930        -8.8962
  66   2.0000      -0.287148        -7.8137
  67   0.0000       0.022931         0.6240
  68   0.0000       0.065910         1.7935
  69   0.0000       0.104772         2.8510
  70   0.0000       0.118337         3.2201
  71   0.0000       0.124443         3.3863

MULLIKEN ATOMIC CHARGES
-----------------------
   0 S :    0.125034
   1 C :   -0.125566
   2 C :   -0.061131
   3 C :    0.066337
   4 C :   -0.143318
   5 H :   -0.013942
   6 C :   -0.030154
   7 H :    0.041452
   8 H :    0.024078
   9 C :   -0.030880
  10 H :    0.022152
  11 H :    0.000810
  12 C :   -0.028136
  13 H :    0.015564
  14 H :    0.039213
  15 H :    0.024484
  16 S :    0.094888
  17 C :   -0.105668
  18 C :   -0.013429
  19 C :   -0.030917
  20 C :   -0.137172
  21 H :    0.028039
  22 C :   -0.013566
  23 H :    0.026690
  24 H :    0.007520
  25 C :    0.021557
  26 H :    0.026777
  27 H :    0.044379
  28 C :   -0.060715
  29 H :    0.019903
  30 H :    0.013811
  31 H :    0.027819
  32 H :    0.071691
  33 H :    0.052397
Sum of atomic charges:   -0.0000000

LOEWDIN ATOMIC CHARGES
----------------------
   0 S :    0.414904
   1 C :   -0.214108
   2 C :   -0.070474
   3 C :   -0.042256
   4 C :   -0.175347
   5 H :    0.017946
   6 C :   -0.049742
   7 H :    0.036755
   8 H :    0.036110
   9 C :   -0.047729
  10 H :    0.027617
  11 H :    0.017401
  12 C :   -0.059539
  13 H :    0.016884
  14 H :    0.030857
  15 H :    0.021157
  16 S :    0.389442
  17 C :   -0.165106
  18 C :   -0.069514
  19 C :   -0.058168
  20 C :   -0.206275
  21 H :    0.035466
  22 C :   -0.043402
  23 H :    0.032150
  24 H :    0.030057
  25 C :   -0.027910
  26 H :    0.026891
  27 H :    0.029326
  28 C :   -0.071237
  29 H :    0.021953
  30 H :    0.024257
  31 H :    0.023822
  32 H :    0.042900
  33 H :    0.024912

  Mayer bond orders larger than 0.100000
B(  0-S ,  1-C ) :   1.1487 B(  0-S ,  4-C ) :   1.1534 B(  1-C ,  2-C ) :   1.5995
B(  1-C , 32-H ) :   0.9613 B(  2-C ,  3-C ) :   1.2414 B(  2-C ,  6-C ) :   1.0190
B(  3-C ,  4-C ) :   1.5374 B(  3-C ,  5-H ) :   1.0076 B(  4-C , 20-C ) :   1.0625
B(  6-C ,  7-H ) :   0.9395 B(  6-C ,  8-H ) :   0.9489 B(  6-C ,  9-C ) :   1.0646
B(  9-C , 10-H ) :   0.9525 B(  9-C , 11-H ) :   0.9483 B(  9-C , 12-C ) :   1.0799
B( 12-C , 13-H ) :   0.9701 B( 12-C , 14-H ) :   0.9756 B( 12-C , 15-H ) :   0.9789
B( 16-S , 17-C ) :   1.1498 B( 16-S , 20-C ) :   1.1359 B( 17-C , 18-C ) :   1.6155
B( 17-C , 33-H ) :   0.9676 B( 18-C , 19-C ) :   1.2456 B( 18-C , 21-H ) :   0.9866
B( 19-C , 20-C ) :   1.5679 B( 19-C , 22-C ) :   1.0417 B( 22-C , 23-H ) :   0.9347
B( 22-C , 24-H ) :   0.9374 B( 22-C , 25-C ) :   1.0576 B( 25-C , 26-H ) :   0.9530
B( 25-C , 27-H ) :   0.9488 B( 25-C , 28-C ) :   1.0830 B( 28-C , 29-H ) :   0.9734
B( 28-C , 30-H ) :   0.9723 B( 28-C , 31-H ) :   0.9753

Dispersion correction           -0.014650779
FINAL SINGLE POINT ENERGY     -1339.859491863064

DIPOLE MOMENT
-------------
                                X             Y             Z
Electronic contribution:      0.88366      12.16189      29.32433
Nuclear contribution   :     -0.89328     -12.45266     -29.79419
                        -----------------------------------------
Total Dipole Moment    :     -0.00962      -0.29077      -0.46986
                        -----------------------------------------
Magnitude (a.u.)       :      0.55264
Magnitude (Debye)      :      1.40469

Rotational constants in cm-1:     0.018728     0.009377     0.006791
Rotational constants in MHz :   561.444205   281.116186   203.587890

                             ****ORCA TERMINATED NORMALLY****
TOTAL RUN TIME: 0 days 0 hours 0 minutes 31 seconds 327 msec
