                         Program Version 4.2.1 -  RELEASE  -
|  1> ! wB97X-D3 SP def2-SVP
|  2> %pal
|  3> nprocs 16
|  4> end
|  5>
|  6> * xyz 0 1
|  7> S 	 -36.7189 	 -1.52905 	 100.166
|  8> C 	 -38.2942 	 -2.43971 	 100.056
|  9> C 	 -38.2035 	 -3.48671 	 99.1197
| 10> C 	 -36.8882 	 -3.52863 	 98.4796
| 11> C 	 -36.0514 	 -2.45995 	 98.7914
| 12> H 	 -36.4588 	 -4.27087 	 97.824
| 13> C 	 -39.2491 	 -4.53177 	 98.861
| 14> H 	 -40.2296 	 -4.17583 	 99.2185
| 15> H 	 -38.9783 	 -5.45733 	 99.4867
| 16> C 	 -39.3894 	 -4.97294 	 97.4246
| 17> H 	 -38.4354 	 -5.3776 	 97.195
| 18> H 	 -40.0804 	 -5.76296 	 97.4477
| 19> C 	 -39.7506 	 -3.9241 	 96.433
| 20> H 	 -38.851 	 -3.48142 	 95.9856
| 21> H 	 -40.3967 	 -4.34145 	 95.5935
| 22> H 	 -40.2891 	 -3.14973 	 96.9799
| 23> S 	 -33.5205 	 -1.65223 	 99.5723
| 24> C 	 -32.3707 	 -1.26185 	 98.2725
| 25> C 	 -32.843 	 -1.6883 	 97.0663
| 26> C 	 -34.0688 	 -2.37972 	 97.1155
| 27> C 	 -34.6892 	 -2.19128 	 98.3479
| 28> H 	 -32.137 	 -1.33766 	 96.2663
| 29> C 	 -34.7302 	 -2.78454 	 95.8439
| 30> H 	 -34.5334 	 -2.01829 	 95.1045
| 31> H 	 -35.7726 	 -2.71496 	 95.9225
| 32> C 	 -34.3571 	 -4.26363 	 95.472
| 33> H 	 -34.7169 	 -4.46858 	 94.4634
| 34> H 	 -34.8243 	 -4.9999 	 96.1294
| 35> C 	 -32.8862 	 -4.52167 	 95.4703
| 36> H 	 -32.4717 	 -4.52589 	 96.5001
| 37> H 	 -32.2004 	 -3.83116 	 94.8704
| 38> H 	 -32.7154 	 -5.58502 	 95.1283
| 39> H 	 -39.189 	 -2.29472 	 100.625
| 40> H 	 -31.4599 	 -0.646366 	 98.3373
| 41> *
| 42>
| 43>                          ****END OF INPUT****

CARTESIAN COORDINATES (ANGSTROEM)
---------------------------------
  S    -36.718900   -1.529050  100.166000
  C    -38.294200   -2.439710  100.056000
  C    -38.203500   -3.486710   99.119700
  C    -36.888200   -3.528630   98.479600
  C    -36.051400   -2.459950   98.791400
  H    -36.458800   -4.270870   97.824000
  C    -39.249100   -4.531770   98.861000
  H    -40.229600   -4.175830   99.218500
  H    -38.978300   -5.457330   99.486700
  C    -39.389400   -4.972940   97.424600
  H    -38.435400   -5.377600   97.195000
  H    -40.080400   -5.762960   97.447700
  C    -39.750600   -3.924100   96.433000
  H    -38.851000   -3.481420   95.985600
  H    -40.396700   -4.341450   95.593500
  H    -40.289100   -3.149730   96.979900
  S    -33.520500   -1.652230   99.572300
  C    -32.370700   -1.261850   98.272500
  C    -32.843000   -1.688300   97.066300
  C    -34.068800   -2.379720   97.115500
  C    -34.689200   -2.191280   98.347900
  H    -32.137000   -1.337660   96.266300
  C    -34.730200   -2.784540   95.843900
  H    -34.533400   -2.018290   95.104500
  H    -35.772600   -2.714960   95.922500
  C    -34.357100   -4.263630   95.472000
  H    -34.716900   -4.468580   94.463400
  H    -34.824300   -4.999900   96.129400
  C    -32.886200   -4.521670   95.470300
  H    -32.471700   -4.525890   96.500100
  H    -32.200400   -3.831160   94.870400
  H    -32.715400   -5.585020   95.128300
  H    -39.189000   -2.294720  100.625000
  H    -31.459900   -0.646366   98.337300

 Total Charge           Charge          ....    0
 Multiplicity           Mult            ....    1
 Number of Electrons    NEL             ....  134
 Basis Dimension        Dim             ....  322

ORBITAL ENERGIES
----------------

  NO   OCC          E(Eh)            E(eV)
   0   2.0000     -88.968111     -2420.9454
   1   2.0000     -88.964891     -2420.8578
   2   2.0000     -10.336434      -281.2687
   3   2.0000     -10.332718      -281.1676
   4   2.0000     -10.322384      -280.8863
   5   2.0000     -10.315520      -280.6996
   6   2.0000     -10.310315      -280.5579
   7   2.0000     -10.303714      -280.3783
   8   2.0000     -10.300666      -280.2954
   9   2.0000     -10.298315      -280.2314
  10   2.0000     -10.294318      -280.1226
  11   2.0000     -10.290823      -280.0275
  12   2.0000     -10.287045      -279.9247
  13   2.0000     -10.283227      -279.8208
  14   2.0000     -10.279152      -279.7099
  15   2.0000     -10.274765      -279.5906
  16   2.0000      -8.080920      -219.8930
  17   2.0000      -8.078938      -219.8391
  18   2.0000      -6.039717      -164.3490
  19   2.0000      -6.037570      -164.2906
  20   2.0000      -6.035843      -164.2436
  21   2.0000      -6.033711      -164.1856
  22   2.0000      -6.031308      -164.1202
  23   2.0000      -6.029419      -164.0688
  24   2.0000      -1.003071       -27.2949
  25   2.0000      -0.975254       -26.5380
  26   2.0000      -0.921300       -25.0698
  27   2.0000      -0.912260       -24.8239
  28   2.0000      -0.870451       -23.6862
  29   2.0000      -0.851148       -23.1609
  30   2.0000      -0.838706       -22.8223
  31   2.0000      -0.817138       -22.2355
  32   2.0000      -0.784271       -21.3411
  33   2.0000      -0.774076       -21.0637
  34   2.0000      -0.713597       -19.4180
  35   2.0000      -0.697666       -18.9845
  36   2.0000      -0.690208       -18.7815
  37   2.0000      -0.653570       -17.7846
  38   2.0000      -0.639439       -17.4000
  39   2.0000      -0.620783       -16.8924
  40   2.0000      -0.595064       -16.1925
  41   2.0000      -0.570130       -15.5140
  42   2.0000      -0.556022       -15.1301
  43   2.0000      -0.554984       -15.1019
  44   2.0000      -0.545852       -14.8534
  45   2.0000      -0.542397       -14.7594
  46   2.0000      -0.520598       -14.1662
  47   2.0000      -0.506149       -13.7730
  48   2.0000      -0.502345       -13.6695
  49   2.0000      -0.494251       -13.4493
  50   2.0000      -0.492340       -13.3973
  51   2.0000      -0.481593       -13.1048
  52   2.0000      -0.472818       -12.8660
  53   2.0000      -0.465501       -12.6669
  54   2.0000      -0.454427       -12.3656
  55   2.0000      -0.443066       -12.0564
  56   2.0000      -0.440047       -11.9743
  57   2.0000      -0.435507       -11.8507
  58   2.0000      -0.432126       -11.7587
  59   2.0000      -0.430212       -11.7067
  60   2.0000      -0.418062       -11.3761
  61   2.0000      -0.416176       -11.3247
  62   2.0000      -0.409620       -11.1463
  63   2.0000      -0.351765        -9.5720
  64   2.0000      -0.333063        -9.0631
  65   2.0000      -0.327532        -8.9126
  66   2.0000      -0.285665        -7.7733
  67   0.0000       0.014713         0.4004
  68   0.0000       0.070188         1.9099
  69   0.0000       0.102488         2.7888
  70   0.0000       0.116336         3.1657
  71   0.0000       0.125082         3.4036

MULLIKEN ATOMIC CHARGES
-----------------------
   0 S :    0.088995
   1 C :   -0.102355
   2 C :   -0.082754
   3 C :    0.013383
   4 C :   -0.130350
   5 H :    0.004528
   6 C :    0.018550
   7 H :    0.018704
   8 H :    0.059616
   9 C :   -0.034429
  10 H :    0.010172
  11 H :    0.015184
  12 C :   -0.051347
  13 H :    0.039915
  14 H :    0.046350
  15 H :    0.029713
  16 S :    0.092919
  17 C :   -0.111076
  18 C :   -0.058501
  19 C :   -0.028596
  20 C :   -0.133792
  21 H :    0.040255
  22 C :    0.079005
  23 H :    0.029341
  24 H :    0.003576
  25 C :   -0.047025
  26 H :    0.027611
  27 H :    0.035604
  28 C :   -0.101776
  29 H :    0.047434
  30 H :    0.042520
  31 H :    0.035924
  32 H :    0.041003
  33 H :    0.061699
Sum of atomic charges:   -0.0000000

LOEWDIN ATOMIC CHARGES
----------------------
   0 S :    0.360730
   1 C :   -0.176147
   2 C :   -0.057704
   3 C :   -0.065258
   4 C :   -0.171884
   5 H :    0.028000
   6 C :   -0.036589
   7 H :    0.025747
   8 H :    0.047825
   9 C :   -0.044975
  10 H :    0.016732
  11 H :    0.020007
  12 C :   -0.067076
  13 H :    0.028736
  14 H :    0.036668
  15 H :    0.025921
  16 S :    0.371689
  17 C :   -0.185508
  18 C :   -0.075227
  19 C :   -0.060235
  20 C :   -0.178136
  21 H :    0.046254
  22 C :   -0.028057
  23 H :    0.034597
  24 H :    0.020834
  25 C :   -0.037236
  26 H :    0.024144
  27 H :    0.025909
  28 C :   -0.081051
  29 H :    0.028516
  30 H :    0.029475
  31 H :    0.030971
  32 H :    0.026501
  33 H :    0.035827

  Mayer bond orders larger than 0.100000
B(  0-S ,  1-C ) :   1.1074 B(  0-S ,  4-C ) :   1.1231 B(  1-C ,  2-C ) :   1.6378
B(  1-C , 32-H ) :   0.9691 B(  2-C ,  3-C ) :   1.1902 B(  2-C ,  6-C ) :   1.0295
B(  3-C ,  4-C ) :   1.5971 B(  3-C ,  5-H ) :   0.9856 B(  4-C , 20-C ) :   1.0775
B(  6-C ,  7-H ) :   0.9391 B(  6-C ,  8-H ) :   0.9348 B(  6-C ,  9-C ) :   1.0906
B(  9-C , 10-H ) :   0.9474 B(  9-C , 11-H ) :   0.9504 B(  9-C , 12-C ) :   1.0752
B( 12-C , 13-H ) :   0.9701 B( 12-C , 14-H ) :   0.9741 B( 12-C , 15-H ) :   0.9778
B( 16-S , 17-C ) :   1.1137 B( 16-S , 20-C ) :   1.1334 B( 17-C , 18-C ) :   1.6805
B( 17-C , 33-H ) :   0.9613 B( 18-C , 19-C ) :   1.1831 B( 18-C , 21-H ) :   0.9808
B( 19-C , 20-C ) :   1.5896 B( 19-C , 22-C ) :   1.0446 B( 22-C , 23-H ) :   0.9448
B( 22-C , 24-H ) :   0.9354 B( 22-C , 25-C ) :   1.0539 B( 25-C , 26-H ) :   0.9539
B( 25-C , 27-H ) :   0.9495 B( 25-C , 28-C ) :   1.0938 B( 28-C , 29-H ) :   0.9648
B( 28-C , 30-H ) :   0.9734 B( 28-C , 31-H ) :   0.9694

Dispersion correction           -0.015186799
FINAL SINGLE POINT ENERGY     -1339.862858033301

DIPOLE MOMENT
-------------
                                X             Y             Z
Electronic contribution:      8.84483      16.35251      21.56394
Nuclear contribution   :     -9.02490     -16.75825     -22.13904
                        -----------------------------------------
Total Dipole Moment    :     -0.18007      -0.40574      -0.57511
                        -----------------------------------------
Magnitude (a.u.)       :      0.72649
Magnitude (Debye)      :      1.84660

Rotational constants in cm-1:     0.018536     0.010058     0.006987
Rotational constants in MHz :   555.701344   301.534144   209.461762

                             ****ORCA TERMINATED NORMALLY****
TOTAL RUN TIME: 0 days 0 hours 0 minutes 33 seconds 661 msec
