                         Program Version 4.2.1 -  RELEASE  -
|  1> ! wB97X-D3 SP def2-SVP
|  2> %pal
|  3> nprocs 16
|  4> end
|  5>
|  6> * xyz 0 1
|  7> S 	 8.7006 	 26.5496 	 69.2617
|  8> C 	 7.29277 	 25.6012 	 68.8127
|  9> C 	 6.19269 	 26.395 	 68.5763
| 10> C 	 6.49182 	 27.7804 	 68.7845
| 11> C 	 7.84786 	 28.0468 	 69.0519
| 12> H 	 5.79015 	 28.5565 	 68.4901
| 13> C 	 4.80182 	 25.7845 	 68.1993
| 14> H 	 3.97309 	 26.4427 	 68.6037
| 15> H 	 4.70648 	 24.8559 	 68.7518
| 16> C 	 4.68948 	 25.6907 	 66.6651
| 17> H 	 4.94017 	 26.6407 	 66.1358
| 18> H 	 5.38082 	 24.956 	 66.2575
| 19> C 	 3.32907 	 25.1632 	 66.2933
| 20> H 	 3.20223 	 24.0612 	 66.2674
| 21> H 	 2.56655 	 25.5424 	 67.0053
| 22> H 	 3.02521 	 25.5287 	 65.3121
| 23> S 	 9.89874 	 29.2645 	 70.6288
| 24> C 	 10.2277 	 30.9236 	 70.4043
| 25> C 	 9.35614 	 31.5489 	 69.5356
| 26> C 	 8.37973 	 30.6225 	 68.9348
| 27> C 	 8.55521 	 29.281 	 69.3739
| 28> H 	 9.38244 	 32.5899 	 69.4353
| 29> C 	 7.38932 	 31.1624 	 67.9977
| 30> H 	 7.23572 	 32.1861 	 68.3356
| 31> H 	 6.55696 	 30.5206 	 68.2888
| 32> C 	 7.71533 	 30.9017 	 66.4414
| 33> H 	 7.75719 	 29.8496 	 66.174
| 34> H 	 8.77437 	 31.1389 	 66.3414
| 35> C 	 6.76595 	 31.7383 	 65.519
| 36> H 	 5.68868 	 31.4542 	 65.6833
| 37> H 	 6.95624 	 31.6163 	 64.4809
| 38> H 	 6.6603 	 32.7967 	 65.9049
| 39> H 	 7.24019 	 24.5564 	 68.508
| 40> H 	 10.8269 	 31.6121 	 70.9951
| 41> *
| 42>
| 43>                          ****END OF INPUT****

CARTESIAN COORDINATES (ANGSTROEM)
---------------------------------
  S      8.700600   26.549600   69.261700
  C      7.292770   25.601200   68.812700
  C      6.192690   26.395000   68.576300
  C      6.491820   27.780400   68.784500
  C      7.847860   28.046800   69.051900
  H      5.790150   28.556500   68.490100
  C      4.801820   25.784500   68.199300
  H      3.973090   26.442700   68.603700
  H      4.706480   24.855900   68.751800
  C      4.689480   25.690700   66.665100
  H      4.940170   26.640700   66.135800
  H      5.380820   24.956000   66.257500
  C      3.329070   25.163200   66.293300
  H      3.202230   24.061200   66.267400
  H      2.566550   25.542400   67.005300
  H      3.025210   25.528700   65.312100
  S      9.898740   29.264500   70.628800
  C     10.227700   30.923600   70.404300
  C      9.356140   31.548900   69.535600
  C      8.379730   30.622500   68.934800
  C      8.555210   29.281000   69.373900
  H      9.382440   32.589900   69.435300
  C      7.389320   31.162400   67.997700
  H      7.235720   32.186100   68.335600
  H      6.556960   30.520600   68.288800
  C      7.715330   30.901700   66.441400
  H      7.757190   29.849600   66.174000
  H      8.774370   31.138900   66.341400
  C      6.765950   31.738300   65.519000
  H      5.688680   31.454200   65.683300
  H      6.956240   31.616300   64.480900
  H      6.660300   32.796700   65.904900
  H      7.240190   24.556400   68.508000
  H     10.826900   31.612100   70.995100

 Total Charge           Charge          ....    0
 Multiplicity           Mult            ....    1
 Number of Electrons    NEL             ....  134
 Basis Dimension        Dim             ....  322

ORBITAL ENERGIES
----------------

  NO   OCC          E(Eh)            E(eV)
   0   2.0000     -88.968122     -2420.9457
   1   2.0000     -88.967484     -2420.9283
   2   2.0000     -10.337244      -281.2907
   3   2.0000     -10.336144      -281.2608
   4   2.0000     -10.315585      -280.7014
   5   2.0000     -10.310801      -280.5711
   6   2.0000     -10.308516      -280.5090
   7   2.0000     -10.303248      -280.3656
   8   2.0000     -10.301990      -280.3314
   9   2.0000     -10.298295      -280.2308
  10   2.0000     -10.295833      -280.1638
  11   2.0000     -10.294158      -280.1183
  12   2.0000     -10.290647      -280.0227
  13   2.0000     -10.290480      -280.0182
  14   2.0000     -10.287907      -279.9482
  15   2.0000     -10.279596      -279.7220
  16   2.0000      -8.082211      -219.9282
  17   2.0000      -8.082027      -219.9231
  18   2.0000      -6.040811      -164.3788
  19   2.0000      -6.040757      -164.3773
  20   2.0000      -6.036668      -164.2661
  21   2.0000      -6.036603      -164.2643
  22   2.0000      -6.032927      -164.1643
  23   2.0000      -6.032638      -164.1564
  24   2.0000      -1.002288       -27.2736
  25   2.0000      -0.979035       -26.6409
  26   2.0000      -0.912714       -24.8362
  27   2.0000      -0.906081       -24.6557
  28   2.0000      -0.869857       -23.6700
  29   2.0000      -0.850085       -23.1320
  30   2.0000      -0.841494       -22.8982
  31   2.0000      -0.813710       -22.1422
  32   2.0000      -0.782298       -21.2874
  33   2.0000      -0.766730       -20.8638
  34   2.0000      -0.715755       -19.4767
  35   2.0000      -0.700334       -19.0571
  36   2.0000      -0.695564       -18.9273
  37   2.0000      -0.661902       -18.0113
  38   2.0000      -0.634454       -17.2644
  39   2.0000      -0.620917       -16.8960
  40   2.0000      -0.583997       -15.8914
  41   2.0000      -0.571478       -15.5507
  42   2.0000      -0.563800       -15.3418
  43   2.0000      -0.552473       -15.0336
  44   2.0000      -0.531916       -14.4742
  45   2.0000      -0.529408       -14.4059
  46   2.0000      -0.513565       -13.9748
  47   2.0000      -0.506878       -13.7928
  48   2.0000      -0.505823       -13.7641
  49   2.0000      -0.498325       -13.5601
  50   2.0000      -0.492349       -13.3975
  51   2.0000      -0.483678       -13.1615
  52   2.0000      -0.468488       -12.7482
  53   2.0000      -0.464919       -12.6511
  54   2.0000      -0.457388       -12.4462
  55   2.0000      -0.451584       -12.2882
  56   2.0000      -0.447529       -12.1779
  57   2.0000      -0.442428       -12.0391
  58   2.0000      -0.430824       -11.7233
  59   2.0000      -0.421457       -11.4684
  60   2.0000      -0.419092       -11.4041
  61   2.0000      -0.415141       -11.2966
  62   2.0000      -0.409588       -11.1454
  63   2.0000      -0.357329        -9.7234
  64   2.0000      -0.333246        -9.0681
  65   2.0000      -0.326025        -8.8716
  66   2.0000      -0.281004        -7.6465
  67   0.0000       0.019660         0.5350
  68   0.0000       0.072487         1.9725
  69   0.0000       0.102321         2.7843
  70   0.0000       0.117263         3.1909
  71   0.0000       0.126072         3.4306

MULLIKEN ATOMIC CHARGES
-----------------------
   0 S :    0.105503
   1 C :   -0.104670
   2 C :   -0.129928
   3 C :    0.032191
   4 C :   -0.157907
   5 H :    0.017929
   6 C :    0.035032
   7 H :    0.038633
   8 H :    0.036183
   9 C :   -0.072493
  10 H :    0.043665
  11 H :    0.028474
  12 C :   -0.046965
  13 H :    0.039833
  14 H :    0.022911
  15 H :    0.027484
  16 S :    0.103792
  17 C :   -0.063269
  18 C :   -0.042612
  19 C :   -0.085347
  20 C :   -0.118012
  21 H :    0.000174
  22 C :    0.070207
  23 H :    0.028104
  24 H :    0.015998
  25 C :   -0.048964
  26 H :    0.034427
  27 H :    0.028104
  28 C :   -0.047870
  29 H :    0.023923
  30 H :    0.044688
  31 H :    0.034573
  32 H :    0.048510
  33 H :    0.057697
Sum of atomic charges:   -0.0000000

LOEWDIN ATOMIC CHARGES
----------------------
   0 S :    0.413905
   1 C :   -0.207532
   2 C :   -0.060357
   3 C :   -0.075530
   4 C :   -0.191261
   5 H :    0.027558
   6 C :   -0.027453
   7 H :    0.035774
   8 H :    0.031508
   9 C :   -0.046914
  10 H :    0.032405
  11 H :    0.026230
  12 C :   -0.072740
  13 H :    0.028431
  14 H :    0.023654
  15 H :    0.025142
  16 S :    0.388396
  17 C :   -0.198178
  18 C :   -0.073335
  19 C :   -0.046394
  20 C :   -0.184013
  21 H :    0.020807
  22 C :   -0.036060
  23 H :    0.034209
  24 H :    0.032105
  25 C :   -0.031926
  26 H :    0.028056
  27 H :    0.023798
  28 C :   -0.074500
  29 H :    0.029609
  30 H :    0.022380
  31 H :    0.032898
  32 H :    0.032188
  33 H :    0.037141

  Mayer bond orders larger than 0.100000
B(  0-S ,  1-C ) :   1.1317 B(  0-S ,  4-C ) :   1.1633 B(  1-C ,  2-C ) :   1.6281
B(  1-C ,  4-C ) :   0.1007 B(  1-C , 32-H ) :   0.9571 B(  2-C ,  3-C ) :   1.2805
B(  2-C ,  6-C ) :   1.0080 B(  3-C ,  4-C ) :   1.5346 B(  3-C ,  5-H ) :   0.9771
B(  4-C , 20-C ) :   1.0846 B(  6-C ,  7-H ) :   0.9461 B(  6-C ,  8-H ) :   0.9491
B(  6-C ,  9-C ) :   1.0559 B(  9-C , 10-H ) :   0.9606 B(  9-C , 11-H ) :   0.9549
B(  9-C , 12-C ) :   1.0746 B( 12-C , 13-H ) :   0.9762 B( 12-C , 14-H ) :   0.9739
B( 12-C , 15-H ) :   0.9735 B( 16-S , 17-C ) :   1.1567 B( 16-S , 20-C ) :   1.1055
B( 17-C , 18-C ) :   1.6325 B( 17-C , 33-H ) :   0.9565 B( 18-C , 19-C ) :   1.2278
B( 18-C , 21-H ) :   0.9924 B( 19-C , 20-C ) :   1.5822 B( 19-C , 22-C ) :   1.0483
B( 22-C , 23-H ) :   0.9345 B( 22-C , 24-H ) :   0.9246 B( 22-C , 25-C ) :   1.0380
B( 25-C , 26-H ) :   0.9565 B( 25-C , 27-H ) :   0.9614 B( 25-C , 28-C ) :   1.0680
B( 28-C , 29-H ) :   0.9730 B( 28-C , 30-H ) :   0.9767 B( 28-C , 31-H ) :   0.9748

Dispersion correction           -0.013712920
FINAL SINGLE POINT ENERGY     -1339.861299732243

DIPOLE MOMENT
-------------
                                X             Y             Z
Electronic contribution:     23.64839      -2.66192      21.48478
Nuclear contribution   :    -24.22742       2.92358     -21.92640
                        -----------------------------------------
Total Dipole Moment    :     -0.57903       0.26166      -0.44162
                        -----------------------------------------
Magnitude (a.u.)       :      0.77380
Magnitude (Debye)      :      1.96685

Rotational constants in cm-1:     0.018170     0.008498     0.006132
Rotational constants in MHz :   544.737854   254.778181   183.820307

                             ****ORCA TERMINATED NORMALLY****
TOTAL RUN TIME: 0 days 0 hours 0 minutes 34 seconds 76 msec
