                         Program Version 4.2.1 -  RELEASE  -
|  1> ! wB97X-D3 SP def2-SVP
|  2> %pal
|  3> nprocs 16
|  4> end
|  5>
|  6> * xyz 0 1
|  7> S 	 -11.0734 	 51.4475 	 43.6946
|  8> C 	 -12.5523 	 52.3263 	 43.5628
|  9> C 	 -13.1807 	 52.5962 	 44.7225
| 10> C 	 -12.5368 	 51.9806 	 45.8258
| 11> C 	 -11.291 	 51.3731 	 45.4951
| 12> H 	 -12.7099 	 51.8898 	 46.8846
| 13> C 	 -14.56 	 53.2164 	 44.8787
| 14> H 	 -15.1155 	 52.7929 	 44.0217
| 15> H 	 -14.5034 	 54.3475 	 44.6127
| 16> C 	 -15.2851 	 52.9837 	 46.2174
| 17> H 	 -15.4525 	 51.9127 	 46.5081
| 18> H 	 -14.6747 	 53.5165 	 46.9264
| 19> C 	 -16.5781 	 53.7852 	 46.4161
| 20> H 	 -17.3967 	 53.2611 	 45.9585
| 21> H 	 -16.7577 	 54.0021 	 47.452
| 22> H 	 -16.6038 	 54.804 	 45.952
| 23> S 	 -8.60925 	 50.884 	 45.8848
| 24> C 	 -8.09015 	 50.2616 	 47.4471
| 25> C 	 -9.1031 	 50.0487 	 48.3026
| 26> C 	 -10.384 	 50.2526 	 47.6624
| 27> C 	 -10.2708 	 50.7742 	 46.3619
| 28> H 	 -8.8206 	 49.6624 	 49.2729
| 29> C 	 -11.6076 	 49.7919 	 48.3259
| 30> H 	 -11.3868 	 48.754 	 48.563
| 31> H 	 -12.3559 	 49.6873 	 47.4906
| 32> C 	 -11.8963 	 50.5618 	 49.5697
| 33> H 	 -12.0925 	 51.6539 	 49.3536
| 34> H 	 -10.9202 	 50.6212 	 50.1115
| 35> C 	 -13.1045 	 49.9595 	 50.3232
| 36> H 	 -12.7822 	 48.9814 	 50.7402
| 37> H 	 -13.898 	 49.7005 	 49.652
| 38> H 	 -13.3653 	 50.6327 	 51.1709
| 39> H 	 -13.0099 	 52.6202 	 42.6568
| 40> H 	 -7.08752 	 50.1932 	 47.8039
| 41> *
| 42>
| 43>                          ****END OF INPUT****

CARTESIAN COORDINATES (ANGSTROEM)
---------------------------------
  S    -11.073400   51.447500   43.694600
  C    -12.552300   52.326300   43.562800
  C    -13.180700   52.596200   44.722500
  C    -12.536800   51.980600   45.825800
  C    -11.291000   51.373100   45.495100
  H    -12.709900   51.889800   46.884600
  C    -14.560000   53.216400   44.878700
  H    -15.115500   52.792900   44.021700
  H    -14.503400   54.347500   44.612700
  C    -15.285100   52.983700   46.217400
  H    -15.452500   51.912700   46.508100
  H    -14.674700   53.516500   46.926400
  C    -16.578100   53.785200   46.416100
  H    -17.396700   53.261100   45.958500
  H    -16.757700   54.002100   47.452000
  H    -16.603800   54.804000   45.952000
  S     -8.609250   50.884000   45.884800
  C     -8.090150   50.261600   47.447100
  C     -9.103100   50.048700   48.302600
  C    -10.384000   50.252600   47.662400
  C    -10.270800   50.774200   46.361900
  H     -8.820600   49.662400   49.272900
  C    -11.607600   49.791900   48.325900
  H    -11.386800   48.754000   48.563000
  H    -12.355900   49.687300   47.490600
  C    -11.896300   50.561800   49.569700
  H    -12.092500   51.653900   49.353600
  H    -10.920200   50.621200   50.111500
  C    -13.104500   49.959500   50.323200
  H    -12.782200   48.981400   50.740200
  H    -13.898000   49.700500   49.652000
  H    -13.365300   50.632700   51.170900
  H    -13.009900   52.620200   42.656800
  H     -7.087520   50.193200   47.803900

 Total Charge           Charge          ....    0
 Multiplicity           Mult            ....    1
 Number of Electrons    NEL             ....  134
 Basis Dimension        Dim             ....  322

ORBITAL ENERGIES
----------------

  NO   OCC          E(Eh)            E(eV)
   0   2.0000     -88.966573     -2420.9035
   1   2.0000     -88.964455     -2420.8459
   2   2.0000     -10.336214      -281.2627
   3   2.0000     -10.327972      -281.0384
   4   2.0000     -10.311462      -280.5891
   5   2.0000     -10.304967      -280.4124
   6   2.0000     -10.302442      -280.3437
   7   2.0000     -10.301096      -280.3071
   8   2.0000     -10.297882      -280.2196
   9   2.0000     -10.295531      -280.1557
  10   2.0000     -10.294221      -280.1200
  11   2.0000     -10.292706      -280.0788
  12   2.0000     -10.290803      -280.0270
  13   2.0000     -10.287089      -279.9259
  14   2.0000     -10.284467      -279.8546
  15   2.0000     -10.278470      -279.6914
  16   2.0000      -8.080620      -219.8848
  17   2.0000      -8.079477      -219.8537
  18   2.0000      -6.039152      -164.3337
  19   2.0000      -6.038078      -164.3044
  20   2.0000      -6.035312      -164.2292
  21   2.0000      -6.034049      -164.1948
  22   2.0000      -6.031323      -164.1207
  23   2.0000      -6.030025      -164.0853
  24   2.0000      -1.005407       -27.3585
  25   2.0000      -0.984945       -26.8017
  26   2.0000      -0.919951       -25.0332
  27   2.0000      -0.908797       -24.7296
  28   2.0000      -0.874675       -23.8011
  29   2.0000      -0.851854       -23.1801
  30   2.0000      -0.846674       -23.0392
  31   2.0000      -0.820161       -22.3177
  32   2.0000      -0.780321       -21.2336
  33   2.0000      -0.769511       -20.9395
  34   2.0000      -0.713834       -19.4244
  35   2.0000      -0.701573       -19.0908
  36   2.0000      -0.690242       -18.7824
  37   2.0000      -0.661318       -17.9954
  38   2.0000      -0.640334       -17.4244
  39   2.0000      -0.616093       -16.7647
  40   2.0000      -0.594765       -16.1844
  41   2.0000      -0.573359       -15.6019
  42   2.0000      -0.568302       -15.4643
  43   2.0000      -0.558584       -15.1998
  44   2.0000      -0.539087       -14.6693
  45   2.0000      -0.526450       -14.3254
  46   2.0000      -0.512745       -13.9525
  47   2.0000      -0.505364       -13.7517
  48   2.0000      -0.501640       -13.6503
  49   2.0000      -0.499770       -13.5994
  50   2.0000      -0.493446       -13.4274
  51   2.0000      -0.484251       -13.1771
  52   2.0000      -0.471992       -12.8436
  53   2.0000      -0.463353       -12.6085
  54   2.0000      -0.460593       -12.5334
  55   2.0000      -0.452859       -12.3229
  56   2.0000      -0.447737       -12.1835
  57   2.0000      -0.438161       -11.9230
  58   2.0000      -0.433811       -11.8046
  59   2.0000      -0.426489       -11.6054
  60   2.0000      -0.417929       -11.3724
  61   2.0000      -0.412419       -11.2225
  62   2.0000      -0.409193       -11.1347
  63   2.0000      -0.360237        -9.8026
  64   2.0000      -0.334388        -9.0991
  65   2.0000      -0.326085        -8.8732
  66   2.0000      -0.278901        -7.5893
  67   0.0000       0.022190         0.6038
  68   0.0000       0.081601         2.2205
  69   0.0000       0.102934         2.8010
  70   0.0000       0.122322         3.3285
  71   0.0000       0.128088         3.4854

MULLIKEN ATOMIC CHARGES
-----------------------
   0 S :    0.103286
   1 C :   -0.096198
   2 C :   -0.038394
   3 C :    0.008136
   4 C :   -0.169787
   5 H :   -0.000882
   6 C :    0.017759
   7 H :    0.029931
   8 H :    0.050121
   9 C :   -0.085730
  10 H :    0.054968
  11 H :    0.033994
  12 C :   -0.039060
  13 H :    0.028184
  14 H :    0.031552
  15 H :    0.026307
  16 S :    0.097469
  17 C :   -0.069129
  18 C :   -0.038955
  19 C :   -0.080560
  20 C :   -0.103021
  21 H :    0.022396
  22 C :    0.039458
  23 H :    0.026901
  24 H :    0.034241
  25 C :   -0.114656
  26 H :    0.038082
  27 H :    0.034649
  28 C :   -0.012416
  29 H :    0.025887
  30 H :    0.032980
  31 H :    0.048088
  32 H :    0.022297
  33 H :    0.042101
Sum of atomic charges:    0.0000000

LOEWDIN ATOMIC CHARGES
----------------------
   0 S :    0.384844
   1 C :   -0.194980
   2 C :   -0.070660
   3 C :   -0.062545
   4 C :   -0.167939
   5 H :    0.030172
   6 C :   -0.039085
   7 H :    0.030620
   8 H :    0.044246
   9 C :   -0.048572
  10 H :    0.035412
  11 H :    0.026949
  12 C :   -0.064307
  13 H :    0.019823
  14 H :    0.024407
  15 H :    0.030038
  16 S :    0.400154
  17 C :   -0.172991
  18 C :   -0.073295
  19 C :   -0.056916
  20 C :   -0.207681
  21 H :    0.035176
  22 C :   -0.048744
  23 H :    0.034478
  24 H :    0.035421
  25 C :   -0.048263
  26 H :    0.026779
  27 H :    0.030301
  28 C :   -0.064062
  29 H :    0.027558
  30 H :    0.024550
  31 H :    0.032285
  32 H :    0.020853
  33 H :    0.025973

  Mayer bond orders larger than 0.100000
B(  0-S ,  1-C ) :   1.1346 B(  0-S ,  4-C ) :   1.1342 B(  1-C ,  2-C ) :   1.6456
B(  1-C ,  4-C ) :   0.1001 B(  1-C , 32-H ) :   0.9678 B(  2-C ,  3-C ) :   1.2229
B(  2-C ,  6-C ) :   0.9941 B(  3-C ,  4-C ) :   1.5738 B(  3-C ,  5-H ) :   0.9875
B(  4-C , 20-C ) :   1.0668 B(  6-C ,  7-H ) :   0.9446 B(  6-C ,  8-H ) :   0.9305
B(  6-C ,  9-C ) :   1.0924 B(  9-C , 10-H ) :   0.9520 B(  9-C , 11-H ) :   0.9452
B(  9-C , 12-C ) :   1.0768 B( 12-C , 13-H ) :   0.9751 B( 12-C , 14-H ) :   0.9784
B( 12-C , 15-H ) :   0.9718 B( 16-S , 17-C ) :   1.1358 B( 16-S , 20-C ) :   1.1240
B( 17-C , 18-C ) :   1.6723 B( 17-C , 33-H ) :   0.9628 B( 18-C , 19-C ) :   1.2029
B( 18-C , 21-H ) :   0.9855 B( 19-C , 20-C ) :   1.5959 B( 19-C , 22-C ) :   1.0418
B( 22-C , 23-H ) :   0.9307 B( 22-C , 24-H ) :   0.9350 B( 22-C , 25-C ) :   1.0446
B( 25-C , 26-H ) :   0.9518 B( 25-C , 27-H ) :   0.9539 B( 25-C , 28-C ) :   1.0700
B( 28-C , 29-H ) :   0.9734 B( 28-C , 30-H ) :   0.9718 B( 28-C , 31-H ) :   0.9747

Dispersion correction           -0.013891484
FINAL SINGLE POINT ENERGY     -1339.863878547873

DIPOLE MOMENT
-------------
                                X             Y             Z
Electronic contribution:     26.93258      -4.09978     -19.31822
Nuclear contribution   :    -27.41892       4.10802      19.93264
                        -----------------------------------------
Total Dipole Moment    :     -0.48634       0.00825       0.61441
                        -----------------------------------------
Magnitude (a.u.)       :      0.78364
Magnitude (Debye)      :      1.99186

Rotational constants in cm-1:     0.016249     0.009826     0.006374
Rotational constants in MHz :   487.140231   294.577582   191.086900

                             ****ORCA TERMINATED NORMALLY****
TOTAL RUN TIME: 0 days 0 hours 0 minutes 33 seconds 906 msec
