                         Program Version 4.2.1 -  RELEASE  -
|  1> ! wB97X-D3 SP def2-SVP
|  2> %pal
|  3> nprocs 16
|  4> end
|  5>
|  6> * xyz 0 1
|  7> S 	 -1.79953 	 49.2047 	 45.4578
|  8> C 	 -1.72257 	 50.9255 	 45.5239
|  9> C 	 -2.9887 	 51.475 	 45.6022
| 10> C 	 -3.97635 	 50.4454 	 45.5336
| 11> C 	 -3.5225 	 49.1805 	 45.5025
| 12> H 	 -5.04176 	 50.4152 	 45.3655
| 13> C 	 -3.24079 	 52.952 	 45.4071
| 14> H 	 -3.87147 	 53.0746 	 44.5402
| 15> H 	 -2.34768 	 53.4392 	 45.0848
| 16> C 	 -3.6591 	 53.819 	 46.6173
| 17> H 	 -3.18581 	 53.3644 	 47.4802
| 18> H 	 -3.5018 	 54.8796 	 46.3717
| 19> C 	 -5.10933 	 53.6096 	 47.0114
| 20> H 	 -5.77422 	 53.7637 	 46.1945
| 21> H 	 -5.29727 	 52.556 	 47.2891
| 22> H 	 -5.38465 	 54.2569 	 47.8202
| 23> S 	 -4.31104 	 47.2105 	 43.9165
| 24> C 	 -5.55436 	 46.1229 	 44.367
| 25> C 	 -5.71211 	 46.1635 	 45.7636
| 26> C 	 -5.05201 	 47.3246 	 46.2959
| 27> C 	 -4.27495 	 47.9811 	 45.4252
| 28> H 	 -6.42134 	 45.5467 	 46.2148
| 29> C 	 -5.29913 	 47.7759 	 47.748
| 30> H 	 -4.57175 	 48.5332 	 48.0294
| 31> H 	 -5.05192 	 46.9383 	 48.4444
| 32> C 	 -6.71598 	 48.2309 	 48.0466
| 33> H 	 -6.87697 	 48.4419 	 49.1671
| 34> H 	 -7.43489 	 47.4568 	 47.8899
| 35> C 	 -7.24464 	 49.4507 	 47.3272
| 36> H 	 -6.68732 	 50.2816 	 47.6183
| 37> H 	 -8.24989 	 49.6756 	 47.7168
| 38> H 	 -7.36547 	 49.3912 	 46.2286
| 39> H 	 -0.814848 	 51.4039 	 45.4974
| 40> H 	 -6.08953 	 45.4747 	 43.6581
| 41> *
| 42>
| 43>                          ****END OF INPUT****

CARTESIAN COORDINATES (ANGSTROEM)
---------------------------------
  S     -1.799530   49.204700   45.457800
  C     -1.722570   50.925500   45.523900
  C     -2.988700   51.475000   45.602200
  C     -3.976350   50.445400   45.533600
  C     -3.522500   49.180500   45.502500
  H     -5.041760   50.415200   45.365500
  C     -3.240790   52.952000   45.407100
  H     -3.871470   53.074600   44.540200
  H     -2.347680   53.439200   45.084800
  C     -3.659100   53.819000   46.617300
  H     -3.185810   53.364400   47.480200
  H     -3.501800   54.879600   46.371700
  C     -5.109330   53.609600   47.011400
  H     -5.774220   53.763700   46.194500
  H     -5.297270   52.556000   47.289100
  H     -5.384650   54.256900   47.820200
  S     -4.311040   47.210500   43.916500
  C     -5.554360   46.122900   44.367000
  C     -5.712110   46.163500   45.763600
  C     -5.052010   47.324600   46.295900
  C     -4.274950   47.981100   45.425200
  H     -6.421340   45.546700   46.214800
  C     -5.299130   47.775900   47.748000
  H     -4.571750   48.533200   48.029400
  H     -5.051920   46.938300   48.444400
  C     -6.715980   48.230900   48.046600
  H     -6.876970   48.441900   49.167100
  H     -7.434890   47.456800   47.889900
  C     -7.244640   49.450700   47.327200
  H     -6.687320   50.281600   47.618300
  H     -8.249890   49.675600   47.716800
  H     -7.365470   49.391200   46.228600
  H     -0.814848   51.403900   45.497400
  H     -6.089530   45.474700   43.658100

 Total Charge           Charge          ....    0
 Multiplicity           Mult            ....    1
 Number of Electrons    NEL             ....  134
 Basis Dimension        Dim             ....  322

ORBITAL ENERGIES
----------------

  NO   OCC          E(Eh)            E(eV)
   0   2.0000     -88.960661     -2420.7426
   1   2.0000     -88.959977     -2420.7241
   2   2.0000     -10.321275      -280.8562
   3   2.0000     -10.316922      -280.7377
   4   2.0000     -10.313073      -280.6330
   5   2.0000     -10.308991      -280.5219
   6   2.0000     -10.303124      -280.3623
   7   2.0000     -10.301392      -280.3151
   8   2.0000     -10.293927      -280.1120
   9   2.0000     -10.291590      -280.0484
  10   2.0000     -10.287405      -279.9345
  11   2.0000     -10.286542      -279.9110
  12   2.0000     -10.285530      -279.8835
  13   2.0000     -10.284194      -279.8471
  14   2.0000     -10.271303      -279.4964
  15   2.0000     -10.267514      -279.3933
  16   2.0000      -8.077717      -219.8058
  17   2.0000      -8.076176      -219.7639
  18   2.0000      -6.035996      -164.2478
  19   2.0000      -6.034476      -164.2064
  20   2.0000      -6.031848      -164.1349
  21   2.0000      -6.030397      -164.0954
  22   2.0000      -6.028585      -164.0461
  23   2.0000      -6.027162      -164.0074
  24   2.0000      -1.022384       -27.8205
  25   2.0000      -0.995321       -27.0840
  26   2.0000      -0.913435       -24.8558
  27   2.0000      -0.908795       -24.7296
  28   2.0000      -0.879635       -23.9361
  29   2.0000      -0.851327       -23.1658
  30   2.0000      -0.847705       -23.0672
  31   2.0000      -0.822873       -22.3915
  32   2.0000      -0.785821       -21.3833
  33   2.0000      -0.777209       -21.1489
  34   2.0000      -0.705437       -19.1959
  35   2.0000      -0.697777       -18.9875
  36   2.0000      -0.694478       -18.8977
  37   2.0000      -0.665808       -18.1175
  38   2.0000      -0.658719       -17.9247
  39   2.0000      -0.615015       -16.7354
  40   2.0000      -0.598536       -16.2870
  41   2.0000      -0.581418       -15.8212
  42   2.0000      -0.552994       -15.0477
  43   2.0000      -0.548993       -14.9389
  44   2.0000      -0.542816       -14.7708
  45   2.0000      -0.540030       -14.6950
  46   2.0000      -0.527146       -14.3444
  47   2.0000      -0.519764       -14.1435
  48   2.0000      -0.512893       -13.9565
  49   2.0000      -0.497746       -13.5443
  50   2.0000      -0.494431       -13.4541
  51   2.0000      -0.488571       -13.2947
  52   2.0000      -0.471468       -12.8293
  53   2.0000      -0.466387       -12.6910
  54   2.0000      -0.461183       -12.5494
  55   2.0000      -0.442875       -12.0512
  56   2.0000      -0.436501       -11.8778
  57   2.0000      -0.434818       -11.8320
  58   2.0000      -0.427444       -11.6314
  59   2.0000      -0.423961       -11.5366
  60   2.0000      -0.417312       -11.3556
  61   2.0000      -0.410778       -11.1778
  62   2.0000      -0.409061       -11.1311
  63   2.0000      -0.341477        -9.2921
  64   2.0000      -0.330761        -9.0005
  65   2.0000      -0.326858        -8.8943
  66   2.0000      -0.307632        -8.3711
  67   0.0000       0.048905         1.3308
  68   0.0000       0.058619         1.5951
  69   0.0000       0.117453         3.1961
  70   0.0000       0.121222         3.2986
  71   0.0000       0.138997         3.7823

MULLIKEN ATOMIC CHARGES
-----------------------
   0 S :    0.109282
   1 C :   -0.094016
   2 C :   -0.050426
   3 C :    0.052785
   4 C :   -0.194472
   5 H :    0.001294
   6 C :    0.065547
   7 H :    0.026027
   8 H :    0.002679
   9 C :   -0.054778
  10 H :    0.031516
  11 H :    0.041707
  12 C :   -0.050878
  13 H :    0.009658
  14 H :    0.029791
  15 H :    0.031947
  16 S :    0.119964
  17 C :   -0.118031
  18 C :   -0.006231
  19 C :   -0.032808
  20 C :   -0.170583
  21 H :    0.003067
  22 C :    0.091482
  23 H :    0.027220
  24 H :    0.032903
  25 C :   -0.097927
  26 H :    0.033610
  27 H :    0.014952
  28 C :   -0.034378
  29 H :    0.015468
  30 H :    0.021537
  31 H :    0.048127
  32 H :    0.022152
  33 H :    0.071811
Sum of atomic charges:   -0.0000000

LOEWDIN ATOMIC CHARGES
----------------------
   0 S :    0.420510
   1 C :   -0.177483
   2 C :   -0.064652
   3 C :   -0.064729
   4 C :   -0.209212
   5 H :    0.034083
   6 C :   -0.031302
   7 H :    0.029599
   8 H :    0.026915
   9 C :   -0.037358
  10 H :    0.030494
  11 H :    0.028765
  12 C :   -0.066895
  13 H :    0.013956
  14 H :    0.025663
  15 H :    0.022147
  16 S :    0.444546
  17 C :   -0.189488
  18 C :   -0.064801
  19 C :   -0.052352
  20 C :   -0.228491
  21 H :    0.020693
  22 C :   -0.032489
  23 H :    0.029304
  24 H :    0.038756
  25 C :   -0.047996
  26 H :    0.034868
  27 H :    0.015678
  28 C :   -0.066129
  29 H :    0.013860
  30 H :    0.030585
  31 H :    0.027076
  32 H :    0.011250
  33 H :    0.034629

  Mayer bond orders larger than 0.100000
B(  0-S ,  1-C ) :   1.1646 B(  0-S ,  4-C ) :   1.1455 B(  1-C ,  2-C ) :   1.5871
B(  1-C , 32-H ) :   0.9845 B(  2-C ,  3-C ) :   1.1997 B(  2-C ,  6-C ) :   1.0283
B(  3-C ,  4-C ) :   1.6293 B(  3-C ,  5-H ) :   0.9909 B(  4-C , 20-C ) :   0.9975
B(  6-C ,  7-H ) :   0.9436 B(  6-C ,  8-H ) :   0.9381 B(  6-C ,  9-C ) :   1.0654
B(  9-C , 10-H ) :   0.9531 B(  9-C , 11-H ) :   0.9564 B(  9-C , 12-C ) :   1.0855
B( 12-C , 13-H ) :   0.9725 B( 12-C , 14-H ) :   0.9744 B( 12-C , 15-H ) :   0.9727
B( 16-S , 17-C ) :   1.1895 B( 16-S , 20-C ) :   1.1503 B( 17-C , 18-C ) :   1.5747
B( 17-C , 33-H ) :   0.9688 B( 18-C , 19-C ) :   1.2283 B( 18-C , 21-H ) :   1.0032
B( 19-C , 20-C ) :   1.6318 B( 19-C , 22-C ) :   1.0405 B( 22-C , 23-H ) :   0.9361
B( 22-C , 24-H ) :   0.9323 B( 22-C , 25-C ) :   1.0723 B( 25-C , 26-H ) :   0.9514
B( 25-C , 27-H ) :   0.9558 B( 25-C , 28-C ) :   1.0881 B( 28-C , 29-H ) :   0.9732
B( 28-C , 30-H ) :   0.9633 B( 28-C , 31-H ) :   0.9689

Dispersion correction           -0.015616882
FINAL SINGLE POINT ENERGY     -1339.868479345829

DIPOLE MOMENT
-------------
                                X             Y             Z
Electronic contribution:     16.28159     -18.98194     -14.79677
Nuclear contribution   :    -16.73173      19.23615      14.95752
                        -----------------------------------------
Total Dipole Moment    :     -0.45014       0.25421       0.16075
                        -----------------------------------------
Magnitude (a.u.)       :      0.54138
Magnitude (Debye)      :      1.37607

Rotational constants in cm-1:     0.019002     0.009970     0.007478
Rotational constants in MHz :   569.677601   298.884108   224.191161

                             ****ORCA TERMINATED NORMALLY****
TOTAL RUN TIME: 0 days 0 hours 0 minutes 36 seconds 200 msec
