                         Program Version 4.2.1 -  RELEASE  -
|  1> ! wB97X-D3 SP def2-SVP
|  2> %pal
|  3> nprocs 16
|  4> end
|  5>
|  6> * xyz 0 1
|  7> S 	 51.0574 	 8.88213 	 102.82
|  8> C 	 52.0876 	 9.29727 	 104.139
|  9> C 	 53.395 	 9.46116 	 103.753
| 10> C 	 53.5651 	 9.22466 	 102.309
| 11> C 	 52.3712 	 8.74386 	 101.717
| 12> H 	 54.527 	 9.29954 	 101.715
| 13> C 	 54.5805 	 9.67711 	 104.624
| 14> H 	 55.4568 	 9.61755 	 104.031
| 15> H 	 54.6105 	 8.81123 	 105.312
| 16> C 	 54.5972 	 10.9277 	 105.448
| 17> H 	 54.714 	 11.7337 	 104.807
| 18> H 	 53.5803 	 11.0768 	 105.925
| 19> C 	 55.7629 	 10.9157 	 106.419
| 20> H 	 56.717 	 10.7215 	 105.99
| 21> H 	 55.9812 	 11.8409 	 107.021
| 22> H 	 55.5283 	 10.1153 	 107.169
| 23> S 	 53.4601 	 7.33958 	 99.5401
| 24> C 	 52.7245 	 7.59552 	 97.9783
| 25> C 	 51.5104 	 8.21348 	 98.057
| 26> C 	 51.2237 	 8.64736 	 99.3502
| 27> C 	 52.2204 	 8.32679 	 100.318
| 28> H 	 50.8152 	 8.33103 	 97.2527
| 29> C 	 49.9066 	 9.46065 	 99.6446
| 30> H 	 50.2371 	 10.4963 	 99.777
| 31> H 	 49.501 	 9.07827 	 100.548
| 32> C 	 48.8025 	 9.44897 	 98.5844
| 33> H 	 49.2276 	 9.84665 	 97.6609
| 34> H 	 48.1226 	 10.3221 	 98.7761
| 35> C 	 48.0579 	 8.13669 	 98.5645
| 36> H 	 48.6497 	 7.21745 	 98.6989
| 37> H 	 47.3494 	 8.00849 	 97.7346
| 38> H 	 47.5372 	 8.04644 	 99.4973
| 39> H 	 51.7308 	 9.3449 	 105.166
| 40> H 	 52.9869 	 7.05394 	 97.0479
| 41> *
| 42>
| 43>                          ****END OF INPUT****

CARTESIAN COORDINATES (ANGSTROEM)
---------------------------------
  S     51.057400    8.882130  102.820000
  C     52.087600    9.297270  104.139000
  C     53.395000    9.461160  103.753000
  C     53.565100    9.224660  102.309000
  C     52.371200    8.743860  101.717000
  H     54.527000    9.299540  101.715000
  C     54.580500    9.677110  104.624000
  H     55.456800    9.617550  104.031000
  H     54.610500    8.811230  105.312000
  C     54.597200   10.927700  105.448000
  H     54.714000   11.733700  104.807000
  H     53.580300   11.076800  105.925000
  C     55.762900   10.915700  106.419000
  H     56.717000   10.721500  105.990000
  H     55.981200   11.840900  107.021000
  H     55.528300   10.115300  107.169000
  S     53.460100    7.339580   99.540100
  C     52.724500    7.595520   97.978300
  C     51.510400    8.213480   98.057000
  C     51.223700    8.647360   99.350200
  C     52.220400    8.326790  100.318000
  H     50.815200    8.331030   97.252700
  C     49.906600    9.460650   99.644600
  H     50.237100   10.496300   99.777000
  H     49.501000    9.078270  100.548000
  C     48.802500    9.448970   98.584400
  H     49.227600    9.846650   97.660900
  H     48.122600   10.322100   98.776100
  C     48.057900    8.136690   98.564500
  H     48.649700    7.217450   98.698900
  H     47.349400    8.008490   97.734600
  H     47.537200    8.046440   99.497300
  H     51.730800    9.344900  105.166000
  H     52.986900    7.053940   97.047900

 Total Charge           Charge          ....    0
 Multiplicity           Mult            ....    1
 Number of Electrons    NEL             ....  134
 Basis Dimension        Dim             ....  322

ORBITAL ENERGIES
----------------

  NO   OCC          E(Eh)            E(eV)
   0   2.0000     -88.970000     -2420.9968
   1   2.0000     -88.967092     -2420.9176
   2   2.0000     -10.332161      -281.1524
   3   2.0000     -10.330149      -281.0976
   4   2.0000     -10.315634      -280.7027
   5   2.0000     -10.310873      -280.5731
   6   2.0000     -10.302766      -280.3525
   7   2.0000     -10.302458      -280.3441
   8   2.0000     -10.301496      -280.3180
   9   2.0000     -10.291167      -280.0369
  10   2.0000     -10.290110      -280.0081
  11   2.0000     -10.286232      -279.9026
  12   2.0000     -10.284988      -279.8688
  13   2.0000     -10.281986      -279.7871
  14   2.0000     -10.281096      -279.7628
  15   2.0000     -10.278106      -279.6815
  16   2.0000      -8.083974      -219.9761
  17   2.0000      -8.082277      -219.9299
  18   2.0000      -6.042484      -164.4243
  19   2.0000      -6.040847      -164.3798
  20   2.0000      -6.038578      -164.3181
  21   2.0000      -6.036640      -164.2653
  22   2.0000      -6.034807      -164.2155
  23   2.0000      -6.033058      -164.1679
  24   2.0000      -1.004888       -27.3444
  25   2.0000      -0.985411       -26.8144
  26   2.0000      -0.921040       -25.0628
  27   2.0000      -0.910032       -24.7632
  28   2.0000      -0.869119       -23.6499
  29   2.0000      -0.851795       -23.1785
  30   2.0000      -0.842988       -22.9389
  31   2.0000      -0.810321       -22.0500
  32   2.0000      -0.782971       -21.3057
  33   2.0000      -0.772068       -21.0091
  34   2.0000      -0.710128       -19.3236
  35   2.0000      -0.704708       -19.1761
  36   2.0000      -0.694417       -18.8960
  37   2.0000      -0.657314       -17.8864
  38   2.0000      -0.638228       -17.3671
  39   2.0000      -0.609705       -16.5909
  40   2.0000      -0.594737       -16.1836
  41   2.0000      -0.576644       -15.6913
  42   2.0000      -0.565130       -15.3780
  43   2.0000      -0.559057       -15.2127
  44   2.0000      -0.529476       -14.4078
  45   2.0000      -0.518705       -14.1147
  46   2.0000      -0.515990       -14.0408
  47   2.0000      -0.512970       -13.9586
  48   2.0000      -0.504065       -13.7163
  49   2.0000      -0.501745       -13.6532
  50   2.0000      -0.494820       -13.4647
  51   2.0000      -0.477686       -12.9985
  52   2.0000      -0.471289       -12.8244
  53   2.0000      -0.466531       -12.6950
  54   2.0000      -0.457894       -12.4599
  55   2.0000      -0.456074       -12.4104
  56   2.0000      -0.446785       -12.1576
  57   2.0000      -0.437339       -11.9006
  58   2.0000      -0.432997       -11.7824
  59   2.0000      -0.430995       -11.7280
  60   2.0000      -0.420248       -11.4355
  61   2.0000      -0.415571       -11.3083
  62   2.0000      -0.401136       -10.9155
  63   2.0000      -0.350551        -9.5390
  64   2.0000      -0.335112        -9.1189
  65   2.0000      -0.326054        -8.8724
  66   2.0000      -0.283770        -7.7218
  67   0.0000       0.025094         0.6828
  68   0.0000       0.075065         2.0426
  69   0.0000       0.112705         3.0669
  70   0.0000       0.121085         3.2949
  71   0.0000       0.126397         3.4394

MULLIKEN ATOMIC CHARGES
-----------------------
   0 S :    0.107145
   1 C :   -0.122352
   2 C :   -0.084728
   3 C :   -0.014699
   4 C :   -0.151430
   5 H :    0.043534
   6 C :    0.076345
   7 H :    0.003470
   8 H :    0.033708
   9 C :   -0.044026
  10 H :    0.010158
  11 H :    0.033940
  12 C :   -0.061210
  13 H :    0.023664
  14 H :    0.038947
  15 H :    0.031171
  16 S :    0.118731
  17 C :   -0.087898
  18 C :   -0.033901
  19 C :   -0.068618
  20 C :   -0.153528
  21 H :    0.015140
  22 C :    0.069974
  23 H :    0.044843
  24 H :    0.018368
  25 C :   -0.078310
  26 H :    0.019434
  27 H :    0.031999
  28 C :   -0.033553
  29 H :    0.034818
  30 H :    0.045140
  31 H :    0.017058
  32 H :    0.051645
  33 H :    0.065020
Sum of atomic charges:   -0.0000000

LOEWDIN ATOMIC CHARGES
----------------------
   0 S :    0.435836
   1 C :   -0.210639
   2 C :   -0.060241
   3 C :   -0.074695
   4 C :   -0.203456
   5 H :    0.040138
   6 C :   -0.031229
   7 H :    0.024289
   8 H :    0.036975
   9 C :   -0.038559
  10 H :    0.014623
  11 H :    0.030057
  12 C :   -0.070548
  13 H :    0.020060
  14 H :    0.031401
  15 H :    0.029162
  16 S :    0.414889
  17 C :   -0.194708
  18 C :   -0.074648
  19 C :   -0.054579
  20 C :   -0.202340
  21 H :    0.030926
  22 C :   -0.028039
  23 H :    0.038231
  24 H :    0.012112
  25 C :   -0.051363
  26 H :    0.019271
  27 H :    0.034992
  28 C :   -0.073614
  29 H :    0.031908
  30 H :    0.029445
  31 H :    0.027872
  32 H :    0.029496
  33 H :    0.036975

  Mayer bond orders larger than 0.100000
B(  0-S ,  1-C ) :   1.1350 B(  0-S ,  4-C ) :   1.1723 B(  1-C ,  2-C ) :   1.6089
B(  1-C , 32-H ) :   0.9691 B(  2-C ,  3-C ) :   1.2418 B(  2-C ,  6-C ) :   1.0231
B(  3-C ,  4-C ) :   1.5473 B(  3-C ,  5-H ) :   0.9787 B(  4-C , 20-C ) :   1.0559
B(  6-C ,  7-H ) :   0.9359 B(  6-C ,  8-H ) :   0.9392 B(  6-C ,  9-C ) :   1.0613
B(  9-C , 10-H ) :   0.9505 B(  9-C , 11-H ) :   0.9587 B(  9-C , 12-C ) :   1.0766
B( 12-C , 13-H ) :   0.9726 B( 12-C , 14-H ) :   0.9745 B( 12-C , 15-H ) :   0.9758
B( 16-S , 17-C ) :   1.1658 B( 16-S , 20-C ) :   1.1495 B( 17-C , 18-C ) :   1.5697
B( 17-C , 20-C ) :   0.1033 B( 17-C , 33-H ) :   0.9542 B( 18-C , 19-C ) :   1.3167
B( 18-C , 21-H ) :   0.9839 B( 19-C , 20-C ) :   1.5427 B( 19-C , 22-C ) :   1.0001
B( 22-C , 23-H ) :   0.9264 B( 22-C , 24-H ) :   0.9402 B( 22-C , 25-C ) :   1.1029
B( 25-C , 26-H ) :   0.9461 B( 25-C , 27-H ) :   0.9477 B( 25-C , 28-C ) :   1.0593
B( 28-C , 29-H ) :   0.9766 B( 28-C , 30-H ) :   0.9757 B( 28-C , 31-H ) :   0.9647

Dispersion correction           -0.013705645
FINAL SINGLE POINT ENERGY     -1339.876124899150

DIPOLE MOMENT
-------------
                                X             Y             Z
Electronic contribution:      2.20884      -9.81162      -7.65394
Nuclear contribution   :     -2.28685      10.00738       7.67879
                        -----------------------------------------
Total Dipole Moment    :     -0.07801       0.19576       0.02485
                        -----------------------------------------
Magnitude (a.u.)       :      0.21219
Magnitude (Debye)      :      0.53935

Rotational constants in cm-1:     0.026708     0.006647     0.005638
Rotational constants in MHz :   800.675557   199.279674   169.034512

                             ****ORCA TERMINATED NORMALLY****
TOTAL RUN TIME: 0 days 0 hours 0 minutes 29 seconds 68 msec
