                         Program Version 4.2.1 -  RELEASE  -
|  1> ! wB97X-D3 SP def2-SVP
|  2> %pal
|  3> nprocs 16
|  4> end
|  5>
|  6> * xyz 0 1
|  7> S 	 -43.5258 	 37.6109 	 81.5712
|  8> C 	 -41.969 	 38.1916 	 80.9352
|  9> C 	 -41.169 	 37.1132 	 80.6141
| 10> C 	 -41.7746 	 35.8724 	 80.9996
| 11> C 	 -43.074 	 35.9782 	 81.3836
| 12> H 	 -41.4386 	 34.8521 	 80.8642
| 13> C 	 -39.8111 	 37.2095 	 79.8816
| 14> H 	 -39.9389 	 37.8238 	 79.0075
| 15> H 	 -39.627 	 36.3023 	 79.3447
| 16> C 	 -38.6046 	 37.5325 	 80.8361
| 17> H 	 -38.8403 	 38.5744 	 81.1857
| 18> H 	 -38.5969 	 37.013 	 81.7745
| 19> C 	 -37.155 	 37.4794 	 80.1413
| 20> H 	 -36.3746 	 37.8071 	 80.8497
| 21> H 	 -36.8062 	 36.5304 	 79.7309
| 22> H 	 -37.0853 	 38.165 	 79.3151
| 23> S 	 -45.2728 	 34.8197 	 80.3294
| 24> C 	 -46.0364 	 33.427 	 81.0349
| 25> C 	 -45.3725 	 33.0561 	 82.1523
| 26> C 	 -44.1326 	 33.7389 	 82.3466
| 27> C 	 -43.9914 	 34.8466 	 81.5023
| 28> H 	 -45.7033 	 32.2326 	 82.824
| 29> C 	 -43.1947 	 33.3814 	 83.4678
| 30> H 	 -43.7493 	 32.8321 	 84.2222
| 31> H 	 -42.9827 	 34.3117 	 84.0003
| 32> C 	 -41.8761 	 32.7051 	 83.0368
| 33> H 	 -41.4144 	 33.3607 	 82.3154
| 34> H 	 -42.0922 	 31.754 	 82.4867
| 35> C 	 -40.9196 	 32.4365 	 84.2076
| 36> H 	 -41.3097 	 31.6371 	 84.7499
| 37> H 	 -40.7448 	 33.2704 	 84.8721
| 38> H 	 -39.8576 	 32.2223 	 83.9098
| 39> H 	 -41.7263 	 39.2583 	 80.6676
| 40> H 	 -46.9028 	 32.9152 	 80.6579
| 41> *
| 42>
| 43>                          ****END OF INPUT****

CARTESIAN COORDINATES (ANGSTROEM)
---------------------------------
  S    -43.525800   37.610900   81.571200
  C    -41.969000   38.191600   80.935200
  C    -41.169000   37.113200   80.614100
  C    -41.774600   35.872400   80.999600
  C    -43.074000   35.978200   81.383600
  H    -41.438600   34.852100   80.864200
  C    -39.811100   37.209500   79.881600
  H    -39.938900   37.823800   79.007500
  H    -39.627000   36.302300   79.344700
  C    -38.604600   37.532500   80.836100
  H    -38.840300   38.574400   81.185700
  H    -38.596900   37.013000   81.774500
  C    -37.155000   37.479400   80.141300
  H    -36.374600   37.807100   80.849700
  H    -36.806200   36.530400   79.730900
  H    -37.085300   38.165000   79.315100
  S    -45.272800   34.819700   80.329400
  C    -46.036400   33.427000   81.034900
  C    -45.372500   33.056100   82.152300
  C    -44.132600   33.738900   82.346600
  C    -43.991400   34.846600   81.502300
  H    -45.703300   32.232600   82.824000
  C    -43.194700   33.381400   83.467800
  H    -43.749300   32.832100   84.222200
  H    -42.982700   34.311700   84.000300
  C    -41.876100   32.705100   83.036800
  H    -41.414400   33.360700   82.315400
  H    -42.092200   31.754000   82.486700
  C    -40.919600   32.436500   84.207600
  H    -41.309700   31.637100   84.749900
  H    -40.744800   33.270400   84.872100
  H    -39.857600   32.222300   83.909800
  H    -41.726300   39.258300   80.667600
  H    -46.902800   32.915200   80.657900

 Total Charge           Charge          ....    0
 Multiplicity           Mult            ....    1
 Number of Electrons    NEL             ....  134
 Basis Dimension        Dim             ....  322

ORBITAL ENERGIES
----------------

  NO   OCC          E(Eh)            E(eV)
   0   2.0000     -88.966665     -2420.9060
   1   2.0000     -88.961661     -2420.7699
   2   2.0000     -10.326184      -280.9898
   3   2.0000     -10.324482      -280.9434
   4   2.0000     -10.320619      -280.8383
   5   2.0000     -10.312758      -280.6244
   6   2.0000     -10.306342      -280.4498
   7   2.0000     -10.302267      -280.3390
   8   2.0000     -10.299074      -280.2520
   9   2.0000     -10.294479      -280.1270
  10   2.0000     -10.292457      -280.0720
  11   2.0000     -10.290077      -280.0072
  12   2.0000     -10.289389      -279.9885
  13   2.0000     -10.288117      -279.9539
  14   2.0000     -10.284967      -279.8682
  15   2.0000     -10.275086      -279.5993
  16   2.0000      -8.081709      -219.9145
  17   2.0000      -8.077055      -219.7879
  18   2.0000      -6.040242      -164.3633
  19   2.0000      -6.036125      -164.2513
  20   2.0000      -6.035566      -164.2361
  21   2.0000      -6.032442      -164.1511
  22   2.0000      -6.031267      -164.1191
  23   2.0000      -6.027966      -164.0293
  24   2.0000      -1.012261       -27.5450
  25   2.0000      -0.988545       -26.8997
  26   2.0000      -0.907298       -24.6888
  27   2.0000      -0.902229       -24.5509
  28   2.0000      -0.868103       -23.6223
  29   2.0000      -0.849429       -23.1141
  30   2.0000      -0.843178       -22.9440
  31   2.0000      -0.816719       -22.2241
  32   2.0000      -0.783468       -21.3193
  33   2.0000      -0.772123       -21.0105
  34   2.0000      -0.711342       -19.3566
  35   2.0000      -0.707095       -19.2410
  36   2.0000      -0.693892       -18.8818
  37   2.0000      -0.661650       -18.0044
  38   2.0000      -0.645433       -17.5631
  39   2.0000      -0.613533       -16.6951
  40   2.0000      -0.594844       -16.1865
  41   2.0000      -0.568765       -15.4769
  42   2.0000      -0.565027       -15.3752
  43   2.0000      -0.543857       -14.7991
  44   2.0000      -0.525186       -14.2910
  45   2.0000      -0.519130       -14.1262
  46   2.0000      -0.517952       -14.0942
  47   2.0000      -0.511482       -13.9181
  48   2.0000      -0.505914       -13.7666
  49   2.0000      -0.501096       -13.6355
  50   2.0000      -0.493485       -13.4284
  51   2.0000      -0.482184       -13.1209
  52   2.0000      -0.469855       -12.7854
  53   2.0000      -0.468068       -12.7368
  54   2.0000      -0.459910       -12.5148
  55   2.0000      -0.450933       -12.2705
  56   2.0000      -0.445300       -12.1172
  57   2.0000      -0.441680       -12.0187
  58   2.0000      -0.431216       -11.7340
  59   2.0000      -0.423312       -11.5189
  60   2.0000      -0.420463       -11.4414
  61   2.0000      -0.416150       -11.3240
  62   2.0000      -0.409906       -11.1541
  63   2.0000      -0.343582        -9.3493
  64   2.0000      -0.332898        -9.0586
  65   2.0000      -0.325689        -8.8624
  66   2.0000      -0.300667        -8.1816
  67   0.0000       0.037273         1.0143
  68   0.0000       0.066303         1.8042
  69   0.0000       0.119788         3.2596
  70   0.0000       0.127083         3.4581
  71   0.0000       0.132521         3.6061

MULLIKEN ATOMIC CHARGES
-----------------------
   0 S :    0.121853
   1 C :   -0.142576
   2 C :   -0.099078
   3 C :    0.042681
   4 C :   -0.155257
   5 H :    0.020460
   6 C :    0.090281
   7 H :    0.023673
   8 H :    0.005740
   9 C :   -0.068190
  10 H :    0.027746
  11 H :    0.035184
  12 C :   -0.057227
  13 H :    0.038006
  14 H :    0.036145
  15 H :    0.025107
  16 S :    0.106264
  17 C :   -0.079436
  18 C :   -0.040238
  19 C :   -0.042911
  20 C :   -0.181736
  21 H :    0.030278
  22 C :    0.064557
  23 H :    0.006920
  24 H :    0.028205
  25 C :   -0.063232
  26 H :    0.010857
  27 H :    0.035465
  28 C :   -0.027710
  29 H :    0.023470
  30 H :    0.024529
  31 H :    0.034626
  32 H :    0.072221
  33 H :    0.053320
Sum of atomic charges:   -0.0000000

LOEWDIN ATOMIC CHARGES
----------------------
   0 S :    0.415216
   1 C :   -0.200347
   2 C :   -0.059288
   3 C :   -0.065370
   4 C :   -0.215087
   5 H :    0.029363
   6 C :   -0.032555
   7 H :    0.031236
   8 H :    0.024702
   9 C :   -0.035431
  10 H :    0.028760
  11 H :    0.023838
  12 C :   -0.071900
  13 H :    0.030862
  14 H :    0.024602
  15 H :    0.021564
  16 S :    0.419271
  17 C :   -0.188308
  18 C :   -0.078090
  19 C :   -0.056932
  20 C :   -0.202018
  21 H :    0.037849
  22 C :   -0.034876
  23 H :    0.025141
  24 H :    0.034203
  25 C :   -0.036510
  26 H :    0.017124
  27 H :    0.029829
  28 C :   -0.064761
  29 H :    0.017132
  30 H :    0.024226
  31 H :    0.033293
  32 H :    0.042491
  33 H :    0.030768

  Mayer bond orders larger than 0.100000
B(  0-S ,  1-C ) :   1.1277 B(  0-S ,  4-C ) :   1.1594 B(  1-C ,  2-C ) :   1.6244
B(  1-C , 32-H ) :   0.9622 B(  2-C ,  3-C ) :   1.2317 B(  2-C ,  6-C ) :   1.0166
B(  3-C ,  4-C ) :   1.5954 B(  3-C ,  5-H ) :   0.9803 B(  4-C , 20-C ) :   1.0113
B(  6-C ,  7-H ) :   0.9435 B(  6-C ,  8-H ) :   0.9420 B(  6-C ,  9-C ) :   1.0376
B(  9-C , 10-H ) :   0.9590 B(  9-C , 11-H ) :   0.9644 B(  9-C , 12-C ) :   1.0632
B( 12-C , 13-H ) :   0.9768 B( 12-C , 14-H ) :   0.9796 B( 12-C , 15-H ) :   0.9777
B( 16-S , 17-C ) :   1.1575 B( 16-S , 20-C ) :   1.1564 B( 17-C , 18-C ) :   1.5977
B( 17-C , 33-H ) :   0.9702 B( 18-C , 19-C ) :   1.2669 B( 18-C , 21-H ) :   0.9806
B( 19-C , 20-C ) :   1.5809 B( 19-C , 22-C ) :   1.0468 B( 22-C , 23-H ) :   0.9366
B( 22-C , 24-H ) :   0.9289 B( 22-C , 25-C ) :   1.0548 B( 25-C , 26-H ) :   0.9527
B( 25-C , 27-H ) :   0.9550 B( 25-C , 28-C ) :   1.0819 B( 28-C , 29-H ) :   0.9772
B( 28-C , 30-H ) :   0.9730 B( 28-C , 31-H ) :   0.9737

Dispersion correction           -0.013968368
FINAL SINGLE POINT ENERGY     -1339.876497820756

DIPOLE MOMENT
-------------
                                X             Y             Z
Electronic contribution:    -28.99087       6.68016      -6.15169
Nuclear contribution   :     29.46311      -6.95263       6.18720
                        -----------------------------------------
Total Dipole Moment    :      0.47224      -0.27246       0.03551
                        -----------------------------------------
Magnitude (a.u.)       :      0.54636
Magnitude (Debye)      :      1.38874

Rotational constants in cm-1:     0.018134     0.008371     0.006399
Rotational constants in MHz :   543.652439   250.949359   191.838786

                             ****ORCA TERMINATED NORMALLY****
TOTAL RUN TIME: 0 days 0 hours 0 minutes 29 seconds 103 msec
