                         Program Version 4.2.1 -  RELEASE  -
|  1> ! wB97X-D3 SP def2-SVP
|  2> %pal
|  3> nprocs 16
|  4> end
|  5>
|  6> * xyz 0 1
|  7> S 	 42.3427 	 12.012 	 83.9359
|  8> C 	 42.6934 	 10.529 	 84.6603
|  9> C 	 43.7994 	 10.6138 	 85.4308
| 10> C 	 44.368 	 11.9405 	 85.4374
| 11> C 	 43.7311 	 12.8352 	 84.5734
| 12> H 	 45.2829 	 12.2986 	 85.8252
| 13> C 	 44.4518 	 9.42388 	 86.0887
| 14> H 	 45.3563 	 9.21199 	 85.5171
| 15> H 	 43.8633 	 8.5267 	 85.9859
| 16> C 	 44.9498 	 9.63202 	 87.5749
| 17> H 	 45.53 	 8.88475 	 87.9702
| 18> H 	 45.3708 	 10.583 	 87.7759
| 19> C 	 43.7163 	 9.5987 	 88.476
| 20> H 	 42.8906 	 9.00948 	 88.0524
| 21> H 	 43.8374 	 9.4014 	 89.5426
| 22> H 	 43.32 	 10.6259 	 88.5428
| 23> S 	 43.651 	 14.7971 	 82.6229
| 24> C 	 44.1537 	 16.3655 	 82.9483
| 25> C 	 44.6676 	 16.4814 	 84.257
| 26> C 	 44.5789 	 15.315 	 85.0191
| 27> C 	 44.0578 	 14.2424 	 84.2667
| 28> H 	 45.1501 	 17.3891 	 84.5097
| 29> C 	 45.0759 	 15.2963 	 86.4988
| 30> H 	 45.8482 	 16.1598 	 86.544
| 31> H 	 45.6231 	 14.2852 	 86.6484
| 32> C 	 44.1036 	 15.7057 	 87.5713
| 33> H 	 43.3484 	 16.438 	 87.1732
| 34> H 	 44.6205 	 16.0692 	 88.5518
| 35> C 	 43.2148 	 14.4923 	 88.0969
| 36> H 	 43.8656 	 13.9615 	 88.8349
| 37> H 	 42.9142 	 13.7864 	 87.3485
| 38> H 	 42.3281 	 14.6937 	 88.6759
| 39> H 	 42.1031 	 9.70483 	 84.3818
| 40> H 	 44.1927 	 17.201 	 82.1973
| 41> *
| 42>
| 43>                          ****END OF INPUT****

CARTESIAN COORDINATES (ANGSTROEM)
---------------------------------
  S     42.342700   12.012000   83.935900
  C     42.693400   10.529000   84.660300
  C     43.799400   10.613800   85.430800
  C     44.368000   11.940500   85.437400
  C     43.731100   12.835200   84.573400
  H     45.282900   12.298600   85.825200
  C     44.451800    9.423880   86.088700
  H     45.356300    9.211990   85.517100
  H     43.863300    8.526700   85.985900
  C     44.949800    9.632020   87.574900
  H     45.530000    8.884750   87.970200
  H     45.370800   10.583000   87.775900
  C     43.716300    9.598700   88.476000
  H     42.890600    9.009480   88.052400
  H     43.837400    9.401400   89.542600
  H     43.320000   10.625900   88.542800
  S     43.651000   14.797100   82.622900
  C     44.153700   16.365500   82.948300
  C     44.667600   16.481400   84.257000
  C     44.578900   15.315000   85.019100
  C     44.057800   14.242400   84.266700
  H     45.150100   17.389100   84.509700
  C     45.075900   15.296300   86.498800
  H     45.848200   16.159800   86.544000
  H     45.623100   14.285200   86.648400
  C     44.103600   15.705700   87.571300
  H     43.348400   16.438000   87.173200
  H     44.620500   16.069200   88.551800
  C     43.214800   14.492300   88.096900
  H     43.865600   13.961500   88.834900
  H     42.914200   13.786400   87.348500
  H     42.328100   14.693700   88.675900
  H     42.103100    9.704830   84.381800
  H     44.192700   17.201000   82.197300

 Total Charge           Charge          ....    0
 Multiplicity           Mult            ....    1
 Number of Electrons    NEL             ....  134
 Basis Dimension        Dim             ....  322

ORBITAL ENERGIES
----------------

  NO   OCC          E(Eh)            E(eV)
   0   2.0000     -88.971607     -2421.0405
   1   2.0000     -88.960221     -2420.7307
   2   2.0000     -10.336045      -281.2581
   3   2.0000     -10.332531      -281.1625
   4   2.0000     -10.321836      -280.8714
   5   2.0000     -10.312596      -280.6200
   6   2.0000     -10.311680      -280.5951
   7   2.0000     -10.304482      -280.3992
   8   2.0000     -10.302404      -280.3427
   9   2.0000     -10.301748      -280.3248
  10   2.0000     -10.294010      -280.1143
  11   2.0000     -10.292906      -280.0842
  12   2.0000     -10.292403      -280.0705
  13   2.0000     -10.278765      -279.6994
  14   2.0000     -10.271504      -279.5018
  15   2.0000     -10.269290      -279.4416
  16   2.0000      -8.086887      -220.0554
  17   2.0000      -8.076790      -219.7806
  18   2.0000      -6.045178      -164.4977
  19   2.0000      -6.041095      -164.3866
  20   2.0000      -6.038069      -164.3042
  21   2.0000      -6.035256      -164.2277
  22   2.0000      -6.030817      -164.1069
  23   2.0000      -6.027707      -164.0222
  24   2.0000      -1.012947       -27.5637
  25   2.0000      -0.993949       -27.0467
  26   2.0000      -0.910583       -24.7782
  27   2.0000      -0.905156       -24.6306
  28   2.0000      -0.872078       -23.7305
  29   2.0000      -0.851655       -23.1747
  30   2.0000      -0.845681       -23.0121
  31   2.0000      -0.813746       -22.1432
  32   2.0000      -0.781174       -21.2568
  33   2.0000      -0.771054       -20.9814
  34   2.0000      -0.710392       -19.3308
  35   2.0000      -0.696045       -18.9404
  36   2.0000      -0.687352       -18.7038
  37   2.0000      -0.663745       -18.0614
  38   2.0000      -0.650532       -17.7019
  39   2.0000      -0.623132       -16.9563
  40   2.0000      -0.593578       -16.1521
  41   2.0000      -0.570483       -15.5236
  42   2.0000      -0.552286       -15.0285
  43   2.0000      -0.547870       -14.9083
  44   2.0000      -0.542023       -14.7492
  45   2.0000      -0.537680       -14.6310
  46   2.0000      -0.520890       -14.1741
  47   2.0000      -0.510227       -13.8840
  48   2.0000      -0.506285       -13.7767
  49   2.0000      -0.502095       -13.6627
  50   2.0000      -0.491432       -13.3726
  51   2.0000      -0.479622       -13.0512
  52   2.0000      -0.476138       -12.9564
  53   2.0000      -0.460454       -12.5296
  54   2.0000      -0.458717       -12.4823
  55   2.0000      -0.444726       -12.1016
  56   2.0000      -0.439175       -11.9506
  57   2.0000      -0.436460       -11.8767
  58   2.0000      -0.431084       -11.7304
  59   2.0000      -0.425100       -11.5676
  60   2.0000      -0.413937       -11.2638
  61   2.0000      -0.412081       -11.2133
  62   2.0000      -0.404336       -11.0025
  63   2.0000      -0.358400        -9.7526
  64   2.0000      -0.338633        -9.2147
  65   2.0000      -0.325974        -8.8702
  66   2.0000      -0.287602        -7.8261
  67   0.0000       0.023578         0.6416
  68   0.0000       0.080270         2.1843
  69   0.0000       0.109165         2.9705
  70   0.0000       0.119769         3.2591
  71   0.0000       0.130014         3.5379

MULLIKEN ATOMIC CHARGES
-----------------------
   0 S :    0.099109
   1 C :   -0.119427
   2 C :   -0.044739
   3 C :    0.018403
   4 C :   -0.136024
   5 H :   -0.005832
   6 C :    0.057349
   7 H :    0.040017
   8 H :    0.017382
   9 C :   -0.014193
  10 H :    0.015845
  11 H :    0.025609
  12 C :   -0.094518
  13 H :    0.029344
  14 H :    0.029814
  15 H :    0.025675
  16 S :    0.126107
  17 C :   -0.108278
  18 C :   -0.048370
  19 C :   -0.007449
  20 C :   -0.173717
  21 H :    0.006284
  22 C :    0.021685
  23 H :    0.040997
  24 H :    0.048484
  25 C :   -0.087715
  26 H :    0.052354
  27 H :    0.054632
  28 C :   -0.080253
  29 H :    0.021458
  30 H :    0.045456
  31 H :    0.029883
  32 H :    0.035911
  33 H :    0.078718
Sum of atomic charges:   -0.0000000

LOEWDIN ATOMIC CHARGES
----------------------
   0 S :    0.427952
   1 C :   -0.205929
   2 C :   -0.062825
   3 C :   -0.068030
   4 C :   -0.195352
   5 H :    0.019554
   6 C :   -0.022584
   7 H :    0.034948
   8 H :    0.026791
   9 C :   -0.029092
  10 H :    0.014182
  11 H :    0.022064
  12 C :   -0.074888
  13 H :    0.022453
  14 H :    0.022476
  15 H :    0.026297
  16 S :    0.438630
  17 C :   -0.214471
  18 C :   -0.075591
  19 C :   -0.055589
  20 C :   -0.194674
  21 H :    0.025288
  22 C :   -0.040245
  23 H :    0.043831
  24 H :    0.038418
  25 C :   -0.050432
  26 H :    0.034466
  27 H :    0.037875
  28 C :   -0.077119
  29 H :    0.023718
  30 H :    0.021882
  31 H :    0.022022
  32 H :    0.021347
  33 H :    0.042627

  Mayer bond orders larger than 0.100000
B(  0-S ,  1-C ) :   1.1506 B(  0-S ,  4-C ) :   1.1684 B(  1-C ,  2-C ) :   1.5855
B(  1-C , 32-H ) :   0.9830 B(  2-C ,  3-C ) :   1.2313 B(  2-C ,  6-C ) :   1.0257
B(  3-C ,  4-C ) :   1.5652 B(  3-C ,  5-H ) :   1.0009 B(  4-C , 20-C ) :   1.0533
B(  6-C ,  7-H ) :   0.9362 B(  6-C ,  8-H ) :   0.9497 B(  6-C ,  9-C ) :   1.0695
B(  9-C , 10-H ) :   0.9615 B(  9-C , 11-H ) :   0.9628 B(  9-C , 12-C ) :   1.0551
B( 12-C , 13-H ) :   0.9781 B( 12-C , 14-H ) :   0.9766 B( 12-C , 15-H ) :   0.9775
B( 16-S , 17-C ) :   1.1973 B( 16-S , 20-C ) :   1.1631 B( 17-C , 18-C ) :   1.5508
B( 17-C , 20-C ) :   0.1114 B( 17-C , 33-H ) :   0.9597 B( 18-C , 19-C ) :   1.2981
B( 18-C , 21-H ) :   0.9948 B( 19-C , 20-C ) :   1.5346 B( 19-C , 22-C ) :   1.0172
B( 22-C , 23-H ) :   0.9360 B( 22-C , 24-H ) :   0.9417 B( 22-C , 25-C ) :   1.0534
B( 25-C , 26-H ) :   0.9544 B( 25-C , 27-H ) :   0.9623 B( 25-C , 28-C ) :   1.0561
B( 28-C , 29-H ) :   0.9798 B( 28-C , 30-H ) :   0.9804 B( 28-C , 31-H ) :   0.9770

Dispersion correction           -0.015205533
FINAL SINGLE POINT ENERGY     -1339.860512419580

DIPOLE MOMENT
-------------
                                X             Y             Z
Electronic contribution:     -5.73981       7.21954     -28.07020
Nuclear contribution   :      6.11881      -7.16938      28.37816
                        -----------------------------------------
Total Dipole Moment    :      0.37900       0.05017       0.30797
                        -----------------------------------------
Magnitude (a.u.)       :      0.49092
Magnitude (Debye)      :      1.24781

Rotational constants in cm-1:     0.019973     0.009496     0.007194
Rotational constants in MHz :   598.777416   284.678622   215.678620

                             ****ORCA TERMINATED NORMALLY****
TOTAL RUN TIME: 0 days 0 hours 0 minutes 31 seconds 597 msec
