                         Program Version 4.2.1 -  RELEASE  -
|  1> ! wB97X-D3 SP def2-SVP
|  2> %pal
|  3> nprocs 16
|  4> end
|  5>
|  6> * xyz 0 1
|  7> S 	 -3.19877 	 -23.629 	 59.4411
|  8> C 	 -3.26633 	 -22.0153 	 60.0607
|  9> C 	 -3.16273 	 -21.1762 	 59.0112
| 10> C 	 -3.03481 	 -21.7693 	 57.7233
| 11> C 	 -3.1696 	 -23.1281 	 57.7464
| 12> H 	 -2.89304 	 -21.261 	 56.7718
| 13> C 	 -3.16611 	 -19.6324 	 59.1724
| 14> H 	 -2.21744 	 -19.2545 	 58.8755
| 15> H 	 -3.13112 	 -19.4095 	 60.2075
| 16> C 	 -4.32537 	 -18.7849 	 58.6753
| 17> H 	 -4.26072 	 -17.6781 	 58.8447
| 18> H 	 -4.46094 	 -18.8549 	 57.5758
| 19> C 	 -5.58785 	 -19.2392 	 59.4122
| 20> H 	 -6.32127 	 -18.4972 	 59.2291
| 21> H 	 -5.90837 	 -20.2837 	 59.074
| 22> H 	 -5.44358 	 -19.2801 	 60.4771
| 23> S 	 -2.07976 	 -25.4379 	 56.7635
| 24> C 	 -2.28896 	 -25.823 	 55.0788
| 25> C 	 -3.27995 	 -25.1159 	 54.4513
| 26> C 	 -3.7253 	 -24.0695 	 55.3152
| 27> C 	 -3.14423 	 -24.0798 	 56.6237
| 28> H 	 -3.66987 	 -25.4256 	 53.5167
| 29> C 	 -4.58599 	 -22.9993 	 54.7359
| 30> H 	 -4.35529 	 -22.0087 	 55.2099
| 31> H 	 -5.56296 	 -23.1374 	 55.0919
| 32> C 	 -4.67288 	 -22.7231 	 53.2451
| 33> H 	 -5.29805 	 -23.524 	 52.7992
| 34> H 	 -3.68462 	 -22.723 	 52.8253
| 35> C 	 -5.42673 	 -21.3805 	 52.879
| 36> H 	 -4.8762 	 -20.5103 	 53.1657
| 37> H 	 -6.25864 	 -21.2994 	 53.5493
| 38> H 	 -5.62742 	 -21.3043 	 51.8012
| 39> H 	 -3.39427 	 -21.6597 	 61.1171
| 40> H 	 -1.77446 	 -26.6226 	 54.5715
| 41> *
| 42>
| 43>                          ****END OF INPUT****

CARTESIAN COORDINATES (ANGSTROEM)
---------------------------------
  S     -3.198770  -23.629000   59.441100
  C     -3.266330  -22.015300   60.060700
  C     -3.162730  -21.176200   59.011200
  C     -3.034810  -21.769300   57.723300
  C     -3.169600  -23.128100   57.746400
  H     -2.893040  -21.261000   56.771800
  C     -3.166110  -19.632400   59.172400
  H     -2.217440  -19.254500   58.875500
  H     -3.131120  -19.409500   60.207500
  C     -4.325370  -18.784900   58.675300
  H     -4.260720  -17.678100   58.844700
  H     -4.460940  -18.854900   57.575800
  C     -5.587850  -19.239200   59.412200
  H     -6.321270  -18.497200   59.229100
  H     -5.908370  -20.283700   59.074000
  H     -5.443580  -19.280100   60.477100
  S     -2.079760  -25.437900   56.763500
  C     -2.288960  -25.823000   55.078800
  C     -3.279950  -25.115900   54.451300
  C     -3.725300  -24.069500   55.315200
  C     -3.144230  -24.079800   56.623700
  H     -3.669870  -25.425600   53.516700
  C     -4.585990  -22.999300   54.735900
  H     -4.355290  -22.008700   55.209900
  H     -5.562960  -23.137400   55.091900
  C     -4.672880  -22.723100   53.245100
  H     -5.298050  -23.524000   52.799200
  H     -3.684620  -22.723000   52.825300
  C     -5.426730  -21.380500   52.879000
  H     -4.876200  -20.510300   53.165700
  H     -6.258640  -21.299400   53.549300
  H     -5.627420  -21.304300   51.801200
  H     -3.394270  -21.659700   61.117100
  H     -1.774460  -26.622600   54.571500

 Total Charge           Charge          ....    0
 Multiplicity           Mult            ....    1
 Number of Electrons    NEL             ....  134
 Basis Dimension        Dim             ....  322

ORBITAL ENERGIES
----------------

  NO   OCC          E(Eh)            E(eV)
   0   2.0000     -88.968728     -2420.9622
   1   2.0000     -88.962978     -2420.8057
   2   2.0000     -10.333471      -281.1881
   3   2.0000     -10.331677      -281.1392
   4   2.0000     -10.316689      -280.7314
   5   2.0000     -10.314758      -280.6788
   6   2.0000     -10.311052      -280.5780
   7   2.0000     -10.298704      -280.2420
   8   2.0000     -10.293060      -280.0884
   9   2.0000     -10.291605      -280.0488
  10   2.0000     -10.290972      -280.0316
  11   2.0000     -10.289369      -279.9880
  12   2.0000     -10.285787      -279.8905
  13   2.0000     -10.282976      -279.8140
  14   2.0000     -10.281194      -279.7655
  15   2.0000     -10.273182      -279.5475
  16   2.0000      -8.083900      -219.9741
  17   2.0000      -8.078005      -219.8137
  18   2.0000      -6.042348      -164.4207
  19   2.0000      -6.038302      -164.3105
  20   2.0000      -6.036691      -164.2667
  21   2.0000      -6.034739      -164.2136
  22   2.0000      -6.032464      -164.1517
  23   2.0000      -6.028537      -164.0448
  24   2.0000      -1.010549       -27.4984
  25   2.0000      -0.990565       -26.9546
  26   2.0000      -0.913103       -24.8468
  27   2.0000      -0.909969       -24.7615
  28   2.0000      -0.874272       -23.7902
  29   2.0000      -0.852489       -23.1974
  30   2.0000      -0.842034       -22.9129
  31   2.0000      -0.821066       -22.3423
  32   2.0000      -0.782548       -21.2942
  33   2.0000      -0.772303       -21.0154
  34   2.0000      -0.712785       -19.3959
  35   2.0000      -0.701541       -19.0899
  36   2.0000      -0.690181       -18.7808
  37   2.0000      -0.657292       -17.8858
  38   2.0000      -0.640338       -17.4245
  39   2.0000      -0.624513       -16.9938
  40   2.0000      -0.602697       -16.4002
  41   2.0000      -0.571364       -15.5476
  42   2.0000      -0.569698       -15.5023
  43   2.0000      -0.558442       -15.1960
  44   2.0000      -0.538696       -14.6587
  45   2.0000      -0.529867       -14.4184
  46   2.0000      -0.521245       -14.1838
  47   2.0000      -0.515412       -14.0251
  48   2.0000      -0.505860       -13.7652
  49   2.0000      -0.494579       -13.4582
  50   2.0000      -0.485948       -13.2233
  51   2.0000      -0.479089       -13.0367
  52   2.0000      -0.471613       -12.8332
  53   2.0000      -0.468379       -12.7452
  54   2.0000      -0.460891       -12.5415
  55   2.0000      -0.454670       -12.3722
  56   2.0000      -0.447327       -12.1724
  57   2.0000      -0.437898       -11.9158
  58   2.0000      -0.427873       -11.6430
  59   2.0000      -0.425727       -11.5846
  60   2.0000      -0.418845       -11.3973
  61   2.0000      -0.414535       -11.2801
  62   2.0000      -0.405997       -11.0477
  63   2.0000      -0.357671        -9.7327
  64   2.0000      -0.333277        -9.0689
  65   2.0000      -0.326195        -8.8762
  66   2.0000      -0.289328        -7.8730
  67   0.0000       0.028130         0.7654
  68   0.0000       0.072119         1.9625
  69   0.0000       0.111651         3.0382
  70   0.0000       0.120476         3.2783
  71   0.0000       0.130565         3.5529

MULLIKEN ATOMIC CHARGES
-----------------------
   0 S :    0.092618
   1 C :   -0.122616
   2 C :   -0.107773
   3 C :    0.025151
   4 C :   -0.133542
   5 H :    0.022476
   6 C :    0.109249
   7 H :    0.017494
   8 H :   -0.012678
   9 C :   -0.088046
  10 H :    0.035005
  11 H :    0.028537
  12 C :   -0.055865
  13 H :    0.023383
  14 H :    0.055584
  15 H :    0.017120
  16 S :    0.118569
  17 C :   -0.079247
  18 C :   -0.031737
  19 C :   -0.022841
  20 C :   -0.142454
  21 H :    0.015527
  22 C :    0.047575
  23 H :    0.009245
  24 H :    0.018934
  25 C :   -0.087833
  26 H :    0.035645
  27 H :    0.034534
  28 C :   -0.033351
  29 H :    0.020446
  30 H :    0.022098
  31 H :    0.049227
  32 H :    0.069201
  33 H :    0.050365
Sum of atomic charges:    0.0000000

LOEWDIN ATOMIC CHARGES
----------------------
   0 S :    0.395575
   1 C :   -0.209216
   2 C :   -0.067912
   3 C :   -0.068673
   4 C :   -0.180163
   5 H :    0.033516
   6 C :   -0.031061
   7 H :    0.024923
   8 H :    0.020913
   9 C :   -0.046384
  10 H :    0.030630
  11 H :    0.021252
  12 C :   -0.064624
  13 H :    0.018361
  14 H :    0.036010
  15 H :    0.018090
  16 S :    0.426039
  17 C :   -0.176934
  18 C :   -0.067666
  19 C :   -0.043773
  20 C :   -0.213640
  21 H :    0.031583
  22 C :   -0.046033
  23 H :    0.032805
  24 H :    0.029067
  25 C :   -0.037986
  26 H :    0.025140
  27 H :    0.020179
  28 C :   -0.060655
  29 H :    0.020383
  30 H :    0.023406
  31 H :    0.032870
  32 H :    0.048029
  33 H :    0.025950

  Mayer bond orders larger than 0.100000
B(  0-S ,  1-C ) :   1.1219 B(  0-S ,  4-C ) :   1.1470 B(  1-C ,  2-C ) :   1.6366
B(  1-C , 32-H ) :   0.9603 B(  2-C ,  3-C ) :   1.2260 B(  2-C ,  6-C ) :   1.0149
B(  3-C ,  4-C ) :   1.5851 B(  3-C ,  5-H ) :   0.9937 B(  4-C , 20-C ) :   1.0340
B(  6-C ,  7-H ) :   0.9370 B(  6-C ,  8-H ) :   0.9383 B(  6-C ,  9-C ) :   1.0695
B(  9-C , 10-H ) :   0.9567 B(  9-C , 11-H ) :   0.9556 B(  9-C , 12-C ) :   1.0716
B( 12-C , 13-H ) :   0.9754 B( 12-C , 14-H ) :   0.9735 B( 12-C , 15-H ) :   0.9762
B( 16-S , 17-C ) :   1.1778 B( 16-S , 20-C ) :   1.1450 B( 17-C , 18-C ) :   1.5926
B( 17-C , 33-H ) :   0.9632 B( 18-C , 19-C ) :   1.2585 B( 18-C , 21-H ) :   0.9952
B( 19-C , 20-C ) :   1.5660 B( 19-C , 22-C ) :   1.0408 B( 22-C , 23-H ) :   0.9396
B( 22-C , 24-H ) :   0.9039 B( 22-C , 25-C ) :   1.0815 B( 25-C , 26-H ) :   0.9444
B( 25-C , 27-H ) :   0.9583 B( 25-C , 28-C ) :   1.0793 B( 28-C , 29-H ) :   0.9731
B( 28-C , 30-H ) :   0.9742 B( 28-C , 31-H ) :   0.9747

Dispersion correction           -0.013940846
FINAL SINGLE POINT ENERGY     -1339.865617482494

DIPOLE MOMENT
-------------
                                X             Y             Z
Electronic contribution:     14.51550     -25.27979      11.05351
Nuclear contribution   :    -14.70910      25.78845     -11.52340
                        -----------------------------------------
Total Dipole Moment    :     -0.19359       0.50866      -0.46989
                        -----------------------------------------
Magnitude (a.u.)       :      0.71903
Magnitude (Debye)      :      1.82764

Rotational constants in cm-1:     0.016586     0.009515     0.006400
Rotational constants in MHz :   497.229900   285.266088   191.860516

                             ****ORCA TERMINATED NORMALLY****
TOTAL RUN TIME: 0 days 0 hours 0 minutes 34 seconds 990 msec
