                         Program Version 4.2.1 -  RELEASE  -
|  1> ! wB97X-D3 SP def2-SVP
|  2> %pal
|  3> nprocs 16
|  4> end
|  5>
|  6> * xyz 0 1
|  7> S 	 51.092 	 22.0146 	 89.737
|  8> C 	 49.4978 	 22.717 	 89.6198
|  9> C 	 48.9125 	 22.3983 	 88.3768
| 10> C 	 49.8082 	 21.6099 	 87.5727
| 11> C 	 50.9948 	 21.2174 	 88.1665
| 12> H 	 49.6013 	 21.3421 	 86.5861
| 13> C 	 47.5811 	 23.014 	 87.877
| 14> H 	 47.2125 	 22.2194 	 87.1911
| 15> H 	 47.7533 	 23.8317 	 87.1708
| 16> C 	 46.5919 	 23.5458 	 88.9124
| 17> H 	 46.3345 	 22.6473 	 89.5485
| 18> H 	 47.1343 	 24.2 	 89.6528
| 19> C 	 45.4258 	 24.2361 	 88.2588
| 20> H 	 44.5394 	 24.2827 	 88.8948
| 21> H 	 45.9007 	 25.2272 	 87.9367
| 22> H 	 45.0391 	 23.7069 	 87.4229
| 23> S 	 53.6703 	 21.4225 	 87.5894
| 24> C 	 54.5135 	 20.0407 	 86.9463
| 25> C 	 53.6991 	 19.0172 	 86.5558
| 26> C 	 52.2861 	 19.3174 	 86.8795
| 27> C 	 52.1476 	 20.5473 	 87.5372
| 28> H 	 54.1365 	 18.0878 	 86.1333
| 29> C 	 51.135 	 18.33 	 86.5649
| 30> H 	 51.2349 	 17.8948 	 85.5703
| 31> H 	 50.2288 	 18.8485 	 86.5275
| 32> C 	 51.0225 	 17.1322 	 87.3645
| 33> H 	 51.1166 	 17.3187 	 88.423
| 34> H 	 51.8522 	 16.4985 	 87.0605
| 35> C 	 49.6372 	 16.4792 	 87.2866
| 36> H 	 49.2645 	 16.4047 	 86.2814
| 37> H 	 48.9832 	 17.1386 	 87.8895
| 38> H 	 49.567 	 15.4951 	 87.7673
| 39> H 	 49.0673 	 23.3426 	 90.372
| 40> H 	 55.5698 	 20.001 	 86.7843
| 41> *
| 42>
| 43>                          ****END OF INPUT****

CARTESIAN COORDINATES (ANGSTROEM)
---------------------------------
  S     51.092000   22.014600   89.737000
  C     49.497800   22.717000   89.619800
  C     48.912500   22.398300   88.376800
  C     49.808200   21.609900   87.572700
  C     50.994800   21.217400   88.166500
  H     49.601300   21.342100   86.586100
  C     47.581100   23.014000   87.877000
  H     47.212500   22.219400   87.191100
  H     47.753300   23.831700   87.170800
  C     46.591900   23.545800   88.912400
  H     46.334500   22.647300   89.548500
  H     47.134300   24.200000   89.652800
  C     45.425800   24.236100   88.258800
  H     44.539400   24.282700   88.894800
  H     45.900700   25.227200   87.936700
  H     45.039100   23.706900   87.422900
  S     53.670300   21.422500   87.589400
  C     54.513500   20.040700   86.946300
  C     53.699100   19.017200   86.555800
  C     52.286100   19.317400   86.879500
  C     52.147600   20.547300   87.537200
  H     54.136500   18.087800   86.133300
  C     51.135000   18.330000   86.564900
  H     51.234900   17.894800   85.570300
  H     50.228800   18.848500   86.527500
  C     51.022500   17.132200   87.364500
  H     51.116600   17.318700   88.423000
  H     51.852200   16.498500   87.060500
  C     49.637200   16.479200   87.286600
  H     49.264500   16.404700   86.281400
  H     48.983200   17.138600   87.889500
  H     49.567000   15.495100   87.767300
  H     49.067300   23.342600   90.372000
  H     55.569800   20.001000   86.784300

 Total Charge           Charge          ....    0
 Multiplicity           Mult            ....    1
 Number of Electrons    NEL             ....  134
 Basis Dimension        Dim             ....  322

ORBITAL ENERGIES
----------------

  NO   OCC          E(Eh)            E(eV)
   0   2.0000     -88.965742     -2420.8809
   1   2.0000     -88.965374     -2420.8709
   2   2.0000     -10.332848      -281.1711
   3   2.0000     -10.332218      -281.1540
   4   2.0000     -10.316395      -280.7234
   5   2.0000     -10.314454      -280.6706
   6   2.0000     -10.313875      -280.6548
   7   2.0000     -10.307484      -280.4809
   8   2.0000     -10.300615      -280.2940
   9   2.0000     -10.297932      -280.2210
  10   2.0000     -10.296081      -280.1706
  11   2.0000     -10.292797      -280.0812
  12   2.0000     -10.285194      -279.8743
  13   2.0000     -10.281467      -279.7730
  14   2.0000     -10.277330      -279.6604
  15   2.0000     -10.273881      -279.5665
  16   2.0000      -8.080339      -219.8772
  17   2.0000      -8.080151      -219.8721
  18   2.0000      -6.038954      -164.3283
  19   2.0000      -6.038654      -164.3201
  20   2.0000      -6.034887      -164.2176
  21   2.0000      -6.034625      -164.2105
  22   2.0000      -6.030998      -164.1118
  23   2.0000      -6.030882      -164.1086
  24   2.0000      -1.002565       -27.2812
  25   2.0000      -0.980342       -26.6765
  26   2.0000      -0.921199       -25.0671
  27   2.0000      -0.913124       -24.8474
  28   2.0000      -0.868851       -23.6426
  29   2.0000      -0.850500       -23.1433
  30   2.0000      -0.843620       -22.9561
  31   2.0000      -0.816168       -22.2091
  32   2.0000      -0.783176       -21.3113
  33   2.0000      -0.771295       -20.9880
  34   2.0000      -0.709356       -19.3026
  35   2.0000      -0.698434       -19.0054
  36   2.0000      -0.689334       -18.7577
  37   2.0000      -0.658247       -17.9118
  38   2.0000      -0.643816       -17.5191
  39   2.0000      -0.617137       -16.7932
  40   2.0000      -0.599289       -16.3075
  41   2.0000      -0.578366       -15.7381
  42   2.0000      -0.572978       -15.5915
  43   2.0000      -0.565665       -15.3925
  44   2.0000      -0.523619       -14.2484
  45   2.0000      -0.522298       -14.2125
  46   2.0000      -0.520291       -14.1578
  47   2.0000      -0.510533       -13.8923
  48   2.0000      -0.504308       -13.7229
  49   2.0000      -0.500017       -13.6062
  50   2.0000      -0.491638       -13.3781
  51   2.0000      -0.482811       -13.1380
  52   2.0000      -0.475986       -12.9522
  53   2.0000      -0.466014       -12.6809
  54   2.0000      -0.460581       -12.5331
  55   2.0000      -0.448516       -12.2048
  56   2.0000      -0.445332       -12.1181
  57   2.0000      -0.438626       -11.9356
  58   2.0000      -0.430538       -11.7155
  59   2.0000      -0.420178       -11.4336
  60   2.0000      -0.419203       -11.4071
  61   2.0000      -0.414149       -11.2696
  62   2.0000      -0.408800       -11.1240
  63   2.0000      -0.348685        -9.4882
  64   2.0000      -0.330430        -8.9915
  65   2.0000      -0.325882        -8.8677
  66   2.0000      -0.294947        -8.0259
  67   0.0000       0.030783         0.8377
  68   0.0000       0.070228         1.9110
  69   0.0000       0.109058         2.9676
  70   0.0000       0.125307         3.4098
  71   0.0000       0.127210         3.4616

MULLIKEN ATOMIC CHARGES
-----------------------
   0 S :    0.106407
   1 C :   -0.134152
   2 C :   -0.076213
   3 C :    0.051613
   4 C :   -0.141893
   5 H :   -0.007943
   6 C :    0.039687
   7 H :    0.027325
   8 H :    0.032162
   9 C :   -0.118608
  10 H :    0.035295
  11 H :    0.039140
  12 C :   -0.022562
  13 H :    0.038937
  14 H :    0.050513
  15 H :    0.024054
  16 S :    0.109830
  17 C :   -0.081781
  18 C :   -0.044551
  19 C :   -0.039303
  20 C :   -0.162875
  21 H :    0.038586
  22 C :    0.112188
  23 H :    0.016111
  24 H :   -0.014272
  25 C :   -0.061966
  26 H :    0.024598
  27 H :    0.019884
  28 C :   -0.058163
  29 H :    0.024021
  30 H :    0.037540
  31 H :    0.038060
  32 H :    0.049424
  33 H :    0.048905
Sum of atomic charges:    0.0000000

LOEWDIN ATOMIC CHARGES
----------------------
   0 S :    0.405405
   1 C :   -0.198370
   2 C :   -0.061847
   3 C :   -0.055536
   4 C :   -0.194853
   5 H :    0.019338
   6 C :   -0.038456
   7 H :    0.032957
   8 H :    0.030488
   9 C :   -0.053962
  10 H :    0.026983
  11 H :    0.026764
  12 C :   -0.065331
  13 H :    0.031116
  14 H :    0.041306
  15 H :    0.021729
  16 S :    0.402924
  17 C :   -0.181853
  18 C :   -0.075288
  19 C :   -0.041326
  20 C :   -0.196684
  21 H :    0.040579
  22 C :   -0.032070
  23 H :    0.035394
  24 H :    0.016889
  25 C :   -0.044206
  26 H :    0.023123
  27 H :    0.019192
  28 C :   -0.060394
  29 H :    0.016914
  30 H :    0.031449
  31 H :    0.029005
  32 H :    0.023152
  33 H :    0.025472

  Mayer bond orders larger than 0.100000
B(  0-S ,  1-C ) :   1.1515 B(  0-S ,  4-C ) :   1.1486 B(  1-C ,  2-C ) :   1.5772
B(  1-C , 32-H ) :   0.9711 B(  2-C ,  3-C ) :   1.2683 B(  2-C ,  6-C ) :   1.0050
B(  3-C ,  4-C ) :   1.5629 B(  3-C ,  5-H ) :   0.9976 B(  4-C , 20-C ) :   1.0324
B(  6-C ,  7-H ) :   0.9381 B(  6-C ,  8-H ) :   0.9411 B(  6-C ,  9-C ) :   1.0615
B(  9-C , 10-H ) :   0.9555 B(  9-C , 11-H ) :   0.9512 B(  9-C , 12-C ) :   1.0766
B( 12-C , 13-H ) :   0.9713 B( 12-C , 14-H ) :   0.9716 B( 12-C , 15-H ) :   0.9741
B( 16-S , 17-C ) :   1.1421 B( 16-S , 20-C ) :   1.1350 B( 17-C , 18-C ) :   1.6552
B( 17-C , 33-H ) :   0.9656 B( 18-C , 19-C ) :   1.1989 B( 18-C , 21-H ) :   0.9842
B( 19-C , 20-C ) :   1.6302 B( 19-C , 22-C ) :   1.0433 B( 22-C , 23-H ) :   0.9255
B( 22-C , 24-H ) :   0.9318 B( 22-C , 25-C ) :   1.0708 B( 25-C , 26-H ) :   0.9558
B( 25-C , 27-H ) :   0.9535 B( 25-C , 28-C ) :   1.0796 B( 28-C , 29-H ) :   0.9752
B( 28-C , 30-H ) :   0.9762 B( 28-C , 31-H ) :   0.9733

Dispersion correction           -0.013204611
FINAL SINGLE POINT ENERGY     -1339.872440557155

DIPOLE MOMENT
-------------
                                X             Y             Z
Electronic contribution:     26.01618       7.70591       5.15270
Nuclear contribution   :    -26.48501      -7.86823      -5.50972
                        -----------------------------------------
Total Dipole Moment    :     -0.46883      -0.16232      -0.35702
                        -----------------------------------------
Magnitude (a.u.)       :      0.61124
Magnitude (Debye)      :      1.55364

Rotational constants in cm-1:     0.019449     0.007452     0.005958
Rotational constants in MHz :   583.068472   223.396012   178.612545

                             ****ORCA TERMINATED NORMALLY****
TOTAL RUN TIME: 0 days 0 hours 0 minutes 28 seconds 564 msec
