                         Program Version 4.2.1 -  RELEASE  -
|  1> ! wB97X-D3 SP def2-SVP
|  2> %pal
|  3> nprocs 16
|  4> end
|  5>
|  6> * xyz 0 1
|  7> S 	 -91.627 	 42.1933 	 121.601
|  8> C 	 -90.8685 	 43.7101 	 122.066
|  9> C 	 -91.3013 	 44.7076 	 121.212
| 10> C 	 -92.3527 	 44.238 	 120.367
| 11> C 	 -92.4861 	 42.8866 	 120.327
| 12> H 	 -92.8646 	 44.8014 	 119.55
| 13> C 	 -90.7323 	 46.1332 	 121.282
| 14> H 	 -90.0988 	 46.1195 	 120.393
| 15> H 	 -90.1034 	 46.2209 	 122.162
| 16> C 	 -91.7784 	 47.2495 	 121.122
| 17> H 	 -92.2976 	 47.1893 	 120.148
| 18> H 	 -92.6049 	 46.9528 	 121.807
| 19> C 	 -91.2464 	 48.7576 	 121.175
| 20> H 	 -91.9919 	 49.5093 	 121.246
| 21> H 	 -90.6036 	 48.9352 	 122.095
| 22> H 	 -90.6714 	 49.0894 	 120.284
| 23> S 	 -92.6703 	 42.1567 	 117.62
| 24> C 	 -93.9506 	 41.2142 	 117.075
| 25> C 	 -94.8158 	 40.8594 	 118.058
| 26> C 	 -94.3913 	 41.4599 	 119.329
| 27> C 	 -93.204 	 42.1366 	 119.309
| 28> H 	 -95.6103 	 40.1486 	 117.888
| 29> C 	 -95.1802 	 41.2397 	 120.536
| 30> H 	 -94.5202 	 40.9144 	 121.389
| 31> H 	 -95.6657 	 40.3258 	 120.269
| 32> C 	 -96.1036 	 42.3643 	 121.042
| 33> H 	 -95.5147 	 43.2117 	 121.294
| 34> H 	 -96.5236 	 42.0965 	 122.047
| 35> C 	 -97.1988 	 42.6932 	 120.009
| 36> H 	 -97.8188 	 41.8276 	 119.841
| 37> H 	 -96.89 	 42.9282 	 119.011
| 38> H 	 -97.7591 	 43.6272 	 120.281
| 39> H 	 -90.2284 	 43.7715 	 122.882
| 40> H 	 -94.1801 	 41.0036 	 116.108
| 41> *
| 42>
| 43>                          ****END OF INPUT****

CARTESIAN COORDINATES (ANGSTROEM)
---------------------------------
  S    -91.627000   42.193300  121.601000
  C    -90.868500   43.710100  122.066000
  C    -91.301300   44.707600  121.212000
  C    -92.352700   44.238000  120.367000
  C    -92.486100   42.886600  120.327000
  H    -92.864600   44.801400  119.550000
  C    -90.732300   46.133200  121.282000
  H    -90.098800   46.119500  120.393000
  H    -90.103400   46.220900  122.162000
  C    -91.778400   47.249500  121.122000
  H    -92.297600   47.189300  120.148000
  H    -92.604900   46.952800  121.807000
  C    -91.246400   48.757600  121.175000
  H    -91.991900   49.509300  121.246000
  H    -90.603600   48.935200  122.095000
  H    -90.671400   49.089400  120.284000
  S    -92.670300   42.156700  117.620000
  C    -93.950600   41.214200  117.075000
  C    -94.815800   40.859400  118.058000
  C    -94.391300   41.459900  119.329000
  C    -93.204000   42.136600  119.309000
  H    -95.610300   40.148600  117.888000
  C    -95.180200   41.239700  120.536000
  H    -94.520200   40.914400  121.389000
  H    -95.665700   40.325800  120.269000
  C    -96.103600   42.364300  121.042000
  H    -95.514700   43.211700  121.294000
  H    -96.523600   42.096500  122.047000
  C    -97.198800   42.693200  120.009000
  H    -97.818800   41.827600  119.841000
  H    -96.890000   42.928200  119.011000
  H    -97.759100   43.627200  120.281000
  H    -90.228400   43.771500  122.882000
  H    -94.180100   41.003600  116.108000

 Total Charge           Charge          ....    0
 Multiplicity           Mult            ....    1
 Number of Electrons    NEL             ....  134
 Basis Dimension        Dim             ....  322

ORBITAL ENERGIES
----------------

  NO   OCC          E(Eh)            E(eV)
   0   2.0000     -88.962563     -2420.7944
   1   2.0000     -88.962021     -2420.7797
   2   2.0000     -10.323509      -280.9170
   3   2.0000     -10.322231      -280.8822
   4   2.0000     -10.310720      -280.5689
   5   2.0000     -10.305860      -280.4367
   6   2.0000     -10.305383      -280.4237
   7   2.0000     -10.298284      -280.2306
   8   2.0000     -10.298279      -280.2304
   9   2.0000     -10.296288      -280.1762
  10   2.0000     -10.293378      -280.0971
  11   2.0000     -10.291639      -280.0497
  12   2.0000     -10.289592      -279.9940
  13   2.0000     -10.285509      -279.8829
  14   2.0000     -10.281230      -279.7665
  15   2.0000     -10.273392      -279.5532
  16   2.0000      -8.078472      -219.8264
  17   2.0000      -8.077900      -219.8108
  18   2.0000      -6.036819      -164.2702
  19   2.0000      -6.036383      -164.2583
  20   2.0000      -6.032671      -164.1573
  21   2.0000      -6.032127      -164.1425
  22   2.0000      -6.029468      -164.0702
  23   2.0000      -6.028722      -164.0499
  24   2.0000      -1.015476       -27.6325
  25   2.0000      -0.994042       -27.0492
  26   2.0000      -0.911799       -24.8113
  27   2.0000      -0.906875       -24.6773
  28   2.0000      -0.872194       -23.7336
  29   2.0000      -0.846289       -23.0287
  30   2.0000      -0.842073       -22.9140
  31   2.0000      -0.820496       -22.3268
  32   2.0000      -0.784971       -21.3601
  33   2.0000      -0.773911       -21.0592
  34   2.0000      -0.718990       -19.5647
  35   2.0000      -0.704702       -19.1759
  36   2.0000      -0.691892       -18.8273
  37   2.0000      -0.669139       -18.2082
  38   2.0000      -0.644189       -17.5293
  39   2.0000      -0.617134       -16.7931
  40   2.0000      -0.587771       -15.9941
  41   2.0000      -0.574779       -15.6405
  42   2.0000      -0.560256       -15.2453
  43   2.0000      -0.548998       -14.9390
  44   2.0000      -0.541769       -14.7423
  45   2.0000      -0.525708       -14.3053
  46   2.0000      -0.522921       -14.2294
  47   2.0000      -0.512851       -13.9554
  48   2.0000      -0.502563       -13.6754
  49   2.0000      -0.499240       -13.5850
  50   2.0000      -0.488735       -13.2991
  51   2.0000      -0.478834       -13.0297
  52   2.0000      -0.476485       -12.9658
  53   2.0000      -0.473321       -12.8797
  54   2.0000      -0.463773       -12.6199
  55   2.0000      -0.452388       -12.3101
  56   2.0000      -0.436838       -11.8870
  57   2.0000      -0.434125       -11.8131
  58   2.0000      -0.428985       -11.6733
  59   2.0000      -0.425950       -11.5907
  60   2.0000      -0.416782       -11.3412
  61   2.0000      -0.415915       -11.3176
  62   2.0000      -0.403973       -10.9927
  63   2.0000      -0.333476        -9.0743
  64   2.0000      -0.331937        -9.0325
  65   2.0000      -0.325703        -8.8628
  66   2.0000      -0.309519        -8.4224
  67   0.0000       0.041272         1.1231
  68   0.0000       0.065330         1.7777
  69   0.0000       0.118549         3.2259
  70   0.0000       0.121644         3.3101
  71   0.0000       0.130180         3.5424

MULLIKEN ATOMIC CHARGES
-----------------------
   0 S :    0.113538
   1 C :   -0.114879
   2 C :   -0.101753
   3 C :    0.015846
   4 C :   -0.171007
   5 H :    0.026867
   6 C :    0.111396
   7 H :    0.040395
   8 H :    0.022645
   9 C :   -0.114808
  10 H :    0.036511
  11 H :    0.040744
  12 C :   -0.057976
  13 H :    0.027222
  14 H :    0.037051
  15 H :    0.041928
  16 S :    0.111724
  17 C :   -0.030559
  18 C :   -0.039852
  19 C :   -0.059664
  20 C :   -0.145414
  21 H :    0.021952
  22 C :    0.042743
  23 H :    0.028183
  24 H :    0.004297
  25 C :   -0.012079
  26 H :    0.022109
  27 H :    0.031571
  28 C :   -0.058283
  29 H :    0.023112
  30 H :    0.025925
  31 H :    0.037806
  32 H :    0.026331
  33 H :    0.016376
Sum of atomic charges:    0.0000000

LOEWDIN ATOMIC CHARGES
----------------------
   0 S :    0.430067
   1 C :   -0.186235
   2 C :   -0.057007
   3 C :   -0.076498
   4 C :   -0.215619
   5 H :    0.036582
   6 C :   -0.027343
   7 H :    0.037538
   8 H :    0.028765
   9 C :   -0.049615
  10 H :    0.027348
  11 H :    0.029473
  12 C :   -0.073136
  13 H :    0.021411
  14 H :    0.030020
  15 H :    0.031414
  16 S :    0.423979
  17 C :   -0.182587
  18 C :   -0.076798
  19 C :   -0.051389
  20 C :   -0.199577
  21 H :    0.032369
  22 C :   -0.043907
  23 H :    0.034544
  24 H :    0.024630
  25 C :   -0.032138
  26 H :    0.020577
  27 H :    0.030962
  28 C :   -0.071638
  29 H :    0.022525
  30 H :    0.021783
  31 H :    0.032400
  32 H :    0.014007
  33 H :    0.013093

  Mayer bond orders larger than 0.100000
B(  0-S ,  1-C ) :   1.1405 B(  0-S ,  4-C ) :   1.1794 B(  1-C ,  2-C ) :   1.5862
B(  1-C , 32-H ) :   0.9869 B(  2-C ,  3-C ) :   1.2404 B(  2-C ,  6-C ) :   1.0112
B(  3-C ,  4-C ) :   1.5800 B(  3-C ,  5-H ) :   0.9857 B(  4-C , 20-C ) :   1.0119
B(  6-C ,  7-H ) :   0.9287 B(  6-C ,  8-H ) :   0.9468 B(  6-C ,  9-C ) :   1.0609
B(  9-C , 10-H ) :   0.9489 B(  9-C , 11-H ) :   0.9659 B(  9-C , 12-C ) :   1.0627
B( 12-C , 13-H ) :   0.9769 B( 12-C , 14-H ) :   0.9786 B( 12-C , 15-H ) :   0.9765
B( 16-S , 17-C ) :   1.1843 B( 16-S , 20-C ) :   1.1086 B( 17-C , 18-C ) :   1.6102
B( 17-C , 33-H ) :   0.9697 B( 18-C , 19-C ) :   1.2229 B( 18-C , 21-H ) :   0.9914
B( 19-C , 20-C ) :   1.6271 B( 19-C , 22-C ) :   1.0495 B( 22-C , 23-H ) :   0.9287
B( 22-C , 24-H ) :   0.9335 B( 22-C , 25-C ) :   1.0653 B( 25-C , 26-H ) :   0.9556
B( 25-C , 27-H ) :   0.9538 B( 25-C , 28-C ) :   1.0663 B( 28-C , 29-H ) :   0.9760
B( 28-C , 30-H ) :   0.9755 B( 28-C , 31-H ) :   0.9733

Dispersion correction           -0.014720758
FINAL SINGLE POINT ENERGY     -1339.866157511621

DIPOLE MOMENT
-------------
                                X             Y             Z
Electronic contribution:     10.99200     -18.55529      -6.93618
Nuclear contribution   :    -11.20309      18.90399       6.92126
                        -----------------------------------------
Total Dipole Moment    :     -0.21108       0.34870      -0.01491
                        -----------------------------------------
Magnitude (a.u.)       :      0.40789
Magnitude (Debye)      :      1.03677

Rotational constants in cm-1:     0.019386     0.007655     0.007373
Rotational constants in MHz :   581.183814   229.487067   221.043442

                             ****ORCA TERMINATED NORMALLY****
TOTAL RUN TIME: 0 days 0 hours 0 minutes 34 seconds 565 msec
