                         Program Version 4.2.1 -  RELEASE  -
|  1> ! wB97X-D3 SP def2-SVP
|  2> %pal
|  3> nprocs 16
|  4> end
|  5>
|  6> * xyz 0 1
|  7> S 	 6.61706 	 -12.3437 	 64.9998
|  8> C 	 7.16817 	 -12.7082 	 66.611
|  9> C 	 7.11622 	 -14.0386 	 66.8624
| 10> C 	 6.67933 	 -14.7915 	 65.7629
| 11> C 	 6.23076 	 -13.9796 	 64.6861
| 12> H 	 6.62127 	 -15.9217 	 65.6437
| 13> C 	 7.46987 	 -14.6815 	 68.241
| 14> H 	 7.25143 	 -15.7372 	 68.1116
| 15> H 	 6.78207 	 -14.2063 	 68.9324
| 16> C 	 8.85358 	 -14.4918 	 68.8237
| 17> H 	 9.32015 	 -13.4726 	 68.8487
| 18> H 	 8.91745 	 -14.8286 	 69.8624
| 19> C 	 9.92985 	 -15.2317 	 67.9753
| 20> H 	 10.8896 	 -15.185 	 68.4678
| 21> H 	 9.67887 	 -16.3191 	 67.6917
| 22> H 	 9.97182 	 -14.8138 	 67.0075
| 23> S 	 7.31093 	 -15.4777 	 62.6453
| 24> C 	 6.57003 	 -15.5093 	 61.0805
| 25> C 	 5.29731 	 -15.0094 	 61.1477
| 26> C 	 4.98905 	 -14.3375 	 62.3989
| 27> C 	 5.96747 	 -14.535 	 63.3433
| 28> H 	 4.57191 	 -15.0547 	 60.3204
| 29> C 	 3.67247 	 -13.7403 	 62.7791
| 30> H 	 3.83464 	 -12.7216 	 62.7916
| 31> H 	 3.54387 	 -14.0842 	 63.7453
| 32> C 	 2.44906 	 -14.1485 	 61.9427
| 33> H 	 2.39356 	 -15.2163 	 62.1253
| 34> H 	 2.61119 	 -13.8748 	 60.8503
| 35> C 	 1.23965 	 -13.374 	 62.426
| 36> H 	 1.12607 	 -13.5128 	 63.5247
| 37> H 	 0.268417 	 -13.6631 	 62.0136
| 38> H 	 1.35925 	 -12.3454 	 62.2175
| 39> H 	 7.53117 	 -11.9783 	 67.3192
| 40> H 	 6.94596 	 -16.1596 	 60.2994
| 41> *
| 42>
| 43>                          ****END OF INPUT****

CARTESIAN COORDINATES (ANGSTROEM)
---------------------------------
  S      6.617060  -12.343700   64.999800
  C      7.168170  -12.708200   66.611000
  C      7.116220  -14.038600   66.862400
  C      6.679330  -14.791500   65.762900
  C      6.230760  -13.979600   64.686100
  H      6.621270  -15.921700   65.643700
  C      7.469870  -14.681500   68.241000
  H      7.251430  -15.737200   68.111600
  H      6.782070  -14.206300   68.932400
  C      8.853580  -14.491800   68.823700
  H      9.320150  -13.472600   68.848700
  H      8.917450  -14.828600   69.862400
  C      9.929850  -15.231700   67.975300
  H     10.889600  -15.185000   68.467800
  H      9.678870  -16.319100   67.691700
  H      9.971820  -14.813800   67.007500
  S      7.310930  -15.477700   62.645300
  C      6.570030  -15.509300   61.080500
  C      5.297310  -15.009400   61.147700
  C      4.989050  -14.337500   62.398900
  C      5.967470  -14.535000   63.343300
  H      4.571910  -15.054700   60.320400
  C      3.672470  -13.740300   62.779100
  H      3.834640  -12.721600   62.791600
  H      3.543870  -14.084200   63.745300
  C      2.449060  -14.148500   61.942700
  H      2.393560  -15.216300   62.125300
  H      2.611190  -13.874800   60.850300
  C      1.239650  -13.374000   62.426000
  H      1.126070  -13.512800   63.524700
  H      0.268417  -13.663100   62.013600
  H      1.359250  -12.345400   62.217500
  H      7.531170  -11.978300   67.319200
  H      6.945960  -16.159600   60.299400

 Total Charge           Charge          ....    0
 Multiplicity           Mult            ....    1
 Number of Electrons    NEL             ....  134
 Basis Dimension        Dim             ....  322

ORBITAL ENERGIES
----------------

  NO   OCC          E(Eh)            E(eV)
   0   2.0000     -88.969795     -2420.9912
   1   2.0000     -88.958977     -2420.6968
   2   2.0000     -10.329199      -281.0718
   3   2.0000     -10.323527      -280.9175
   4   2.0000     -10.314700      -280.6773
   5   2.0000     -10.310809      -280.5714
   6   2.0000     -10.299812      -280.2721
   7   2.0000     -10.299782      -280.2713
   8   2.0000     -10.299231      -280.2563
   9   2.0000     -10.295446      -280.1533
  10   2.0000     -10.295082      -280.1434
  11   2.0000     -10.291536      -280.0469
  12   2.0000     -10.291451      -280.0446
  13   2.0000     -10.276391      -279.6348
  14   2.0000     -10.275612      -279.6136
  15   2.0000     -10.274164      -279.5742
  16   2.0000      -8.084984      -220.0036
  17   2.0000      -8.073814      -219.6997
  18   2.0000      -6.043332      -164.4474
  19   2.0000      -6.039317      -164.3382
  20   2.0000      -6.035996      -164.2478
  21   2.0000      -6.032416      -164.1504
  22   2.0000      -6.028284      -164.0379
  23   2.0000      -6.024484      -163.9345
  24   2.0000      -1.009387       -27.4668
  25   2.0000      -0.986581       -26.8462
  26   2.0000      -0.916541       -24.9403
  27   2.0000      -0.910104       -24.7652
  28   2.0000      -0.868405       -23.6305
  29   2.0000      -0.850434       -23.1415
  30   2.0000      -0.847901       -23.0726
  31   2.0000      -0.808235       -21.9932
  32   2.0000      -0.784354       -21.3434
  33   2.0000      -0.773703       -21.0535
  34   2.0000      -0.707600       -19.2548
  35   2.0000      -0.701390       -19.0858
  36   2.0000      -0.695864       -18.9354
  37   2.0000      -0.652938       -17.7673
  38   2.0000      -0.636939       -17.3320
  39   2.0000      -0.605251       -16.4697
  40   2.0000      -0.595654       -16.2086
  41   2.0000      -0.584108       -15.8944
  42   2.0000      -0.571187       -15.5428
  43   2.0000      -0.554460       -15.0876
  44   2.0000      -0.540649       -14.7118
  45   2.0000      -0.523575       -14.2472
  46   2.0000      -0.516760       -14.0617
  47   2.0000      -0.510737       -13.8978
  48   2.0000      -0.509800       -13.8724
  49   2.0000      -0.494505       -13.4562
  50   2.0000      -0.488806       -13.3011
  51   2.0000      -0.480432       -13.0732
  52   2.0000      -0.469376       -12.7724
  53   2.0000      -0.463838       -12.6217
  54   2.0000      -0.459862       -12.5135
  55   2.0000      -0.454310       -12.3624
  56   2.0000      -0.443333       -12.0637
  57   2.0000      -0.436543       -11.8790
  58   2.0000      -0.433571       -11.7981
  59   2.0000      -0.423642       -11.5279
  60   2.0000      -0.418831       -11.3970
  61   2.0000      -0.415248       -11.2995
  62   2.0000      -0.410389       -11.1672
  63   2.0000      -0.340724        -9.2716
  64   2.0000      -0.333656        -9.0793
  65   2.0000      -0.325438        -8.8556
  66   2.0000      -0.298401        -8.1199
  67   0.0000       0.032426         0.8823
  68   0.0000       0.062588         1.7031
  69   0.0000       0.110653         3.0110
  70   0.0000       0.124078         3.3763
  71   0.0000       0.131953         3.5906

MULLIKEN ATOMIC CHARGES
-----------------------
   0 S :    0.132120
   1 C :   -0.134976
   2 C :   -0.076878
   3 C :   -0.045605
   4 C :   -0.126629
   5 H :    0.043937
   6 C :    0.105380
   7 H :    0.023597
   8 H :    0.039165
   9 C :   -0.081268
  10 H :    0.036006
  11 H :    0.034730
  12 C :   -0.080354
  13 H :    0.037741
  14 H :    0.025602
  15 H :    0.031776
  16 S :    0.094198
  17 C :   -0.079117
  18 C :   -0.040643
  19 C :   -0.077434
  20 C :   -0.180567
  21 H :    0.025853
  22 C :    0.115825
  23 H :    0.011116
  24 H :    0.020544
  25 C :   -0.109801
  26 H :    0.038546
  27 H :    0.046910
  28 C :   -0.020957
  29 H :    0.027755
  30 H :    0.031382
  31 H :    0.024001
  32 H :    0.044777
  33 H :    0.063269
Sum of atomic charges:   -0.0000000

LOEWDIN ATOMIC CHARGES
----------------------
   0 S :    0.440252
   1 C :   -0.199106
   2 C :   -0.070405
   3 C :   -0.076488
   4 C :   -0.219670
   5 H :    0.042196
   6 C :   -0.023538
   7 H :    0.031359
   8 H :    0.035498
   9 C :   -0.047628
  10 H :    0.031149
  11 H :    0.025677
  12 C :   -0.070622
  13 H :    0.023267
  14 H :    0.026679
  15 H :    0.019170
  16 S :    0.397285
  17 C :   -0.188783
  18 C :   -0.076804
  19 C :   -0.053215
  20 C :   -0.194168
  21 H :    0.032242
  22 C :   -0.023451
  23 H :    0.022903
  24 H :    0.027405
  25 C :   -0.039517
  26 H :    0.026583
  27 H :    0.029916
  28 C :   -0.063008
  29 H :    0.029009
  30 H :    0.025601
  31 H :    0.020732
  32 H :    0.028718
  33 H :    0.030763

  Mayer bond orders larger than 0.100000
B(  0-S ,  1-C ) :   1.1577 B(  0-S ,  4-C ) :   1.1824 B(  1-C ,  2-C ) :   1.5825
B(  1-C , 32-H ) :   0.9715 B(  2-C ,  3-C ) :   1.2785 B(  2-C ,  6-C ) :   0.9969
B(  3-C ,  4-C ) :   1.5093 B(  3-C ,  5-H ) :   0.9878 B(  4-C , 20-C ) :   1.0320
B(  6-C ,  7-H ) :   0.9454 B(  6-C ,  8-H ) :   0.9378 B(  6-C ,  9-C ) :   1.0760
B(  9-C , 10-H ) :   0.9563 B(  9-C , 11-H ) :   0.9560 B(  9-C , 12-C ) :   1.0608
B( 12-C , 13-H ) :   0.9766 B( 12-C , 14-H ) :   0.9755 B( 12-C , 15-H ) :   0.9782
B( 16-S , 17-C ) :   1.1632 B( 16-S , 20-C ) :   1.1235 B( 17-C , 18-C ) :   1.6020
B( 17-C , 33-H ) :   0.9617 B( 18-C , 19-C ) :   1.2391 B( 18-C , 21-H ) :   0.9811
B( 19-C , 20-C ) :   1.6233 B( 19-C , 22-C ) :   1.0151 B( 22-C , 23-H ) :   0.9123
B( 22-C , 24-H ) :   0.9360 B( 22-C , 25-C ) :   1.0840 B( 25-C , 26-H ) :   0.9561
B( 25-C , 27-H ) :   0.9482 B( 25-C , 28-C ) :   1.0886 B( 28-C , 29-H ) :   0.9714
B( 28-C , 30-H ) :   0.9728 B( 28-C , 31-H ) :   0.9743

Dispersion correction           -0.013872205
FINAL SINGLE POINT ENERGY     -1339.872654304012

DIPOLE MOMENT
-------------
                                X             Y             Z
Electronic contribution:      7.48034       2.80624      -9.50855
Nuclear contribution   :     -7.72708      -2.87134       9.72262
                        -----------------------------------------
Total Dipole Moment    :     -0.24674      -0.06510       0.21407
                        -----------------------------------------
Magnitude (a.u.)       :      0.33308
Magnitude (Debye)      :      0.84662

Rotational constants in cm-1:     0.023235     0.007280     0.006163
Rotational constants in MHz :   696.580482   218.236414   184.763834

                             ****ORCA TERMINATED NORMALLY****
TOTAL RUN TIME: 0 days 0 hours 0 minutes 28 seconds 882 msec
