                         Program Version 4.2.1 -  RELEASE  -
|  1> ! wB97X-D3 SP def2-SVP
|  2> %pal
|  3> nprocs 16
|  4> end
|  5>
|  6> * xyz 0 1
|  7> S 	 -11.9373 	 36.8654 	 32.1311
|  8> C 	 -13.0458 	 35.886 	 33.038
|  9> C 	 -14.3091 	 35.845 	 32.4675
| 10> C 	 -14.2966 	 36.6697 	 31.2587
| 11> C 	 -13.2048 	 37.4011 	 31.1192
| 12> H 	 -15.0708 	 36.7295 	 30.5051
| 13> C 	 -15.4257 	 34.8358 	 32.8101
| 14> H 	 -14.9932 	 33.9619 	 33.3149
| 15> H 	 -15.8723 	 34.4964 	 31.8677
| 16> C 	 -16.5271 	 35.4746 	 33.6917
| 17> H 	 -16.6719 	 36.5194 	 33.3261
| 18> H 	 -17.4251 	 34.8923 	 33.4526
| 19> C 	 -16.2157 	 35.5033 	 35.1662
| 20> H 	 -15.2104 	 36.0398 	 35.3902
| 21> H 	 -16.868 	 36.1259 	 35.6587
| 22> H 	 -16.2179 	 34.5035 	 35.6027
| 23> S 	 -11.5215 	 37.8935 	 28.9823
| 24> C 	 -11.9824 	 39.1411 	 27.8293
| 25> C 	 -13.2514 	 39.6229 	 27.9533
| 26> C 	 -13.8066 	 39.1711 	 29.2172
| 27> C 	 -12.9443 	 38.2894 	 29.939
| 28> H 	 -13.7282 	 40.2314 	 27.142
| 29> C 	 -15.2216 	 39.4995 	 29.5884
| 30> H 	 -15.3435 	 40.5576 	 29.55
| 31> H 	 -15.4138 	 39.3128 	 30.5982
| 32> C 	 -16.1949 	 38.7859 	 28.6413
| 33> H 	 -16.0675 	 37.7053 	 28.7233
| 34> H 	 -15.8985 	 39.061 	 27.5515
| 35> C 	 -17.7241 	 39.1689 	 28.7357
| 36> H 	 -17.9747 	 40.108 	 28.2385
| 37> H 	 -18.101 	 39.11 	 29.7352
| 38> H 	 -18.4501 	 38.4678 	 28.2307
| 39> H 	 -12.7464 	 35.2488 	 33.8801
| 40> H 	 -11.4436 	 39.2437 	 26.9474
| 41> *
| 42>
| 43>                          ****END OF INPUT****

CARTESIAN COORDINATES (ANGSTROEM)
---------------------------------
  S    -11.937300   36.865400   32.131100
  C    -13.045800   35.886000   33.038000
  C    -14.309100   35.845000   32.467500
  C    -14.296600   36.669700   31.258700
  C    -13.204800   37.401100   31.119200
  H    -15.070800   36.729500   30.505100
  C    -15.425700   34.835800   32.810100
  H    -14.993200   33.961900   33.314900
  H    -15.872300   34.496400   31.867700
  C    -16.527100   35.474600   33.691700
  H    -16.671900   36.519400   33.326100
  H    -17.425100   34.892300   33.452600
  C    -16.215700   35.503300   35.166200
  H    -15.210400   36.039800   35.390200
  H    -16.868000   36.125900   35.658700
  H    -16.217900   34.503500   35.602700
  S    -11.521500   37.893500   28.982300
  C    -11.982400   39.141100   27.829300
  C    -13.251400   39.622900   27.953300
  C    -13.806600   39.171100   29.217200
  C    -12.944300   38.289400   29.939000
  H    -13.728200   40.231400   27.142000
  C    -15.221600   39.499500   29.588400
  H    -15.343500   40.557600   29.550000
  H    -15.413800   39.312800   30.598200
  C    -16.194900   38.785900   28.641300
  H    -16.067500   37.705300   28.723300
  H    -15.898500   39.061000   27.551500
  C    -17.724100   39.168900   28.735700
  H    -17.974700   40.108000   28.238500
  H    -18.101000   39.110000   29.735200
  H    -18.450100   38.467800   28.230700
  H    -12.746400   35.248800   33.880100
  H    -11.443600   39.243700   26.947400

 Total Charge           Charge          ....    0
 Multiplicity           Mult            ....    1
 Number of Electrons    NEL             ....  134
 Basis Dimension        Dim             ....  322

ORBITAL ENERGIES
----------------

  NO   OCC          E(Eh)            E(eV)
   0   2.0000     -88.965189     -2420.8659
   1   2.0000     -88.964044     -2420.8347
   2   2.0000     -10.331534      -281.1353
   3   2.0000     -10.321151      -280.8528
   4   2.0000     -10.314689      -280.6770
   5   2.0000     -10.310979      -280.5760
   6   2.0000     -10.309374      -280.5323
   7   2.0000     -10.304479      -280.3991
   8   2.0000     -10.301060      -280.3061
   9   2.0000     -10.300456      -280.2897
  10   2.0000     -10.296455      -280.1808
  11   2.0000     -10.289000      -279.9779
  12   2.0000     -10.288280      -279.9583
  13   2.0000     -10.284730      -279.8617
  14   2.0000     -10.283958      -279.8407
  15   2.0000     -10.276812      -279.6463
  16   2.0000      -8.080078      -219.8701
  17   2.0000      -8.079820      -219.8631
  18   2.0000      -6.038522      -164.3165
  19   2.0000      -6.038245      -164.3090
  20   2.0000      -6.034640      -164.2109
  21   2.0000      -6.034625      -164.2105
  22   2.0000      -6.030592      -164.1008
  23   2.0000      -6.030400      -164.0955
  24   2.0000      -1.011095       -27.5133
  25   2.0000      -0.983796       -26.7704
  26   2.0000      -0.910837       -24.7851
  27   2.0000      -0.907803       -24.7026
  28   2.0000      -0.868134       -23.6231
  29   2.0000      -0.849666       -23.1206
  30   2.0000      -0.842330       -22.9210
  31   2.0000      -0.818087       -22.2613
  32   2.0000      -0.785093       -21.3635
  33   2.0000      -0.773307       -21.0428
  34   2.0000      -0.704759       -19.1775
  35   2.0000      -0.696252       -18.9460
  36   2.0000      -0.689556       -18.7638
  37   2.0000      -0.658770       -17.9260
  38   2.0000      -0.642036       -17.4707
  39   2.0000      -0.620689       -16.8898
  40   2.0000      -0.599748       -16.3200
  41   2.0000      -0.571256       -15.5447
  42   2.0000      -0.561731       -15.2855
  43   2.0000      -0.547958       -14.9107
  44   2.0000      -0.542380       -14.7589
  45   2.0000      -0.521155       -14.1813
  46   2.0000      -0.516113       -14.0441
  47   2.0000      -0.509605       -13.8671
  48   2.0000      -0.504750       -13.7349
  49   2.0000      -0.494905       -13.4670
  50   2.0000      -0.486793       -13.2463
  51   2.0000      -0.480532       -13.0760
  52   2.0000      -0.470042       -12.7905
  53   2.0000      -0.464337       -12.6353
  54   2.0000      -0.460520       -12.5314
  55   2.0000      -0.457972       -12.4621
  56   2.0000      -0.444072       -12.0838
  57   2.0000      -0.436542       -11.8789
  58   2.0000      -0.429786       -11.6951
  59   2.0000      -0.427892       -11.6435
  60   2.0000      -0.423556       -11.5255
  61   2.0000      -0.420485       -11.4420
  62   2.0000      -0.412631       -11.2282
  63   2.0000      -0.351271        -9.5586
  64   2.0000      -0.329606        -8.9690
  65   2.0000      -0.326020        -8.8714
  66   2.0000      -0.293105        -7.9758
  67   0.0000       0.032213         0.8766
  68   0.0000       0.074101         2.0164
  69   0.0000       0.095410         2.5962
  70   0.0000       0.120791         3.2869
  71   0.0000       0.130760         3.5582

MULLIKEN ATOMIC CHARGES
-----------------------
   0 S :    0.105142
   1 C :   -0.123345
   2 C :   -0.087420
   3 C :    0.014691
   4 C :   -0.123216
   5 H :   -0.004742
   6 C :    0.058300
   7 H :    0.025309
   8 H :    0.029860
   9 C :   -0.082080
  10 H :    0.033093
  11 H :    0.030439
  12 C :   -0.030815
  13 H :    0.035099
  14 H :    0.017045
  15 H :    0.036382
  16 S :    0.090971
  17 C :   -0.060097
  18 C :   -0.049293
  19 C :   -0.090332
  20 C :   -0.119414
  21 H :    0.049710
  22 C :    0.136515
  23 H :    0.013499
  24 H :    0.006320
  25 C :   -0.122302
  26 H :    0.039928
  27 H :    0.037682
  28 C :   -0.051311
  29 H :    0.038045
  30 H :    0.027381
  31 H :    0.031307
  32 H :    0.055293
  33 H :    0.032360
Sum of atomic charges:    0.0000000

LOEWDIN ATOMIC CHARGES
----------------------
   0 S :    0.416418
   1 C :   -0.201084
   2 C :   -0.060182
   3 C :   -0.062770
   4 C :   -0.209063
   5 H :    0.028102
   6 C :   -0.027519
   7 H :    0.028802
   8 H :    0.032512
   9 C :   -0.044242
  10 H :    0.028175
  11 H :    0.023928
  12 C :   -0.066496
  13 H :    0.037091
  14 H :    0.014969
  15 H :    0.025562
  16 S :    0.391721
  17 C :   -0.168485
  18 C :   -0.070051
  19 C :   -0.048567
  20 C :   -0.192160
  21 H :    0.046234
  22 C :   -0.032900
  23 H :    0.029121
  24 H :    0.021516
  25 C :   -0.039413
  26 H :    0.021036
  27 H :    0.032591
  28 C :   -0.077079
  29 H :    0.026284
  30 H :    0.019771
  31 H :    0.033816
  32 H :    0.030660
  33 H :    0.011702

  Mayer bond orders larger than 0.100000
B(  0-S ,  1-C ) :   1.1374 B(  0-S ,  4-C ) :   1.1470 B(  1-C ,  2-C ) :   1.6308
B(  1-C , 32-H ) :   0.9640 B(  2-C ,  3-C ) :   1.2086 B(  2-C ,  6-C ) :   1.0216
B(  3-C ,  4-C ) :   1.6153 B(  3-C ,  5-H ) :   0.9914 B(  4-C , 20-C ) :   1.0029
B(  6-C ,  7-H ) :   0.9491 B(  6-C ,  8-H ) :   0.9466 B(  6-C ,  9-C ) :   1.0514
B(  9-C , 10-H ) :   0.9580 B(  9-C , 11-H ) :   0.9552 B(  9-C , 12-C ) :   1.0890
B( 12-C , 13-H ) :   0.9681 B( 12-C , 14-H ) :   0.9708 B( 12-C , 15-H ) :   0.9737
B( 16-S , 17-C ) :   1.1509 B( 16-S , 20-C ) :   1.1419 B( 17-C , 18-C ) :   1.6404
B( 17-C , 33-H ) :   0.9690 B( 18-C , 19-C ) :   1.2171 B( 18-C , 21-H ) :   0.9809
B( 19-C , 20-C ) :   1.6153 B( 19-C , 22-C ) :   1.0616 B( 22-C , 23-H ) :   0.9258
B( 22-C , 24-H ) :   0.9264 B( 22-C , 25-C ) :   1.0456 B( 25-C , 26-H ) :   0.9552
B( 25-C , 27-H ) :   0.9576 B( 25-C , 28-C ) :   1.0676 B( 28-C , 29-H ) :   0.9779
B( 28-C , 30-H ) :   0.9762 B( 28-C , 31-H ) :   0.9749

Dispersion correction           -0.014325645
FINAL SINGLE POINT ENERGY     -1339.865403688264

DIPOLE MOMENT
-------------
                                X             Y             Z
Electronic contribution:     29.97359       1.84157      -5.68643
Nuclear contribution   :    -30.75311      -2.04814       5.48246
                        -----------------------------------------
Total Dipole Moment    :     -0.77951      -0.20657      -0.20398
                        -----------------------------------------
Magnitude (a.u.)       :      0.83182
Magnitude (Debye)      :      2.11431

Rotational constants in cm-1:     0.017833     0.009282     0.006454
Rotational constants in MHz :   534.627931   278.261990   193.490035

                             ****ORCA TERMINATED NORMALLY****
TOTAL RUN TIME: 0 days 0 hours 0 minutes 34 seconds 251 msec
