                         Program Version 4.2.1 -  RELEASE  -
|  1> ! wB97X-D3 SP def2-SVP
|  2> %pal
|  3> nprocs 16
|  4> end
|  5>
|  6> * xyz 0 1
|  7> S 	 -94.6943 	 57.3943 	 131.424
|  8> C 	 -93.3401 	 58.5578 	 131.599
|  9> C 	 -93.8748 	 59.8229 	 131.816
| 10> C 	 -95.292 	 59.7626 	 132.061
| 11> C 	 -95.8442 	 58.5317 	 131.893
| 12> H 	 -95.8759 	 60.5995 	 132.452
| 13> C 	 -93.2726 	 61.1389 	 131.901
| 14> H 	 -92.2182 	 60.9371 	 131.906
| 15> H 	 -93.4951 	 61.6543 	 132.836
| 16> C 	 -93.5479 	 61.9857 	 130.648
| 17> H 	 -93.2451 	 61.5536 	 129.74
| 18> H 	 -94.677 	 62.0928 	 130.616
| 19> C 	 -92.9661 	 63.3771 	 130.776
| 20> H 	 -93.6268 	 64.1784 	 130.562
| 21> H 	 -92.6491 	 63.4184 	 131.832
| 22> H 	 -92.0329 	 63.4372 	 130.176
| 23> S 	 -97.7497 	 57.3459 	 133.558
| 24> C 	 -99.3639 	 57.2266 	 132.946
| 25> C 	 -99.4505 	 57.7272 	 131.663
| 26> C 	 -98.2849 	 58.3878 	 131.167
| 27> C 	 -97.1992 	 58.2027 	 132.074
| 28> H 	 -100.363 	 57.5953 	 131.026
| 29> C 	 -98.1886 	 58.9302 	 129.731
| 30> H 	 -98.3526 	 58.1546 	 129.022
| 31> H 	 -97.1161 	 59.2232 	 129.707
| 32> C 	 -98.9939 	 60.2118 	 129.492
| 33> H 	 -98.6106 	 61.0894 	 130.061
| 34> H 	 -100.008 	 60.0601 	 129.911
| 35> C 	 -99.0841 	 60.7443 	 128.018
| 36> H 	 -99.4953 	 60.0303 	 127.318
| 37> H 	 -98.1418 	 61.1831 	 127.685
| 38> H 	 -99.8122 	 61.5843 	 127.94
| 39> H 	 -92.2795 	 58.4271 	 131.58
| 40> H 	 -100.038 	 56.4649 	 133.384
| 41> *
| 42>
| 43>                          ****END OF INPUT****

CARTESIAN COORDINATES (ANGSTROEM)
---------------------------------
  S    -94.694300   57.394300  131.424000
  C    -93.340100   58.557800  131.599000
  C    -93.874800   59.822900  131.816000
  C    -95.292000   59.762600  132.061000
  C    -95.844200   58.531700  131.893000
  H    -95.875900   60.599500  132.452000
  C    -93.272600   61.138900  131.901000
  H    -92.218200   60.937100  131.906000
  H    -93.495100   61.654300  132.836000
  C    -93.547900   61.985700  130.648000
  H    -93.245100   61.553600  129.740000
  H    -94.677000   62.092800  130.616000
  C    -92.966100   63.377100  130.776000
  H    -93.626800   64.178400  130.562000
  H    -92.649100   63.418400  131.832000
  H    -92.032900   63.437200  130.176000
  S    -97.749700   57.345900  133.558000
  C    -99.363900   57.226600  132.946000
  C    -99.450500   57.727200  131.663000
  C    -98.284900   58.387800  131.167000
  C    -97.199200   58.202700  132.074000
  H    -100.363000   57.595300  131.026000
  C    -98.188600   58.930200  129.731000
  H    -98.352600   58.154600  129.022000
  H    -97.116100   59.223200  129.707000
  C    -98.993900   60.211800  129.492000
  H    -98.610600   61.089400  130.061000
  H    -100.008000   60.060100  129.911000
  C    -99.084100   60.744300  128.018000
  H    -99.495300   60.030300  127.318000
  H    -98.141800   61.183100  127.685000
  H    -99.812200   61.584300  127.940000
  H    -92.279500   58.427100  131.580000
  H    -100.038000   56.464900  133.384000

 Total Charge           Charge          ....    0
 Multiplicity           Mult            ....    1
 Number of Electrons    NEL             ....  134
 Basis Dimension        Dim             ....  322

ORBITAL ENERGIES
----------------

  NO   OCC          E(Eh)            E(eV)
   0   2.0000     -88.965679     -2420.8792
   1   2.0000     -88.965355     -2420.8704
   2   2.0000     -10.327876      -281.0358
   3   2.0000     -10.317192      -280.7451
   4   2.0000     -10.317125      -280.7432
   5   2.0000     -10.316176      -280.7174
   6   2.0000     -10.308292      -280.5029
   7   2.0000     -10.296462      -280.1810
   8   2.0000     -10.296252      -280.1753
   9   2.0000     -10.292756      -280.0801
  10   2.0000     -10.292449      -280.0718
  11   2.0000     -10.287213      -279.9293
  12   2.0000     -10.286668      -279.9145
  13   2.0000     -10.285206      -279.8747
  14   2.0000     -10.281866      -279.7838
  15   2.0000     -10.275751      -279.6174
  16   2.0000      -8.080859      -219.8914
  17   2.0000      -8.079755      -219.8613
  18   2.0000      -6.039568      -164.3450
  19   2.0000      -6.038189      -164.3075
  20   2.0000      -6.035207      -164.2263
  21   2.0000      -6.034305      -164.2018
  22   2.0000      -6.031442      -164.1239
  23   2.0000      -6.030614      -164.1014
  24   2.0000      -1.010127       -27.4869
  25   2.0000      -0.981226       -26.7005
  26   2.0000      -0.924503       -25.1570
  27   2.0000      -0.902688       -24.5634
  28   2.0000      -0.873783       -23.7768
  29   2.0000      -0.849803       -23.1243
  30   2.0000      -0.844771       -22.9874
  31   2.0000      -0.809369       -22.0240
  32   2.0000      -0.785128       -21.3644
  33   2.0000      -0.772456       -21.0196
  34   2.0000      -0.707991       -19.2654
  35   2.0000      -0.700738       -19.0681
  36   2.0000      -0.694812       -18.9068
  37   2.0000      -0.651827       -17.7371
  38   2.0000      -0.642809       -17.4917
  39   2.0000      -0.620527       -16.8854
  40   2.0000      -0.595200       -16.1962
  41   2.0000      -0.575950       -15.6724
  42   2.0000      -0.562629       -15.3099
  43   2.0000      -0.557996       -15.1838
  44   2.0000      -0.530778       -14.4432
  45   2.0000      -0.525647       -14.3036
  46   2.0000      -0.518530       -14.1099
  47   2.0000      -0.514847       -14.0097
  48   2.0000      -0.508868       -13.8470
  49   2.0000      -0.502038       -13.6611
  50   2.0000      -0.499852       -13.6017
  51   2.0000      -0.471019       -12.8171
  52   2.0000      -0.468879       -12.7588
  53   2.0000      -0.459148       -12.4941
  54   2.0000      -0.452115       -12.3027
  55   2.0000      -0.451358       -12.2821
  56   2.0000      -0.446725       -12.1560
  57   2.0000      -0.439255       -11.9527
  58   2.0000      -0.432494       -11.7687
  59   2.0000      -0.423863       -11.5339
  60   2.0000      -0.421614       -11.4727
  61   2.0000      -0.410653       -11.1744
  62   2.0000      -0.409942       -11.1551
  63   2.0000      -0.334863        -9.1121
  64   2.0000      -0.325616        -8.8605
  65   2.0000      -0.321167        -8.7394
  66   2.0000      -0.309662        -8.4263
  67   0.0000       0.035217         0.9583
  68   0.0000       0.059120         1.6087
  69   0.0000       0.114309         3.1105
  70   0.0000       0.117353         3.1933
  71   0.0000       0.121099         3.2953

MULLIKEN ATOMIC CHARGES
-----------------------
   0 S :    0.122835
   1 C :   -0.106947
   2 C :   -0.099126
   3 C :    0.020569
   4 C :   -0.169755
   5 H :    0.018045
   6 C :    0.074093
   7 H :   -0.000369
   8 H :    0.041008
   9 C :   -0.090463
  10 H :    0.023124
  11 H :    0.028613
  12 C :   -0.018835
  13 H :    0.036361
  14 H :    0.020225
  15 H :    0.037203
  16 S :    0.111129
  17 C :   -0.101471
  18 C :   -0.051352
  19 C :   -0.027327
  20 C :   -0.188070
  21 H :    0.036929
  22 C :    0.097902
  23 H :    0.036239
  24 H :    0.033559
  25 C :   -0.107708
  26 H :    0.033719
  27 H :    0.028758
  28 C :   -0.051318
  29 H :    0.030996
  30 H :    0.037803
  31 H :    0.030458
  32 H :    0.033927
  33 H :    0.079246
Sum of atomic charges:   -0.0000000

LOEWDIN ATOMIC CHARGES
----------------------
   0 S :    0.422216
   1 C :   -0.188757
   2 C :   -0.058930
   3 C :   -0.059908
   4 C :   -0.228450
   5 H :    0.033311
   6 C :   -0.038814
   7 H :    0.024632
   8 H :    0.035171
   9 C :   -0.034399
  10 H :    0.018665
  11 H :    0.027034
  12 C :   -0.064055
  13 H :    0.021860
  14 H :    0.027519
  15 H :    0.030741
  16 S :    0.399292
  17 C :   -0.203235
  18 C :   -0.078715
  19 C :   -0.045223
  20 C :   -0.193003
  21 H :    0.037456
  22 C :   -0.030218
  23 H :    0.029400
  24 H :    0.038066
  25 C :   -0.045649
  26 H :    0.030552
  27 H :    0.021474
  28 C :   -0.070277
  29 H :    0.021173
  30 H :    0.025389
  31 H :    0.031078
  32 H :    0.026866
  33 H :    0.037736

  Mayer bond orders larger than 0.100000
B(  0-S ,  1-C ) :   1.1180 B(  0-S ,  4-C ) :   1.1532 B(  1-C ,  2-C ) :   1.6216
B(  1-C , 32-H ) :   0.9716 B(  2-C ,  3-C ) :   1.2159 B(  2-C ,  6-C ) :   1.0484
B(  3-C ,  4-C ) :   1.5890 B(  3-C ,  5-H ) :   0.9937 B(  4-C , 20-C ) :   1.0429
B(  6-C ,  7-H ) :   0.9209 B(  6-C ,  8-H ) :   0.9313 B(  6-C ,  9-C ) :   1.0725
B(  9-C , 10-H ) :   0.9583 B(  9-C , 11-H ) :   0.9596 B(  9-C , 12-C ) :   1.0684
B( 12-C , 13-H ) :   0.9759 B( 12-C , 14-H ) :   0.9752 B( 12-C , 15-H ) :   0.9754
B( 16-S , 17-C ) :   1.1579 B( 16-S , 20-C ) :   1.1503 B( 17-C , 18-C ) :   1.6044
B( 17-C , 20-C ) :   0.1085 B( 17-C , 33-H ) :   0.9584 B( 18-C , 19-C ) :   1.2555
B( 18-C , 21-H ) :   0.9755 B( 19-C , 20-C ) :   1.5716 B( 19-C , 22-C ) :   1.0379
B( 22-C , 23-H ) :   0.9453 B( 22-C , 24-H ) :   0.9250 B( 22-C , 25-C ) :   1.0512
B( 25-C , 26-H ) :   0.9535 B( 25-C , 27-H ) :   0.9646 B( 25-C , 28-C ) :   1.0800
B( 28-C , 29-H ) :   0.9763 B( 28-C , 30-H ) :   0.9767 B( 28-C , 31-H ) :   0.9738

Dispersion correction           -0.013949572
FINAL SINGLE POINT ENERGY     -1339.865826009632

DIPOLE MOMENT
-------------
                                X             Y             Z
Electronic contribution:     -1.22330     -25.57183      16.52335
Nuclear contribution   :      1.25145      26.00772     -16.87061
                        -----------------------------------------
Total Dipole Moment    :      0.02815       0.43589      -0.34726
                        -----------------------------------------
Magnitude (a.u.)       :      0.55801
Magnitude (Debye)      :      1.41836

Rotational constants in cm-1:     0.016238     0.009195     0.006770
Rotational constants in MHz :   486.806301   275.644255   202.966679

                             ****ORCA TERMINATED NORMALLY****
TOTAL RUN TIME: 0 days 0 hours 0 minutes 33 seconds 313 msec
