                         Program Version 4.2.1 -  RELEASE  -
|  1> ! wB97X-D3 SP def2-SVP
|  2> %pal
|  3> nprocs 16
|  4> end
|  5>
|  6> * xyz 0 1
|  7> S 	 -33.392 	 44.0074 	 96.263
|  8> C 	 -34.5862 	 43.1555 	 97.1038
|  9> C 	 -35.3935 	 43.9912 	 97.8915
| 10> C 	 -34.9181 	 45.3373 	 97.8277
| 11> C 	 -33.8027 	 45.5111 	 97.0634
| 12> H 	 -35.2818 	 46.1592 	 98.3967
| 13> C 	 -36.6122 	 43.7687 	 98.7456
| 14> H 	 -36.3991 	 43.9718 	 99.7964
| 15> H 	 -36.758 	 42.6907 	 98.8125
| 16> C 	 -37.9052 	 44.5101 	 98.3292
| 17> H 	 -37.875 	 45.5935 	 98.4788
| 18> H 	 -37.9646 	 44.3543 	 97.237
| 19> C 	 -39.0703 	 43.9498 	 99.1419
| 20> H 	 -40.0462 	 44.2752 	 98.8227
| 21> H 	 -39.0371 	 42.9108 	 99.0608
| 22> H 	 -38.9089 	 44.2043 	 100.224
| 23> S 	 -31.1708 	 46.4933 	 97.1498
| 24> C 	 -30.9299 	 48.1907 	 96.8695
| 25> C 	 -32.1746 	 48.88 	 96.7403
| 26> C 	 -33.2755 	 47.9633 	 96.6447
| 27> C 	 -32.9452 	 46.6648 	 96.9617
| 28> H 	 -32.1856 	 50.0187 	 96.6652
| 29> C 	 -34.683 	 48.5199 	 96.3241
| 30> H 	 -34.8221 	 49.6915 	 96.5019
| 31> H 	 -35.2442 	 48.0995 	 97.1649
| 32> C 	 -35.3186 	 48.1207 	 94.9444
| 33> H 	 -36.4456 	 48.2757 	 94.8407
| 34> H 	 -35.2098 	 47.0231 	 94.9139
| 35> C 	 -34.5389 	 48.6827 	 93.7157
| 36> H 	 -33.4982 	 48.3683 	 93.78
| 37> H 	 -34.5962 	 49.7741 	 93.4522
| 38> H 	 -34.9596 	 48.284 	 92.8392
| 39> H 	 -34.9623 	 42.1959 	 96.944
| 40> H 	 -30.0262 	 48.6285 	 97.2104
| 41> *
| 42>
| 43>                          ****END OF INPUT****

CARTESIAN COORDINATES (ANGSTROEM)
---------------------------------
  S    -33.392000   44.007400   96.263000
  C    -34.586200   43.155500   97.103800
  C    -35.393500   43.991200   97.891500
  C    -34.918100   45.337300   97.827700
  C    -33.802700   45.511100   97.063400
  H    -35.281800   46.159200   98.396700
  C    -36.612200   43.768700   98.745600
  H    -36.399100   43.971800   99.796400
  H    -36.758000   42.690700   98.812500
  C    -37.905200   44.510100   98.329200
  H    -37.875000   45.593500   98.478800
  H    -37.964600   44.354300   97.237000
  C    -39.070300   43.949800   99.141900
  H    -40.046200   44.275200   98.822700
  H    -39.037100   42.910800   99.060800
  H    -38.908900   44.204300  100.224000
  S    -31.170800   46.493300   97.149800
  C    -30.929900   48.190700   96.869500
  C    -32.174600   48.880000   96.740300
  C    -33.275500   47.963300   96.644700
  C    -32.945200   46.664800   96.961700
  H    -32.185600   50.018700   96.665200
  C    -34.683000   48.519900   96.324100
  H    -34.822100   49.691500   96.501900
  H    -35.244200   48.099500   97.164900
  C    -35.318600   48.120700   94.944400
  H    -36.445600   48.275700   94.840700
  H    -35.209800   47.023100   94.913900
  C    -34.538900   48.682700   93.715700
  H    -33.498200   48.368300   93.780000
  H    -34.596200   49.774100   93.452200
  H    -34.959600   48.284000   92.839200
  H    -34.962300   42.195900   96.944000
  H    -30.026200   48.628500   97.210400

 Total Charge           Charge          ....    0
 Multiplicity           Mult            ....    1
 Number of Electrons    NEL             ....  134
 Basis Dimension        Dim             ....  322

ORBITAL ENERGIES
----------------

  NO   OCC          E(Eh)            E(eV)
   0   2.0000     -88.968429     -2420.9540
   1   2.0000     -88.968032     -2420.9432
   2   2.0000     -10.330108      -281.0965
   3   2.0000     -10.325826      -280.9800
   4   2.0000     -10.318660      -280.7850
   5   2.0000     -10.310155      -280.5536
   6   2.0000     -10.309025      -280.5228
   7   2.0000     -10.306459      -280.4530
   8   2.0000     -10.305407      -280.4244
   9   2.0000     -10.300968      -280.3036
  10   2.0000     -10.296486      -280.1816
  11   2.0000     -10.293489      -280.1001
  12   2.0000     -10.292023      -280.0602
  13   2.0000     -10.287698      -279.9425
  14   2.0000     -10.278258      -279.6856
  15   2.0000     -10.273053      -279.5440
  16   2.0000      -8.083962      -219.9758
  17   2.0000      -8.082340      -219.9317
  18   2.0000      -6.042422      -164.4227
  19   2.0000      -6.040818      -164.3790
  20   2.0000      -6.038265      -164.3095
  21   2.0000      -6.036889      -164.2721
  22   2.0000      -6.034810      -164.2155
  23   2.0000      -6.033161      -164.1707
  24   2.0000      -1.010569       -27.4990
  25   2.0000      -0.983980       -26.7755
  26   2.0000      -0.915085       -24.9007
  27   2.0000      -0.896908       -24.4061
  28   2.0000      -0.871418       -23.7125
  29   2.0000      -0.855636       -23.2830
  30   2.0000      -0.843864       -22.9627
  31   2.0000      -0.810957       -22.0673
  32   2.0000      -0.781118       -21.2553
  33   2.0000      -0.772067       -21.0090
  34   2.0000      -0.710845       -19.3431
  35   2.0000      -0.702826       -19.1249
  36   2.0000      -0.687927       -18.7195
  37   2.0000      -0.662296       -18.0220
  38   2.0000      -0.646330       -17.5875
  39   2.0000      -0.623012       -16.9530
  40   2.0000      -0.585343       -15.9280
  41   2.0000      -0.572328       -15.5738
  42   2.0000      -0.561231       -15.2719
  43   2.0000      -0.548988       -14.9387
  44   2.0000      -0.538574       -14.6554
  45   2.0000      -0.529793       -14.4164
  46   2.0000      -0.515296       -14.0219
  47   2.0000      -0.507022       -13.7968
  48   2.0000      -0.502930       -13.6854
  49   2.0000      -0.496806       -13.5188
  50   2.0000      -0.480724       -13.0812
  51   2.0000      -0.475755       -12.9460
  52   2.0000      -0.471572       -12.8321
  53   2.0000      -0.464976       -12.6526
  54   2.0000      -0.462247       -12.5784
  55   2.0000      -0.448353       -12.2003
  56   2.0000      -0.444140       -12.0857
  57   2.0000      -0.439747       -11.9661
  58   2.0000      -0.432337       -11.7645
  59   2.0000      -0.428101       -11.6492
  60   2.0000      -0.419420       -11.4130
  61   2.0000      -0.413888       -11.2625
  62   2.0000      -0.408517       -11.1163
  63   2.0000      -0.354166        -9.6374
  64   2.0000      -0.333301        -9.0696
  65   2.0000      -0.327232        -8.9044
  66   2.0000      -0.290082        -7.8935
  67   0.0000       0.026327         0.7164
  68   0.0000       0.063814         1.7365
  69   0.0000       0.110611         3.0099
  70   0.0000       0.115025         3.1300
  71   0.0000       0.129826         3.5328

MULLIKEN ATOMIC CHARGES
-----------------------
   0 S :    0.128309
   1 C :   -0.068470
   2 C :   -0.108278
   3 C :    0.029941
   4 C :   -0.165806
   5 H :    0.006573
   6 C :    0.046059
   7 H :    0.029770
   8 H :    0.004625
   9 C :   -0.084568
  10 H :    0.036711
  11 H :    0.037993
  12 C :   -0.015396
  13 H :    0.034070
  14 H :    0.012874
  15 H :    0.034834
  16 S :    0.109657
  17 C :   -0.093942
  18 C :   -0.064639
  19 C :   -0.043322
  20 C :   -0.146978
  21 H :    0.055445
  22 C :    0.033843
  23 H :    0.045397
  24 H :    0.020991
  25 C :   -0.087841
  26 H :    0.045042
  27 H :    0.039858
  28 C :   -0.047563
  29 H :    0.045246
  30 H :    0.032233
  31 H :    0.015928
  32 H :    0.021154
  33 H :    0.060250
Sum of atomic charges:   -0.0000000

LOEWDIN ATOMIC CHARGES
----------------------
   0 S :    0.431876
   1 C :   -0.211349
   2 C :   -0.061571
   3 C :   -0.055285
   4 C :   -0.194531
   5 H :    0.025607
   6 C :   -0.038422
   7 H :    0.032574
   8 H :    0.026350
   9 C :   -0.038582
  10 H :    0.023558
  11 H :    0.027503
  12 C :   -0.057995
  13 H :    0.024345
  14 H :    0.015313
  15 H :    0.033227
  16 S :    0.400354
  17 C :   -0.192490
  18 C :   -0.071346
  19 C :   -0.059376
  20 C :   -0.191889
  21 H :    0.045727
  22 C :   -0.042625
  23 H :    0.040537
  24 H :    0.027896
  25 C :   -0.045689
  26 H :    0.032510
  27 H :    0.028904
  28 C :   -0.071882
  29 H :    0.029318
  30 H :    0.028664
  31 H :    0.018854
  32 H :    0.018981
  33 H :    0.020932

  Mayer bond orders larger than 0.100000
B(  0-S ,  1-C ) :   1.1495 B(  0-S ,  4-C ) :   1.1416 B(  1-C ,  2-C ) :   1.6016
B(  1-C , 32-H ) :   0.9651 B(  2-C ,  3-C ) :   1.2424 B(  2-C ,  6-C ) :   1.0362
B(  3-C ,  4-C ) :   1.5830 B(  3-C ,  5-H ) :   0.9934 B(  4-C , 20-C ) :   1.0539
B(  6-C ,  7-H ) :   0.9338 B(  6-C ,  8-H ) :   0.9390 B(  6-C ,  9-C ) :   1.0468
B(  9-C , 10-H ) :   0.9531 B(  9-C , 11-H ) :   0.9583 B(  9-C , 12-C ) :   1.0818
B( 12-C , 13-H ) :   0.9736 B( 12-C , 14-H ) :   0.9760 B( 12-C , 15-H ) :   0.9723
B( 16-S , 17-C ) :   1.1677 B( 16-S , 20-C ) :   1.1354 B( 17-C , 18-C ) :   1.5906
B( 17-C , 20-C ) :   0.1062 B( 17-C , 33-H ) :   0.9649 B( 18-C , 19-C ) :   1.2478
B( 18-C , 21-H ) :   0.9776 B( 19-C , 20-C ) :   1.5934 B( 19-C , 22-C ) :   1.0088
B( 22-C , 23-H ) :   0.9496 B( 22-C , 24-H ) :   0.9353 B( 22-C , 25-C ) :   1.0572
B( 25-C , 26-H ) :   0.9589 B( 25-C , 27-H ) :   0.9550 B( 25-C , 28-C ) :   1.0709
B( 28-C , 29-H ) :   0.9751 B( 28-C , 30-H ) :   0.9758 B( 28-C , 31-H ) :   0.9726

Dispersion correction           -0.014623021
FINAL SINGLE POINT ENERGY     -1339.865716258375

DIPOLE MOMENT
-------------
                                X             Y             Z
Electronic contribution:     26.71930      -6.12846      -0.05992
Nuclear contribution   :    -27.35487       6.32822       0.28975
                        -----------------------------------------
Total Dipole Moment    :     -0.63557       0.19977       0.22982
                        -----------------------------------------
Magnitude (a.u.)       :      0.70475
Magnitude (Debye)      :      1.79133

Rotational constants in cm-1:     0.019413     0.008450     0.007018
Rotational constants in MHz :   581.991453   253.327951   210.397587

                             ****ORCA TERMINATED NORMALLY****
TOTAL RUN TIME: 0 days 0 hours 0 minutes 30 seconds 142 msec
