                         Program Version 4.2.1 -  RELEASE  -
|  1> ! wB97X-D3 SP def2-SVP
|  2> %pal
|  3> nprocs 16
|  4> end
|  5>
|  6> * xyz 0 1
|  7> S 	 -16.0068 	 53.4119 	 63.8187
|  8> C 	 -15.508 	 51.9577 	 63.0183
|  9> C 	 -14.1794 	 52.1088 	 62.5636
| 10> C 	 -13.5174 	 53.2977 	 63.019
| 11> C 	 -14.4047 	 54.0511 	 63.7077
| 12> H 	 -12.6248 	 53.8039 	 62.7883
| 13> C 	 -13.4727 	 51.0968 	 61.6886
| 14> H 	 -13.8829 	 50.1402 	 61.8036
| 15> H 	 -12.5657 	 50.8699 	 62.1948
| 16> C 	 -13.2992 	 51.4267 	 60.1761
| 17> H 	 -14.2762 	 51.34 	 59.6455
| 18> H 	 -13.0204 	 52.4722 	 60.0477
| 19> C 	 -12.3391 	 50.5116 	 59.483
| 20> H 	 -12.3982 	 50.5843 	 58.4035
| 21> H 	 -11.2596 	 50.6367 	 59.6661
| 22> H 	 -12.7824 	 49.5058 	 59.6584
| 23> S 	 -14.3363 	 56.8122 	 63.1683
| 24> C 	 -13.5655 	 57.9057 	 64.2838
| 25> C 	 -13.3383 	 57.2466 	 65.5026
| 26> C 	 -13.5174 	 55.8807 	 65.3842
| 27> C 	 -14.1049 	 55.3963 	 64.1985
| 28> H 	 -12.7604 	 57.7573 	 66.2772
| 29> C 	 -13.0328 	 54.991 	 66.4795
| 30> H 	 -13.8246 	 54.2868 	 66.7748
| 31> H 	 -12.7594 	 55.5716 	 67.3495
| 32> C 	 -11.7964 	 54.235 	 66.017
| 33> H 	 -11.005 	 54.9115 	 65.8727
| 34> H 	 -11.9128 	 53.859 	 65.005
| 35> C 	 -11.2328 	 53.0876 	 66.9151
| 36> H 	 -12.0073 	 52.3501 	 67.0785
| 37> H 	 -11.0086 	 53.5628 	 67.9692
| 38> H 	 -10.2967 	 52.7481 	 66.4815
| 39> H 	 -16.0688 	 51.1031 	 62.7124
| 40> H 	 -13.4047 	 58.9171 	 64.0816
| 41> *
| 42>
| 43>                          ****END OF INPUT****

CARTESIAN COORDINATES (ANGSTROEM)
---------------------------------
  S    -16.006800   53.411900   63.818700
  C    -15.508000   51.957700   63.018300
  C    -14.179400   52.108800   62.563600
  C    -13.517400   53.297700   63.019000
  C    -14.404700   54.051100   63.707700
  H    -12.624800   53.803900   62.788300
  C    -13.472700   51.096800   61.688600
  H    -13.882900   50.140200   61.803600
  H    -12.565700   50.869900   62.194800
  C    -13.299200   51.426700   60.176100
  H    -14.276200   51.340000   59.645500
  H    -13.020400   52.472200   60.047700
  C    -12.339100   50.511600   59.483000
  H    -12.398200   50.584300   58.403500
  H    -11.259600   50.636700   59.666100
  H    -12.782400   49.505800   59.658400
  S    -14.336300   56.812200   63.168300
  C    -13.565500   57.905700   64.283800
  C    -13.338300   57.246600   65.502600
  C    -13.517400   55.880700   65.384200
  C    -14.104900   55.396300   64.198500
  H    -12.760400   57.757300   66.277200
  C    -13.032800   54.991000   66.479500
  H    -13.824600   54.286800   66.774800
  H    -12.759400   55.571600   67.349500
  C    -11.796400   54.235000   66.017000
  H    -11.005000   54.911500   65.872700
  H    -11.912800   53.859000   65.005000
  C    -11.232800   53.087600   66.915100
  H    -12.007300   52.350100   67.078500
  H    -11.008600   53.562800   67.969200
  H    -10.296700   52.748100   66.481500
  H    -16.068800   51.103100   62.712400
  H    -13.404700   58.917100   64.081600

 Total Charge           Charge          ....    0
 Multiplicity           Mult            ....    1
 Number of Electrons    NEL             ....  134
 Basis Dimension        Dim             ....  322

ORBITAL ENERGIES
----------------

  NO   OCC          E(Eh)            E(eV)
   0   2.0000     -88.970057     -2420.9983
   1   2.0000     -88.965336     -2420.8699
   2   2.0000     -10.324978      -280.9569
   3   2.0000     -10.324169      -280.9349
   4   2.0000     -10.317325      -280.7487
   5   2.0000     -10.314355      -280.6679
   6   2.0000     -10.305610      -280.4299
   7   2.0000     -10.298351      -280.2324
   8   2.0000     -10.291729      -280.0522
   9   2.0000     -10.290636      -280.0224
  10   2.0000     -10.288910      -279.9755
  11   2.0000     -10.283146      -279.8186
  12   2.0000     -10.282963      -279.8136
  13   2.0000     -10.282583      -279.8033
  14   2.0000     -10.279684      -279.7244
  15   2.0000     -10.273302      -279.5508
  16   2.0000      -8.085067      -220.0059
  17   2.0000      -8.079755      -219.8613
  18   2.0000      -6.043503      -164.4521
  19   2.0000      -6.039521      -164.3437
  20   2.0000      -6.038132      -164.3059
  21   2.0000      -6.035897      -164.2451
  22   2.0000      -6.033999      -164.1935
  23   2.0000      -6.030994      -164.1117
  24   2.0000      -1.010423       -27.4950
  25   2.0000      -0.987686       -26.8763
  26   2.0000      -0.911522       -24.8038
  27   2.0000      -0.907647       -24.6983
  28   2.0000      -0.871950       -23.7270
  29   2.0000      -0.856660       -23.3109
  30   2.0000      -0.846045       -23.0221
  31   2.0000      -0.818218       -22.2648
  32   2.0000      -0.780985       -21.2517
  33   2.0000      -0.767033       -20.8720
  34   2.0000      -0.706356       -19.2209
  35   2.0000      -0.700837       -19.0707
  36   2.0000      -0.690256       -18.7828
  37   2.0000      -0.664478       -18.0814
  38   2.0000      -0.654101       -17.7990
  39   2.0000      -0.618799       -16.8384
  40   2.0000      -0.596760       -16.2387
  41   2.0000      -0.571850       -15.5608
  42   2.0000      -0.561449       -15.2778
  43   2.0000      -0.558744       -15.2042
  44   2.0000      -0.528561       -14.3829
  45   2.0000      -0.523120       -14.2348
  46   2.0000      -0.520614       -14.1666
  47   2.0000      -0.511963       -13.9312
  48   2.0000      -0.508943       -13.8490
  49   2.0000      -0.503669       -13.7055
  50   2.0000      -0.494916       -13.4674
  51   2.0000      -0.479782       -13.0555
  52   2.0000      -0.471379       -12.8269
  53   2.0000      -0.463656       -12.6167
  54   2.0000      -0.460072       -12.5192
  55   2.0000      -0.456426       -12.4200
  56   2.0000      -0.439395       -11.9565
  57   2.0000      -0.429384       -11.6841
  58   2.0000      -0.429093       -11.6762
  59   2.0000      -0.424375       -11.5478
  60   2.0000      -0.415934       -11.3181
  61   2.0000      -0.414460       -11.2780
  62   2.0000      -0.409638       -11.1468
  63   2.0000      -0.340819        -9.2742
  64   2.0000      -0.331275        -9.0144
  65   2.0000      -0.316684        -8.6174
  66   2.0000      -0.308233        -8.3875
  67   0.0000       0.043074         1.1721
  68   0.0000       0.048057         1.3077
  69   0.0000       0.114919         3.1271
  70   0.0000       0.127766         3.4767
  71   0.0000       0.128995         3.5101

MULLIKEN ATOMIC CHARGES
-----------------------
   0 S :    0.136880
   1 C :   -0.088375
   2 C :   -0.118551
   3 C :    0.084460
   4 C :   -0.190177
   5 H :    0.018044
   6 C :    0.104286
   7 H :   -0.015712
   8 H :    0.010307
   9 C :   -0.058053
  10 H :    0.031752
  11 H :    0.024248
  12 C :   -0.053129
  13 H :    0.024605
  14 H :    0.045770
  15 H :    0.028146
  16 S :    0.111296
  17 C :   -0.094632
  18 C :   -0.024300
  19 C :   -0.048029
  20 C :   -0.183183
  21 H :    0.030199
  22 C :    0.116928
  23 H :    0.030139
  24 H :    0.007816
  25 C :   -0.081962
  26 H :    0.000136
  27 H :    0.004303
  28 C :   -0.045769
  29 H :    0.040164
  30 H :    0.030792
  31 H :    0.041169
  32 H :    0.037124
  33 H :    0.043307
Sum of atomic charges:   -0.0000000

LOEWDIN ATOMIC CHARGES
----------------------
   0 S :    0.431068
   1 C :   -0.207123
   2 C :   -0.052027
   3 C :   -0.051788
   4 C :   -0.200381
   5 H :    0.032216
   6 C :   -0.037860
   7 H :    0.020106
   8 H :    0.029398
   9 C :   -0.039700
  10 H :    0.031134
  11 H :    0.020287
  12 C :   -0.073107
  13 H :    0.025763
  14 H :    0.028879
  15 H :    0.030895
  16 S :    0.413878
  17 C :   -0.172333
  18 C :   -0.080264
  19 C :   -0.052345
  20 C :   -0.214388
  21 H :    0.036398
  22 C :   -0.027176
  23 H :    0.032123
  24 H :    0.025839
  25 C :   -0.043923
  26 H :    0.014687
  27 H :    0.019464
  28 C :   -0.063653
  29 H :    0.021994
  30 H :    0.030894
  31 H :    0.026672
  32 H :    0.026983
  33 H :    0.017389

  Mayer bond orders larger than 0.100000
B(  0-S ,  1-C ) :   1.1336 B(  0-S ,  4-C ) :   1.1675 B(  1-C ,  2-C ) :   1.6146
B(  1-C , 32-H ) :   0.9703 B(  2-C ,  3-C ) :   1.2098 B(  2-C ,  6-C ) :   1.0356
B(  3-C ,  4-C ) :   1.6029 B(  3-C ,  5-H ) :   0.9837 B(  4-C , 20-C ) :   1.0069
B(  6-C ,  7-H ) :   0.9254 B(  6-C ,  8-H ) :   0.9360 B(  6-C ,  9-C ) :   1.0467
B(  9-C , 10-H ) :   0.9523 B(  9-C , 11-H ) :   0.9600 B(  9-C , 12-C ) :   1.0871
B( 12-C , 13-H ) :   0.9707 B( 12-C , 14-H ) :   0.9749 B( 12-C , 15-H ) :   0.9709
B( 16-S , 17-C ) :   1.2070 B( 16-S , 20-C ) :   1.1428 B( 17-C , 18-C ) :   1.5325
B( 17-C , 20-C ) :   0.1204 B( 17-C , 33-H ) :   0.9747 B( 18-C , 19-C ) :   1.3203
B( 18-C , 21-H ) :   0.9820 B( 19-C , 20-C ) :   1.5439 B( 19-C , 22-C ) :   1.0574
B( 22-C , 23-H ) :   0.9274 B( 22-C , 24-H ) :   0.9292 B( 22-C , 25-C ) :   1.0582
B( 25-C , 26-H ) :   0.9454 B( 25-C , 27-H ) :   0.9528 B( 25-C , 28-C ) :   1.0826
B( 28-C , 29-H ) :   0.9770 B( 28-C , 30-H ) :   0.9742 B( 28-C , 31-H ) :   0.9730

Dispersion correction           -0.014528966
FINAL SINGLE POINT ENERGY     -1339.863128494742

DIPOLE MOMENT
-------------
                                X             Y             Z
Electronic contribution:    -18.63957      17.70877       1.87436
Nuclear contribution   :     19.11416     -17.89272      -2.04063
                        -----------------------------------------
Total Dipole Moment    :      0.47459      -0.18395      -0.16627
                        -----------------------------------------
Magnitude (a.u.)       :      0.53546
Magnitude (Debye)      :      1.36104

Rotational constants in cm-1:     0.018204     0.008268     0.007315
Rotational constants in MHz :   545.738160   247.870817   219.310094

                             ****ORCA TERMINATED NORMALLY****
TOTAL RUN TIME: 0 days 0 hours 0 minutes 32 seconds 71 msec
