                         Program Version 4.2.1 -  RELEASE  -
|  1> ! wB97X-D3 SP def2-SVP
|  2> %pal
|  3> nprocs 16
|  4> end
|  5>
|  6> * xyz 0 1
|  7> S 	 -4.57293 	 33.0872 	 49.6716
|  8> C 	 -4.12049 	 31.5715 	 50.4157
|  9> C 	 -4.96408 	 30.5627 	 49.898
| 10> C 	 -5.91941 	 31.0651 	 48.9607
| 11> C 	 -5.76196 	 32.3954 	 48.6701
| 12> H 	 -6.75536 	 30.5365 	 48.5071
| 13> C 	 -4.91531 	 29.1262 	 50.2746
| 14> H 	 -3.92689 	 28.8643 	 50.7212
| 15> H 	 -5.24399 	 28.4661 	 49.4228
| 16> C 	 -5.83759 	 28.8091 	 51.3613
| 17> H 	 -6.81911 	 29.3042 	 51.1769
| 18> H 	 -5.9547 	 27.702 	 51.446
| 19> C 	 -5.33387 	 29.1852 	 52.7716
| 20> H 	 -4.58826 	 28.4763 	 53.1856
| 21> H 	 -4.81115 	 30.165 	 52.735
| 22> H 	 -6.23232 	 29.2543 	 53.4292
| 23> S 	 -7.58948 	 34.4341 	 48.7528
| 24> C 	 -8.53501 	 34.9014 	 47.338
| 25> C 	 -7.98526 	 34.2854 	 46.1718
| 26> C 	 -6.97791 	 33.2861 	 46.4721
| 27> C 	 -6.71036 	 33.1831 	 47.9039
| 28> H 	 -8.36428 	 34.439 	 45.1869
| 29> C 	 -6.1425 	 32.5157 	 45.4811
| 30> H 	 -6.4834 	 32.6576 	 44.3899
| 31> H 	 -6.34649 	 31.4954 	 45.773
| 32> C 	 -4.61256 	 32.7019 	 45.5489
| 33> H 	 -4.24323 	 32.319 	 46.5106
| 34> H 	 -4.2685 	 33.7052 	 45.4646
| 35> C 	 -3.91608 	 31.763 	 44.5749
| 36> H 	 -3.82371 	 30.7376 	 44.8744
| 37> H 	 -2.82353 	 32.0513 	 44.5299
| 38> H 	 -4.27921 	 31.7032 	 43.535
| 39> H 	 -3.3828 	 31.4636 	 51.1721
| 40> H 	 -9.31365 	 35.6435 	 47.3774
| 41> *
| 42>
| 43>                          ****END OF INPUT****

CARTESIAN COORDINATES (ANGSTROEM)
---------------------------------
  S     -4.572930   33.087200   49.671600
  C     -4.120490   31.571500   50.415700
  C     -4.964080   30.562700   49.898000
  C     -5.919410   31.065100   48.960700
  C     -5.761960   32.395400   48.670100
  H     -6.755360   30.536500   48.507100
  C     -4.915310   29.126200   50.274600
  H     -3.926890   28.864300   50.721200
  H     -5.243990   28.466100   49.422800
  C     -5.837590   28.809100   51.361300
  H     -6.819110   29.304200   51.176900
  H     -5.954700   27.702000   51.446000
  C     -5.333870   29.185200   52.771600
  H     -4.588260   28.476300   53.185600
  H     -4.811150   30.165000   52.735000
  H     -6.232320   29.254300   53.429200
  S     -7.589480   34.434100   48.752800
  C     -8.535010   34.901400   47.338000
  C     -7.985260   34.285400   46.171800
  C     -6.977910   33.286100   46.472100
  C     -6.710360   33.183100   47.903900
  H     -8.364280   34.439000   45.186900
  C     -6.142500   32.515700   45.481100
  H     -6.483400   32.657600   44.389900
  H     -6.346490   31.495400   45.773000
  C     -4.612560   32.701900   45.548900
  H     -4.243230   32.319000   46.510600
  H     -4.268500   33.705200   45.464600
  C     -3.916080   31.763000   44.574900
  H     -3.823710   30.737600   44.874400
  H     -2.823530   32.051300   44.529900
  H     -4.279210   31.703200   43.535000
  H     -3.382800   31.463600   51.172100
  H     -9.313650   35.643500   47.377400

 Total Charge           Charge          ....    0
 Multiplicity           Mult            ....    1
 Number of Electrons    NEL             ....  134
 Basis Dimension        Dim             ....  322

ORBITAL ENERGIES
----------------

  NO   OCC          E(Eh)            E(eV)
   0   2.0000     -88.968909     -2420.9671
   1   2.0000     -88.968236     -2420.9488
   2   2.0000     -10.330616      -281.1104
   3   2.0000     -10.326482      -280.9979
   4   2.0000     -10.325115      -280.9607
   5   2.0000     -10.318155      -280.7713
   6   2.0000     -10.313167      -280.6356
   7   2.0000     -10.305733      -280.4333
   8   2.0000     -10.302389      -280.3423
   9   2.0000     -10.295784      -280.1625
  10   2.0000     -10.293786      -280.1081
  11   2.0000     -10.291261      -280.0395
  12   2.0000     -10.284178      -279.8467
  13   2.0000     -10.281315      -279.7688
  14   2.0000     -10.281069      -279.7621
  15   2.0000     -10.275348      -279.6064
  16   2.0000      -8.083593      -219.9658
  17   2.0000      -8.082903      -219.9470
  18   2.0000      -6.042046      -164.4124
  19   2.0000      -6.041341      -164.3932
  20   2.0000      -6.037783      -164.2964
  21   2.0000      -6.037290      -164.2830
  22   2.0000      -6.034593      -164.2096
  23   2.0000      -6.034016      -164.1939
  24   2.0000      -1.010641       -27.5010
  25   2.0000      -0.978276       -26.6203
  26   2.0000      -0.925578       -25.1863
  27   2.0000      -0.906174       -24.6582
  28   2.0000      -0.867670       -23.6105
  29   2.0000      -0.849864       -23.1260
  30   2.0000      -0.845347       -23.0031
  31   2.0000      -0.811728       -22.0882
  32   2.0000      -0.781882       -21.2761
  33   2.0000      -0.766583       -20.8598
  34   2.0000      -0.708084       -19.2680
  35   2.0000      -0.691955       -18.8291
  36   2.0000      -0.689016       -18.7491
  37   2.0000      -0.660300       -17.9677
  38   2.0000      -0.645848       -17.5744
  39   2.0000      -0.622924       -16.9506
  40   2.0000      -0.592390       -16.1198
  41   2.0000      -0.574604       -15.6358
  42   2.0000      -0.565087       -15.3768
  43   2.0000      -0.553480       -15.0609
  44   2.0000      -0.541115       -14.7245
  45   2.0000      -0.523989       -14.2585
  46   2.0000      -0.518624       -14.1125
  47   2.0000      -0.514233       -13.9930
  48   2.0000      -0.505314       -13.7503
  49   2.0000      -0.499457       -13.5909
  50   2.0000      -0.488215       -13.2850
  51   2.0000      -0.484060       -13.1720
  52   2.0000      -0.471762       -12.8373
  53   2.0000      -0.464577       -12.6418
  54   2.0000      -0.457553       -12.4506
  55   2.0000      -0.446241       -12.1428
  56   2.0000      -0.437496       -11.9049
  57   2.0000      -0.436293       -11.8721
  58   2.0000      -0.428823       -11.6689
  59   2.0000      -0.425186       -11.5699
  60   2.0000      -0.422193       -11.4885
  61   2.0000      -0.411696       -11.2028
  62   2.0000      -0.404413       -11.0046
  63   2.0000      -0.342447        -9.3185
  64   2.0000      -0.328022        -8.9259
  65   2.0000      -0.326483        -8.8841
  66   2.0000      -0.293020        -7.9735
  67   0.0000       0.029671         0.8074
  68   0.0000       0.055460         1.5091
  69   0.0000       0.112430         3.0594
  70   0.0000       0.117003         3.1838
  71   0.0000       0.131124         3.5681

MULLIKEN ATOMIC CHARGES
-----------------------
   0 S :    0.118607
   1 C :   -0.113884
   2 C :   -0.084553
   3 C :    0.028030
   4 C :   -0.164105
   5 H :    0.021446
   6 C :    0.074116
   7 H :    0.022330
   8 H :    0.039508
   9 C :   -0.090972
  10 H :    0.032878
  11 H :    0.035445
  12 C :   -0.085253
  13 H :    0.038598
  14 H :    0.023223
  15 H :    0.047026
  16 S :    0.115801
  17 C :   -0.103416
  18 C :   -0.016118
  19 C :   -0.030305
  20 C :   -0.178507
  21 H :    0.013553
  22 C :    0.049296
  23 H :    0.033299
  24 H :    0.023918
  25 C :   -0.039720
  26 H :    0.041771
  27 H :    0.032945
  28 C :   -0.077918
  29 H :    0.024455
  30 H :    0.032741
  31 H :    0.027485
  32 H :    0.045602
  33 H :    0.062680
Sum of atomic charges:   -0.0000000

LOEWDIN ATOMIC CHARGES
----------------------
   0 S :    0.433049
   1 C :   -0.199167
   2 C :   -0.056976
   3 C :   -0.064606
   4 C :   -0.219440
   5 H :    0.034823
   6 C :   -0.043422
   7 H :    0.035220
   8 H :    0.041376
   9 C :   -0.049406
  10 H :    0.025691
  11 H :    0.027837
  12 C :   -0.075462
  13 H :    0.025114
  14 H :    0.021152
  15 H :    0.033552
  16 S :    0.417418
  17 C :   -0.184691
  18 C :   -0.066692
  19 C :   -0.049450
  20 C :   -0.210579
  21 H :    0.026830
  22 C :   -0.040701
  23 H :    0.035961
  24 H :    0.034420
  25 C :   -0.036641
  26 H :    0.032511
  27 H :    0.021052
  28 C :   -0.073951
  29 H :    0.020990
  30 H :    0.034180
  31 H :    0.020920
  32 H :    0.022055
  33 H :    0.027035

  Mayer bond orders larger than 0.100000
B(  0-S ,  1-C ) :   1.1438 B(  0-S ,  4-C ) :   1.1702 B(  1-C ,  2-C ) :   1.5618
B(  1-C , 32-H ) :   0.9752 B(  2-C ,  3-C ) :   1.2545 B(  2-C ,  6-C ) :   1.0472
B(  3-C ,  4-C ) :   1.5608 B(  3-C ,  5-H ) :   0.9897 B(  4-C , 20-C ) :   1.0360
B(  6-C ,  7-H ) :   0.9365 B(  6-C ,  8-H ) :   0.9345 B(  6-C ,  9-C ) :   1.0740
B(  9-C , 10-H ) :   0.9533 B(  9-C , 11-H ) :   0.9541 B(  9-C , 12-C ) :   1.0753
B( 12-C , 13-H ) :   0.9740 B( 12-C , 14-H ) :   0.9746 B( 12-C , 15-H ) :   0.9740
B( 16-S , 17-C ) :   1.1796 B( 16-S , 20-C ) :   1.1659 B( 17-C , 18-C ) :   1.5337
B( 17-C , 20-C ) :   0.1186 B( 17-C , 33-H ) :   0.9738 B( 18-C , 19-C ) :   1.3029
B( 18-C , 21-H ) :   0.9908 B( 19-C , 20-C ) :   1.5076 B( 19-C , 22-C ) :   1.0386
B( 22-C , 23-H ) :   0.9433 B( 22-C , 24-H ) :   0.9242 B( 22-C , 25-C ) :   1.0662
B( 25-C , 26-H ) :   0.9424 B( 25-C , 27-H ) :   0.9644 B( 25-C , 28-C ) :   1.0776
B( 28-C , 29-H ) :   0.9768 B( 28-C , 30-H ) :   0.9722 B( 28-C , 31-H ) :   0.9750

Dispersion correction           -0.014679312
FINAL SINGLE POINT ENERGY     -1339.870888954225

DIPOLE MOMENT
-------------
                                X             Y             Z
Electronic contribution:     -7.53406      19.93321       3.51947
Nuclear contribution   :      7.52400     -20.36248      -3.66250
                        -----------------------------------------
Total Dipole Moment    :     -0.01005      -0.42927      -0.14303
                        -----------------------------------------
Magnitude (a.u.)       :      0.45258
Magnitude (Debye)      :      1.15037

Rotational constants in cm-1:     0.019569     0.008710     0.007170
Rotational constants in MHz :   586.664513   261.113792   214.960451

                             ****ORCA TERMINATED NORMALLY****
TOTAL RUN TIME: 0 days 0 hours 0 minutes 33 seconds 900 msec
