                         Program Version 4.2.1 -  RELEASE  -
|  1> ! wB97X-D3 SP def2-SVP
|  2> %pal
|  3> nprocs 16
|  4> end
|  5>
|  6> * xyz 0 1
|  7> S 	 -78.244 	 42.4533 	 121.638
|  8> C 	 -78.4701 	 40.766 	 121.447
|  9> C 	 -77.7598 	 40.2735 	 120.39
| 10> C 	 -76.8632 	 41.2321 	 119.894
| 11> C 	 -76.9833 	 42.4832 	 120.466
| 12> H 	 -76.1448 	 41.1123 	 119.164
| 13> C 	 -77.4819 	 38.8379 	 120.038
| 14> H 	 -77.8354 	 38.121 	 120.772
| 15> H 	 -76.398 	 38.7038 	 120.115
| 16> C 	 -78.0402 	 38.3002 	 118.677
| 17> H 	 -77.4628 	 37.5478 	 118.198
| 18> H 	 -79.0412 	 37.7233 	 118.934
| 19> C 	 -78.4893 	 39.2714 	 117.666
| 20> H 	 -79.3947 	 39.803 	 118.007
| 21> H 	 -77.7248 	 40.0395 	 117.517
| 22> H 	 -78.6237 	 38.8717 	 116.681
| 23> S 	 -76.6432 	 44.9047 	 119.049
| 24> C 	 -75.1146 	 45.7031 	 119.215
| 25> C 	 -74.4538 	 45.2044 	 120.346
| 26> C 	 -75.1099 	 44.1214 	 120.95
| 27> C 	 -76.1665 	 43.6862 	 120.155
| 28> H 	 -73.5287 	 45.6942 	 120.536
| 29> C 	 -74.5814 	 43.3918 	 122.168
| 30> H 	 -75.5124 	 42.933 	 122.688
| 31> H 	 -74.1721 	 44.1426 	 122.915
| 32> C 	 -73.5884 	 42.2609 	 121.873
| 33> H 	 -74.1329 	 41.4078 	 121.427
| 34> H 	 -73.2689 	 42.0249 	 122.89
| 35> C 	 -72.4862 	 42.7669 	 120.99
| 36> H 	 -71.8129 	 41.9494 	 120.966
| 37> H 	 -71.8898 	 43.5733 	 121.447
| 38> H 	 -72.7047 	 42.8743 	 119.932
| 39> H 	 -79.2549 	 40.1467 	 121.899
| 40> H 	 -74.8755 	 46.5937 	 118.778
| 41> *
| 42>
| 43>                          ****END OF INPUT****

CARTESIAN COORDINATES (ANGSTROEM)
---------------------------------
  S    -78.244000   42.453300  121.638000
  C    -78.470100   40.766000  121.447000
  C    -77.759800   40.273500  120.390000
  C    -76.863200   41.232100  119.894000
  C    -76.983300   42.483200  120.466000
  H    -76.144800   41.112300  119.164000
  C    -77.481900   38.837900  120.038000
  H    -77.835400   38.121000  120.772000
  H    -76.398000   38.703800  120.115000
  C    -78.040200   38.300200  118.677000
  H    -77.462800   37.547800  118.198000
  H    -79.041200   37.723300  118.934000
  C    -78.489300   39.271400  117.666000
  H    -79.394700   39.803000  118.007000
  H    -77.724800   40.039500  117.517000
  H    -78.623700   38.871700  116.681000
  S    -76.643200   44.904700  119.049000
  C    -75.114600   45.703100  119.215000
  C    -74.453800   45.204400  120.346000
  C    -75.109900   44.121400  120.950000
  C    -76.166500   43.686200  120.155000
  H    -73.528700   45.694200  120.536000
  C    -74.581400   43.391800  122.168000
  H    -75.512400   42.933000  122.688000
  H    -74.172100   44.142600  122.915000
  C    -73.588400   42.260900  121.873000
  H    -74.132900   41.407800  121.427000
  H    -73.268900   42.024900  122.890000
  C    -72.486200   42.766900  120.990000
  H    -71.812900   41.949400  120.966000
  H    -71.889800   43.573300  121.447000
  H    -72.704700   42.874300  119.932000
  H    -79.254900   40.146700  121.899000
  H    -74.875500   46.593700  118.778000

 Total Charge           Charge          ....    0
 Multiplicity           Mult            ....    1
 Number of Electrons    NEL             ....  134
 Basis Dimension        Dim             ....  322

ORBITAL ENERGIES
----------------

  NO   OCC          E(Eh)            E(eV)
   0   2.0000     -88.967152     -2420.9193
   1   2.0000     -88.965201     -2420.8662
   2   2.0000     -10.324694      -280.9492
   3   2.0000     -10.321323      -280.8575
   4   2.0000     -10.311944      -280.6023
   5   2.0000     -10.307622      -280.4847
   6   2.0000     -10.297998      -280.2228
   7   2.0000     -10.295242      -280.1478
   8   2.0000     -10.293322      -280.0955
   9   2.0000     -10.293251      -280.0936
  10   2.0000     -10.288596      -279.9669
  11   2.0000     -10.287181      -279.9284
  12   2.0000     -10.284374      -279.8520
  13   2.0000     -10.283567      -279.8301
  14   2.0000     -10.269863      -279.4572
  15   2.0000     -10.268107      -279.4094
  16   2.0000      -8.082641      -219.9398
  17   2.0000      -8.080693      -219.8868
  18   2.0000      -6.040980      -164.3834
  19   2.0000      -6.038908      -164.3270
  20   2.0000      -6.036890      -164.2721
  21   2.0000      -6.035251      -164.2275
  22   2.0000      -6.033686      -164.1849
  23   2.0000      -6.031567      -164.1273
  24   2.0000      -1.014164       -27.5968
  25   2.0000      -0.994157       -27.0524
  26   2.0000      -0.912229       -24.8230
  27   2.0000      -0.910401       -24.7733
  28   2.0000      -0.868754       -23.6400
  29   2.0000      -0.853486       -23.2245
  30   2.0000      -0.848683       -23.0938
  31   2.0000      -0.817387       -22.2422
  32   2.0000      -0.785368       -21.3709
  33   2.0000      -0.775678       -21.1073
  34   2.0000      -0.705153       -19.1882
  35   2.0000      -0.694219       -18.8907
  36   2.0000      -0.688214       -18.7273
  37   2.0000      -0.658693       -17.9239
  38   2.0000      -0.647403       -17.6167
  39   2.0000      -0.618261       -16.8237
  40   2.0000      -0.587464       -15.9857
  41   2.0000      -0.574214       -15.6252
  42   2.0000      -0.560364       -15.2483
  43   2.0000      -0.557402       -15.1677
  44   2.0000      -0.540209       -14.6998
  45   2.0000      -0.537238       -14.6190
  46   2.0000      -0.522578       -14.2201
  47   2.0000      -0.507522       -13.8104
  48   2.0000      -0.502549       -13.6751
  49   2.0000      -0.496407       -13.5079
  50   2.0000      -0.486300       -13.2329
  51   2.0000      -0.485096       -13.2001
  52   2.0000      -0.473514       -12.8850
  53   2.0000      -0.468522       -12.7491
  54   2.0000      -0.461724       -12.5642
  55   2.0000      -0.443586       -12.0706
  56   2.0000      -0.441964       -12.0264
  57   2.0000      -0.441100       -12.0029
  58   2.0000      -0.424696       -11.5566
  59   2.0000      -0.422028       -11.4840
  60   2.0000      -0.420039       -11.4298
  61   2.0000      -0.410438       -11.1686
  62   2.0000      -0.394391       -10.7319
  63   2.0000      -0.334127        -9.0921
  64   2.0000      -0.329437        -8.9644
  65   2.0000      -0.320830        -8.7302
  66   2.0000      -0.310739        -8.4556
  67   0.0000       0.042558         1.1581
  68   0.0000       0.054931         1.4948
  69   0.0000       0.112485         3.0609
  70   0.0000       0.114291         3.1100
  71   0.0000       0.134679         3.6648

MULLIKEN ATOMIC CHARGES
-----------------------
   0 S :    0.133845
   1 C :   -0.122601
   2 C :   -0.070622
   3 C :    0.060312
   4 C :   -0.191131
   5 H :   -0.018774
   6 C :    0.068831
   7 H :    0.018829
   8 H :    0.035676
   9 C :   -0.113974
  10 H :    0.021870
  11 H :    0.029639
  12 C :   -0.016745
  13 H :    0.038350
  14 H :    0.011218
  15 H :    0.028811
  16 S :    0.126094
  17 C :   -0.065819
  18 C :   -0.044080
  19 C :   -0.010527
  20 C :   -0.172277
  21 H :    0.007996
  22 C :    0.008506
  23 H :    0.034924
  24 H :    0.040122
  25 C :   -0.040879
  26 H :    0.036585
  27 H :    0.029842
  28 C :   -0.030120
  29 H :    0.009531
  30 H :    0.030759
  31 H :    0.048449
  32 H :    0.055627
  33 H :    0.021733
Sum of atomic charges:   -0.0000000

LOEWDIN ATOMIC CHARGES
----------------------
   0 S :    0.439218
   1 C :   -0.206992
   2 C :   -0.074125
   3 C :   -0.048779
   4 C :   -0.202122
   5 H :    0.017031
   6 C :   -0.030791
   7 H :    0.030770
   8 H :    0.035547
   9 C :   -0.050110
  10 H :    0.018299
  11 H :    0.032095
  12 C :   -0.071080
  13 H :    0.030230
  14 H :    0.021418
  15 H :    0.025339
  16 S :    0.433757
  17 C :   -0.181502
  18 C :   -0.063561
  19 C :   -0.055573
  20 C :   -0.221493
  21 H :    0.026949
  22 C :   -0.047488
  23 H :    0.032341
  24 H :    0.034527
  25 C :   -0.036096
  26 H :    0.029045
  27 H :    0.027517
  28 C :   -0.071005
  29 H :    0.022322
  30 H :    0.028852
  31 H :    0.031752
  32 H :    0.035082
  33 H :    0.008628

  Mayer bond orders larger than 0.100000
B(  0-S ,  1-C ) :   1.1618 B(  0-S ,  4-C ) :   1.1598 B(  1-C ,  2-C ) :   1.6014
B(  1-C , 32-H ) :   0.9578 B(  2-C ,  3-C ) :   1.2371 B(  2-C ,  6-C ) :   1.0312
B(  3-C ,  4-C ) :   1.5887 B(  3-C ,  5-H ) :   1.0038 B(  4-C , 20-C ) :   1.0147
B(  6-C ,  7-H ) :   0.9514 B(  6-C ,  8-H ) :   0.9483 B(  6-C ,  9-C ) :   1.0323
B(  9-C , 10-H ) :   0.9588 B(  9-C , 11-H ) :   0.9587 B(  9-C , 12-C ) :   1.1224
B( 12-C , 13-H ) :   0.9619 B( 12-C , 14-H ) :   0.9642 B( 12-C , 15-H ) :   0.9691
B( 16-S , 17-C ) :   1.1738 B( 16-S , 20-C ) :   1.1766 B( 17-C , 18-C ) :   1.5767
B( 17-C , 20-C ) :   0.1091 B( 17-C , 33-H ) :   0.9778 B( 18-C , 19-C ) :   1.2601
B( 18-C , 21-H ) :   1.0019 B( 19-C , 20-C ) :   1.5376 B( 19-C , 22-C ) :   1.0505
B( 22-C , 23-H ) :   0.9181 B( 22-C , 24-H ) :   0.9405 B( 22-C , 25-C ) :   1.0752
B( 25-C , 26-H ) :   0.9484 B( 25-C , 27-H ) :   0.9533 B( 25-C , 28-C ) :   1.0951
B( 28-C , 29-H ) :   0.9641 B( 28-C , 30-H ) :   0.9695 B( 28-C , 31-H ) :   0.9639

Dispersion correction           -0.015786342
FINAL SINGLE POINT ENERGY     -1339.854056621037

DIPOLE MOMENT
-------------
                                X             Y             Z
Electronic contribution:    -10.83533      18.32328       2.53680
Nuclear contribution   :     11.26141     -18.66098      -2.45619
                        -----------------------------------------
Total Dipole Moment    :      0.42607      -0.33770       0.08061
                        -----------------------------------------
Magnitude (a.u.)       :      0.54962
Magnitude (Debye)      :      1.39702

Rotational constants in cm-1:     0.020179     0.008764     0.008014
Rotational constants in MHz :   604.939780   262.746650   240.242650

                             ****ORCA TERMINATED NORMALLY****
TOTAL RUN TIME: 0 days 0 hours 0 minutes 35 seconds 749 msec
