                         Program Version 4.2.1 -  RELEASE  -
|  1> ! wB97X-D3 SP def2-SVP
|  2> %pal
|  3> nprocs 16
|  4> end
|  5>
|  6> * xyz 0 1
|  7> S 	 -2.75324 	 -22.9712 	 85.6496
|  8> C 	 -1.52254 	 -23.7583 	 84.6819
|  9> C 	 -0.817394 	 -22.828 	 83.9683
| 10> C 	 -1.26621 	 -21.5175 	 84.1775
| 11> C 	 -2.45761 	 -21.4766 	 84.7902
| 12> H 	 -0.948744 	 -20.6216 	 83.6756
| 13> C 	 0.277322 	 -23.1675 	 82.9453
| 14> H 	 -0.204161 	 -22.8384 	 82.0249
| 15> H 	 0.36327 	 -24.2586 	 82.8785
| 16> C 	 1.69995 	 -22.5831 	 83.1222
| 17> H 	 2.3435 	 -22.7918 	 82.2471
| 18> H 	 1.54172 	 -21.5397 	 82.9761
| 19> C 	 2.33942 	 -22.9586 	 84.5028
| 20> H 	 3.36642 	 -22.6391 	 84.5312
| 21> H 	 1.84698 	 -22.6921 	 85.4667
| 22> H 	 2.30149 	 -24.1177 	 84.4296
| 23> S 	 -3.54649 	 -19.7364 	 86.5736
| 24> C 	 -4.33855 	 -18.2694 	 85.9788
| 25> C 	 -4.54931 	 -18.3256 	 84.6202
| 26> C 	 -3.89555 	 -19.4873 	 84.073
| 27> C 	 -3.20058 	 -20.2779 	 84.9617
| 28> H 	 -5.17167 	 -17.5825 	 84.1376
| 29> C 	 -3.82811 	 -19.7971 	 82.5793
| 30> H 	 -2.82797 	 -20.2346 	 82.3898
| 31> H 	 -3.78742 	 -18.8519 	 82.0054
| 32> C 	 -4.79601 	 -20.708 	 81.8747
| 33> H 	 -4.58426 	 -20.742 	 80.7927
| 34> H 	 -5.80211 	 -20.3547 	 82.0063
| 35> C 	 -4.86213 	 -22.1889 	 82.3581
| 36> H 	 -5.24403 	 -22.7856 	 81.5685
| 37> H 	 -5.45636 	 -22.2463 	 83.2903
| 38> H 	 -3.83907 	 -22.5279 	 82.6431
| 39> H 	 -1.41514 	 -24.8453 	 84.6076
| 40> H 	 -4.6606 	 -17.47 	 86.6158
| 41> *
| 42>
| 43>                          ****END OF INPUT****

CARTESIAN COORDINATES (ANGSTROEM)
---------------------------------
  S     -2.753240  -22.971200   85.649600
  C     -1.522540  -23.758300   84.681900
  C     -0.817394  -22.828000   83.968300
  C     -1.266210  -21.517500   84.177500
  C     -2.457610  -21.476600   84.790200
  H     -0.948744  -20.621600   83.675600
  C      0.277322  -23.167500   82.945300
  H     -0.204161  -22.838400   82.024900
  H      0.363270  -24.258600   82.878500
  C      1.699950  -22.583100   83.122200
  H      2.343500  -22.791800   82.247100
  H      1.541720  -21.539700   82.976100
  C      2.339420  -22.958600   84.502800
  H      3.366420  -22.639100   84.531200
  H      1.846980  -22.692100   85.466700
  H      2.301490  -24.117700   84.429600
  S     -3.546490  -19.736400   86.573600
  C     -4.338550  -18.269400   85.978800
  C     -4.549310  -18.325600   84.620200
  C     -3.895550  -19.487300   84.073000
  C     -3.200580  -20.277900   84.961700
  H     -5.171670  -17.582500   84.137600
  C     -3.828110  -19.797100   82.579300
  H     -2.827970  -20.234600   82.389800
  H     -3.787420  -18.851900   82.005400
  C     -4.796010  -20.708000   81.874700
  H     -4.584260  -20.742000   80.792700
  H     -5.802110  -20.354700   82.006300
  C     -4.862130  -22.188900   82.358100
  H     -5.244030  -22.785600   81.568500
  H     -5.456360  -22.246300   83.290300
  H     -3.839070  -22.527900   82.643100
  H     -1.415140  -24.845300   84.607600
  H     -4.660600  -17.470000   86.615800

 Total Charge           Charge          ....    0
 Multiplicity           Mult            ....    1
 Number of Electrons    NEL             ....  134
 Basis Dimension        Dim             ....  322

ORBITAL ENERGIES
----------------

  NO   OCC          E(Eh)            E(eV)
   0   2.0000     -88.964791     -2420.8550
   1   2.0000     -88.962691     -2420.7979
   2   2.0000     -10.323345      -280.9125
   3   2.0000     -10.321322      -280.8574
   4   2.0000     -10.319445      -280.8064
   5   2.0000     -10.313710      -280.6503
   6   2.0000     -10.305479      -280.4263
   7   2.0000     -10.300033      -280.2782
   8   2.0000     -10.298749      -280.2432
   9   2.0000     -10.294198      -280.1194
  10   2.0000     -10.292323      -280.0683
  11   2.0000     -10.288915      -279.9756
  12   2.0000     -10.287592      -279.9396
  13   2.0000     -10.286017      -279.8967
  14   2.0000     -10.279771      -279.7268
  15   2.0000     -10.269518      -279.4478
  16   2.0000      -8.079758      -219.8614
  17   2.0000      -8.077793      -219.8079
  18   2.0000      -6.038289      -164.3102
  19   2.0000      -6.036323      -164.2567
  20   2.0000      -6.034444      -164.2056
  21   2.0000      -6.032271      -164.1465
  22   2.0000      -6.030255      -164.0916
  23   2.0000      -6.028478      -164.0432
  24   2.0000      -1.016820       -27.6691
  25   2.0000      -0.989181       -26.9170
  26   2.0000      -0.908005       -24.7081
  27   2.0000      -0.903553       -24.5869
  28   2.0000      -0.876222       -23.8432
  29   2.0000      -0.850274       -23.1371
  30   2.0000      -0.841394       -22.8955
  31   2.0000      -0.818705       -22.2781
  32   2.0000      -0.780858       -21.2482
  33   2.0000      -0.770843       -20.9757
  34   2.0000      -0.712727       -19.3943
  35   2.0000      -0.698423       -19.0050
  36   2.0000      -0.689137       -18.7524
  37   2.0000      -0.660662       -17.9775
  38   2.0000      -0.644774       -17.5452
  39   2.0000      -0.622893       -16.9498
  40   2.0000      -0.593276       -16.1438
  41   2.0000      -0.564682       -15.3658
  42   2.0000      -0.557626       -15.1738
  43   2.0000      -0.550907       -14.9909
  44   2.0000      -0.540747       -14.7145
  45   2.0000      -0.538717       -14.6592
  46   2.0000      -0.517469       -14.0810
  47   2.0000      -0.508820       -13.8457
  48   2.0000      -0.504048       -13.7158
  49   2.0000      -0.496234       -13.5032
  50   2.0000      -0.491989       -13.3877
  51   2.0000      -0.480116       -13.0646
  52   2.0000      -0.469919       -12.7872
  53   2.0000      -0.463341       -12.6081
  54   2.0000      -0.459943       -12.5157
  55   2.0000      -0.449961       -12.2440
  56   2.0000      -0.445196       -12.1144
  57   2.0000      -0.433927       -11.8078
  58   2.0000      -0.431152       -11.7322
  59   2.0000      -0.421890       -11.4802
  60   2.0000      -0.412289       -11.2190
  61   2.0000      -0.409665       -11.1476
  62   2.0000      -0.404742       -11.0136
  63   2.0000      -0.349427        -9.5084
  64   2.0000      -0.332626        -9.0512
  65   2.0000      -0.327975        -8.9247
  66   2.0000      -0.294467        -8.0128
  67   0.0000       0.033097         0.9006
  68   0.0000       0.059842         1.6284
  69   0.0000       0.108576         2.9545
  70   0.0000       0.115940         3.1549
  71   0.0000       0.133450         3.6314

MULLIKEN ATOMIC CHARGES
-----------------------
   0 S :    0.113137
   1 C :   -0.136524
   2 C :   -0.068701
   3 C :    0.041068
   4 C :   -0.165968
   5 H :    0.021381
   6 C :    0.048168
   7 H :    0.033592
   8 H :    0.012900
   9 C :   -0.050503
  10 H :    0.036499
  11 H :    0.013218
  12 C :   -0.077037
  13 H :    0.039687
  14 H :    0.063413
  15 H :    0.033187
  16 S :    0.096134
  17 C :   -0.091917
  18 C :   -0.020708
  19 C :   -0.031238
  20 C :   -0.160514
  21 H :    0.026497
  22 C :    0.049592
  23 H :    0.009225
  24 H :    0.020662
  25 C :   -0.060651
  26 H :    0.030376
  27 H :    0.016793
  28 C :   -0.055267
  29 H :    0.031001
  30 H :    0.041547
  31 H :    0.032363
  32 H :    0.054750
  33 H :    0.053836
Sum of atomic charges:    0.0000000

LOEWDIN ATOMIC CHARGES
----------------------
   0 S :    0.395227
   1 C :   -0.197334
   2 C :   -0.063088
   3 C :   -0.058911
   4 C :   -0.187308
   5 H :    0.031771
   6 C :   -0.029715
   7 H :    0.032795
   8 H :    0.023480
   9 C :   -0.044827
  10 H :    0.032788
  11 H :    0.014267
  12 C :   -0.071759
  13 H :    0.023395
  14 H :    0.035618
  15 H :    0.034586
  16 S :    0.397554
  17 C :   -0.168264
  18 C :   -0.068545
  19 C :   -0.056173
  20 C :   -0.201050
  21 H :    0.036921
  22 C :   -0.042773
  23 H :    0.029254
  24 H :    0.031859
  25 C :   -0.041862
  26 H :    0.027271
  27 H :    0.017631
  28 C :   -0.065309
  29 H :    0.020506
  30 H :    0.028489
  31 H :    0.024929
  32 H :    0.032548
  33 H :    0.026032

  Mayer bond orders larger than 0.100000
B(  0-S ,  1-C ) :   1.1180 B(  0-S ,  4-C ) :   1.1352 B(  1-C ,  2-C ) :   1.6278
B(  1-C , 32-H ) :   0.9666 B(  2-C ,  3-C ) :   1.2169 B(  2-C ,  6-C ) :   1.0102
B(  3-C ,  4-C ) :   1.5997 B(  3-C ,  5-H ) :   0.9885 B(  4-C , 20-C ) :   1.0540
B(  6-C ,  7-H ) :   0.9414 B(  6-C ,  8-H ) :   0.9435 B(  6-C ,  9-C ) :   1.0707
B(  9-C , 10-H ) :   0.9546 B(  9-C , 11-H ) :   0.9524 B(  9-C , 12-C ) :   1.0544
B( 12-C , 13-H ) :   0.9760 B( 12-C , 14-H ) :   0.9753 B( 12-C , 15-H ) :   0.9773
B( 16-S , 17-C ) :   1.1556 B( 16-S , 20-C ) :   1.1255 B( 17-C , 18-C ) :   1.6116
B( 17-C , 33-H ) :   0.9705 B( 18-C , 19-C ) :   1.2240 B( 18-C , 21-H ) :   0.9971
B( 19-C , 20-C ) :   1.6132 B( 19-C , 22-C ) :   1.0302 B( 22-C , 23-H ) :   0.9311
B( 22-C , 24-H ) :   0.9320 B( 22-C , 25-C ) :   1.0927 B( 25-C , 26-H ) :   0.9541
B( 25-C , 27-H ) :   0.9535 B( 25-C , 28-C ) :   1.0750 B( 28-C , 29-H ) :   0.9752
B( 28-C , 30-H ) :   0.9754 B( 28-C , 31-H ) :   0.9755

Dispersion correction           -0.015961761
FINAL SINGLE POINT ENERGY     -1339.869008974358

DIPOLE MOMENT
-------------
                                X             Y             Z
Electronic contribution:    -10.75514       5.63243      19.43378
Nuclear contribution   :     10.94519      -5.45229     -20.05530
                        -----------------------------------------
Total Dipole Moment    :      0.19006       0.18014      -0.62153
                        -----------------------------------------
Magnitude (a.u.)       :      0.67444
Magnitude (Debye)      :      1.71429

Rotational constants in cm-1:     0.020420     0.008930     0.008004
Rotational constants in MHz :   612.178358   267.711539   239.942678

                             ****ORCA TERMINATED NORMALLY****
TOTAL RUN TIME: 0 days 0 hours 0 minutes 36 seconds 187 msec
