                         Program Version 4.2.1 -  RELEASE  -
|  1> ! wB97X-D3 SP def2-SVP
|  2> %pal
|  3> nprocs 16
|  4> end
|  5>
|  6> * xyz 0 1
|  7> S 	 -1.12768 	 -14.8449 	 84.8598
|  8> C 	 -2.58842 	 -15.8022 	 84.4689
|  9> C 	 -2.27418 	 -17.0067 	 83.8309
| 10> C 	 -0.886578 	 -17.1652 	 83.5517
| 11> C 	 -0.14482 	 -16.1458 	 84.1123
| 12> H 	 -0.416713 	 -17.9779 	 83.1458
| 13> C 	 -3.27272 	 -18.0396 	 83.4
| 14> H 	 -3.42146 	 -17.9223 	 82.3624
| 15> H 	 -4.2186 	 -17.7473 	 83.8822
| 16> C 	 -2.88384 	 -19.5088 	 83.7628
| 17> H 	 -2.17416 	 -19.9041 	 82.9639
| 18> H 	 -2.37516 	 -19.6037 	 84.7135
| 19> C 	 -4.14412 	 -20.4034 	 83.6994
| 20> H 	 -4.84327 	 -20.0613 	 84.4463
| 21> H 	 -4.51588 	 -20.2428 	 82.6988
| 22> H 	 -3.9913 	 -21.4199 	 83.7588
| 23> S 	 2.22281 	 -14.7856 	 83.6384
| 24> C 	 3.69495 	 -15.3444 	 84.3475
| 25> C 	 3.57205 	 -16.609 	 84.8427
| 26> C 	 2.22458 	 -17.1213 	 84.7919
| 27> C 	 1.30566 	 -16.1483 	 84.3107
| 28> H 	 4.40272 	 -17.1458 	 85.3331
| 29> C 	 1.89387 	 -18.4373 	 85.4273
| 30> H 	 0.826096 	 -18.5291 	 85.6671
| 31> H 	 2.3181 	 -18.4597 	 86.4365
| 32> C 	 2.28133 	 -19.7413 	 84.6325
| 33> H 	 3.35944 	 -19.7982 	 84.6208
| 34> H 	 1.95451 	 -19.7387 	 83.6201
| 35> C 	 1.86132 	 -20.959 	 85.3159
| 36> H 	 0.748127 	 -21.0676 	 85.4591
| 37> H 	 2.317 	 -21.0212 	 86.3323
| 38> H 	 2.26991 	 -21.8054 	 84.8131
| 39> H 	 -3.55699 	 -15.4892 	 84.7043
| 40> H 	 4.58802 	 -14.8106 	 84.3018
| 41> *
| 42>
| 43>                          ****END OF INPUT****

CARTESIAN COORDINATES (ANGSTROEM)
---------------------------------
  S     -1.127680  -14.844900   84.859800
  C     -2.588420  -15.802200   84.468900
  C     -2.274180  -17.006700   83.830900
  C     -0.886578  -17.165200   83.551700
  C     -0.144820  -16.145800   84.112300
  H     -0.416713  -17.977900   83.145800
  C     -3.272720  -18.039600   83.400000
  H     -3.421460  -17.922300   82.362400
  H     -4.218600  -17.747300   83.882200
  C     -2.883840  -19.508800   83.762800
  H     -2.174160  -19.904100   82.963900
  H     -2.375160  -19.603700   84.713500
  C     -4.144120  -20.403400   83.699400
  H     -4.843270  -20.061300   84.446300
  H     -4.515880  -20.242800   82.698800
  H     -3.991300  -21.419900   83.758800
  S      2.222810  -14.785600   83.638400
  C      3.694950  -15.344400   84.347500
  C      3.572050  -16.609000   84.842700
  C      2.224580  -17.121300   84.791900
  C      1.305660  -16.148300   84.310700
  H      4.402720  -17.145800   85.333100
  C      1.893870  -18.437300   85.427300
  H      0.826096  -18.529100   85.667100
  H      2.318100  -18.459700   86.436500
  C      2.281330  -19.741300   84.632500
  H      3.359440  -19.798200   84.620800
  H      1.954510  -19.738700   83.620100
  C      1.861320  -20.959000   85.315900
  H      0.748127  -21.067600   85.459100
  H      2.317000  -21.021200   86.332300
  H      2.269910  -21.805400   84.813100
  H     -3.556990  -15.489200   84.704300
  H      4.588020  -14.810600   84.301800

 Total Charge           Charge          ....    0
 Multiplicity           Mult            ....    1
 Number of Electrons    NEL             ....  134
 Basis Dimension        Dim             ....  322

ORBITAL ENERGIES
----------------

  NO   OCC          E(Eh)            E(eV)
   0   2.0000     -88.966842     -2420.9108
   1   2.0000     -88.960422     -2420.7362
   2   2.0000     -10.331428      -281.1324
   3   2.0000     -10.328789      -281.0606
   4   2.0000     -10.314067      -280.6600
   5   2.0000     -10.310032      -280.5502
   6   2.0000     -10.307052      -280.4691
   7   2.0000     -10.301545      -280.3193
   8   2.0000     -10.295760      -280.1619
   9   2.0000     -10.293214      -280.0926
  10   2.0000     -10.291042      -280.0335
  11   2.0000     -10.290875      -280.0289
  12   2.0000     -10.288713      -279.9701
  13   2.0000     -10.281379      -279.7706
  14   2.0000     -10.277419      -279.6628
  15   2.0000     -10.272800      -279.5371
  16   2.0000      -8.080288      -219.8758
  17   2.0000      -8.075558      -219.7471
  18   2.0000      -6.038867      -164.3259
  19   2.0000      -6.035118      -164.2239
  20   2.0000      -6.034059      -164.1951
  21   2.0000      -6.030907      -164.1093
  22   2.0000      -6.029991      -164.0844
  23   2.0000      -6.026325      -163.9846
  24   2.0000      -0.999345       -27.1936
  25   2.0000      -0.978156       -26.6170
  26   2.0000      -0.913292       -24.8519
  27   2.0000      -0.910580       -24.7781
  28   2.0000      -0.867124       -23.5956
  29   2.0000      -0.856832       -23.3156
  30   2.0000      -0.848734       -23.0952
  31   2.0000      -0.816387       -22.2150
  32   2.0000      -0.780580       -21.2407
  33   2.0000      -0.767333       -20.8802
  34   2.0000      -0.710507       -19.3339
  35   2.0000      -0.698649       -19.0112
  36   2.0000      -0.694192       -18.8899
  37   2.0000      -0.657313       -17.8864
  38   2.0000      -0.646944       -17.6043
  39   2.0000      -0.622504       -16.9392
  40   2.0000      -0.601162       -16.3585
  41   2.0000      -0.575736       -15.6666
  42   2.0000      -0.568213       -15.4619
  43   2.0000      -0.558320       -15.1927
  44   2.0000      -0.531383       -14.4597
  45   2.0000      -0.526302       -14.3214
  46   2.0000      -0.519341       -14.1320
  47   2.0000      -0.514782       -14.0079
  48   2.0000      -0.510763       -13.8986
  49   2.0000      -0.497586       -13.5400
  50   2.0000      -0.490899       -13.3581
  51   2.0000      -0.481961       -13.1148
  52   2.0000      -0.467182       -12.7127
  53   2.0000      -0.463125       -12.6023
  54   2.0000      -0.458380       -12.4731
  55   2.0000      -0.450400       -12.2560
  56   2.0000      -0.445294       -12.1171
  57   2.0000      -0.438670       -11.9368
  58   2.0000      -0.435432       -11.8487
  59   2.0000      -0.424966       -11.5639
  60   2.0000      -0.424142       -11.5415
  61   2.0000      -0.420056       -11.4303
  62   2.0000      -0.412123       -11.2144
  63   2.0000      -0.340184        -9.2569
  64   2.0000      -0.331773        -9.0280
  65   2.0000      -0.326058        -8.8725
  66   2.0000      -0.292381        -7.9561
  67   0.0000       0.027577         0.7504
  68   0.0000       0.068665         1.8685
  69   0.0000       0.110972         3.0197
  70   0.0000       0.117777         3.2049
  71   0.0000       0.123233         3.3533

MULLIKEN ATOMIC CHARGES
-----------------------
   0 S :    0.104322
   1 C :   -0.093793
   2 C :   -0.106509
   3 C :    0.081960
   4 C :   -0.141129
   5 H :   -0.024423
   6 C :    0.091905
   7 H :    0.034873
   8 H :    0.012401
   9 C :   -0.128669
  10 H :    0.040218
  11 H :    0.040283
  12 C :   -0.004435
  13 H :    0.035496
  14 H :    0.019647
  15 H :    0.019251
  16 S :    0.094631
  17 C :   -0.057427
  18 C :   -0.038961
  19 C :    0.003496
  20 C :   -0.168969
  21 H :    0.028652
  22 C :    0.009542
  23 H :    0.021048
  24 H :    0.026605
  25 C :   -0.040524
  26 H :    0.017668
  27 H :    0.024823
  28 C :   -0.046940
  29 H :    0.037074
  30 H :    0.023166
  31 H :    0.026935
  32 H :    0.021790
  33 H :    0.035992
Sum of atomic charges:   -0.0000000

LOEWDIN ATOMIC CHARGES
----------------------
   0 S :    0.374658
   1 C :   -0.178677
   2 C :   -0.055348
   3 C :   -0.044865
   4 C :   -0.173624
   5 H :    0.018604
   6 C :   -0.028673
   7 H :    0.030138
   8 H :    0.029581
   9 C :   -0.039022
  10 H :    0.029049
  11 H :    0.020032
  12 C :   -0.054787
  13 H :    0.024973
  14 H :    0.026063
  15 H :    0.014250
  16 S :    0.399395
  17 C :   -0.177750
  18 C :   -0.074323
  19 C :   -0.053121
  20 C :   -0.195661
  21 H :    0.036183
  22 C :   -0.038056
  23 H :    0.029338
  24 H :    0.033122
  25 C :   -0.037585
  26 H :    0.023712
  27 H :    0.019874
  28 C :   -0.067255
  29 H :    0.027084
  30 H :    0.028099
  31 H :    0.023786
  32 H :    0.013225
  33 H :    0.017578

  Mayer bond orders larger than 0.100000
B(  0-S ,  1-C ) :   1.1165 B(  0-S ,  4-C ) :   1.1443 B(  1-C ,  2-C ) :   1.6317
B(  1-C , 32-H ) :   0.9750 B(  2-C ,  3-C ) :   1.2004 B(  2-C ,  6-C ) :   1.0296
B(  3-C ,  4-C ) :   1.5900 B(  3-C ,  5-H ) :   1.0110 B(  4-C , 20-C ) :   1.0264
B(  6-C ,  7-H ) :   0.9280 B(  6-C ,  8-H ) :   0.9451 B(  6-C ,  9-C ) :   1.0475
B(  9-C , 10-H ) :   0.9493 B(  9-C , 11-H ) :   0.9676 B(  9-C , 12-C ) :   1.0830
B( 12-C , 13-H ) :   0.9779 B( 12-C , 14-H ) :   0.9716 B( 12-C , 15-H ) :   0.9748
B( 16-S , 17-C ) :   1.1537 B( 16-S , 20-C ) :   1.1440 B( 17-C , 18-C ) :   1.6051
B( 17-C , 33-H ) :   0.9764 B( 18-C , 19-C ) :   1.2363 B( 18-C , 21-H ) :   0.9864
B( 19-C , 20-C ) :   1.5758 B( 19-C , 22-C ) :   1.0534 B( 22-C , 23-H ) :   0.9411
B( 22-C , 24-H ) :   0.9377 B( 22-C , 25-C ) :   1.0517 B( 25-C , 26-H ) :   0.9480
B( 25-C , 27-H ) :   0.9537 B( 25-C , 28-C ) :   1.1076 B( 28-C , 29-H ) :   0.9710
B( 28-C , 30-H ) :   0.9670 B( 28-C , 31-H ) :   0.9688

Dispersion correction           -0.014204091
FINAL SINGLE POINT ENERGY     -1339.876851516120

DIPOLE MOMENT
-------------
                                X             Y             Z
Electronic contribution:      8.71226      32.28242      -1.55240
Nuclear contribution   :     -8.76480     -33.10396       1.60348
                        -----------------------------------------
Total Dipole Moment    :     -0.05253      -0.82154       0.05109
                        -----------------------------------------
Magnitude (a.u.)       :      0.82481
Magnitude (Debye)      :      2.09649

Rotational constants in cm-1:     0.016560     0.009693     0.006529
Rotational constants in MHz :   496.443273   290.603240   195.739817

                             ****ORCA TERMINATED NORMALLY****
TOTAL RUN TIME: 0 days 0 hours 0 minutes 34 seconds 460 msec
