                         Program Version 4.2.1 -  RELEASE  -
|  1> ! wB97X-D3 SP def2-SVP
|  2> %pal
|  3> nprocs 16
|  4> end
|  5>
|  6> * xyz 0 1
|  7> S 	 -2.95973 	 -23.082 	 85.8699
|  8> C 	 -1.20618 	 -23.1073 	 85.5948
|  9> C 	 -0.565892 	 -21.9413 	 85.844
| 10> C 	 -1.4629 	 -20.9664 	 86.3809
| 11> C 	 -2.80302 	 -21.4047 	 86.4182
| 12> H 	 -1.32035 	 -19.9185 	 86.6075
| 13> C 	 0.946116 	 -21.6607 	 85.6823
| 14> H 	 1.07132 	 -20.7121 	 85.1352
| 15> H 	 1.30268 	 -22.367 	 84.9539
| 16> C 	 1.85226 	 -21.6073 	 86.882
| 17> H 	 2.78755 	 -21.1259 	 86.5264
| 18> H 	 1.56272 	 -20.9247 	 87.7006
| 19> C 	 2.29785 	 -22.9549 	 87.4683
| 20> H 	 1.4715 	 -23.5674 	 87.8217
| 21> H 	 2.7223 	 -23.5233 	 86.6645
| 22> H 	 2.99933 	 -22.833 	 88.2798
| 23> S 	 -4.62603 	 -21.0734 	 88.5127
| 24> C 	 -5.87907 	 -19.8581 	 88.3534
| 25> C 	 -5.66675 	 -19.0149 	 87.2506
| 26> C 	 -4.58007 	 -19.4616 	 86.3943
| 27> C 	 -3.97393 	 -20.6117 	 86.8908
| 28> H 	 -6.20154 	 -18.0788 	 87.1287
| 29> C 	 -4.38525 	 -18.8502 	 85.113
| 30> H 	 -4.8394 	 -19.4323 	 84.3585
| 31> H 	 -3.34909 	 -19.059 	 84.9598
| 32> C 	 -4.64425 	 -17.3429 	 84.8527
| 33> H 	 -4.27895 	 -16.7689 	 85.7068
| 34> H 	 -5.70332 	 -17.0336 	 84.6374
| 35> C 	 -3.98056 	 -16.9329 	 83.6074
| 36> H 	 -4.49225 	 -15.9693 	 83.3278
| 37> H 	 -4.17445 	 -17.586 	 82.6721
| 38> H 	 -2.9753 	 -16.7938 	 83.8352
| 39> H 	 -0.802812 	 -24.0326 	 85.2684
| 40> H 	 -6.58109 	 -19.6607 	 89.0995
| 41> *
| 42>
| 43>                          ****END OF INPUT****

CARTESIAN COORDINATES (ANGSTROEM)
---------------------------------
  S     -2.959730  -23.082000   85.869900
  C     -1.206180  -23.107300   85.594800
  C     -0.565892  -21.941300   85.844000
  C     -1.462900  -20.966400   86.380900
  C     -2.803020  -21.404700   86.418200
  H     -1.320350  -19.918500   86.607500
  C      0.946116  -21.660700   85.682300
  H      1.071320  -20.712100   85.135200
  H      1.302680  -22.367000   84.953900
  C      1.852260  -21.607300   86.882000
  H      2.787550  -21.125900   86.526400
  H      1.562720  -20.924700   87.700600
  C      2.297850  -22.954900   87.468300
  H      1.471500  -23.567400   87.821700
  H      2.722300  -23.523300   86.664500
  H      2.999330  -22.833000   88.279800
  S     -4.626030  -21.073400   88.512700
  C     -5.879070  -19.858100   88.353400
  C     -5.666750  -19.014900   87.250600
  C     -4.580070  -19.461600   86.394300
  C     -3.973930  -20.611700   86.890800
  H     -6.201540  -18.078800   87.128700
  C     -4.385250  -18.850200   85.113000
  H     -4.839400  -19.432300   84.358500
  H     -3.349090  -19.059000   84.959800
  C     -4.644250  -17.342900   84.852700
  H     -4.278950  -16.768900   85.706800
  H     -5.703320  -17.033600   84.637400
  C     -3.980560  -16.932900   83.607400
  H     -4.492250  -15.969300   83.327800
  H     -4.174450  -17.586000   82.672100
  H     -2.975300  -16.793800   83.835200
  H     -0.802812  -24.032600   85.268400
  H     -6.581090  -19.660700   89.099500

 Total Charge           Charge          ....    0
 Multiplicity           Mult            ....    1
 Number of Electrons    NEL             ....  134
 Basis Dimension        Dim             ....  322

ORBITAL ENERGIES
----------------

  NO   OCC          E(Eh)            E(eV)
   0   2.0000     -88.965520     -2420.8749
   1   2.0000     -88.962671     -2420.7973
   2   2.0000     -10.332498      -281.1616
   3   2.0000     -10.327538      -281.0266
   4   2.0000     -10.315116      -280.6886
   5   2.0000     -10.312882      -280.6278
   6   2.0000     -10.303472      -280.3717
   7   2.0000     -10.301237      -280.3109
   8   2.0000     -10.296790      -280.1899
   9   2.0000     -10.295315      -280.1498
  10   2.0000     -10.293459      -280.0993
  11   2.0000     -10.289776      -279.9990
  12   2.0000     -10.289287      -279.9857
  13   2.0000     -10.279638      -279.7232
  14   2.0000     -10.278497      -279.6921
  15   2.0000     -10.272471      -279.5282
  16   2.0000      -8.079781      -219.8620
  17   2.0000      -8.076550      -219.7741
  18   2.0000      -6.038195      -164.3076
  19   2.0000      -6.035110      -164.2237
  20   2.0000      -6.034495      -164.2070
  21   2.0000      -6.031238      -164.1183
  22   2.0000      -6.030545      -164.0995
  23   2.0000      -6.027259      -164.0100
  24   2.0000      -0.996321       -27.1113
  25   2.0000      -0.976779       -26.5795
  26   2.0000      -0.920297       -25.0426
  27   2.0000      -0.909930       -24.7605
  28   2.0000      -0.866344       -23.5744
  29   2.0000      -0.858831       -23.3700
  30   2.0000      -0.844893       -22.9907
  31   2.0000      -0.808993       -22.0138
  32   2.0000      -0.786655       -21.4060
  33   2.0000      -0.772272       -21.0146
  34   2.0000      -0.702696       -19.1213
  35   2.0000      -0.699849       -19.0439
  36   2.0000      -0.692160       -18.8346
  37   2.0000      -0.652410       -17.7530
  38   2.0000      -0.647767       -17.6266
  39   2.0000      -0.614580       -16.7236
  40   2.0000      -0.599931       -16.3250
  41   2.0000      -0.584020       -15.8920
  42   2.0000      -0.562367       -15.3028
  43   2.0000      -0.550852       -14.9894
  44   2.0000      -0.536962       -14.6115
  45   2.0000      -0.531624       -14.4662
  46   2.0000      -0.523989       -14.2585
  47   2.0000      -0.510728       -13.8976
  48   2.0000      -0.505378       -13.7520
  49   2.0000      -0.495521       -13.4838
  50   2.0000      -0.483147       -13.1471
  51   2.0000      -0.477482       -12.9930
  52   2.0000      -0.469129       -12.7657
  53   2.0000      -0.465827       -12.6758
  54   2.0000      -0.453517       -12.3408
  55   2.0000      -0.450351       -12.2547
  56   2.0000      -0.445520       -12.1232
  57   2.0000      -0.440707       -11.9922
  58   2.0000      -0.432310       -11.7638
  59   2.0000      -0.424007       -11.5378
  60   2.0000      -0.417596       -11.3634
  61   2.0000      -0.414855       -11.2888
  62   2.0000      -0.409791       -11.1510
  63   2.0000      -0.335319        -9.1245
  64   2.0000      -0.327249        -8.9049
  65   2.0000      -0.323602        -8.8057
  66   2.0000      -0.301074        -8.1927
  67   0.0000       0.036600         0.9959
  68   0.0000       0.058524         1.5925
  69   0.0000       0.109523         2.9803
  70   0.0000       0.113175         3.0797
  71   0.0000       0.128113         3.4861

MULLIKEN ATOMIC CHARGES
-----------------------
   0 S :    0.105572
   1 C :   -0.130816
   2 C :   -0.043681
   3 C :    0.051002
   4 C :   -0.209129
   5 H :    0.015103
   6 C :    0.084323
   7 H :    0.028639
   8 H :    0.008641
   9 C :   -0.076392
  10 H :    0.024430
  11 H :    0.033346
  12 C :   -0.032386
  13 H :    0.033366
  14 H :    0.014919
  15 H :    0.035475
  16 S :    0.099704
  17 C :   -0.060937
  18 C :   -0.047175
  19 C :   -0.022702
  20 C :   -0.172803
  21 H :    0.027332
  22 C :    0.100819
  23 H :    0.032184
  24 H :   -0.001199
  25 C :   -0.087894
  26 H :    0.032858
  27 H :    0.035429
  28 C :   -0.056617
  29 H :    0.030864
  30 H :    0.048280
  31 H :    0.027686
  32 H :    0.034161
  33 H :    0.037597
Sum of atomic charges:    0.0000000

LOEWDIN ATOMIC CHARGES
----------------------
   0 S :    0.385329
   1 C :   -0.174593
   2 C :   -0.065911
   3 C :   -0.055911
   4 C :   -0.193346
   5 H :    0.032100
   6 C :   -0.030618
   7 H :    0.037365
   8 H :    0.028205
   9 C :   -0.045899
  10 H :    0.029279
  11 H :    0.026524
  12 C :   -0.062810
  13 H :    0.024902
  14 H :    0.019829
  15 H :    0.026173
  16 S :    0.382047
  17 C :   -0.169960
  18 C :   -0.070509
  19 C :   -0.050123
  20 C :   -0.193712
  21 H :    0.031490
  22 C :   -0.039261
  23 H :    0.036906
  24 H :    0.032081
  25 C :   -0.044806
  26 H :    0.026552
  27 H :    0.028620
  28 C :   -0.065048
  29 H :    0.031280
  30 H :    0.037127
  31 H :    0.014682
  32 H :    0.016776
  33 H :    0.015236

  Mayer bond orders larger than 0.100000
B(  0-S ,  1-C ) :   1.1346 B(  0-S ,  4-C ) :   1.1504 B(  1-C ,  2-C ) :   1.6304
B(  1-C , 32-H ) :   0.9741 B(  2-C ,  3-C ) :   1.2091 B(  2-C ,  6-C ) :   1.0149
B(  3-C ,  4-C ) :   1.6009 B(  3-C ,  5-H ) :   0.9906 B(  4-C , 20-C ) :   1.0125
B(  6-C ,  7-H ) :   0.9362 B(  6-C ,  8-H ) :   0.9368 B(  6-C ,  9-C ) :   1.0793
B(  9-C , 10-H ) :   0.9489 B(  9-C , 11-H ) :   0.9556 B(  9-C , 12-C ) :   1.0796
B( 12-C , 13-H ) :   0.9777 B( 12-C , 14-H ) :   0.9729 B( 12-C , 15-H ) :   0.9740
B( 16-S , 17-C ) :   1.1550 B( 16-S , 20-C ) :   1.1273 B( 17-C , 18-C ) :   1.6148
B( 17-C , 33-H ) :   0.9718 B( 18-C , 19-C ) :   1.2162 B( 18-C , 21-H ) :   0.9848
B( 19-C , 20-C ) :   1.6084 B( 19-C , 22-C ) :   1.0568 B( 22-C , 23-H ) :   0.9117
B( 22-C , 24-H ) :   0.9163 B( 22-C , 25-C ) :   1.0624 B( 25-C , 26-H ) :   0.9558
B( 25-C , 27-H ) :   0.9529 B( 25-C , 28-C ) :   1.0876 B( 28-C , 29-H ) :   0.9751
B( 28-C , 30-H ) :   0.9690 B( 28-C , 31-H ) :   0.9754

Dispersion correction           -0.013636722
FINAL SINGLE POINT ENERGY     -1339.863250167657

DIPOLE MOMENT
-------------
                                X             Y             Z
Electronic contribution:    -16.86267     -13.67060       9.98674
Nuclear contribution   :     17.23975      14.22016     -10.29484
                        -----------------------------------------
Total Dipole Moment    :      0.37707       0.54956      -0.30811
                        -----------------------------------------
Magnitude (a.u.)       :      0.73426
Magnitude (Debye)      :      1.86633

Rotational constants in cm-1:     0.018266     0.007692     0.006411
Rotational constants in MHz :   547.605260   230.596596   192.192965

                             ****ORCA TERMINATED NORMALLY****
TOTAL RUN TIME: 0 days 0 hours 0 minutes 34 seconds 265 msec
