                         Program Version 4.2.1 -  RELEASE  -
|  1> ! wB97X-D3 SP def2-SVP
|  2> %pal
|  3> nprocs 16
|  4> end
|  5>
|  6> * xyz 0 1
|  7> S 	 -3.61658 	 31.1042 	 37.8784
|  8> C 	 -2.82277 	 30.1557 	 36.601
|  9> C 	 -1.70389 	 29.5096 	 37.0392
| 10> C 	 -1.46349 	 29.8155 	 38.4319
| 11> C 	 -2.32057 	 30.7499 	 38.9878
| 12> H 	 -0.625409 	 29.4858 	 38.9275
| 13> C 	 -0.798325 	 28.607 	 36.2766
| 14> H 	 -0.134591 	 28.1097 	 36.9152
| 15> H 	 -0.226121 	 29.2688 	 35.6597
| 16> C 	 -1.53643 	 27.562 	 35.4521
| 17> H 	 -1.75394 	 26.6834 	 36.1404
| 18> H 	 -2.48754 	 27.9485 	 35.0017
| 19> C 	 -0.733524 	 27.0904 	 34.2479
| 20> H 	 0.284497 	 26.8074 	 34.5035
| 21> H 	 -1.28771 	 26.3129 	 33.7977
| 22> H 	 -0.616557 	 27.9887 	 33.6018
| 23> S 	 -2.41863 	 30.1039 	 41.6097
| 24> C 	 -2.01223 	 31.2615 	 42.8182
| 25> C 	 -1.73939 	 32.5273 	 42.304
| 26> C 	 -1.93585 	 32.5316 	 40.8489
| 27> C 	 -2.28067 	 31.2495 	 40.3543
| 28> H 	 -1.47174 	 33.3532 	 42.855
| 29> C 	 -1.79399 	 33.7972 	 40.0028
| 30> H 	 -2.73054 	 34.1268 	 39.5121
| 31> H 	 -1.11238 	 33.614 	 39.093
| 32> C 	 -1.09452 	 34.9531 	 40.7653
| 33> H 	 -0.141536 	 34.6809 	 41.0595
| 34> H 	 -1.50977 	 35.0016 	 41.6916
| 35> C 	 -1.1718 	 36.369 	 40.1516
| 36> H 	 -2.22407 	 36.6554 	 39.9699
| 37> H 	 -0.603954 	 36.4998 	 39.2307
| 38> H 	 -0.854957 	 37.1236 	 40.8196
| 39> H 	 -3.34188 	 29.928 	 35.7187
| 40> H 	 -1.81541 	 31.0446 	 43.897
| 41> *
| 42>
| 43>                          ****END OF INPUT****

CARTESIAN COORDINATES (ANGSTROEM)
---------------------------------
  S     -3.616580   31.104200   37.878400
  C     -2.822770   30.155700   36.601000
  C     -1.703890   29.509600   37.039200
  C     -1.463490   29.815500   38.431900
  C     -2.320570   30.749900   38.987800
  H     -0.625409   29.485800   38.927500
  C     -0.798325   28.607000   36.276600
  H     -0.134591   28.109700   36.915200
  H     -0.226121   29.268800   35.659700
  C     -1.536430   27.562000   35.452100
  H     -1.753940   26.683400   36.140400
  H     -2.487540   27.948500   35.001700
  C     -0.733524   27.090400   34.247900
  H      0.284497   26.807400   34.503500
  H     -1.287710   26.312900   33.797700
  H     -0.616557   27.988700   33.601800
  S     -2.418630   30.103900   41.609700
  C     -2.012230   31.261500   42.818200
  C     -1.739390   32.527300   42.304000
  C     -1.935850   32.531600   40.848900
  C     -2.280670   31.249500   40.354300
  H     -1.471740   33.353200   42.855000
  C     -1.793990   33.797200   40.002800
  H     -2.730540   34.126800   39.512100
  H     -1.112380   33.614000   39.093000
  C     -1.094520   34.953100   40.765300
  H     -0.141536   34.680900   41.059500
  H     -1.509770   35.001600   41.691600
  C     -1.171800   36.369000   40.151600
  H     -2.224070   36.655400   39.969900
  H     -0.603954   36.499800   39.230700
  H     -0.854957   37.123600   40.819600
  H     -3.341880   29.928000   35.718700
  H     -1.815410   31.044600   43.897000

 Total Charge           Charge          ....    0
 Multiplicity           Mult            ....    1
 Number of Electrons    NEL             ....  134
 Basis Dimension        Dim             ....  322

ORBITAL ENERGIES
----------------

  NO   OCC          E(Eh)            E(eV)
   0   2.0000     -88.968234     -2420.9487
   1   2.0000     -88.962982     -2420.8058
   2   2.0000     -10.327345      -281.0214
   3   2.0000     -10.322311      -280.8844
   4   2.0000     -10.319046      -280.7955
   5   2.0000     -10.308984      -280.5217
   6   2.0000     -10.307853      -280.4909
   7   2.0000     -10.297854      -280.2189
   8   2.0000     -10.297188      -280.2007
   9   2.0000     -10.293319      -280.0954
  10   2.0000     -10.292057      -280.0611
  11   2.0000     -10.286825      -279.9187
  12   2.0000     -10.284976      -279.8684
  13   2.0000     -10.276660      -279.6421
  14   2.0000     -10.276263      -279.6313
  15   2.0000     -10.272827      -279.5378
  16   2.0000      -8.083848      -219.9727
  17   2.0000      -8.077486      -219.7996
  18   2.0000      -6.042301      -164.4194
  19   2.0000      -6.038002      -164.3024
  20   2.0000      -6.036012      -164.2482
  21   2.0000      -6.034847      -164.2165
  22   2.0000      -6.032065      -164.1408
  23   2.0000      -6.028220      -164.0362
  24   2.0000      -1.006312       -27.3832
  25   2.0000      -0.983232       -26.7551
  26   2.0000      -0.919074       -25.0093
  27   2.0000      -0.905968       -24.6526
  28   2.0000      -0.869704       -23.6658
  29   2.0000      -0.851273       -23.1643
  30   2.0000      -0.845417       -23.0050
  31   2.0000      -0.813744       -22.1431
  32   2.0000      -0.785579       -21.3767
  33   2.0000      -0.770658       -20.9707
  34   2.0000      -0.716514       -19.4973
  35   2.0000      -0.701955       -19.1012
  36   2.0000      -0.690530       -18.7903
  37   2.0000      -0.656922       -17.8758
  38   2.0000      -0.645501       -17.5650
  39   2.0000      -0.616572       -16.7778
  40   2.0000      -0.600001       -16.3269
  41   2.0000      -0.582325       -15.8459
  42   2.0000      -0.561794       -15.2872
  43   2.0000      -0.558356       -15.1936
  44   2.0000      -0.535219       -14.5640
  45   2.0000      -0.521185       -14.1822
  46   2.0000      -0.516647       -14.0587
  47   2.0000      -0.514741       -14.0068
  48   2.0000      -0.510088       -13.8802
  49   2.0000      -0.500976       -13.6323
  50   2.0000      -0.486450       -13.2370
  51   2.0000      -0.478099       -13.0097
  52   2.0000      -0.471973       -12.8430
  53   2.0000      -0.463226       -12.6050
  54   2.0000      -0.460514       -12.5312
  55   2.0000      -0.458176       -12.4676
  56   2.0000      -0.439827       -11.9683
  57   2.0000      -0.436623       -11.8811
  58   2.0000      -0.434882       -11.8338
  59   2.0000      -0.423412       -11.5216
  60   2.0000      -0.422332       -11.4922
  61   2.0000      -0.420725       -11.4485
  62   2.0000      -0.412924       -11.2362
  63   2.0000      -0.336131        -9.1466
  64   2.0000      -0.331715        -9.0264
  65   2.0000      -0.325355        -8.8534
  66   2.0000      -0.298071        -8.1109
  67   0.0000       0.037165         1.0113
  68   0.0000       0.065600         1.7851
  69   0.0000       0.115174         3.1340
  70   0.0000       0.121059         3.2942
  71   0.0000       0.126119         3.4319

MULLIKEN ATOMIC CHARGES
-----------------------
   0 S :    0.102840
   1 C :   -0.125723
   2 C :   -0.092998
   3 C :    0.050970
   4 C :   -0.156853
   5 H :   -0.023167
   6 C :    0.149158
   7 H :    0.006175
   8 H :    0.028972
   9 C :   -0.140698
  10 H :    0.045128
  11 H :    0.036142
  12 C :   -0.030273
  13 H :    0.026437
  14 H :    0.034292
  15 H :    0.031065
  16 S :    0.140762
  17 C :   -0.096753
  18 C :   -0.022419
  19 C :   -0.035699
  20 C :   -0.161995
  21 H :   -0.009053
  22 C :    0.041614
  23 H :    0.041637
  24 H :    0.045476
  25 C :   -0.054198
  26 H :    0.004148
  27 H :    0.001142
  28 C :   -0.019180
  29 H :    0.027453
  30 H :    0.034817
  31 H :    0.019551
  32 H :    0.030602
  33 H :    0.070625
Sum of atomic charges:    0.0000000

LOEWDIN ATOMIC CHARGES
----------------------
   0 S :    0.396383
   1 C :   -0.183459
   2 C :   -0.054446
   3 C :   -0.053542
   4 C :   -0.196551
   5 H :    0.014377
   6 C :   -0.025596
   7 H :    0.024844
   8 H :    0.033579
   9 C :   -0.042194
  10 H :    0.031345
  11 H :    0.025433
  12 C :   -0.060831
  13 H :    0.020972
  14 H :    0.021752
  15 H :    0.028310
  16 S :    0.452888
  17 C :   -0.205470
  18 C :   -0.065381
  19 C :   -0.047385
  20 C :   -0.226200
  21 H :    0.016460
  22 C :   -0.037895
  23 H :    0.033686
  24 H :    0.041988
  25 C :   -0.038125
  26 H :    0.016345
  27 H :    0.009166
  28 C :   -0.058600
  29 H :    0.029003
  30 H :    0.024906
  31 H :    0.022119
  32 H :    0.012742
  33 H :    0.039378

  Mayer bond orders larger than 0.100000
B(  0-S ,  1-C ) :   1.1306 B(  0-S ,  4-C ) :   1.1515 B(  1-C ,  2-C ) :   1.6261
B(  1-C , 32-H ) :   0.9712 B(  2-C ,  3-C ) :   1.2402 B(  2-C ,  6-C ) :   1.0113
B(  3-C ,  4-C ) :   1.5838 B(  3-C ,  5-H ) :   1.0071 B(  4-C , 20-C ) :   1.0140
B(  6-C ,  7-H ) :   0.9329 B(  6-C ,  8-H ) :   0.9335 B(  6-C ,  9-C ) :   1.0568
B(  9-C , 10-H ) :   0.9558 B(  9-C , 11-H ) :   0.9638 B(  9-C , 12-C ) :   1.0763
B( 12-C , 13-H ) :   0.9741 B( 12-C , 14-H ) :   0.9736 B( 12-C , 15-H ) :   0.9766
B( 16-S , 17-C ) :   1.1771 B( 16-S , 20-C ) :   1.1696 B( 17-C , 18-C ) :   1.5771
B( 17-C , 33-H ) :   0.9559 B( 18-C , 19-C ) :   1.2723 B( 18-C , 21-H ) :   0.9983
B( 19-C , 20-C ) :   1.5648 B( 19-C , 22-C ) :   1.0352 B( 22-C , 23-H ) :   0.9411
B( 22-C , 24-H ) :   0.9315 B( 22-C , 25-C ) :   1.0682 B( 25-C , 26-H ) :   0.9515
B( 25-C , 27-H ) :   0.9408 B( 25-C , 28-C ) :   1.0862 B( 28-C , 29-H ) :   0.9733
B( 28-C , 30-H ) :   0.9766 B( 28-C , 31-H ) :   0.9716

Dispersion correction           -0.013312717
FINAL SINGLE POINT ENERGY     -1339.867858082606

DIPOLE MOMENT
-------------
                                X             Y             Z
Electronic contribution:    -11.87588      -5.74527      13.60384
Nuclear contribution   :     12.35401       5.74369     -13.70483
                        -----------------------------------------
Total Dipole Moment    :      0.47813      -0.00158      -0.10099
                        -----------------------------------------
Magnitude (a.u.)       :      0.48869
Magnitude (Debye)      :      1.24214

Rotational constants in cm-1:     0.022320     0.006669     0.005779
Rotational constants in MHz :   669.151226   199.928008   173.254340

                             ****ORCA TERMINATED NORMALLY****
TOTAL RUN TIME: 0 days 0 hours 0 minutes 33 seconds 175 msec
