                         Program Version 4.2.1 -  RELEASE  -
|  1> ! wB97X-D3 SP def2-SVP
|  2> %pal
|  3> nprocs 16
|  4> end
|  5>
|  6> * xyz 0 1
|  7> S 	 8.46515 	 22.8849 	 37.0508
|  8> C 	 7.20663 	 23.413 	 36.0162
|  9> C 	 6.07719 	 22.6353 	 36.268
| 10> C 	 6.29526 	 21.5025 	 37.119
| 11> C 	 7.5583 	 21.4843 	 37.665
| 12> H 	 5.51951 	 20.7191 	 37.3849
| 13> C 	 4.74402 	 22.8676 	 35.6201
| 14> H 	 4.51977 	 23.8828 	 35.2926
| 15> H 	 3.97911 	 22.554 	 36.3454
| 16> C 	 4.60284 	 22.0657 	 34.326
| 17> H 	 5.2587 	 22.515 	 33.6144
| 18> H 	 4.92091 	 21.0355 	 34.4973
| 19> C 	 3.13653 	 22.1781 	 33.8943
| 20> H 	 2.31222 	 22.0433 	 34.6193
| 21> H 	 2.89072 	 23.1603 	 33.5538
| 22> H 	 3.01548 	 21.4922 	 33.1199
| 23> S 	 9.14833 	 21.2391 	 39.8236
| 24> C 	 9.46011 	 19.7212 	 40.5918
| 25> C 	 8.96057 	 18.6477 	 39.7989
| 26> C 	 8.20761 	 19.0887 	 38.6663
| 27> C 	 8.22649 	 20.4696 	 38.5533
| 28> H 	 9.09014 	 17.5434 	 40.069
| 29> C 	 7.2863 	 18.1645 	 37.8535
| 30> H 	 7.94241 	 17.2814 	 37.6121
| 31> H 	 7.06685 	 18.5514 	 36.823
| 32> C 	 6.01738 	 17.7738 	 38.5548
| 33> H 	 5.56467 	 18.7007 	 39.016
| 34> H 	 6.11257 	 16.9758 	 39.3339
| 35> C 	 5.00665 	 17.1456 	 37.5361
| 36> H 	 5.37528 	 16.2565 	 37.0034
| 37> H 	 4.60823 	 17.7666 	 36.7131
| 38> H 	 4.05472 	 16.9669 	 38.0281
| 39> H 	 7.16102 	 24.1627 	 35.2753
| 40> H 	 10.0187 	 19.4644 	 41.4229
| 41> *
| 42>
| 43>                          ****END OF INPUT****

CARTESIAN COORDINATES (ANGSTROEM)
---------------------------------
  S      8.465150   22.884900   37.050800
  C      7.206630   23.413000   36.016200
  C      6.077190   22.635300   36.268000
  C      6.295260   21.502500   37.119000
  C      7.558300   21.484300   37.665000
  H      5.519510   20.719100   37.384900
  C      4.744020   22.867600   35.620100
  H      4.519770   23.882800   35.292600
  H      3.979110   22.554000   36.345400
  C      4.602840   22.065700   34.326000
  H      5.258700   22.515000   33.614400
  H      4.920910   21.035500   34.497300
  C      3.136530   22.178100   33.894300
  H      2.312220   22.043300   34.619300
  H      2.890720   23.160300   33.553800
  H      3.015480   21.492200   33.119900
  S      9.148330   21.239100   39.823600
  C      9.460110   19.721200   40.591800
  C      8.960570   18.647700   39.798900
  C      8.207610   19.088700   38.666300
  C      8.226490   20.469600   38.553300
  H      9.090140   17.543400   40.069000
  C      7.286300   18.164500   37.853500
  H      7.942410   17.281400   37.612100
  H      7.066850   18.551400   36.823000
  C      6.017380   17.773800   38.554800
  H      5.564670   18.700700   39.016000
  H      6.112570   16.975800   39.333900
  C      5.006650   17.145600   37.536100
  H      5.375280   16.256500   37.003400
  H      4.608230   17.766600   36.713100
  H      4.054720   16.966900   38.028100
  H      7.161020   24.162700   35.275300
  H     10.018700   19.464400   41.422900

 Total Charge           Charge          ....    0
 Multiplicity           Mult            ....    1
 Number of Electrons    NEL             ....  134
 Basis Dimension        Dim             ....  322

ORBITAL ENERGIES
----------------

  NO   OCC          E(Eh)            E(eV)
   0   2.0000     -88.969741     -2420.9897
   1   2.0000     -88.965793     -2420.8823
   2   2.0000     -10.335933      -281.2550
   3   2.0000     -10.331385      -281.1313
   4   2.0000     -10.316243      -280.7192
   5   2.0000     -10.309717      -280.5417
   6   2.0000     -10.306349      -280.4500
   7   2.0000     -10.303921      -280.3839
   8   2.0000     -10.300009      -280.2775
   9   2.0000     -10.299907      -280.2747
  10   2.0000     -10.299858      -280.2734
  11   2.0000     -10.298236      -280.2293
  12   2.0000     -10.286384      -279.9067
  13   2.0000     -10.283498      -279.8282
  14   2.0000     -10.283321      -279.8234
  15   2.0000     -10.271922      -279.5132
  16   2.0000      -8.084478      -219.9898
  17   2.0000      -8.080479      -219.8810
  18   2.0000      -6.043002      -164.4384
  19   2.0000      -6.039090      -164.3320
  20   2.0000      -6.038837      -164.3251
  21   2.0000      -6.035363      -164.2306
  22   2.0000      -6.034890      -164.2177
  23   2.0000      -6.031206      -164.1175
  24   2.0000      -1.006261       -27.3817
  25   2.0000      -0.985611       -26.8198
  26   2.0000      -0.916165       -24.9301
  27   2.0000      -0.909842       -24.7581
  28   2.0000      -0.865266       -23.5451
  29   2.0000      -0.851965       -23.1831
  30   2.0000      -0.845600       -23.0099
  31   2.0000      -0.814514       -22.1641
  32   2.0000      -0.780332       -21.2339
  33   2.0000      -0.769998       -20.9527
  34   2.0000      -0.704654       -19.1746
  35   2.0000      -0.703065       -19.1314
  36   2.0000      -0.696238       -18.9456
  37   2.0000      -0.662921       -18.0390
  38   2.0000      -0.641974       -17.4690
  39   2.0000      -0.620464       -16.8837
  40   2.0000      -0.594932       -16.1889
  41   2.0000      -0.566327       -15.4105
  42   2.0000      -0.565480       -15.3875
  43   2.0000      -0.560084       -15.2407
  44   2.0000      -0.529642       -14.4123
  45   2.0000      -0.525122       -14.2893
  46   2.0000      -0.520384       -14.1604
  47   2.0000      -0.515522       -14.0281
  48   2.0000      -0.499480       -13.5916
  49   2.0000      -0.499259       -13.5855
  50   2.0000      -0.490051       -13.3350
  51   2.0000      -0.486640       -13.2422
  52   2.0000      -0.468926       -12.7601
  53   2.0000      -0.462770       -12.5926
  54   2.0000      -0.457147       -12.4396
  55   2.0000      -0.452674       -12.3179
  56   2.0000      -0.446288       -12.1441
  57   2.0000      -0.438750       -11.9390
  58   2.0000      -0.431632       -11.7453
  59   2.0000      -0.427675       -11.6376
  60   2.0000      -0.423800       -11.5322
  61   2.0000      -0.412930       -11.2364
  62   2.0000      -0.408061       -11.1039
  63   2.0000      -0.352230        -9.5847
  64   2.0000      -0.333778        -9.0826
  65   2.0000      -0.326447        -8.8831
  66   2.0000      -0.287846        -7.8327
  67   0.0000       0.031072         0.8455
  68   0.0000       0.067376         1.8334
  69   0.0000       0.109524         2.9803
  70   0.0000       0.121648         3.3102
  71   0.0000       0.124886         3.3983

MULLIKEN ATOMIC CHARGES
-----------------------
   0 S :    0.108863
   1 C :   -0.073842
   2 C :   -0.104304
   3 C :   -0.008073
   4 C :   -0.106339
   5 H :    0.036869
   6 C :    0.024991
   7 H :    0.018167
   8 H :    0.027430
   9 C :   -0.059028
  10 H :    0.021883
  11 H :    0.027874
  12 C :   -0.009452
  13 H :    0.027094
  14 H :    0.012673
  15 H :    0.021421
  16 S :    0.118560
  17 C :   -0.053037
  18 C :   -0.087479
  19 C :   -0.031290
  20 C :   -0.155253
  21 H :    0.045538
  22 C :    0.027093
  23 H :    0.030739
  24 H :    0.038301
  25 C :   -0.065120
  26 H :    0.047405
  27 H :    0.046068
  28 C :   -0.078315
  29 H :    0.038570
  30 H :    0.024018
  31 H :    0.029290
  32 H :    0.027595
  33 H :    0.031089
Sum of atomic charges:   -0.0000000

LOEWDIN ATOMIC CHARGES
----------------------
   0 S :    0.408583
   1 C :   -0.207599
   2 C :   -0.063884
   3 C :   -0.077224
   4 C :   -0.184379
   5 H :    0.043505
   6 C :   -0.035948
   7 H :    0.027124
   8 H :    0.030133
   9 C :   -0.028809
  10 H :    0.022012
  11 H :    0.021290
  12 C :   -0.063344
  13 H :    0.028999
  14 H :    0.021646
  15 H :    0.017856
  16 S :    0.427175
  17 C :   -0.189927
  18 C :   -0.074666
  19 C :   -0.064224
  20 C :   -0.193981
  21 H :    0.042910
  22 C :   -0.043127
  23 H :    0.036458
  24 H :    0.035937
  25 C :   -0.042928
  26 H :    0.032130
  27 H :    0.033312
  28 C :   -0.078509
  29 H :    0.027441
  30 H :    0.023707
  31 H :    0.026026
  32 H :    0.025104
  33 H :    0.017202

  Mayer bond orders larger than 0.100000
B(  0-S ,  1-C ) :   1.1357 B(  0-S ,  4-C ) :   1.1526 B(  1-C ,  2-C ) :   1.5979
B(  1-C , 32-H ) :   0.9744 B(  2-C ,  3-C ) :   1.2392 B(  2-C ,  6-C ) :   1.0375
B(  3-C ,  4-C ) :   1.5829 B(  3-C ,  5-H ) :   0.9843 B(  4-C , 20-C ) :   0.9933
B(  6-C ,  7-H ) :   0.9469 B(  6-C ,  8-H ) :   0.9447 B(  6-C ,  9-C ) :   1.0603
B(  9-C , 10-H ) :   0.9522 B(  9-C , 11-H ) :   0.9609 B(  9-C , 12-C ) :   1.0748
B( 12-C , 13-H ) :   0.9761 B( 12-C , 14-H ) :   0.9690 B( 12-C , 15-H ) :   0.9733
B( 16-S , 17-C ) :   1.1631 B( 16-S , 20-C ) :   1.1546 B( 17-C , 18-C ) :   1.5909
B( 17-C , 20-C ) :   0.1069 B( 17-C , 33-H ) :   0.9764 B( 18-C , 19-C ) :   1.2560
B( 18-C , 21-H ) :   0.9742 B( 19-C , 20-C ) :   1.5990 B( 19-C , 22-C ) :   1.0464
B( 22-C , 23-H ) :   0.9233 B( 22-C , 24-H ) :   0.9456 B( 22-C , 25-C ) :   1.0563
B( 25-C , 26-H ) :   0.9549 B( 25-C , 27-H ) :   0.9504 B( 25-C , 28-C ) :   1.0756
B( 28-C , 29-H ) :   0.9749 B( 28-C , 30-H ) :   0.9741 B( 28-C , 31-H ) :   0.9737

Dispersion correction           -0.014152177
FINAL SINGLE POINT ENERGY     -1339.868165760197

DIPOLE MOMENT
-------------
                                X             Y             Z
Electronic contribution:     26.24073      13.41307      15.08801
Nuclear contribution   :    -26.82530     -13.84937     -15.34160
                        -----------------------------------------
Total Dipole Moment    :     -0.58457      -0.43630      -0.25359
                        -----------------------------------------
Magnitude (a.u.)       :      0.77226
Magnitude (Debye)      :      1.96293

Rotational constants in cm-1:     0.017930     0.009208     0.006363
Rotational constants in MHz :   537.531802   276.037399   190.760265

                             ****ORCA TERMINATED NORMALLY****
TOTAL RUN TIME: 0 days 0 hours 0 minutes 35 seconds 198 msec
