                         Program Version 4.2.1 -  RELEASE  -
|  1> ! wB97X-D3 SP def2-SVP
|  2> %pal
|  3> nprocs 16
|  4> end
|  5>
|  6> * xyz 0 1
|  7> S 	 -113.699 	 40.9459 	 131.228
|  8> C 	 -114.062 	 40.0798 	 132.713
|  9> C 	 -113.569 	 40.7162 	 133.84
| 10> C 	 -112.791 	 41.8442 	 133.39
| 11> C 	 -112.663 	 42.1186 	 132.026
| 12> H 	 -112.336 	 42.5573 	 134.069
| 13> C 	 -113.883 	 40.2302 	 135.259
| 14> H 	 -113.37 	 39.3036 	 135.501
| 15> H 	 -114.98 	 40.0422 	 135.279
| 16> C 	 -113.449 	 41.1658 	 136.362
| 17> H 	 -113.576 	 40.6785 	 137.334
| 18> H 	 -112.342 	 41.2707 	 136.358
| 19> C 	 -114.232 	 42.5166 	 136.229
| 20> H 	 -114.152 	 43.2087 	 137.051
| 21> H 	 -114.062 	 43.0193 	 135.303
| 22> H 	 -115.275 	 42.2866 	 136.171
| 23> S 	 -111.04 	 42.8247 	 129.934
| 24> C 	 -110.488 	 44.4906 	 129.733
| 25> C 	 -111.133 	 45.3172 	 130.63
| 26> C 	 -112.036 	 44.6453 	 131.552
| 27> C 	 -111.985 	 43.2679 	 131.322
| 28> H 	 -110.892 	 46.3653 	 130.544
| 29> C 	 -112.963 	 45.4555 	 132.436
| 30> H 	 -112.397 	 46.3297 	 132.768
| 31> H 	 -113.235 	 44.9267 	 133.357
| 32> C 	 -114.309 	 45.9101 	 131.656
| 33> H 	 -114.822 	 45.0638 	 131.151
| 34> H 	 -114.076 	 46.6086 	 130.893
| 35> C 	 -115.253 	 46.7488 	 132.576
| 36> H 	 -115.66 	 46.2255 	 133.421
| 37> H 	 -116.048 	 47.2285 	 132.091
| 38> H 	 -114.644 	 47.4559 	 133.076
| 39> H 	 -114.734 	 39.2246 	 132.706
| 40> H 	 -109.963 	 44.9878 	 128.939
| 41> *
| 42>
| 43>                          ****END OF INPUT****

CARTESIAN COORDINATES (ANGSTROEM)
---------------------------------
  S    -113.699000   40.945900  131.228000
  C    -114.062000   40.079800  132.713000
  C    -113.569000   40.716200  133.840000
  C    -112.791000   41.844200  133.390000
  C    -112.663000   42.118600  132.026000
  H    -112.336000   42.557300  134.069000
  C    -113.883000   40.230200  135.259000
  H    -113.370000   39.303600  135.501000
  H    -114.980000   40.042200  135.279000
  C    -113.449000   41.165800  136.362000
  H    -113.576000   40.678500  137.334000
  H    -112.342000   41.270700  136.358000
  C    -114.232000   42.516600  136.229000
  H    -114.152000   43.208700  137.051000
  H    -114.062000   43.019300  135.303000
  H    -115.275000   42.286600  136.171000
  S    -111.040000   42.824700  129.934000
  C    -110.488000   44.490600  129.733000
  C    -111.133000   45.317200  130.630000
  C    -112.036000   44.645300  131.552000
  C    -111.985000   43.267900  131.322000
  H    -110.892000   46.365300  130.544000
  C    -112.963000   45.455500  132.436000
  H    -112.397000   46.329700  132.768000
  H    -113.235000   44.926700  133.357000
  C    -114.309000   45.910100  131.656000
  H    -114.822000   45.063800  131.151000
  H    -114.076000   46.608600  130.893000
  C    -115.253000   46.748800  132.576000
  H    -115.660000   46.225500  133.421000
  H    -116.048000   47.228500  132.091000
  H    -114.644000   47.455900  133.076000
  H    -114.734000   39.224600  132.706000
  H    -109.963000   44.987800  128.939000

 Total Charge           Charge          ....    0
 Multiplicity           Mult            ....    1
 Number of Electrons    NEL             ....  134
 Basis Dimension        Dim             ....  322

ORBITAL ENERGIES
----------------

  NO   OCC          E(Eh)            E(eV)
   0   2.0000     -88.968545     -2420.9572
   1   2.0000     -88.963845     -2420.8293
   2   2.0000     -10.334902      -281.2270
   3   2.0000     -10.334265      -281.2097
   4   2.0000     -10.315713      -280.7048
   5   2.0000     -10.315067      -280.6873
   6   2.0000     -10.310735      -280.5694
   7   2.0000     -10.305731      -280.4332
   8   2.0000     -10.301988      -280.3313
   9   2.0000     -10.298701      -280.2419
  10   2.0000     -10.296634      -280.1856
  11   2.0000     -10.294664      -280.1320
  12   2.0000     -10.292969      -280.0859
  13   2.0000     -10.292762      -280.0803
  14   2.0000     -10.273541      -279.5573
  15   2.0000     -10.269446      -279.4458
  16   2.0000      -8.082965      -219.9487
  17   2.0000      -8.078294      -219.8216
  18   2.0000      -6.041562      -164.3993
  19   2.0000      -6.037525      -164.2894
  20   2.0000      -6.036837      -164.2707
  21   2.0000      -6.033623      -164.1832
  22   2.0000      -6.032715      -164.1585
  23   2.0000      -6.029168      -164.0620
  24   2.0000      -1.001745       -27.2589
  25   2.0000      -0.982046       -26.7228
  26   2.0000      -0.914206       -24.8768
  27   2.0000      -0.899010       -24.4633
  28   2.0000      -0.865784       -23.5592
  29   2.0000      -0.849876       -23.1263
  30   2.0000      -0.835443       -22.7336
  31   2.0000      -0.817517       -22.2458
  32   2.0000      -0.786719       -21.4077
  33   2.0000      -0.773105       -21.0373
  34   2.0000      -0.712576       -19.3902
  35   2.0000      -0.704916       -19.1817
  36   2.0000      -0.689379       -18.7590
  37   2.0000      -0.658019       -17.9056
  38   2.0000      -0.640375       -17.4255
  39   2.0000      -0.622206       -16.9311
  40   2.0000      -0.590988       -16.0816
  41   2.0000      -0.566213       -15.4074
  42   2.0000      -0.559231       -15.2175
  43   2.0000      -0.555010       -15.1026
  44   2.0000      -0.531915       -14.4741
  45   2.0000      -0.527517       -14.3545
  46   2.0000      -0.518873       -14.1193
  47   2.0000      -0.505904       -13.7663
  48   2.0000      -0.501156       -13.6371
  49   2.0000      -0.497905       -13.5487
  50   2.0000      -0.491835       -13.3835
  51   2.0000      -0.482209       -13.1216
  52   2.0000      -0.470723       -12.8090
  53   2.0000      -0.463883       -12.6229
  54   2.0000      -0.457044       -12.4368
  55   2.0000      -0.446359       -12.1460
  56   2.0000      -0.443678       -12.0731
  57   2.0000      -0.438714       -11.9380
  58   2.0000      -0.430815       -11.7231
  59   2.0000      -0.429811       -11.6958
  60   2.0000      -0.423627       -11.5275
  61   2.0000      -0.423501       -11.5241
  62   2.0000      -0.415080       -11.2949
  63   2.0000      -0.344588        -9.3767
  64   2.0000      -0.329355        -8.9622
  65   2.0000      -0.327793        -8.9197
  66   2.0000      -0.295494        -8.0408
  67   0.0000       0.030405         0.8274
  68   0.0000       0.069286         1.8854
  69   0.0000       0.110106         2.9961
  70   0.0000       0.117336         3.1929
  71   0.0000       0.128354         3.4927

MULLIKEN ATOMIC CHARGES
-----------------------
   0 S :    0.098839
   1 C :   -0.136277
   2 C :   -0.085420
   3 C :    0.004449
   4 C :   -0.125239
   5 H :    0.006343
   6 C :    0.065577
   7 H :    0.043606
   8 H :    0.042037
   9 C :   -0.085036
  10 H :    0.027139
  11 H :    0.036175
  12 C :   -0.028057
  13 H :    0.032799
  14 H :    0.026173
  15 H :    0.013069
  16 S :    0.114778
  17 C :   -0.072464
  18 C :   -0.067801
  19 C :   -0.017407
  20 C :   -0.174781
  21 H :    0.019217
  22 C :    0.067109
  23 H :    0.025183
  24 H :    0.024821
  25 C :   -0.072529
  26 H :    0.048584
  27 H :    0.022496
  28 C :   -0.008346
  29 H :    0.017658
  30 H :    0.029486
  31 H :    0.006059
  32 H :    0.051218
  33 H :    0.050543
Sum of atomic charges:    0.0000000

LOEWDIN ATOMIC CHARGES
----------------------
   0 S :    0.397690
   1 C :   -0.187464
   2 C :   -0.067524
   3 C :   -0.068722
   4 C :   -0.201747
   5 H :    0.024488
   6 C :   -0.030228
   7 H :    0.036485
   8 H :    0.036843
   9 C :   -0.044771
  10 H :    0.027202
  11 H :    0.027335
  12 C :   -0.064574
  13 H :    0.023452
  14 H :    0.021459
  15 H :    0.024509
  16 S :    0.411507
  17 C :   -0.188934
  18 C :   -0.066886
  19 C :   -0.056247
  20 C :   -0.199132
  21 H :    0.030026
  22 C :   -0.027973
  23 H :    0.031804
  24 H :    0.028709
  25 C :   -0.027305
  26 H :    0.030484
  27 H :    0.019185
  28 C :   -0.061198
  29 H :    0.021509
  30 H :    0.020347
  31 H :    0.020215
  32 H :    0.027069
  33 H :    0.032386

  Mayer bond orders larger than 0.100000
B(  0-S ,  1-C ) :   1.1623 B(  0-S ,  4-C ) :   1.1466 B(  1-C ,  2-C ) :   1.5927
B(  1-C ,  4-C ) :   0.1035 B(  1-C , 32-H ) :   0.9701 B(  2-C ,  3-C ) :   1.2608
B(  2-C ,  6-C ) :   0.9958 B(  3-C ,  4-C ) :   1.5796 B(  3-C ,  5-H ) :   0.9910
B(  4-C , 20-C ) :   1.0055 B(  6-C ,  7-H ) :   0.9361 B(  6-C ,  8-H ) :   0.9449
B(  6-C ,  9-C ) :   1.0960 B(  9-C , 10-H ) :   0.9538 B(  9-C , 11-H ) :   0.9497
B(  9-C , 12-C ) :   1.0586 B( 12-C , 13-H ) :   0.9761 B( 12-C , 14-H ) :   0.9777
B( 12-C , 15-H ) :   0.9682 B( 16-S , 17-C ) :   1.1307 B( 16-S , 20-C ) :   1.1549
B( 17-C , 18-C ) :   1.6567 B( 17-C , 33-H ) :   0.9640 B( 18-C , 19-C ) :   1.2116
B( 18-C , 21-H ) :   0.9849 B( 19-C , 20-C ) :   1.5952 B( 19-C , 22-C ) :   1.0597
B( 22-C , 23-H ) :   0.9284 B( 22-C , 24-H ) :   0.9383 B( 22-C , 25-C ) :   1.0471
B( 25-C , 26-H ) :   0.9621 B( 25-C , 27-H ) :   0.9583 B( 25-C , 28-C ) :   1.0733
B( 28-C , 29-H ) :   0.9756 B( 28-C , 30-H ) :   0.9771 B( 28-C , 31-H ) :   0.9703

Dispersion correction           -0.014456500
FINAL SINGLE POINT ENERGY     -1339.873792777330

DIPOLE MOMENT
-------------
                                X             Y             Z
Electronic contribution:     12.71624     -13.53629     -22.33353
Nuclear contribution   :    -13.03090      13.97151      22.85677
                        -----------------------------------------
Total Dipole Moment    :     -0.31465       0.43522       0.52324
                        -----------------------------------------
Magnitude (a.u.)       :      0.74980
Magnitude (Debye)      :      1.90584

Rotational constants in cm-1:     0.016626     0.009555     0.007244
Rotational constants in MHz :   498.420148   286.446497   217.158387

                             ****ORCA TERMINATED NORMALLY****
TOTAL RUN TIME: 0 days 0 hours 0 minutes 34 seconds 111 msec
