                         Program Version 4.2.1 -  RELEASE  -
|  1> ! wB97X-D3 SP def2-SVP
|  2> %pal
|  3> nprocs 16
|  4> end
|  5>
|  6> * xyz 0 1
|  7> S 	 35.1529 	 22.2853 	 81.0846
|  8> C 	 34.0213 	 22.6445 	 82.3034
|  9> C 	 34.5204 	 22.9936 	 83.5329
| 10> C 	 35.9669 	 22.8598 	 83.4588
| 11> C 	 36.4486 	 22.3596 	 82.2297
| 12> H 	 36.6629 	 23.1777 	 84.2143
| 13> C 	 33.8468 	 23.4326 	 84.8352
| 14> H 	 33.8051 	 22.6358 	 85.6078
| 15> H 	 32.7828 	 23.5263 	 84.5535
| 16> C 	 34.4143 	 24.658 	 85.5465
| 17> H 	 35.5117 	 24.3308 	 85.7618
| 18> H 	 34.4889 	 25.503 	 84.8272
| 19> C 	 33.7165 	 25.0755 	 86.7841
| 20> H 	 34.3358 	 25.879 	 87.2618
| 21> H 	 32.6923 	 25.4025 	 86.5651
| 22> H 	 33.6307 	 24.3991 	 87.6802
| 23> S 	 38.635 	 20.7492 	 82.4736
| 24> C 	 40.0436 	 21.1312 	 81.5579
| 25> C 	 39.8987 	 22.2743 	 80.7983
| 26> C 	 38.6335 	 22.9161 	 80.9984
| 27> C 	 37.7974 	 22.2216 	 81.8374
| 28> H 	 40.7226 	 22.5809 	 80.0993
| 29> C 	 38.4198 	 24.2573 	 80.204
| 30> H 	 37.6367 	 24.171 	 79.4289
| 31> H 	 39.3649 	 24.5085 	 79.6163
| 32> C 	 38.019 	 25.5019 	 81.0538
| 33> H 	 36.9289 	 25.3512 	 81.3718
| 34> H 	 38.0501 	 26.3488 	 80.3872
| 35> C 	 38.9692 	 25.863 	 82.2569
| 36> H 	 39.929 	 25.805 	 81.7989
| 37> H 	 38.9178 	 25.0499 	 83.0579
| 38> H 	 38.7747 	 26.8387 	 82.6526
| 39> H 	 33.0792 	 22.922 	 82.0565
| 40> H 	 40.9961 	 20.7161 	 81.6574
| 41> *
| 42>
| 43>                          ****END OF INPUT****

CARTESIAN COORDINATES (ANGSTROEM)
---------------------------------
  S     35.152900   22.285300   81.084600
  C     34.021300   22.644500   82.303400
  C     34.520400   22.993600   83.532900
  C     35.966900   22.859800   83.458800
  C     36.448600   22.359600   82.229700
  H     36.662900   23.177700   84.214300
  C     33.846800   23.432600   84.835200
  H     33.805100   22.635800   85.607800
  H     32.782800   23.526300   84.553500
  C     34.414300   24.658000   85.546500
  H     35.511700   24.330800   85.761800
  H     34.488900   25.503000   84.827200
  C     33.716500   25.075500   86.784100
  H     34.335800   25.879000   87.261800
  H     32.692300   25.402500   86.565100
  H     33.630700   24.399100   87.680200
  S     38.635000   20.749200   82.473600
  C     40.043600   21.131200   81.557900
  C     39.898700   22.274300   80.798300
  C     38.633500   22.916100   80.998400
  C     37.797400   22.221600   81.837400
  H     40.722600   22.580900   80.099300
  C     38.419800   24.257300   80.204000
  H     37.636700   24.171000   79.428900
  H     39.364900   24.508500   79.616300
  C     38.019000   25.501900   81.053800
  H     36.928900   25.351200   81.371800
  H     38.050100   26.348800   80.387200
  C     38.969200   25.863000   82.256900
  H     39.929000   25.805000   81.798900
  H     38.917800   25.049900   83.057900
  H     38.774700   26.838700   82.652600
  H     33.079200   22.922000   82.056500
  H     40.996100   20.716100   81.657400

 Total Charge           Charge          ....    0
 Multiplicity           Mult            ....    1
 Number of Electrons    NEL             ....  134
 Basis Dimension        Dim             ....  322

ORBITAL ENERGIES
----------------

  NO   OCC          E(Eh)            E(eV)
   0   2.0000     -88.967433     -2420.9269
   1   2.0000     -88.963117     -2420.8095
   2   2.0000     -10.324642      -280.9478
   3   2.0000     -10.323314      -280.9116
   4   2.0000     -10.308993      -280.5220
   5   2.0000     -10.307757      -280.4883
   6   2.0000     -10.304792      -280.4077
   7   2.0000     -10.304232      -280.3924
   8   2.0000     -10.303246      -280.3656
   9   2.0000     -10.298935      -280.2483
  10   2.0000     -10.298495      -280.2363
  11   2.0000     -10.295853      -280.1644
  12   2.0000     -10.293516      -280.1008
  13   2.0000     -10.289257      -279.9849
  14   2.0000     -10.287565      -279.9389
  15   2.0000     -10.276639      -279.6416
  16   2.0000      -8.083300      -219.9578
  17   2.0000      -8.077608      -219.8029
  18   2.0000      -6.041614      -164.4007
  19   2.0000      -6.037688      -164.2938
  20   2.0000      -6.036139      -164.2517
  21   2.0000      -6.034169      -164.1981
  22   2.0000      -6.032114      -164.1422
  23   2.0000      -6.028379      -164.0405
  24   2.0000      -1.008452       -27.4414
  25   2.0000      -0.983769       -26.7697
  26   2.0000      -0.915586       -24.9144
  27   2.0000      -0.895291       -24.3621
  28   2.0000      -0.875877       -23.8338
  29   2.0000      -0.852200       -23.1895
  30   2.0000      -0.841739       -22.9049
  31   2.0000      -0.808941       -22.0124
  32   2.0000      -0.784688       -21.3524
  33   2.0000      -0.775570       -21.1043
  34   2.0000      -0.713131       -19.4053
  35   2.0000      -0.693682       -18.8760
  36   2.0000      -0.681343       -18.5403
  37   2.0000      -0.660701       -17.9786
  38   2.0000      -0.646238       -17.5850
  39   2.0000      -0.616940       -16.7878
  40   2.0000      -0.584850       -15.9146
  41   2.0000      -0.572924       -15.5901
  42   2.0000      -0.561345       -15.2750
  43   2.0000      -0.549131       -14.9426
  44   2.0000      -0.540937       -14.7196
  45   2.0000      -0.528255       -14.3745
  46   2.0000      -0.516614       -14.0578
  47   2.0000      -0.514450       -13.9989
  48   2.0000      -0.498454       -13.5636
  49   2.0000      -0.493886       -13.4393
  50   2.0000      -0.483766       -13.1639
  51   2.0000      -0.477080       -12.9820
  52   2.0000      -0.473400       -12.8819
  53   2.0000      -0.471072       -12.8185
  54   2.0000      -0.459343       -12.4994
  55   2.0000      -0.450355       -12.2548
  56   2.0000      -0.439505       -11.9595
  57   2.0000      -0.436112       -11.8672
  58   2.0000      -0.433170       -11.7872
  59   2.0000      -0.424101       -11.5404
  60   2.0000      -0.413818       -11.2606
  61   2.0000      -0.410160       -11.1610
  62   2.0000      -0.408132       -11.1058
  63   2.0000      -0.335212        -9.1216
  64   2.0000      -0.329061        -8.9542
  65   2.0000      -0.325536        -8.8583
  66   2.0000      -0.304418        -8.2836
  67   0.0000       0.034623         0.9421
  68   0.0000       0.062458         1.6996
  69   0.0000       0.105460         2.8697
  70   0.0000       0.114764         3.1229
  71   0.0000       0.129054         3.5117

MULLIKEN ATOMIC CHARGES
-----------------------
   0 S :    0.133019
   1 C :   -0.072337
   2 C :   -0.072732
   3 C :    0.024972
   4 C :   -0.177560
   5 H :    0.011952
   6 C :    0.068280
   7 H :    0.042641
   8 H :    0.010128
   9 C :   -0.117224
  10 H :    0.042676
  11 H :    0.043176
  12 C :   -0.055206
  13 H :    0.041014
  14 H :    0.038921
  15 H :    0.036440
  16 S :    0.110281
  17 C :   -0.059067
  18 C :   -0.085839
  19 C :    0.021793
  20 C :   -0.203500
  21 H :    0.040638
  22 C :    0.032497
  23 H :    0.043076
  24 H :    0.028510
  25 C :   -0.108271
  26 H :    0.046969
  27 H :    0.026269
  28 C :   -0.040226
  29 H :    0.018318
  30 H :    0.048852
  31 H :    0.038588
  32 H :    0.006990
  33 H :    0.035965
Sum of atomic charges:    0.0000000

LOEWDIN ATOMIC CHARGES
----------------------
   0 S :    0.442898
   1 C :   -0.194063
   2 C :   -0.059197
   3 C :   -0.047474
   4 C :   -0.219659
   5 H :    0.025005
   6 C :   -0.038882
   7 H :    0.037383
   8 H :    0.026171
   9 C :   -0.051985
  10 H :    0.033029
  11 H :    0.030711
  12 C :   -0.077431
  13 H :    0.037123
  14 H :    0.027782
  15 H :    0.031397
  16 S :    0.397892
  17 C :   -0.185778
  18 C :   -0.081845
  19 C :   -0.052073
  20 C :   -0.191671
  21 H :    0.040414
  22 C :   -0.033735
  23 H :    0.034276
  24 H :    0.032683
  25 C :   -0.045861
  26 H :    0.028220
  27 H :    0.019905
  28 C :   -0.064618
  29 H :    0.019865
  30 H :    0.033195
  31 H :    0.022567
  32 H :    0.004176
  33 H :    0.019576

  Mayer bond orders larger than 0.100000
B(  0-S ,  1-C ) :   1.1680 B(  0-S ,  4-C ) :   1.1488 B(  1-C ,  2-C ) :   1.6164
B(  1-C , 32-H ) :   0.9628 B(  2-C ,  3-C ) :   1.2411 B(  2-C ,  6-C ) :   1.0203
B(  3-C ,  4-C ) :   1.5759 B(  3-C ,  5-H ) :   0.9895 B(  4-C , 20-C ) :   1.0596
B(  6-C ,  7-H ) :   0.9392 B(  6-C ,  8-H ) :   0.9363 B(  6-C ,  9-C ) :   1.0553
B(  9-C , 10-H ) :   0.9456 B(  9-C , 11-H ) :   0.9541 B(  9-C , 12-C ) :   1.0940
B( 12-C , 13-H ) :   0.9691 B( 12-C , 14-H ) :   0.9707 B( 12-C , 15-H ) :   0.9704
B( 16-S , 17-C ) :   1.1597 B( 16-S , 20-C ) :   1.1199 B( 17-C , 18-C ) :   1.6307
B( 17-C , 20-C ) :   0.1004 B( 17-C , 33-H ) :   0.9671 B( 18-C , 19-C ) :   1.2284
B( 18-C , 21-H ) :   0.9783 B( 19-C , 20-C ) :   1.6182 B( 19-C , 22-C ) :   1.0163
B( 22-C , 23-H ) :   0.9394 B( 22-C , 24-H ) :   0.9428 B( 22-C , 25-C ) :   1.0753
B( 25-C , 26-H ) :   0.9551 B( 25-C , 27-H ) :   0.9572 B( 25-C , 28-C ) :   1.0624
B( 28-C , 29-H ) :   0.9764 B( 28-C , 30-H ) :   0.9739 B( 28-C , 31-H ) :   0.9776

Dispersion correction           -0.015050639
FINAL SINGLE POINT ENERGY     -1339.865819199070

DIPOLE MOMENT
-------------
                                X             Y             Z
Electronic contribution:      3.56965     -22.71989     -12.88479
Nuclear contribution   :     -3.57950      23.36773      13.04972
                        -----------------------------------------
Total Dipole Moment    :     -0.00985       0.64783       0.16494
                        -----------------------------------------
Magnitude (a.u.)       :      0.66857
Magnitude (Debye)      :      1.69937

Rotational constants in cm-1:     0.019126     0.008282     0.007581
Rotational constants in MHz :   573.373974   248.293068   227.283668

                             ****ORCA TERMINATED NORMALLY****
TOTAL RUN TIME: 0 days 0 hours 0 minutes 29 seconds 208 msec
