                         Program Version 4.2.1 -  RELEASE  -
|  1> ! wB97X-D3 SP def2-SVP
|  2> %pal
|  3> nprocs 16
|  4> end
|  5>
|  6> * xyz 0 1
|  7> S 	 12.2372 	 25.3496 	 48.1914
|  8> C 	 12.5305 	 23.6468 	 48.5164
|  9> C 	 11.6008 	 22.8002 	 47.8799
| 10> C 	 10.5346 	 23.5566 	 47.316
| 11> C 	 10.7358 	 24.9494 	 47.3152
| 12> H 	 9.64191 	 23.1235 	 46.9337
| 13> C 	 11.41 	 21.3118 	 48.1252
| 14> H 	 11.3869 	 20.9452 	 47.1162
| 15> H 	 10.4174 	 21.2196 	 48.6201
| 16> C 	 12.5357 	 20.6524 	 48.9375
| 17> H 	 13.5247 	 20.9764 	 48.5521
| 18> H 	 12.515 	 20.9119 	 49.944
| 19> C 	 12.4015 	 19.1545 	 48.9583
| 20> H 	 12.2947 	 18.5852 	 47.9794
| 21> H 	 13.2761 	 18.7002 	 49.6018
| 22> H 	 11.4019 	 18.8942 	 49.3329
| 23> S 	 10.8062 	 27.439 	 46.0577
| 24> C 	 9.2644 	 28.115 	 45.4476
| 25> C 	 8.17622 	 27.3106 	 45.8146
| 26> C 	 8.59563 	 26.1135 	 46.4819
| 27> C 	 9.94525 	 26.0404 	 46.6974
| 28> H 	 7.16257 	 27.6452 	 45.548
| 29> C 	 7.53273 	 25.2337 	 47.0929
| 30> H 	 6.67715 	 25.8649 	 47.2879
| 31> H 	 7.83757 	 24.8081 	 48.0522
| 32> C 	 7.04153 	 24.1277 	 46.209
| 33> H 	 6.65946 	 23.3459 	 46.8358
| 34> H 	 7.7413 	 23.5688 	 45.6226
| 35> C 	 5.99229 	 24.5007 	 45.2006
| 36> H 	 6.18114 	 25.4161 	 44.6898
| 37> H 	 5.01738 	 24.8079 	 45.6012
| 38> H 	 5.83851 	 23.7274 	 44.4479
| 39> H 	 13.3291 	 23.1802 	 49.0967
| 40> H 	 9.12417 	 28.9968 	 44.8363
| 41> *
| 42>
| 43>                          ****END OF INPUT****

CARTESIAN COORDINATES (ANGSTROEM)
---------------------------------
  S     12.237200   25.349600   48.191400
  C     12.530500   23.646800   48.516400
  C     11.600800   22.800200   47.879900
  C     10.534600   23.556600   47.316000
  C     10.735800   24.949400   47.315200
  H      9.641910   23.123500   46.933700
  C     11.410000   21.311800   48.125200
  H     11.386900   20.945200   47.116200
  H     10.417400   21.219600   48.620100
  C     12.535700   20.652400   48.937500
  H     13.524700   20.976400   48.552100
  H     12.515000   20.911900   49.944000
  C     12.401500   19.154500   48.958300
  H     12.294700   18.585200   47.979400
  H     13.276100   18.700200   49.601800
  H     11.401900   18.894200   49.332900
  S     10.806200   27.439000   46.057700
  C      9.264400   28.115000   45.447600
  C      8.176220   27.310600   45.814600
  C      8.595630   26.113500   46.481900
  C      9.945250   26.040400   46.697400
  H      7.162570   27.645200   45.548000
  C      7.532730   25.233700   47.092900
  H      6.677150   25.864900   47.287900
  H      7.837570   24.808100   48.052200
  C      7.041530   24.127700   46.209000
  H      6.659460   23.345900   46.835800
  H      7.741300   23.568800   45.622600
  C      5.992290   24.500700   45.200600
  H      6.181140   25.416100   44.689800
  H      5.017380   24.807900   45.601200
  H      5.838510   23.727400   44.447900
  H     13.329100   23.180200   49.096700
  H      9.124170   28.996800   44.836300

 Total Charge           Charge          ....    0
 Multiplicity           Mult            ....    1
 Number of Electrons    NEL             ....  134
 Basis Dimension        Dim             ....  322

ORBITAL ENERGIES
----------------

  NO   OCC          E(Eh)            E(eV)
   0   2.0000     -88.969545     -2420.9844
   1   2.0000     -88.969486     -2420.9828
   2   2.0000     -10.337373      -281.2942
   3   2.0000     -10.330375      -281.1038
   4   2.0000     -10.322676      -280.8943
   5   2.0000     -10.316791      -280.7342
   6   2.0000     -10.301173      -280.3092
   7   2.0000     -10.300852      -280.3004
   8   2.0000     -10.299840      -280.2729
   9   2.0000     -10.297229      -280.2018
  10   2.0000     -10.294623      -280.1309
  11   2.0000     -10.291864      -280.0558
  12   2.0000     -10.289467      -279.9906
  13   2.0000     -10.287586      -279.9395
  14   2.0000     -10.278696      -279.6976
  15   2.0000     -10.272616      -279.5321
  16   2.0000      -8.083242      -219.9562
  17   2.0000      -8.083199      -219.9550
  18   2.0000      -6.041887      -164.4081
  19   2.0000      -6.041795      -164.4056
  20   2.0000      -6.037991      -164.3021
  21   2.0000      -6.037902      -164.2997
  22   2.0000      -6.033905      -164.1909
  23   2.0000      -6.033803      -164.1881
  24   2.0000      -1.000893       -27.2357
  25   2.0000      -0.978348       -26.6222
  26   2.0000      -0.918618       -24.9969
  27   2.0000      -0.915484       -24.9116
  28   2.0000      -0.865417       -23.5492
  29   2.0000      -0.854772       -23.2595
  30   2.0000      -0.848180       -23.0801
  31   2.0000      -0.811895       -22.0928
  32   2.0000      -0.784888       -21.3579
  33   2.0000      -0.769707       -20.9448
  34   2.0000      -0.716496       -19.4969
  35   2.0000      -0.707157       -19.2427
  36   2.0000      -0.689513       -18.7626
  37   2.0000      -0.665780       -18.1168
  38   2.0000      -0.632868       -17.2212
  39   2.0000      -0.615524       -16.7492
  40   2.0000      -0.597598       -16.2615
  41   2.0000      -0.577976       -15.7275
  42   2.0000      -0.563908       -15.3447
  43   2.0000      -0.557542       -15.1715
  44   2.0000      -0.537474       -14.6254
  45   2.0000      -0.527297       -14.3485
  46   2.0000      -0.526414       -14.3244
  47   2.0000      -0.508069       -13.8253
  48   2.0000      -0.500463       -13.6183
  49   2.0000      -0.498620       -13.5681
  50   2.0000      -0.494481       -13.4555
  51   2.0000      -0.481550       -13.1037
  52   2.0000      -0.471584       -12.8324
  53   2.0000      -0.468318       -12.7436
  54   2.0000      -0.458746       -12.4831
  55   2.0000      -0.450336       -12.2543
  56   2.0000      -0.444655       -12.0997
  57   2.0000      -0.440610       -11.9896
  58   2.0000      -0.431178       -11.7329
  59   2.0000      -0.424230       -11.5439
  60   2.0000      -0.422010       -11.4835
  61   2.0000      -0.419681       -11.4201
  62   2.0000      -0.405666       -11.0387
  63   2.0000      -0.353294        -9.6136
  64   2.0000      -0.334385        -9.0991
  65   2.0000      -0.330304        -8.9880
  66   2.0000      -0.282942        -7.6993
  67   0.0000       0.022985         0.6254
  68   0.0000       0.070411         1.9160
  69   0.0000       0.098881         2.6907
  70   0.0000       0.117978         3.2103
  71   0.0000       0.128584         3.4989

MULLIKEN ATOMIC CHARGES
-----------------------
   0 S :    0.106417
   1 C :   -0.113460
   2 C :   -0.106419
   3 C :    0.016490
   4 C :   -0.127135
   5 H :   -0.014919
   6 C :    0.043797
   7 H :    0.035250
   8 H :    0.051344
   9 C :   -0.056521
  10 H :    0.037920
  11 H :    0.023412
  12 C :   -0.083661
  13 H :    0.033022
  14 H :    0.056658
  15 H :    0.021083
  16 S :    0.102687
  17 C :   -0.098684
  18 C :   -0.043027
  19 C :   -0.038511
  20 C :   -0.113202
  21 H :    0.031847
  22 C :    0.062875
  23 H :    0.020799
  24 H :    0.032269
  25 C :   -0.048941
  26 H :    0.014874
  27 H :    0.029856
  28 C :   -0.037928
  29 H :    0.006133
  30 H :    0.013465
  31 H :    0.034437
  32 H :    0.050765
  33 H :    0.057009
Sum of atomic charges:   -0.0000000

LOEWDIN ATOMIC CHARGES
----------------------
   0 S :    0.390141
   1 C :   -0.204262
   2 C :   -0.064805
   3 C :   -0.061491
   4 C :   -0.172589
   5 H :    0.023045
   6 C :   -0.028493
   7 H :    0.033834
   8 H :    0.041046
   9 C :   -0.045707
  10 H :    0.027520
  11 H :    0.020140
  12 C :   -0.078956
  13 H :    0.028045
  14 H :    0.040245
  15 H :    0.023592
  16 S :    0.384247
  17 C :   -0.175082
  18 C :   -0.068160
  19 C :   -0.060513
  20 C :   -0.190165
  21 H :    0.035474
  22 C :   -0.025021
  23 H :    0.032951
  24 H :    0.033286
  25 C :   -0.046417
  26 H :    0.023097
  27 H :    0.022755
  28 C :   -0.067234
  29 H :    0.018512
  30 H :    0.022151
  31 H :    0.028549
  32 H :    0.029773
  33 H :    0.030490

  Mayer bond orders larger than 0.100000
B(  0-S ,  1-C ) :   1.1301 B(  0-S ,  4-C ) :   1.1386 B(  1-C ,  2-C ) :   1.6186
B(  1-C ,  4-C ) :   0.1016 B(  1-C , 32-H ) :   0.9542 B(  2-C ,  3-C ) :   1.2560
B(  2-C ,  6-C ) :   1.0061 B(  3-C ,  4-C ) :   1.5628 B(  3-C ,  5-H ) :   0.9956
B(  4-C , 20-C ) :   1.0468 B(  6-C ,  7-H ) :   0.9313 B(  6-C ,  8-H ) :   0.9447
B(  6-C ,  9-C ) :   1.0882 B(  9-C , 10-H ) :   0.9507 B(  9-C , 11-H ) :   0.9437
B(  9-C , 12-C ) :   1.0828 B( 12-C , 13-H ) :   0.9751 B( 12-C , 14-H ) :   0.9713
B( 12-C , 15-H ) :   0.9679 B( 16-S , 17-C ) :   1.1384 B( 16-S , 20-C ) :   1.1194
B( 17-C , 18-C ) :   1.6307 B( 17-C , 33-H ) :   0.9666 B( 18-C , 19-C ) :   1.2249
B( 18-C , 21-H ) :   0.9809 B( 19-C , 20-C ) :   1.6307 B( 19-C , 22-C ) :   1.0389
B( 22-C , 23-H ) :   0.9417 B( 22-C , 24-H ) :   0.9383 B( 22-C , 25-C ) :   1.0623
B( 25-C , 26-H ) :   0.9507 B( 25-C , 27-H ) :   0.9515 B( 25-C , 28-C ) :   1.0845
B( 28-C , 29-H ) :   0.9697 B( 28-C , 30-H ) :   0.9682 B( 28-C , 31-H ) :   0.9736

Dispersion correction           -0.013962082
FINAL SINGLE POINT ENERGY     -1339.867924937136

DIPOLE MOMENT
-------------
                                X             Y             Z
Electronic contribution:     13.38976      26.21667      -1.36850
Nuclear contribution   :    -13.95154     -26.72087       1.41530
                        -----------------------------------------
Total Dipole Moment    :     -0.56179      -0.50420       0.04680
                        -----------------------------------------
Magnitude (a.u.)       :      0.75632
Magnitude (Debye)      :      1.92240

Rotational constants in cm-1:     0.020720     0.007836     0.005889
Rotational constants in MHz :   621.180180   234.909285   176.551746

                             ****ORCA TERMINATED NORMALLY****
TOTAL RUN TIME: 0 days 0 hours 0 minutes 34 seconds 919 msec
