                         Program Version 4.2.1 -  RELEASE  -
|  1> ! wB97X-D3 SP def2-SVP
|  2> %pal
|  3> nprocs 16
|  4> end
|  5>
|  6> * xyz 0 1
|  7> S 	 -68.9598 	 38.938 	 138.127
|  8> C 	 -67.623 	 39.8908 	 138.712
|  9> C 	 -66.4254 	 39.2039 	 138.741
| 10> C 	 -66.6205 	 37.8867 	 138.284
| 11> C 	 -67.9273 	 37.5564 	 137.929
| 12> H 	 -65.9999 	 37.1254 	 138.146
| 13> C 	 -65.0222 	 39.7218 	 139.038
| 14> H 	 -65.0416 	 40.7845 	 139.192
| 15> H 	 -64.3865 	 39.4217 	 138.206
| 16> C 	 -64.314 	 39.1841 	 140.287
| 17> H 	 -63.2025 	 39.3709 	 140.243
| 18> H 	 -64.6587 	 39.7746 	 141.116
| 19> C 	 -64.4549 	 37.6307 	 140.586
| 20> H 	 -64.2551 	 36.9668 	 139.768
| 21> H 	 -63.8286 	 37.3838 	 141.443
| 22> H 	 -65.409 	 37.4135 	 140.91
| 23> S 	 -70.1993 	 35.9429 	 137.945
| 24> C 	 -70.1712 	 34.4288 	 137.127
| 25> C 	 -68.9499 	 34.133 	 136.481
| 26> C 	 -68.0612 	 35.2119 	 136.589
| 27> C 	 -68.5064 	 36.2759 	 137.385
| 28> H 	 -68.7979 	 33.1616 	 135.932
| 29> C 	 -66.6307 	 34.9623 	 136.121
| 30> H 	 -66.233 	 35.8618 	 135.776
| 31> H 	 -66.5817 	 34.4008 	 135.198
| 32> C 	 -65.6949 	 34.2434 	 137.063
| 33> H 	 -65.3253 	 34.9982 	 137.764
| 34> H 	 -64.7891 	 33.9508 	 136.546
| 35> C 	 -66.2672 	 33.046 	 137.816
| 36> H 	 -67.0946 	 33.1825 	 138.509
| 37> H 	 -65.5504 	 32.5061 	 138.391
| 38> H 	 -66.5428 	 32.3306 	 137.006
| 39> H 	 -67.6553 	 40.8686 	 139.1
| 40> H 	 -70.9971 	 33.7474 	 137.2
| 41> *
| 42>
| 43>                          ****END OF INPUT****

CARTESIAN COORDINATES (ANGSTROEM)
---------------------------------
  S    -68.959800   38.938000  138.127000
  C    -67.623000   39.890800  138.712000
  C    -66.425400   39.203900  138.741000
  C    -66.620500   37.886700  138.284000
  C    -67.927300   37.556400  137.929000
  H    -65.999900   37.125400  138.146000
  C    -65.022200   39.721800  139.038000
  H    -65.041600   40.784500  139.192000
  H    -64.386500   39.421700  138.206000
  C    -64.314000   39.184100  140.287000
  H    -63.202500   39.370900  140.243000
  H    -64.658700   39.774600  141.116000
  C    -64.454900   37.630700  140.586000
  H    -64.255100   36.966800  139.768000
  H    -63.828600   37.383800  141.443000
  H    -65.409000   37.413500  140.910000
  S    -70.199300   35.942900  137.945000
  C    -70.171200   34.428800  137.127000
  C    -68.949900   34.133000  136.481000
  C    -68.061200   35.211900  136.589000
  C    -68.506400   36.275900  137.385000
  H    -68.797900   33.161600  135.932000
  C    -66.630700   34.962300  136.121000
  H    -66.233000   35.861800  135.776000
  H    -66.581700   34.400800  135.198000
  C    -65.694900   34.243400  137.063000
  H    -65.325300   34.998200  137.764000
  H    -64.789100   33.950800  136.546000
  C    -66.267200   33.046000  137.816000
  H    -67.094600   33.182500  138.509000
  H    -65.550400   32.506100  138.391000
  H    -66.542800   32.330600  137.006000
  H    -67.655300   40.868600  139.100000
  H    -70.997100   33.747400  137.200000

 Total Charge           Charge          ....    0
 Multiplicity           Mult            ....    1
 Number of Electrons    NEL             ....  134
 Basis Dimension        Dim             ....  322

ORBITAL ENERGIES
----------------

  NO   OCC          E(Eh)            E(eV)
   0   2.0000     -88.969187     -2420.9747
   1   2.0000     -88.967689     -2420.9339
   2   2.0000     -10.338368      -281.3213
   3   2.0000     -10.332124      -281.1514
   4   2.0000     -10.319110      -280.7973
   5   2.0000     -10.309418      -280.5335
   6   2.0000     -10.306556      -280.4557
   7   2.0000     -10.300630      -280.2944
   8   2.0000     -10.299715      -280.2695
   9   2.0000     -10.293057      -280.0883
  10   2.0000     -10.291118      -280.0356
  11   2.0000     -10.287139      -279.9273
  12   2.0000     -10.284478      -279.8549
  13   2.0000     -10.281408      -279.7713
  14   2.0000     -10.276262      -279.6313
  15   2.0000     -10.270723      -279.4806
  16   2.0000      -8.083490      -219.9630
  17   2.0000      -8.082564      -219.9377
  18   2.0000      -6.041841      -164.4069
  19   2.0000      -6.041082      -164.3862
  20   2.0000      -6.038077      -164.3044
  21   2.0000      -6.037029      -164.2759
  22   2.0000      -6.034425      -164.2050
  23   2.0000      -6.033339      -164.1755
  24   2.0000      -1.005007       -27.3476
  25   2.0000      -0.984576       -26.7917
  26   2.0000      -0.915112       -24.9015
  27   2.0000      -0.908533       -24.7224
  28   2.0000      -0.861887       -23.4531
  29   2.0000      -0.852588       -23.2001
  30   2.0000      -0.843843       -22.9621
  31   2.0000      -0.814199       -22.1555
  32   2.0000      -0.793757       -21.5992
  33   2.0000      -0.780926       -21.2501
  34   2.0000      -0.707445       -19.2505
  35   2.0000      -0.702520       -19.1166
  36   2.0000      -0.689638       -18.7660
  37   2.0000      -0.665801       -18.1174
  38   2.0000      -0.649176       -17.6650
  39   2.0000      -0.616084       -16.7645
  40   2.0000      -0.595007       -16.1910
  41   2.0000      -0.572236       -15.5713
  42   2.0000      -0.563345       -15.3294
  43   2.0000      -0.551657       -15.0113
  44   2.0000      -0.549612       -14.9557
  45   2.0000      -0.534915       -14.5558
  46   2.0000      -0.515731       -14.0337
  47   2.0000      -0.506816       -13.7912
  48   2.0000      -0.498570       -13.5668
  49   2.0000      -0.494638       -13.4598
  50   2.0000      -0.490617       -13.3504
  51   2.0000      -0.479832       -13.0569
  52   2.0000      -0.476260       -12.9597
  53   2.0000      -0.465726       -12.6730
  54   2.0000      -0.460207       -12.5229
  55   2.0000      -0.451649       -12.2900
  56   2.0000      -0.447629       -12.1806
  57   2.0000      -0.438533       -11.9331
  58   2.0000      -0.435118       -11.8402
  59   2.0000      -0.430176       -11.7057
  60   2.0000      -0.420797       -11.4505
  61   2.0000      -0.414984       -11.2923
  62   2.0000      -0.405726       -11.0404
  63   2.0000      -0.349574        -9.5124
  64   2.0000      -0.337763        -9.1910
  65   2.0000      -0.332904        -9.0588
  66   2.0000      -0.284649        -7.7457
  67   0.0000       0.024558         0.6683
  68   0.0000       0.072532         1.9737
  69   0.0000       0.100988         2.7480
  70   0.0000       0.115953         3.1552
  71   0.0000       0.130697         3.5565

MULLIKEN ATOMIC CHARGES
-----------------------
   0 S :    0.113514
   1 C :   -0.097866
   2 C :   -0.070231
   3 C :    0.093295
   4 C :   -0.132063
   5 H :   -0.113878
   6 C :    0.108993
   7 H :    0.016890
   8 H :    0.037096
   9 C :   -0.109975
  10 H :    0.037352
  11 H :    0.023344
  12 C :   -0.028979
  13 H :    0.031002
  14 H :    0.029829
  15 H :    0.023313
  16 S :    0.097416
  17 C :   -0.087978
  18 C :   -0.060413
  19 C :   -0.037719
  20 C :   -0.137647
  21 H :    0.046118
  22 C :    0.085446
  23 H :    0.003470
  24 H :    0.008689
  25 C :   -0.048714
  26 H :    0.019007
  27 H :    0.024899
  28 C :   -0.045346
  29 H :    0.053246
  30 H :    0.022019
  31 H :    0.019224
  32 H :    0.022615
  33 H :    0.054031
Sum of atomic charges:   -0.0000000

LOEWDIN ATOMIC CHARGES
----------------------
   0 S :    0.414597
   1 C :   -0.194472
   2 C :   -0.058750
   3 C :   -0.052287
   4 C :   -0.189546
   5 H :   -0.000069
   6 C :   -0.027623
   7 H :    0.029300
   8 H :    0.035910
   9 C :   -0.037409
  10 H :    0.029075
  11 H :    0.019356
  12 C :   -0.061960
  13 H :    0.019924
  14 H :    0.029347
  15 H :    0.015848
  16 S :    0.397712
  17 C :   -0.187059
  18 C :   -0.074520
  19 C :   -0.056729
  20 C :   -0.177643
  21 H :    0.044738
  22 C :   -0.032148
  23 H :    0.022635
  24 H :    0.029715
  25 C :   -0.037721
  26 H :    0.016685
  27 H :    0.027536
  28 C :   -0.066579
  29 H :    0.030430
  30 H :    0.022702
  31 H :    0.026883
  32 H :    0.019330
  33 H :    0.022795

  Mayer bond orders larger than 0.100000
B(  0-S ,  1-C ) :   1.1425 B(  0-S ,  4-C ) :   1.1569 B(  1-C ,  2-C ) :   1.6158
B(  1-C , 32-H ) :   0.9648 B(  2-C ,  3-C ) :   1.2198 B(  2-C ,  6-C ) :   1.0248
B(  3-C ,  4-C ) :   1.5797 B(  3-C ,  5-H ) :   1.0189 B(  4-C , 20-C ) :   1.0190
B(  6-C ,  7-H ) :   0.9397 B(  6-C ,  8-H ) :   0.9384 B(  6-C ,  9-C ) :   1.0721
B(  9-C , 10-H ) :   0.9604 B(  9-C , 11-H ) :   0.9569 B(  9-C , 12-C ) :   1.0838
B( 12-C , 13-H ) :   0.9749 B( 12-C , 14-H ) :   0.9713 B( 12-C , 15-H ) :   0.9681
B( 16-S , 17-C ) :   1.1809 B( 16-S , 20-C ) :   1.1368 B( 17-C , 18-C ) :   1.5731
B( 17-C , 20-C ) :   0.1097 B( 17-C , 33-H ) :   0.9683 B( 18-C , 19-C ) :   1.2549
B( 18-C , 21-H ) :   0.9840 B( 19-C , 20-C ) :   1.5817 B( 19-C , 22-C ) :   1.0537
B( 22-C , 23-H ) :   0.9247 B( 22-C , 24-H ) :   0.9283 B( 22-C , 25-C ) :   1.0778
B( 25-C , 26-H ) :   0.9507 B( 25-C , 27-H ) :   0.9480 B( 25-C , 28-C ) :   1.0888
B( 28-C , 29-H ) :   0.9686 B( 28-C , 30-H ) :   0.9699 B( 28-C , 31-H ) :   0.9708

Dispersion correction           -0.015394556
FINAL SINGLE POINT ENERGY     -1339.863360738952

DIPOLE MOMENT
-------------
                                X             Y             Z
Electronic contribution:    -26.67325       8.95774      -5.27661
Nuclear contribution   :     27.29534      -9.28914       5.32526
                        -----------------------------------------
Total Dipole Moment    :      0.62209      -0.33140       0.04865
                        -----------------------------------------
Magnitude (a.u.)       :      0.70653
Magnitude (Debye)      :      1.79587

Rotational constants in cm-1:     0.018632     0.009983     0.007221
Rotational constants in MHz :   558.565913   299.293289   216.482305

                             ****ORCA TERMINATED NORMALLY****
TOTAL RUN TIME: 0 days 0 hours 0 minutes 36 seconds 996 msec
