                         Program Version 4.2.1 -  RELEASE  -
|  1> ! wB97X-D3 SP def2-SVP
|  2> %pal
|  3> nprocs 16
|  4> end
|  5>
|  6> * xyz 0 1
|  7> S 	 12.2708 	 -14.7854 	 66.7339
|  8> C 	 11.0119 	 -14.0043 	 65.8484
|  9> C 	 10.0866 	 -13.3103 	 66.6334
| 10> C 	 10.428 	 -13.4648 	 68.0073
| 11> C 	 11.5569 	 -14.2483 	 68.2698
| 12> H 	 9.88261 	 -13.0099 	 68.8707
| 13> C 	 8.88528 	 -12.5868 	 66.0866
| 14> H 	 8.5418 	 -12.8657 	 65.0594
| 15> H 	 9.29245 	 -11.6325 	 65.8597
| 16> C 	 7.62335 	 -12.488 	 66.927
| 17> H 	 7.96852 	 -12.0136 	 67.8553
| 18> H 	 6.85824 	 -11.8615 	 66.4209
| 19> C 	 6.98305 	 -13.7903 	 67.4167
| 20> H 	 6.07773 	 -13.6985 	 67.9418
| 21> H 	 6.80889 	 -14.3259 	 66.4546
| 22> H 	 7.64689 	 -14.3896 	 68.0692
| 23> S 	 13.9175 	 -14.7168 	 69.5211
| 24> C 	 13.9614 	 -14.9269 	 71.2523
| 25> C 	 12.6985 	 -14.893 	 71.7628
| 26> C 	 11.67 	 -14.794 	 70.7464
| 27> C 	 12.2093 	 -14.4848 	 69.5131
| 28> H 	 12.5671 	 -15.1385 	 72.813
| 29> C 	 10.182 	 -14.9677 	 71.0642
| 30> H 	 9.7345 	 -14.2952 	 70.3951
| 31> H 	 10.141 	 -14.604 	 72.0337
| 32> C 	 9.50149 	 -16.3537 	 70.8162
| 33> H 	 8.48576 	 -16.6087 	 71.1039
| 34> H 	 10.0971 	 -17.0512 	 71.3232
| 35> C 	 9.49878 	 -16.8125 	 69.3575
| 36> H 	 10.5008 	 -17.0716 	 68.9108
| 37> H 	 8.83395 	 -16.1357 	 68.7915
| 38> H 	 8.90595 	 -17.6931 	 69.3327
| 39> H 	 10.9221 	 -14.1533 	 64.7692
| 40> H 	 14.9213 	 -15.0639 	 71.6867
| 41> *
| 42>
| 43>                          ****END OF INPUT****

CARTESIAN COORDINATES (ANGSTROEM)
---------------------------------
  S     12.270800  -14.785400   66.733900
  C     11.011900  -14.004300   65.848400
  C     10.086600  -13.310300   66.633400
  C     10.428000  -13.464800   68.007300
  C     11.556900  -14.248300   68.269800
  H      9.882610  -13.009900   68.870700
  C      8.885280  -12.586800   66.086600
  H      8.541800  -12.865700   65.059400
  H      9.292450  -11.632500   65.859700
  C      7.623350  -12.488000   66.927000
  H      7.968520  -12.013600   67.855300
  H      6.858240  -11.861500   66.420900
  C      6.983050  -13.790300   67.416700
  H      6.077730  -13.698500   67.941800
  H      6.808890  -14.325900   66.454600
  H      7.646890  -14.389600   68.069200
  S     13.917500  -14.716800   69.521100
  C     13.961400  -14.926900   71.252300
  C     12.698500  -14.893000   71.762800
  C     11.670000  -14.794000   70.746400
  C     12.209300  -14.484800   69.513100
  H     12.567100  -15.138500   72.813000
  C     10.182000  -14.967700   71.064200
  H      9.734500  -14.295200   70.395100
  H     10.141000  -14.604000   72.033700
  C      9.501490  -16.353700   70.816200
  H      8.485760  -16.608700   71.103900
  H     10.097100  -17.051200   71.323200
  C      9.498780  -16.812500   69.357500
  H     10.500800  -17.071600   68.910800
  H      8.833950  -16.135700   68.791500
  H      8.905950  -17.693100   69.332700
  H     10.922100  -14.153300   64.769200
  H     14.921300  -15.063900   71.686700

 Total Charge           Charge          ....    0
 Multiplicity           Mult            ....    1
 Number of Electrons    NEL             ....  134
 Basis Dimension        Dim             ....  322

ORBITAL ENERGIES
----------------

  NO   OCC          E(Eh)            E(eV)
   0   2.0000     -88.967855     -2420.9384
   1   2.0000     -88.960867     -2420.7483
   2   2.0000     -10.330039      -281.0947
   3   2.0000     -10.322087      -280.8783
   4   2.0000     -10.314929      -280.6835
   5   2.0000     -10.313190      -280.6362
   6   2.0000     -10.306050      -280.4419
   7   2.0000     -10.304067      -280.3879
   8   2.0000     -10.300078      -280.2794
   9   2.0000     -10.295744      -280.1614
  10   2.0000     -10.293897      -280.1112
  11   2.0000     -10.290929      -280.0304
  12   2.0000     -10.284480      -279.8549
  13   2.0000     -10.280756      -279.7536
  14   2.0000     -10.277874      -279.6752
  15   2.0000     -10.271085      -279.4904
  16   2.0000      -8.082385      -219.9329
  17   2.0000      -8.076871      -219.7828
  18   2.0000      -6.040841      -164.3797
  19   2.0000      -6.036897      -164.2723
  20   2.0000      -6.035334      -164.2298
  21   2.0000      -6.033251      -164.1731
  22   2.0000      -6.031265      -164.1191
  23   2.0000      -6.027545      -164.0178
  24   2.0000      -1.011155       -27.5149
  25   2.0000      -0.985033       -26.8041
  26   2.0000      -0.915811       -24.9205
  27   2.0000      -0.907321       -24.6895
  28   2.0000      -0.874346       -23.7922
  29   2.0000      -0.853946       -23.2371
  30   2.0000      -0.845033       -22.9945
  31   2.0000      -0.817859       -22.2551
  32   2.0000      -0.787917       -21.4403
  33   2.0000      -0.775428       -21.1005
  34   2.0000      -0.708891       -19.2899
  35   2.0000      -0.697630       -18.9835
  36   2.0000      -0.691580       -18.8189
  37   2.0000      -0.663272       -18.0486
  38   2.0000      -0.637890       -17.3579
  39   2.0000      -0.626302       -17.0425
  40   2.0000      -0.596040       -16.2191
  41   2.0000      -0.567220       -15.4348
  42   2.0000      -0.560696       -15.2573
  43   2.0000      -0.558524       -15.1982
  44   2.0000      -0.550479       -14.9793
  45   2.0000      -0.539786       -14.6883
  46   2.0000      -0.516281       -14.0487
  47   2.0000      -0.506320       -13.7777
  48   2.0000      -0.501951       -13.6588
  49   2.0000      -0.496048       -13.4982
  50   2.0000      -0.492538       -13.4026
  51   2.0000      -0.482936       -13.1414
  52   2.0000      -0.473654       -12.8888
  53   2.0000      -0.466120       -12.6838
  54   2.0000      -0.455456       -12.3936
  55   2.0000      -0.452284       -12.3073
  56   2.0000      -0.443878       -12.0785
  57   2.0000      -0.437325       -11.9002
  58   2.0000      -0.436260       -11.8712
  59   2.0000      -0.428266       -11.6537
  60   2.0000      -0.414218       -11.2715
  61   2.0000      -0.411704       -11.2030
  62   2.0000      -0.400026       -10.8853
  63   2.0000      -0.359477        -9.7819
  64   2.0000      -0.334177        -9.0934
  65   2.0000      -0.325981        -8.8704
  66   2.0000      -0.280094        -7.6218
  67   0.0000       0.022041         0.5998
  68   0.0000       0.078097         2.1251
  69   0.0000       0.104117         2.8332
  70   0.0000       0.117263         3.1909
  71   0.0000       0.134840         3.6692

MULLIKEN ATOMIC CHARGES
-----------------------
   0 S :    0.111416
   1 C :   -0.138438
   2 C :   -0.061613
   3 C :   -0.026349
   4 C :   -0.140862
   5 H :    0.043999
   6 C :    0.079945
   7 H :    0.019276
   8 H :    0.033552
   9 C :   -0.095457
  10 H :    0.021987
  11 H :    0.042081
  12 C :   -0.036893
  13 H :    0.030371
  14 H :    0.028518
  15 H :    0.029760
  16 S :    0.084677
  17 C :   -0.089426
  18 C :   -0.007698
  19 C :   -0.135559
  20 C :   -0.122052
  21 H :    0.024584
  22 C :    0.188729
  23 H :   -0.027484
  24 H :    0.005422
  25 C :   -0.031978
  26 H :    0.027046
  27 H :    0.006776
  28 C :   -0.061572
  29 H :    0.059623
  30 H :    0.021855
  31 H :    0.009173
  32 H :    0.053332
  33 H :    0.053259
Sum of atomic charges:    0.0000000

LOEWDIN ATOMIC CHARGES
----------------------
   0 S :    0.404959
   1 C :   -0.204094
   2 C :   -0.060156
   3 C :   -0.069506
   4 C :   -0.181258
   5 H :    0.036217
   6 C :   -0.037266
   7 H :    0.033263
   8 H :    0.036892
   9 C :   -0.045644
  10 H :    0.019262
  11 H :    0.032424
  12 C :   -0.064441
  13 H :    0.020270
  14 H :    0.029062
  15 H :    0.024262
  16 S :    0.407660
  17 C :   -0.174689
  18 C :   -0.072909
  19 C :   -0.053882
  20 C :   -0.205867
  21 H :    0.033787
  22 C :   -0.018256
  23 H :    0.017994
  24 H :    0.022252
  25 C :   -0.035248
  26 H :    0.029452
  27 H :    0.014911
  28 C :   -0.067978
  29 H :    0.033564
  30 H :    0.024011
  31 H :    0.020118
  32 H :    0.028045
  33 H :    0.022790

  Mayer bond orders larger than 0.100000
B(  0-S ,  1-C ) :   1.1539 B(  0-S ,  4-C ) :   1.1392 B(  1-C ,  2-C ) :   1.5910
B(  1-C ,  4-C ) :   0.1037 B(  1-C , 32-H ) :   0.9653 B(  2-C ,  3-C ) :   1.2664
B(  2-C ,  6-C ) :   1.0021 B(  3-C ,  4-C ) :   1.5609 B(  3-C ,  5-H ) :   0.9698
B(  4-C , 20-C ) :   1.0989 B(  6-C ,  7-H ) :   0.9418 B(  6-C ,  8-H ) :   0.9262
B(  6-C ,  9-C ) :   1.0835 B(  9-C , 10-H ) :   0.9477 B(  9-C , 11-H ) :   0.9535
B(  9-C , 12-C ) :   1.0805 B( 12-C , 13-H ) :   0.9690 B( 12-C , 14-H ) :   0.9758
B( 12-C , 15-H ) :   0.9704 B( 16-S , 17-C ) :   1.1531 B( 16-S , 20-C ) :   1.1374
B( 17-C , 18-C ) :   1.6002 B( 17-C , 33-H ) :   0.9769 B( 18-C , 19-C ) :   1.2363
B( 18-C , 21-H ) :   0.9892 B( 19-C , 20-C ) :   1.5777 B( 19-C , 22-C ) :   1.0208
B( 22-C , 23-H ) :   0.9267 B( 22-C , 24-H ) :   0.9264 B( 22-C , 25-C ) :   1.0519
B( 25-C , 26-H ) :   0.9631 B( 25-C , 27-H ) :   0.9531 B( 25-C , 28-C ) :   1.0938
B( 28-C , 29-H ) :   0.9687 B( 28-C , 30-H ) :   0.9710 B( 28-C , 31-H ) :   0.9645

Dispersion correction           -0.016490850
FINAL SINGLE POINT ENERGY     -1339.864386158961

DIPOLE MOMENT
-------------
                                X             Y             Z
Electronic contribution:     28.29760       0.96184      -1.75183
Nuclear contribution   :    -28.87762      -0.94965       1.91509
                        -----------------------------------------
Total Dipole Moment    :     -0.58001       0.01218       0.16327
                        -----------------------------------------
Magnitude (a.u.)       :      0.60268
Magnitude (Debye)      :      1.53188

Rotational constants in cm-1:     0.020426     0.010184     0.007910
Rotational constants in MHz :   612.354843   305.319191   237.140141

                             ****ORCA TERMINATED NORMALLY****
TOTAL RUN TIME: 0 days 0 hours 0 minutes 37 seconds 120 msec
