                         Program Version 4.2.1 -  RELEASE  -
|  1> ! wB97X-D3 SP def2-SVP
|  2> %pal
|  3> nprocs 16
|  4> end
|  5>
|  6> * xyz 0 1
|  7> S 	 -1.86689 	 19.712 	 51.2388
|  8> C 	 -1.5337 	 18.7476 	 49.8487
|  9> C 	 -0.834358 	 19.4694 	 48.9267
| 10> C 	 -0.586078 	 20.8376 	 49.3133
| 11> C 	 -1.18572 	 21.1703 	 50.5135
| 12> H 	 -0.0610293 	 21.5605 	 48.7173
| 13> C 	 -0.346983 	 18.9032 	 47.5885
| 14> H 	 -0.546375 	 19.6748 	 46.8731
| 15> H 	 -0.858056 	 17.9902 	 47.3194
| 16> C 	 1.13594 	 18.6232 	 47.5524
| 17> H 	 1.62947 	 19.5321 	 47.8795
| 18> H 	 1.34675 	 17.7426 	 48.2501
| 19> C 	 1.60355 	 18.4098 	 46.0517
| 20> H 	 2.6846 	 18.4491 	 46.0797
| 21> H 	 1.2397 	 17.4683 	 45.7915
| 22> H 	 1.23168 	 19.252 	 45.4569
| 23> S 	 -2.1217 	 23.8002 	 50.914
| 24> C 	 -1.45392 	 24.7074 	 52.274
| 25> C 	 -0.232638 	 24.1683 	 52.725
| 26> C 	 -0.0567049 	 22.8385 	 52.1728
| 27> C 	 -1.01641 	 22.4536 	 51.2323
| 28> H 	 0.416678 	 24.6619 	 53.4599
| 29> C 	 1.15643 	 22.0308 	 52.5958
| 30> H 	 1.87651 	 21.8581 	 51.8078
| 31> H 	 0.844774 	 21.0312 	 52.869
| 32> C 	 1.91544 	 22.5312 	 53.8905
| 33> H 	 2.27352 	 23.5302 	 53.7601
| 34> H 	 2.67025 	 21.7194 	 54.0941
| 35> C 	 1.06611 	 22.5513 	 55.1235
| 36> H 	 1.71019 	 22.5969 	 56.0214
| 37> H 	 0.43772 	 21.6692 	 55.1943
| 38> H 	 0.478557 	 23.4676 	 55.1564
| 39> H 	 -1.811 	 17.7315 	 49.6105
| 40> H 	 -1.86833 	 25.6265 	 52.761
| 41> *
| 42>
| 43>                          ****END OF INPUT****

CARTESIAN COORDINATES (ANGSTROEM)
---------------------------------
  S     -1.866890   19.712000   51.238800
  C     -1.533700   18.747600   49.848700
  C     -0.834358   19.469400   48.926700
  C     -0.586078   20.837600   49.313300
  C     -1.185720   21.170300   50.513500
  H     -0.061029   21.560500   48.717300
  C     -0.346983   18.903200   47.588500
  H     -0.546375   19.674800   46.873100
  H     -0.858056   17.990200   47.319400
  C      1.135940   18.623200   47.552400
  H      1.629470   19.532100   47.879500
  H      1.346750   17.742600   48.250100
  C      1.603550   18.409800   46.051700
  H      2.684600   18.449100   46.079700
  H      1.239700   17.468300   45.791500
  H      1.231680   19.252000   45.456900
  S     -2.121700   23.800200   50.914000
  C     -1.453920   24.707400   52.274000
  C     -0.232638   24.168300   52.725000
  C     -0.056705   22.838500   52.172800
  C     -1.016410   22.453600   51.232300
  H      0.416678   24.661900   53.459900
  C      1.156430   22.030800   52.595800
  H      1.876510   21.858100   51.807800
  H      0.844774   21.031200   52.869000
  C      1.915440   22.531200   53.890500
  H      2.273520   23.530200   53.760100
  H      2.670250   21.719400   54.094100
  C      1.066110   22.551300   55.123500
  H      1.710190   22.596900   56.021400
  H      0.437720   21.669200   55.194300
  H      0.478557   23.467600   55.156400
  H     -1.811000   17.731500   49.610500
  H     -1.868330   25.626500   52.761000

 Total Charge           Charge          ....    0
 Multiplicity           Mult            ....    1
 Number of Electrons    NEL             ....  134
 Basis Dimension        Dim             ....  322

ORBITAL ENERGIES
----------------

  NO   OCC          E(Eh)            E(eV)
   0   2.0000     -88.968004     -2420.9425
   1   2.0000     -88.966180     -2420.8928
   2   2.0000     -10.332054      -281.1495
   3   2.0000     -10.328612      -281.0558
   4   2.0000     -10.326359      -280.9945
   5   2.0000     -10.310320      -280.5581
   6   2.0000     -10.307949      -280.4935
   7   2.0000     -10.300787      -280.2987
   8   2.0000     -10.297024      -280.1963
   9   2.0000     -10.295602      -280.1576
  10   2.0000     -10.289436      -279.9898
  11   2.0000     -10.288509      -279.9646
  12   2.0000     -10.287626      -279.9405
  13   2.0000     -10.285900      -279.8936
  14   2.0000     -10.277956      -279.6774
  15   2.0000     -10.272118      -279.5185
  16   2.0000      -8.081943      -219.9209
  17   2.0000      -8.080739      -219.8881
  18   2.0000      -6.040591      -164.3729
  19   2.0000      -6.039342      -164.3389
  20   2.0000      -6.036576      -164.2636
  21   2.0000      -6.035219      -164.2267
  22   2.0000      -6.032578      -164.1548
  23   2.0000      -6.031432      -164.1236
  24   2.0000      -1.002366       -27.2758
  25   2.0000      -0.980979       -26.6938
  26   2.0000      -0.912522       -24.8310
  27   2.0000      -0.907993       -24.7078
  28   2.0000      -0.867161       -23.5966
  29   2.0000      -0.845321       -23.0024
  30   2.0000      -0.844509       -22.9802
  31   2.0000      -0.815261       -22.1844
  32   2.0000      -0.782069       -21.2812
  33   2.0000      -0.769805       -20.9475
  34   2.0000      -0.702403       -19.1134
  35   2.0000      -0.691118       -18.8063
  36   2.0000      -0.687834       -18.7169
  37   2.0000      -0.656704       -17.8698
  38   2.0000      -0.641291       -17.4504
  39   2.0000      -0.619046       -16.8451
  40   2.0000      -0.600962       -16.3530
  41   2.0000      -0.574360       -15.6291
  42   2.0000      -0.571461       -15.5503
  43   2.0000      -0.553471       -15.0607
  44   2.0000      -0.532702       -14.4956
  45   2.0000      -0.521313       -14.1856
  46   2.0000      -0.519750       -14.1431
  47   2.0000      -0.512213       -13.9380
  48   2.0000      -0.503421       -13.6988
  49   2.0000      -0.500114       -13.6088
  50   2.0000      -0.492697       -13.4070
  51   2.0000      -0.479094       -13.0368
  52   2.0000      -0.474284       -12.9059
  53   2.0000      -0.466062       -12.6822
  54   2.0000      -0.454295       -12.3620
  55   2.0000      -0.444633       -12.0991
  56   2.0000      -0.441754       -12.0207
  57   2.0000      -0.436782       -11.8854
  58   2.0000      -0.435983       -11.8637
  59   2.0000      -0.428317       -11.6551
  60   2.0000      -0.423726       -11.5302
  61   2.0000      -0.408214       -11.1081
  62   2.0000      -0.406214       -11.0536
  63   2.0000      -0.334883        -9.1126
  64   2.0000      -0.330630        -8.9969
  65   2.0000      -0.320220        -8.7136
  66   2.0000      -0.306745        -8.3470
  67   0.0000       0.040340         1.0977
  68   0.0000       0.051208         1.3934
  69   0.0000       0.106943         2.9101
  70   0.0000       0.125647         3.4190
  71   0.0000       0.128992         3.5100

MULLIKEN ATOMIC CHARGES
-----------------------
   0 S :    0.117345
   1 C :   -0.103369
   2 C :   -0.098668
   3 C :    0.047244
   4 C :   -0.152841
   5 H :    0.011383
   6 C :    0.084020
   7 H :    0.013887
   8 H :    0.012384
   9 C :   -0.125384
  10 H :    0.022323
  11 H :    0.043597
  12 C :   -0.011197
  13 H :    0.036545
  14 H :    0.025469
  15 H :    0.035847
  16 S :    0.117356
  17 C :   -0.110884
  18 C :   -0.049471
  19 C :   -0.027558
  20 C :   -0.187721
  21 H :    0.036673
  22 C :    0.090149
  23 H :    0.039027
  24 H :    0.014607
  25 C :   -0.105595
  26 H :    0.029877
  27 H :    0.043054
  28 C :   -0.049043
  29 H :    0.032298
  30 H :    0.033323
  31 H :    0.022032
  32 H :    0.039120
  33 H :    0.074170
Sum of atomic charges:    0.0000000

LOEWDIN ATOMIC CHARGES
----------------------
   0 S :    0.411893
   1 C :   -0.206141
   2 C :   -0.065391
   3 C :   -0.053512
   4 C :   -0.193730
   5 H :    0.029728
   6 C :   -0.030996
   7 H :    0.024811
   8 H :    0.024199
   9 C :   -0.040448
  10 H :    0.017590
  11 H :    0.030680
  12 C :   -0.052634
  13 H :    0.026383
  14 H :    0.015566
  15 H :    0.028006
  16 S :    0.397932
  17 C :   -0.185326
  18 C :   -0.074591
  19 C :   -0.047387
  20 C :   -0.207204
  21 H :    0.035583
  22 C :   -0.032932
  23 H :    0.032623
  24 H :    0.028443
  25 C :   -0.043198
  26 H :    0.016275
  27 H :    0.036232
  28 C :   -0.067726
  29 H :    0.028520
  30 H :    0.024903
  31 H :    0.018947
  32 H :    0.032484
  33 H :    0.040417

  Mayer bond orders larger than 0.100000
B(  0-S ,  1-C ) :   1.1338 B(  0-S ,  4-C ) :   1.1440 B(  1-C ,  2-C ) :   1.6346
B(  1-C , 32-H ) :   0.9651 B(  2-C ,  3-C ) :   1.2305 B(  2-C ,  6-C ) :   1.0247
B(  3-C ,  4-C ) :   1.5905 B(  3-C ,  5-H ) :   0.9944 B(  4-C , 20-C ) :   1.0196
B(  6-C ,  7-H ) :   0.9373 B(  6-C ,  8-H ) :   0.9428 B(  6-C ,  9-C ) :   1.0693
B(  9-C , 10-H ) :   0.9589 B(  9-C , 11-H ) :   0.9555 B(  9-C , 12-C ) :   1.0671
B( 12-C , 13-H ) :   0.9774 B( 12-C , 14-H ) :   0.9788 B( 12-C , 15-H ) :   0.9754
B( 16-S , 17-C ) :   1.1670 B( 16-S , 20-C ) :   1.1250 B( 17-C , 18-C ) :   1.6001
B( 17-C , 33-H ) :   0.9580 B( 18-C , 19-C ) :   1.2462 B( 18-C , 21-H ) :   0.9739
B( 19-C , 20-C ) :   1.6111 B( 19-C , 22-C ) :   1.0296 B( 22-C , 23-H ) :   0.9352
B( 22-C , 24-H ) :   0.9236 B( 22-C , 25-C ) :   1.0833 B( 25-C , 26-H ) :   0.9496
B( 25-C , 27-H ) :   0.9556 B( 25-C , 28-C ) :   1.0837 B( 28-C , 29-H ) :   0.9714
B( 28-C , 30-H ) :   0.9733 B( 28-C , 31-H ) :   0.9703

Dispersion correction           -0.014025150
FINAL SINGLE POINT ENERGY     -1339.870401250037

DIPOLE MOMENT
-------------
                                X             Y             Z
Electronic contribution:    -20.35902       8.09468       2.85020
Nuclear contribution   :     20.92823      -8.20250      -2.95470
                        -----------------------------------------
Total Dipole Moment    :      0.56921      -0.10782      -0.10450
                        -----------------------------------------
Magnitude (a.u.)       :      0.58868
Magnitude (Debye)      :      1.49630

Rotational constants in cm-1:     0.020622     0.007175     0.006574
Rotational constants in MHz :   618.246319   215.092341   197.097915

                             ****ORCA TERMINATED NORMALLY****
TOTAL RUN TIME: 0 days 0 hours 0 minutes 35 seconds 216 msec
