                         Program Version 4.2.1 -  RELEASE  -
|  1> ! wB97X-D3 SP def2-SVP
|  2> %pal
|  3> nprocs 16
|  4> end
|  5>
|  6> * xyz 0 1
|  7> S 	 -44.4407 	 54.6879 	 99.4848
|  8> C 	 -45.1606 	 54.1873 	 101.025
|  9> C 	 -46.22 	 55.0129 	 101.388
| 10> C 	 -46.4728 	 56.0423 	 100.416
| 11> C 	 -45.4571 	 56.1116 	 99.4116
| 12> H 	 -47.3151 	 56.7749 	 100.425
| 13> C 	 -47.127 	 54.8267 	 102.557
| 14> H 	 -47.4443 	 55.7967 	 102.965
| 15> H 	 -46.5549 	 54.3423 	 103.383
| 16> C 	 -48.3503 	 53.9494 	 102.313
| 17> H 	 -48.9013 	 54.4631 	 101.626
| 18> H 	 -48.0768 	 53.0451 	 101.662
| 19> C 	 -49.2527 	 53.6431 	 103.491
| 20> H 	 -48.6933 	 53.379 	 104.432
| 21> H 	 -49.9978 	 54.3669 	 103.708
| 22> H 	 -50.1108 	 53.0371 	 103.219
| 23> S 	 -43.8445 	 57.856 	 98.2288
| 24> C 	 -44.1969 	 58.8094 	 96.8981
| 25> C 	 -45.5175 	 58.488 	 96.5369
| 26> C 	 -46.1601 	 57.457 	 97.321
| 27> C 	 -45.3562 	 57.0459 	 98.3498
| 28> H 	 -45.9889 	 59.0109 	 95.7294
| 29> C 	 -47.5204 	 56.8093 	 96.9852
| 30> H 	 -48.2223 	 57.4382 	 96.5853
| 31> H 	 -47.996 	 56.4196 	 97.8736
| 32> C 	 -47.4842 	 55.5857 	 96.0084
| 33> H 	 -47.0055 	 55.8457 	 95.0495
| 34> H 	 -48.4413 	 55.1859 	 95.8631
| 35> C 	 -46.6311 	 54.3935 	 96.6047
| 36> H 	 -47.0502 	 53.9233 	 97.5288
| 37> H 	 -45.6378 	 54.7803 	 96.7243
| 38> H 	 -46.5312 	 53.6002 	 95.8509
| 39> H 	 -44.9216 	 53.2937 	 101.658
| 40> H 	 -43.5982 	 59.616 	 96.4277
| 41> *
| 42>
| 43>                          ****END OF INPUT****

CARTESIAN COORDINATES (ANGSTROEM)
---------------------------------
  S    -44.440700   54.687900   99.484800
  C    -45.160600   54.187300  101.025000
  C    -46.220000   55.012900  101.388000
  C    -46.472800   56.042300  100.416000
  C    -45.457100   56.111600   99.411600
  H    -47.315100   56.774900  100.425000
  C    -47.127000   54.826700  102.557000
  H    -47.444300   55.796700  102.965000
  H    -46.554900   54.342300  103.383000
  C    -48.350300   53.949400  102.313000
  H    -48.901300   54.463100  101.626000
  H    -48.076800   53.045100  101.662000
  C    -49.252700   53.643100  103.491000
  H    -48.693300   53.379000  104.432000
  H    -49.997800   54.366900  103.708000
  H    -50.110800   53.037100  103.219000
  S    -43.844500   57.856000   98.228800
  C    -44.196900   58.809400   96.898100
  C    -45.517500   58.488000   96.536900
  C    -46.160100   57.457000   97.321000
  C    -45.356200   57.045900   98.349800
  H    -45.988900   59.010900   95.729400
  C    -47.520400   56.809300   96.985200
  H    -48.222300   57.438200   96.585300
  H    -47.996000   56.419600   97.873600
  C    -47.484200   55.585700   96.008400
  H    -47.005500   55.845700   95.049500
  H    -48.441300   55.185900   95.863100
  C    -46.631100   54.393500   96.604700
  H    -47.050200   53.923300   97.528800
  H    -45.637800   54.780300   96.724300
  H    -46.531200   53.600200   95.850900
  H    -44.921600   53.293700  101.658000
  H    -43.598200   59.616000   96.427700

 Total Charge           Charge          ....    0
 Multiplicity           Mult            ....    1
 Number of Electrons    NEL             ....  134
 Basis Dimension        Dim             ....  322

ORBITAL ENERGIES
----------------

  NO   OCC          E(Eh)            E(eV)
   0   2.0000     -88.972448     -2421.0634
   1   2.0000     -88.961854     -2420.7751
   2   2.0000     -10.332358      -281.1577
   3   2.0000     -10.320889      -280.8457
   4   2.0000     -10.320591      -280.8376
   5   2.0000     -10.318731      -280.7869
   6   2.0000     -10.306847      -280.4636
   7   2.0000     -10.303864      -280.3824
   8   2.0000     -10.302944      -280.3574
   9   2.0000     -10.294491      -280.1274
  10   2.0000     -10.293495      -280.1002
  11   2.0000     -10.286305      -279.9046
  12   2.0000     -10.283806      -279.8366
  13   2.0000     -10.283404      -279.8257
  14   2.0000     -10.280289      -279.7409
  15   2.0000     -10.270380      -279.4713
  16   2.0000      -8.085918      -220.0290
  17   2.0000      -8.078643      -219.8311
  18   2.0000      -6.044504      -164.4793
  19   2.0000      -6.040552      -164.3718
  20   2.0000      -6.036938      -164.2734
  21   2.0000      -6.036697      -164.2669
  22   2.0000      -6.032519      -164.1532
  23   2.0000      -6.029774      -164.0785
  24   2.0000      -1.015542       -27.6343
  25   2.0000      -0.984293       -26.7840
  26   2.0000      -0.916443       -24.9377
  27   2.0000      -0.902828       -24.5672
  28   2.0000      -0.874090       -23.7852
  29   2.0000      -0.850524       -23.1439
  30   2.0000      -0.840449       -22.8698
  31   2.0000      -0.810095       -22.0438
  32   2.0000      -0.785453       -21.3733
  33   2.0000      -0.776672       -21.1343
  34   2.0000      -0.710797       -19.3418
  35   2.0000      -0.703573       -19.1452
  36   2.0000      -0.692365       -18.8402
  37   2.0000      -0.661860       -18.0101
  38   2.0000      -0.635693       -17.2981
  39   2.0000      -0.618446       -16.8288
  40   2.0000      -0.597767       -16.2661
  41   2.0000      -0.572096       -15.5675
  42   2.0000      -0.561981       -15.2923
  43   2.0000      -0.550666       -14.9844
  44   2.0000      -0.545675       -14.8486
  45   2.0000      -0.527729       -14.3602
  46   2.0000      -0.517121       -14.0716
  47   2.0000      -0.511899       -13.9295
  48   2.0000      -0.500707       -13.6249
  49   2.0000      -0.496860       -13.5203
  50   2.0000      -0.494487       -13.4557
  51   2.0000      -0.484653       -13.1881
  52   2.0000      -0.468711       -12.7543
  53   2.0000      -0.466494       -12.6939
  54   2.0000      -0.459920       -12.5151
  55   2.0000      -0.449540       -12.2326
  56   2.0000      -0.438001       -11.9186
  57   2.0000      -0.430776       -11.7220
  58   2.0000      -0.428270       -11.6538
  59   2.0000      -0.424708       -11.5569
  60   2.0000      -0.420721       -11.4484
  61   2.0000      -0.410277       -11.1642
  62   2.0000      -0.400706       -10.9038
  63   2.0000      -0.343157        -9.3378
  64   2.0000      -0.332502        -9.0478
  65   2.0000      -0.325806        -8.8656
  66   2.0000      -0.295665        -8.0455
  67   0.0000       0.030177         0.8212
  68   0.0000       0.064246         1.7482
  69   0.0000       0.109333         2.9751
  70   0.0000       0.121883         3.3166
  71   0.0000       0.125233         3.4078

MULLIKEN ATOMIC CHARGES
-----------------------
   0 S :    0.132463
   1 C :   -0.129278
   2 C :   -0.091099
   3 C :    0.025312
   4 C :   -0.158825
   5 H :    0.035215
   6 C :    0.053251
   7 H :    0.026091
   8 H :    0.020300
   9 C :   -0.038566
  10 H :   -0.014389
  11 H :    0.032467
  12 C :   -0.025287
  13 H :    0.052288
  14 H :    0.008253
  15 H :    0.019712
  16 S :    0.119635
  17 C :   -0.093122
  18 C :   -0.062842
  19 C :   -0.018003
  20 C :   -0.191009
  21 H :    0.008531
  22 C :    0.131872
  23 H :   -0.001847
  24 H :    0.005211
  25 C :   -0.066046
  26 H :    0.030542
  27 H :    0.021268
  28 C :   -0.080490
  29 H :    0.045315
  30 H :    0.033005
  31 H :    0.027040
  32 H :    0.063673
  33 H :    0.079359
Sum of atomic charges:    0.0000000

LOEWDIN ATOMIC CHARGES
----------------------
   0 S :    0.420654
   1 C :   -0.203030
   2 C :   -0.066075
   3 C :   -0.058700
   4 C :   -0.200604
   5 H :    0.037673
   6 C :   -0.034671
   7 H :    0.031606
   8 H :    0.030179
   9 C :   -0.045325
  10 H :    0.010263
  11 H :    0.032890
  12 C :   -0.085035
  13 H :    0.034135
  14 H :    0.027457
  15 H :    0.038618
  16 S :    0.459387
  17 C :   -0.220829
  18 C :   -0.076036
  19 C :   -0.055416
  20 C :   -0.218603
  21 H :    0.023075
  22 C :   -0.022425
  23 H :    0.016877
  24 H :    0.028546
  25 C :   -0.026181
  26 H :    0.024526
  27 H :    0.014799
  28 C :   -0.071654
  29 H :    0.027426
  30 H :    0.015044
  31 H :    0.023335
  32 H :    0.041886
  33 H :    0.046209

  Mayer bond orders larger than 0.100000
B(  0-S ,  1-C ) :   1.1342 B(  0-S ,  4-C ) :   1.1652 B(  1-C ,  2-C ) :   1.6017
B(  1-C ,  4-C ) :   0.1047 B(  1-C , 32-H ) :   0.9592 B(  2-C ,  3-C ) :   1.2530
B(  2-C ,  6-C ) :   1.0435 B(  3-C ,  4-C ) :   1.5438 B(  3-C ,  5-H ) :   0.9849
B(  4-C , 20-C ) :   1.0527 B(  6-C ,  7-H ) :   0.9379 B(  6-C ,  8-H ) :   0.9361
B(  6-C ,  9-C ) :   1.0578 B(  9-C , 10-H ) :   0.9424 B(  9-C , 11-H ) :   0.9534
B(  9-C , 12-C ) :   1.0913 B( 12-C , 13-H ) :   0.9762 B( 12-C , 14-H ) :   0.9572
B( 12-C , 15-H ) :   0.9535 B( 16-S , 17-C ) :   1.1861 B( 16-S , 20-C ) :   1.1717
B( 17-C , 18-C ) :   1.5487 B( 17-C , 20-C ) :   0.1036 B( 17-C , 33-H ) :   0.9686
B( 18-C , 19-C ) :   1.2677 B( 18-C , 21-H ) :   0.9942 B( 19-C , 20-C ) :   1.5545
B( 19-C , 22-C ) :   1.0485 B( 22-C , 23-H ) :   0.9288 B( 22-C , 24-H ) :   0.9316
B( 22-C , 25-C ) :   1.0734 B( 25-C , 26-H ) :   0.9576 B( 25-C , 27-H ) :   0.9581
B( 25-C , 28-C ) :   1.0780 B( 28-C , 29-H ) :   0.9754 B( 28-C , 30-H ) :   0.9752
B( 28-C , 31-H ) :   0.9741

Dispersion correction           -0.015402991
FINAL SINGLE POINT ENERGY     -1339.853812090345

DIPOLE MOMENT
-------------
                                X             Y             Z
Electronic contribution:     23.13920      11.79728      -5.55332
Nuclear contribution   :    -23.85075     -11.77401       5.53902
                        -----------------------------------------
Total Dipole Moment    :     -0.71154       0.02327      -0.01430
                        -----------------------------------------
Magnitude (a.u.)       :      0.71207
Magnitude (Debye)      :      1.80993

Rotational constants in cm-1:     0.022440     0.008063     0.007205
Rotational constants in MHz :   672.743743   241.733736   216.001518

                             ****ORCA TERMINATED NORMALLY****
TOTAL RUN TIME: 0 days 0 hours 0 minutes 29 seconds 132 msec
