                         Program Version 4.2.1 -  RELEASE  -
|  1> ! wB97X-D3 SP def2-SVP
|  2> %pal
|  3> nprocs 16
|  4> end
|  5>
|  6> * xyz 0 1
|  7> S 	 -38.3485 	 -5.62306 	 99.1113
|  8> C 	 -39.4001 	 -5.67345 	 97.6366
|  9> C 	 -40.7388 	 -5.76992 	 98.0059
| 10> C 	 -41.0067 	 -5.6635 	 99.3682
| 11> C 	 -39.7985 	 -5.62865 	 100.149
| 12> H 	 -41.9489 	 -5.69154 	 99.9109
| 13> C 	 -41.9211 	 -5.85351 	 97.0263
| 14> H 	 -41.6669 	 -6.33937 	 96.0478
| 15> H 	 -42.0585 	 -4.82044 	 96.6582
| 16> C 	 -43.2415 	 -6.42727 	 97.6246
| 17> H 	 -43.1048 	 -7.30701 	 98.2193
| 18> H 	 -43.7417 	 -5.64538 	 98.2224
| 19> C 	 -44.2113 	 -6.91919 	 96.5805
| 20> H 	 -43.7543 	 -7.6055 	 95.8611
| 21> H 	 -45.0201 	 -7.42007 	 97.0841
| 22> H 	 -44.645 	 -6.13371 	 95.8803
| 23> S 	 -38.7858 	 -4.19557 	 102.185
| 24> C 	 -39.2902 	 -4.47121 	 103.815
| 25> C 	 -40.2926 	 -5.4288 	 103.916
| 26> C 	 -40.5864 	 -5.96315 	 102.579
| 27> C 	 -39.8244 	 -5.40276 	 101.559
| 28> H 	 -40.7956 	 -5.73221 	 104.812
| 29> C 	 -41.6153 	 -7.07211 	 102.538
| 30> H 	 -41.2753 	 -7.79929 	 103.366
| 31> H 	 -41.6018 	 -7.65183 	 101.689
| 32> C 	 -43.0691 	 -6.69132 	 102.877
| 33> H 	 -43.3705 	 -5.92173 	 102.166
| 34> H 	 -43.0299 	 -6.28649 	 103.861
| 35> C 	 -44.2282 	 -7.72134 	 102.76
| 36> H 	 -45.2456 	 -7.34701 	 102.696
| 37> H 	 -44.0822 	 -8.38596 	 103.619
| 38> H 	 -43.9861 	 -8.35559 	 101.903
| 39> H 	 -39.0779 	 -5.69445 	 96.6169
| 40> H 	 -38.8313 	 -3.94925 	 104.651
| 41> *
| 42>
| 43>                          ****END OF INPUT****

CARTESIAN COORDINATES (ANGSTROEM)
---------------------------------
  S    -38.348500   -5.623060   99.111300
  C    -39.400100   -5.673450   97.636600
  C    -40.738800   -5.769920   98.005900
  C    -41.006700   -5.663500   99.368200
  C    -39.798500   -5.628650  100.149000
  H    -41.948900   -5.691540   99.910900
  C    -41.921100   -5.853510   97.026300
  H    -41.666900   -6.339370   96.047800
  H    -42.058500   -4.820440   96.658200
  C    -43.241500   -6.427270   97.624600
  H    -43.104800   -7.307010   98.219300
  H    -43.741700   -5.645380   98.222400
  C    -44.211300   -6.919190   96.580500
  H    -43.754300   -7.605500   95.861100
  H    -45.020100   -7.420070   97.084100
  H    -44.645000   -6.133710   95.880300
  S    -38.785800   -4.195570  102.185000
  C    -39.290200   -4.471210  103.815000
  C    -40.292600   -5.428800  103.916000
  C    -40.586400   -5.963150  102.579000
  C    -39.824400   -5.402760  101.559000
  H    -40.795600   -5.732210  104.812000
  C    -41.615300   -7.072110  102.538000
  H    -41.275300   -7.799290  103.366000
  H    -41.601800   -7.651830  101.689000
  C    -43.069100   -6.691320  102.877000
  H    -43.370500   -5.921730  102.166000
  H    -43.029900   -6.286490  103.861000
  C    -44.228200   -7.721340  102.760000
  H    -45.245600   -7.347010  102.696000
  H    -44.082200   -8.385960  103.619000
  H    -43.986100   -8.355590  101.903000
  H    -39.077900   -5.694450   96.616900
  H    -38.831300   -3.949250  104.651000

 Total Charge           Charge          ....    0
 Multiplicity           Mult            ....    1
 Number of Electrons    NEL             ....  134
 Basis Dimension        Dim             ....  322

ORBITAL ENERGIES
----------------

  NO   OCC          E(Eh)            E(eV)
   0   2.0000     -88.974176     -2421.1104
   1   2.0000     -88.964435     -2420.8453
   2   2.0000     -10.334919      -281.2275
   3   2.0000     -10.323603      -280.9195
   4   2.0000     -10.318317      -280.7757
   5   2.0000     -10.317078      -280.7420
   6   2.0000     -10.306856      -280.4638
   7   2.0000     -10.302980      -280.3584
   8   2.0000     -10.299371      -280.2601
   9   2.0000     -10.298091      -280.2253
  10   2.0000     -10.295647      -280.1588
  11   2.0000     -10.291595      -280.0485
  12   2.0000     -10.290470      -280.0179
  13   2.0000     -10.284933      -279.8673
  14   2.0000     -10.282783      -279.8087
  15   2.0000     -10.281234      -279.7666
  16   2.0000      -8.086674      -220.0496
  17   2.0000      -8.080458      -219.8804
  18   2.0000      -6.045315      -164.5014
  19   2.0000      -6.041506      -164.3977
  20   2.0000      -6.038968      -164.3287
  21   2.0000      -6.037421      -164.2866
  22   2.0000      -6.034695      -164.2124
  23   2.0000      -6.031228      -164.1180
  24   2.0000      -1.007133       -27.4055
  25   2.0000      -0.977759       -26.6062
  26   2.0000      -0.910634       -24.7796
  27   2.0000      -0.908026       -24.7087
  28   2.0000      -0.872761       -23.7490
  29   2.0000      -0.852530       -23.1985
  30   2.0000      -0.847115       -23.0512
  31   2.0000      -0.810603       -22.0576
  32   2.0000      -0.781815       -21.2743
  33   2.0000      -0.771279       -20.9876
  34   2.0000      -0.712449       -19.3867
  35   2.0000      -0.698065       -18.9953
  36   2.0000      -0.693222       -18.8635
  37   2.0000      -0.666842       -18.1457
  38   2.0000      -0.636791       -17.3280
  39   2.0000      -0.618182       -16.8216
  40   2.0000      -0.600611       -16.3435
  41   2.0000      -0.567838       -15.4517
  42   2.0000      -0.566693       -15.4205
  43   2.0000      -0.561907       -15.2903
  44   2.0000      -0.535191       -14.5633
  45   2.0000      -0.523912       -14.2564
  46   2.0000      -0.520590       -14.1660
  47   2.0000      -0.509794       -13.8722
  48   2.0000      -0.504921       -13.7396
  49   2.0000      -0.495670       -13.4879
  50   2.0000      -0.487982       -13.2787
  51   2.0000      -0.483938       -13.1686
  52   2.0000      -0.475061       -12.9271
  53   2.0000      -0.474048       -12.8995
  54   2.0000      -0.457212       -12.4414
  55   2.0000      -0.448001       -12.1907
  56   2.0000      -0.443848       -12.0777
  57   2.0000      -0.437084       -11.8937
  58   2.0000      -0.432722       -11.7750
  59   2.0000      -0.427746       -11.6396
  60   2.0000      -0.424101       -11.5404
  61   2.0000      -0.415494       -11.3062
  62   2.0000      -0.407082       -11.0773
  63   2.0000      -0.348466        -9.4822
  64   2.0000      -0.334616        -9.1054
  65   2.0000      -0.327301        -8.9063
  66   2.0000      -0.284327        -7.7369
  67   0.0000       0.020923         0.5693
  68   0.0000       0.075468         2.0536
  69   0.0000       0.106761         2.9051
  70   0.0000       0.114083         3.1044
  71   0.0000       0.123696         3.3660

MULLIKEN ATOMIC CHARGES
-----------------------
   0 S :    0.115868
   1 C :   -0.125578
   2 C :   -0.044896
   3 C :   -0.001223
   4 C :   -0.143144
   5 H :    0.023675
   6 C :    0.038745
   7 H :    0.021507
   8 H :    0.044285
   9 C :   -0.083008
  10 H :    0.036765
  11 H :    0.044644
  12 C :   -0.059542
  13 H :    0.029172
  14 H :    0.032733
  15 H :    0.032228
  16 S :    0.112213
  17 C :   -0.094068
  18 C :   -0.020773
  19 C :   -0.047025
  20 C :   -0.146219
  21 H :    0.020992
  22 C :    0.058028
  23 H :    0.033817
  24 H :   -0.005642
  25 C :   -0.086972
  26 H :    0.026436
  27 H :    0.017782
  28 C :   -0.035055
  29 H :    0.052517
  30 H :    0.025854
  31 H :    0.023663
  32 H :    0.039334
  33 H :    0.062885
Sum of atomic charges:   -0.0000000

LOEWDIN ATOMIC CHARGES
----------------------
   0 S :    0.380749
   1 C :   -0.187628
   2 C :   -0.061100
   3 C :   -0.059473
   4 C :   -0.181324
   5 H :    0.034895
   6 C :   -0.037227
   7 H :    0.030699
   8 H :    0.039654
   9 C :   -0.045248
  10 H :    0.025696
  11 H :    0.029737
  12 C :   -0.068189
  13 H :    0.023442
  14 H :    0.024767
  15 H :    0.028041
  16 S :    0.431216
  17 C :   -0.189117
  18 C :   -0.063580
  19 C :   -0.053300
  20 C :   -0.216487
  21 H :    0.029710
  22 C :   -0.032838
  23 H :    0.039893
  24 H :    0.010860
  25 C :   -0.041177
  26 H :    0.020423
  27 H :    0.015082
  28 C :   -0.064751
  29 H :    0.030577
  30 H :    0.025342
  31 H :    0.025442
  32 H :    0.025850
  33 H :    0.029363

  Mayer bond orders larger than 0.100000
B(  0-S ,  1-C ) :   1.1170 B(  0-S ,  4-C ) :   1.1566 B(  1-C ,  2-C ) :   1.5933
B(  1-C ,  4-C ) :   0.1121 B(  1-C , 32-H ) :   0.9737 B(  2-C ,  3-C ) :   1.2716
B(  2-C ,  6-C ) :   1.0081 B(  3-C ,  4-C ) :   1.5141 B(  3-C ,  5-H ) :   0.9846
B(  4-C , 20-C ) :   1.0843 B(  6-C ,  7-H ) :   0.9500 B(  6-C ,  8-H ) :   0.9326
B(  6-C ,  9-C ) :   1.0625 B(  9-C , 10-H ) :   0.9623 B(  9-C , 11-H ) :   0.9426
B(  9-C , 12-C ) :   1.0903 B( 12-C , 13-H ) :   0.9737 B( 12-C , 14-H ) :   0.9737
B( 12-C , 15-H ) :   0.9728 B( 16-S , 17-C ) :   1.1679 B( 16-S , 20-C ) :   1.1357
B( 17-C , 18-C ) :   1.5889 B( 17-C , 33-H ) :   0.9679 B( 18-C , 19-C ) :   1.2351
B( 18-C , 21-H ) :   0.9943 B( 19-C , 20-C ) :   1.5878 B( 19-C , 22-C ) :   1.0532
B( 22-C , 23-H ) :   0.9355 B( 22-C , 24-H ) :   0.9322 B( 22-C , 25-C ) :   1.0536
B( 25-C , 26-H ) :   0.9570 B( 25-C , 27-H ) :   0.9569 B( 25-C , 28-C ) :   1.0754
B( 28-C , 29-H ) :   0.9771 B( 28-C , 30-H ) :   0.9762 B( 28-C , 31-H ) :   0.9731

Dispersion correction           -0.013942009
FINAL SINGLE POINT ENERGY     -1339.869094725327

DIPOLE MOMENT
-------------
                                X             Y             Z
Electronic contribution:     31.17510      12.79011       5.16762
Nuclear contribution   :    -31.85582     -12.98913      -5.18381
                        -----------------------------------------
Total Dipole Moment    :     -0.68072      -0.19902      -0.01619
                        -----------------------------------------
Magnitude (a.u.)       :      0.70940
Magnitude (Debye)      :      1.80315

Rotational constants in cm-1:     0.015416     0.010159     0.006477
Rotational constants in MHz :   462.153454   304.561975   194.182579

                             ****ORCA TERMINATED NORMALLY****
TOTAL RUN TIME: 0 days 0 hours 0 minutes 28 seconds 288 msec
