                         Program Version 4.2.1 -  RELEASE  -
|  1> ! wB97X-D3 SP def2-SVP
|  2> %pal
|  3> nprocs 16
|  4> end
|  5>
|  6> * xyz 0 1
|  7> S 	 47.7244 	 13.122 	 83.2112
|  8> C 	 46.8324 	 14.6021 	 83.0788
|  9> C 	 45.6536 	 14.3894 	 82.3693
| 10> C 	 45.4873 	 13.0076 	 82.0305
| 11> C 	 46.5118 	 12.1794 	 82.3479
| 12> H 	 44.6313 	 12.6063 	 81.4853
| 13> C 	 44.6285 	 15.452 	 82.0788
| 14> H 	 45.0146 	 16.2989 	 82.6971
| 15> H 	 43.6671 	 15.041 	 82.4611
| 16> C 	 44.5457 	 15.694 	 80.509
| 17> H 	 45.5773 	 15.7239 	 80.0748
| 18> H 	 44.1507 	 14.8324 	 79.9809
| 19> C 	 43.7011 	 16.9484 	 80.1914
| 20> H 	 44.1734 	 17.7894 	 80.7741
| 21> H 	 43.5976 	 17.1706 	 79.1152
| 22> H 	 42.6565 	 16.6407 	 80.4995
| 23> S 	 46.4686 	 10.1132 	 80.4922
| 24> C 	 46.9346 	 8.5374 	 80.9892
| 25> C 	 46.9492 	 8.47662 	 82.3491
| 26> C 	 46.9586 	 9.71968 	 83.0372
| 27> C 	 46.7406 	 10.7497 	 82.1266
| 28> H 	 46.9859 	 7.51256 	 82.7582
| 29> C 	 47.1449 	 9.76414 	 84.5263
| 30> H 	 48.1337 	 10.2547 	 84.6273
| 31> H 	 47.2905 	 8.72512 	 84.9869
| 32> C 	 46.0771 	 10.4515 	 85.4
| 33> H 	 45.0978 	 9.98328 	 85.3133
| 34> H 	 45.9631 	 11.4849 	 85.0468
| 35> C 	 46.4561 	 10.5224 	 86.8702
| 36> H 	 46.6449 	 9.50686 	 87.2592
| 37> H 	 45.8024 	 11.1007 	 87.527
| 38> H 	 47.4469 	 10.8615 	 86.9953
| 39> H 	 47.099 	 15.5541 	 83.4644
| 40> H 	 46.8505 	 7.58167 	 80.3788
| 41> *
| 42>
| 43>                          ****END OF INPUT****

CARTESIAN COORDINATES (ANGSTROEM)
---------------------------------
  S     47.724400   13.122000   83.211200
  C     46.832400   14.602100   83.078800
  C     45.653600   14.389400   82.369300
  C     45.487300   13.007600   82.030500
  C     46.511800   12.179400   82.347900
  H     44.631300   12.606300   81.485300
  C     44.628500   15.452000   82.078800
  H     45.014600   16.298900   82.697100
  H     43.667100   15.041000   82.461100
  C     44.545700   15.694000   80.509000
  H     45.577300   15.723900   80.074800
  H     44.150700   14.832400   79.980900
  C     43.701100   16.948400   80.191400
  H     44.173400   17.789400   80.774100
  H     43.597600   17.170600   79.115200
  H     42.656500   16.640700   80.499500
  S     46.468600   10.113200   80.492200
  C     46.934600    8.537400   80.989200
  C     46.949200    8.476620   82.349100
  C     46.958600    9.719680   83.037200
  C     46.740600   10.749700   82.126600
  H     46.985900    7.512560   82.758200
  C     47.144900    9.764140   84.526300
  H     48.133700   10.254700   84.627300
  H     47.290500    8.725120   84.986900
  C     46.077100   10.451500   85.400000
  H     45.097800    9.983280   85.313300
  H     45.963100   11.484900   85.046800
  C     46.456100   10.522400   86.870200
  H     46.644900    9.506860   87.259200
  H     45.802400   11.100700   87.527000
  H     47.446900   10.861500   86.995300
  H     47.099000   15.554100   83.464400
  H     46.850500    7.581670   80.378800

 Total Charge           Charge          ....    0
 Multiplicity           Mult            ....    1
 Number of Electrons    NEL             ....  134
 Basis Dimension        Dim             ....  322

ORBITAL ENERGIES
----------------

  NO   OCC          E(Eh)            E(eV)
   0   2.0000     -88.966898     -2420.9124
   1   2.0000     -88.962655     -2420.7969
   2   2.0000     -10.330980      -281.1203
   3   2.0000     -10.328986      -281.0660
   4   2.0000     -10.316605      -280.7291
   5   2.0000     -10.310841      -280.5722
   6   2.0000     -10.307054      -280.4692
   7   2.0000     -10.301594      -280.3206
   8   2.0000     -10.300056      -280.2788
   9   2.0000     -10.298981      -280.2495
  10   2.0000     -10.293015      -280.0872
  11   2.0000     -10.291013      -280.0327
  12   2.0000     -10.288975      -279.9772
  13   2.0000     -10.285865      -279.8926
  14   2.0000     -10.282084      -279.7897
  15   2.0000     -10.271028      -279.4889
  16   2.0000      -8.081715      -219.9147
  17   2.0000      -8.077227      -219.7925
  18   2.0000      -6.040249      -164.3635
  19   2.0000      -6.036296      -164.2560
  20   2.0000      -6.035816      -164.2429
  21   2.0000      -6.032369      -164.1491
  22   2.0000      -6.031660      -164.1298
  23   2.0000      -6.028009      -164.0305
  24   2.0000      -1.009340       -27.4655
  25   2.0000      -0.988569       -26.9003
  26   2.0000      -0.909257       -24.7421
  27   2.0000      -0.905500       -24.6399
  28   2.0000      -0.869360       -23.6565
  29   2.0000      -0.855014       -23.2661
  30   2.0000      -0.844116       -22.9696
  31   2.0000      -0.817665       -22.2498
  32   2.0000      -0.781397       -21.2629
  33   2.0000      -0.765160       -20.8211
  34   2.0000      -0.711180       -19.3522
  35   2.0000      -0.696910       -18.9639
  36   2.0000      -0.688936       -18.7469
  37   2.0000      -0.662401       -18.0249
  38   2.0000      -0.637799       -17.3554
  39   2.0000      -0.619748       -16.8642
  40   2.0000      -0.595423       -16.2023
  41   2.0000      -0.567638       -15.4462
  42   2.0000      -0.561758       -15.2862
  43   2.0000      -0.558608       -15.2005
  44   2.0000      -0.530949       -14.4479
  45   2.0000      -0.524256       -14.2657
  46   2.0000      -0.512188       -13.9373
  47   2.0000      -0.509018       -13.8511
  48   2.0000      -0.506249       -13.7757
  49   2.0000      -0.502822       -13.6825
  50   2.0000      -0.488981       -13.3058
  51   2.0000      -0.483585       -13.1590
  52   2.0000      -0.469653       -12.7799
  53   2.0000      -0.464438       -12.6380
  54   2.0000      -0.459451       -12.5023
  55   2.0000      -0.443194       -12.0599
  56   2.0000      -0.439057       -11.9473
  57   2.0000      -0.436102       -11.8669
  58   2.0000      -0.433729       -11.8024
  59   2.0000      -0.426125       -11.5954
  60   2.0000      -0.419358       -11.4113
  61   2.0000      -0.415142       -11.2966
  62   2.0000      -0.407219       -11.0810
  63   2.0000      -0.348797        -9.4913
  64   2.0000      -0.330546        -8.9946
  65   2.0000      -0.326571        -8.8865
  66   2.0000      -0.294454        -8.0125
  67   0.0000       0.030578         0.8321
  68   0.0000       0.071669         1.9502
  69   0.0000       0.107201         2.9171
  70   0.0000       0.125617         3.4182
  71   0.0000       0.128113         3.4861

MULLIKEN ATOMIC CHARGES
-----------------------
   0 S :    0.095250
   1 C :   -0.100518
   2 C :   -0.123961
   3 C :    0.023420
   4 C :   -0.163186
   5 H :    0.008667
   6 C :    0.070266
   7 H :    0.028302
   8 H :    0.043580
   9 C :   -0.112011
  10 H :    0.040611
  11 H :    0.028420
  12 C :   -0.057273
  13 H :    0.050577
  14 H :    0.043895
  15 H :    0.037109
  16 S :    0.113621
  17 C :   -0.101112
  18 C :   -0.046470
  19 C :    0.026812
  20 C :   -0.155048
  21 H :   -0.002722
  22 C :    0.010935
  23 H :    0.045120
  24 H :    0.029891
  25 C :   -0.061541
  26 H :    0.032918
  27 H :    0.040670
  28 C :   -0.014698
  29 H :    0.008531
  30 H :    0.044670
  31 H :    0.002593
  32 H :    0.032218
  33 H :    0.080463
Sum of atomic charges:    0.0000000

LOEWDIN ATOMIC CHARGES
----------------------
   0 S :    0.404700
   1 C :   -0.202974
   2 C :   -0.065051
   3 C :   -0.073437
   4 C :   -0.185841
   5 H :    0.030409
   6 C :   -0.030138
   7 H :    0.034821
   8 H :    0.036962
   9 C :   -0.047066
  10 H :    0.027502
  11 H :    0.021390
  12 C :   -0.074675
  13 H :    0.032954
  14 H :    0.027097
  15 H :    0.032098
  16 S :    0.412591
  17 C :   -0.207121
  18 C :   -0.068920
  19 C :   -0.049612
  20 C :   -0.194713
  21 H :    0.021916
  22 C :   -0.040197
  23 H :    0.039086
  24 H :    0.037134
  25 C :   -0.042086
  26 H :    0.024822
  27 H :    0.023780
  28 C :   -0.067287
  29 H :    0.024048
  30 H :    0.029708
  31 H :    0.018506
  32 H :    0.022000
  33 H :    0.047592

  Mayer bond orders larger than 0.100000
B(  0-S ,  1-C ) :   1.1345 B(  0-S ,  4-C ) :   1.1421 B(  1-C ,  2-C ) :   1.6128
B(  1-C , 32-H ) :   0.9700 B(  2-C ,  3-C ) :   1.2271 B(  2-C ,  6-C ) :   1.0263
B(  3-C ,  4-C ) :   1.6153 B(  3-C ,  5-H ) :   0.9917 B(  4-C , 20-C ) :   1.0186
B(  6-C ,  7-H ) :   0.9453 B(  6-C ,  8-H ) :   0.9376 B(  6-C ,  9-C ) :   1.0363
B(  9-C , 10-H ) :   0.9603 B(  9-C , 11-H ) :   0.9559 B(  9-C , 12-C ) :   1.0760
B( 12-C , 13-H ) :   0.9768 B( 12-C , 14-H ) :   0.9752 B( 12-C , 15-H ) :   0.9725
B( 16-S , 17-C ) :   1.1539 B( 16-S , 20-C ) :   1.1463 B( 17-C , 18-C ) :   1.6218
B( 17-C , 33-H ) :   0.9535 B( 18-C , 19-C ) :   1.2490 B( 18-C , 21-H ) :   0.9944
B( 19-C , 20-C ) :   1.5578 B( 19-C , 22-C ) :   1.0331 B( 22-C , 23-H ) :   0.9256
B( 22-C , 24-H ) :   0.9393 B( 22-C , 25-C ) :   1.0601 B( 25-C , 26-H ) :   0.9566
B( 25-C , 27-H ) :   0.9490 B( 25-C , 28-C ) :   1.0887 B( 28-C , 29-H ) :   0.9667
B( 28-C , 30-H ) :   0.9738 B( 28-C , 31-H ) :   0.9673

Dispersion correction           -0.014384863
FINAL SINGLE POINT ENERGY     -1339.879221711720

DIPOLE MOMENT
-------------
                                X             Y             Z
Electronic contribution:     11.18748     -10.73452      -9.42134
Nuclear contribution   :    -11.57191      10.68372       9.57869
                        -----------------------------------------
Total Dipole Moment    :     -0.38443      -0.05081       0.15734
                        -----------------------------------------
Magnitude (a.u.)       :      0.41848
Magnitude (Debye)      :      1.06369

Rotational constants in cm-1:     0.019297     0.008331     0.006521
Rotational constants in MHz :   578.519415   249.748168   195.502399

                             ****ORCA TERMINATED NORMALLY****
TOTAL RUN TIME: 0 days 0 hours 0 minutes 28 seconds 1 msec
