                         Program Version 4.2.1 -  RELEASE  -
|  1> ! wB97X-D3 SP def2-SVP
|  2> %pal
|  3> nprocs 16
|  4> end
|  5>
|  6> * xyz 0 1
|  7> S 	 -107.587 	 40.3581 	 129.596
|  8> C 	 -106.187 	 40.5178 	 130.562
|  9> C 	 -105.043 	 40.9204 	 129.809
| 10> C 	 -105.311 	 40.8355 	 128.413
| 11> C 	 -106.663 	 40.8734 	 128.169
| 12> H 	 -104.557 	 40.9823 	 127.649
| 13> C 	 -103.647 	 41.1295 	 130.367
| 14> H 	 -103.477 	 42.181 	 130.106
| 15> H 	 -102.99 	 40.5486 	 129.765
| 16> C 	 -103.372 	 40.9568 	 131.847
| 17> H 	 -103.995 	 41.7603 	 132.423
| 18> H 	 -103.653 	 39.9434 	 132.018
| 19> C 	 -101.952 	 41.0087 	 132.281
| 20> H 	 -101.383 	 40.1991 	 131.948
| 21> H 	 -101.562 	 41.9287 	 131.962
| 22> H 	 -101.949 	 40.8664 	 133.327
| 23> S 	 -107.972 	 39.7518 	 125.997
| 24> C 	 -108.186 	 40.6175 	 124.508
| 25> C 	 -107.814 	 41.9263 	 124.642
| 26> C 	 -107.224 	 42.1122 	 125.951
| 27> C 	 -107.26 	 41.1021 	 126.839
| 28> H 	 -108.028 	 42.5866 	 123.793
| 29> C 	 -106.559 	 43.4422 	 126.221
| 30> H 	 -106.589 	 43.6513 	 127.249
| 31> H 	 -107.326 	 44.1857 	 125.961
| 32> C 	 -105.204 	 43.7175 	 125.65
| 33> H 	 -104.993 	 43.2802 	 124.684
| 34> H 	 -104.379 	 43.2808 	 126.214
| 35> C 	 -104.929 	 45.2326 	 125.528
| 36> H 	 -105.531 	 45.7043 	 124.748
| 37> H 	 -103.865 	 45.2999 	 125.211
| 38> H 	 -105.058 	 45.7526 	 126.419
| 39> H 	 -106.201 	 40.4721 	 131.609
| 40> H 	 -108.587 	 40.1681 	 123.652
| 41> *
| 42>
| 43>                          ****END OF INPUT****

CARTESIAN COORDINATES (ANGSTROEM)
---------------------------------
  S    -107.587000   40.358100  129.596000
  C    -106.187000   40.517800  130.562000
  C    -105.043000   40.920400  129.809000
  C    -105.311000   40.835500  128.413000
  C    -106.663000   40.873400  128.169000
  H    -104.557000   40.982300  127.649000
  C    -103.647000   41.129500  130.367000
  H    -103.477000   42.181000  130.106000
  H    -102.990000   40.548600  129.765000
  C    -103.372000   40.956800  131.847000
  H    -103.995000   41.760300  132.423000
  H    -103.653000   39.943400  132.018000
  C    -101.952000   41.008700  132.281000
  H    -101.383000   40.199100  131.948000
  H    -101.562000   41.928700  131.962000
  H    -101.949000   40.866400  133.327000
  S    -107.972000   39.751800  125.997000
  C    -108.186000   40.617500  124.508000
  C    -107.814000   41.926300  124.642000
  C    -107.224000   42.112200  125.951000
  C    -107.260000   41.102100  126.839000
  H    -108.028000   42.586600  123.793000
  C    -106.559000   43.442200  126.221000
  H    -106.589000   43.651300  127.249000
  H    -107.326000   44.185700  125.961000
  C    -105.204000   43.717500  125.650000
  H    -104.993000   43.280200  124.684000
  H    -104.379000   43.280800  126.214000
  C    -104.929000   45.232600  125.528000
  H    -105.531000   45.704300  124.748000
  H    -103.865000   45.299900  125.211000
  H    -105.058000   45.752600  126.419000
  H    -106.201000   40.472100  131.609000
  H    -108.587000   40.168100  123.652000

 Total Charge           Charge          ....    0
 Multiplicity           Mult            ....    1
 Number of Electrons    NEL             ....  134
 Basis Dimension        Dim             ....  322

ORBITAL ENERGIES
----------------

  NO   OCC          E(Eh)            E(eV)
   0   2.0000     -88.967926     -2420.9403
   1   2.0000     -88.954185     -2420.5664
   2   2.0000     -10.331656      -281.1386
   3   2.0000     -10.320155      -280.8257
   4   2.0000     -10.311393      -280.5873
   5   2.0000     -10.309417      -280.5335
   6   2.0000     -10.303863      -280.3824
   7   2.0000     -10.298873      -280.2466
   8   2.0000     -10.295284      -280.1489
   9   2.0000     -10.293737      -280.1068
  10   2.0000     -10.288935      -279.9762
  11   2.0000     -10.288478      -279.9637
  12   2.0000     -10.281704      -279.7794
  13   2.0000     -10.276999      -279.6514
  14   2.0000     -10.273506      -279.5563
  15   2.0000     -10.266337      -279.3612
  16   2.0000      -8.082766      -219.9432
  17   2.0000      -8.070109      -219.5988
  18   2.0000      -6.041178      -164.3888
  19   2.0000      -6.037359      -164.2849
  20   2.0000      -6.033531      -164.1807
  21   2.0000      -6.028671      -164.0485
  22   2.0000      -6.024347      -163.9308
  23   2.0000      -6.020827      -163.8350
  24   2.0000      -1.008331       -27.4381
  25   2.0000      -0.987499       -26.8712
  26   2.0000      -0.919714       -25.0267
  27   2.0000      -0.909214       -24.7410
  28   2.0000      -0.871444       -23.7132
  29   2.0000      -0.861261       -23.4361
  30   2.0000      -0.846201       -23.0263
  31   2.0000      -0.820920       -22.3384
  32   2.0000      -0.782478       -21.2923
  33   2.0000      -0.770766       -20.9736
  34   2.0000      -0.709582       -19.3087
  35   2.0000      -0.704581       -19.1726
  36   2.0000      -0.691321       -18.8118
  37   2.0000      -0.663249       -18.0479
  38   2.0000      -0.643573       -17.5125
  39   2.0000      -0.614756       -16.7284
  40   2.0000      -0.597908       -16.2699
  41   2.0000      -0.586508       -15.9597
  42   2.0000      -0.572977       -15.5915
  43   2.0000      -0.552539       -15.0354
  44   2.0000      -0.535230       -14.5643
  45   2.0000      -0.533582       -14.5195
  46   2.0000      -0.521827       -14.1996
  47   2.0000      -0.514759       -14.0073
  48   2.0000      -0.511023       -13.9056
  49   2.0000      -0.505523       -13.7560
  50   2.0000      -0.495316       -13.4782
  51   2.0000      -0.481430       -13.1004
  52   2.0000      -0.470195       -12.7947
  53   2.0000      -0.460205       -12.5228
  54   2.0000      -0.458220       -12.4688
  55   2.0000      -0.454899       -12.3784
  56   2.0000      -0.448794       -12.2123
  57   2.0000      -0.440458       -11.9855
  58   2.0000      -0.437232       -11.8977
  59   2.0000      -0.426293       -11.6000
  60   2.0000      -0.411557       -11.1990
  61   2.0000      -0.408995       -11.1293
  62   2.0000      -0.399877       -10.8812
  63   2.0000      -0.342661        -9.3243
  64   2.0000      -0.328418        -8.9367
  65   2.0000      -0.322432        -8.7738
  66   2.0000      -0.297500        -8.0954
  67   0.0000       0.039295         1.0693
  68   0.0000       0.066135         1.7996
  69   0.0000       0.116460         3.1690
  70   0.0000       0.127803         3.4777
  71   0.0000       0.129471         3.5231

MULLIKEN ATOMIC CHARGES
-----------------------
   0 S :    0.130037
   1 C :   -0.099808
   2 C :   -0.126811
   3 C :    0.045103
   4 C :   -0.162456
   5 H :    0.023823
   6 C :    0.083226
   7 H :    0.025138
   8 H :    0.019320
   9 C :   -0.125476
  10 H :    0.048414
  11 H :    0.020068
  12 C :    0.043608
  13 H :    0.012993
  14 H :    0.017529
  15 H :    0.022145
  16 S :    0.078311
  17 C :   -0.077548
  18 C :   -0.021749
  19 C :   -0.084062
  20 C :   -0.109083
  21 H :    0.032286
  22 C :    0.083696
  23 H :    0.001021
  24 H :    0.014271
  25 C :   -0.037892
  26 H :    0.016654
  27 H :    0.017014
  28 C :   -0.048605
  29 H :    0.033713
  30 H :    0.029096
  31 H :    0.022875
  32 H :    0.034764
  33 H :    0.038385
Sum of atomic charges:    0.0000000

LOEWDIN ATOMIC CHARGES
----------------------
   0 S :    0.416499
   1 C :   -0.210786
   2 C :   -0.056319
   3 C :   -0.048778
   4 C :   -0.186204
   5 H :    0.033305
   6 C :   -0.036448
   7 H :    0.033555
   8 H :    0.026973
   9 C :   -0.046304
  10 H :    0.036139
  11 H :    0.020528
  12 C :   -0.047593
  13 H :    0.020030
  14 H :    0.018349
  15 H :    0.027927
  16 S :    0.398547
  17 C :   -0.167938
  18 C :   -0.077600
  19 C :   -0.056511
  20 C :   -0.205516
  21 H :    0.040946
  22 C :   -0.040756
  23 H :    0.024295
  24 H :    0.034734
  25 C :   -0.039668
  26 H :    0.022129
  27 H :    0.022338
  28 C :   -0.056036
  29 H :    0.024252
  30 H :    0.030111
  31 H :    0.013342
  32 H :    0.014527
  33 H :    0.017933

  Mayer bond orders larger than 0.100000
B(  0-S ,  1-C ) :   1.1467 B(  0-S ,  4-C ) :   1.1521 B(  1-C ,  2-C ) :   1.5948
B(  1-C ,  4-C ) :   0.1032 B(  1-C , 32-H ) :   0.9655 B(  2-C ,  3-C ) :   1.2523
B(  2-C ,  6-C ) :   1.0136 B(  3-C ,  4-C ) :   1.5804 B(  3-C ,  5-H ) :   0.9866
B(  4-C , 20-C ) :   1.0035 B(  6-C ,  7-H ) :   0.9196 B(  6-C ,  8-H ) :   0.9395
B(  6-C ,  9-C ) :   1.0909 B(  9-C , 10-H ) :   0.9480 B(  9-C , 11-H ) :   0.9469
B(  9-C , 12-C ) :   1.1029 B( 12-C , 13-H ) :   0.9674 B( 12-C , 14-H ) :   0.9728
B( 12-C , 15-H ) :   0.9655 B( 16-S , 17-C ) :   1.1746 B( 16-S , 20-C ) :   1.1087
B( 17-C , 18-C ) :   1.6087 B( 17-C , 33-H ) :   0.9734 B( 18-C , 19-C ) :   1.1964
B( 18-C , 21-H ) :   0.9990 B( 19-C , 20-C ) :   1.6723 B( 19-C , 22-C ) :   1.0474
B( 22-C , 23-H ) :   0.9185 B( 22-C , 24-H ) :   0.9380 B( 22-C , 25-C ) :   1.0544
B( 25-C , 26-H ) :   0.9583 B( 25-C , 27-H ) :   0.9485 B( 25-C , 28-C ) :   1.0827
B( 28-C , 29-H ) :   0.9781 B( 28-C , 30-H ) :   0.9737 B( 28-C , 31-H ) :   0.9778

Dispersion correction           -0.013827859
FINAL SINGLE POINT ENERGY     -1339.852285977348

DIPOLE MOMENT
-------------
                                X             Y             Z
Electronic contribution:    -24.16634     -16.92582      -6.01625
Nuclear contribution   :     24.80189      17.31759       5.99194
                        -----------------------------------------
Total Dipole Moment    :      0.63555       0.39177      -0.02430
                        -----------------------------------------
Magnitude (a.u.)       :      0.74699
Magnitude (Debye)      :      1.89871

Rotational constants in cm-1:     0.018854     0.007983     0.006087
Rotational constants in MHz :   565.238079   239.311738   182.482608

                             ****ORCA TERMINATED NORMALLY****
TOTAL RUN TIME: 0 days 0 hours 0 minutes 33 seconds 155 msec
