                         Program Version 4.2.1 -  RELEASE  -
|  1> ! wB97X-D3 SP def2-SVP
|  2> %pal
|  3> nprocs 16
|  4> end
|  5>
|  6> * xyz 0 1
|  7> S 	 -19.0708 	 57.6859 	 64.3049
|  8> C 	 -18.2368 	 56.8572 	 62.9773
|  9> C 	 -18.2051 	 57.6285 	 61.8666
| 10> C 	 -19.0178 	 58.7951 	 61.973
| 11> C 	 -19.5749 	 59.0087 	 63.1959
| 12> H 	 -19.0607 	 59.6046 	 61.281
| 13> C 	 -17.5491 	 57.2605 	 60.5937
| 14> H 	 -16.5147 	 56.8544 	 60.7748
| 15> H 	 -17.3939 	 58.2217 	 60.0832
| 16> C 	 -18.2663 	 56.1861 	 59.7127
| 17> H 	 -18.1708 	 55.2614 	 60.1763
| 18> H 	 -19.2723 	 56.4547 	 59.5474
| 19> C 	 -17.6485 	 56.0762 	 58.3684
| 20> H 	 -16.6119 	 55.8455 	 58.5852
| 21> H 	 -18.0826 	 55.1916 	 57.8462
| 22> H 	 -17.872 	 57.0107 	 57.817
| 23> S 	 -21.6005 	 60.8191 	 62.5974
| 24> C 	 -21.9893 	 61.9895 	 63.8251
| 25> C 	 -21.1641 	 61.916 	 64.9519
| 26> C 	 -20.2862 	 60.8259 	 64.8155
| 27> C 	 -20.3632 	 60.1636 	 63.6242
| 28> H 	 -21.1943 	 62.7358 	 65.6355
| 29> C 	 -19.1486 	 60.7685 	 65.8424
| 30> H 	 -18.9443 	 61.8272 	 66.0869
| 31> H 	 -18.3074 	 60.2258 	 65.3524
| 32> C 	 -19.6017 	 59.986 	 67.1347
| 33> H 	 -19.7959 	 58.9229 	 66.9271
| 34> H 	 -20.5233 	 60.4839 	 67.5214
| 35> C 	 -18.4768 	 60.0905 	 68.3124
| 36> H 	 -18.3446 	 61.1392 	 68.5562
| 37> H 	 -17.5235 	 59.7367 	 67.9801
| 38> H 	 -18.686 	 59.8053 	 69.3236
| 39> H 	 -17.7731 	 55.9075 	 63.069
| 40> H 	 -22.7674 	 62.7742 	 63.7343
| 41> *
| 42>
| 43>                          ****END OF INPUT****

CARTESIAN COORDINATES (ANGSTROEM)
---------------------------------
  S    -19.070800   57.685900   64.304900
  C    -18.236800   56.857200   62.977300
  C    -18.205100   57.628500   61.866600
  C    -19.017800   58.795100   61.973000
  C    -19.574900   59.008700   63.195900
  H    -19.060700   59.604600   61.281000
  C    -17.549100   57.260500   60.593700
  H    -16.514700   56.854400   60.774800
  H    -17.393900   58.221700   60.083200
  C    -18.266300   56.186100   59.712700
  H    -18.170800   55.261400   60.176300
  H    -19.272300   56.454700   59.547400
  C    -17.648500   56.076200   58.368400
  H    -16.611900   55.845500   58.585200
  H    -18.082600   55.191600   57.846200
  H    -17.872000   57.010700   57.817000
  S    -21.600500   60.819100   62.597400
  C    -21.989300   61.989500   63.825100
  C    -21.164100   61.916000   64.951900
  C    -20.286200   60.825900   64.815500
  C    -20.363200   60.163600   63.624200
  H    -21.194300   62.735800   65.635500
  C    -19.148600   60.768500   65.842400
  H    -18.944300   61.827200   66.086900
  H    -18.307400   60.225800   65.352400
  C    -19.601700   59.986000   67.134700
  H    -19.795900   58.922900   66.927100
  H    -20.523300   60.483900   67.521400
  C    -18.476800   60.090500   68.312400
  H    -18.344600   61.139200   68.556200
  H    -17.523500   59.736700   67.980100
  H    -18.686000   59.805300   69.323600
  H    -17.773100   55.907500   63.069000
  H    -22.767400   62.774200   63.734300

 Total Charge           Charge          ....    0
 Multiplicity           Mult            ....    1
 Number of Electrons    NEL             ....  134
 Basis Dimension        Dim             ....  322

ORBITAL ENERGIES
----------------

  NO   OCC          E(Eh)            E(eV)
   0   2.0000     -88.971976     -2421.0506
   1   2.0000     -88.965539     -2420.8754
   2   2.0000     -10.332175      -281.1528
   3   2.0000     -10.324406      -280.9414
   4   2.0000     -10.321222      -280.8547
   5   2.0000     -10.310696      -280.5683
   6   2.0000     -10.297434      -280.2074
   7   2.0000     -10.296428      -280.1800
   8   2.0000     -10.296397      -280.1792
   9   2.0000     -10.295368      -280.1512
  10   2.0000     -10.293102      -280.0895
  11   2.0000     -10.292833      -280.0822
  12   2.0000     -10.288851      -279.9739
  13   2.0000     -10.277704      -279.6706
  14   2.0000     -10.274613      -279.5864
  15   2.0000     -10.273300      -279.5507
  16   2.0000      -8.086821      -220.0536
  17   2.0000      -8.078890      -219.8378
  18   2.0000      -6.045246      -164.4995
  19   2.0000      -6.041382      -164.3944
  20   2.0000      -6.037626      -164.2922
  21   2.0000      -6.037603      -164.2915
  22   2.0000      -6.033644      -164.1838
  23   2.0000      -6.029448      -164.0696
  24   2.0000      -1.010181       -27.4884
  25   2.0000      -0.987258       -26.8647
  26   2.0000      -0.916997       -24.9528
  27   2.0000      -0.897779       -24.4298
  28   2.0000      -0.875169       -23.8146
  29   2.0000      -0.852755       -23.2046
  30   2.0000      -0.843196       -22.9445
  31   2.0000      -0.817645       -22.2492
  32   2.0000      -0.778806       -21.1924
  33   2.0000      -0.767203       -20.8766
  34   2.0000      -0.706337       -19.2204
  35   2.0000      -0.699004       -19.0209
  36   2.0000      -0.691632       -18.8203
  37   2.0000      -0.671401       -18.2697
  38   2.0000      -0.640979       -17.4419
  39   2.0000      -0.619665       -16.8620
  40   2.0000      -0.589647       -16.0451
  41   2.0000      -0.580493       -15.7960
  42   2.0000      -0.567822       -15.4512
  43   2.0000      -0.558452       -15.1962
  44   2.0000      -0.526232       -14.3195
  45   2.0000      -0.520855       -14.1732
  46   2.0000      -0.518586       -14.1114
  47   2.0000      -0.510579       -13.8936
  48   2.0000      -0.509152       -13.8547
  49   2.0000      -0.505064       -13.7435
  50   2.0000      -0.482971       -13.1423
  51   2.0000      -0.473707       -12.8902
  52   2.0000      -0.468481       -12.7480
  53   2.0000      -0.462694       -12.5905
  54   2.0000      -0.459864       -12.5135
  55   2.0000      -0.452707       -12.3188
  56   2.0000      -0.442580       -12.0432
  57   2.0000      -0.432225       -11.7614
  58   2.0000      -0.429713       -11.6931
  59   2.0000      -0.425925       -11.5900
  60   2.0000      -0.425227       -11.5710
  61   2.0000      -0.415965       -11.3190
  62   2.0000      -0.411513       -11.1978
  63   2.0000      -0.356285        -9.6950
  64   2.0000      -0.336039        -9.1441
  65   2.0000      -0.328754        -8.9458
  66   2.0000      -0.288743        -7.8571
  67   0.0000       0.026755         0.7280
  68   0.0000       0.074370         2.0237
  69   0.0000       0.095847         2.6081
  70   0.0000       0.117434         3.1955
  71   0.0000       0.132829         3.6145

MULLIKEN ATOMIC CHARGES
-----------------------
   0 S :    0.085130
   1 C :   -0.111011
   2 C :   -0.044146
   3 C :    0.002629
   4 C :   -0.119412
   5 H :    0.002862
   6 C :    0.016246
   7 H :    0.027413
   8 H :    0.019319
   9 C :   -0.017791
  10 H :    0.011222
  11 H :    0.018760
  12 C :   -0.050658
  13 H :    0.023441
  14 H :    0.039483
  15 H :    0.043361
  16 S :    0.127679
  17 C :   -0.113792
  18 C :   -0.029676
  19 C :   -0.035229
  20 C :   -0.140297
  21 H :    0.019548
  22 C :    0.027733
  23 H :    0.036348
  24 H :    0.042453
  25 C :   -0.095727
  26 H :    0.048296
  27 H :    0.034657
  28 C :   -0.029662
  29 H :    0.006113
  30 H :    0.029572
  31 H :    0.026956
  32 H :    0.034029
  33 H :    0.064146
Sum of atomic charges:   -0.0000000

LOEWDIN ATOMIC CHARGES
----------------------
   0 S :    0.379758
   1 C :   -0.175722
   2 C :   -0.067713
   3 C :   -0.068701
   4 C :   -0.162389
   5 H :    0.025681
   6 C :   -0.036127
   7 H :    0.033776
   8 H :    0.029741
   9 C :   -0.029615
  10 H :    0.015019
  11 H :    0.018305
  12 C :   -0.062522
  13 H :    0.022093
  14 H :    0.030967
  15 H :    0.029401
  16 S :    0.423798
  17 C :   -0.188290
  18 C :   -0.067726
  19 C :   -0.063489
  20 C :   -0.207373
  21 H :    0.031991
  22 C :   -0.028930
  23 H :    0.034039
  24 H :    0.026578
  25 C :   -0.034428
  26 H :    0.019332
  27 H :    0.025094
  28 C :   -0.075554
  29 H :    0.022336
  30 H :    0.020590
  31 H :    0.023573
  32 H :    0.022981
  33 H :    0.033528

  Mayer bond orders larger than 0.100000
B(  0-S ,  1-C ) :   1.1150 B(  0-S ,  4-C ) :   1.1200 B(  1-C ,  2-C ) :   1.6309
B(  1-C , 32-H ) :   0.9755 B(  2-C ,  3-C ) :   1.2166 B(  2-C ,  6-C ) :   1.0409
B(  3-C ,  4-C ) :   1.6003 B(  3-C ,  5-H ) :   0.9924 B(  4-C , 20-C ) :   1.0507
B(  6-C ,  7-H ) :   0.9311 B(  6-C ,  8-H ) :   0.9413 B(  6-C ,  9-C ) :   1.0649
B(  9-C , 10-H ) :   0.9512 B(  9-C , 11-H ) :   0.9557 B(  9-C , 12-C ) :   1.0941
B( 12-C , 13-H ) :   0.9715 B( 12-C , 14-H ) :   0.9716 B( 12-C , 15-H ) :   0.9766
B( 16-S , 17-C ) :   1.1675 B( 16-S , 20-C ) :   1.1330 B( 17-C , 18-C ) :   1.6067
B( 17-C , 33-H ) :   0.9607 B( 18-C , 19-C ) :   1.2399 B( 18-C , 21-H ) :   0.9948
B( 19-C , 20-C ) :   1.5942 B( 19-C , 22-C ) :   1.0264 B( 22-C , 23-H ) :   0.9478
B( 22-C , 24-H ) :   0.9357 B( 22-C , 25-C ) :   1.0449 B( 25-C , 26-H ) :   0.9586
B( 25-C , 27-H ) :   0.9627 B( 25-C , 28-C ) :   1.0614 B( 28-C , 29-H ) :   0.9725
B( 28-C , 30-H ) :   0.9791 B( 28-C , 31-H ) :   0.9780

Dispersion correction           -0.013830097
FINAL SINGLE POINT ENERGY     -1339.869700364433

DIPOLE MOMENT
-------------
                                X             Y             Z
Electronic contribution:    -12.92143       6.02787       0.53130
Nuclear contribution   :     13.17355      -5.83473      -0.68097
                        -----------------------------------------
Total Dipole Moment    :      0.25212       0.19313      -0.14968
                        -----------------------------------------
Magnitude (a.u.)       :      0.35110
Magnitude (Debye)      :      0.89242

Rotational constants in cm-1:     0.021725     0.007654     0.005936
Rotational constants in MHz :   651.304730   229.471022   177.954625

                             ****ORCA TERMINATED NORMALLY****
TOTAL RUN TIME: 0 days 0 hours 0 minutes 32 seconds 353 msec
