                         Program Version 4.2.1 -  RELEASE  -
|  1> ! wB97X-D3 SP def2-SVP
|  2> %pal
|  3> nprocs 16
|  4> end
|  5>
|  6> * xyz 0 1
|  7> S 	 -43.797 	 26.0909 	 84.2698
|  8> C 	 -43.9948 	 24.3473 	 83.9734
|  9> C 	 -44.6565 	 24.0677 	 82.7812
| 10> C 	 -45.3096 	 25.3029 	 82.3036
| 11> C 	 -44.944 	 26.4736 	 82.9884
| 12> H 	 -45.9667 	 25.4505 	 81.4595
| 13> C 	 -44.7623 	 22.739 	 81.9865
| 14> H 	 -45.704 	 22.3201 	 82.2956
| 15> H 	 -43.9476 	 22.1462 	 82.2711
| 16> C 	 -44.5542 	 22.8127 	 80.4202
| 17> H 	 -44.6273 	 21.7583 	 80.0482
| 18> H 	 -45.3199 	 23.4115 	 80.0253
| 19> C 	 -43.152 	 23.3366 	 80.0163
| 20> H 	 -42.9062 	 24.3301 	 80.4042
| 21> H 	 -42.3866 	 22.6677 	 80.4522
| 22> H 	 -43.0054 	 23.3202 	 78.881
| 23> S 	 -46.8217 	 28.1181 	 83.8474
| 24> C 	 -46.9565 	 29.7125 	 83.2324
| 25> C 	 -46.1179 	 29.9528 	 82.103
| 26> C 	 -45.2807 	 28.8265 	 81.9005
| 27> C 	 -45.5355 	 27.7617 	 82.7643
| 28> H 	 -46.2194 	 30.8278 	 81.5545
| 29> C 	 -44.2817 	 28.7377 	 80.743
| 30> H 	 -43.2704 	 28.4193 	 81.1705
| 31> H 	 -44.0357 	 29.7903 	 80.4799
| 32> C 	 -44.6826 	 27.9716 	 79.4654
| 33> H 	 -45.2694 	 27.0378 	 79.6835
| 34> H 	 -43.7868 	 27.579 	 78.9816
| 35> C 	 -45.3486 	 28.8973 	 78.4744
| 36> H 	 -46.2533 	 29.2714 	 78.7957
| 37> H 	 -45.5983 	 28.3987 	 77.5649
| 38> H 	 -44.8092 	 29.7763 	 78.1677
| 39> H 	 -43.5205 	 23.5346 	 84.5603
| 40> H 	 -47.7255 	 30.4838 	 83.4926
| 41> *
| 42>
| 43>                          ****END OF INPUT****

CARTESIAN COORDINATES (ANGSTROEM)
---------------------------------
  S    -43.797000   26.090900   84.269800
  C    -43.994800   24.347300   83.973400
  C    -44.656500   24.067700   82.781200
  C    -45.309600   25.302900   82.303600
  C    -44.944000   26.473600   82.988400
  H    -45.966700   25.450500   81.459500
  C    -44.762300   22.739000   81.986500
  H    -45.704000   22.320100   82.295600
  H    -43.947600   22.146200   82.271100
  C    -44.554200   22.812700   80.420200
  H    -44.627300   21.758300   80.048200
  H    -45.319900   23.411500   80.025300
  C    -43.152000   23.336600   80.016300
  H    -42.906200   24.330100   80.404200
  H    -42.386600   22.667700   80.452200
  H    -43.005400   23.320200   78.881000
  S    -46.821700   28.118100   83.847400
  C    -46.956500   29.712500   83.232400
  C    -46.117900   29.952800   82.103000
  C    -45.280700   28.826500   81.900500
  C    -45.535500   27.761700   82.764300
  H    -46.219400   30.827800   81.554500
  C    -44.281700   28.737700   80.743000
  H    -43.270400   28.419300   81.170500
  H    -44.035700   29.790300   80.479900
  C    -44.682600   27.971600   79.465400
  H    -45.269400   27.037800   79.683500
  H    -43.786800   27.579000   78.981600
  C    -45.348600   28.897300   78.474400
  H    -46.253300   29.271400   78.795700
  H    -45.598300   28.398700   77.564900
  H    -44.809200   29.776300   78.167700
  H    -43.520500   23.534600   84.560300
  H    -47.725500   30.483800   83.492600

 Total Charge           Charge          ....    0
 Multiplicity           Mult            ....    1
 Number of Electrons    NEL             ....  134
 Basis Dimension        Dim             ....  322

ORBITAL ENERGIES
----------------

  NO   OCC          E(Eh)            E(eV)
   0   2.0000     -88.967967     -2420.9415
   1   2.0000     -88.966558     -2420.9031
   2   2.0000     -10.327564      -281.0273
   3   2.0000     -10.320197      -280.8268
   4   2.0000     -10.319080      -280.7964
   5   2.0000     -10.317964      -280.7661
   6   2.0000     -10.309868      -280.5458
   7   2.0000     -10.303748      -280.3792
   8   2.0000     -10.297775      -280.2167
   9   2.0000     -10.295299      -280.1493
  10   2.0000     -10.294718      -280.1335
  11   2.0000     -10.294518      -280.1281
  12   2.0000     -10.291612      -280.0490
  13   2.0000     -10.289429      -279.9896
  14   2.0000     -10.286617      -279.9131
  15   2.0000     -10.264112      -279.3007
  16   2.0000      -8.083560      -219.9648
  17   2.0000      -8.080418      -219.8794
  18   2.0000      -6.041840      -164.4068
  19   2.0000      -6.039115      -164.3327
  20   2.0000      -6.037775      -164.2962
  21   2.0000      -6.035133      -164.2243
  22   2.0000      -6.034667      -164.2116
  23   2.0000      -6.030937      -164.1101
  24   2.0000      -1.006381       -27.3850
  25   2.0000      -0.976352       -26.5679
  26   2.0000      -0.906498       -24.6671
  27   2.0000      -0.905145       -24.6302
  28   2.0000      -0.867807       -23.6142
  29   2.0000      -0.852896       -23.2085
  30   2.0000      -0.838528       -22.8175
  31   2.0000      -0.808113       -21.9899
  32   2.0000      -0.782774       -21.3004
  33   2.0000      -0.770547       -20.9677
  34   2.0000      -0.710066       -19.3219
  35   2.0000      -0.700315       -19.0565
  36   2.0000      -0.687365       -18.7042
  37   2.0000      -0.664568       -18.0838
  38   2.0000      -0.638219       -17.3668
  39   2.0000      -0.613713       -16.7000
  40   2.0000      -0.588384       -16.0108
  41   2.0000      -0.567637       -15.4462
  42   2.0000      -0.555071       -15.1043
  43   2.0000      -0.549863       -14.9625
  44   2.0000      -0.540142       -14.6980
  45   2.0000      -0.532716       -14.4960
  46   2.0000      -0.520563       -14.1652
  47   2.0000      -0.506574       -13.7846
  48   2.0000      -0.495444       -13.4817
  49   2.0000      -0.493812       -13.4373
  50   2.0000      -0.487829       -13.2745
  51   2.0000      -0.476998       -12.9798
  52   2.0000      -0.468354       -12.7446
  53   2.0000      -0.463771       -12.6199
  54   2.0000      -0.457694       -12.4545
  55   2.0000      -0.448732       -12.2106
  56   2.0000      -0.444286       -12.0896
  57   2.0000      -0.440619       -11.9898
  58   2.0000      -0.436947       -11.8899
  59   2.0000      -0.421624       -11.4730
  60   2.0000      -0.419371       -11.4117
  61   2.0000      -0.418903       -11.3989
  62   2.0000      -0.410622       -11.1736
  63   2.0000      -0.337122        -9.1736
  64   2.0000      -0.324713        -8.8359
  65   2.0000      -0.314548        -8.5593
  66   2.0000      -0.309019        -8.4088
  67   0.0000       0.040244         1.0951
  68   0.0000       0.053064         1.4439
  69   0.0000       0.103447         2.8149
  70   0.0000       0.122260         3.3269
  71   0.0000       0.126494         3.4421

MULLIKEN ATOMIC CHARGES
-----------------------
   0 S :    0.123030
   1 C :   -0.144662
   2 C :   -0.100888
   3 C :    0.033361
   4 C :   -0.169121
   5 H :    0.014952
   6 C :    0.096462
   7 H :    0.048175
   8 H :    0.005285
   9 C :   -0.071787
  10 H :    0.044747
  11 H :    0.027657
  12 C :   -0.091715
  13 H :    0.049808
  14 H :    0.029560
  15 H :    0.050392
  16 S :    0.149684
  17 C :   -0.112455
  18 C :   -0.034683
  19 C :   -0.007405
  20 C :   -0.210130
  21 H :   -0.003787
  22 C :    0.034804
  23 H :    0.039233
  24 H :    0.012980
  25 C :   -0.030925
  26 H :    0.030977
  27 H :    0.025988
  28 C :   -0.009083
  29 H :    0.005344
  30 H :    0.015363
  31 H :    0.019867
  32 H :    0.059591
  33 H :    0.069380
Sum of atomic charges:   -0.0000000

LOEWDIN ATOMIC CHARGES
----------------------
   0 S :    0.388134
   1 C :   -0.196869
   2 C :   -0.061031
   3 C :   -0.056229
   4 C :   -0.207176
   5 H :    0.025619
   6 C :   -0.023522
   7 H :    0.034162
   8 H :    0.020429
   9 C :   -0.033016
  10 H :    0.034775
  11 H :    0.011917
  12 C :   -0.073190
  13 H :    0.027198
  14 H :    0.025755
  15 H :    0.035538
  16 S :    0.458768
  17 C :   -0.206717
  18 C :   -0.067890
  19 C :   -0.053167
  20 C :   -0.224538
  21 H :    0.021034
  22 C :   -0.039091
  23 H :    0.039231
  24 H :    0.029442
  25 C :   -0.038879
  26 H :    0.029658
  27 H :    0.027223
  28 C :   -0.061362
  29 H :    0.013799
  30 H :    0.023617
  31 H :    0.024552
  32 H :    0.034634
  33 H :    0.037192

  Mayer bond orders larger than 0.100000
B(  0-S ,  1-C ) :   1.1332 B(  0-S ,  4-C ) :   1.1243 B(  1-C ,  2-C ) :   1.6496
B(  1-C , 32-H ) :   0.9593 B(  2-C ,  3-C ) :   1.1895 B(  2-C ,  6-C ) :   1.0042
B(  3-C ,  4-C ) :   1.6176 B(  3-C ,  5-H ) :   0.9828 B(  4-C , 20-C ) :   1.0416
B(  6-C ,  7-H ) :   0.9415 B(  6-C ,  8-H ) :   0.9434 B(  6-C ,  9-C ) :   1.0674
B(  9-C , 10-H ) :   0.9574 B(  9-C , 11-H ) :   0.9582 B(  9-C , 12-C ) :   1.0697
B( 12-C , 13-H ) :   0.9756 B( 12-C , 14-H ) :   0.9742 B( 12-C , 15-H ) :   0.9750
B( 16-S , 17-C ) :   1.1968 B( 16-S , 20-C ) :   1.1713 B( 17-C , 18-C ) :   1.5594
B( 17-C , 20-C ) :   0.1095 B( 17-C , 33-H ) :   0.9593 B( 18-C , 19-C ) :   1.2755
B( 18-C , 21-H ) :   1.0024 B( 19-C , 20-C ) :   1.5597 B( 19-C , 22-C ) :   1.0471
B( 22-C , 23-H ) :   0.9327 B( 22-C , 24-H ) :   0.9373 B( 22-C , 25-C ) :   1.0518
B( 25-C , 26-H ) :   0.9561 B( 25-C , 27-H ) :   0.9514 B( 25-C , 28-C ) :   1.0854
B( 28-C , 29-H ) :   0.9730 B( 28-C , 30-H ) :   0.9678 B( 28-C , 31-H ) :   0.9718

Dispersion correction           -0.015282537
FINAL SINGLE POINT ENERGY     -1339.864513190288

DIPOLE MOMENT
-------------
                                X             Y             Z
Electronic contribution:     -5.96331       8.02224      26.81992
Nuclear contribution   :      5.92546      -8.22866     -27.45758
                        -----------------------------------------
Total Dipole Moment    :     -0.03785      -0.20642      -0.63766
                        -----------------------------------------
Magnitude (a.u.)       :      0.67130
Magnitude (Debye)      :      1.70632

Rotational constants in cm-1:     0.017578     0.010036     0.007334
Rotational constants in MHz :   526.983507   300.864245   219.882448

                             ****ORCA TERMINATED NORMALLY****
TOTAL RUN TIME: 0 days 0 hours 0 minutes 29 seconds 223 msec
