                         Program Version 4.2.1 -  RELEASE  -
|  1> ! wB97X-D3 SP def2-SVP
|  2> %pal
|  3> nprocs 16
|  4> end
|  5>
|  6> * xyz 0 1
|  7> S 	 -48.2312 	 67.9724 	 130.766
|  8> C 	 -48.0394 	 66.9705 	 129.334
|  9> C 	 -47.4426 	 65.7131 	 129.668
| 10> C 	 -47.1307 	 65.6541 	 131.051
| 11> C 	 -47.4591 	 66.761 	 131.832
| 12> H 	 -46.6882 	 64.7954 	 131.424
| 13> C 	 -47.2639 	 64.4249 	 128.86
| 14> H 	 -48.0539 	 64.3124 	 128.12
| 15> H 	 -47.3473 	 63.5102 	 129.438
| 16> C 	 -45.8882 	 64.3562 	 128.128
| 17> H 	 -45.8357 	 63.5457 	 127.464
| 18> H 	 -45.697 	 65.2142 	 127.484
| 19> C 	 -44.5794 	 64.117 	 128.984
| 20> H 	 -44.5516 	 63.088 	 129.387
| 21> H 	 -43.6732 	 64.1707 	 128.386
| 22> H 	 -44.5201 	 64.8486 	 129.842
| 23> S 	 -46.927 	 68.2957 	 134.041
| 24> C 	 -47.0191 	 67.6925 	 135.666
| 25> C 	 -47.4431 	 66.4026 	 135.621
| 26> C 	 -47.6216 	 65.8598 	 134.275
| 27> C 	 -47.3284 	 66.7828 	 133.267
| 28> H 	 -47.384 	 65.834 	 136.49
| 29> C 	 -48.3121 	 64.5422 	 134.051
| 30> H 	 -48.2984 	 63.9374 	 134.982
| 31> H 	 -47.666 	 64.0356 	 133.285
| 32> C 	 -49.7716 	 64.7887 	 133.675
| 33> H 	 -49.8512 	 65.3856 	 132.792
| 34> H 	 -50.2403 	 65.2343 	 134.552
| 35> C 	 -50.5948 	 63.4025 	 133.528
| 36> H 	 -50.1778 	 62.584 	 134.109
| 37> H 	 -50.4808 	 63.0893 	 132.486
| 38> H 	 -51.6307 	 63.6243 	 133.695
| 39> H 	 -48.4951 	 67.3433 	 128.383
| 40> H 	 -46.9716 	 68.1947 	 136.578
| 41> *
| 42>
| 43>                          ****END OF INPUT****

CARTESIAN COORDINATES (ANGSTROEM)
---------------------------------
  S    -48.231200   67.972400  130.766000
  C    -48.039400   66.970500  129.334000
  C    -47.442600   65.713100  129.668000
  C    -47.130700   65.654100  131.051000
  C    -47.459100   66.761000  131.832000
  H    -46.688200   64.795400  131.424000
  C    -47.263900   64.424900  128.860000
  H    -48.053900   64.312400  128.120000
  H    -47.347300   63.510200  129.438000
  C    -45.888200   64.356200  128.128000
  H    -45.835700   63.545700  127.464000
  H    -45.697000   65.214200  127.484000
  C    -44.579400   64.117000  128.984000
  H    -44.551600   63.088000  129.387000
  H    -43.673200   64.170700  128.386000
  H    -44.520100   64.848600  129.842000
  S    -46.927000   68.295700  134.041000
  C    -47.019100   67.692500  135.666000
  C    -47.443100   66.402600  135.621000
  C    -47.621600   65.859800  134.275000
  C    -47.328400   66.782800  133.267000
  H    -47.384000   65.834000  136.490000
  C    -48.312100   64.542200  134.051000
  H    -48.298400   63.937400  134.982000
  H    -47.666000   64.035600  133.285000
  C    -49.771600   64.788700  133.675000
  H    -49.851200   65.385600  132.792000
  H    -50.240300   65.234300  134.552000
  C    -50.594800   63.402500  133.528000
  H    -50.177800   62.584000  134.109000
  H    -50.480800   63.089300  132.486000
  H    -51.630700   63.624300  133.695000
  H    -48.495100   67.343300  128.383000
  H    -46.971600   68.194700  136.578000

 Total Charge           Charge          ....    0
 Multiplicity           Mult            ....    1
 Number of Electrons    NEL             ....  134
 Basis Dimension        Dim             ....  322

ORBITAL ENERGIES
----------------

  NO   OCC          E(Eh)            E(eV)
   0   2.0000     -88.973836     -2421.1012
   1   2.0000     -88.961120     -2420.7551
   2   2.0000     -10.336169      -281.2615
   3   2.0000     -10.330230      -281.0999
   4   2.0000     -10.327958      -281.0380
   5   2.0000     -10.311607      -280.5931
   6   2.0000     -10.311195      -280.5819
   7   2.0000     -10.304352      -280.3957
   8   2.0000     -10.301012      -280.3048
   9   2.0000     -10.293390      -280.0974
  10   2.0000     -10.290683      -280.0237
  11   2.0000     -10.287190      -279.9287
  12   2.0000     -10.286075      -279.8983
  13   2.0000     -10.284749      -279.8622
  14   2.0000     -10.283188      -279.8198
  15   2.0000     -10.276372      -279.6343
  16   2.0000      -8.087301      -220.0667
  17   2.0000      -8.076298      -219.7672
  18   2.0000      -6.045958      -164.5189
  19   2.0000      -6.041801      -164.4058
  20   2.0000      -6.038159      -164.3066
  21   2.0000      -6.034961      -164.2197
  22   2.0000      -6.030544      -164.0995
  23   2.0000      -6.027063      -164.0047
  24   2.0000      -1.005451       -27.3597
  25   2.0000      -0.981821       -26.7167
  26   2.0000      -0.906008       -24.6537
  27   2.0000      -0.905090       -24.6288
  28   2.0000      -0.872612       -23.7450
  29   2.0000      -0.848365       -23.0852
  30   2.0000      -0.838272       -22.8105
  31   2.0000      -0.815452       -22.1896
  32   2.0000      -0.781640       -21.2695
  33   2.0000      -0.768206       -20.9040
  34   2.0000      -0.708951       -19.2915
  35   2.0000      -0.701009       -19.0754
  36   2.0000      -0.691595       -18.8193
  37   2.0000      -0.667234       -18.1564
  38   2.0000      -0.644690       -17.5429
  39   2.0000      -0.626218       -17.0403
  40   2.0000      -0.587683       -15.9917
  41   2.0000      -0.574638       -15.6367
  42   2.0000      -0.567513       -15.4428
  43   2.0000      -0.543591       -14.7919
  44   2.0000      -0.542609       -14.7651
  45   2.0000      -0.525706       -14.3052
  46   2.0000      -0.512749       -13.9526
  47   2.0000      -0.509736       -13.8706
  48   2.0000      -0.506335       -13.7781
  49   2.0000      -0.502978       -13.6867
  50   2.0000      -0.488701       -13.2982
  51   2.0000      -0.482240       -13.1224
  52   2.0000      -0.467926       -12.7329
  53   2.0000      -0.463401       -12.6098
  54   2.0000      -0.460409       -12.5284
  55   2.0000      -0.447294       -12.1715
  56   2.0000      -0.442792       -12.0490
  57   2.0000      -0.439011       -11.9461
  58   2.0000      -0.435960       -11.8631
  59   2.0000      -0.424537       -11.5522
  60   2.0000      -0.416361       -11.3298
  61   2.0000      -0.415597       -11.3090
  62   2.0000      -0.401121       -10.9151
  63   2.0000      -0.355058        -9.6616
  64   2.0000      -0.334606        -9.1051
  65   2.0000      -0.324960        -8.8426
  66   2.0000      -0.287932        -7.8350
  67   0.0000       0.020349         0.5537
  68   0.0000       0.070147         1.9088
  69   0.0000       0.104878         2.8539
  70   0.0000       0.119832         3.2608
  71   0.0000       0.130724         3.5572

MULLIKEN ATOMIC CHARGES
-----------------------
   0 S :    0.117765
   1 C :   -0.160755
   2 C :   -0.050623
   3 C :    0.019641
   4 C :   -0.106713
   5 H :   -0.013165
   6 C :    0.072304
   7 H :    0.027639
   8 H :    0.027460
   9 C :   -0.063040
  10 H :    0.014007
  11 H :    0.030152
  12 C :   -0.096412
  13 H :    0.027686
  14 H :    0.037409
  15 H :    0.050564
  16 S :    0.089466
  17 C :   -0.049754
  18 C :   -0.029879
  19 C :   -0.063792
  20 C :   -0.155658
  21 H :    0.005173
  22 C :    0.044141
  23 H :    0.020012
  24 H :    0.030420
  25 C :   -0.070651
  26 H :    0.046967
  27 H :    0.031327
  28 C :   -0.045488
  29 H :    0.032433
  30 H :    0.025857
  31 H :    0.038813
  32 H :    0.077868
  33 H :    0.038828
Sum of atomic charges:    0.0000000

LOEWDIN ATOMIC CHARGES
----------------------
   0 S :    0.400728
   1 C :   -0.200806
   2 C :   -0.058305
   3 C :   -0.051626
   4 C :   -0.190516
   5 H :    0.016572
   6 C :   -0.026286
   7 H :    0.033128
   8 H :    0.031901
   9 C :   -0.038447
  10 H :    0.015589
  11 H :    0.024255
  12 C :   -0.074040
  13 H :    0.022459
  14 H :    0.026900
  15 H :    0.028919
  16 S :    0.408811
  17 C :   -0.177150
  18 C :   -0.071171
  19 C :   -0.053346
  20 C :   -0.201733
  21 H :    0.020898
  22 C :   -0.039840
  23 H :    0.030628
  24 H :    0.030646
  25 C :   -0.026515
  26 H :    0.023509
  27 H :    0.026436
  28 C :   -0.065653
  29 H :    0.023340
  30 H :    0.024241
  31 H :    0.023261
  32 H :    0.038190
  33 H :    0.025022

  Mayer bond orders larger than 0.100000
B(  0-S ,  1-C ) :   1.1599 B(  0-S ,  4-C ) :   1.1353 B(  1-C ,  2-C ) :   1.5492
B(  1-C ,  4-C ) :   0.1077 B(  1-C , 32-H ) :   0.9655 B(  2-C ,  3-C ) :   1.2896
B(  2-C ,  6-C ) :   1.0158 B(  3-C ,  4-C ) :   1.5201 B(  3-C ,  5-H ) :   1.0036
B(  4-C , 20-C ) :   1.0927 B(  6-C ,  7-H ) :   0.9416 B(  6-C ,  8-H ) :   0.9505
B(  6-C ,  9-C ) :   1.0651 B(  9-C , 10-H ) :   0.9570 B(  9-C , 11-H ) :   0.9606
B(  9-C , 12-C ) :   1.0723 B( 12-C , 13-H ) :   0.9769 B( 12-C , 14-H ) :   0.9751
B( 12-C , 15-H ) :   0.9758 B( 16-S , 17-C ) :   1.1548 B( 16-S , 20-C ) :   1.1284
B( 17-C , 18-C ) :   1.6219 B( 17-C , 33-H ) :   0.9706 B( 18-C , 19-C ) :   1.2505
B( 18-C , 21-H ) :   0.9904 B( 19-C , 20-C ) :   1.5635 B( 19-C , 22-C ) :   1.0522
B( 22-C , 23-H ) :   0.9317 B( 22-C , 24-H ) :   0.9324 B( 22-C , 25-C ) :   1.0657
B( 25-C , 26-H ) :   0.9619 B( 25-C , 27-H ) :   0.9581 B( 25-C , 28-C ) :   1.0648
B( 28-C , 29-H ) :   0.9767 B( 28-C , 30-H ) :   0.9788 B( 28-C , 31-H ) :   0.9805

Dispersion correction           -0.014733362
FINAL SINGLE POINT ENERGY     -1339.865923820530

DIPOLE MOMENT
-------------
                                X             Y             Z
Electronic contribution:      0.96785      25.32758       7.80266
Nuclear contribution   :     -1.16377     -26.02731      -7.89637
                        -----------------------------------------
Total Dipole Moment    :     -0.19592      -0.69973      -0.09371
                        -----------------------------------------
Magnitude (a.u.)       :      0.73266
Magnitude (Debye)      :      1.86227

Rotational constants in cm-1:     0.017585     0.008905     0.007640
Rotational constants in MHz :   527.182966   266.967237   229.040640

                             ****ORCA TERMINATED NORMALLY****
TOTAL RUN TIME: 0 days 0 hours 0 minutes 34 seconds 197 msec
