                         Program Version 4.2.1 -  RELEASE  -
|  1> ! wB97X-D3 SP def2-SVP
|  2> %pal
|  3> nprocs 16
|  4> end
|  5>
|  6> * xyz 0 1
|  7> S 	 -1.73916 	 -12.7348 	 84.6248
|  8> C 	 0.0159564 	 -12.6001 	 84.1229
|  9> C 	 0.833454 	 -12.9126 	 85.1717
| 10> C 	 0.043966 	 -13.3602 	 86.2983
| 11> C 	 -1.32112 	 -13.2969 	 86.1759
| 12> H 	 0.5162 	 -13.7378 	 87.221
| 13> C 	 2.33612 	 -13.0142 	 85.099
| 14> H 	 2.69251 	 -12.3927 	 84.1896
| 15> H 	 2.61762 	 -14.0732 	 84.8548
| 16> C 	 3.06145 	 -12.6615 	 86.3798
| 17> H 	 2.76947 	 -13.3269 	 87.2092
| 18> H 	 4.05411 	 -12.8047 	 86.2444
| 19> C 	 2.83475 	 -11.1986 	 86.786
| 20> H 	 3.36758 	 -10.5374 	 86.0982
| 21> H 	 1.83716 	 -10.8646 	 86.7162
| 22> H 	 3.16691 	 -10.902 	 87.7614
| 23> S 	 -3.5344 	 -14.9776 	 86.4747
| 24> C 	 -3.97542 	 -15.401 	 88.0851
| 25> C 	 -3.36182 	 -14.594 	 89.0056
| 26> C 	 -2.40019 	 -13.7127 	 88.4721
| 27> C 	 -2.30655 	 -13.8429 	 87.107
| 28> H 	 -3.70692 	 -14.5982 	 90.045
| 29> C 	 -1.66814 	 -12.7568 	 89.3959
| 30> H 	 -0.606649 	 -12.6379 	 89.1614
| 31> H 	 -1.63857 	 -13.0818 	 90.4671
| 32> C 	 -2.33474 	 -11.3744 	 89.5545
| 33> H 	 -2.3122 	 -10.8605 	 88.6265
| 34> H 	 -1.79593 	 -10.7443 	 90.2555
| 35> C 	 -3.75126 	 -11.4071 	 90.0808
| 36> H 	 -4.48281 	 -11.906 	 89.3524
| 37> H 	 -4.02798 	 -10.3384 	 90.2822
| 38> H 	 -3.70609 	 -11.9107 	 91.0257
| 39> H 	 0.383077 	 -12.4349 	 83.1174
| 40> H 	 -4.63372 	 -16.2183 	 88.2552
| 41> *
| 42>
| 43>                          ****END OF INPUT****

CARTESIAN COORDINATES (ANGSTROEM)
---------------------------------
  S     -1.739160  -12.734800   84.624800
  C      0.015956  -12.600100   84.122900
  C      0.833454  -12.912600   85.171700
  C      0.043966  -13.360200   86.298300
  C     -1.321120  -13.296900   86.175900
  H      0.516200  -13.737800   87.221000
  C      2.336120  -13.014200   85.099000
  H      2.692510  -12.392700   84.189600
  H      2.617620  -14.073200   84.854800
  C      3.061450  -12.661500   86.379800
  H      2.769470  -13.326900   87.209200
  H      4.054110  -12.804700   86.244400
  C      2.834750  -11.198600   86.786000
  H      3.367580  -10.537400   86.098200
  H      1.837160  -10.864600   86.716200
  H      3.166910  -10.902000   87.761400
  S     -3.534400  -14.977600   86.474700
  C     -3.975420  -15.401000   88.085100
  C     -3.361820  -14.594000   89.005600
  C     -2.400190  -13.712700   88.472100
  C     -2.306550  -13.842900   87.107000
  H     -3.706920  -14.598200   90.045000
  C     -1.668140  -12.756800   89.395900
  H     -0.606649  -12.637900   89.161400
  H     -1.638570  -13.081800   90.467100
  C     -2.334740  -11.374400   89.554500
  H     -2.312200  -10.860500   88.626500
  H     -1.795930  -10.744300   90.255500
  C     -3.751260  -11.407100   90.080800
  H     -4.482810  -11.906000   89.352400
  H     -4.027980  -10.338400   90.282200
  H     -3.706090  -11.910700   91.025700
  H      0.383077  -12.434900   83.117400
  H     -4.633720  -16.218300   88.255200

 Total Charge           Charge          ....    0
 Multiplicity           Mult            ....    1
 Number of Electrons    NEL             ....  134
 Basis Dimension        Dim             ....  322

ORBITAL ENERGIES
----------------

  NO   OCC          E(Eh)            E(eV)
   0   2.0000     -88.966101     -2420.8907
   1   2.0000     -88.962972     -2420.8055
   2   2.0000     -10.330126      -281.0970
   3   2.0000     -10.326765      -281.0056
   4   2.0000     -10.315628      -280.7025
   5   2.0000     -10.315115      -280.6886
   6   2.0000     -10.304100      -280.3888
   7   2.0000     -10.303497      -280.3724
   8   2.0000     -10.301435      -280.3163
   9   2.0000     -10.295466      -280.1539
  10   2.0000     -10.292194      -280.0648
  11   2.0000     -10.292161      -280.0639
  12   2.0000     -10.282377      -279.7977
  13   2.0000     -10.279341      -279.7151
  14   2.0000     -10.277744      -279.6716
  15   2.0000     -10.268571      -279.4220
  16   2.0000      -8.081130      -219.8987
  17   2.0000      -8.077584      -219.8022
  18   2.0000      -6.039526      -164.3439
  19   2.0000      -6.036255      -164.2549
  20   2.0000      -6.035685      -164.2393
  21   2.0000      -6.032137      -164.1428
  22   2.0000      -6.031901      -164.1364
  23   2.0000      -6.028151      -164.0343
  24   2.0000      -1.009024       -27.4570
  25   2.0000      -0.985487       -26.8165
  26   2.0000      -0.918218       -24.9860
  27   2.0000      -0.911536       -24.8041
  28   2.0000      -0.870930       -23.6992
  29   2.0000      -0.853667       -23.2295
  30   2.0000      -0.837360       -22.7857
  31   2.0000      -0.811025       -22.0691
  32   2.0000      -0.786158       -21.3924
  33   2.0000      -0.778248       -21.1772
  34   2.0000      -0.713769       -19.4226
  35   2.0000      -0.700827       -19.0705
  36   2.0000      -0.686421       -18.6785
  37   2.0000      -0.662550       -18.0289
  38   2.0000      -0.634738       -17.2721
  39   2.0000      -0.620137       -16.8748
  40   2.0000      -0.602226       -16.3874
  41   2.0000      -0.565714       -15.3939
  42   2.0000      -0.558375       -15.1942
  43   2.0000      -0.554770       -15.0961
  44   2.0000      -0.546942       -14.8830
  45   2.0000      -0.541026       -14.7221
  46   2.0000      -0.519968       -14.1491
  47   2.0000      -0.508476       -13.8363
  48   2.0000      -0.503959       -13.7134
  49   2.0000      -0.491876       -13.3846
  50   2.0000      -0.485913       -13.2224
  51   2.0000      -0.480083       -13.0637
  52   2.0000      -0.469202       -12.7676
  53   2.0000      -0.467999       -12.7349
  54   2.0000      -0.455994       -12.4082
  55   2.0000      -0.447144       -12.1674
  56   2.0000      -0.441824       -12.0226
  57   2.0000      -0.438334       -11.9277
  58   2.0000      -0.431983       -11.7548
  59   2.0000      -0.426222       -11.5981
  60   2.0000      -0.420517       -11.4428
  61   2.0000      -0.418041       -11.3755
  62   2.0000      -0.414241       -11.2721
  63   2.0000      -0.348092        -9.4721
  64   2.0000      -0.334500        -9.1022
  65   2.0000      -0.328471        -8.9382
  66   2.0000      -0.291305        -7.9268
  67   0.0000       0.028722         0.7816
  68   0.0000       0.069647         1.8952
  69   0.0000       0.106607         2.9009
  70   0.0000       0.123123         3.3503
  71   0.0000       0.127791         3.4774

MULLIKEN ATOMIC CHARGES
-----------------------
   0 S :    0.085092
   1 C :   -0.136372
   2 C :   -0.067845
   3 C :   -0.000159
   4 C :   -0.123332
   5 H :    0.016162
   6 C :    0.019326
   7 H :    0.035524
   8 H :    0.053604
   9 C :   -0.026209
  10 H :    0.032845
  11 H :    0.005899
  12 C :   -0.036233
  13 H :    0.016135
  14 H :    0.028655
  15 H :    0.022496
  16 S :    0.108705
  17 C :   -0.086445
  18 C :   -0.038782
  19 C :   -0.008189
  20 C :   -0.158665
  21 H :    0.026499
  22 C :    0.058609
  23 H :    0.025511
  24 H :    0.021256
  25 C :   -0.060566
  26 H :    0.024506
  27 H :    0.022830
  28 C :   -0.080903
  29 H :    0.065703
  30 H :    0.041430
  31 H :    0.017011
  32 H :    0.044623
  33 H :    0.051279
Sum of atomic charges:   -0.0000000

LOEWDIN ATOMIC CHARGES
----------------------
   0 S :    0.384268
   1 C :   -0.175348
   2 C :   -0.063989
   3 C :   -0.071863
   4 C :   -0.204472
   5 H :    0.029083
   6 C :   -0.033542
   7 H :    0.038851
   8 H :    0.041572
   9 C :   -0.035407
  10 H :    0.027221
  11 H :    0.013272
  12 C :   -0.062260
  13 H :    0.025842
  14 H :    0.020498
  15 H :    0.021945
  16 S :    0.402022
  17 C :   -0.180302
  18 C :   -0.072996
  19 C :   -0.054866
  20 C :   -0.183534
  21 H :    0.034959
  22 C :   -0.033836
  23 H :    0.029987
  24 H :    0.033176
  25 C :   -0.038676
  26 H :    0.017563
  27 H :    0.023706
  28 C :   -0.070514
  29 H :    0.036337
  30 H :    0.033268
  31 H :    0.015966
  32 H :    0.028123
  33 H :    0.023944

  Mayer bond orders larger than 0.100000
B(  0-S ,  1-C ) :   1.1091 B(  0-S ,  4-C ) :   1.1426 B(  1-C ,  2-C ) :   1.6413
B(  1-C , 32-H ) :   0.9683 B(  2-C ,  3-C ) :   1.2152 B(  2-C ,  6-C ) :   1.0209
B(  3-C ,  4-C ) :   1.6035 B(  3-C ,  5-H ) :   0.9831 B(  4-C , 20-C ) :   1.0293
B(  6-C ,  7-H ) :   0.9429 B(  6-C ,  8-H ) :   0.9352 B(  6-C ,  9-C ) :   1.0830
B(  9-C , 10-H ) :   0.9489 B(  9-C , 11-H ) :   0.9498 B(  9-C , 12-C ) :   1.0709
B( 12-C , 13-H ) :   0.9720 B( 12-C , 14-H ) :   0.9775 B( 12-C , 15-H ) :   0.9752
B( 16-S , 17-C ) :   1.1637 B( 16-S , 20-C ) :   1.1349 B( 17-C , 18-C ) :   1.5923
B( 17-C , 20-C ) :   0.1002 B( 17-C , 33-H ) :   0.9744 B( 18-C , 19-C ) :   1.2445
B( 18-C , 21-H ) :   0.9888 B( 19-C , 20-C ) :   1.6042 B( 19-C , 22-C ) :   1.0388
B( 22-C , 23-H ) :   0.9309 B( 22-C , 24-H ) :   0.9401 B( 22-C , 25-C ) :   1.0757
B( 25-C , 26-H ) :   0.9540 B( 25-C , 27-H ) :   0.9553 B( 25-C , 28-C ) :   1.0856
B( 28-C , 29-H ) :   0.9690 B( 28-C , 30-H ) :   0.9720 B( 28-C , 31-H ) :   0.9722

Dispersion correction           -0.014818210
FINAL SINGLE POINT ENERGY     -1339.882292699712

DIPOLE MOMENT
-------------
                                X             Y             Z
Electronic contribution:    -15.89781     -13.11332     -15.80237
Nuclear contribution   :     16.40332      13.09889      16.27363
                        -----------------------------------------
Total Dipole Moment    :      0.50552      -0.01442       0.47125
                        -----------------------------------------
Magnitude (a.u.)       :      0.69126
Magnitude (Debye)      :      1.75703

Rotational constants in cm-1:     0.019206     0.009140     0.007292
Rotational constants in MHz :   575.767438   273.998194   218.599298

                             ****ORCA TERMINATED NORMALLY****
TOTAL RUN TIME: 0 days 0 hours 0 minutes 35 seconds 197 msec
