                         Program Version 4.2.1 -  RELEASE  -
|  1> ! wB97X-D3 SP def2-SVP
|  2> %pal
|  3> nprocs 16
|  4> end
|  5>
|  6> * xyz 0 1
|  7> S 	 -44.4718 	 16.6816 	 81.7644
|  8> C 	 -43.1647 	 15.5611 	 81.9447
|  9> C 	 -42.3022 	 15.9292 	 82.9184
| 10> C 	 -42.7079 	 17.242 	 83.5036
| 11> C 	 -43.9011 	 17.7601 	 82.9673
| 12> H 	 -42.1864 	 17.8433 	 84.2815
| 13> C 	 -41.0798 	 15.1427 	 83.2466
| 14> H 	 -41.2736 	 14.142 	 83.5064
| 15> H 	 -40.657 	 15.6359 	 84.1817
| 16> C 	 -40.0421 	 15.2736 	 82.1408
| 17> H 	 -39.2473 	 14.5886 	 82.4524
| 18> H 	 -40.4773 	 14.8333 	 81.2193
| 19> C 	 -39.3714 	 16.674 	 81.9786
| 20> H 	 -38.8432 	 17.1259 	 82.8047
| 21> H 	 -38.7504 	 16.737 	 81.0374
| 22> H 	 -40.093 	 17.3744 	 81.6364
| 23> S 	 -44.2742 	 20.3969 	 82.4185
| 24> C 	 -45.6935 	 21.146 	 83.0185
| 25> C 	 -46.2746 	 20.3684 	 83.9882
| 26> C 	 -45.6151 	 19.1618 	 84.1541
| 27> C 	 -44.5518 	 18.9666 	 83.3422
| 28> H 	 -47.1383 	 20.7087 	 84.5358
| 29> C 	 -46.0496 	 18.1071 	 85.1947
| 30> H 	 -46.1738 	 17.2412 	 84.6138
| 31> H 	 -47.007 	 18.4711 	 85.5315
| 32> C 	 -45.1258 	 17.9209 	 86.4358
| 33> H 	 -44.1574 	 17.5909 	 86.0707
| 34> H 	 -45.4613 	 17.1385 	 87.1021
| 35> C 	 -45.0123 	 19.1402 	 87.3863
| 36> H 	 -44.316 	 18.8201 	 88.1284
| 37> H 	 -45.9385 	 19.3975 	 87.9191
| 38> H 	 -44.6159 	 19.9708 	 86.7763
| 39> H 	 -43.0163 	 14.6504 	 81.2913
| 40> H 	 -46.0723 	 22.1469 	 82.8051
| 41> *
| 42>
| 43>                          ****END OF INPUT****

CARTESIAN COORDINATES (ANGSTROEM)
---------------------------------
  S    -44.471800   16.681600   81.764400
  C    -43.164700   15.561100   81.944700
  C    -42.302200   15.929200   82.918400
  C    -42.707900   17.242000   83.503600
  C    -43.901100   17.760100   82.967300
  H    -42.186400   17.843300   84.281500
  C    -41.079800   15.142700   83.246600
  H    -41.273600   14.142000   83.506400
  H    -40.657000   15.635900   84.181700
  C    -40.042100   15.273600   82.140800
  H    -39.247300   14.588600   82.452400
  H    -40.477300   14.833300   81.219300
  C    -39.371400   16.674000   81.978600
  H    -38.843200   17.125900   82.804700
  H    -38.750400   16.737000   81.037400
  H    -40.093000   17.374400   81.636400
  S    -44.274200   20.396900   82.418500
  C    -45.693500   21.146000   83.018500
  C    -46.274600   20.368400   83.988200
  C    -45.615100   19.161800   84.154100
  C    -44.551800   18.966600   83.342200
  H    -47.138300   20.708700   84.535800
  C    -46.049600   18.107100   85.194700
  H    -46.173800   17.241200   84.613800
  H    -47.007000   18.471100   85.531500
  C    -45.125800   17.920900   86.435800
  H    -44.157400   17.590900   86.070700
  H    -45.461300   17.138500   87.102100
  C    -45.012300   19.140200   87.386300
  H    -44.316000   18.820100   88.128400
  H    -45.938500   19.397500   87.919100
  H    -44.615900   19.970800   86.776300
  H    -43.016300   14.650400   81.291300
  H    -46.072300   22.146900   82.805100

 Total Charge           Charge          ....    0
 Multiplicity           Mult            ....    1
 Number of Electrons    NEL             ....  134
 Basis Dimension        Dim             ....  322

ORBITAL ENERGIES
----------------

  NO   OCC          E(Eh)            E(eV)
   0   2.0000     -88.963797     -2420.8280
   1   2.0000     -88.963522     -2420.8205
   2   2.0000     -10.324935      -280.9558
   3   2.0000     -10.314579      -280.6740
   4   2.0000     -10.313280      -280.6386
   5   2.0000     -10.312630      -280.6209
   6   2.0000     -10.303135      -280.3626
   7   2.0000     -10.300760      -280.2979
   8   2.0000     -10.292804      -280.0814
   9   2.0000     -10.292303      -280.0678
  10   2.0000     -10.290819      -280.0274
  11   2.0000     -10.285945      -279.8948
  12   2.0000     -10.282265      -279.7947
  13   2.0000     -10.281712      -279.7796
  14   2.0000     -10.278385      -279.6891
  15   2.0000     -10.274210      -279.5755
  16   2.0000      -8.079508      -219.8546
  17   2.0000      -8.079303      -219.8490
  18   2.0000      -6.037879      -164.2990
  19   2.0000      -6.037783      -164.2964
  20   2.0000      -6.033679      -164.1848
  21   2.0000      -6.033539      -164.1810
  22   2.0000      -6.030486      -164.0979
  23   2.0000      -6.030194      -164.0899
  24   2.0000      -1.017493       -27.6874
  25   2.0000      -0.991098       -26.9691
  26   2.0000      -0.916847       -24.9487
  27   2.0000      -0.901832       -24.5401
  28   2.0000      -0.873450       -23.7678
  29   2.0000      -0.850125       -23.1331
  30   2.0000      -0.838869       -22.8268
  31   2.0000      -0.813832       -22.1455
  32   2.0000      -0.786107       -21.3911
  33   2.0000      -0.774942       -21.0873
  34   2.0000      -0.706846       -19.2342
  35   2.0000      -0.704115       -19.1600
  36   2.0000      -0.689304       -18.7569
  37   2.0000      -0.665252       -18.1024
  38   2.0000      -0.640504       -17.4290
  39   2.0000      -0.607083       -16.5196
  40   2.0000      -0.585878       -15.9426
  41   2.0000      -0.579448       -15.7676
  42   2.0000      -0.554105       -15.0780
  43   2.0000      -0.553303       -15.0561
  44   2.0000      -0.547094       -14.8872
  45   2.0000      -0.538321       -14.6485
  46   2.0000      -0.516040       -14.0422
  47   2.0000      -0.511454       -13.9174
  48   2.0000      -0.505292       -13.7497
  49   2.0000      -0.497107       -13.5270
  50   2.0000      -0.484065       -13.1721
  51   2.0000      -0.478457       -13.0195
  52   2.0000      -0.473253       -12.8779
  53   2.0000      -0.465339       -12.6625
  54   2.0000      -0.461903       -12.5690
  55   2.0000      -0.448968       -12.2170
  56   2.0000      -0.442306       -12.0358
  57   2.0000      -0.437764       -11.9122
  58   2.0000      -0.429650       -11.6914
  59   2.0000      -0.423507       -11.5242
  60   2.0000      -0.419432       -11.4133
  61   2.0000      -0.410553       -11.1717
  62   2.0000      -0.405306       -11.0289
  63   2.0000      -0.336519        -9.1572
  64   2.0000      -0.324494        -8.8299
  65   2.0000      -0.321185        -8.7399
  66   2.0000      -0.316347        -8.6082
  67   0.0000       0.047404         1.2899
  68   0.0000       0.054645         1.4870
  69   0.0000       0.118096         3.2136
  70   0.0000       0.129438         3.5222
  71   0.0000       0.136441         3.7128

MULLIKEN ATOMIC CHARGES
-----------------------
   0 S :    0.130845
   1 C :   -0.158442
   2 C :   -0.090003
   3 C :    0.031978
   4 C :   -0.176300
   5 H :    0.028592
   6 C :    0.076848
   7 H :    0.027212
   8 H :    0.022121
   9 C :   -0.075782
  10 H :    0.028521
  11 H :    0.031540
  12 C :   -0.051234
  13 H :    0.042553
  14 H :    0.032630
  15 H :    0.024419
  16 S :    0.127246
  17 C :   -0.090365
  18 C :   -0.043979
  19 C :   -0.064309
  20 C :   -0.198808
  21 H :    0.012262
  22 C :    0.163212
  23 H :    0.020317
  24 H :   -0.005374
  25 C :   -0.069451
  26 H :    0.020471
  27 H :    0.022947
  28 C :   -0.059673
  29 H :    0.028924
  30 H :    0.034981
  31 H :    0.047430
  32 H :    0.071990
  33 H :    0.056682
Sum of atomic charges:   -0.0000000

LOEWDIN ATOMIC CHARGES
----------------------
   0 S :    0.429291
   1 C :   -0.210942
   2 C :   -0.069614
   3 C :   -0.063305
   4 C :   -0.216920
   5 H :    0.034251
   6 C :   -0.034331
   7 H :    0.026182
   8 H :    0.036291
   9 C :   -0.037116
  10 H :    0.023435
  11 H :    0.025943
  12 C :   -0.074147
  13 H :    0.026575
  14 H :    0.037391
  15 H :    0.023033
  16 S :    0.438725
  17 C :   -0.191477
  18 C :   -0.079286
  19 C :   -0.053381
  20 C :   -0.226860
  21 H :    0.031519
  22 C :   -0.017866
  23 H :    0.024985
  24 H :    0.021659
  25 C :   -0.036230
  26 H :    0.020095
  27 H :    0.022619
  28 C :   -0.064553
  29 H :    0.024047
  30 H :    0.025199
  31 H :    0.028569
  32 H :    0.042246
  33 H :    0.033975

  Mayer bond orders larger than 0.100000
B(  0-S ,  1-C ) :   1.1448 B(  0-S ,  4-C ) :   1.1534 B(  1-C ,  2-C ) :   1.6245
B(  1-C , 32-H ) :   0.9584 B(  2-C ,  3-C ) :   1.2206 B(  2-C ,  6-C ) :   1.0221
B(  3-C ,  4-C ) :   1.5836 B(  3-C ,  5-H ) :   0.9815 B(  4-C , 20-C ) :   1.0325
B(  6-C ,  7-H ) :   0.9391 B(  6-C ,  8-H ) :   0.9389 B(  6-C ,  9-C ) :   1.0783
B(  9-C , 10-H ) :   0.9561 B(  9-C , 11-H ) :   0.9573 B(  9-C , 12-C ) :   1.0675
B( 12-C , 13-H ) :   0.9769 B( 12-C , 14-H ) :   0.9696 B( 12-C , 15-H ) :   0.9713
B( 16-S , 17-C ) :   1.1876 B( 16-S , 20-C ) :   1.1510 B( 17-C , 18-C ) :   1.5684
B( 17-C , 33-H ) :   0.9631 B( 18-C , 19-C ) :   1.2877 B( 18-C , 21-H ) :   0.9952
B( 19-C , 20-C ) :   1.5830 B( 19-C , 22-C ) :   1.0191 B( 22-C , 23-H ) :   0.9197
B( 22-C , 24-H ) :   0.9314 B( 22-C , 25-C ) :   1.0736 B( 25-C , 26-H ) :   0.9552
B( 25-C , 27-H ) :   0.9563 B( 25-C , 28-C ) :   1.0746 B( 28-C , 29-H ) :   0.9737
B( 28-C , 30-H ) :   0.9750 B( 28-C , 31-H ) :   0.9777

Dispersion correction           -0.015370311
FINAL SINGLE POINT ENERGY     -1339.875840746221

DIPOLE MOMENT
-------------
                                X             Y             Z
Electronic contribution:    -11.78947       7.60354     -14.45538
Nuclear contribution   :     11.93312      -7.78575      14.77551
                        -----------------------------------------
Total Dipole Moment    :      0.14366      -0.18222       0.32013
                        -----------------------------------------
Magnitude (a.u.)       :      0.39538
Magnitude (Debye)      :      1.00497

Rotational constants in cm-1:     0.021124     0.008419     0.007492
Rotational constants in MHz :   633.287024   252.407241   224.598684

                             ****ORCA TERMINATED NORMALLY****
TOTAL RUN TIME: 0 days 0 hours 0 minutes 29 seconds 365 msec
