                         Program Version 4.2.1 -  RELEASE  -
|  1> ! wB97X-D3 SP def2-SVP
|  2> %pal
|  3> nprocs 16
|  4> end
|  5>
|  6> * xyz 0 1
|  7> S 	 -43.8449 	 14.9063 	 76.3322
|  8> C 	 -42.3626 	 15.8146 	 76.3558
|  9> C 	 -41.3272 	 15.1467 	 75.7597
| 10> C 	 -41.7503 	 13.8964 	 75.2224
| 11> C 	 -43.0962 	 13.7427 	 75.3172
| 12> H 	 -41.2421 	 13.0723 	 74.744
| 13> C 	 -39.9947 	 15.7091 	 75.4346
| 14> H 	 -39.8215 	 16.4889 	 76.1742
| 15> H 	 -40.178 	 16.2099 	 74.4968
| 16> C 	 -38.7822 	 14.7729 	 75.3711
| 17> H 	 -38.801 	 14.217 	 76.3129
| 18> H 	 -38.7905 	 14.0612 	 74.5553
| 19> C 	 -37.4189 	 15.4618 	 75.3433
| 20> H 	 -37.2087 	 16.2045 	 76.1958
| 21> H 	 -36.6517 	 14.6829 	 75.5273
| 22> H 	 -37.3273 	 16.0207 	 74.4804
| 23> S 	 -44.9548 	 12.8332 	 73.4908
| 24> C 	 -45.3737 	 11.2439 	 73.3854
| 25> C 	 -44.6322 	 10.4848 	 74.2426
| 26> C 	 -43.7951 	 11.2726 	 75.0187
| 27> C 	 -43.8869 	 12.6298 	 74.7782
| 28> H 	 -44.8778 	 9.39799 	 74.2994
| 29> C 	 -42.9066 	 10.5375 	 76.0154
| 30> H 	 -43.6053 	 10.0039 	 76.7688
| 31> H 	 -42.2205 	 11.2024 	 76.5131
| 32> C 	 -42.0407 	 9.42327 	 75.4091
| 33> H 	 -41.5093 	 9.71263 	 74.5652
| 34> H 	 -42.6486 	 8.54184 	 75.2191
| 35> C 	 -41.0369 	 9.01021 	 76.4388
| 36> H 	 -41.5873 	 8.71757 	 77.3431
| 37> H 	 -40.2587 	 9.7349 	 76.8323
| 38> H 	 -40.5303 	 8.06129 	 76.1903
| 39> H 	 -42.0852 	 16.6358 	 76.9611
| 40> H 	 -46.2321 	 10.8211 	 72.8041
| 41> *
| 42>
| 43>                          ****END OF INPUT****

CARTESIAN COORDINATES (ANGSTROEM)
---------------------------------
  S    -43.844900   14.906300   76.332200
  C    -42.362600   15.814600   76.355800
  C    -41.327200   15.146700   75.759700
  C    -41.750300   13.896400   75.222400
  C    -43.096200   13.742700   75.317200
  H    -41.242100   13.072300   74.744000
  C    -39.994700   15.709100   75.434600
  H    -39.821500   16.488900   76.174200
  H    -40.178000   16.209900   74.496800
  C    -38.782200   14.772900   75.371100
  H    -38.801000   14.217000   76.312900
  H    -38.790500   14.061200   74.555300
  C    -37.418900   15.461800   75.343300
  H    -37.208700   16.204500   76.195800
  H    -36.651700   14.682900   75.527300
  H    -37.327300   16.020700   74.480400
  S    -44.954800   12.833200   73.490800
  C    -45.373700   11.243900   73.385400
  C    -44.632200   10.484800   74.242600
  C    -43.795100   11.272600   75.018700
  C    -43.886900   12.629800   74.778200
  H    -44.877800    9.397990   74.299400
  C    -42.906600   10.537500   76.015400
  H    -43.605300   10.003900   76.768800
  H    -42.220500   11.202400   76.513100
  C    -42.040700    9.423270   75.409100
  H    -41.509300    9.712630   74.565200
  H    -42.648600    8.541840   75.219100
  C    -41.036900    9.010210   76.438800
  H    -41.587300    8.717570   77.343100
  H    -40.258700    9.734900   76.832300
  H    -40.530300    8.061290   76.190300
  H    -42.085200   16.635800   76.961100
  H    -46.232100   10.821100   72.804100

 Total Charge           Charge          ....    0
 Multiplicity           Mult            ....    1
 Number of Electrons    NEL             ....  134
 Basis Dimension        Dim             ....  322

ORBITAL ENERGIES
----------------

  NO   OCC          E(Eh)            E(eV)
   0   2.0000     -88.965151     -2420.8648
   1   2.0000     -88.960856     -2420.7480
   2   2.0000     -10.321530      -280.8631
   3   2.0000     -10.315735      -280.7054
   4   2.0000     -10.307283      -280.4754
   5   2.0000     -10.304042      -280.3872
   6   2.0000     -10.296078      -280.1705
   7   2.0000     -10.294120      -280.1172
   8   2.0000     -10.291686      -280.0510
   9   2.0000     -10.288778      -279.9719
  10   2.0000     -10.288633      -279.9679
  11   2.0000     -10.287629      -279.9406
  12   2.0000     -10.284371      -279.8520
  13   2.0000     -10.281494      -279.7737
  14   2.0000     -10.278139      -279.6824
  15   2.0000     -10.278008      -279.6788
  16   2.0000      -8.080653      -219.8858
  17   2.0000      -8.078886      -219.8377
  18   2.0000      -6.039086      -164.3319
  19   2.0000      -6.036921      -164.2730
  20   2.0000      -6.035156      -164.2250
  21   2.0000      -6.032754      -164.1596
  22   2.0000      -6.031346      -164.1213
  23   2.0000      -6.030095      -164.0872
  24   2.0000      -1.024303       -27.8727
  25   2.0000      -0.999651       -27.2019
  26   2.0000      -0.916885       -24.9497
  27   2.0000      -0.915608       -24.9150
  28   2.0000      -0.874067       -23.7846
  29   2.0000      -0.856594       -23.3091
  30   2.0000      -0.852457       -23.1965
  31   2.0000      -0.819466       -22.2988
  32   2.0000      -0.782082       -21.2815
  33   2.0000      -0.768888       -20.9225
  34   2.0000      -0.710387       -19.3306
  35   2.0000      -0.698438       -19.0055
  36   2.0000      -0.691749       -18.8235
  37   2.0000      -0.654740       -17.8164
  38   2.0000      -0.643622       -17.5138
  39   2.0000      -0.620797       -16.8927
  40   2.0000      -0.600768       -16.3477
  41   2.0000      -0.578569       -15.7437
  42   2.0000      -0.574154       -15.6235
  43   2.0000      -0.568449       -15.4683
  44   2.0000      -0.537639       -14.6299
  45   2.0000      -0.521663       -14.1952
  46   2.0000      -0.514199       -13.9921
  47   2.0000      -0.512126       -13.9357
  48   2.0000      -0.507758       -13.8168
  49   2.0000      -0.494919       -13.4674
  50   2.0000      -0.484904       -13.1949
  51   2.0000      -0.482511       -13.1298
  52   2.0000      -0.471786       -12.8380
  53   2.0000      -0.470134       -12.7930
  54   2.0000      -0.462655       -12.5895
  55   2.0000      -0.449158       -12.2222
  56   2.0000      -0.441298       -12.0083
  57   2.0000      -0.433139       -11.7863
  58   2.0000      -0.430063       -11.7026
  59   2.0000      -0.427716       -11.6387
  60   2.0000      -0.425896       -11.5892
  61   2.0000      -0.420158       -11.4331
  62   2.0000      -0.413715       -11.2578
  63   2.0000      -0.339700        -9.2437
  64   2.0000      -0.328650        -8.9430
  65   2.0000      -0.327272        -8.9055
  66   2.0000      -0.302832        -8.2405
  67   0.0000       0.045011         1.2248
  68   0.0000       0.074028         2.0144
  69   0.0000       0.116670         3.1747
  70   0.0000       0.123879         3.3709
  71   0.0000       0.132837         3.6147

MULLIKEN ATOMIC CHARGES
-----------------------
   0 S :    0.129909
   1 C :   -0.091512
   2 C :   -0.100420
   3 C :    0.038630
   4 C :   -0.183192
   5 H :    0.008915
   6 C :    0.082250
   7 H :    0.008527
   8 H :    0.045527
   9 C :   -0.085380
  10 H :    0.027161
  11 H :    0.036694
  12 C :   -0.048223
  13 H :    0.030773
  14 H :    0.041947
  15 H :    0.024012
  16 S :    0.136780
  17 C :   -0.107985
  18 C :   -0.070816
  19 C :   -0.007931
  20 C :   -0.169605
  21 H :    0.032222
  22 C :    0.034078
  23 H :    0.046151
  24 H :    0.017568
  25 C :   -0.024806
  26 H :    0.019935
  27 H :    0.027513
  28 C :   -0.081118
  29 H :    0.011929
  30 H :    0.044460
  31 H :    0.028552
  32 H :    0.026775
  33 H :    0.070681
Sum of atomic charges:   -0.0000000

LOEWDIN ATOMIC CHARGES
----------------------
   0 S :    0.426523
   1 C :   -0.205715
   2 C :   -0.060558
   3 C :   -0.062028
   4 C :   -0.198535
   5 H :    0.033168
   6 C :   -0.032653
   7 H :    0.029166
   8 H :    0.037505
   9 C :   -0.042051
  10 H :    0.027078
  11 H :    0.024081
  12 C :   -0.062374
  13 H :    0.030770
  14 H :    0.032996
  15 H :    0.012168
  16 S :    0.481148
  17 C :   -0.226039
  18 C :   -0.087969
  19 C :   -0.064213
  20 C :   -0.240256
  21 H :    0.039868
  22 C :   -0.029063
  23 H :    0.043128
  24 H :    0.022239
  25 C :   -0.036033
  26 H :    0.014916
  27 H :    0.026619
  28 C :   -0.075960
  29 H :    0.022544
  30 H :    0.029964
  31 H :    0.025417
  32 H :    0.021790
  33 H :    0.042360

  Mayer bond orders larger than 0.100000
B(  0-S ,  1-C ) :   1.1237 B(  0-S ,  4-C ) :   1.1721 B(  1-C ,  2-C ) :   1.6390
B(  1-C , 32-H ) :   0.9656 B(  2-C ,  3-C ) :   1.1982 B(  2-C ,  6-C ) :   1.0299
B(  3-C ,  4-C ) :   1.6133 B(  3-C ,  5-H ) :   1.0015 B(  4-C , 20-C ) :   0.9834
B(  6-C ,  7-H ) :   0.9322 B(  6-C ,  8-H ) :   0.9325 B(  6-C ,  9-C ) :   1.0649
B(  9-C , 10-H ) :   0.9602 B(  9-C , 11-H ) :   0.9475 B(  9-C , 12-C ) :   1.0906
B( 12-C , 13-H ) :   0.9736 B( 12-C , 14-H ) :   0.9740 B( 12-C , 15-H ) :   0.9766
B( 16-S , 17-C ) :   1.2160 B( 16-S , 20-C ) :   1.1773 B( 17-C , 18-C ) :   1.5527
B( 17-C , 33-H ) :   0.9593 B( 18-C , 19-C ) :   1.2856 B( 18-C , 21-H ) :   0.9920
B( 19-C , 20-C ) :   1.5548 B( 19-C , 22-C ) :   1.0452 B( 22-C , 23-H ) :   0.9298
B( 22-C , 24-H ) :   0.9449 B( 22-C , 25-C ) :   1.0697 B( 25-C , 26-H ) :   0.9584
B( 25-C , 27-H ) :   0.9408 B( 25-C , 28-C ) :   1.0968 B( 28-C , 29-H ) :   0.9656
B( 28-C , 30-H ) :   0.9733 B( 28-C , 31-H ) :   0.9713

Dispersion correction           -0.013735548
FINAL SINGLE POINT ENERGY     -1339.865065766180

DIPOLE MOMENT
-------------
                                X             Y             Z
Electronic contribution:    -28.08413      10.03206      -5.73379
Nuclear contribution   :     28.58441     -10.38464       5.77291
                        -----------------------------------------
Total Dipole Moment    :      0.50028      -0.35259       0.03912
                        -----------------------------------------
Magnitude (a.u.)       :      0.61329
Magnitude (Debye)      :      1.55886

Rotational constants in cm-1:     0.016681     0.008879     0.006710
Rotational constants in MHz :   500.080244   266.180452   201.156793

                             ****ORCA TERMINATED NORMALLY****
TOTAL RUN TIME: 0 days 0 hours 0 minutes 29 seconds 928 msec
