                         Program Version 4.2.1 -  RELEASE  -
|  1> ! wB97X-D3 SP def2-SVP
|  2> %pal
|  3> nprocs 16
|  4> end
|  5>
|  6> * xyz 0 1
|  7> S 	 46.0042 	 9.10583 	 103.059
|  8> C 	 47.6412 	 9.86935 	 103.326
|  9> C 	 48.2769 	 10.057 	 102.096
| 10> C 	 47.5184 	 9.5949 	 100.996
| 11> C 	 46.2307 	 9.18513 	 101.281
| 12> H 	 47.7935 	 9.64078 	 99.9154
| 13> C 	 49.6122 	 10.6817 	 102.101
| 14> H 	 50.1261 	 10.471 	 103.014
| 15> H 	 49.3368 	 11.7429 	 102.234
| 16> C 	 50.602 	 10.4138 	 101.037
| 17> H 	 50.9679 	 9.42128 	 101.212
| 18> H 	 50.0448 	 10.4373 	 100.037
| 19> C 	 51.8192 	 11.3931 	 101.101
| 20> H 	 52.5039 	 11.1082 	 101.969
| 21> H 	 52.4753 	 11.1416 	 100.193
| 22> H 	 51.5107 	 12.4206 	 101.071
| 23> S 	 44.0974 	 7.4704 	 100.978
| 24> C 	 43.3246 	 7.35815 	 99.3591
| 25> C 	 43.8947 	 8.31089 	 98.5143
| 26> C 	 44.9318 	 9.10693 	 99.0624
| 27> C 	 45.2219 	 8.6738 	 100.339
| 28> H 	 43.4534 	 8.43197 	 97.5636
| 29> C 	 45.4355 	 10.3539 	 98.3416
| 30> H 	 46.37 	 10.06 	 97.8899
| 31> H 	 45.6168 	 11.2054 	 98.9779
| 32> C 	 44.5772 	 10.87 	 97.2368
| 33> H 	 44.3986 	 10.0769 	 96.508
| 34> H 	 45.2176 	 11.6662 	 96.7535
| 35> C 	 43.2901 	 11.5169 	 97.7688
| 36> H 	 42.8437 	 12.2519 	 97.1293
| 37> H 	 43.3726 	 12.1187 	 98.7138
| 38> H 	 42.5218 	 10.818 	 98.1161
| 39> H 	 48.1628 	 10.0607 	 104.284
| 40> H 	 42.3962 	 6.89295 	 99.1612
| 41> *
| 42>
| 43>                          ****END OF INPUT****

CARTESIAN COORDINATES (ANGSTROEM)
---------------------------------
  S     46.004200    9.105830  103.059000
  C     47.641200    9.869350  103.326000
  C     48.276900   10.057000  102.096000
  C     47.518400    9.594900  100.996000
  C     46.230700    9.185130  101.281000
  H     47.793500    9.640780   99.915400
  C     49.612200   10.681700  102.101000
  H     50.126100   10.471000  103.014000
  H     49.336800   11.742900  102.234000
  C     50.602000   10.413800  101.037000
  H     50.967900    9.421280  101.212000
  H     50.044800   10.437300  100.037000
  C     51.819200   11.393100  101.101000
  H     52.503900   11.108200  101.969000
  H     52.475300   11.141600  100.193000
  H     51.510700   12.420600  101.071000
  S     44.097400    7.470400  100.978000
  C     43.324600    7.358150   99.359100
  C     43.894700    8.310890   98.514300
  C     44.931800    9.106930   99.062400
  C     45.221900    8.673800  100.339000
  H     43.453400    8.431970   97.563600
  C     45.435500   10.353900   98.341600
  H     46.370000   10.060000   97.889900
  H     45.616800   11.205400   98.977900
  C     44.577200   10.870000   97.236800
  H     44.398600   10.076900   96.508000
  H     45.217600   11.666200   96.753500
  C     43.290100   11.516900   97.768800
  H     42.843700   12.251900   97.129300
  H     43.372600   12.118700   98.713800
  H     42.521800   10.818000   98.116100
  H     48.162800   10.060700  104.284000
  H     42.396200    6.892950   99.161200

 Total Charge           Charge          ....    0
 Multiplicity           Mult            ....    1
 Number of Electrons    NEL             ....  134
 Basis Dimension        Dim             ....  322

ORBITAL ENERGIES
----------------

  NO   OCC          E(Eh)            E(eV)
   0   2.0000     -88.967576     -2420.9308
   1   2.0000     -88.965538     -2420.8754
   2   2.0000     -10.333783      -281.1965
   3   2.0000     -10.330765      -281.1144
   4   2.0000     -10.319290      -280.8022
   5   2.0000     -10.318288      -280.7749
   6   2.0000     -10.304492      -280.3995
   7   2.0000     -10.301227      -280.3106
   8   2.0000     -10.296776      -280.1895
   9   2.0000     -10.294024      -280.1146
  10   2.0000     -10.293912      -280.1116
  11   2.0000     -10.293333      -280.0958
  12   2.0000     -10.291113      -280.0354
  13   2.0000     -10.290739      -280.0253
  14   2.0000     -10.283375      -279.8249
  15   2.0000     -10.278360      -279.6884
  16   2.0000      -8.081294      -219.9032
  17   2.0000      -8.078186      -219.8186
  18   2.0000      -6.039889      -164.3537
  19   2.0000      -6.036921      -164.2730
  20   2.0000      -6.036106      -164.2508
  21   2.0000      -6.033093      -164.1688
  22   2.0000      -6.031868      -164.1355
  23   2.0000      -6.028731      -164.0501
  24   2.0000      -1.000751       -27.2318
  25   2.0000      -0.977173       -26.5902
  26   2.0000      -0.920798       -25.0562
  27   2.0000      -0.916586       -24.9416
  28   2.0000      -0.867171       -23.5969
  29   2.0000      -0.848853       -23.0985
  30   2.0000      -0.837368       -22.7859
  31   2.0000      -0.816629       -22.2216
  32   2.0000      -0.788317       -21.4512
  33   2.0000      -0.771461       -20.9925
  34   2.0000      -0.713860       -19.4251
  35   2.0000      -0.701335       -19.0843
  36   2.0000      -0.689536       -18.7632
  37   2.0000      -0.658037       -17.9061
  38   2.0000      -0.640308       -17.4237
  39   2.0000      -0.614991       -16.7348
  40   2.0000      -0.606915       -16.5150
  41   2.0000      -0.573448       -15.6043
  42   2.0000      -0.564240       -15.3538
  43   2.0000      -0.562991       -15.3198
  44   2.0000      -0.537681       -14.6311
  45   2.0000      -0.527578       -14.3561
  46   2.0000      -0.514100       -13.9894
  47   2.0000      -0.507816       -13.8184
  48   2.0000      -0.500029       -13.6065
  49   2.0000      -0.499203       -13.5840
  50   2.0000      -0.490510       -13.3474
  51   2.0000      -0.476120       -12.9559
  52   2.0000      -0.472509       -12.8576
  53   2.0000      -0.463887       -12.6230
  54   2.0000      -0.459711       -12.5094
  55   2.0000      -0.450923       -12.2702
  56   2.0000      -0.445980       -12.1357
  57   2.0000      -0.438972       -11.9450
  58   2.0000      -0.435129       -11.8405
  59   2.0000      -0.427472       -11.6321
  60   2.0000      -0.417904       -11.3717
  61   2.0000      -0.416510       -11.3338
  62   2.0000      -0.408613       -11.1189
  63   2.0000      -0.349910        -9.5215
  64   2.0000      -0.335021        -9.1164
  65   2.0000      -0.326830        -8.8935
  66   2.0000      -0.282390        -7.6842
  67   0.0000       0.015784         0.4295
  68   0.0000       0.073636         2.0037
  69   0.0000       0.092283         2.5111
  70   0.0000       0.127391         3.4665
  71   0.0000       0.134199         3.6517

MULLIKEN ATOMIC CHARGES
-----------------------
   0 S :    0.082450
   1 C :   -0.138351
   2 C :   -0.060021
   3 C :   -0.008667
   4 C :   -0.123526
   5 H :    0.024504
   6 C :    0.053832
   7 H :    0.005102
   8 H :    0.039094
   9 C :   -0.082412
  10 H :    0.031480
  11 H :    0.039630
  12 C :   -0.080694
  13 H :    0.048080
  14 H :    0.045481
  15 H :    0.043238
  16 S :    0.092492
  17 C :   -0.074598
  18 C :   -0.037361
  19 C :   -0.040299
  20 C :   -0.151506
  21 H :    0.005216
  22 C :    0.085622
  23 H :    0.032484
  24 H :    0.037558
  25 C :   -0.084934
  26 H :    0.037751
  27 H :    0.038452
  28 C :   -0.060300
  29 H :    0.030835
  30 H :    0.025388
  31 H :    0.035027
  32 H :    0.059514
  33 H :    0.049441
Sum of atomic charges:   -0.0000000

LOEWDIN ATOMIC CHARGES
----------------------
   0 S :    0.350285
   1 C :   -0.186551
   2 C :   -0.058881
   3 C :   -0.076712
   4 C :   -0.169364
   5 H :    0.037443
   6 C :   -0.046163
   7 H :    0.027123
   8 H :    0.039901
   9 C :   -0.044721
  10 H :    0.025184
  11 H :    0.027484
  12 C :   -0.068943
  13 H :    0.035047
  14 H :    0.036420
  15 H :    0.021712
  16 S :    0.379729
  17 C :   -0.169387
  18 C :   -0.059683
  19 C :   -0.059303
  20 C :   -0.181724
  21 H :    0.023276
  22 C :   -0.029556
  23 H :    0.030878
  24 H :    0.032802
  25 C :   -0.042505
  26 H :    0.023352
  27 H :    0.036958
  28 C :   -0.078729
  29 H :    0.022712
  30 H :    0.033644
  31 H :    0.027889
  32 H :    0.036870
  33 H :    0.023510

  Mayer bond orders larger than 0.100000
B(  0-S ,  1-C ) :   1.1068 B(  0-S ,  4-C ) :   1.1320 B(  1-C ,  2-C ) :   1.6105
B(  1-C ,  4-C ) :   0.1035 B(  1-C , 32-H ) :   0.9666 B(  2-C ,  3-C ) :   1.2379
B(  2-C ,  6-C ) :   1.0167 B(  3-C ,  4-C ) :   1.5793 B(  3-C ,  5-H ) :   0.9818
B(  4-C , 20-C ) :   1.0699 B(  6-C ,  7-H ) :   0.9366 B(  6-C ,  8-H ) :   0.9292
B(  6-C ,  9-C ) :   1.0656 B(  9-C , 10-H ) :   0.9548 B(  9-C , 11-H ) :   0.9523
B(  9-C , 12-C ) :   1.0813 B( 12-C , 13-H ) :   0.9727 B( 12-C , 14-H ) :   0.9745
B( 12-C , 15-H ) :   0.9779 B( 16-S , 17-C ) :   1.1307 B( 16-S , 20-C ) :   1.1351
B( 17-C , 18-C ) :   1.6199 B( 17-C , 20-C ) :   0.1000 B( 17-C , 33-H ) :   0.9693
B( 18-C , 19-C ) :   1.2502 B( 18-C , 21-H ) :   0.9813 B( 19-C , 20-C ) :   1.6008
B( 19-C , 22-C ) :   1.0151 B( 22-C , 23-H ) :   0.9147 B( 22-C , 24-H ) :   0.9402
B( 22-C , 25-C ) :   1.1059 B( 25-C , 26-H ) :   0.9443 B( 25-C , 27-H ) :   0.9492
B( 25-C , 28-C ) :   1.0692 B( 28-C , 29-H ) :   0.9773 B( 28-C , 30-H ) :   0.9709
B( 28-C , 31-H ) :   0.9718

Dispersion correction           -0.013714540
FINAL SINGLE POINT ENERGY     -1339.863558876607

DIPOLE MOMENT
-------------
                                X             Y             Z
Electronic contribution:    -15.39861     -17.73383      14.93912
Nuclear contribution   :     15.76086      18.26137     -15.45748
                        -----------------------------------------
Total Dipole Moment    :      0.36225       0.52754      -0.51836
                        -----------------------------------------
Magnitude (a.u.)       :      0.82354
Magnitude (Debye)      :      2.09327

Rotational constants in cm-1:     0.018991     0.008028     0.006252
Rotational constants in MHz :   569.336765   240.666667   187.418061

                             ****ORCA TERMINATED NORMALLY****
TOTAL RUN TIME: 0 days 0 hours 0 minutes 27 seconds 868 msec
