                         Program Version 4.2.1 -  RELEASE  -
|  1> ! wB97X-D3 SP def2-SVP
|  2> %pal
|  3> nprocs 16
|  4> end
|  5>
|  6> * xyz 0 1
|  7> S 	 -74.0227 	 46.7102 	 125.379
|  8> C 	 -73.6796 	 44.9508 	 125.319
|  9> C 	 -72.566 	 44.6045 	 126.058
| 10> C 	 -72.0603 	 45.8 	 126.736
| 11> C 	 -72.7738 	 46.9709 	 126.537
| 12> H 	 -71.1281 	 45.9564 	 127.256
| 13> C 	 -71.8053 	 43.2656 	 126.091
| 14> H 	 -72.365 	 42.4959 	 126.558
| 15> H 	 -70.9265 	 43.3908 	 126.801
| 16> C 	 -71.3655 	 42.7237 	 124.719
| 17> H 	 -70.9274 	 43.4795 	 124.024
| 18> H 	 -70.5711 	 41.9878 	 124.732
| 19> C 	 -72.5005 	 42.0978 	 123.863
| 20> H 	 -73.0453 	 42.9415 	 123.381
| 21> H 	 -72.0842 	 41.4253 	 123.084
| 22> H 	 -73.3499 	 41.585 	 124.338
| 23> S 	 -71.5348 	 49.3101 	 126.25
| 24> C 	 -71.4163 	 50.4853 	 127.554
| 25> C 	 -72.2467 	 50.0682 	 128.573
| 26> C 	 -72.9278 	 48.7681 	 128.353
| 27> C 	 -72.486 	 48.2412 	 127.205
| 28> H 	 -72.413 	 50.709 	 129.42
| 29> C 	 -73.8795 	 48.1309 	 129.332
| 30> H 	 -73.3044 	 47.8455 	 130.344
| 31> H 	 -74.0676 	 47.1231 	 128.989
| 32> C 	 -75.2133 	 48.9676 	 129.752
| 33> H 	 -74.9634 	 49.9029 	 130.319
| 34> H 	 -75.8169 	 48.3822 	 130.428
| 35> C 	 -76.09 	 49.1801 	 128.527
| 36> H 	 -75.6169 	 49.4091 	 127.565
| 37> H 	 -76.8084 	 49.9273 	 128.859
| 38> H 	 -76.5477 	 48.2644 	 128.364
| 39> H 	 -74.2261 	 44.282 	 124.657
| 40> H 	 -71.1366 	 51.5134 	 127.706
| 41> *
| 42>
| 43>                          ****END OF INPUT****

CARTESIAN COORDINATES (ANGSTROEM)
---------------------------------
  S    -74.022700   46.710200  125.379000
  C    -73.679600   44.950800  125.319000
  C    -72.566000   44.604500  126.058000
  C    -72.060300   45.800000  126.736000
  C    -72.773800   46.970900  126.537000
  H    -71.128100   45.956400  127.256000
  C    -71.805300   43.265600  126.091000
  H    -72.365000   42.495900  126.558000
  H    -70.926500   43.390800  126.801000
  C    -71.365500   42.723700  124.719000
  H    -70.927400   43.479500  124.024000
  H    -70.571100   41.987800  124.732000
  C    -72.500500   42.097800  123.863000
  H    -73.045300   42.941500  123.381000
  H    -72.084200   41.425300  123.084000
  H    -73.349900   41.585000  124.338000
  S    -71.534800   49.310100  126.250000
  C    -71.416300   50.485300  127.554000
  C    -72.246700   50.068200  128.573000
  C    -72.927800   48.768100  128.353000
  C    -72.486000   48.241200  127.205000
  H    -72.413000   50.709000  129.420000
  C    -73.879500   48.130900  129.332000
  H    -73.304400   47.845500  130.344000
  H    -74.067600   47.123100  128.989000
  C    -75.213300   48.967600  129.752000
  H    -74.963400   49.902900  130.319000
  H    -75.816900   48.382200  130.428000
  C    -76.090000   49.180100  128.527000
  H    -75.616900   49.409100  127.565000
  H    -76.808400   49.927300  128.859000
  H    -76.547700   48.264400  128.364000
  H    -74.226100   44.282000  124.657000
  H    -71.136600   51.513400  127.706000

 Total Charge           Charge          ....    0
 Multiplicity           Mult            ....    1
 Number of Electrons    NEL             ....  134
 Basis Dimension        Dim             ....  322

ORBITAL ENERGIES
----------------

  NO   OCC          E(Eh)            E(eV)
   0   2.0000     -88.967820     -2420.9375
   1   2.0000     -88.963754     -2420.8268
   2   2.0000     -10.326565      -281.0001
   3   2.0000     -10.321508      -280.8625
   4   2.0000     -10.321372      -280.8588
   5   2.0000     -10.314381      -280.6686
   6   2.0000     -10.311903      -280.6011
   7   2.0000     -10.303443      -280.3709
   8   2.0000     -10.303301      -280.3671
   9   2.0000     -10.302801      -280.3535
  10   2.0000     -10.295665      -280.1593
  11   2.0000     -10.295259      -280.1482
  12   2.0000     -10.293349      -280.0963
  13   2.0000     -10.293191      -280.0920
  14   2.0000     -10.284849      -279.8650
  15   2.0000     -10.266611      -279.3687
  16   2.0000      -8.082262      -219.9295
  17   2.0000      -8.078816      -219.8357
  18   2.0000      -6.040802      -164.3786
  19   2.0000      -6.037687      -164.2938
  20   2.0000      -6.036814      -164.2701
  21   2.0000      -6.033209      -164.1720
  22   2.0000      -6.032999      -164.1662
  23   2.0000      -6.029210      -164.0631
  24   2.0000      -1.009587       -27.4723
  25   2.0000      -0.982401       -26.7325
  26   2.0000      -0.909225       -24.7413
  27   2.0000      -0.898611       -24.4525
  28   2.0000      -0.869667       -23.6649
  29   2.0000      -0.849430       -23.1142
  30   2.0000      -0.844376       -22.9766
  31   2.0000      -0.814206       -22.1557
  32   2.0000      -0.785755       -21.3815
  33   2.0000      -0.770477       -20.9657
  34   2.0000      -0.704928       -19.1821
  35   2.0000      -0.701296       -19.0832
  36   2.0000      -0.695032       -18.9128
  37   2.0000      -0.656676       -17.8691
  38   2.0000      -0.647592       -17.6219
  39   2.0000      -0.612661       -16.6714
  40   2.0000      -0.587246       -15.9798
  41   2.0000      -0.573564       -15.6075
  42   2.0000      -0.545785       -14.8516
  43   2.0000      -0.542456       -14.7610
  44   2.0000      -0.539796       -14.6886
  45   2.0000      -0.532694       -14.4954
  46   2.0000      -0.517566       -14.0837
  47   2.0000      -0.511702       -13.9241
  48   2.0000      -0.506815       -13.7911
  49   2.0000      -0.496439       -13.5088
  50   2.0000      -0.491384       -13.3712
  51   2.0000      -0.481316       -13.0973
  52   2.0000      -0.469146       -12.7661
  53   2.0000      -0.464250       -12.6329
  54   2.0000      -0.456276       -12.4159
  55   2.0000      -0.446127       -12.1397
  56   2.0000      -0.441628       -12.0173
  57   2.0000      -0.434185       -11.8148
  58   2.0000      -0.426292       -11.6000
  59   2.0000      -0.424685       -11.5563
  60   2.0000      -0.420920       -11.4538
  61   2.0000      -0.412499       -11.2247
  62   2.0000      -0.409516       -11.1435
  63   2.0000      -0.333275        -9.0689
  64   2.0000      -0.329391        -8.9632
  65   2.0000      -0.320540        -8.7223
  66   2.0000      -0.318885        -8.6773
  67   0.0000       0.047084         1.2812
  68   0.0000       0.056641         1.5413
  69   0.0000       0.110610         3.0099
  70   0.0000       0.111665         3.0386
  71   0.0000       0.128300         3.4912

MULLIKEN ATOMIC CHARGES
-----------------------
   0 S :    0.116713
   1 C :   -0.149042
   2 C :   -0.049443
   3 C :    0.032835
   4 C :   -0.182068
   5 H :    0.016048
   6 C :    0.091747
   7 H :    0.030670
   8 H :    0.036600
   9 C :   -0.069476
  10 H :    0.040164
  11 H :    0.027844
  12 C :   -0.109519
  13 H :    0.033048
  14 H :    0.046290
  15 H :    0.032326
  16 S :    0.112825
  17 C :   -0.057079
  18 C :   -0.070680
  19 C :    0.019759
  20 C :   -0.206116
  21 H :    0.014088
  22 C :    0.002542
  23 H :    0.048187
  24 H :    0.025262
  25 C :   -0.076816
  26 H :    0.040420
  27 H :    0.028600
  28 C :   -0.021929
  29 H :    0.043666
  30 H :    0.035121
  31 H :    0.013081
  32 H :    0.051738
  33 H :    0.052592
Sum of atomic charges:    0.0000000

LOEWDIN ATOMIC CHARGES
----------------------
   0 S :    0.399683
   1 C :   -0.181894
   2 C :   -0.057018
   3 C :   -0.060169
   4 C :   -0.215356
   5 H :    0.031262
   6 C :   -0.029307
   7 H :    0.029171
   8 H :    0.041237
   9 C :   -0.044520
  10 H :    0.033813
  11 H :    0.023013
  12 C :   -0.080549
  13 H :    0.024358
  14 H :    0.032454
  15 H :    0.021816
  16 S :    0.412307
  17 C :   -0.197949
  18 C :   -0.062060
  19 C :   -0.058857
  20 C :   -0.206208
  21 H :    0.024080
  22 C :   -0.042138
  23 H :    0.044210
  24 H :    0.027335
  25 C :   -0.034344
  26 H :    0.024281
  27 H :    0.024767
  28 C :   -0.062855
  29 H :    0.027658
  30 H :    0.029179
  31 H :    0.017873
  32 H :    0.025502
  33 H :    0.039226

  Mayer bond orders larger than 0.100000
B(  0-S ,  1-C ) :   1.1371 B(  0-S ,  4-C ) :   1.1443 B(  1-C ,  2-C ) :   1.6240
B(  1-C , 32-H ) :   0.9641 B(  2-C ,  3-C ) :   1.2239 B(  2-C ,  6-C ) :   1.0127
B(  3-C ,  4-C ) :   1.6185 B(  3-C ,  5-H ) :   0.9850 B(  4-C , 20-C ) :   0.9871
B(  6-C ,  7-H ) :   0.9398 B(  6-C ,  8-H ) :   0.9436 B(  6-C ,  9-C ) :   1.0569
B(  9-C , 10-H ) :   0.9595 B(  9-C , 11-H ) :   0.9636 B(  9-C , 12-C ) :   1.0593
B( 12-C , 13-H ) :   0.9744 B( 12-C , 14-H ) :   0.9729 B( 12-C , 15-H ) :   0.9798
B( 16-S , 17-C ) :   1.1127 B( 16-S , 20-C ) :   1.1414 B( 17-C , 18-C ) :   1.6779
B( 17-C , 33-H ) :   0.9622 B( 18-C , 19-C ) :   1.1746 B( 18-C , 21-H ) :   0.9835
B( 19-C , 20-C ) :   1.6553 B( 19-C , 22-C ) :   1.0560 B( 22-C , 23-H ) :   0.9378
B( 22-C , 24-H ) :   0.9342 B( 22-C , 25-C ) :   1.0492 B( 25-C , 26-H ) :   0.9640
B( 25-C , 27-H ) :   0.9587 B( 25-C , 28-C ) :   1.0585 B( 28-C , 29-H ) :   0.9794
B( 28-C , 30-H ) :   0.9733 B( 28-C , 31-H ) :   0.9758

Dispersion correction           -0.014755097
FINAL SINGLE POINT ENERGY     -1339.853400298702

DIPOLE MOMENT
-------------
                                X             Y             Z
Electronic contribution:      6.31637      14.43865      -5.07403
Nuclear contribution   :     -6.37685     -14.77452       5.39561
                        -----------------------------------------
Total Dipole Moment    :     -0.06048      -0.33587       0.32159
                        -----------------------------------------
Magnitude (a.u.)       :      0.46892
Magnitude (Debye)      :      1.19190

Rotational constants in cm-1:     0.024236     0.007382     0.006557
Rotational constants in MHz :   726.582204   221.303255   196.564916

                             ****ORCA TERMINATED NORMALLY****
TOTAL RUN TIME: 0 days 0 hours 0 minutes 33 seconds 464 msec
