                         Program Version 4.2.1 -  RELEASE  -
|  1> ! wB97X-D3 SP def2-SVP
|  2> %pal
|  3> nprocs 16
|  4> end
|  5>
|  6> * xyz 0 1
|  7> S 	 -108.438 	 40.1874 	 129.455
|  8> C 	 -107.451 	 40.4425 	 130.821
|  9> C 	 -108.056 	 41.2338 	 131.734
| 10> C 	 -109.308 	 41.6941 	 131.241
| 11> C 	 -109.732 	 41.1471 	 130.035
| 12> H 	 -109.901 	 42.4159 	 131.747
| 13> C 	 -107.582 	 41.578 	 133.162
| 14> H 	 -107.108 	 42.5399 	 133.166
| 15> H 	 -106.729 	 40.9758 	 133.396
| 16> C 	 -108.635 	 41.4861 	 134.311
| 17> H 	 -108.247 	 41.9573 	 135.195
| 18> H 	 -109.555 	 41.9505 	 134.134
| 19> C 	 -109.044 	 40.0902 	 134.733
| 20> H 	 -109.798 	 40.0803 	 135.513
| 21> H 	 -109.336 	 39.5108 	 133.961
| 22> H 	 -108.217 	 39.5634 	 135.129
| 23> S 	 -110.759 	 42.0865 	 127.732
| 24> C 	 -112.43 	 42.5295 	 127.691
| 25> C 	 -113.115 	 42.0218 	 128.732
| 26> C 	 -112.267 	 41.4473 	 129.699
| 27> C 	 -110.95 	 41.4438 	 129.291
| 28> H 	 -114.221 	 42.1754 	 128.785
| 29> C 	 -112.815 	 41.1681 	 131.119
| 30> H 	 -112.018 	 40.7677 	 131.713
| 31> H 	 -113.55 	 40.3393 	 130.966
| 32> C 	 -113.413 	 42.3928 	 131.797
| 33> H 	 -114.29 	 42.7697 	 131.28
| 34> H 	 -112.672 	 43.197 	 131.682
| 35> C 	 -113.745 	 42.2109 	 133.237
| 36> H 	 -114.031 	 43.206 	 133.587
| 37> H 	 -112.903 	 41.8202 	 133.793
| 38> H 	 -114.516 	 41.4343 	 133.255
| 39> H 	 -106.501 	 39.9612 	 130.979
| 40> H 	 -112.958 	 43.0165 	 126.861
| 41> *
| 42>
| 43>                          ****END OF INPUT****

CARTESIAN COORDINATES (ANGSTROEM)
---------------------------------
  S    -108.438000   40.187400  129.455000
  C    -107.451000   40.442500  130.821000
  C    -108.056000   41.233800  131.734000
  C    -109.308000   41.694100  131.241000
  C    -109.732000   41.147100  130.035000
  H    -109.901000   42.415900  131.747000
  C    -107.582000   41.578000  133.162000
  H    -107.108000   42.539900  133.166000
  H    -106.729000   40.975800  133.396000
  C    -108.635000   41.486100  134.311000
  H    -108.247000   41.957300  135.195000
  H    -109.555000   41.950500  134.134000
  C    -109.044000   40.090200  134.733000
  H    -109.798000   40.080300  135.513000
  H    -109.336000   39.510800  133.961000
  H    -108.217000   39.563400  135.129000
  S    -110.759000   42.086500  127.732000
  C    -112.430000   42.529500  127.691000
  C    -113.115000   42.021800  128.732000
  C    -112.267000   41.447300  129.699000
  C    -110.950000   41.443800  129.291000
  H    -114.221000   42.175400  128.785000
  C    -112.815000   41.168100  131.119000
  H    -112.018000   40.767700  131.713000
  H    -113.550000   40.339300  130.966000
  C    -113.413000   42.392800  131.797000
  H    -114.290000   42.769700  131.280000
  H    -112.672000   43.197000  131.682000
  C    -113.745000   42.210900  133.237000
  H    -114.031000   43.206000  133.587000
  H    -112.903000   41.820200  133.793000
  H    -114.516000   41.434300  133.255000
  H    -106.501000   39.961200  130.979000
  H    -112.958000   43.016500  126.861000

 Total Charge           Charge          ....    0
 Multiplicity           Mult            ....    1
 Number of Electrons    NEL             ....  134
 Basis Dimension        Dim             ....  322

ORBITAL ENERGIES
----------------

  NO   OCC          E(Eh)            E(eV)
   0   2.0000     -88.964499     -2420.8471
   1   2.0000     -88.963245     -2420.8130
   2   2.0000     -10.325164      -280.9620
   3   2.0000     -10.321064      -280.8504
   4   2.0000     -10.311396      -280.5874
   5   2.0000     -10.306613      -280.4572
   6   2.0000     -10.299660      -280.2680
   7   2.0000     -10.296955      -280.1944
   8   2.0000     -10.294222      -280.1200
   9   2.0000     -10.291137      -280.0361
  10   2.0000     -10.290039      -280.0062
  11   2.0000     -10.286888      -279.9204
  12   2.0000     -10.282045      -279.7887
  13   2.0000     -10.281995      -279.7873
  14   2.0000     -10.277195      -279.6567
  15   2.0000     -10.260393      -279.1995
  16   2.0000      -8.080809      -219.8900
  17   2.0000      -8.079474      -219.8537
  18   2.0000      -6.039198      -164.3349
  19   2.0000      -6.037851      -164.2983
  20   2.0000      -6.035171      -164.2254
  21   2.0000      -6.033656      -164.1841
  22   2.0000      -6.031510      -164.1257
  23   2.0000      -6.030401      -164.0956
  24   2.0000      -1.018984       -27.7280
  25   2.0000      -0.997519       -27.1439
  26   2.0000      -0.915255       -24.9053
  27   2.0000      -0.910939       -24.7879
  28   2.0000      -0.876931       -23.8625
  29   2.0000      -0.856687       -23.3116
  30   2.0000      -0.849151       -23.1066
  31   2.0000      -0.818235       -22.2653
  32   2.0000      -0.788779       -21.4638
  33   2.0000      -0.775267       -21.0961
  34   2.0000      -0.713855       -19.4250
  35   2.0000      -0.697846       -18.9894
  36   2.0000      -0.695061       -18.9136
  37   2.0000      -0.659304       -17.9406
  38   2.0000      -0.642077       -17.4718
  39   2.0000      -0.626758       -17.0550
  40   2.0000      -0.597656       -16.2630
  41   2.0000      -0.572554       -15.5800
  42   2.0000      -0.568695       -15.4750
  43   2.0000      -0.553222       -15.0539
  44   2.0000      -0.541303       -14.7296
  45   2.0000      -0.536533       -14.5998
  46   2.0000      -0.521938       -14.2026
  47   2.0000      -0.515199       -14.0193
  48   2.0000      -0.506974       -13.7955
  49   2.0000      -0.497421       -13.5355
  50   2.0000      -0.492083       -13.3903
  51   2.0000      -0.484380       -13.1806
  52   2.0000      -0.472151       -12.8479
  53   2.0000      -0.470053       -12.7908
  54   2.0000      -0.459796       -12.5117
  55   2.0000      -0.448610       -12.2073
  56   2.0000      -0.445629       -12.1262
  57   2.0000      -0.440380       -11.9834
  58   2.0000      -0.437596       -11.9076
  59   2.0000      -0.427722       -11.6389
  60   2.0000      -0.424661       -11.5556
  61   2.0000      -0.416444       -11.3320
  62   2.0000      -0.412442       -11.2231
  63   2.0000      -0.351470        -9.5640
  64   2.0000      -0.330098        -8.9824
  65   2.0000      -0.328663        -8.9434
  66   2.0000      -0.296926        -8.0798
  67   0.0000       0.041290         1.1236
  68   0.0000       0.075663         2.0589
  69   0.0000       0.119000         3.2381
  70   0.0000       0.122985         3.3466
  71   0.0000       0.129543         3.5251

MULLIKEN ATOMIC CHARGES
-----------------------
   0 S :    0.115167
   1 C :   -0.126905
   2 C :   -0.086309
   3 C :    0.027157
   4 C :   -0.154355
   5 H :   -0.007539
   6 C :    0.112949
   7 H :    0.031073
   8 H :   -0.000544
   9 C :   -0.053211
  10 H :    0.018986
  11 H :    0.014318
  12 C :   -0.001619
  13 H :    0.026411
  14 H :    0.009155
  15 H :    0.003761
  16 S :    0.124341
  17 C :   -0.099893
  18 C :   -0.056263
  19 C :   -0.041865
  20 C :   -0.153026
  21 H :    0.036337
  22 C :    0.082688
  23 H :    0.011168
  24 H :    0.032700
  25 C :   -0.097607
  26 H :    0.022007
  27 H :    0.025811
  28 C :   -0.005847
  29 H :    0.041182
  30 H :    0.024695
  31 H :    0.027335
  32 H :    0.040686
  33 H :    0.057056
Sum of atomic charges:    0.0000000

LOEWDIN ATOMIC CHARGES
----------------------
   0 S :    0.437179
   1 C :   -0.208961
   2 C :   -0.069276
   3 C :   -0.062549
   4 C :   -0.208965
   5 H :    0.020586
   6 C :   -0.023481
   7 H :    0.033531
   8 H :    0.026127
   9 C :   -0.031927
  10 H :    0.025183
  11 H :    0.014930
  12 C :   -0.051858
  13 H :    0.027262
  14 H :    0.010505
  15 H :    0.018399
  16 S :    0.436323
  17 C :   -0.192495
  18 C :   -0.077639
  19 C :   -0.055368
  20 C :   -0.219358
  21 H :    0.040990
  22 C :   -0.028686
  23 H :    0.022961
  24 H :    0.034486
  25 C :   -0.046317
  26 H :    0.021000
  27 H :    0.022946
  28 C :   -0.057675
  29 H :    0.031712
  30 H :    0.021709
  31 H :    0.026969
  32 H :    0.028135
  33 H :    0.033622

  Mayer bond orders larger than 0.100000
B(  0-S ,  1-C ) :   1.1577 B(  0-S ,  4-C ) :   1.1710 B(  1-C ,  2-C ) :   1.6031
B(  1-C , 32-H ) :   0.9666 B(  2-C ,  3-C ) :   1.2674 B(  2-C ,  6-C ) :   1.0107
B(  3-C ,  4-C ) :   1.5492 B(  3-C ,  5-H ) :   1.0027 B(  4-C , 20-C ) :   1.0088
B(  6-C ,  7-H ) :   0.9329 B(  6-C ,  8-H ) :   0.9396 B(  6-C ,  9-C ) :   1.0692
B(  9-C , 10-H ) :   0.9523 B(  9-C , 11-H ) :   0.9600 B(  9-C , 12-C ) :   1.0813
B( 12-C , 13-H ) :   0.9730 B( 12-C , 14-H ) :   0.9754 B( 12-C , 15-H ) :   0.9692
B( 16-S , 17-C ) :   1.1565 B( 16-S , 20-C ) :   1.1590 B( 17-C , 18-C ) :   1.6331
B( 17-C , 33-H ) :   0.9620 B( 18-C , 19-C ) :   1.2327 B( 18-C , 21-H ) :   0.9832
B( 19-C , 20-C ) :   1.6090 B( 19-C , 22-C ) :   1.0459 B( 22-C , 23-H ) :   0.9323
B( 22-C , 24-H ) :   0.9260 B( 22-C , 25-C ) :   1.0664 B( 25-C , 26-H ) :   0.9455
B( 25-C , 27-H ) :   0.9537 B( 25-C , 28-C ) :   1.0942 B( 28-C , 29-H ) :   0.9712
B( 28-C , 30-H ) :   0.9731 B( 28-C , 31-H ) :   0.9713

Dispersion correction           -0.014820415
FINAL SINGLE POINT ENERGY     -1339.881044911130

DIPOLE MOMENT
-------------
                                X             Y             Z
Electronic contribution:      8.99260      -2.02883     -30.62091
Nuclear contribution   :     -9.26405       2.27042      31.22634
                        -----------------------------------------
Total Dipole Moment    :     -0.27146       0.24159       0.60543
                        -----------------------------------------
Magnitude (a.u.)       :      0.70611
Magnitude (Debye)      :      1.79480

Rotational constants in cm-1:     0.016730     0.010747     0.007035
Rotational constants in MHz :   501.557108   322.182315   210.891795

                             ****ORCA TERMINATED NORMALLY****
TOTAL RUN TIME: 0 days 0 hours 0 minutes 35 seconds 826 msec
