                         Program Version 4.2.1 -  RELEASE  -
|  1> ! wB97X-D3 SP def2-SVP
|  2> %pal
|  3> nprocs 16
|  4> end
|  5>
|  6> * xyz 0 1
|  7> S 	 -72.6515 	 51.4376 	 123.989
|  8> C 	 -72.0207 	 52.879 	 124.787
|  9> C 	 -72.8586 	 53.9208 	 124.412
| 10> C 	 -74.0404 	 53.6291 	 123.636
| 11> C 	 -73.9986 	 52.2989 	 123.309
| 12> H 	 -74.8108 	 54.3367 	 123.349
| 13> C 	 -72.7049 	 55.3258 	 124.974
| 14> H 	 -71.919 	 55.3464 	 125.764
| 15> H 	 -73.6958 	 55.4674 	 125.453
| 16> C 	 -72.4518 	 56.449 	 123.996
| 17> H 	 -71.507 	 56.2326 	 123.467
| 18> H 	 -73.2732 	 56.5904 	 123.295
| 19> C 	 -72.284 	 57.8188 	 124.692
| 20> H 	 -71.7146 	 58.3997 	 123.98
| 21> H 	 -73.25 	 58.1786 	 124.997
| 22> H 	 -71.6712 	 57.6761 	 125.614
| 23> S 	 -74.0309 	 50.6686 	 121.09
| 24> C 	 -75.5174 	 50.3757 	 120.249
| 25> C 	 -76.5941 	 50.9 	 120.917
| 26> C 	 -76.2159 	 51.7431 	 121.963
| 27> C 	 -74.8172 	 51.6806 	 122.266
| 28> H 	 -77.5815 	 50.6188 	 120.57
| 29> C 	 -77.2508 	 52.4265 	 122.803
| 30> H 	 -77.9828 	 52.8471 	 122.023
| 31> H 	 -76.8366 	 53.3173 	 123.328
| 32> C 	 -77.9861 	 51.5124 	 123.807
| 33> H 	 -77.3852 	 51.2887 	 124.683
| 34> H 	 -78.3288 	 50.5846 	 123.4
| 35> C 	 -79.1652 	 52.143 	 124.364
| 36> H 	 -79.9264 	 52.5301 	 123.68
| 37> H 	 -78.8568 	 53.0013 	 125.011
| 38> H 	 -79.7799 	 51.449 	 124.942
| 39> H 	 -71.2997 	 52.8177 	 125.607
| 40> H 	 -75.6774 	 49.7096 	 119.392
| 41> *
| 42>
| 43>                          ****END OF INPUT****

CARTESIAN COORDINATES (ANGSTROEM)
---------------------------------
  S    -72.651500   51.437600  123.989000
  C    -72.020700   52.879000  124.787000
  C    -72.858600   53.920800  124.412000
  C    -74.040400   53.629100  123.636000
  C    -73.998600   52.298900  123.309000
  H    -74.810800   54.336700  123.349000
  C    -72.704900   55.325800  124.974000
  H    -71.919000   55.346400  125.764000
  H    -73.695800   55.467400  125.453000
  C    -72.451800   56.449000  123.996000
  H    -71.507000   56.232600  123.467000
  H    -73.273200   56.590400  123.295000
  C    -72.284000   57.818800  124.692000
  H    -71.714600   58.399700  123.980000
  H    -73.250000   58.178600  124.997000
  H    -71.671200   57.676100  125.614000
  S    -74.030900   50.668600  121.090000
  C    -75.517400   50.375700  120.249000
  C    -76.594100   50.900000  120.917000
  C    -76.215900   51.743100  121.963000
  C    -74.817200   51.680600  122.266000
  H    -77.581500   50.618800  120.570000
  C    -77.250800   52.426500  122.803000
  H    -77.982800   52.847100  122.023000
  H    -76.836600   53.317300  123.328000
  C    -77.986100   51.512400  123.807000
  H    -77.385200   51.288700  124.683000
  H    -78.328800   50.584600  123.400000
  C    -79.165200   52.143000  124.364000
  H    -79.926400   52.530100  123.680000
  H    -78.856800   53.001300  125.011000
  H    -79.779900   51.449000  124.942000
  H    -71.299700   52.817700  125.607000
  H    -75.677400   49.709600  119.392000

 Total Charge           Charge          ....    0
 Multiplicity           Mult            ....    1
 Number of Electrons    NEL             ....  134
 Basis Dimension        Dim             ....  322

ORBITAL ENERGIES
----------------

  NO   OCC          E(Eh)            E(eV)
   0   2.0000     -88.967074     -2420.9172
   1   2.0000     -88.965028     -2420.8615
   2   2.0000     -10.333288      -281.1831
   3   2.0000     -10.328261      -281.0463
   4   2.0000     -10.316913      -280.7375
   5   2.0000     -10.312056      -280.6053
   6   2.0000     -10.304601      -280.4025
   7   2.0000     -10.301687      -280.3231
   8   2.0000     -10.298238      -280.2293
   9   2.0000     -10.296607      -280.1849
  10   2.0000     -10.290442      -280.0172
  11   2.0000     -10.288690      -279.9695
  12   2.0000     -10.284226      -279.8480
  13   2.0000     -10.278116      -279.6818
  14   2.0000     -10.278061      -279.6802
  15   2.0000     -10.272343      -279.5247
  16   2.0000      -8.081885      -219.9193
  17   2.0000      -8.079948      -219.8666
  18   2.0000      -6.040336      -164.3659
  19   2.0000      -6.038540      -164.3170
  20   2.0000      -6.036236      -164.2543
  21   2.0000      -6.034373      -164.2036
  22   2.0000      -6.032848      -164.1621
  23   2.0000      -6.030659      -164.1026
  24   2.0000      -1.009743       -27.4765
  25   2.0000      -0.986642       -26.8479
  26   2.0000      -0.916706       -24.9449
  27   2.0000      -0.911872       -24.8133
  28   2.0000      -0.871418       -23.7125
  29   2.0000      -0.860262       -23.4089
  30   2.0000      -0.848696       -23.0942
  31   2.0000      -0.817413       -22.2429
  32   2.0000      -0.777285       -21.1510
  33   2.0000      -0.764236       -20.7959
  34   2.0000      -0.705167       -19.1886
  35   2.0000      -0.693063       -18.8592
  36   2.0000      -0.690914       -18.8007
  37   2.0000      -0.658949       -17.9309
  38   2.0000      -0.640525       -17.4296
  39   2.0000      -0.624926       -17.0051
  40   2.0000      -0.597053       -16.2466
  41   2.0000      -0.572752       -15.5854
  42   2.0000      -0.567097       -15.4315
  43   2.0000      -0.562788       -15.3142
  44   2.0000      -0.531227       -14.4554
  45   2.0000      -0.528196       -14.3729
  46   2.0000      -0.521954       -14.2031
  47   2.0000      -0.519717       -14.1422
  48   2.0000      -0.506602       -13.7853
  49   2.0000      -0.500958       -13.6317
  50   2.0000      -0.496347       -13.5063
  51   2.0000      -0.471649       -12.8342
  52   2.0000      -0.468654       -12.7527
  53   2.0000      -0.461418       -12.5558
  54   2.0000      -0.455263       -12.3883
  55   2.0000      -0.453115       -12.3299
  56   2.0000      -0.446888       -12.1604
  57   2.0000      -0.434947       -11.8355
  58   2.0000      -0.430452       -11.7132
  59   2.0000      -0.424775       -11.5587
  60   2.0000      -0.417787       -11.3686
  61   2.0000      -0.415593       -11.3089
  62   2.0000      -0.404336       -11.0025
  63   2.0000      -0.356167        -9.6918
  64   2.0000      -0.332023        -9.0348
  65   2.0000      -0.326899        -8.8954
  66   2.0000      -0.283874        -7.7246
  67   0.0000       0.027447         0.7469
  68   0.0000       0.072794         1.9808
  69   0.0000       0.109332         2.9751
  70   0.0000       0.121565         3.3079
  71   0.0000       0.132477         3.6049

MULLIKEN ATOMIC CHARGES
-----------------------
   0 S :    0.089307
   1 C :   -0.129647
   2 C :   -0.070270
   3 C :    0.008994
   4 C :   -0.108790
   5 H :    0.032384
   6 C :    0.019695
   7 H :    0.016735
   8 H :    0.030602
   9 C :   -0.091681
  10 H :    0.034141
  11 H :    0.029500
  12 C :   -0.032065
  13 H :    0.040897
  14 H :    0.031809
  15 H :    0.025032
  16 S :    0.118625
  17 C :   -0.102839
  18 C :   -0.043515
  19 C :   -0.018496
  20 C :   -0.146568
  21 H :    0.018266
  22 C :    0.019164
  23 H :    0.035774
  24 H :    0.016204
  25 C :   -0.010564
  26 H :    0.033980
  27 H :    0.016034
  28 C :   -0.063966
  29 H :    0.019145
  30 H :    0.027677
  31 H :    0.026603
  32 H :    0.068701
  33 H :    0.059133
Sum of atomic charges:   -0.0000000

LOEWDIN ATOMIC CHARGES
----------------------
   0 S :    0.398002
   1 C :   -0.207707
   2 C :   -0.053424
   3 C :   -0.066723
   4 C :   -0.182405
   5 H :    0.035579
   6 C :   -0.041337
   7 H :    0.026771
   8 H :    0.032595
   9 C :   -0.043840
  10 H :    0.026686
  11 H :    0.021853
  12 C :   -0.059358
  13 H :    0.028386
  14 H :    0.021294
  15 H :    0.025406
  16 S :    0.425944
  17 C :   -0.199918
  18 C :   -0.071681
  19 C :   -0.064519
  20 C :   -0.203557
  21 H :    0.033924
  22 C :   -0.036518
  23 H :    0.039309
  24 H :    0.029017
  25 C :   -0.040854
  26 H :    0.033158
  27 H :    0.021736
  28 C :   -0.070522
  29 H :    0.019871
  30 H :    0.026188
  31 H :    0.026272
  32 H :    0.036229
  33 H :    0.034143

  Mayer bond orders larger than 0.100000
B(  0-S ,  1-C ) :   1.0999 B(  0-S ,  4-C ) :   1.1677 B(  1-C ,  2-C ) :   1.6113
B(  1-C , 32-H ) :   0.9731 B(  2-C ,  3-C ) :   1.2283 B(  2-C ,  6-C ) :   1.0242
B(  3-C ,  4-C ) :   1.5501 B(  3-C ,  5-H ) :   0.9905 B(  4-C , 20-C ) :   1.0442
B(  6-C ,  7-H ) :   0.9456 B(  6-C ,  8-H ) :   0.9406 B(  6-C ,  9-C ) :   1.0744
B(  9-C , 10-H ) :   0.9569 B(  9-C , 11-H ) :   0.9532 B(  9-C , 12-C ) :   1.0793
B( 12-C , 13-H ) :   0.9769 B( 12-C , 14-H ) :   0.9773 B( 12-C , 15-H ) :   0.9744
B( 16-S , 17-C ) :   1.1665 B( 16-S , 20-C ) :   1.1581 B( 17-C , 18-C ) :   1.5912
B( 17-C , 20-C ) :   0.1051 B( 17-C , 33-H ) :   0.9625 B( 18-C , 19-C ) :   1.2774
B( 18-C , 21-H ) :   0.9915 B( 19-C , 20-C ) :   1.5321 B( 19-C , 22-C ) :   1.0553
B( 22-C , 23-H ) :   0.9368 B( 22-C , 24-H ) :   0.9308 B( 22-C , 25-C ) :   1.0651
B( 25-C , 26-H ) :   0.9467 B( 25-C , 27-H ) :   0.9539 B( 25-C , 28-C ) :   1.0969
B( 28-C , 29-H ) :   0.9709 B( 28-C , 30-H ) :   0.9715 B( 28-C , 31-H ) :   0.9697

Dispersion correction           -0.013389097
FINAL SINGLE POINT ENERGY     -1339.874917673854

DIPOLE MOMENT
-------------
                                X             Y             Z
Electronic contribution:     13.26242     -21.54225     -11.11520
Nuclear contribution   :    -13.71912      21.88039      11.31016
                        -----------------------------------------
Total Dipole Moment    :     -0.45670       0.33814       0.19496
                        -----------------------------------------
Magnitude (a.u.)       :      0.60077
Magnitude (Debye)      :      1.52703

Rotational constants in cm-1:     0.017521     0.008098     0.006615
Rotational constants in MHz :   525.251752   242.783290   198.321337

                             ****ORCA TERMINATED NORMALLY****
TOTAL RUN TIME: 0 days 0 hours 0 minutes 30 seconds 917 msec
