                         Program Version 4.2.1 -  RELEASE  -
|  1> ! wB97X-D3 SP def2-SVP
|  2> %pal
|  3> nprocs 16
|  4> end
|  5>
|  6> * xyz 0 1
|  7> S 	 -70.583 	 39.895 	 126.087
|  8> C 	 -70.9733 	 40.8792 	 127.532
|  9> C 	 -70.1713 	 40.5687 	 128.612
| 10> C 	 -69.113 	 39.6982 	 128.182
| 11> C 	 -69.1327 	 39.3284 	 126.874
| 12> H 	 -68.3472 	 39.4361 	 128.902
| 13> C 	 -70.2759 	 41.0015 	 130.02
| 14> H 	 -69.8155 	 40.1753 	 130.514
| 15> H 	 -71.2652 	 41.084 	 130.384
| 16> C 	 -69.4673 	 42.2834 	 130.293
| 17> H 	 -68.4998 	 42.2951 	 129.764
| 18> H 	 -70.0207 	 43.1154 	 129.821
| 19> C 	 -69.1192 	 42.3583 	 131.767
| 20> H 	 -68.3599 	 41.673 	 132.066
| 21> H 	 -68.6321 	 43.3027 	 132.014
| 22> H 	 -69.9947 	 42.0704 	 132.407
| 23> S 	 -69.0311 	 37.0888 	 125.265
| 24> C 	 -67.5182 	 36.2847 	 124.894
| 25> C 	 -66.4706 	 36.8918 	 125.54
| 26> C 	 -66.9046 	 38.0983 	 126.271
| 27> C 	 -68.2856 	 38.3149 	 126.227
| 28> H 	 -65.4778 	 36.4453 	 125.404
| 29> C 	 -65.8633 	 38.9255 	 127.02
| 30> H 	 -65.009 	 38.2298 	 127.337
| 31> H 	 -66.2613 	 39.0649 	 127.998
| 32> C 	 -65.5441 	 40.2884 	 126.387
| 33> H 	 -66.4478 	 40.9049 	 126.335
| 34> H 	 -65.1298 	 40.2016 	 125.366
| 35> C 	 -64.5025 	 40.9467 	 127.358
| 36> H 	 -63.5501 	 40.4955 	 127.125
| 37> H 	 -64.7042 	 40.7991 	 128.455
| 38> H 	 -64.4005 	 41.9657 	 127.086
| 39> H 	 -71.7844 	 41.5685 	 127.503
| 40> H 	 -67.4586 	 35.4312 	 124.318
| 41> *
| 42>
| 43>                          ****END OF INPUT****

CARTESIAN COORDINATES (ANGSTROEM)
---------------------------------
  S    -70.583000   39.895000  126.087000
  C    -70.973300   40.879200  127.532000
  C    -70.171300   40.568700  128.612000
  C    -69.113000   39.698200  128.182000
  C    -69.132700   39.328400  126.874000
  H    -68.347200   39.436100  128.902000
  C    -70.275900   41.001500  130.020000
  H    -69.815500   40.175300  130.514000
  H    -71.265200   41.084000  130.384000
  C    -69.467300   42.283400  130.293000
  H    -68.499800   42.295100  129.764000
  H    -70.020700   43.115400  129.821000
  C    -69.119200   42.358300  131.767000
  H    -68.359900   41.673000  132.066000
  H    -68.632100   43.302700  132.014000
  H    -69.994700   42.070400  132.407000
  S    -69.031100   37.088800  125.265000
  C    -67.518200   36.284700  124.894000
  C    -66.470600   36.891800  125.540000
  C    -66.904600   38.098300  126.271000
  C    -68.285600   38.314900  126.227000
  H    -65.477800   36.445300  125.404000
  C    -65.863300   38.925500  127.020000
  H    -65.009000   38.229800  127.337000
  H    -66.261300   39.064900  127.998000
  C    -65.544100   40.288400  126.387000
  H    -66.447800   40.904900  126.335000
  H    -65.129800   40.201600  125.366000
  C    -64.502500   40.946700  127.358000
  H    -63.550100   40.495500  127.125000
  H    -64.704200   40.799100  128.455000
  H    -64.400500   41.965700  127.086000
  H    -71.784400   41.568500  127.503000
  H    -67.458600   35.431200  124.318000

 Total Charge           Charge          ....    0
 Multiplicity           Mult            ....    1
 Number of Electrons    NEL             ....  134
 Basis Dimension        Dim             ....  322

ORBITAL ENERGIES
----------------

  NO   OCC          E(Eh)            E(eV)
   0   2.0000     -88.964687     -2420.8522
   1   2.0000     -88.961155     -2420.7561
   2   2.0000     -10.330285      -281.1013
   3   2.0000     -10.326619      -281.0016
   4   2.0000     -10.314491      -280.6716
   5   2.0000     -10.309764      -280.5429
   6   2.0000     -10.304629      -280.4032
   7   2.0000     -10.300048      -280.2786
   8   2.0000     -10.296246      -280.1751
   9   2.0000     -10.292288      -280.0674
  10   2.0000     -10.291534      -280.0469
  11   2.0000     -10.291216      -280.0382
  12   2.0000     -10.289552      -279.9929
  13   2.0000     -10.287227      -279.9297
  14   2.0000     -10.280981      -279.7597
  15   2.0000     -10.276665      -279.6423
  16   2.0000      -8.079167      -219.8453
  17   2.0000      -8.076396      -219.7699
  18   2.0000      -6.037729      -164.2950
  19   2.0000      -6.034985      -164.2203
  20   2.0000      -6.033897      -164.1907
  21   2.0000      -6.030709      -164.1039
  22   2.0000      -6.029701      -164.0765
  23   2.0000      -6.027177      -164.0078
  24   2.0000      -1.005693       -27.3663
  25   2.0000      -0.981907       -26.7191
  26   2.0000      -0.920908       -25.0592
  27   2.0000      -0.904039       -24.6001
  28   2.0000      -0.869976       -23.6732
  29   2.0000      -0.850230       -23.1359
  30   2.0000      -0.841268       -22.8921
  31   2.0000      -0.816845       -22.2275
  32   2.0000      -0.782829       -21.3019
  33   2.0000      -0.767308       -20.8795
  34   2.0000      -0.709011       -19.2932
  35   2.0000      -0.706236       -19.2176
  36   2.0000      -0.694001       -18.8847
  37   2.0000      -0.661749       -18.0071
  38   2.0000      -0.642003       -17.4698
  39   2.0000      -0.630098       -17.1458
  40   2.0000      -0.593488       -16.1496
  41   2.0000      -0.569322       -15.4920
  42   2.0000      -0.561496       -15.2791
  43   2.0000      -0.555322       -15.1111
  44   2.0000      -0.534993       -14.5579
  45   2.0000      -0.526427       -14.3248
  46   2.0000      -0.519823       -14.1451
  47   2.0000      -0.510403       -13.8888
  48   2.0000      -0.504247       -13.7213
  49   2.0000      -0.498101       -13.5540
  50   2.0000      -0.491665       -13.3789
  51   2.0000      -0.485434       -13.2093
  52   2.0000      -0.467197       -12.7131
  53   2.0000      -0.463908       -12.6236
  54   2.0000      -0.457925       -12.4608
  55   2.0000      -0.453868       -12.3504
  56   2.0000      -0.446498       -12.1498
  57   2.0000      -0.442147       -12.0314
  58   2.0000      -0.437055       -11.8929
  59   2.0000      -0.424994       -11.5647
  60   2.0000      -0.415130       -11.2963
  61   2.0000      -0.413587       -11.2543
  62   2.0000      -0.407421       -11.0865
  63   2.0000      -0.352757        -9.5990
  64   2.0000      -0.329817        -8.9748
  65   2.0000      -0.324562        -8.8318
  66   2.0000      -0.289130        -7.8676
  67   0.0000       0.030518         0.8304
  68   0.0000       0.074429         2.0253
  69   0.0000       0.102794         2.7972
  70   0.0000       0.121445         3.3047
  71   0.0000       0.133683         3.6377

MULLIKEN ATOMIC CHARGES
-----------------------
   0 S :    0.090025
   1 C :   -0.127258
   2 C :   -0.081495
   3 C :    0.004087
   4 C :   -0.109054
   5 H :    0.011123
   6 C :    0.096629
   7 H :    0.010855
   8 H :    0.025844
   9 C :   -0.075596
  10 H :    0.030268
  11 H :    0.034552
  12 C :   -0.038065
  13 H :    0.021358
  14 H :    0.033999
  15 H :    0.037192
  16 S :    0.090948
  17 C :   -0.071318
  18 C :   -0.031433
  19 C :   -0.066529
  20 C :   -0.117814
  21 H :    0.029217
  22 C :    0.040671
  23 H :    0.028057
  24 H :   -0.005201
  25 C :   -0.066455
  26 H :    0.046736
  27 H :    0.041058
  28 C :   -0.036220
  29 H :    0.024317
  30 H :    0.040131
  31 H :    0.025584
  32 H :    0.033925
  33 H :    0.029865
Sum of atomic charges:   -0.0000000

LOEWDIN ATOMIC CHARGES
----------------------
   0 S :    0.383820
   1 C :   -0.175666
   2 C :   -0.055797
   3 C :   -0.061729
   4 C :   -0.189112
   5 H :    0.027955
   6 C :   -0.026474
   7 H :    0.029719
   8 H :    0.028137
   9 C :   -0.038926
  10 H :    0.027819
  11 H :    0.027068
  12 C :   -0.069402
  13 H :    0.022120
  14 H :    0.028176
  15 H :    0.029833
  16 S :    0.405850
  17 C :   -0.173838
  18 C :   -0.071644
  19 C :   -0.059753
  20 C :   -0.205342
  21 H :    0.037050
  22 C :   -0.043959
  23 H :    0.038619
  24 H :    0.020255
  25 C :   -0.031367
  26 H :    0.028360
  27 H :    0.029055
  28 C :   -0.064434
  29 H :    0.023538
  30 H :    0.029950
  31 H :    0.018506
  32 H :    0.017830
  33 H :    0.013784

  Mayer bond orders larger than 0.100000
B(  0-S ,  1-C ) :   1.1237 B(  0-S ,  4-C ) :   1.1370 B(  1-C ,  2-C ) :   1.6126
B(  1-C , 32-H ) :   0.9780 B(  2-C ,  3-C ) :   1.2432 B(  2-C ,  6-C ) :   1.0242
B(  3-C ,  4-C ) :   1.5833 B(  3-C ,  5-H ) :   0.9857 B(  4-C , 20-C ) :   1.0378
B(  6-C ,  7-H ) :   0.9372 B(  6-C ,  8-H ) :   0.9340 B(  6-C ,  9-C ) :   1.0546
B(  9-C , 10-H ) :   0.9582 B(  9-C , 11-H ) :   0.9568 B(  9-C , 12-C ) :   1.0734
B( 12-C , 13-H ) :   0.9730 B( 12-C , 14-H ) :   0.9711 B( 12-C , 15-H ) :   0.9727
B( 16-S , 17-C ) :   1.1500 B( 16-S , 20-C ) :   1.1377 B( 17-C , 18-C ) :   1.6181
B( 17-C , 33-H ) :   0.9781 B( 18-C , 19-C ) :   1.2251 B( 18-C , 21-H ) :   0.9911
B( 19-C , 20-C ) :   1.6045 B( 19-C , 22-C ) :   1.0369 B( 22-C , 23-H ) :   0.9399
B( 22-C , 24-H ) :   0.9298 B( 22-C , 25-C ) :   1.0532 B( 25-C , 26-H ) :   0.9566
B( 25-C , 27-H ) :   0.9581 B( 25-C , 28-C ) :   1.0708 B( 28-C , 29-H ) :   0.9767
B( 28-C , 30-H ) :   0.9750 B( 28-C , 31-H ) :   0.9742

Dispersion correction           -0.014017740
FINAL SINGLE POINT ENERGY     -1339.874906307413

DIPOLE MOMENT
-------------
                                X             Y             Z
Electronic contribution:    -16.23825     -16.89880     -21.27041
Nuclear contribution   :     16.67030      17.10979      21.86256
                        -----------------------------------------
Total Dipole Moment    :      0.43205       0.21099       0.59215
                        -----------------------------------------
Magnitude (a.u.)       :      0.76277
Magnitude (Debye)      :      1.93881

Rotational constants in cm-1:     0.017746     0.009112     0.006718
Rotational constants in MHz :   532.009953   273.155983   201.402147

                             ****ORCA TERMINATED NORMALLY****
TOTAL RUN TIME: 0 days 0 hours 0 minutes 34 seconds 510 msec
