                         Program Version 4.2.1 -  RELEASE  -
|  1> ! wB97X-D3 SP def2-SVP
|  2> %pal
|  3> nprocs 16
|  4> end
|  5>
|  6> * xyz 0 1
|  7> S 	 -27.4376 	 48.9086 	 66.8992
|  8> C 	 -26.4878 	 48.8971 	 65.4455
|  9> C 	 -25.172 	 48.6333 	 65.7338
| 10> C 	 -24.9433 	 48.3462 	 67.0993
| 11> C 	 -26.0691 	 48.3363 	 67.8884
| 12> H 	 -23.9516 	 48.2251 	 67.6195
| 13> C 	 -24.0447 	 48.7358 	 64.7919
| 14> H 	 -23.7841 	 49.8287 	 64.6858
| 15> H 	 -24.3984 	 48.6263 	 63.7536
| 16> C 	 -22.9023 	 47.7799 	 65.2244
| 17> H 	 -22.1308 	 47.8622 	 64.4806
| 18> H 	 -22.3019 	 48.1176 	 66.0891
| 19> C 	 -23.2728 	 46.2815 	 65.4207
| 20> H 	 -23.8597 	 46.0452 	 66.3588
| 21> H 	 -23.8446 	 45.92 	 64.6329
| 22> H 	 -22.3259 	 45.6648 	 65.3209
| 23> S 	 -27.4063 	 48.8419 	 70.1045
| 24> C 	 -26.9186 	 48.2275 	 71.6394
| 25> C 	 -25.8612 	 47.3023 	 71.4461
| 26> C 	 -25.3275 	 47.4228 	 70.1607
| 27> C 	 -26.1079 	 48.142 	 69.2991
| 28> H 	 -25.4051 	 46.8701 	 72.2302
| 29> C 	 -24.0244 	 46.8042 	 69.8853
| 30> H 	 -24.049 	 46.2656 	 68.9715
| 31> H 	 -23.9826 	 45.8363 	 70.3515
| 32> C 	 -22.8056 	 47.6319 	 70.0952
| 33> H 	 -22.5454 	 48.1803 	 69.2208
| 34> H 	 -21.9577 	 46.9904 	 70.2423
| 35> C 	 -22.6442 	 48.5634 	 71.2679
| 36> H 	 -22.9477 	 48.2426 	 72.2938
| 37> H 	 -23.2778 	 49.4046 	 71.0967
| 38> H 	 -21.6209 	 48.94 	 71.3767
| 39> H 	 -26.9172 	 48.9816 	 64.509
| 40> H 	 -27.4274 	 48.3841 	 72.6106
| 41> *
| 42>
| 43>                          ****END OF INPUT****

CARTESIAN COORDINATES (ANGSTROEM)
---------------------------------
  S    -27.437600   48.908600   66.899200
  C    -26.487800   48.897100   65.445500
  C    -25.172000   48.633300   65.733800
  C    -24.943300   48.346200   67.099300
  C    -26.069100   48.336300   67.888400
  H    -23.951600   48.225100   67.619500
  C    -24.044700   48.735800   64.791900
  H    -23.784100   49.828700   64.685800
  H    -24.398400   48.626300   63.753600
  C    -22.902300   47.779900   65.224400
  H    -22.130800   47.862200   64.480600
  H    -22.301900   48.117600   66.089100
  C    -23.272800   46.281500   65.420700
  H    -23.859700   46.045200   66.358800
  H    -23.844600   45.920000   64.632900
  H    -22.325900   45.664800   65.320900
  S    -27.406300   48.841900   70.104500
  C    -26.918600   48.227500   71.639400
  C    -25.861200   47.302300   71.446100
  C    -25.327500   47.422800   70.160700
  C    -26.107900   48.142000   69.299100
  H    -25.405100   46.870100   72.230200
  C    -24.024400   46.804200   69.885300
  H    -24.049000   46.265600   68.971500
  H    -23.982600   45.836300   70.351500
  C    -22.805600   47.631900   70.095200
  H    -22.545400   48.180300   69.220800
  H    -21.957700   46.990400   70.242300
  C    -22.644200   48.563400   71.267900
  H    -22.947700   48.242600   72.293800
  H    -23.277800   49.404600   71.096700
  H    -21.620900   48.940000   71.376700
  H    -26.917200   48.981600   64.509000
  H    -27.427400   48.384100   72.610600

 Total Charge           Charge          ....    0
 Multiplicity           Mult            ....    1
 Number of Electrons    NEL             ....  134
 Basis Dimension        Dim             ....  322

ORBITAL ENERGIES
----------------

  NO   OCC          E(Eh)            E(eV)
   0   2.0000     -88.965109     -2420.8637
   1   2.0000     -88.962058     -2420.7807
   2   2.0000     -10.326763      -281.0055
   3   2.0000     -10.319066      -280.7961
   4   2.0000     -10.316762      -280.7334
   5   2.0000     -10.304706      -280.4053
   6   2.0000     -10.295572      -280.1567
   7   2.0000     -10.293616      -280.1035
   8   2.0000     -10.291901      -280.0569
   9   2.0000     -10.291837      -280.0551
  10   2.0000     -10.288892      -279.9750
  11   2.0000     -10.284190      -279.8470
  12   2.0000     -10.281624      -279.7772
  13   2.0000     -10.280814      -279.7552
  14   2.0000     -10.280031      -279.7339
  15   2.0000     -10.274848      -279.5928
  16   2.0000      -8.081640      -219.9126
  17   2.0000      -8.076601      -219.7755
  18   2.0000      -6.039999      -164.3567
  19   2.0000      -6.035686      -164.2394
  20   2.0000      -6.035308      -164.2291
  21   2.0000      -6.032660      -164.1570
  22   2.0000      -6.031199      -164.1173
  23   2.0000      -6.027122      -164.0063
  24   2.0000      -1.019603       -27.7448
  25   2.0000      -0.989925       -26.9372
  26   2.0000      -0.923193       -25.1213
  27   2.0000      -0.911135       -24.7933
  28   2.0000      -0.875043       -23.8111
  29   2.0000      -0.859699       -23.3936
  30   2.0000      -0.839400       -22.8412
  31   2.0000      -0.819005       -22.2863
  32   2.0000      -0.792553       -21.5665
  33   2.0000      -0.774435       -21.0735
  34   2.0000      -0.714760       -19.4496
  35   2.0000      -0.706313       -19.2197
  36   2.0000      -0.696111       -18.9422
  37   2.0000      -0.676277       -18.4024
  38   2.0000      -0.638883       -17.3849
  39   2.0000      -0.626868       -17.0580
  40   2.0000      -0.604127       -16.4391
  41   2.0000      -0.569133       -15.4869
  42   2.0000      -0.561589       -15.2816
  43   2.0000      -0.556182       -15.1345
  44   2.0000      -0.550017       -14.9667
  45   2.0000      -0.524846       -14.2818
  46   2.0000      -0.520844       -14.1729
  47   2.0000      -0.510111       -13.8808
  48   2.0000      -0.506944       -13.7946
  49   2.0000      -0.504281       -13.7222
  50   2.0000      -0.491158       -13.3651
  51   2.0000      -0.486090       -13.2272
  52   2.0000      -0.478156       -13.0113
  53   2.0000      -0.468889       -12.7591
  54   2.0000      -0.456485       -12.4216
  55   2.0000      -0.448774       -12.2118
  56   2.0000      -0.447167       -12.1680
  57   2.0000      -0.438190       -11.9238
  58   2.0000      -0.432042       -11.7564
  59   2.0000      -0.422412       -11.4944
  60   2.0000      -0.413955       -11.2643
  61   2.0000      -0.410349       -11.1662
  62   2.0000      -0.398494       -10.8436
  63   2.0000      -0.361839        -9.8462
  64   2.0000      -0.335844        -9.1388
  65   2.0000      -0.322954        -8.7880
  66   2.0000      -0.277293        -7.5455
  67   0.0000       0.022640         0.6161
  68   0.0000       0.079825         2.1722
  69   0.0000       0.105956         2.8832
  70   0.0000       0.119921         3.2632
  71   0.0000       0.128983         3.5098

MULLIKEN ATOMIC CHARGES
-----------------------
   0 S :    0.089177
   1 C :   -0.102170
   2 C :   -0.064782
   3 C :   -0.047646
   4 C :   -0.091647
   5 H :    0.015569
   6 C :    0.083785
   7 H :    0.049465
   8 H :    0.011595
   9 C :   -0.086071
  10 H :    0.014280
  11 H :    0.032385
  12 C :   -0.053635
  13 H :    0.062223
  14 H :    0.015352
  15 H :    0.039081
  16 S :    0.113372
  17 C :   -0.116460
  18 C :    0.026198
  19 C :   -0.103716
  20 C :   -0.105936
  21 H :   -0.023988
  22 C :    0.109551
  23 H :   -0.007252
  24 H :   -0.001933
  25 C :   -0.011143
  26 H :    0.018954
  27 H :    0.014439
  28 C :   -0.060807
  29 H :    0.027689
  30 H :    0.028093
  31 H :    0.034194
  32 H :    0.020845
  33 H :    0.070938
Sum of atomic charges:   -0.0000000

LOEWDIN ATOMIC CHARGES
----------------------
   0 S :    0.384966
   1 C :   -0.190001
   2 C :   -0.067577
   3 C :   -0.073079
   4 C :   -0.176916
   5 H :    0.040352
   6 C :   -0.040316
   7 H :    0.046220
   8 H :    0.031614
   9 C :   -0.047826
  10 H :    0.022278
  11 H :    0.026870
  12 C :   -0.069139
  13 H :    0.032755
  14 H :    0.015542
  15 H :    0.036475
  16 S :    0.453864
  17 C :   -0.199567
  18 C :   -0.049848
  19 C :   -0.063786
  20 C :   -0.215027
  21 H :    0.009688
  22 C :   -0.048492
  23 H :    0.033327
  24 H :    0.037434
  25 C :   -0.038773
  26 H :    0.019107
  27 H :    0.027494
  28 C :   -0.066943
  29 H :    0.026340
  30 H :    0.021815
  31 H :    0.030416
  32 H :    0.014206
  33 H :    0.036527

  Mayer bond orders larger than 0.100000
B(  0-S ,  1-C ) :   1.1275 B(  0-S ,  4-C ) :   1.1308 B(  1-C ,  2-C ) :   1.5917
B(  1-C , 32-H ) :   0.9820 B(  2-C ,  3-C ) :   1.2406 B(  2-C ,  6-C ) :   1.0348
B(  3-C ,  4-C ) :   1.5634 B(  3-C ,  5-H ) :   0.9786 B(  4-C , 20-C ) :   1.0997
B(  6-C ,  7-H ) :   0.9299 B(  6-C ,  8-H ) :   0.9327 B(  6-C ,  9-C ) :   1.0638
B(  9-C , 10-H ) :   0.9510 B(  9-C , 11-H ) :   0.9470 B(  9-C , 12-C ) :   1.0733
B( 12-C , 13-H ) :   0.9660 B( 12-C , 14-H ) :   0.9721 B( 12-C , 15-H ) :   0.9722
B( 16-S , 17-C ) :   1.1868 B( 16-S , 20-C ) :   1.1523 B( 17-C , 18-C ) :   1.5412
B( 17-C , 20-C ) :   0.1040 B( 17-C , 33-H ) :   0.9673 B( 18-C , 19-C ) :   1.3067
B( 18-C , 21-H ) :   0.9985 B( 19-C , 20-C ) :   1.5288 B( 19-C , 22-C ) :   1.0615
B( 22-C , 23-H ) :   0.9040 B( 22-C , 24-H ) :   0.9009 B( 22-C , 25-C ) :   1.0667
B( 25-C , 26-H ) :   0.9441 B( 25-C , 27-H ) :   0.9458 B( 25-C , 28-C ) :   1.0902
B( 28-C , 29-H ) :   0.9724 B( 28-C , 30-H ) :   0.9689 B( 28-C , 31-H ) :   0.9717

Dispersion correction           -0.016062353
FINAL SINGLE POINT ENERGY     -1339.844668855350

DIPOLE MOMENT
-------------
                                X             Y             Z
Electronic contribution:    -27.33752       7.80244       3.26426
Nuclear contribution   :     28.07425      -7.98624      -3.32888
                        -----------------------------------------
Total Dipole Moment    :      0.73673      -0.18380      -0.06462
                        -----------------------------------------
Magnitude (a.u.)       :      0.76205
Magnitude (Debye)      :      1.93699

Rotational constants in cm-1:     0.018693     0.011148     0.007651
Rotational constants in MHz :   560.404365   334.213115   229.384080

                             ****ORCA TERMINATED NORMALLY****
TOTAL RUN TIME: 0 days 0 hours 0 minutes 35 seconds 588 msec
