                         Program Version 4.2.1 -  RELEASE  -
|  1> ! wB97X-D3 SP def2-SVP
|  2> %pal
|  3> nprocs 16
|  4> end
|  5>
|  6> * xyz 0 1
|  7> S 	 -94.1331 	 54.1685 	 121.601
|  8> C 	 -93.4534 	 54.1883 	 119.942
|  9> C 	 -94.4555 	 54.4745 	 119.008
| 10> C 	 -95.7365 	 54.5797 	 119.542
| 11> C 	 -95.7883 	 54.3035 	 120.916
| 12> H 	 -96.5381 	 54.8333 	 119.055
| 13> C 	 -94.3395 	 54.662 	 117.525
| 14> H 	 -93.3319 	 54.4003 	 117.259
| 15> H 	 -94.5531 	 55.7124 	 117.191
| 16> C 	 -95.2897 	 53.7471 	 116.68
| 17> H 	 -95.3032 	 52.7791 	 117.184
| 18> H 	 -96.2736 	 54.2488 	 116.65
| 19> C 	 -94.7988 	 53.3984 	 115.279
| 20> H 	 -94.8238 	 54.3485 	 114.805
| 21> H 	 -93.8596 	 52.9613 	 115.127
| 22> H 	 -95.476 	 52.7052 	 114.769
| 23> S 	 -96.9195 	 55.3465 	 123.331
| 24> C 	 -98.4429 	 54.5822 	 123.714
| 25> C 	 -98.8191 	 53.5293 	 122.918
| 26> C 	 -97.9395 	 53.4417 	 121.799
| 27> C 	 -96.8585 	 54.26 	 121.891
| 28> H 	 -99.6974 	 52.9287 	 123.073
| 29> C 	 -98.2766 	 52.5334 	 120.732
| 30> H 	 -97.9671 	 52.8886 	 119.795
| 31> H 	 -99.4037 	 52.5054 	 120.548
| 32> C 	 -97.8372 	 51.0916 	 120.932
| 33> H 	 -98.519 	 50.4084 	 120.307
| 34> H 	 -98.0887 	 50.9361 	 121.993
| 35> C 	 -96.4038 	 50.9559 	 120.599
| 36> H 	 -95.9377 	 49.9256 	 120.64
| 37> H 	 -95.9121 	 51.3599 	 121.425
| 38> H 	 -95.8621 	 51.4279 	 119.782
| 39> H 	 -92.4157 	 54.2299 	 119.783
| 40> H 	 -99.0795 	 54.8641 	 124.509
| 41> *
| 42>
| 43>                          ****END OF INPUT****

CARTESIAN COORDINATES (ANGSTROEM)
---------------------------------
  S    -94.133100   54.168500  121.601000
  C    -93.453400   54.188300  119.942000
  C    -94.455500   54.474500  119.008000
  C    -95.736500   54.579700  119.542000
  C    -95.788300   54.303500  120.916000
  H    -96.538100   54.833300  119.055000
  C    -94.339500   54.662000  117.525000
  H    -93.331900   54.400300  117.259000
  H    -94.553100   55.712400  117.191000
  C    -95.289700   53.747100  116.680000
  H    -95.303200   52.779100  117.184000
  H    -96.273600   54.248800  116.650000
  C    -94.798800   53.398400  115.279000
  H    -94.823800   54.348500  114.805000
  H    -93.859600   52.961300  115.127000
  H    -95.476000   52.705200  114.769000
  S    -96.919500   55.346500  123.331000
  C    -98.442900   54.582200  123.714000
  C    -98.819100   53.529300  122.918000
  C    -97.939500   53.441700  121.799000
  C    -96.858500   54.260000  121.891000
  H    -99.697400   52.928700  123.073000
  C    -98.276600   52.533400  120.732000
  H    -97.967100   52.888600  119.795000
  H    -99.403700   52.505400  120.548000
  C    -97.837200   51.091600  120.932000
  H    -98.519000   50.408400  120.307000
  H    -98.088700   50.936100  121.993000
  C    -96.403800   50.955900  120.599000
  H    -95.937700   49.925600  120.640000
  H    -95.912100   51.359900  121.425000
  H    -95.862100   51.427900  119.782000
  H    -92.415700   54.229900  119.783000
  H    -99.079500   54.864100  124.509000

 Total Charge           Charge          ....    0
 Multiplicity           Mult            ....    1
 Number of Electrons    NEL             ....  134
 Basis Dimension        Dim             ....  322

ORBITAL ENERGIES
----------------

  NO   OCC          E(Eh)            E(eV)
   0   2.0000     -88.972194     -2421.0565
   1   2.0000     -88.964440     -2420.8455
   2   2.0000     -10.333875      -281.1990
   3   2.0000     -10.324595      -280.9465
   4   2.0000     -10.316082      -280.7149
   5   2.0000     -10.314992      -280.6852
   6   2.0000     -10.299964      -280.2763
   7   2.0000     -10.295369      -280.1512
   8   2.0000     -10.293195      -280.0921
   9   2.0000     -10.291701      -280.0514
  10   2.0000     -10.289889      -280.0021
  11   2.0000     -10.288929      -279.9760
  12   2.0000     -10.282415      -279.7987
  13   2.0000     -10.280960      -279.7591
  14   2.0000     -10.272115      -279.5184
  15   2.0000     -10.262354      -279.2528
  16   2.0000      -8.085996      -220.0311
  17   2.0000      -8.077842      -219.8092
  18   2.0000      -6.044566      -164.4810
  19   2.0000      -6.040930      -164.3821
  20   2.0000      -6.036457      -164.2603
  21   2.0000      -6.036355      -164.2576
  22   2.0000      -6.032634      -164.1563
  23   2.0000      -6.028587      -164.0462
  24   2.0000      -1.005743       -27.3676
  25   2.0000      -0.980925       -26.6923
  26   2.0000      -0.920675       -25.0529
  27   2.0000      -0.911143       -24.7935
  28   2.0000      -0.869400       -23.6576
  29   2.0000      -0.855733       -23.2857
  30   2.0000      -0.849378       -23.1128
  31   2.0000      -0.815596       -22.1935
  32   2.0000      -0.787648       -21.4330
  33   2.0000      -0.771632       -20.9972
  34   2.0000      -0.711485       -19.3605
  35   2.0000      -0.697423       -18.9778
  36   2.0000      -0.694739       -18.9048
  37   2.0000      -0.663292       -18.0491
  38   2.0000      -0.651549       -17.7295
  39   2.0000      -0.627775       -17.0826
  40   2.0000      -0.609056       -16.5733
  41   2.0000      -0.580511       -15.7965
  42   2.0000      -0.559108       -15.2141
  43   2.0000      -0.548522       -14.9260
  44   2.0000      -0.534965       -14.5571
  45   2.0000      -0.527419       -14.3518
  46   2.0000      -0.521175       -14.1819
  47   2.0000      -0.512467       -13.9449
  48   2.0000      -0.506861       -13.7924
  49   2.0000      -0.499369       -13.5885
  50   2.0000      -0.489684       -13.3250
  51   2.0000      -0.483940       -13.1687
  52   2.0000      -0.478319       -13.0157
  53   2.0000      -0.471385       -12.8270
  54   2.0000      -0.457931       -12.4609
  55   2.0000      -0.451486       -12.2856
  56   2.0000      -0.437906       -11.9160
  57   2.0000      -0.435389       -11.8475
  58   2.0000      -0.425500       -11.5785
  59   2.0000      -0.423958       -11.5365
  60   2.0000      -0.418077       -11.3764
  61   2.0000      -0.410550       -11.1716
  62   2.0000      -0.404451       -11.0057
  63   2.0000      -0.342652        -9.3240
  64   2.0000      -0.334810        -9.1106
  65   2.0000      -0.330937        -9.0052
  66   2.0000      -0.288350        -7.8464
  67   0.0000       0.028342         0.7712
  68   0.0000       0.057374         1.5612
  69   0.0000       0.104336         2.8391
  70   0.0000       0.114337         3.1113
  71   0.0000       0.120009         3.2656

MULLIKEN ATOMIC CHARGES
-----------------------
   0 S :    0.080036
   1 C :   -0.105680
   2 C :   -0.081822
   3 C :    0.119493
   4 C :   -0.188150
   5 H :   -0.063210
   6 C :    0.078162
   7 H :    0.002572
   8 H :    0.047224
   9 C :   -0.127857
  10 H :    0.040475
  11 H :    0.043329
  12 C :   -0.019054
  13 H :    0.018399
  14 H :    0.024267
  15 H :    0.033920
  16 S :    0.125570
  17 C :   -0.062593
  18 C :   -0.020980
  19 C :   -0.034106
  20 C :   -0.132815
  21 H :    0.018567
  22 C :    0.058173
  23 H :   -0.010782
  24 H :    0.026639
  25 C :   -0.036216
  26 H :    0.035185
  27 H :    0.024091
  28 C :   -0.032749
  29 H :    0.025906
  30 H :    0.004579
  31 H :    0.037613
  32 H :    0.033732
  33 H :    0.038085
Sum of atomic charges:    0.0000000

LOEWDIN ATOMIC CHARGES
----------------------
   0 S :    0.369830
   1 C :   -0.183084
   2 C :   -0.058791
   3 C :   -0.040836
   4 C :   -0.151412
   5 H :    0.001072
   6 C :   -0.032178
   7 H :    0.022699
   8 H :    0.037603
   9 C :   -0.041309
  10 H :    0.024167
  11 H :    0.026453
  12 C :   -0.061341
  13 H :    0.021209
  14 H :    0.018598
  15 H :    0.030916
  16 S :    0.384024
  17 C :   -0.166891
  18 C :   -0.062705
  19 C :   -0.051726
  20 C :   -0.197770
  21 H :    0.032600
  22 C :   -0.036444
  23 H :    0.017775
  24 H :    0.039594
  25 C :   -0.033629
  26 H :    0.026480
  27 H :    0.027806
  28 C :   -0.083683
  29 H :    0.031550
  30 H :    0.022220
  31 H :    0.030308
  32 H :    0.016417
  33 H :    0.020479

  Mayer bond orders larger than 0.100000
B(  0-S ,  1-C ) :   1.1245 B(  0-S ,  4-C ) :   1.1469 B(  1-C ,  2-C ) :   1.5992
B(  1-C ,  4-C ) :   0.1133 B(  1-C , 32-H ) :   0.9748 B(  2-C ,  3-C ) :   1.2327
B(  2-C ,  6-C ) :   1.0398 B(  3-C ,  4-C ) :   1.5614 B(  3-C ,  5-H ) :   1.0221
B(  4-C , 20-C ) :   1.0543 B(  6-C ,  7-H ) :   0.9401 B(  6-C ,  8-H ) :   0.9355
B(  6-C ,  9-C ) :   1.0515 B(  9-C , 10-H ) :   0.9624 B(  9-C , 11-H ) :   0.9521
B(  9-C , 12-C ) :   1.0898 B( 12-C , 13-H ) :   0.9745 B( 12-C , 14-H ) :   0.9747
B( 12-C , 15-H ) :   0.9730 B( 16-S , 17-C ) :   1.1414 B( 16-S , 20-C ) :   1.0982
B( 17-C , 18-C ) :   1.6431 B( 17-C , 33-H ) :   0.9648 B( 18-C , 19-C ) :   1.2076
B( 18-C , 21-H ) :   0.9885 B( 19-C , 20-C ) :   1.6230 B( 19-C , 22-C ) :   1.0691
B( 22-C , 23-H ) :   0.9183 B( 22-C , 24-H ) :   0.9264 B( 22-C , 25-C ) :   1.0651
B( 25-C , 26-H ) :   0.9547 B( 25-C , 27-H ) :   0.9539 B( 25-C , 28-C ) :   1.0719
B( 28-C , 29-H ) :   0.9670 B( 28-C , 30-H ) :   0.9582 B( 28-C , 31-H ) :   0.9753

Dispersion correction           -0.016024755
FINAL SINGLE POINT ENERGY     -1339.839726320450

DIPOLE MOMENT
-------------
                                X             Y             Z
Electronic contribution:      2.52536      14.29385      25.48022
Nuclear contribution   :     -2.87428     -14.39594     -25.97976
                        -----------------------------------------
Total Dipole Moment    :     -0.34893      -0.10209      -0.49953
                        -----------------------------------------
Magnitude (a.u.)       :      0.61782
Magnitude (Debye)      :      1.57038

Rotational constants in cm-1:     0.021165     0.009029     0.007551
Rotational constants in MHz :   634.517047   270.689533   226.363625

                             ****ORCA TERMINATED NORMALLY****
TOTAL RUN TIME: 0 days 0 hours 0 minutes 35 seconds 157 msec
