                         Program Version 4.2.1 -  RELEASE  -
|  1> ! wB97X-D3 SP def2-SVP
|  2> %pal
|  3> nprocs 16
|  4> end
|  5>
|  6> * xyz 0 1
|  7> S 	 -54.4407 	 28.8059 	 98.9042
|  8> C 	 -53.8225 	 27.2549 	 98.2698
|  9> C 	 -52.4504 	 27.1334 	 98.4912
| 10> C 	 -51.8824 	 28.4252 	 98.7915
| 11> C 	 -52.8315 	 29.4497 	 98.8983
| 12> H 	 -50.8278 	 28.8076 	 98.9686
| 13> C 	 -51.6514 	 25.8741 	 98.4035
| 14> H 	 -52.412 	 25.1261 	 98.4514
| 15> H 	 -51.0165 	 25.8149 	 99.2596
| 16> C 	 -50.7649 	 25.7076 	 97.1942
| 17> H 	 -51.2919 	 25.9941 	 96.2146
| 18> H 	 -49.9778 	 26.4272 	 97.2651
| 19> C 	 -50.2444 	 24.2229 	 97.0774
| 20> H 	 -49.4379 	 24.0956 	 97.833
| 21> H 	 -51.0255 	 23.5549 	 97.286
| 22> H 	 -49.7716 	 23.9982 	 96.0681
| 23> S 	 -53.6913 	 31.721 	 100.084
| 24> C 	 -52.5973 	 33.097 	 100.329
| 25> C 	 -51.3979 	 32.9658 	 99.694
| 26> C 	 -51.4207 	 31.6944 	 99.0595
| 27> C 	 -52.5159 	 30.8319 	 99.2566
| 28> H 	 -50.6847 	 33.7262 	 99.8208
| 29> C 	 -50.196 	 31.2922 	 98.2948
| 30> H 	 -49.7126 	 32.1454 	 97.7748
| 31> H 	 -50.4618 	 30.4508 	 97.5988
| 32> C 	 -48.9592 	 30.7575 	 99.1925
| 33> H 	 -49.3299 	 30.0807 	 99.9436
| 34> H 	 -48.4807 	 31.5622 	 99.7031
| 35> C 	 -47.8267 	 30.1449 	 98.3941
| 36> H 	 -47.323 	 30.864 	 97.775
| 37> H 	 -48.2372 	 29.3986 	 97.8046
| 38> H 	 -47.1302 	 29.6314 	 99.1331
| 39> H 	 -54.3068 	 26.3459 	 98.0273
| 40> H 	 -52.9046 	 33.9973 	 100.858
| 41> *
| 42>
| 43>                          ****END OF INPUT****

CARTESIAN COORDINATES (ANGSTROEM)
---------------------------------
  S    -54.440700   28.805900   98.904200
  C    -53.822500   27.254900   98.269800
  C    -52.450400   27.133400   98.491200
  C    -51.882400   28.425200   98.791500
  C    -52.831500   29.449700   98.898300
  H    -50.827800   28.807600   98.968600
  C    -51.651400   25.874100   98.403500
  H    -52.412000   25.126100   98.451400
  H    -51.016500   25.814900   99.259600
  C    -50.764900   25.707600   97.194200
  H    -51.291900   25.994100   96.214600
  H    -49.977800   26.427200   97.265100
  C    -50.244400   24.222900   97.077400
  H    -49.437900   24.095600   97.833000
  H    -51.025500   23.554900   97.286000
  H    -49.771600   23.998200   96.068100
  S    -53.691300   31.721000  100.084000
  C    -52.597300   33.097000  100.329000
  C    -51.397900   32.965800   99.694000
  C    -51.420700   31.694400   99.059500
  C    -52.515900   30.831900   99.256600
  H    -50.684700   33.726200   99.820800
  C    -50.196000   31.292200   98.294800
  H    -49.712600   32.145400   97.774800
  H    -50.461800   30.450800   97.598800
  C    -48.959200   30.757500   99.192500
  H    -49.329900   30.080700   99.943600
  H    -48.480700   31.562200   99.703100
  C    -47.826700   30.144900   98.394100
  H    -47.323000   30.864000   97.775000
  H    -48.237200   29.398600   97.804600
  H    -47.130200   29.631400   99.133100
  H    -54.306800   26.345900   98.027300
  H    -52.904600   33.997300  100.858000

 Total Charge           Charge          ....    0
 Multiplicity           Mult            ....    1
 Number of Electrons    NEL             ....  134
 Basis Dimension        Dim             ....  322

ORBITAL ENERGIES
----------------

  NO   OCC          E(Eh)            E(eV)
   0   2.0000     -88.972370     -2421.0613
   1   2.0000     -88.964169     -2420.8381
   2   2.0000     -10.333980      -281.2019
   3   2.0000     -10.327815      -281.0341
   4   2.0000     -10.318409      -280.7782
   5   2.0000     -10.315906      -280.7101
   6   2.0000     -10.306342      -280.4498
   7   2.0000     -10.304674      -280.4044
   8   2.0000     -10.300464      -280.2899
   9   2.0000     -10.294067      -280.1158
  10   2.0000     -10.293783      -280.1081
  11   2.0000     -10.292515      -280.0736
  12   2.0000     -10.288937      -279.9762
  13   2.0000     -10.286599      -279.9126
  14   2.0000     -10.283348      -279.8241
  15   2.0000     -10.275636      -279.6143
  16   2.0000      -8.086425      -220.0428
  17   2.0000      -8.079998      -219.8679
  18   2.0000      -6.045154      -164.4970
  19   2.0000      -6.041337      -164.3931
  20   2.0000      -6.038437      -164.3142
  21   2.0000      -6.036673      -164.2662
  22   2.0000      -6.034376      -164.2037
  23   2.0000      -6.030758      -164.1053
  24   2.0000      -1.013326       -27.5740
  25   2.0000      -0.987196       -26.8630
  26   2.0000      -0.919333       -25.0163
  27   2.0000      -0.903616       -24.5886
  28   2.0000      -0.877055       -23.8659
  29   2.0000      -0.853866       -23.2349
  30   2.0000      -0.846088       -23.0232
  31   2.0000      -0.819303       -22.2944
  32   2.0000      -0.783035       -21.3075
  33   2.0000      -0.764528       -20.8039
  34   2.0000      -0.711647       -19.3649
  35   2.0000      -0.701600       -19.0915
  36   2.0000      -0.693909       -18.8822
  37   2.0000      -0.670149       -18.2357
  38   2.0000      -0.637722       -17.3533
  39   2.0000      -0.618091       -16.8191
  40   2.0000      -0.591773       -16.1030
  41   2.0000      -0.580407       -15.7937
  42   2.0000      -0.573957       -15.6182
  43   2.0000      -0.564606       -15.3637
  44   2.0000      -0.532005       -14.4766
  45   2.0000      -0.523549       -14.2465
  46   2.0000      -0.514159       -13.9910
  47   2.0000      -0.507802       -13.8180
  48   2.0000      -0.507311       -13.8046
  49   2.0000      -0.501239       -13.6394
  50   2.0000      -0.494714       -13.4618
  51   2.0000      -0.483824       -13.1655
  52   2.0000      -0.472696       -12.8627
  53   2.0000      -0.466551       -12.6955
  54   2.0000      -0.464627       -12.6431
  55   2.0000      -0.452903       -12.3241
  56   2.0000      -0.447625       -12.1805
  57   2.0000      -0.437516       -11.9054
  58   2.0000      -0.429715       -11.6931
  59   2.0000      -0.423714       -11.5298
  60   2.0000      -0.420942       -11.4544
  61   2.0000      -0.418629       -11.3915
  62   2.0000      -0.413656       -11.2562
  63   2.0000      -0.363162        -9.8821
  64   2.0000      -0.333262        -9.0685
  65   2.0000      -0.325240        -8.8502
  66   2.0000      -0.281361        -7.6562
  67   0.0000       0.018517         0.5039
  68   0.0000       0.074808         2.0356
  69   0.0000       0.091696         2.4952
  70   0.0000       0.115870         3.1530
  71   0.0000       0.127504         3.4696

MULLIKEN ATOMIC CHARGES
-----------------------
   0 S :    0.110102
   1 C :   -0.074038
   2 C :   -0.115394
   3 C :   -0.017224
   4 C :   -0.103303
   5 H :    0.016901
   6 C :    0.113912
   7 H :    0.001398
   8 H :    0.027735
   9 C :   -0.095473
  10 H :    0.040144
  11 H :    0.024085
  12 C :   -0.050923
  13 H :    0.033934
  14 H :    0.027280
  15 H :    0.050156
  16 S :    0.082033
  17 C :   -0.096209
  18 C :    0.004481
  19 C :   -0.042064
  20 C :   -0.108783
  21 H :    0.011231
  22 C :   -0.007913
  23 H :    0.027865
  24 H :    0.038502
  25 C :   -0.095370
  26 H :    0.031125
  27 H :    0.015844
  28 C :   -0.013436
  29 H :    0.032799
  30 H :    0.005663
  31 H :    0.043403
  32 H :    0.026366
  33 H :    0.055172
Sum of atomic charges:   -0.0000000

LOEWDIN ATOMIC CHARGES
----------------------
   0 S :    0.396547
   1 C :   -0.187283
   2 C :   -0.049898
   3 C :   -0.075508
   4 C :   -0.191458
   5 H :    0.041864
   6 C :   -0.029284
   7 H :    0.024114
   8 H :    0.034116
   9 C :   -0.040830
  10 H :    0.030728
  11 H :    0.017540
  12 C :   -0.064162
  13 H :    0.028051
  14 H :    0.015897
  15 H :    0.035438
  16 S :    0.412432
  17 C :   -0.166490
  18 C :   -0.059961
  19 C :   -0.063211
  20 C :   -0.214215
  21 H :    0.033302
  22 C :   -0.042188
  23 H :    0.031756
  24 H :    0.029756
  25 C :   -0.041798
  26 H :    0.015577
  27 H :    0.017316
  28 C :   -0.058515
  29 H :    0.023307
  30 H :    0.009771
  31 H :    0.038423
  32 H :    0.021655
  33 H :    0.027213

  Mayer bond orders larger than 0.100000
B(  0-S ,  1-C ) :   1.1134 B(  0-S ,  4-C ) :   1.1396 B(  1-C ,  2-C ) :   1.6324
B(  1-C , 32-H ) :   0.9647 B(  2-C ,  3-C ) :   1.2050 B(  2-C ,  6-C ) :   1.0369
B(  3-C ,  4-C ) :   1.5647 B(  3-C ,  5-H ) :   0.9832 B(  4-C , 20-C ) :   1.0786
B(  6-C ,  7-H ) :   0.9302 B(  6-C ,  8-H ) :   0.9323 B(  6-C ,  9-C ) :   1.0619
B(  9-C , 10-H ) :   0.9595 B(  9-C , 11-H ) :   0.9565 B(  9-C , 12-C ) :   1.0672
B( 12-C , 13-H ) :   0.9764 B( 12-C , 14-H ) :   0.9789 B( 12-C , 15-H ) :   0.9770
B( 16-S , 17-C ) :   1.1678 B( 16-S , 20-C ) :   1.1278 B( 17-C , 18-C ) :   1.6036
B( 17-C , 33-H ) :   0.9641 B( 18-C , 19-C ) :   1.2238 B( 18-C , 21-H ) :   1.0098
B( 19-C , 20-C ) :   1.5602 B( 19-C , 22-C ) :   1.0749 B( 22-C , 23-H ) :   0.9339
B( 22-C , 24-H ) :   0.9392 B( 22-C , 25-C ) :   1.0440 B( 25-C , 26-H ) :   0.9545
B( 25-C , 27-H ) :   0.9529 B( 25-C , 28-C ) :   1.0832 B( 28-C , 29-H ) :   0.9745
B( 28-C , 30-H ) :   0.9741 B( 28-C , 31-H ) :   0.9707

Dispersion correction           -0.014002222
FINAL SINGLE POINT ENERGY     -1339.850771558117

DIPOLE MOMENT
-------------
                                X             Y             Z
Electronic contribution:    -28.24787      16.34166       9.08069
Nuclear contribution   :     28.96787     -16.50526      -9.03332
                        -----------------------------------------
Total Dipole Moment    :      0.72000      -0.16360       0.04738
                        -----------------------------------------
Magnitude (a.u.)       :      0.73987
Magnitude (Debye)      :      1.88061

Rotational constants in cm-1:     0.018231     0.009194     0.006283
Rotational constants in MHz :   546.558804   275.636633   188.352682

                             ****ORCA TERMINATED NORMALLY****
TOTAL RUN TIME: 0 days 0 hours 0 minutes 30 seconds 316 msec
