                         Program Version 4.2.1 -  RELEASE  -
|  1> ! wB97X-D3 SP def2-SVP
|  2> %pal
|  3> nprocs 16
|  4> end
|  5>
|  6> * xyz 0 1
|  7> S 	 -2.7764 	 -11.8873 	 86.4535
|  8> C 	 -3.39527 	 -13.2538 	 87.2958
|  9> C 	 -3.485 	 -13.0936 	 88.6362
| 10> C 	 -3.28591 	 -11.7031 	 89.0019
| 11> C 	 -2.83137 	 -10.9314 	 87.9045
| 12> H 	 -3.34262 	 -11.1642 	 89.973
| 13> C 	 -3.79556 	 -14.2732 	 89.5989
| 14> H 	 -3.71753 	 -15.2545 	 89.1244
| 15> H 	 -4.85031 	 -14.1036 	 89.8278
| 16> C 	 -2.94356 	 -14.2363 	 90.8668
| 17> H 	 -1.91554 	 -14.4898 	 90.4742
| 18> H 	 -2.9794 	 -13.2704 	 91.3478
| 19> C 	 -3.37674 	 -15.2867 	 91.9
| 20> H 	 -2.97612 	 -16.2365 	 91.5866
| 21> H 	 -2.88594 	 -15.0565 	 92.8543
| 22> H 	 -4.51087 	 -15.2348 	 92.0052
| 23> S 	 -0.649904 	 -9.17269 	 87.6936
| 24> C 	 -0.886538 	 -7.49432 	 88.1112
| 25> C 	 -2.12016 	 -7.33794 	 88.5938
| 26> C 	 -2.93173 	 -8.48366 	 88.6571
| 27> C 	 -2.3226 	 -9.58316 	 88.0524
| 28> H 	 -2.53953 	 -6.40025 	 88.842
| 29> C 	 -4.37328 	 -8.42371 	 89.1074
| 30> H 	 -4.43145 	 -7.59067 	 89.8615
| 31> H 	 -4.58828 	 -9.30206 	 89.5555
| 32> C 	 -5.32335 	 -8.18368 	 87.9507
| 33> H 	 -5.10003 	 -9.01866 	 87.3059
| 34> H 	 -5.01457 	 -7.17962 	 87.5458
| 35> C 	 -6.801 	 -8.20442 	 88.3136
| 36> H 	 -7.44808 	 -8.38012 	 87.4619
| 37> H 	 -7.12946 	 -7.31785 	 88.8057
| 38> H 	 -6.96606 	 -9.16466 	 88.8256
| 39> H 	 -3.62117 	 -14.2552 	 86.8478
| 40> H 	 -0.136023 	 -6.73052 	 88.0866
| 41> *
| 42>
| 43>                          ****END OF INPUT****

CARTESIAN COORDINATES (ANGSTROEM)
---------------------------------
  S     -2.776400  -11.887300   86.453500
  C     -3.395270  -13.253800   87.295800
  C     -3.485000  -13.093600   88.636200
  C     -3.285910  -11.703100   89.001900
  C     -2.831370  -10.931400   87.904500
  H     -3.342620  -11.164200   89.973000
  C     -3.795560  -14.273200   89.598900
  H     -3.717530  -15.254500   89.124400
  H     -4.850310  -14.103600   89.827800
  C     -2.943560  -14.236300   90.866800
  H     -1.915540  -14.489800   90.474200
  H     -2.979400  -13.270400   91.347800
  C     -3.376740  -15.286700   91.900000
  H     -2.976120  -16.236500   91.586600
  H     -2.885940  -15.056500   92.854300
  H     -4.510870  -15.234800   92.005200
  S     -0.649904   -9.172690   87.693600
  C     -0.886538   -7.494320   88.111200
  C     -2.120160   -7.337940   88.593800
  C     -2.931730   -8.483660   88.657100
  C     -2.322600   -9.583160   88.052400
  H     -2.539530   -6.400250   88.842000
  C     -4.373280   -8.423710   89.107400
  H     -4.431450   -7.590670   89.861500
  H     -4.588280   -9.302060   89.555500
  C     -5.323350   -8.183680   87.950700
  H     -5.100030   -9.018660   87.305900
  H     -5.014570   -7.179620   87.545800
  C     -6.801000   -8.204420   88.313600
  H     -7.448080   -8.380120   87.461900
  H     -7.129460   -7.317850   88.805700
  H     -6.966060   -9.164660   88.825600
  H     -3.621170  -14.255200   86.847800
  H     -0.136023   -6.730520   88.086600

 Total Charge           Charge          ....    0
 Multiplicity           Mult            ....    1
 Number of Electrons    NEL             ....  134
 Basis Dimension        Dim             ....  322

ORBITAL ENERGIES
----------------

  NO   OCC          E(Eh)            E(eV)
   0   2.0000     -88.970008     -2420.9970
   1   2.0000     -88.961687     -2420.7706
   2   2.0000     -10.331072      -281.1228
   3   2.0000     -10.325263      -280.9647
   4   2.0000     -10.311742      -280.5968
   5   2.0000     -10.310265      -280.5566
   6   2.0000     -10.304747      -280.4064
   7   2.0000     -10.304536      -280.4007
   8   2.0000     -10.296548      -280.1833
   9   2.0000     -10.294310      -280.1224
  10   2.0000     -10.289110      -279.9809
  11   2.0000     -10.284329      -279.8508
  12   2.0000     -10.281867      -279.7838
  13   2.0000     -10.281122      -279.7636
  14   2.0000     -10.280626      -279.7501
  15   2.0000     -10.272865      -279.5389
  16   2.0000      -8.085189      -220.0092
  17   2.0000      -8.076551      -219.7741
  18   2.0000      -6.043608      -164.4549
  19   2.0000      -6.039680      -164.3480
  20   2.0000      -6.035959      -164.2468
  21   2.0000      -6.035153      -164.2249
  22   2.0000      -6.030993      -164.1117
  23   2.0000      -6.027249      -164.0098
  24   2.0000      -1.009793       -27.4779
  25   2.0000      -0.989496       -26.9256
  26   2.0000      -0.913882       -24.8680
  27   2.0000      -0.912679       -24.8352
  28   2.0000      -0.874468       -23.7955
  29   2.0000      -0.851199       -23.1623
  30   2.0000      -0.846471       -23.0337
  31   2.0000      -0.814468       -22.1628
  32   2.0000      -0.783774       -21.3276
  33   2.0000      -0.773053       -21.0358
  34   2.0000      -0.709634       -19.3101
  35   2.0000      -0.691957       -18.8291
  36   2.0000      -0.686691       -18.6858
  37   2.0000      -0.661819       -18.0090
  38   2.0000      -0.639935       -17.4135
  39   2.0000      -0.615661       -16.7530
  40   2.0000      -0.599896       -16.3240
  41   2.0000      -0.576142       -15.6776
  42   2.0000      -0.574177       -15.6241
  43   2.0000      -0.567663       -15.4469
  44   2.0000      -0.521877       -14.2010
  45   2.0000      -0.521122       -14.1805
  46   2.0000      -0.514365       -13.9966
  47   2.0000      -0.509712       -13.8700
  48   2.0000      -0.505958       -13.7678
  49   2.0000      -0.504050       -13.7159
  50   2.0000      -0.496165       -13.5013
  51   2.0000      -0.482965       -13.1422
  52   2.0000      -0.473505       -12.8847
  53   2.0000      -0.469945       -12.7878
  54   2.0000      -0.461569       -12.5599
  55   2.0000      -0.449668       -12.2361
  56   2.0000      -0.444117       -12.0850
  57   2.0000      -0.432910       -11.7801
  58   2.0000      -0.427897       -11.6437
  59   2.0000      -0.426872       -11.6158
  60   2.0000      -0.419428       -11.4132
  61   2.0000      -0.419063       -11.4033
  62   2.0000      -0.409649       -11.1471
  63   2.0000      -0.349253        -9.5036
  64   2.0000      -0.331359        -9.0167
  65   2.0000      -0.328973        -8.9518
  66   2.0000      -0.291668        -7.9367
  67   0.0000       0.032091         0.8732
  68   0.0000       0.071905         1.9566
  69   0.0000       0.118935         3.2364
  70   0.0000       0.127099         3.4585
  71   0.0000       0.130773         3.5585

MULLIKEN ATOMIC CHARGES
-----------------------
   0 S :    0.134619
   1 C :   -0.135458
   2 C :   -0.080353
   3 C :    0.009470
   4 C :   -0.197319
   5 H :    0.045148
   6 C :    0.074030
   7 H :    0.022582
   8 H :    0.032888
   9 C :   -0.119555
  10 H :    0.043961
  11 H :    0.035702
  12 C :   -0.040489
  13 H :    0.030553
  14 H :    0.037481
  15 H :    0.042873
  16 S :    0.099376
  17 C :   -0.071317
  18 C :   -0.005334
  19 C :   -0.071209
  20 C :   -0.157477
  21 H :   -0.006517
  22 C :    0.135037
  23 H :    0.019497
  24 H :   -0.036829
  25 C :   -0.080675
  26 H :    0.029784
  27 H :    0.027428
  28 C :   -0.006365
  29 H :    0.025716
  30 H :    0.034704
  31 H :    0.021869
  32 H :    0.057821
  33 H :    0.048357
Sum of atomic charges:   -0.0000000

LOEWDIN ATOMIC CHARGES
----------------------
   0 S :    0.425668
   1 C :   -0.216470
   2 C :   -0.063892
   3 C :   -0.061960
   4 C :   -0.206486
   5 H :    0.038129
   6 C :   -0.029213
   7 H :    0.028754
   8 H :    0.029676
   9 C :   -0.045221
  10 H :    0.033220
  11 H :    0.020647
  12 C :   -0.066001
  13 H :    0.022356
  14 H :    0.028511
  15 H :    0.032984
  16 S :    0.399431
  17 C :   -0.180574
  18 C :   -0.070403
  19 C :   -0.056107
  20 C :   -0.197635
  21 H :    0.023459
  22 C :   -0.023841
  23 H :    0.031054
  24 H :    0.005445
  25 C :   -0.035859
  26 H :    0.026167
  27 H :    0.026372
  28 C :   -0.066037
  29 H :    0.028086
  30 H :    0.021791
  31 H :    0.029794
  32 H :    0.038449
  33 H :    0.029708

  Mayer bond orders larger than 0.100000
B(  0-S ,  1-C ) :   1.1331 B(  0-S ,  4-C ) :   1.1541 B(  1-C ,  2-C ) :   1.6474
B(  1-C , 32-H ) :   0.9578 B(  2-C ,  3-C ) :   1.2260 B(  2-C ,  6-C ) :   1.0054
B(  3-C ,  4-C ) :   1.5694 B(  3-C ,  5-H ) :   0.9757 B(  4-C , 20-C ) :   1.0558
B(  6-C ,  7-H ) :   0.9492 B(  6-C ,  8-H ) :   0.9330 B(  6-C ,  9-C ) :   1.0651
B(  9-C , 10-H ) :   0.9581 B(  9-C , 11-H ) :   0.9571 B(  9-C , 12-C ) :   1.0825
B( 12-C , 13-H ) :   0.9757 B( 12-C , 14-H ) :   0.9751 B( 12-C , 15-H ) :   0.9736
B( 16-S , 17-C ) :   1.1422 B( 16-S , 20-C ) :   1.1462 B( 17-C , 18-C ) :   1.5976
B( 17-C , 33-H ) :   0.9715 B( 18-C , 19-C ) :   1.2735 B( 18-C , 21-H ) :   0.9919
B( 19-C , 20-C ) :   1.5678 B( 19-C , 22-C ) :   1.0555 B( 22-C , 23-H ) :   0.9289
B( 22-C , 24-H ) :   0.9057 B( 22-C , 25-C ) :   1.0726 B( 25-C , 26-H ) :   0.9526
B( 25-C , 27-H ) :   0.9554 B( 25-C , 28-C ) :   1.0916 B( 28-C , 29-H ) :   0.9705
B( 28-C , 30-H ) :   0.9757 B( 28-C , 31-H ) :   0.9671

Dispersion correction           -0.014052574
FINAL SINGLE POINT ENERGY     -1339.875831020742

DIPOLE MOMENT
-------------
                                X             Y             Z
Electronic contribution:     18.05857       6.61201     -16.80418
Nuclear contribution   :    -18.42168      -6.75797      17.28727
                        -----------------------------------------
Total Dipole Moment    :     -0.36311      -0.14596       0.48309
                        -----------------------------------------
Magnitude (a.u.)       :      0.62172
Magnitude (Debye)      :      1.58028

Rotational constants in cm-1:     0.017322     0.008157     0.007224
Rotational constants in MHz :   519.289843   244.548640   216.561532

                             ****ORCA TERMINATED NORMALLY****
TOTAL RUN TIME: 0 days 0 hours 0 minutes 33 seconds 854 msec
