                         Program Version 4.2.1 -  RELEASE  -
|  1> ! wB97X-D3 SP def2-SVP
|  2> %pal
|  3> nprocs 16
|  4> end
|  5>
|  6> * xyz 0 1
|  7> S 	 -2.65588 	 26.7249 	 37.6501
|  8> C 	 -2.08392 	 26.22 	 36.0469
|  9> C 	 -1.07261 	 26.9593 	 35.4671
| 10> C 	 -0.808483 	 28.0874 	 36.311
| 11> C 	 -1.53921 	 28.1394 	 37.4798
| 12> H 	 -0.0924196 	 28.9078 	 36.1924
| 13> C 	 -0.508867 	 26.7897 	 34.0666
| 14> H 	 0.524806 	 27.2331 	 34.0648
| 15> H 	 -1.16608 	 27.2432 	 33.3258
| 16> C 	 -0.366929 	 25.3123 	 33.7048
| 17> H 	 0.218766 	 24.7729 	 34.5344
| 18> H 	 -1.43595 	 25.0675 	 33.7197
| 19> C 	 0.257436 	 25.1511 	 32.2976
| 20> H 	 1.24993 	 25.4847 	 32.3156
| 21> H 	 0.345478 	 24.0883 	 32.0081
| 22> H 	 -0.260364 	 25.7252 	 31.5123
| 23> S 	 -2.87215 	 29.8783 	 39.2189
| 24> C 	 -2.02521 	 31.1016 	 40.1063
| 25> C 	 -0.679067 	 30.7979 	 40.0178
| 26> C 	 -0.376638 	 29.7684 	 39.0866
| 27> C 	 -1.45128 	 29.2533 	 38.4332
| 28> H 	 0.0694387 	 31.4286 	 40.4995
| 29> C 	 1.07972 	 29.3393 	 38.8906
| 30> H 	 1.43149 	 30.035 	 38.1288
| 31> H 	 1.13814 	 28.4055 	 38.2705
| 32> C 	 1.94127 	 29.2247 	 40.1202
| 33> H 	 2.04994 	 30.203 	 40.4873
| 34> H 	 2.89615 	 29.0109 	 39.7127
| 35> C 	 1.48401 	 28.2085 	 41.1678
| 36> H 	 0.529229 	 28.5172 	 41.6488
| 37> H 	 2.10769 	 28.0515 	 42.015
| 38> H 	 1.20687 	 27.3124 	 40.6899
| 39> H 	 -2.64563 	 25.5475 	 35.4349
| 40> H 	 -2.4994 	 31.8785 	 40.7168
| 41> *
| 42>
| 43>                          ****END OF INPUT****

CARTESIAN COORDINATES (ANGSTROEM)
---------------------------------
  S     -2.655880   26.724900   37.650100
  C     -2.083920   26.220000   36.046900
  C     -1.072610   26.959300   35.467100
  C     -0.808483   28.087400   36.311000
  C     -1.539210   28.139400   37.479800
  H     -0.092420   28.907800   36.192400
  C     -0.508867   26.789700   34.066600
  H      0.524806   27.233100   34.064800
  H     -1.166080   27.243200   33.325800
  C     -0.366929   25.312300   33.704800
  H      0.218766   24.772900   34.534400
  H     -1.435950   25.067500   33.719700
  C      0.257436   25.151100   32.297600
  H      1.249930   25.484700   32.315600
  H      0.345478   24.088300   32.008100
  H     -0.260364   25.725200   31.512300
  S     -2.872150   29.878300   39.218900
  C     -2.025210   31.101600   40.106300
  C     -0.679067   30.797900   40.017800
  C     -0.376638   29.768400   39.086600
  C     -1.451280   29.253300   38.433200
  H      0.069439   31.428600   40.499500
  C      1.079720   29.339300   38.890600
  H      1.431490   30.035000   38.128800
  H      1.138140   28.405500   38.270500
  C      1.941270   29.224700   40.120200
  H      2.049940   30.203000   40.487300
  H      2.896150   29.010900   39.712700
  C      1.484010   28.208500   41.167800
  H      0.529229   28.517200   41.648800
  H      2.107690   28.051500   42.015000
  H      1.206870   27.312400   40.689900
  H     -2.645630   25.547500   35.434900
  H     -2.499400   31.878500   40.716800

 Total Charge           Charge          ....    0
 Multiplicity           Mult            ....    1
 Number of Electrons    NEL             ....  134
 Basis Dimension        Dim             ....  322

ORBITAL ENERGIES
----------------

  NO   OCC          E(Eh)            E(eV)
   0   2.0000     -88.970447     -2421.0089
   1   2.0000     -88.959160     -2420.7018
   2   2.0000     -10.332923      -281.1731
   3   2.0000     -10.321263      -280.8558
   4   2.0000     -10.320650      -280.8392
   5   2.0000     -10.313125      -280.6344
   6   2.0000     -10.303528      -280.3732
   7   2.0000     -10.297613      -280.2123
   8   2.0000     -10.297440      -280.2076
   9   2.0000     -10.295818      -280.1635
  10   2.0000     -10.294333      -280.1230
  11   2.0000     -10.292587      -280.0755
  12   2.0000     -10.289397      -279.9887
  13   2.0000     -10.280244      -279.7397
  14   2.0000     -10.278845      -279.7016
  15   2.0000     -10.270770      -279.4819
  16   2.0000      -8.083666      -219.9677
  17   2.0000      -8.074782      -219.7260
  18   2.0000      -6.042265      -164.4184
  19   2.0000      -6.038660      -164.3203
  20   2.0000      -6.034147      -164.1975
  21   2.0000      -6.033307      -164.1746
  22   2.0000      -6.029112      -164.0605
  23   2.0000      -6.025505      -163.9623
  24   2.0000      -1.007982       -27.4286
  25   2.0000      -0.982458       -26.7340
  26   2.0000      -0.914624       -24.8882
  27   2.0000      -0.912358       -24.8265
  28   2.0000      -0.868863       -23.6430
  29   2.0000      -0.850635       -23.1470
  30   2.0000      -0.841915       -22.9097
  31   2.0000      -0.813948       -22.1487
  32   2.0000      -0.785199       -21.3664
  33   2.0000      -0.775216       -21.0947
  34   2.0000      -0.710720       -19.3397
  35   2.0000      -0.707212       -19.2442
  36   2.0000      -0.688755       -18.7420
  37   2.0000      -0.657220       -17.8839
  38   2.0000      -0.638037       -17.3619
  39   2.0000      -0.612115       -16.6565
  40   2.0000      -0.598943       -16.2981
  41   2.0000      -0.576118       -15.6770
  42   2.0000      -0.567952       -15.4548
  43   2.0000      -0.559297       -15.2193
  44   2.0000      -0.534212       -14.5366
  45   2.0000      -0.523303       -14.2398
  46   2.0000      -0.514974       -14.0132
  47   2.0000      -0.509674       -13.8689
  48   2.0000      -0.501380       -13.6432
  49   2.0000      -0.499411       -13.5897
  50   2.0000      -0.489644       -13.3239
  51   2.0000      -0.481325       -13.0975
  52   2.0000      -0.473861       -12.8944
  53   2.0000      -0.464578       -12.6418
  54   2.0000      -0.459919       -12.5150
  55   2.0000      -0.450789       -12.2666
  56   2.0000      -0.444590       -12.0979
  57   2.0000      -0.438254       -11.9255
  58   2.0000      -0.434086       -11.8121
  59   2.0000      -0.430695       -11.7198
  60   2.0000      -0.419069       -11.4035
  61   2.0000      -0.412320       -11.2198
  62   2.0000      -0.405509       -11.0345
  63   2.0000      -0.347730        -9.4622
  64   2.0000      -0.334802        -9.1104
  65   2.0000      -0.324559        -8.8317
  66   2.0000      -0.292062        -7.9474
  67   0.0000       0.027648         0.7523
  68   0.0000       0.067760         1.8438
  69   0.0000       0.104889         2.8542
  70   0.0000       0.125781         3.4227
  71   0.0000       0.130789         3.5590

MULLIKEN ATOMIC CHARGES
-----------------------
   0 S :    0.112923
   1 C :   -0.127853
   2 C :   -0.061031
   3 C :   -0.008547
   4 C :   -0.132600
   5 H :    0.018852
   6 C :    0.056460
   7 H :    0.030180
   8 H :    0.048678
   9 C :   -0.141074
  10 H :    0.056136
  11 H :    0.029993
  12 C :   -0.006793
  13 H :    0.015071
  14 H :    0.038648
  15 H :    0.032173
  16 S :    0.086982
  17 C :   -0.098244
  18 C :   -0.037702
  19 C :   -0.051068
  20 C :   -0.160033
  21 H :    0.024259
  22 C :    0.005906
  23 H :    0.035790
  24 H :    0.025631
  25 C :    0.006971
  26 H :    0.004307
  27 H :    0.012481
  28 C :   -0.012090
  29 H :    0.027726
  30 H :    0.032211
  31 H :    0.021165
  32 H :    0.043678
  33 H :    0.070815
Sum of atomic charges:    0.0000000

LOEWDIN ATOMIC CHARGES
----------------------
   0 S :    0.367406
   1 C :   -0.184580
   2 C :   -0.062736
   3 C :   -0.060771
   4 C :   -0.167268
   5 H :    0.033997
   6 C :   -0.031453
   7 H :    0.031416
   8 H :    0.035394
   9 C :   -0.046520
  10 H :    0.036885
  11 H :    0.021742
  12 C :   -0.065276
  13 H :    0.017513
  14 H :    0.030833
  15 H :    0.028899
  16 S :    0.407932
  17 C :   -0.184527
  18 C :   -0.079118
  19 C :   -0.061257
  20 C :   -0.208320
  21 H :    0.031096
  22 C :   -0.038219
  23 H :    0.034033
  24 H :    0.030968
  25 C :   -0.034146
  26 H :    0.014359
  27 H :    0.024352
  28 C :   -0.058910
  29 H :    0.033201
  30 H :    0.024037
  31 H :    0.022653
  32 H :    0.018621
  33 H :    0.037763

  Mayer bond orders larger than 0.100000
B(  0-S ,  1-C ) :   1.1244 B(  0-S ,  4-C ) :   1.1088 B(  1-C ,  2-C ) :   1.6428
B(  1-C , 32-H ) :   0.9604 B(  2-C ,  3-C ) :   1.2055 B(  2-C ,  6-C ) :   1.0174
B(  3-C ,  4-C ) :   1.6172 B(  3-C ,  5-H ) :   0.9913 B(  4-C , 20-C ) :   1.0605
B(  6-C ,  7-H ) :   0.9444 B(  6-C ,  8-H ) :   0.9367 B(  6-C ,  9-C ) :   1.0531
B(  9-C , 10-H ) :   0.9613 B(  9-C , 11-H ) :   0.9517 B(  9-C , 12-C ) :   1.0816
B( 12-C , 13-H ) :   0.9719 B( 12-C , 14-H ) :   0.9732 B( 12-C , 15-H ) :   0.9706
B( 16-S , 17-C ) :   1.1754 B( 16-S , 20-C ) :   1.1219 B( 17-C , 18-C ) :   1.5708
B( 17-C , 33-H ) :   0.9706 B( 18-C , 19-C ) :   1.2615 B( 18-C , 21-H ) :   0.9889
B( 19-C , 20-C ) :   1.5887 B( 19-C , 22-C ) :   1.0198 B( 22-C , 23-H ) :   0.9323
B( 22-C , 24-H ) :   0.9293 B( 22-C , 25-C ) :   1.0826 B( 25-C , 26-H ) :   0.9455
B( 25-C , 27-H ) :   0.9442 B( 25-C , 28-C ) :   1.0743 B( 28-C , 29-H ) :   0.9680
B( 28-C , 30-H ) :   0.9756 B( 28-C , 31-H ) :   0.9738

Dispersion correction           -0.014018555
FINAL SINGLE POINT ENERGY     -1339.868929761908

DIPOLE MOMENT
-------------
                                X             Y             Z
Electronic contribution:    -21.35985       7.80303      10.80673
Nuclear contribution   :     21.96841      -7.64443     -11.08805
                        -----------------------------------------
Total Dipole Moment    :      0.60855       0.15860      -0.28132
                        -----------------------------------------
Magnitude (a.u.)       :      0.68894
Magnitude (Debye)      :      1.75114

Rotational constants in cm-1:     0.022309     0.007232     0.006209
Rotational constants in MHz :   668.803843   216.806300   186.143618

                             ****ORCA TERMINATED NORMALLY****
TOTAL RUN TIME: 0 days 0 hours 0 minutes 34 seconds 360 msec
