                         Program Version 4.2.1 -  RELEASE  -
|  1> ! wB97X-D3 SP def2-SVP
|  2> %pal
|  3> nprocs 16
|  4> end
|  5>
|  6> * xyz 0 1
|  7> S 	 39.9739 	 14.0133 	 79.8367
|  8> C 	 38.4988 	 13.0959 	 80.1285
|  9> C 	 37.3 	 13.8133 	 80.008
| 10> C 	 37.6084 	 15.1293 	 79.5523
| 11> C 	 39.013 	 15.3577 	 79.2561
| 12> H 	 36.7824 	 15.7984 	 79.2524
| 13> C 	 35.9032 	 13.2014 	 80.2832
| 14> H 	 35.1384 	 13.9698 	 80.3431
| 15> H 	 36.005 	 12.7098 	 81.2455
| 16> C 	 35.3954 	 12.2399 	 79.1595
| 17> H 	 35.952 	 11.34 	 79.4303
| 18> H 	 34.3575 	 11.9857 	 79.4172
| 19> C 	 35.4636 	 12.7845 	 77.7159
| 20> H 	 34.763 	 13.6487 	 77.5374
| 21> H 	 36.4326 	 13.1823 	 77.3999
| 22> H 	 35.2372 	 11.9689 	 77.0158
| 23> S 	 39.3107 	 17.3823 	 77.3174
| 24> C 	 39.9868 	 18.8769 	 77.892
| 25> C 	 40.5624 	 18.7918 	 79.1526
| 26> C 	 40.369 	 17.5237 	 79.7199
| 27> C 	 39.688 	 16.6191 	 78.889
| 28> H 	 41.1767 	 19.5328 	 79.6019
| 29> C 	 40.8759 	 17.2663 	 81.0715
| 30> H 	 40.1915 	 16.6578 	 81.6419
| 31> H 	 40.8345 	 18.227 	 81.5946
| 32> C 	 42.3347 	 16.7319 	 81.0985
| 33> H 	 43.033 	 17.4556 	 80.6345
| 34> H 	 42.4288 	 15.7645 	 80.4955
| 35> C 	 42.7995 	 16.6301 	 82.5048
| 36> H 	 42.334 	 15.8221 	 82.9976
| 37> H 	 42.659 	 17.5781 	 83.1225
| 38> H 	 43.9388 	 16.4474 	 82.5811
| 39> H 	 38.5189 	 12.0351 	 80.4141
| 40> H 	 40.1982 	 19.7771 	 77.2572
| 41> *
| 42>
| 43>                          ****END OF INPUT****

CARTESIAN COORDINATES (ANGSTROEM)
---------------------------------
  S     39.973900   14.013300   79.836700
  C     38.498800   13.095900   80.128500
  C     37.300000   13.813300   80.008000
  C     37.608400   15.129300   79.552300
  C     39.013000   15.357700   79.256100
  H     36.782400   15.798400   79.252400
  C     35.903200   13.201400   80.283200
  H     35.138400   13.969800   80.343100
  H     36.005000   12.709800   81.245500
  C     35.395400   12.239900   79.159500
  H     35.952000   11.340000   79.430300
  H     34.357500   11.985700   79.417200
  C     35.463600   12.784500   77.715900
  H     34.763000   13.648700   77.537400
  H     36.432600   13.182300   77.399900
  H     35.237200   11.968900   77.015800
  S     39.310700   17.382300   77.317400
  C     39.986800   18.876900   77.892000
  C     40.562400   18.791800   79.152600
  C     40.369000   17.523700   79.719900
  C     39.688000   16.619100   78.889000
  H     41.176700   19.532800   79.601900
  C     40.875900   17.266300   81.071500
  H     40.191500   16.657800   81.641900
  H     40.834500   18.227000   81.594600
  C     42.334700   16.731900   81.098500
  H     43.033000   17.455600   80.634500
  H     42.428800   15.764500   80.495500
  C     42.799500   16.630100   82.504800
  H     42.334000   15.822100   82.997600
  H     42.659000   17.578100   83.122500
  H     43.938800   16.447400   82.581100
  H     38.518900   12.035100   80.414100
  H     40.198200   19.777100   77.257200

 Total Charge           Charge          ....    0
 Multiplicity           Mult            ....    1
 Number of Electrons    NEL             ....  134
 Basis Dimension        Dim             ....  322

ORBITAL ENERGIES
----------------

  NO   OCC          E(Eh)            E(eV)
   0   2.0000     -88.972141     -2421.0550
   1   2.0000     -88.967966     -2420.9414
   2   2.0000     -10.335767      -281.2505
   3   2.0000     -10.326201      -280.9902
   4   2.0000     -10.320136      -280.8252
   5   2.0000     -10.315689      -280.7042
   6   2.0000     -10.304544      -280.4009
   7   2.0000     -10.303447      -280.3710
   8   2.0000     -10.297432      -280.2074
   9   2.0000     -10.296000      -280.1684
  10   2.0000     -10.292647      -280.0772
  11   2.0000     -10.290500      -280.0187
  12   2.0000     -10.287710      -279.9428
  13   2.0000     -10.284574      -279.8575
  14   2.0000     -10.284168      -279.8464
  15   2.0000     -10.279673      -279.7241
  16   2.0000      -8.085822      -220.0264
  17   2.0000      -8.082010      -219.9227
  18   2.0000      -6.044161      -164.4700
  19   2.0000      -6.040519      -164.3709
  20   2.0000      -6.040466      -164.3694
  21   2.0000      -6.036872      -164.2716
  22   2.0000      -6.036587      -164.2639
  23   2.0000      -6.032863      -164.1625
  24   2.0000      -0.998919       -27.1820
  25   2.0000      -0.978250       -26.6195
  26   2.0000      -0.912526       -24.8311
  27   2.0000      -0.906231       -24.6598
  28   2.0000      -0.859348       -23.3841
  29   2.0000      -0.855784       -23.2871
  30   2.0000      -0.841647       -22.9024
  31   2.0000      -0.804564       -21.8933
  32   2.0000      -0.784828       -21.3562
  33   2.0000      -0.764642       -20.8070
  34   2.0000      -0.701359       -19.0850
  35   2.0000      -0.696746       -18.9594
  36   2.0000      -0.688175       -18.7262
  37   2.0000      -0.662939       -18.0395
  38   2.0000      -0.630404       -17.1542
  39   2.0000      -0.609150       -16.5758
  40   2.0000      -0.595021       -16.1913
  41   2.0000      -0.571211       -15.5434
  42   2.0000      -0.563560       -15.3352
  43   2.0000      -0.548761       -14.9326
  44   2.0000      -0.536708       -14.6046
  45   2.0000      -0.523122       -14.2349
  46   2.0000      -0.511731       -13.9249
  47   2.0000      -0.507156       -13.8004
  48   2.0000      -0.501119       -13.6361
  49   2.0000      -0.492945       -13.4137
  50   2.0000      -0.487352       -13.2615
  51   2.0000      -0.469067       -12.7640
  52   2.0000      -0.465959       -12.6794
  53   2.0000      -0.460562       -12.5325
  54   2.0000      -0.456970       -12.4348
  55   2.0000      -0.452931       -12.3249
  56   2.0000      -0.444028       -12.0826
  57   2.0000      -0.439362       -11.9557
  58   2.0000      -0.430224       -11.7070
  59   2.0000      -0.427239       -11.6258
  60   2.0000      -0.419495       -11.4150
  61   2.0000      -0.413671       -11.2565
  62   2.0000      -0.411202       -11.1894
  63   2.0000      -0.335977        -9.1424
  64   2.0000      -0.331431        -9.0187
  65   2.0000      -0.329750        -8.9730
  66   2.0000      -0.289769        -7.8850
  67   0.0000       0.031166         0.8481
  68   0.0000       0.056296         1.5319
  69   0.0000       0.102015         2.7760
  70   0.0000       0.114580         3.1179
  71   0.0000       0.128935         3.5085

MULLIKEN ATOMIC CHARGES
-----------------------
   0 S :    0.116716
   1 C :   -0.133840
   2 C :   -0.110234
   3 C :    0.038911
   4 C :   -0.185111
   5 H :    0.023822
   6 C :    0.062943
   7 H :    0.019233
   8 H :    0.039686
   9 C :   -0.067443
  10 H :    0.024863
  11 H :    0.031827
  12 C :   -0.064882
  13 H :    0.039107
  14 H :    0.048426
  15 H :    0.043517
  16 S :    0.113752
  17 C :   -0.103179
  18 C :   -0.020636
  19 C :   -0.016597
  20 C :   -0.168607
  21 H :    0.009348
  22 C :    0.056140
  23 H :    0.026937
  24 H :    0.011031
  25 C :   -0.073323
  26 H :    0.026704
  27 H :    0.044810
  28 C :   -0.057718
  29 H :    0.025707
  30 H :    0.036798
  31 H :    0.039028
  32 H :    0.050180
  33 H :    0.072086
Sum of atomic charges:   -0.0000000

LOEWDIN ATOMIC CHARGES
----------------------
   0 S :    0.420074
   1 C :   -0.200465
   2 C :   -0.065628
   3 C :   -0.060329
   4 C :   -0.203706
   5 H :    0.033979
   6 C :   -0.026931
   7 H :    0.025345
   8 H :    0.033569
   9 C :   -0.041176
  10 H :    0.022067
  11 H :    0.026079
  12 C :   -0.071716
  13 H :    0.032457
  14 H :    0.029039
  15 H :    0.031784
  16 S :    0.404021
  17 C :   -0.192473
  18 C :   -0.070503
  19 C :   -0.049405
  20 C :   -0.208754
  21 H :    0.028078
  22 C :   -0.036336
  23 H :    0.028077
  24 H :    0.031405
  25 C :   -0.044316
  26 H :    0.026153
  27 H :    0.028674
  28 C :   -0.073913
  29 H :    0.016449
  30 H :    0.031548
  31 H :    0.032969
  32 H :    0.025168
  33 H :    0.038716

  Mayer bond orders larger than 0.100000
B(  0-S ,  1-C ) :   1.1629 B(  0-S ,  4-C ) :   1.1694 B(  1-C ,  2-C ) :   1.5739
B(  1-C ,  4-C ) :   0.1111 B(  1-C , 32-H ) :   0.9630 B(  2-C ,  3-C ) :   1.2965
B(  2-C ,  6-C ) :   1.0096 B(  3-C ,  4-C ) :   1.5260 B(  3-C ,  5-H ) :   0.9831
B(  4-C , 20-C ) :   1.0181 B(  6-C ,  7-H ) :   0.9442 B(  6-C ,  8-H ) :   0.9469
B(  6-C ,  9-C ) :   1.0633 B(  9-C , 10-H ) :   0.9609 B(  9-C , 11-H ) :   0.9576
B(  9-C , 12-C ) :   1.0646 B( 12-C , 13-H ) :   0.9742 B( 12-C , 14-H ) :   0.9734
B( 12-C , 15-H ) :   0.9738 B( 16-S , 17-C ) :   1.1761 B( 16-S , 20-C ) :   1.1280
B( 17-C , 18-C ) :   1.5774 B( 17-C , 33-H ) :   0.9543 B( 18-C , 19-C ) :   1.2876
B( 18-C , 21-H ) :   0.9893 B( 19-C , 20-C ) :   1.5611 B( 19-C , 22-C ) :   1.0576
B( 22-C , 23-H ) :   0.9264 B( 22-C , 24-H ) :   0.9280 B( 22-C , 25-C ) :   1.0584
B( 25-C , 26-H ) :   0.9542 B( 25-C , 27-H ) :   0.9489 B( 25-C , 28-C ) :   1.0863
B( 28-C , 29-H ) :   0.9732 B( 28-C , 30-H ) :   0.9693 B( 28-C , 31-H ) :   0.9719

Dispersion correction           -0.014903881
FINAL SINGLE POINT ENERGY     -1339.874765639617

DIPOLE MOMENT
-------------
                                X             Y             Z
Electronic contribution:      4.22110       6.16094     -10.48795
Nuclear contribution   :     -4.39945      -6.15914      10.81999
                        -----------------------------------------
Total Dipole Moment    :     -0.17834       0.00179       0.33204
                        -----------------------------------------
Magnitude (a.u.)       :      0.37691
Magnitude (Debye)      :      0.95802

Rotational constants in cm-1:     0.020800     0.008390     0.006519
Rotational constants in MHz :   623.574718   251.512551   195.424707

                             ****ORCA TERMINATED NORMALLY****
TOTAL RUN TIME: 0 days 0 hours 0 minutes 30 seconds 85 msec
