                         Program Version 4.2.1 -  RELEASE  -
|  1> ! wB97X-D3 SP def2-SVP
|  2> %pal
|  3> nprocs 16
|  4> end
|  5>
|  6> * xyz 0 1
|  7> S 	 -13.5397 	 75.8561 	 53.2337
|  8> C 	 -14.8143 	 76.6322 	 54.0887
|  9> C 	 -15.3219 	 75.9264 	 55.1578
| 10> C 	 -14.5231 	 74.7692 	 55.3901
| 11> C 	 -13.4612 	 74.6778 	 54.5423
| 12> H 	 -14.5736 	 74.1498 	 56.2378
| 13> C 	 -16.4701 	 76.2199 	 56.0036
| 14> H 	 -16.6041 	 77.3194 	 56.1339
| 15> H 	 -16.1915 	 75.8823 	 57.0199
| 16> C 	 -17.8213 	 75.5969 	 55.5019
| 17> H 	 -17.9083 	 76.0482 	 54.5188
| 18> H 	 -17.7011 	 74.5356 	 55.3666
| 19> C 	 -19.099 	 75.824 	 56.3152
| 20> H 	 -18.8955 	 75.7056 	 57.3985
| 21> H 	 -19.5284 	 76.7456 	 56.2209
| 22> H 	 -19.8702 	 75.1639 	 56.1275
| 23> S 	 -11.7364 	 73.1003 	 56.0019
| 24> C 	 -10.8602 	 71.804 	 55.2673
| 25> C 	 -11.0845 	 71.8699 	 53.9095
| 26> C 	 -11.9821 	 72.8569 	 53.4297
| 27> C 	 -12.5034 	 73.5773 	 54.475
| 28> H 	 -10.6821 	 71.0955 	 53.2894
| 29> C 	 -12.4776 	 73.0107 	 51.9328
| 30> H 	 -11.8056 	 73.7745 	 51.5903
| 31> H 	 -13.4807 	 73.4942 	 51.9418
| 32> C 	 -12.3384 	 71.7828 	 51.1215
| 33> H 	 -12.9073 	 71.0501 	 51.5801
| 34> H 	 -11.2497 	 71.6138 	 51.1327
| 35> C 	 -12.8151 	 71.9063 	 49.6507
| 36> H 	 -12.863 	 70.9771 	 49.0825
| 37> H 	 -12.2287 	 72.6407 	 49.1255
| 38> H 	 -13.8389 	 72.3569 	 49.7173
| 39> H 	 -15.2306 	 77.62 	 53.8218
| 40> H 	 -10.0064 	 71.1827 	 55.5974
| 41> *
| 42>
| 43>                          ****END OF INPUT****

CARTESIAN COORDINATES (ANGSTROEM)
---------------------------------
  S    -13.539700   75.856100   53.233700
  C    -14.814300   76.632200   54.088700
  C    -15.321900   75.926400   55.157800
  C    -14.523100   74.769200   55.390100
  C    -13.461200   74.677800   54.542300
  H    -14.573600   74.149800   56.237800
  C    -16.470100   76.219900   56.003600
  H    -16.604100   77.319400   56.133900
  H    -16.191500   75.882300   57.019900
  C    -17.821300   75.596900   55.501900
  H    -17.908300   76.048200   54.518800
  H    -17.701100   74.535600   55.366600
  C    -19.099000   75.824000   56.315200
  H    -18.895500   75.705600   57.398500
  H    -19.528400   76.745600   56.220900
  H    -19.870200   75.163900   56.127500
  S    -11.736400   73.100300   56.001900
  C    -10.860200   71.804000   55.267300
  C    -11.084500   71.869900   53.909500
  C    -11.982100   72.856900   53.429700
  C    -12.503400   73.577300   54.475000
  H    -10.682100   71.095500   53.289400
  C    -12.477600   73.010700   51.932800
  H    -11.805600   73.774500   51.590300
  H    -13.480700   73.494200   51.941800
  C    -12.338400   71.782800   51.121500
  H    -12.907300   71.050100   51.580100
  H    -11.249700   71.613800   51.132700
  C    -12.815100   71.906300   49.650700
  H    -12.863000   70.977100   49.082500
  H    -12.228700   72.640700   49.125500
  H    -13.838900   72.356900   49.717300
  H    -15.230600   77.620000   53.821800
  H    -10.006400   71.182700   55.597400

 Total Charge           Charge          ....    0
 Multiplicity           Mult            ....    1
 Number of Electrons    NEL             ....  134
 Basis Dimension        Dim             ....  322

ORBITAL ENERGIES
----------------

  NO   OCC          E(Eh)            E(eV)
   0   2.0000     -88.970576     -2421.0125
   1   2.0000     -88.963724     -2420.8260
   2   2.0000     -10.327456      -281.0244
   3   2.0000     -10.324618      -280.9471
   4   2.0000     -10.313971      -280.6574
   5   2.0000     -10.313445      -280.6431
   6   2.0000     -10.300731      -280.2971
   7   2.0000     -10.296612      -280.1851
   8   2.0000     -10.294513      -280.1279
   9   2.0000     -10.292107      -280.0625
  10   2.0000     -10.288054      -279.9522
  11   2.0000     -10.287876      -279.9473
  12   2.0000     -10.287088      -279.9259
  13   2.0000     -10.280504      -279.7467
  14   2.0000     -10.280229      -279.7392
  15   2.0000     -10.268183      -279.4115
  16   2.0000      -8.085228      -220.0102
  17   2.0000      -8.078170      -219.8182
  18   2.0000      -6.043646      -164.4560
  19   2.0000      -6.039915      -164.3544
  20   2.0000      -6.036771      -164.2689
  21   2.0000      -6.035932      -164.2461
  22   2.0000      -6.032611      -164.1557
  23   2.0000      -6.028957      -164.0562
  24   2.0000      -1.010989       -27.5104
  25   2.0000      -0.988216       -26.8907
  26   2.0000      -0.914735       -24.8912
  27   2.0000      -0.912429       -24.8285
  28   2.0000      -0.870363       -23.6838
  29   2.0000      -0.859209       -23.3803
  30   2.0000      -0.845507       -23.0074
  31   2.0000      -0.815604       -22.1937
  32   2.0000      -0.785148       -21.3650
  33   2.0000      -0.775310       -21.0973
  34   2.0000      -0.710719       -19.3396
  35   2.0000      -0.704986       -19.1836
  36   2.0000      -0.697864       -18.9899
  37   2.0000      -0.657021       -17.8785
  38   2.0000      -0.639050       -17.3894
  39   2.0000      -0.618362       -16.8265
  40   2.0000      -0.591078       -16.0840
  41   2.0000      -0.580623       -15.7995
  42   2.0000      -0.569319       -15.4920
  43   2.0000      -0.559245       -15.2178
  44   2.0000      -0.526832       -14.3358
  45   2.0000      -0.524330       -14.2677
  46   2.0000      -0.520940       -14.1755
  47   2.0000      -0.513329       -13.9684
  48   2.0000      -0.507744       -13.8164
  49   2.0000      -0.505038       -13.7428
  50   2.0000      -0.486320       -13.2335
  51   2.0000      -0.477271       -12.9872
  52   2.0000      -0.470472       -12.8022
  53   2.0000      -0.466663       -12.6985
  54   2.0000      -0.463302       -12.6071
  55   2.0000      -0.456445       -12.4205
  56   2.0000      -0.445825       -12.1315
  57   2.0000      -0.441940       -12.0258
  58   2.0000      -0.432204       -11.7609
  59   2.0000      -0.427559       -11.6345
  60   2.0000      -0.422742       -11.5034
  61   2.0000      -0.418273       -11.3818
  62   2.0000      -0.406694       -11.0667
  63   2.0000      -0.356389        -9.6978
  64   2.0000      -0.332063        -9.0359
  65   2.0000      -0.329721        -8.9722
  66   2.0000      -0.286720        -7.8020
  67   0.0000       0.030374         0.8265
  68   0.0000       0.072634         1.9765
  69   0.0000       0.107260         2.9187
  70   0.0000       0.118895         3.2353
  71   0.0000       0.133799         3.6409

MULLIKEN ATOMIC CHARGES
-----------------------
   0 S :    0.109435
   1 C :   -0.117473
   2 C :   -0.073375
   3 C :    0.025417
   4 C :   -0.132310
   5 H :    0.001580
   6 C :    0.045714
   7 H :    0.025832
   8 H :    0.020932
   9 C :   -0.064425
  10 H :    0.022836
  11 H :    0.026927
  12 C :    0.019085
  13 H :    0.021723
  14 H :    0.008929
  15 H :    0.016337
  16 S :    0.098596
  17 C :   -0.079562
  18 C :   -0.081666
  19 C :   -0.040446
  20 C :   -0.169234
  21 H :    0.010148
  22 C :    0.062299
  23 H :    0.027654
  24 H :    0.039081
  25 C :   -0.070877
  26 H :    0.025249
  27 H :    0.040106
  28 C :   -0.032520
  29 H :    0.045547
  30 H :    0.023037
  31 H :    0.027534
  32 H :    0.047001
  33 H :    0.070887
Sum of atomic charges:   -0.0000000

LOEWDIN ATOMIC CHARGES
----------------------
   0 S :    0.422681
   1 C :   -0.204278
   2 C :   -0.066468
   3 C :   -0.051021
   4 C :   -0.182347
   5 H :    0.023645
   6 C :   -0.037477
   7 H :    0.033295
   8 H :    0.029750
   9 C :   -0.031894
  10 H :    0.024722
  11 H :    0.023550
  12 C :   -0.058129
  13 H :    0.031236
  14 H :    0.013599
  15 H :    0.020787
  16 S :    0.405661
  17 C :   -0.211130
  18 C :   -0.077483
  19 C :   -0.064117
  20 C :   -0.185571
  21 H :    0.023616
  22 C :   -0.033742
  23 H :    0.027771
  24 H :    0.022398
  25 C :   -0.039983
  26 H :    0.017956
  27 H :    0.029267
  28 C :   -0.062137
  29 H :    0.028082
  30 H :    0.021128
  31 H :    0.029970
  32 H :    0.030452
  33 H :    0.046211

  Mayer bond orders larger than 0.100000
B(  0-S ,  1-C ) :   1.1422 B(  0-S ,  4-C ) :   1.1345 B(  1-C ,  2-C ) :   1.6152
B(  1-C , 32-H ) :   0.9601 B(  2-C ,  3-C ) :   1.2317 B(  2-C ,  6-C ) :   1.0468
B(  3-C ,  4-C ) :   1.5886 B(  3-C ,  5-H ) :   0.9953 B(  4-C , 20-C ) :   1.0254
B(  6-C ,  7-H ) :   0.9383 B(  6-C ,  8-H ) :   0.9310 B(  6-C ,  9-C ) :   1.0484
B(  9-C , 10-H ) :   0.9563 B(  9-C , 11-H ) :   0.9604 B(  9-C , 12-C ) :   1.0821
B( 12-C , 13-H ) :   0.9710 B( 12-C , 14-H ) :   0.9727 B( 12-C , 15-H ) :   0.9719
B( 16-S , 17-C ) :   1.1422 B( 16-S , 20-C ) :   1.1473 B( 17-C , 18-C ) :   1.6169
B( 17-C , 20-C ) :   0.1000 B( 17-C , 33-H ) :   0.9567 B( 18-C , 19-C ) :   1.2613
B( 18-C , 21-H ) :   0.9807 B( 19-C , 20-C ) :   1.6019 B( 19-C , 22-C ) :   0.9963
B( 22-C , 23-H ) :   0.9260 B( 22-C , 24-H ) :   0.9336 B( 22-C , 25-C ) :   1.0810
B( 25-C , 26-H ) :   0.9617 B( 25-C , 27-H ) :   0.9410 B( 25-C , 28-C ) :   1.0861
B( 28-C , 29-H ) :   0.9754 B( 28-C , 30-H ) :   0.9743 B( 28-C , 31-H ) :   0.9728

Dispersion correction           -0.013456581
FINAL SINGLE POINT ENERGY     -1339.869039369361

DIPOLE MOMENT
-------------
                                X             Y             Z
Electronic contribution:     17.74721       2.96140       8.43610
Nuclear contribution   :    -18.10109      -3.01569      -8.63981
                        -----------------------------------------
Total Dipole Moment    :     -0.35388      -0.05428      -0.20371
                        -----------------------------------------
Magnitude (a.u.)       :      0.41192
Magnitude (Debye)      :      1.04701

Rotational constants in cm-1:     0.019155     0.007491     0.006301
Rotational constants in MHz :   574.258059   224.568774   188.896836

                             ****ORCA TERMINATED NORMALLY****
TOTAL RUN TIME: 0 days 0 hours 0 minutes 32 seconds 804 msec
