                         Program Version 4.2.1 -  RELEASE  -
|  1> ! wB97X-D3 SP def2-SVP
|  2> %pal
|  3> nprocs 16
|  4> end
|  5>
|  6> * xyz 0 1
|  7> S 	 -47.4747 	 26.83 	 86.9522
|  8> C 	 -48.1294 	 26.9247 	 85.3223
|  9> C 	 -47.1449 	 27.2745 	 84.4125
| 10> C 	 -45.9496 	 27.6266 	 85.0758
| 11> C 	 -45.9488 	 27.5288 	 86.4379
| 12> H 	 -45.0909 	 27.9018 	 84.5334
| 13> C 	 -47.2811 	 27.451 	 82.9178
| 14> H 	 -46.3774 	 27.1888 	 82.4037
| 15> H 	 -47.5718 	 28.5019 	 82.6529
| 16> C 	 -48.3858 	 26.5799 	 82.2958
| 17> H 	 -48.2437 	 25.4641 	 82.4629
| 18> H 	 -49.3721 	 26.7432 	 82.7356
| 19> C 	 -48.4387 	 26.9266 	 80.8021
| 20> H 	 -47.6389 	 26.363 	 80.318
| 21> H 	 -49.2756 	 26.4213 	 80.3666
| 22> H 	 -48.6167 	 27.9782 	 80.5288
| 23> S 	 -44.5089 	 26.576 	 88.6979
| 24> C 	 -43.0556 	 27.4757 	 89.1364
| 25> C 	 -42.7239 	 28.4319 	 88.2204
| 26> C 	 -43.6904 	 28.6509 	 87.2073
| 27> C 	 -44.7873 	 27.7531 	 87.3301
| 28> H 	 -41.9254 	 29.1117 	 88.3362
| 29> C 	 -43.3631 	 29.6465 	 86.0952
| 30> H 	 -43.0053 	 30.5632 	 86.5356
| 31> H 	 -44.2455 	 29.8567 	 85.494
| 32> C 	 -42.2729 	 29.2199 	 85.0958
| 33> H 	 -42.3184 	 29.8091 	 84.1816
| 34> H 	 -42.4662 	 28.1192 	 84.7166
| 35> C 	 -40.8116 	 29.4845 	 85.4554
| 36> H 	 -40.2948 	 29.222 	 84.5439
| 37> H 	 -40.3787 	 28.8685 	 86.2532
| 38> H 	 -40.5549 	 30.5018 	 85.6146
| 39> H 	 -49.0953 	 26.6442 	 84.9924
| 40> H 	 -42.5153 	 27.3978 	 90.019
| 41> *
| 42>
| 43>                          ****END OF INPUT****

CARTESIAN COORDINATES (ANGSTROEM)
---------------------------------
  S    -47.474700   26.830000   86.952200
  C    -48.129400   26.924700   85.322300
  C    -47.144900   27.274500   84.412500
  C    -45.949600   27.626600   85.075800
  C    -45.948800   27.528800   86.437900
  H    -45.090900   27.901800   84.533400
  C    -47.281100   27.451000   82.917800
  H    -46.377400   27.188800   82.403700
  H    -47.571800   28.501900   82.652900
  C    -48.385800   26.579900   82.295800
  H    -48.243700   25.464100   82.462900
  H    -49.372100   26.743200   82.735600
  C    -48.438700   26.926600   80.802100
  H    -47.638900   26.363000   80.318000
  H    -49.275600   26.421300   80.366600
  H    -48.616700   27.978200   80.528800
  S    -44.508900   26.576000   88.697900
  C    -43.055600   27.475700   89.136400
  C    -42.723900   28.431900   88.220400
  C    -43.690400   28.650900   87.207300
  C    -44.787300   27.753100   87.330100
  H    -41.925400   29.111700   88.336200
  C    -43.363100   29.646500   86.095200
  H    -43.005300   30.563200   86.535600
  H    -44.245500   29.856700   85.494000
  C    -42.272900   29.219900   85.095800
  H    -42.318400   29.809100   84.181600
  H    -42.466200   28.119200   84.716600
  C    -40.811600   29.484500   85.455400
  H    -40.294800   29.222000   84.543900
  H    -40.378700   28.868500   86.253200
  H    -40.554900   30.501800   85.614600
  H    -49.095300   26.644200   84.992400
  H    -42.515300   27.397800   90.019000

 Total Charge           Charge          ....    0
 Multiplicity           Mult            ....    1
 Number of Electrons    NEL             ....  134
 Basis Dimension        Dim             ....  322

ORBITAL ENERGIES
----------------

  NO   OCC          E(Eh)            E(eV)
   0   2.0000     -88.968405     -2420.9534
   1   2.0000     -88.967197     -2420.9205
   2   2.0000     -10.338562      -281.3266
   3   2.0000     -10.330059      -281.0952
   4   2.0000     -10.312686      -280.6225
   5   2.0000     -10.312678      -280.6222
   6   2.0000     -10.306609      -280.4571
   7   2.0000     -10.297339      -280.2048
   8   2.0000     -10.296880      -280.1924
   9   2.0000     -10.295428      -280.1528
  10   2.0000     -10.293545      -280.1016
  11   2.0000     -10.292368      -280.0696
  12   2.0000     -10.286646      -279.9139
  13   2.0000     -10.284635      -279.8592
  14   2.0000     -10.278478      -279.6916
  15   2.0000     -10.276134      -279.6278
  16   2.0000      -8.081642      -219.9126
  17   2.0000      -8.081487      -219.9084
  18   2.0000      -6.040293      -164.3647
  19   2.0000      -6.040146      -164.3607
  20   2.0000      -6.036535      -164.2625
  21   2.0000      -6.036089      -164.2503
  22   2.0000      -6.032175      -164.1438
  23   2.0000      -6.032090      -164.1415
  24   2.0000      -1.002058       -27.2674
  25   2.0000      -0.979616       -26.6567
  26   2.0000      -0.914288       -24.8790
  27   2.0000      -0.908309       -24.7163
  28   2.0000      -0.866316       -23.5736
  29   2.0000      -0.854179       -23.2434
  30   2.0000      -0.847333       -23.0571
  31   2.0000      -0.814038       -22.1511
  32   2.0000      -0.787337       -21.4245
  33   2.0000      -0.773515       -21.0484
  34   2.0000      -0.713572       -19.4173
  35   2.0000      -0.698837       -19.0163
  36   2.0000      -0.686848       -18.6901
  37   2.0000      -0.663657       -18.0590
  38   2.0000      -0.639788       -17.4095
  39   2.0000      -0.620775       -16.8921
  40   2.0000      -0.596055       -16.2195
  41   2.0000      -0.576611       -15.6904
  42   2.0000      -0.568098       -15.4587
  43   2.0000      -0.552094       -15.0233
  44   2.0000      -0.547961       -14.9108
  45   2.0000      -0.520250       -14.1567
  46   2.0000      -0.516095       -14.0437
  47   2.0000      -0.511163       -13.9095
  48   2.0000      -0.505968       -13.7681
  49   2.0000      -0.501315       -13.6415
  50   2.0000      -0.494981       -13.4691
  51   2.0000      -0.480258       -13.0685
  52   2.0000      -0.469565       -12.7775
  53   2.0000      -0.466916       -12.7054
  54   2.0000      -0.457712       -12.4550
  55   2.0000      -0.447945       -12.1892
  56   2.0000      -0.444048       -12.0832
  57   2.0000      -0.435412       -11.8482
  58   2.0000      -0.433274       -11.7900
  59   2.0000      -0.427582       -11.6351
  60   2.0000      -0.420649       -11.4464
  61   2.0000      -0.417743       -11.3674
  62   2.0000      -0.409812       -11.1516
  63   2.0000      -0.352795        -9.6000
  64   2.0000      -0.333646        -9.0790
  65   2.0000      -0.329948        -8.9783
  66   2.0000      -0.284849        -7.7511
  67   0.0000       0.021022         0.5720
  68   0.0000       0.075069         2.0427
  69   0.0000       0.099587         2.7099
  70   0.0000       0.125909         3.4262
  71   0.0000       0.132002         3.5920

MULLIKEN ATOMIC CHARGES
-----------------------
   0 S :    0.105902
   1 C :   -0.104706
   2 C :   -0.064703
   3 C :    0.016188
   4 C :   -0.105667
   5 H :   -0.022963
   6 C :    0.073935
   7 H :    0.024120
   8 H :    0.049310
   9 C :   -0.150686
  10 H :    0.042610
  11 H :    0.027774
  12 C :   -0.024210
  13 H :    0.032872
  14 H :    0.010981
  15 H :    0.045004
  16 S :    0.094211
  17 C :   -0.050562
  18 C :   -0.015749
  19 C :   -0.043712
  20 C :   -0.143184
  21 H :    0.004153
  22 C :    0.092026
  23 H :    0.017118
  24 H :    0.025523
  25 C :   -0.127636
  26 H :    0.028183
  27 H :    0.051647
  28 C :   -0.037075
  29 H :    0.025137
  30 H :    0.039491
  31 H :    0.024280
  32 H :    0.028244
  33 H :    0.032144
Sum of atomic charges:    0.0000000

LOEWDIN ATOMIC CHARGES
----------------------
   0 S :    0.399771
   1 C :   -0.186737
   2 C :   -0.064048
   3 C :   -0.060548
   4 C :   -0.189039
   5 H :    0.020463
   6 C :   -0.029687
   7 H :    0.028722
   8 H :    0.041609
   9 C :   -0.047999
  10 H :    0.031750
  11 H :    0.016757
  12 C :   -0.070967
  13 H :    0.030064
  14 H :    0.022807
  15 H :    0.030854
  16 S :    0.367829
  17 C :   -0.165285
  18 C :   -0.064668
  19 C :   -0.050059
  20 C :   -0.169190
  21 H :    0.024415
  22 C :   -0.033047
  23 H :    0.029170
  24 H :    0.030716
  25 C :   -0.048244
  26 H :    0.026680
  27 H :    0.035474
  28 C :   -0.068429
  29 H :    0.030348
  30 H :    0.023232
  31 H :    0.019862
  32 H :    0.019385
  33 H :    0.018038

  Mayer bond orders larger than 0.100000
B(  0-S ,  1-C ) :   1.1341 B(  0-S ,  4-C ) :   1.1380 B(  1-C ,  2-C ) :   1.6032
B(  1-C , 32-H ) :   0.9694 B(  2-C ,  3-C ) :   1.2688 B(  2-C ,  6-C ) :   1.0167
B(  3-C ,  4-C ) :   1.5498 B(  3-C ,  5-H ) :   1.0032 B(  4-C , 20-C ) :   1.0590
B(  6-C ,  7-H ) :   0.9451 B(  6-C ,  8-H ) :   0.9374 B(  6-C ,  9-C ) :   1.0609
B(  9-C , 10-H ) :   0.9583 B(  9-C , 11-H ) :   0.9512 B(  9-C , 12-C ) :   1.0930
B( 12-C , 13-H ) :   0.9714 B( 12-C , 14-H ) :   0.9668 B( 12-C , 15-H ) :   0.9724
B( 16-S , 17-C ) :   1.1323 B( 16-S , 20-C ) :   1.1236 B( 17-C , 18-C ) :   1.6234
B( 17-C , 33-H ) :   0.9706 B( 18-C , 19-C ) :   1.2461 B( 18-C , 21-H ) :   0.9846
B( 19-C , 20-C ) :   1.5943 B( 19-C , 22-C ) :   1.0571 B( 22-C , 23-H ) :   0.9301
B( 22-C , 24-H ) :   0.9320 B( 22-C , 25-C ) :   1.0640 B( 25-C , 26-H ) :   0.9573
B( 25-C , 27-H ) :   0.9507 B( 25-C , 28-C ) :   1.0809 B( 28-C , 29-H ) :   0.9705
B( 28-C , 30-H ) :   0.9725 B( 28-C , 31-H ) :   0.9721

Dispersion correction           -0.013740270
FINAL SINGLE POINT ENERGY     -1339.868499745353

DIPOLE MOMENT
-------------
                                X             Y             Z
Electronic contribution:     -6.51542      -8.46733      27.84893
Nuclear contribution   :      6.81384       8.80409     -28.60914
                        -----------------------------------------
Total Dipole Moment    :      0.29842       0.33676      -0.76021
                        -----------------------------------------
Magnitude (a.u.)       :      0.88339
Magnitude (Debye)      :      2.24540

Rotational constants in cm-1:     0.019690     0.007818     0.005835
Rotational constants in MHz :   590.300904   234.363261   174.918458

                             ****ORCA TERMINATED NORMALLY****
TOTAL RUN TIME: 0 days 0 hours 0 minutes 29 seconds 190 msec
