                         Program Version 4.2.1 -  RELEASE  -
|  1> ! wB97X-D3 SP def2-SVP
|  2> %pal
|  3> nprocs 16
|  4> end
|  5>
|  6> * xyz 0 1
|  7> S 	 2.91268 	 35.379 	 36.0015
|  8> C 	 3.17368 	 33.7845 	 36.566
|  9> C 	 2.04797 	 33.1016 	 36.7658
| 10> C 	 0.889063 	 33.9135 	 36.486
| 11> C 	 1.17255 	 35.1623 	 36.0432
| 12> H 	 -0.130029 	 33.6969 	 36.5979
| 13> C 	 2.08721 	 31.6651 	 37.1739
| 14> H 	 2.36383 	 31.5251 	 38.2652
| 15> H 	 3.00421 	 31.2946 	 36.7187
| 16> C 	 0.849176 	 30.8095 	 36.7218
| 17> H 	 -0.0824052 	 31.2052 	 37.0917
| 18> H 	 0.812098 	 30.7976 	 35.6177
| 19> C 	 1.13858 	 29.3928 	 37.3309
| 20> H 	 0.306977 	 28.7204 	 37.1592
| 21> H 	 1.98989 	 29.0004 	 36.8189
| 22> H 	 1.40574 	 29.3886 	 38.3718
| 23> S 	 0.152846 	 36.4652 	 33.8927
| 24> C 	 -0.970809 	 37.7858 	 34.1307
| 25> C 	 -1.4046 	 37.8697 	 35.481
| 26> C 	 -0.765046 	 36.8746 	 36.2824
| 27> C 	 0.192968 	 36.1451 	 35.6387
| 28> H 	 -2.26876 	 38.5077 	 35.8223
| 29> C 	 -1.1283 	 36.7115 	 37.7762
| 30> H 	 -1.19604 	 37.6595 	 38.3021
| 31> H 	 -0.235269 	 36.1905 	 38.2009
| 32> C 	 -2.4606 	 35.953 	 38.012
| 33> H 	 -2.31402 	 35.0233 	 37.5132
| 34> H 	 -3.32019 	 36.5545 	 37.6734
| 35> C 	 -2.7313 	 35.5838 	 39.4869
| 36> H 	 -1.8395 	 35.2672 	 40.0998
| 37> H 	 -3.5182 	 34.7857 	 39.5298
| 38> H 	 -3.21839 	 36.3922 	 40.0819
| 39> H 	 4.21891 	 33.4444 	 36.6093
| 40> H 	 -1.48413 	 38.3298 	 33.3184
| 41> *
| 42>
| 43>                          ****END OF INPUT****

CARTESIAN COORDINATES (ANGSTROEM)
---------------------------------
  S      2.912680   35.379000   36.001500
  C      3.173680   33.784500   36.566000
  C      2.047970   33.101600   36.765800
  C      0.889063   33.913500   36.486000
  C      1.172550   35.162300   36.043200
  H     -0.130029   33.696900   36.597900
  C      2.087210   31.665100   37.173900
  H      2.363830   31.525100   38.265200
  H      3.004210   31.294600   36.718700
  C      0.849176   30.809500   36.721800
  H     -0.082405   31.205200   37.091700
  H      0.812098   30.797600   35.617700
  C      1.138580   29.392800   37.330900
  H      0.306977   28.720400   37.159200
  H      1.989890   29.000400   36.818900
  H      1.405740   29.388600   38.371800
  S      0.152846   36.465200   33.892700
  C     -0.970809   37.785800   34.130700
  C     -1.404600   37.869700   35.481000
  C     -0.765046   36.874600   36.282400
  C      0.192968   36.145100   35.638700
  H     -2.268760   38.507700   35.822300
  C     -1.128300   36.711500   37.776200
  H     -1.196040   37.659500   38.302100
  H     -0.235269   36.190500   38.200900
  C     -2.460600   35.953000   38.012000
  H     -2.314020   35.023300   37.513200
  H     -3.320190   36.554500   37.673400
  C     -2.731300   35.583800   39.486900
  H     -1.839500   35.267200   40.099800
  H     -3.518200   34.785700   39.529800
  H     -3.218390   36.392200   40.081900
  H      4.218910   33.444400   36.609300
  H     -1.484130   38.329800   33.318400

 Total Charge           Charge          ....    0
 Multiplicity           Mult            ....    1
 Number of Electrons    NEL             ....  134
 Basis Dimension        Dim             ....  322

ORBITAL ENERGIES
----------------

  NO   OCC          E(Eh)            E(eV)
   0   2.0000     -88.964797     -2420.8552
   1   2.0000     -88.959845     -2420.7204
   2   2.0000     -10.323876      -280.9269
   3   2.0000     -10.323712      -280.9225
   4   2.0000     -10.322559      -280.8911
   5   2.0000     -10.306601      -280.4569
   6   2.0000     -10.303127      -280.3623
   7   2.0000     -10.301189      -280.3096
   8   2.0000     -10.295318      -280.1498
   9   2.0000     -10.294569      -280.1295
  10   2.0000     -10.294265      -280.1212
  11   2.0000     -10.292573      -280.0752
  12   2.0000     -10.289636      -279.9952
  13   2.0000     -10.288716      -279.9702
  14   2.0000     -10.287019      -279.9240
  15   2.0000     -10.275903      -279.6215
  16   2.0000      -8.079244      -219.8474
  17   2.0000      -8.075756      -219.7525
  18   2.0000      -6.037722      -164.2948
  19   2.0000      -6.034151      -164.1976
  20   2.0000      -6.033818      -164.1885
  21   2.0000      -6.030132      -164.0882
  22   2.0000      -6.030015      -164.0851
  23   2.0000      -6.026519      -163.9899
  24   2.0000      -1.010886       -27.5076
  25   2.0000      -0.985278       -26.8108
  26   2.0000      -0.909198       -24.7405
  27   2.0000      -0.902727       -24.5645
  28   2.0000      -0.873182       -23.7605
  29   2.0000      -0.848854       -23.0985
  30   2.0000      -0.845472       -23.0065
  31   2.0000      -0.814933       -22.1755
  32   2.0000      -0.777008       -21.1435
  33   2.0000      -0.766187       -20.8490
  34   2.0000      -0.714756       -19.4495
  35   2.0000      -0.694725       -18.9044
  36   2.0000      -0.687438       -18.7061
  37   2.0000      -0.661496       -18.0002
  38   2.0000      -0.652923       -17.7669
  39   2.0000      -0.616789       -16.7837
  40   2.0000      -0.588146       -16.0043
  41   2.0000      -0.569482       -15.4964
  42   2.0000      -0.566116       -15.4048
  43   2.0000      -0.561054       -15.2670
  44   2.0000      -0.525809       -14.3080
  45   2.0000      -0.522033       -14.2052
  46   2.0000      -0.513062       -13.9611
  47   2.0000      -0.509609       -13.8672
  48   2.0000      -0.502968       -13.6865
  49   2.0000      -0.499522       -13.5927
  50   2.0000      -0.490268       -13.3409
  51   2.0000      -0.480216       -13.0673
  52   2.0000      -0.467205       -12.7133
  53   2.0000      -0.463542       -12.6136
  54   2.0000      -0.456966       -12.4347
  55   2.0000      -0.450176       -12.2499
  56   2.0000      -0.445628       -12.1262
  57   2.0000      -0.440152       -11.9772
  58   2.0000      -0.432103       -11.7581
  59   2.0000      -0.430570       -11.7164
  60   2.0000      -0.420786       -11.4502
  61   2.0000      -0.415236       -11.2992
  62   2.0000      -0.410268       -11.1640
  63   2.0000      -0.339170        -9.2293
  64   2.0000      -0.332512        -9.0481
  65   2.0000      -0.323592        -8.8054
  66   2.0000      -0.304045        -8.2735
  67   0.0000       0.039263         1.0684
  68   0.0000       0.063610         1.7309
  69   0.0000       0.112300         3.0559
  70   0.0000       0.124438         3.3861
  71   0.0000       0.135490         3.6869

MULLIKEN ATOMIC CHARGES
-----------------------
   0 S :    0.115038
   1 C :   -0.150990
   2 C :   -0.018816
   3 C :    0.048367
   4 C :   -0.163475
   5 H :   -0.017604
   6 C :    0.017501
   7 H :    0.044699
   8 H :    0.015030
   9 C :   -0.083628
  10 H :    0.038818
  11 H :    0.046323
  12 C :   -0.019893
  13 H :    0.031994
  14 H :    0.017762
  15 H :    0.027222
  16 S :    0.109513
  17 C :   -0.103934
  18 C :   -0.054026
  19 C :   -0.013121
  20 C :   -0.196859
  21 H :    0.043756
  22 C :    0.035455
  23 H :    0.024323
  24 H :    0.036692
  25 C :   -0.047414
  26 H :    0.026416
  27 H :    0.040079
  28 C :   -0.092302
  29 H :    0.044625
  30 H :    0.037298
  31 H :    0.032135
  32 H :    0.057050
  33 H :    0.071968
Sum of atomic charges:   -0.0000000

LOEWDIN ATOMIC CHARGES
----------------------
   0 S :    0.411170
   1 C :   -0.199392
   2 C :   -0.074752
   3 C :   -0.052367
   4 C :   -0.202167
   5 H :    0.021676
   6 C :   -0.038513
   7 H :    0.038360
   8 H :    0.030386
   9 C :   -0.031290
  10 H :    0.018892
  11 H :    0.031395
  12 C :   -0.059615
  13 H :    0.023065
  14 H :    0.022240
  15 H :    0.022911
  16 S :    0.401384
  17 C :   -0.188367
  18 C :   -0.079619
  19 C :   -0.055394
  20 C :   -0.194767
  21 H :    0.041966
  22 C :   -0.032481
  23 H :    0.026049
  24 H :    0.034391
  25 C :   -0.037504
  26 H :    0.020084
  27 H :    0.030333
  28 C :   -0.079978
  29 H :    0.030468
  30 H :    0.029963
  31 H :    0.024969
  32 H :    0.031864
  33 H :    0.034640

  Mayer bond orders larger than 0.100000
B(  0-S ,  1-C ) :   1.1460 B(  0-S ,  4-C ) :   1.1415 B(  1-C ,  2-C ) :   1.6300
B(  1-C , 32-H ) :   0.9683 B(  2-C ,  3-C ) :   1.2002 B(  2-C ,  6-C ) :   1.0074
B(  3-C ,  4-C ) :   1.6028 B(  3-C ,  5-H ) :   1.0123 B(  4-C , 20-C ) :   1.0209
B(  6-C ,  7-H ) :   0.9377 B(  6-C ,  8-H ) :   0.9432 B(  6-C ,  9-C ) :   1.0593
B(  9-C , 10-H ) :   0.9565 B(  9-C , 11-H ) :   0.9589 B(  9-C , 12-C ) :   1.0771
B( 12-C , 13-H ) :   0.9744 B( 12-C , 14-H ) :   0.9743 B( 12-C , 15-H ) :   0.9764
B( 16-S , 17-C ) :   1.1662 B( 16-S , 20-C ) :   1.1355 B( 17-C , 18-C ) :   1.5932
B( 17-C , 20-C ) :   0.1073 B( 17-C , 33-H ) :   0.9625 B( 18-C , 19-C ) :   1.2455
B( 18-C , 21-H ) :   0.9780 B( 19-C , 20-C ) :   1.6253 B( 19-C , 22-C ) :   1.0398
B( 22-C , 23-H ) :   0.9408 B( 22-C , 24-H ) :   0.9360 B( 22-C , 25-C ) :   1.0649
B( 25-C , 26-H ) :   0.9561 B( 25-C , 27-H ) :   0.9540 B( 25-C , 28-C ) :   1.0804
B( 28-C , 29-H ) :   0.9745 B( 28-C , 30-H ) :   0.9760 B( 28-C , 31-H ) :   0.9753

Dispersion correction           -0.013876434
FINAL SINGLE POINT ENERGY     -1339.881112667805

DIPOLE MOMENT
-------------
                                X             Y             Z
Electronic contribution:     12.80617      18.70945     -18.71055
Nuclear contribution   :    -13.17314     -19.12926      19.06088
                        -----------------------------------------
Total Dipole Moment    :     -0.36697      -0.41981       0.35033
                        -----------------------------------------
Magnitude (a.u.)       :      0.65851
Magnitude (Debye)      :      1.67381

Rotational constants in cm-1:     0.016539     0.008738     0.006771
Rotational constants in MHz :   495.836254   261.966195   202.998642

                             ****ORCA TERMINATED NORMALLY****
TOTAL RUN TIME: 0 days 0 hours 0 minutes 34 seconds 940 msec
