                         Program Version 4.2.1 -  RELEASE  -
|  1> ! wB97X-D3 SP def2-SVP
|  2> %pal
|  3> nprocs 16
|  4> end
|  5>
|  6> * xyz 0 1
|  7> S 	 -76.1018 	 51.414 	 140.161
|  8> C 	 -74.9663 	 50.8124 	 141.247
|  9> C 	 -73.8126 	 50.3727 	 140.593
| 10> C 	 -73.9162 	 50.4275 	 139.174
| 11> C 	 -75.1319 	 50.9948 	 138.724
| 12> H 	 -73.1492 	 50.2015 	 138.479
| 13> C 	 -72.5123 	 49.8361 	 141.219
| 14> H 	 -72.3971 	 50.3505 	 142.145
| 15> H 	 -71.5973 	 49.9412 	 140.601
| 16> C 	 -72.574 	 48.3313 	 141.406
| 17> H 	 -72.6409 	 47.7986 	 140.465
| 18> H 	 -71.6957 	 47.9738 	 141.912
| 19> C 	 -73.7868 	 47.7386 	 142.236
| 20> H 	 -73.5102 	 46.7096 	 142.511
| 21> H 	 -73.9555 	 48.2493 	 143.185
| 22> H 	 -74.6605 	 47.7224 	 141.618
| 23> S 	 -75.4086 	 50.0752 	 136.172
| 24> C 	 -75.7366 	 51.1517 	 134.857
| 25> C 	 -76.0763 	 52.3749 	 135.395
| 26> C 	 -75.8367 	 52.544 	 136.797
| 27> C 	 -75.5599 	 51.3283 	 137.41
| 28> H 	 -76.3685 	 53.1939 	 134.801
| 29> C 	 -75.9021 	 53.8351 	 137.6
| 30> H 	 -75.5427 	 54.7802 	 137.135
| 31> H 	 -75.1536 	 53.7984 	 138.412
| 32> C 	 -77.3456 	 54.1311 	 138.105
| 33> H 	 -77.8096 	 53.1469 	 138.136
| 34> H 	 -77.8246 	 54.8092 	 137.397
| 35> C 	 -77.3244 	 54.8412 	 139.509
| 36> H 	 -78.2273 	 55.467 	 139.664
| 37> H 	 -76.3312 	 55.3965 	 139.736
| 38> H 	 -77.3706 	 54.0034 	 140.207
| 39> H 	 -75.0233 	 50.7843 	 142.324
| 40> H 	 -75.6817 	 50.9528 	 133.855
| 41> *
| 42>
| 43>                          ****END OF INPUT****

CARTESIAN COORDINATES (ANGSTROEM)
---------------------------------
  S    -76.101800   51.414000  140.161000
  C    -74.966300   50.812400  141.247000
  C    -73.812600   50.372700  140.593000
  C    -73.916200   50.427500  139.174000
  C    -75.131900   50.994800  138.724000
  H    -73.149200   50.201500  138.479000
  C    -72.512300   49.836100  141.219000
  H    -72.397100   50.350500  142.145000
  H    -71.597300   49.941200  140.601000
  C    -72.574000   48.331300  141.406000
  H    -72.640900   47.798600  140.465000
  H    -71.695700   47.973800  141.912000
  C    -73.786800   47.738600  142.236000
  H    -73.510200   46.709600  142.511000
  H    -73.955500   48.249300  143.185000
  H    -74.660500   47.722400  141.618000
  S    -75.408600   50.075200  136.172000
  C    -75.736600   51.151700  134.857000
  C    -76.076300   52.374900  135.395000
  C    -75.836700   52.544000  136.797000
  C    -75.559900   51.328300  137.410000
  H    -76.368500   53.193900  134.801000
  C    -75.902100   53.835100  137.600000
  H    -75.542700   54.780200  137.135000
  H    -75.153600   53.798400  138.412000
  C    -77.345600   54.131100  138.105000
  H    -77.809600   53.146900  138.136000
  H    -77.824600   54.809200  137.397000
  C    -77.324400   54.841200  139.509000
  H    -78.227300   55.467000  139.664000
  H    -76.331200   55.396500  139.736000
  H    -77.370600   54.003400  140.207000
  H    -75.023300   50.784300  142.324000
  H    -75.681700   50.952800  133.855000

 Total Charge           Charge          ....    0
 Multiplicity           Mult            ....    1
 Number of Electrons    NEL             ....  134
 Basis Dimension        Dim             ....  322

ORBITAL ENERGIES
----------------

  NO   OCC          E(Eh)            E(eV)
   0   2.0000     -88.971171     -2421.0287
   1   2.0000     -88.963464     -2420.8189
   2   2.0000     -10.332523      -281.1623
   3   2.0000     -10.325037      -280.9585
   4   2.0000     -10.314743      -280.6784
   5   2.0000     -10.313512      -280.6449
   6   2.0000     -10.304619      -280.4029
   7   2.0000     -10.302672      -280.3500
   8   2.0000     -10.296547      -280.1833
   9   2.0000     -10.293263      -280.0939
  10   2.0000     -10.292646      -280.0771
  11   2.0000     -10.290695      -280.0241
  12   2.0000     -10.285384      -279.8795
  13   2.0000     -10.283292      -279.8226
  14   2.0000     -10.283007      -279.8149
  15   2.0000     -10.274280      -279.5774
  16   2.0000      -8.085674      -220.0224
  17   2.0000      -8.078291      -219.8215
  18   2.0000      -6.044121      -164.4689
  19   2.0000      -6.039998      -164.3567
  20   2.0000      -6.036894      -164.2722
  21   2.0000      -6.036734      -164.2679
  22   2.0000      -6.032597      -164.1553
  23   2.0000      -6.029113      -164.0605
  24   2.0000      -1.008775       -27.4502
  25   2.0000      -0.987198       -26.8630
  26   2.0000      -0.910191       -24.7675
  27   2.0000      -0.901765       -24.5383
  28   2.0000      -0.874961       -23.8089
  29   2.0000      -0.846682       -23.0394
  30   2.0000      -0.841741       -22.9049
  31   2.0000      -0.810733       -22.0612
  32   2.0000      -0.783356       -21.3162
  33   2.0000      -0.768960       -20.9245
  34   2.0000      -0.712120       -19.3778
  35   2.0000      -0.693279       -18.8651
  36   2.0000      -0.690673       -18.7942
  37   2.0000      -0.667562       -18.1653
  38   2.0000      -0.644384       -17.5346
  39   2.0000      -0.617329       -16.7984
  40   2.0000      -0.602934       -16.4067
  41   2.0000      -0.573367       -15.6021
  42   2.0000      -0.562317       -15.3014
  43   2.0000      -0.548834       -14.9345
  44   2.0000      -0.541039       -14.7224
  45   2.0000      -0.522038       -14.2054
  46   2.0000      -0.518752       -14.1160
  47   2.0000      -0.515377       -14.0241
  48   2.0000      -0.503715       -13.7068
  49   2.0000      -0.503344       -13.6967
  50   2.0000      -0.490545       -13.3484
  51   2.0000      -0.476718       -12.9722
  52   2.0000      -0.473715       -12.8905
  53   2.0000      -0.466665       -12.6986
  54   2.0000      -0.457782       -12.4569
  55   2.0000      -0.442048       -12.0287
  56   2.0000      -0.438972       -11.9450
  57   2.0000      -0.437389       -11.9020
  58   2.0000      -0.432243       -11.7619
  59   2.0000      -0.418808       -11.3963
  60   2.0000      -0.418151       -11.3785
  61   2.0000      -0.413916       -11.2632
  62   2.0000      -0.402780       -10.9602
  63   2.0000      -0.349514        -9.5107
  64   2.0000      -0.331299        -9.0151
  65   2.0000      -0.327496        -8.9116
  66   2.0000      -0.291577        -7.9342
  67   0.0000       0.024631         0.6703
  68   0.0000       0.071507         1.9458
  69   0.0000       0.107094         2.9142
  70   0.0000       0.118895         3.2353
  71   0.0000       0.134411         3.6575

MULLIKEN ATOMIC CHARGES
-----------------------
   0 S :    0.123585
   1 C :   -0.096115
   2 C :   -0.124611
   3 C :    0.052598
   4 C :   -0.174579
   5 H :    0.005118
   6 C :    0.105052
   7 H :    0.016228
   8 H :    0.036003
   9 C :   -0.089620
  10 H :    0.028672
  11 H :    0.024972
  12 C :   -0.067913
  13 H :    0.030562
  14 H :    0.023622
  15 H :    0.046445
  16 S :    0.102663
  17 C :   -0.053193
  18 C :   -0.000092
  19 C :   -0.038545
  20 C :   -0.150210
  21 H :   -0.001791
  22 C :    0.011491
  23 H :    0.027580
  24 H :    0.037504
  25 C :   -0.067139
  26 H :    0.042021
  27 H :    0.037165
  28 C :   -0.088842
  29 H :    0.044084
  30 H :    0.051500
  31 H :    0.031250
  32 H :    0.045146
  33 H :    0.029388
Sum of atomic charges:    0.0000000

LOEWDIN ATOMIC CHARGES
----------------------
   0 S :    0.448233
   1 C :   -0.218908
   2 C :   -0.063787
   3 C :   -0.050137
   4 C :   -0.191990
   5 H :    0.026494
   6 C :   -0.028180
   7 H :    0.024021
   8 H :    0.039247
   9 C :   -0.038894
  10 H :    0.024228
  11 H :    0.019014
  12 C :   -0.066555
  13 H :    0.027827
  14 H :    0.018615
  15 H :    0.022165
  16 S :    0.410595
  17 C :   -0.174097
  18 C :   -0.064362
  19 C :   -0.052143
  20 C :   -0.202055
  21 H :    0.021659
  22 C :   -0.044161
  23 H :    0.033034
  24 H :    0.029797
  25 C :   -0.039153
  26 H :    0.020149
  27 H :    0.022984
  28 C :   -0.078259
  29 H :    0.027029
  30 H :    0.035184
  31 H :    0.015920
  32 H :    0.030500
  33 H :    0.015984

  Mayer bond orders larger than 0.100000
B(  0-S ,  1-C ) :   1.1724 B(  0-S ,  4-C ) :   1.1532 B(  1-C ,  2-C ) :   1.5723
B(  1-C ,  4-C ) :   0.1018 B(  1-C , 32-H ) :   0.9658 B(  2-C ,  3-C ) :   1.2795
B(  2-C ,  6-C ) :   1.0211 B(  3-C ,  4-C ) :   1.5319 B(  3-C ,  5-H ) :   0.9982
B(  4-C , 20-C ) :   1.0560 B(  6-C ,  7-H ) :   0.9374 B(  6-C ,  8-H ) :   0.9457
B(  6-C ,  9-C ) :   1.0732 B(  9-C , 10-H ) :   0.9566 B(  9-C , 11-H ) :   0.9609
B(  9-C , 12-C ) :   1.0753 B( 12-C , 13-H ) :   0.9755 B( 12-C , 14-H ) :   0.9776
B( 12-C , 15-H ) :   0.9766 B( 16-S , 17-C ) :   1.1583 B( 16-S , 20-C ) :   1.1362
B( 17-C , 18-C ) :   1.5792 B( 17-C , 33-H ) :   0.9844 B( 18-C , 19-C ) :   1.2629
B( 18-C , 21-H ) :   0.9920 B( 19-C , 20-C ) :   1.5602 B( 19-C , 22-C ) :   1.0550
B( 22-C , 23-H ) :   0.9367 B( 22-C , 24-H ) :   0.9416 B( 22-C , 25-C ) :   1.0317
B( 25-C , 26-H ) :   0.9685 B( 25-C , 27-H ) :   0.9607 B( 25-C , 28-C ) :   1.0568
B( 28-C , 29-H ) :   0.9756 B( 28-C , 30-H ) :   0.9762 B( 28-C , 31-H ) :   0.9766

Dispersion correction           -0.015325204
FINAL SINGLE POINT ENERGY     -1339.873995670414

DIPOLE MOMENT
-------------
                                X             Y             Z
Electronic contribution:     -4.21046      -3.44167     -14.15107
Nuclear contribution   :      4.60993       3.64195      14.24659
                        -----------------------------------------
Total Dipole Moment    :      0.39947       0.20028       0.09552
                        -----------------------------------------
Magnitude (a.u.)       :      0.45696
Magnitude (Debye)      :      1.16150

Rotational constants in cm-1:     0.020679     0.008984     0.006812
Rotational constants in MHz :   619.948545   269.319650   204.228681

                             ****ORCA TERMINATED NORMALLY****
TOTAL RUN TIME: 0 days 0 hours 0 minutes 37 seconds 342 msec
