                         Program Version 4.2.1 -  RELEASE  -
|  1> ! wB97X-D3 SP def2-SVP
|  2> %pal
|  3> nprocs 16
|  4> end
|  5>
|  6> * xyz 0 1
|  7> S 	 -6.37763 	 32.6596 	 49.449
|  8> C 	 -5.4929 	 31.4364 	 50.3154
|  9> C 	 -4.98671 	 30.426 	 49.524
| 10> C 	 -5.25466 	 30.6642 	 48.1317
| 11> C 	 -6.08374 	 31.7603 	 47.8632
| 12> H 	 -4.84884 	 30.1143 	 47.3073
| 13> C 	 -4.36589 	 29.0909 	 50.0218
| 14> H 	 -4.11522 	 29.0954 	 51.0817
| 15> H 	 -3.37306 	 28.9404 	 49.5993
| 16> C 	 -5.13103 	 27.8268 	 49.6394
| 17> H 	 -5.56406 	 27.8213 	 48.6124
| 18> H 	 -4.39414 	 27.0009 	 49.6781
| 19> C 	 -6.14719 	 27.3313 	 50.6691
| 20> H 	 -5.81501 	 27.1056 	 51.7038
| 21> H 	 -6.82992 	 28.1851 	 50.8498
| 22> H 	 -6.71357 	 26.4382 	 50.3354
| 23> S 	 -8.25907 	 32.6038 	 46.574
| 24> C 	 -8.25491 	 32.9652 	 44.9195
| 25> C 	 -7.05561 	 32.597 	 44.3424
| 26> C 	 -6.01977 	 32.3068 	 45.3367
| 27> C 	 -6.55944 	 32.2651 	 46.5885
| 28> H 	 -7.00224 	 32.5977 	 43.1973
| 29> C 	 -4.5522 	 32.0759 	 44.9673
| 30> H 	 -4.40224 	 32.1697 	 43.8917
| 31> H 	 -4.33668 	 31.1096 	 45.2936
| 32> C 	 -3.58337 	 33.0113 	 45.7129
| 33> H 	 -3.78395 	 33.0164 	 46.7428
| 34> H 	 -3.7563 	 34.0512 	 45.277
| 35> C 	 -2.09052 	 32.6384 	 45.4981
| 36> H 	 -1.99868 	 31.5672 	 45.7136
| 37> H 	 -1.5217 	 33.2247 	 46.1862
| 38> H 	 -1.78094 	 32.828 	 44.4932
| 39> H 	 -5.37897 	 31.4583 	 51.3367
| 40> H 	 -9.09783 	 33.1898 	 44.3273
| 41> *
| 42>
| 43>                          ****END OF INPUT****

CARTESIAN COORDINATES (ANGSTROEM)
---------------------------------
  S     -6.377630   32.659600   49.449000
  C     -5.492900   31.436400   50.315400
  C     -4.986710   30.426000   49.524000
  C     -5.254660   30.664200   48.131700
  C     -6.083740   31.760300   47.863200
  H     -4.848840   30.114300   47.307300
  C     -4.365890   29.090900   50.021800
  H     -4.115220   29.095400   51.081700
  H     -3.373060   28.940400   49.599300
  C     -5.131030   27.826800   49.639400
  H     -5.564060   27.821300   48.612400
  H     -4.394140   27.000900   49.678100
  C     -6.147190   27.331300   50.669100
  H     -5.815010   27.105600   51.703800
  H     -6.829920   28.185100   50.849800
  H     -6.713570   26.438200   50.335400
  S     -8.259070   32.603800   46.574000
  C     -8.254910   32.965200   44.919500
  C     -7.055610   32.597000   44.342400
  C     -6.019770   32.306800   45.336700
  C     -6.559440   32.265100   46.588500
  H     -7.002240   32.597700   43.197300
  C     -4.552200   32.075900   44.967300
  H     -4.402240   32.169700   43.891700
  H     -4.336680   31.109600   45.293600
  C     -3.583370   33.011300   45.712900
  H     -3.783950   33.016400   46.742800
  H     -3.756300   34.051200   45.277000
  C     -2.090520   32.638400   45.498100
  H     -1.998680   31.567200   45.713600
  H     -1.521700   33.224700   46.186200
  H     -1.780940   32.828000   44.493200
  H     -5.378970   31.458300   51.336700
  H     -9.097830   33.189800   44.327300

 Total Charge           Charge          ....    0
 Multiplicity           Mult            ....    1
 Number of Electrons    NEL             ....  134
 Basis Dimension        Dim             ....  322

ORBITAL ENERGIES
----------------

  NO   OCC          E(Eh)            E(eV)
   0   2.0000     -88.967045     -2420.9164
   1   2.0000     -88.962556     -2420.7942
   2   2.0000     -10.338997      -281.3384
   3   2.0000     -10.322773      -280.8969
   4   2.0000     -10.311879      -280.6005
   5   2.0000     -10.309706      -280.5414
   6   2.0000     -10.307110      -280.4707
   7   2.0000     -10.306849      -280.4636
   8   2.0000     -10.301374      -280.3146
   9   2.0000     -10.300242      -280.2838
  10   2.0000     -10.298043      -280.2240
  11   2.0000     -10.291571      -280.0479
  12   2.0000     -10.289102      -279.9807
  13   2.0000     -10.282667      -279.8056
  14   2.0000     -10.278993      -279.7056
  15   2.0000     -10.273555      -279.5577
  16   2.0000      -8.080557      -219.8831
  17   2.0000      -8.078944      -219.8392
  18   2.0000      -6.039159      -164.3339
  19   2.0000      -6.037375      -164.2853
  20   2.0000      -6.035319      -164.2294
  21   2.0000      -6.033234      -164.1727
  22   2.0000      -6.031203      -164.1174
  23   2.0000      -6.029647      -164.0750
  24   2.0000      -1.009809       -27.4783
  25   2.0000      -0.980636       -26.6845
  26   2.0000      -0.910436       -24.7742
  27   2.0000      -0.907626       -24.6978
  28   2.0000      -0.871648       -23.7187
  29   2.0000      -0.850677       -23.1481
  30   2.0000      -0.843267       -22.9465
  31   2.0000      -0.814042       -22.1512
  32   2.0000      -0.783931       -21.3318
  33   2.0000      -0.775357       -21.0985
  34   2.0000      -0.709808       -19.3149
  35   2.0000      -0.693314       -18.8660
  36   2.0000      -0.689660       -18.7666
  37   2.0000      -0.664014       -18.0688
  38   2.0000      -0.645276       -17.5589
  39   2.0000      -0.623183       -16.9577
  40   2.0000      -0.593218       -16.1423
  41   2.0000      -0.573279       -15.5997
  42   2.0000      -0.566545       -15.4165
  43   2.0000      -0.548277       -14.9194
  44   2.0000      -0.530861       -14.4455
  45   2.0000      -0.523132       -14.2351
  46   2.0000      -0.519767       -14.1436
  47   2.0000      -0.512934       -13.9576
  48   2.0000      -0.505396       -13.7525
  49   2.0000      -0.501197       -13.6383
  50   2.0000      -0.490328       -13.3425
  51   2.0000      -0.486481       -13.2378
  52   2.0000      -0.479993       -13.0613
  53   2.0000      -0.466533       -12.6950
  54   2.0000      -0.453992       -12.3537
  55   2.0000      -0.444894       -12.1062
  56   2.0000      -0.439494       -11.9592
  57   2.0000      -0.437804       -11.9132
  58   2.0000      -0.435307       -11.8453
  59   2.0000      -0.429307       -11.6820
  60   2.0000      -0.424873       -11.5614
  61   2.0000      -0.416030       -11.3208
  62   2.0000      -0.398469       -10.8429
  63   2.0000      -0.351484        -9.5644
  64   2.0000      -0.331781        -9.0282
  65   2.0000      -0.327102        -8.9009
  66   2.0000      -0.291799        -7.9402
  67   0.0000       0.027379         0.7450
  68   0.0000       0.069424         1.8891
  69   0.0000       0.108582         2.9547
  70   0.0000       0.111216         3.0264
  71   0.0000       0.139756         3.8030

MULLIKEN ATOMIC CHARGES
-----------------------
   0 S :    0.096642
   1 C :   -0.082987
   2 C :   -0.065872
   3 C :    0.025977
   4 C :   -0.151532
   5 H :    0.007234
   6 C :    0.080854
   7 H :    0.014779
   8 H :    0.026408
   9 C :   -0.086983
  10 H :    0.048604
  11 H :    0.025260
  12 C :   -0.077235
  13 H :    0.028445
  14 H :    0.029408
  15 H :    0.042885
  16 S :    0.113288
  17 C :   -0.065359
  18 C :   -0.086315
  19 C :   -0.055225
  20 C :   -0.145296
  21 H :    0.045900
  22 C :    0.129053
  23 H :    0.019458
  24 H :   -0.002898
  25 C :   -0.119504
  26 H :    0.038558
  27 H :    0.037309
  28 C :   -0.012155
  29 H :    0.023263
  30 H :    0.033527
  31 H :    0.025875
  32 H :    0.015468
  33 H :    0.043166
Sum of atomic charges:   -0.0000000

LOEWDIN ATOMIC CHARGES
----------------------
   0 S :    0.367607
   1 C :   -0.178872
   2 C :   -0.063379
   3 C :   -0.054665
   4 C :   -0.167172
   5 H :    0.026826
   6 C :   -0.032050
   7 H :    0.030954
   8 H :    0.034206
   9 C :   -0.046973
  10 H :    0.032634
  11 H :    0.026117
  12 C :   -0.077781
  13 H :    0.024213
  14 H :    0.024985
  15 H :    0.029506
  16 S :    0.437537
  17 C :   -0.199968
  18 C :   -0.080334
  19 C :   -0.051310
  20 C :   -0.209994
  21 H :    0.043245
  22 C :   -0.023207
  23 H :    0.030962
  24 H :    0.016210
  25 C :   -0.033832
  26 H :    0.016981
  27 H :    0.030391
  28 C :   -0.055953
  29 H :    0.023747
  30 H :    0.025329
  31 H :    0.019791
  32 H :    0.011067
  33 H :    0.023182

  Mayer bond orders larger than 0.100000
B(  0-S ,  1-C ) :   1.1371 B(  0-S ,  4-C ) :   1.1141 B(  1-C ,  2-C ) :   1.6340
B(  1-C , 32-H ) :   0.9727 B(  2-C ,  3-C ) :   1.2165 B(  2-C ,  6-C ) :   1.0267
B(  3-C ,  4-C ) :   1.6029 B(  3-C ,  5-H ) :   0.9908 B(  4-C , 20-C ) :   1.0423
B(  6-C ,  7-H ) :   0.9436 B(  6-C ,  8-H ) :   0.9372 B(  6-C ,  9-C ) :   1.0617
B(  9-C , 10-H ) :   0.9562 B(  9-C , 11-H ) :   0.9558 B(  9-C , 12-C ) :   1.0759
B( 12-C , 13-H ) :   0.9749 B( 12-C , 14-H ) :   0.9766 B( 12-C , 15-H ) :   0.9743
B( 16-S , 17-C ) :   1.1636 B( 16-S , 20-C ) :   1.1485 B( 17-C , 18-C ) :   1.6228
B( 17-C , 33-H ) :   0.9703 B( 18-C , 19-C ) :   1.2280 B( 18-C , 21-H ) :   0.9778
B( 19-C , 20-C ) :   1.6049 B( 19-C , 22-C ) :   1.0399 B( 22-C , 23-H ) :   0.9354
B( 22-C , 24-H ) :   0.9221 B( 22-C , 25-C ) :   1.0707 B( 25-C , 26-H ) :   0.9591
B( 25-C , 27-H ) :   0.9541 B( 25-C , 28-C ) :   1.0842 B( 28-C , 29-H ) :   0.9744
B( 28-C , 30-H ) :   0.9747 B( 28-C , 31-H ) :   0.9768

Dispersion correction           -0.014433884
FINAL SINGLE POINT ENERGY     -1339.873583029559

DIPOLE MOMENT
-------------
                                X             Y             Z
Electronic contribution:    -18.77962      15.63502       0.24801
Nuclear contribution   :     19.22856     -16.09797      -0.50124
                        -----------------------------------------
Total Dipole Moment    :      0.44895      -0.46294      -0.25323
                        -----------------------------------------
Magnitude (a.u.)       :      0.69282
Magnitude (Debye)      :      1.76100

Rotational constants in cm-1:     0.017402     0.008873     0.007405
Rotational constants in MHz :   521.687336   266.017039   221.981572

                             ****ORCA TERMINATED NORMALLY****
TOTAL RUN TIME: 0 days 0 hours 0 minutes 35 seconds 1 msec
