                         Program Version 4.2.1 -  RELEASE  -
|  1> ! wB97X-D3 SP def2-SVP
|  2> %pal
|  3> nprocs 16
|  4> end
|  5>
|  6> * xyz 0 1
|  7> S 	 -34.5521 	 59.2575 	 109.456
|  8> C 	 -33.2752 	 60.3578 	 109.296
|  9> C 	 -32.0647 	 59.702 	 109.501
| 10> C 	 -32.2594 	 58.3459 	 109.772
| 11> C 	 -33.5723 	 57.9323 	 109.841
| 12> H 	 -31.4947 	 57.6785 	 109.99
| 13> C 	 -30.6917 	 60.2542 	 109.296
| 14> H 	 -30.6357 	 60.6927 	 108.305
| 15> H 	 -29.8915 	 59.4495 	 109.161
| 16> C 	 -30.1844 	 61.0484 	 110.436
| 17> H 	 -30.4926 	 60.5725 	 111.368
| 18> H 	 -29.1004 	 61.0921 	 110.404
| 19> C 	 -30.8164 	 62.4429 	 110.465
| 20> H 	 -30.3856 	 63.0119 	 111.318
| 21> H 	 -30.5642 	 63.0405 	 109.564
| 22> H 	 -31.8845 	 62.307 	 110.467
| 23> S 	 -35.4379 	 56.8727 	 111.576
| 24> C 	 -35.7317 	 55.2063 	 111.625
| 25> C 	 -34.8372 	 54.4821 	 110.816
| 26> C 	 -33.9264 	 55.3037 	 110.059
| 27> C 	 -34.1975 	 56.6679 	 110.312
| 28> H 	 -34.9277 	 53.4545 	 110.828
| 29> C 	 -32.9282 	 54.8306 	 109.032
| 30> H 	 -32.4579 	 53.9448 	 109.375
| 31> H 	 -32.1141 	 55.4767 	 108.963
| 32> C 	 -33.7308 	 54.4715 	 107.797
| 33> H 	 -34.5075 	 55.2055 	 107.548
| 34> H 	 -34.1603 	 53.5584 	 108.014
| 35> C 	 -32.8987 	 54.2428 	 106.506
| 36> H 	 -31.9164 	 53.9966 	 106.646
| 37> H 	 -33.0242 	 55.0982 	 105.793
| 38> H 	 -33.2054 	 53.3623 	 105.95
| 39> H 	 -33.2724 	 61.385 	 108.955
| 40> H 	 -36.607 	 54.7911 	 112.22
| 41> *
| 42>
| 43>                          ****END OF INPUT****

CARTESIAN COORDINATES (ANGSTROEM)
---------------------------------
  S    -34.552100   59.257500  109.456000
  C    -33.275200   60.357800  109.296000
  C    -32.064700   59.702000  109.501000
  C    -32.259400   58.345900  109.772000
  C    -33.572300   57.932300  109.841000
  H    -31.494700   57.678500  109.990000
  C    -30.691700   60.254200  109.296000
  H    -30.635700   60.692700  108.305000
  H    -29.891500   59.449500  109.161000
  C    -30.184400   61.048400  110.436000
  H    -30.492600   60.572500  111.368000
  H    -29.100400   61.092100  110.404000
  C    -30.816400   62.442900  110.465000
  H    -30.385600   63.011900  111.318000
  H    -30.564200   63.040500  109.564000
  H    -31.884500   62.307000  110.467000
  S    -35.437900   56.872700  111.576000
  C    -35.731700   55.206300  111.625000
  C    -34.837200   54.482100  110.816000
  C    -33.926400   55.303700  110.059000
  C    -34.197500   56.667900  110.312000
  H    -34.927700   53.454500  110.828000
  C    -32.928200   54.830600  109.032000
  H    -32.457900   53.944800  109.375000
  H    -32.114100   55.476700  108.963000
  C    -33.730800   54.471500  107.797000
  H    -34.507500   55.205500  107.548000
  H    -34.160300   53.558400  108.014000
  C    -32.898700   54.242800  106.506000
  H    -31.916400   53.996600  106.646000
  H    -33.024200   55.098200  105.793000
  H    -33.205400   53.362300  105.950000
  H    -33.272400   61.385000  108.955000
  H    -36.607000   54.791100  112.220000

 Total Charge           Charge          ....    0
 Multiplicity           Mult            ....    1
 Number of Electrons    NEL             ....  134
 Basis Dimension        Dim             ....  322

ORBITAL ENERGIES
----------------

  NO   OCC          E(Eh)            E(eV)
   0   2.0000     -88.965688     -2420.8794
   1   2.0000     -88.965138     -2420.8645
   2   2.0000     -10.330610      -281.1102
   3   2.0000     -10.324198      -280.9357
   4   2.0000     -10.319830      -280.8169
   5   2.0000     -10.309540      -280.5368
   6   2.0000     -10.309309      -280.5306
   7   2.0000     -10.293850      -280.1099
   8   2.0000     -10.292749      -280.0799
   9   2.0000     -10.288078      -279.9528
  10   2.0000     -10.284571      -279.8574
  11   2.0000     -10.281867      -279.7838
  12   2.0000     -10.279773      -279.7268
  13   2.0000     -10.279636      -279.7231
  14   2.0000     -10.275793      -279.6185
  15   2.0000     -10.269797      -279.4554
  16   2.0000      -8.082164      -219.9269
  17   2.0000      -8.080384      -219.8784
  18   2.0000      -6.040471      -164.3696
  19   2.0000      -6.038684      -164.3209
  20   2.0000      -6.036112      -164.2509
  21   2.0000      -6.034728      -164.2133
  22   2.0000      -6.033327      -164.1752
  23   2.0000      -6.031414      -164.1231
  24   2.0000      -1.015887       -27.6437
  25   2.0000      -0.988257       -26.8918
  26   2.0000      -0.921862       -25.0852
  27   2.0000      -0.916691       -24.9444
  28   2.0000      -0.864814       -23.5328
  29   2.0000      -0.853676       -23.2297
  30   2.0000      -0.847299       -23.0562
  31   2.0000      -0.810930       -22.0665
  32   2.0000      -0.787757       -21.4360
  33   2.0000      -0.776736       -21.1360
  34   2.0000      -0.710489       -19.3334
  35   2.0000      -0.699321       -19.0295
  36   2.0000      -0.689827       -18.7711
  37   2.0000      -0.661728       -18.0065
  38   2.0000      -0.643717       -17.5164
  39   2.0000      -0.625830       -17.0297
  40   2.0000      -0.600674       -16.3452
  41   2.0000      -0.583270       -15.8716
  42   2.0000      -0.570348       -15.5199
  43   2.0000      -0.551084       -14.9958
  44   2.0000      -0.528820       -14.3899
  45   2.0000      -0.528101       -14.3704
  46   2.0000      -0.524674       -14.2771
  47   2.0000      -0.509988       -13.8775
  48   2.0000      -0.506713       -13.7884
  49   2.0000      -0.500513       -13.6197
  50   2.0000      -0.492329       -13.3970
  51   2.0000      -0.485143       -13.2014
  52   2.0000      -0.476792       -12.9742
  53   2.0000      -0.467512       -12.7216
  54   2.0000      -0.460438       -12.5292
  55   2.0000      -0.446821       -12.1586
  56   2.0000      -0.443695       -12.0735
  57   2.0000      -0.437788       -11.9128
  58   2.0000      -0.432157       -11.7596
  59   2.0000      -0.425856       -11.5881
  60   2.0000      -0.419057       -11.4031
  61   2.0000      -0.416971       -11.3464
  62   2.0000      -0.402235       -10.9454
  63   2.0000      -0.346473        -9.4280
  64   2.0000      -0.333651        -9.0791
  65   2.0000      -0.328064        -8.9271
  66   2.0000      -0.289719        -7.8836
  67   0.0000       0.032150         0.8749
  68   0.0000       0.073232         1.9927
  69   0.0000       0.115608         3.1458
  70   0.0000       0.118034         3.2119
  71   0.0000       0.142836         3.8868

MULLIKEN ATOMIC CHARGES
-----------------------
   0 S :    0.130923
   1 C :   -0.106200
   2 C :   -0.108841
   3 C :    0.055590
   4 C :   -0.154465
   5 H :   -0.022562
   6 C :    0.022693
   7 H :    0.029843
   8 H :    0.024359
   9 C :   -0.036457
  10 H :    0.029919
  11 H :    0.026605
  12 C :   -0.065419
  13 H :    0.042443
  14 H :    0.023189
  15 H :    0.028505
  16 S :    0.117797
  17 C :   -0.121890
  18 C :   -0.024890
  19 C :   -0.051948
  20 C :   -0.166686
  21 H :   -0.011944
  22 C :    0.168360
  23 H :    0.003422
  24 H :   -0.001239
  25 C :   -0.067801
  26 H :    0.048217
  27 H :    0.011365
  28 C :   -0.021393
  29 H :    0.001797
  30 H :    0.044919
  31 H :    0.016217
  32 H :    0.050214
  33 H :    0.085356
Sum of atomic charges:   -0.0000000

LOEWDIN ATOMIC CHARGES
----------------------
   0 S :    0.465371
   1 C :   -0.224901
   2 C :   -0.066496
   3 C :   -0.061686
   4 C :   -0.217995
   5 H :    0.017114
   6 C :   -0.040795
   7 H :    0.029600
   8 H :    0.037941
   9 C :   -0.039663
  10 H :    0.029117
  11 H :    0.021341
  12 C :   -0.068420
  13 H :    0.029817
  14 H :    0.022433
  15 H :    0.020516
  16 S :    0.420997
  17 C :   -0.213190
  18 C :   -0.069601
  19 C :   -0.040527
  20 C :   -0.195578
  21 H :    0.016484
  22 C :   -0.020955
  23 H :    0.029222
  24 H :    0.019620
  25 C :   -0.026698
  26 H :    0.032522
  27 H :    0.016072
  28 C :   -0.066872
  29 H :    0.009809
  30 H :    0.034090
  31 H :    0.026459
  32 H :    0.030954
  33 H :    0.043899

  Mayer bond orders larger than 0.100000
B(  0-S ,  1-C ) :   1.1687 B(  0-S ,  4-C ) :   1.1971 B(  1-C ,  2-C ) :   1.5465
B(  1-C ,  4-C ) :   0.1027 B(  1-C , 32-H ) :   0.9610 B(  2-C ,  3-C ) :   1.3190
B(  2-C ,  6-C ) :   1.0161 B(  3-C ,  4-C ) :   1.5147 B(  3-C ,  5-H ) :   1.0086
B(  4-C , 20-C ) :   1.0109 B(  6-C ,  7-H ) :   0.9427 B(  6-C ,  8-H ) :   0.9446
B(  6-C ,  9-C ) :   1.0684 B(  9-C , 10-H ) :   0.9485 B(  9-C , 11-H ) :   0.9552
B(  9-C , 12-C ) :   1.0822 B( 12-C , 13-H ) :   0.9734 B( 12-C , 14-H ) :   0.9757
B( 12-C , 15-H ) :   0.9709 B( 16-S , 17-C ) :   1.1813 B( 16-S , 20-C ) :   1.1599
B( 17-C , 18-C ) :   1.5748 B( 17-C , 20-C ) :   0.1043 B( 17-C , 33-H ) :   0.9587
B( 18-C , 19-C ) :   1.2387 B( 18-C , 21-H ) :   1.0070 B( 19-C , 20-C ) :   1.5690
B( 19-C , 22-C ) :   1.0592 B( 22-C , 23-H ) :   0.9126 B( 22-C , 24-H ) :   0.9307
B( 22-C , 25-C ) :   1.0530 B( 25-C , 26-H ) :   0.9682 B( 25-C , 27-H ) :   0.9574
B( 25-C , 28-C ) :   1.0756 B( 28-C , 29-H ) :   0.9713 B( 28-C , 30-H ) :   0.9811
B( 28-C , 31-H ) :   0.9731

Dispersion correction           -0.013952211
FINAL SINGLE POINT ENERGY     -1339.862565494650

DIPOLE MOMENT
-------------
                                X             Y             Z
Electronic contribution:    -19.16283      -0.36106      10.97527
Nuclear contribution   :     19.62478       0.01321     -11.18939
                        -----------------------------------------
Total Dipole Moment    :      0.46195      -0.34785      -0.21412
                        -----------------------------------------
Magnitude (a.u.)       :      0.61664
Magnitude (Debye)      :      1.56737

Rotational constants in cm-1:     0.020468     0.008031     0.006604
Rotational constants in MHz :   613.624350   240.772097   197.986647

                             ****ORCA TERMINATED NORMALLY****
TOTAL RUN TIME: 0 days 0 hours 0 minutes 30 seconds 89 msec
