                         Program Version 4.2.1 -  RELEASE  -
|  1> ! wB97X-D3 SP def2-SVP
|  2> %pal
|  3> nprocs 16
|  4> end
|  5>
|  6> * xyz 0 1
|  7> S 	 -24.0684 	 50.5725 	 65.6269
|  8> C 	 -22.6015 	 50.6423 	 64.6061
|  9> C 	 -21.5002 	 50.9473 	 65.4131
| 10> C 	 -21.8029 	 50.6752 	 66.8095
| 11> C 	 -23.1315 	 50.3762 	 67.0792
| 12> H 	 -21.1106 	 50.7218 	 67.581
| 13> C 	 -20.1906 	 51.4872 	 64.8293
| 14> H 	 -19.7616 	 52.2796 	 65.4242
| 15> H 	 -20.4433 	 51.97 	 63.8371
| 16> C 	 -19.0868 	 50.4594 	 64.8113
| 17> H 	 -18.1274 	 51.0485 	 64.7865
| 18> H 	 -19.0504 	 49.8665 	 65.719
| 19> C 	 -19.103 	 49.5358 	 63.5965
| 20> H 	 -19.8669 	 48.835 	 63.7348
| 21> H 	 -19.224 	 50.0879 	 62.6644
| 22> H 	 -18.1111 	 49.0614 	 63.4882
| 23> S 	 -25.0628 	 51.3102 	 68.6615
| 24> C 	 -25.3962 	 50.5636 	 70.203
| 25> C 	 -24.359 	 49.7337 	 70.6238
| 26> C 	 -23.322 	 49.6594 	 69.6433
| 27> C 	 -23.6992 	 50.2346 	 68.4243
| 28> H 	 -24.3809 	 49.2179 	 71.5745
| 29> C 	 -22.2292 	 48.6024 	 69.7633
| 30> H 	 -21.7238 	 48.6805 	 68.7902
| 31> H 	 -22.714 	 47.5574 	 69.896
| 32> C 	 -21.3434 	 48.7974 	 70.9337
| 33> H 	 -21.908 	 48.5875 	 71.7965
| 34> H 	 -21.0946 	 49.8456 	 70.8996
| 35> C 	 -20.0244 	 47.9582 	 70.8811
| 36> H 	 -19.6119 	 47.9629 	 69.8278
| 37> H 	 -20.3592 	 46.9726 	 71.1661
| 38> H 	 -19.3491 	 48.4446 	 71.5467
| 39> H 	 -22.6141 	 50.8791 	 63.5975
| 40> H 	 -26.2347 	 50.8044 	 70.7989
| 41> *
| 42>
| 43>                          ****END OF INPUT****

CARTESIAN COORDINATES (ANGSTROEM)
---------------------------------
  S    -24.068400   50.572500   65.626900
  C    -22.601500   50.642300   64.606100
  C    -21.500200   50.947300   65.413100
  C    -21.802900   50.675200   66.809500
  C    -23.131500   50.376200   67.079200
  H    -21.110600   50.721800   67.581000
  C    -20.190600   51.487200   64.829300
  H    -19.761600   52.279600   65.424200
  H    -20.443300   51.970000   63.837100
  C    -19.086800   50.459400   64.811300
  H    -18.127400   51.048500   64.786500
  H    -19.050400   49.866500   65.719000
  C    -19.103000   49.535800   63.596500
  H    -19.866900   48.835000   63.734800
  H    -19.224000   50.087900   62.664400
  H    -18.111100   49.061400   63.488200
  S    -25.062800   51.310200   68.661500
  C    -25.396200   50.563600   70.203000
  C    -24.359000   49.733700   70.623800
  C    -23.322000   49.659400   69.643300
  C    -23.699200   50.234600   68.424300
  H    -24.380900   49.217900   71.574500
  C    -22.229200   48.602400   69.763300
  H    -21.723800   48.680500   68.790200
  H    -22.714000   47.557400   69.896000
  C    -21.343400   48.797400   70.933700
  H    -21.908000   48.587500   71.796500
  H    -21.094600   49.845600   70.899600
  C    -20.024400   47.958200   70.881100
  H    -19.611900   47.962900   69.827800
  H    -20.359200   46.972600   71.166100
  H    -19.349100   48.444600   71.546700
  H    -22.614100   50.879100   63.597500
  H    -26.234700   50.804400   70.798900

 Total Charge           Charge          ....    0
 Multiplicity           Mult            ....    1
 Number of Electrons    NEL             ....  134
 Basis Dimension        Dim             ....  322

ORBITAL ENERGIES
----------------

  NO   OCC          E(Eh)            E(eV)
   0   2.0000     -88.967755     -2420.9357
   1   2.0000     -88.964569     -2420.8490
   2   2.0000     -10.334284      -281.2102
   3   2.0000     -10.331153      -281.1250
   4   2.0000     -10.314653      -280.6760
   5   2.0000     -10.313664      -280.6491
   6   2.0000     -10.309647      -280.5397
   7   2.0000     -10.304181      -280.3910
   8   2.0000     -10.297989      -280.2225
   9   2.0000     -10.296235      -280.1748
  10   2.0000     -10.294429      -280.1257
  11   2.0000     -10.291376      -280.0426
  12   2.0000     -10.287687      -279.9422
  13   2.0000     -10.281523      -279.7745
  14   2.0000     -10.276709      -279.6435
  15   2.0000     -10.272003      -279.5154
  16   2.0000      -8.081896      -219.9196
  17   2.0000      -8.079673      -219.8591
  18   2.0000      -6.040612      -164.3734
  19   2.0000      -6.038092      -164.3048
  20   2.0000      -6.036654      -164.2657
  21   2.0000      -6.034212      -164.1993
  22   2.0000      -6.032274      -164.1465
  23   2.0000      -6.030424      -164.0962
  24   2.0000      -1.007336       -27.4110
  25   2.0000      -0.982340       -26.7308
  26   2.0000      -0.917431       -24.9646
  27   2.0000      -0.914330       -24.8802
  28   2.0000      -0.870047       -23.6752
  29   2.0000      -0.851411       -23.1681
  30   2.0000      -0.842125       -22.9154
  31   2.0000      -0.815190       -22.1825
  32   2.0000      -0.784936       -21.3592
  33   2.0000      -0.774252       -21.0685
  34   2.0000      -0.707808       -19.2604
  35   2.0000      -0.696111       -18.9421
  36   2.0000      -0.692033       -18.8312
  37   2.0000      -0.659278       -17.9399
  38   2.0000      -0.645028       -17.5521
  39   2.0000      -0.621611       -16.9149
  40   2.0000      -0.594805       -16.1855
  41   2.0000      -0.579650       -15.7731
  42   2.0000      -0.575231       -15.6528
  43   2.0000      -0.547876       -14.9085
  44   2.0000      -0.542453       -14.7609
  45   2.0000      -0.526618       -14.3300
  46   2.0000      -0.523643       -14.2490
  47   2.0000      -0.512553       -13.9473
  48   2.0000      -0.505852       -13.7649
  49   2.0000      -0.501291       -13.6408
  50   2.0000      -0.491859       -13.3842
  51   2.0000      -0.479279       -13.0418
  52   2.0000      -0.473605       -12.8875
  53   2.0000      -0.466705       -12.6997
  54   2.0000      -0.463380       -12.6092
  55   2.0000      -0.450471       -12.2579
  56   2.0000      -0.441370       -12.0103
  57   2.0000      -0.440188       -11.9781
  58   2.0000      -0.430900       -11.7254
  59   2.0000      -0.424725       -11.5574
  60   2.0000      -0.422669       -11.5014
  61   2.0000      -0.412150       -11.2152
  62   2.0000      -0.407354       -11.0847
  63   2.0000      -0.349894        -9.5211
  64   2.0000      -0.330780        -9.0010
  65   2.0000      -0.326216        -8.8768
  66   2.0000      -0.289413        -7.8753
  67   0.0000       0.020057         0.5458
  68   0.0000       0.064498         1.7551
  69   0.0000       0.101052         2.7498
  70   0.0000       0.113261         3.0820
  71   0.0000       0.123888         3.3712

MULLIKEN ATOMIC CHARGES
-----------------------
   0 S :    0.101169
   1 C :   -0.076682
   2 C :   -0.117703
   3 C :    0.056844
   4 C :   -0.127695
   5 H :   -0.017588
   6 C :    0.062877
   7 H :    0.029289
   8 H :    0.034644
   9 C :   -0.095852
  10 H :    0.026404
  11 H :    0.032363
  12 C :   -0.023196
  13 H :    0.032093
  14 H :    0.020416
  15 H :    0.034149
  16 S :    0.092334
  17 C :   -0.068442
  18 C :   -0.035240
  19 C :   -0.024241
  20 C :   -0.152293
  21 H :    0.025643
  22 C :    0.020827
  23 H :    0.014177
  24 H :    0.047069
  25 C :   -0.096399
  26 H :    0.019794
  27 H :    0.019816
  28 C :   -0.014016
  29 H :    0.037881
  30 H :    0.032555
  31 H :    0.038140
  32 H :    0.029109
  33 H :    0.041755
Sum of atomic charges:   -0.0000000

LOEWDIN ATOMIC CHARGES
----------------------
   0 S :    0.395065
   1 C :   -0.182156
   2 C :   -0.048392
   3 C :   -0.057720
   4 C :   -0.198773
   5 H :    0.014953
   6 C :   -0.034507
   7 H :    0.033772
   8 H :    0.037020
   9 C :   -0.043368
  10 H :    0.025138
  11 H :    0.025005
  12 C :   -0.060596
  13 H :    0.018458
  14 H :    0.022877
  15 H :    0.030285
  16 S :    0.404097
  17 C :   -0.176623
  18 C :   -0.065078
  19 C :   -0.064241
  20 C :   -0.183127
  21 H :    0.032749
  22 C :   -0.036005
  23 H :    0.024762
  24 H :    0.038324
  25 C :   -0.043596
  26 H :    0.015905
  27 H :    0.019704
  28 C :   -0.054820
  29 H :    0.031803
  30 H :    0.024367
  31 H :    0.023721
  32 H :    0.012184
  33 H :    0.018813

  Mayer bond orders larger than 0.100000
B(  0-S ,  1-C ) :   1.1205 B(  0-S ,  4-C ) :   1.1519 B(  1-C ,  2-C ) :   1.6146
B(  1-C , 32-H ) :   0.9718 B(  2-C ,  3-C ) :   1.2348 B(  2-C ,  6-C ) :   1.0263
B(  3-C ,  4-C ) :   1.5508 B(  3-C ,  5-H ) :   1.0014 B(  4-C , 20-C ) :   1.0477
B(  6-C ,  7-H ) :   0.9409 B(  6-C ,  8-H ) :   0.9454 B(  6-C ,  9-C ) :   1.0627
B(  9-C , 10-H ) :   0.9583 B(  9-C , 11-H ) :   0.9564 B(  9-C , 12-C ) :   1.0803
B( 12-C , 13-H ) :   0.9773 B( 12-C , 14-H ) :   0.9750 B( 12-C , 15-H ) :   0.9745
B( 16-S , 17-C ) :   1.1472 B( 16-S , 20-C ) :   1.1529 B( 17-C , 18-C ) :   1.6165
B( 17-C , 20-C ) :   0.1006 B( 17-C , 33-H ) :   0.9742 B( 18-C , 19-C ) :   1.2156
B( 18-C , 21-H ) :   0.9914 B( 19-C , 20-C ) :   1.5826 B( 19-C , 22-C ) :   1.0575
B( 22-C , 23-H ) :   0.9385 B( 22-C , 24-H ) :   0.9422 B( 22-C , 25-C ) :   1.0523
B( 25-C , 26-H ) :   0.9560 B( 25-C , 27-H ) :   0.9584 B( 25-C , 28-C ) :   1.0762
B( 28-C , 29-H ) :   0.9771 B( 28-C , 30-H ) :   0.9752 B( 28-C , 31-H ) :   0.9771

Dispersion correction           -0.013705696
FINAL SINGLE POINT ENERGY     -1339.855744897998

DIPOLE MOMENT
-------------
                                X             Y             Z
Electronic contribution:    -28.10949      10.14134      -1.06818
Nuclear contribution   :     28.71690     -10.09367       1.29412
                        -----------------------------------------
Total Dipole Moment    :      0.60741       0.04767       0.22594
                        -----------------------------------------
Magnitude (a.u.)       :      0.64982
Magnitude (Debye)      :      1.65171

Rotational constants in cm-1:     0.017331     0.008977     0.006277
Rotational constants in MHz :   519.574160   269.130755   188.190722

                             ****ORCA TERMINATED NORMALLY****
TOTAL RUN TIME: 0 days 0 hours 0 minutes 33 seconds 462 msec
