                         Program Version 4.2.1 -  RELEASE  -
|  1> ! wB97X-D3 SP def2-SVP
|  2> %pal
|  3> nprocs 16
|  4> end
|  5>
|  6> * xyz 0 1
|  7> S 	 23.7713 	 1.27223 	 83.6676
|  8> C 	 24.1651 	 2.83678 	 82.9067
|  9> C 	 23.3725 	 3.82341 	 83.3774
| 10> C 	 22.4349 	 3.3814 	 84.3313
| 11> C 	 22.43 	 2.0223 	 84.4613
| 12> H 	 21.715 	 3.90347 	 84.919
| 13> C 	 23.4541 	 5.30551 	 83.0066
| 14> H 	 22.5294 	 5.50878 	 82.3679
| 15> H 	 24.3703 	 5.3629 	 82.4274
| 16> C 	 23.6522 	 6.22989 	 84.2592
| 17> H 	 22.9643 	 5.97079 	 85.0309
| 18> H 	 24.6638 	 6.0918 	 84.6568
| 19> C 	 23.4437 	 7.67315 	 83.8427
| 20> H 	 22.346 	 7.7692 	 83.6764
| 21> H 	 23.6055 	 8.3362 	 84.6773
| 22> H 	 23.9758 	 8.07444 	 83.0174
| 23> S 	 22.2179 	 0.470947 	 86.706
| 24> C 	 20.564 	 0.199648 	 87.3853
| 25> C 	 19.5898 	 0.609468 	 86.5137
| 26> C 	 20.1285 	 1.30981 	 85.3603
| 27> C 	 21.5258 	 1.30307 	 85.3609
| 28> H 	 18.5181 	 0.650437 	 86.7785
| 29> C 	 19.2073 	 2.0925 	 84.4643
| 30> H 	 19.3628 	 3.1303 	 84.8282
| 31> H 	 18.2923 	 1.7902 	 84.861
| 32> C 	 19.0843 	 1.74222 	 82.9541
| 33> H 	 18.9403 	 0.713366 	 82.7912
| 34> H 	 20.0678 	 1.85097 	 82.5439
| 35> C 	 17.995 	 2.5493 	 82.2784
| 36> H 	 18.1857 	 3.62727 	 82.1326
| 37> H 	 17.2017 	 2.57998 	 83.026
| 38> H 	 17.6312 	 2.17946 	 81.2842
| 39> H 	 24.9987 	 2.98338 	 82.3146
| 40> H 	 20.3987 	 -0.202694 	 88.3146
| 41> *
| 42>
| 43>                          ****END OF INPUT****

CARTESIAN COORDINATES (ANGSTROEM)
---------------------------------
  S     23.771300    1.272230   83.667600
  C     24.165100    2.836780   82.906700
  C     23.372500    3.823410   83.377400
  C     22.434900    3.381400   84.331300
  C     22.430000    2.022300   84.461300
  H     21.715000    3.903470   84.919000
  C     23.454100    5.305510   83.006600
  H     22.529400    5.508780   82.367900
  H     24.370300    5.362900   82.427400
  C     23.652200    6.229890   84.259200
  H     22.964300    5.970790   85.030900
  H     24.663800    6.091800   84.656800
  C     23.443700    7.673150   83.842700
  H     22.346000    7.769200   83.676400
  H     23.605500    8.336200   84.677300
  H     23.975800    8.074440   83.017400
  S     22.217900    0.470947   86.706000
  C     20.564000    0.199648   87.385300
  C     19.589800    0.609468   86.513700
  C     20.128500    1.309810   85.360300
  C     21.525800    1.303070   85.360900
  H     18.518100    0.650437   86.778500
  C     19.207300    2.092500   84.464300
  H     19.362800    3.130300   84.828200
  H     18.292300    1.790200   84.861000
  C     19.084300    1.742220   82.954100
  H     18.940300    0.713366   82.791200
  H     20.067800    1.850970   82.543900
  C     17.995000    2.549300   82.278400
  H     18.185700    3.627270   82.132600
  H     17.201700    2.579980   83.026000
  H     17.631200    2.179460   81.284200
  H     24.998700    2.983380   82.314600
  H     20.398700   -0.202694   88.314600

 Total Charge           Charge          ....    0
 Multiplicity           Mult            ....    1
 Number of Electrons    NEL             ....  134
 Basis Dimension        Dim             ....  322

ORBITAL ENERGIES
----------------

  NO   OCC          E(Eh)            E(eV)
   0   2.0000     -88.965453     -2420.8730
   1   2.0000     -88.963348     -2420.8158
   2   2.0000     -10.323027      -280.9038
   3   2.0000     -10.322430      -280.8876
   4   2.0000     -10.316231      -280.7189
   5   2.0000     -10.305584      -280.4292
   6   2.0000     -10.302531      -280.3461
   7   2.0000     -10.298428      -280.2345
   8   2.0000     -10.297976      -280.2222
   9   2.0000     -10.294902      -280.1385
  10   2.0000     -10.289225      -279.9840
  11   2.0000     -10.288690      -279.9695
  12   2.0000     -10.284753      -279.8624
  13   2.0000     -10.280963      -279.7592
  14   2.0000     -10.280375      -279.7432
  15   2.0000     -10.275256      -279.6039
  16   2.0000      -8.079877      -219.8646
  17   2.0000      -8.078183      -219.8185
  18   2.0000      -6.038426      -164.3139
  19   2.0000      -6.036644      -164.2654
  20   2.0000      -6.034487      -164.2067
  21   2.0000      -6.032839      -164.1619
  22   2.0000      -6.030556      -164.0998
  23   2.0000      -6.028840      -164.0531
  24   2.0000      -1.007823       -27.4243
  25   2.0000      -0.982369       -26.7316
  26   2.0000      -0.911101       -24.7923
  27   2.0000      -0.909009       -24.7354
  28   2.0000      -0.872029       -23.7291
  29   2.0000      -0.852730       -23.2040
  30   2.0000      -0.848188       -23.0804
  31   2.0000      -0.817826       -22.2542
  32   2.0000      -0.779217       -21.2036
  33   2.0000      -0.768850       -20.9215
  34   2.0000      -0.716184       -19.4884
  35   2.0000      -0.703822       -19.1520
  36   2.0000      -0.695350       -18.9214
  37   2.0000      -0.665063       -18.0973
  38   2.0000      -0.646438       -17.5905
  39   2.0000      -0.617700       -16.8085
  40   2.0000      -0.591816       -16.1041
  41   2.0000      -0.568030       -15.4569
  42   2.0000      -0.564046       -15.3485
  43   2.0000      -0.559365       -15.2211
  44   2.0000      -0.530042       -14.4232
  45   2.0000      -0.526342       -14.3225
  46   2.0000      -0.515848       -14.0369
  47   2.0000      -0.510884       -13.9019
  48   2.0000      -0.506274       -13.7764
  49   2.0000      -0.502157       -13.6644
  50   2.0000      -0.492695       -13.4069
  51   2.0000      -0.479224       -13.0403
  52   2.0000      -0.476030       -12.9534
  53   2.0000      -0.466194       -12.6858
  54   2.0000      -0.458573       -12.4784
  55   2.0000      -0.452086       -12.3019
  56   2.0000      -0.442855       -12.0507
  57   2.0000      -0.438325       -11.9274
  58   2.0000      -0.432093       -11.7579
  59   2.0000      -0.426656       -11.6099
  60   2.0000      -0.424529       -11.5520
  61   2.0000      -0.414861       -11.2889
  62   2.0000      -0.406664       -11.0659
  63   2.0000      -0.345576        -9.4036
  64   2.0000      -0.331491        -9.0203
  65   2.0000      -0.326889        -8.8951
  66   2.0000      -0.295774        -8.0484
  67   0.0000       0.036534         0.9941
  68   0.0000       0.067996         1.8503
  69   0.0000       0.104241         2.8365
  70   0.0000       0.122139         3.3236
  71   0.0000       0.132778         3.6131

MULLIKEN ATOMIC CHARGES
-----------------------
   0 S :    0.098164
   1 C :   -0.101751
   2 C :   -0.057888
   3 C :    0.027552
   4 C :   -0.157106
   5 H :    0.001047
   6 C :    0.056694
   7 H :    0.059031
   8 H :    0.014702
   9 C :   -0.075777
  10 H :    0.029127
  11 H :    0.035829
  12 C :   -0.032112
  13 H :    0.024628
  14 H :    0.024235
  15 H :    0.032321
  16 S :    0.103843
  17 C :   -0.070819
  18 C :   -0.020600
  19 C :   -0.100101
  20 C :   -0.157116
  21 H :    0.037303
  22 C :    0.084752
  23 H :    0.044985
  24 H :   -0.016739
  25 C :   -0.007019
  26 H :    0.015684
  27 H :    0.028333
  28 C :   -0.049169
  29 H :    0.028857
  30 H :    0.014681
  31 H :    0.046263
  32 H :    0.012126
  33 H :    0.026041
Sum of atomic charges:    0.0000000

LOEWDIN ATOMIC CHARGES
----------------------
   0 S :    0.389841
   1 C :   -0.178125
   2 C :   -0.062905
   3 C :   -0.063999
   4 C :   -0.192250
   5 H :    0.026945
   6 C :   -0.028374
   7 H :    0.042213
   8 H :    0.027192
   9 C :   -0.033164
  10 H :    0.019520
  11 H :    0.027808
  12 C :   -0.065001
  13 H :    0.029737
  14 H :    0.023767
  15 H :    0.020294
  16 S :    0.391196
  17 C :   -0.152230
  18 C :   -0.068989
  19 C :   -0.057508
  20 C :   -0.208801
  21 H :    0.038070
  22 C :   -0.032721
  23 H :    0.039961
  24 H :    0.018529
  25 C :   -0.032762
  26 H :    0.024723
  27 H :    0.022289
  28 C :   -0.070070
  29 H :    0.026930
  30 H :    0.023141
  31 H :    0.032432
  32 H :    0.011685
  33 H :    0.010626

  Mayer bond orders larger than 0.100000
B(  0-S ,  1-C ) :   1.1093 B(  0-S ,  4-C ) :   1.1509 B(  1-C ,  2-C ) :   1.6522
B(  1-C , 32-H ) :   0.9765 B(  2-C ,  3-C ) :   1.1998 B(  2-C ,  6-C ) :   1.0076
B(  3-C ,  4-C ) :   1.6064 B(  3-C ,  5-H ) :   0.9970 B(  4-C , 20-C ) :   1.0194
B(  6-C ,  7-H ) :   0.9453 B(  6-C ,  8-H ) :   0.9382 B(  6-C ,  9-C ) :   1.0565
B(  9-C , 10-H ) :   0.9602 B(  9-C , 11-H ) :   0.9542 B(  9-C , 12-C ) :   1.0870
B( 12-C , 13-H ) :   0.9750 B( 12-C , 14-H ) :   0.9715 B( 12-C , 15-H ) :   0.9763
B( 16-S , 17-C ) :   1.1360 B( 16-S , 20-C ) :   1.1440 B( 17-C , 18-C ) :   1.6333
B( 17-C , 33-H ) :   0.9785 B( 18-C , 19-C ) :   1.2400 B( 18-C , 21-H ) :   0.9742
B( 19-C , 20-C ) :   1.6130 B( 19-C , 22-C ) :   1.0297 B( 22-C , 23-H ) :   0.9317
B( 22-C , 24-H ) :   0.9140 B( 22-C , 25-C ) :   1.0546 B( 25-C , 26-H ) :   0.9493
B( 25-C , 27-H ) :   0.9570 B( 25-C , 28-C ) :   1.0738 B( 28-C , 29-H ) :   0.9750
B( 28-C , 30-H ) :   0.9719 B( 28-C , 31-H ) :   0.9751

Dispersion correction           -0.014200746
FINAL SINGLE POINT ENERGY     -1339.863476472184

DIPOLE MOMENT
-------------
                                X             Y             Z
Electronic contribution:     12.47403     -23.60767      10.90358
Nuclear contribution   :    -12.86062      24.24448     -10.86434
                        -----------------------------------------
Total Dipole Moment    :     -0.38658       0.63681       0.03924
                        -----------------------------------------
Magnitude (a.u.)       :      0.74600
Magnitude (Debye)      :      1.89618

Rotational constants in cm-1:     0.016205     0.008915     0.007409
Rotational constants in MHz :   485.804347   267.255256   222.111223

                             ****ORCA TERMINATED NORMALLY****
TOTAL RUN TIME: 0 days 0 hours 0 minutes 35 seconds 675 msec
