                         Program Version 4.2.1 -  RELEASE  -
|  1> ! wB97X-D3 SP def2-SVP
|  2> %pal
|  3> nprocs 16
|  4> end
|  5>
|  6> * xyz 0 1
|  7> S 	 12.3325 	 -2.68401 	 62.494
|  8> C 	 12.3133 	 -3.86688 	 61.1028
|  9> C 	 12.2025 	 -3.22611 	 59.8975
| 10> C 	 12.1645 	 -1.79728 	 60.0534
| 11> C 	 12.3749 	 -1.32772 	 61.3596
| 12> H 	 12.0989 	 -1.00569 	 59.2475
| 13> C 	 12.0702 	 -3.93148 	 58.5713
| 14> H 	 11.9884 	 -3.26183 	 57.7699
| 15> H 	 11.0774 	 -4.47016 	 58.6198
| 16> C 	 13.2742 	 -4.91663 	 58.3322
| 17> H 	 14.0825 	 -4.26005 	 57.9133
| 18> H 	 13.6947 	 -5.42557 	 59.2026
| 19> C 	 12.9988 	 -5.929 	 57.1676
| 20> H 	 12.9304 	 -5.35973 	 56.1752
| 21> H 	 13.9205 	 -6.47698 	 57.1367
| 22> H 	 12.1364 	 -6.58239 	 57.2796
| 23> S 	 13.7445 	 0.820786 	 62.5403
| 24> C 	 12.7843 	 2.19872 	 63.0651
| 25> C 	 11.5781 	 2.1932 	 62.4518
| 26> C 	 11.3228 	 1.00204 	 61.6558
| 27> C 	 12.2929 	 0.0518502 	 61.8534
| 28> H 	 10.9412 	 3.0413 	 62.6562
| 29> C 	 10.0319 	 0.838273 	 60.9795
| 30> H 	 10.2368 	 0.650502 	 59.8743
| 31> H 	 9.4332 	 1.75036 	 60.786
| 32> C 	 9.21464 	 -0.362927 	 61.5385
| 33> H 	 9.40775 	 -0.19048 	 62.6787
| 34> H 	 9.71515 	 -1.3486 	 61.4983
| 35> C 	 7.8342 	 -0.625926 	 61.1241
| 36> H 	 7.43456 	 -1.46269 	 61.7342
| 37> H 	 7.6552 	 -0.810707 	 60.0249
| 38> H 	 7.11631 	 0.228803 	 61.3006
| 39> H 	 12.1167 	 -4.95755 	 61.2086
| 40> H 	 13.2336 	 3.09319 	 63.5256
| 41> *
| 42>
| 43>                          ****END OF INPUT****

CARTESIAN COORDINATES (ANGSTROEM)
---------------------------------
  S     12.332500   -2.684010   62.494000
  C     12.313300   -3.866880   61.102800
  C     12.202500   -3.226110   59.897500
  C     12.164500   -1.797280   60.053400
  C     12.374900   -1.327720   61.359600
  H     12.098900   -1.005690   59.247500
  C     12.070200   -3.931480   58.571300
  H     11.988400   -3.261830   57.769900
  H     11.077400   -4.470160   58.619800
  C     13.274200   -4.916630   58.332200
  H     14.082500   -4.260050   57.913300
  H     13.694700   -5.425570   59.202600
  C     12.998800   -5.929000   57.167600
  H     12.930400   -5.359730   56.175200
  H     13.920500   -6.476980   57.136700
  H     12.136400   -6.582390   57.279600
  S     13.744500    0.820786   62.540300
  C     12.784300    2.198720   63.065100
  C     11.578100    2.193200   62.451800
  C     11.322800    1.002040   61.655800
  C     12.292900    0.051850   61.853400
  H     10.941200    3.041300   62.656200
  C     10.031900    0.838273   60.979500
  H     10.236800    0.650502   59.874300
  H      9.433200    1.750360   60.786000
  C      9.214640   -0.362927   61.538500
  H      9.407750   -0.190480   62.678700
  H      9.715150   -1.348600   61.498300
  C      7.834200   -0.625926   61.124100
  H      7.434560   -1.462690   61.734200
  H      7.655200   -0.810707   60.024900
  H      7.116310    0.228803   61.300600
  H     12.116700   -4.957550   61.208600
  H     13.233600    3.093190   63.525600

 Total Charge           Charge          ....    0
 Multiplicity           Mult            ....    1
 Number of Electrons    NEL             ....  134
 Basis Dimension        Dim             ....  322

ORBITAL ENERGIES
----------------

  NO   OCC          E(Eh)            E(eV)
   0   2.0000     -88.967401     -2420.9261
   1   2.0000     -88.959977     -2420.7240
   2   2.0000     -10.333408      -281.1863
   3   2.0000     -10.328256      -281.0461
   4   2.0000     -10.320490      -280.8348
   5   2.0000     -10.315530      -280.6998
   6   2.0000     -10.305821      -280.4356
   7   2.0000     -10.304554      -280.4012
   8   2.0000     -10.303111      -280.3619
   9   2.0000     -10.297062      -280.1973
  10   2.0000     -10.296489      -280.1817
  11   2.0000     -10.296135      -280.1721
  12   2.0000     -10.292383      -280.0700
  13   2.0000     -10.287182      -279.9285
  14   2.0000     -10.284835      -279.8646
  15   2.0000     -10.282887      -279.8116
  16   2.0000      -8.080344      -219.8773
  17   2.0000      -8.074626      -219.7217
  18   2.0000      -6.039022      -164.3301
  19   2.0000      -6.035122      -164.2240
  20   2.0000      -6.033260      -164.1733
  21   2.0000      -6.030998      -164.1118
  22   2.0000      -6.029372      -164.0676
  23   2.0000      -6.025019      -163.9491
  24   2.0000      -1.002278       -27.2734
  25   2.0000      -0.978689       -26.6315
  26   2.0000      -0.909221       -24.7412
  27   2.0000      -0.906571       -24.6690
  28   2.0000      -0.865939       -23.5634
  29   2.0000      -0.851300       -23.1650
  30   2.0000      -0.841359       -22.8945
  31   2.0000      -0.812351       -22.1052
  32   2.0000      -0.782673       -21.2976
  33   2.0000      -0.770768       -20.9737
  34   2.0000      -0.706097       -19.2139
  35   2.0000      -0.699169       -19.0254
  36   2.0000      -0.686526       -18.6813
  37   2.0000      -0.656480       -17.8637
  38   2.0000      -0.634637       -17.2694
  39   2.0000      -0.611115       -16.6293
  40   2.0000      -0.596094       -16.2205
  41   2.0000      -0.575639       -15.6639
  42   2.0000      -0.554742       -15.0953
  43   2.0000      -0.546386       -14.8679
  44   2.0000      -0.530841       -14.4449
  45   2.0000      -0.526401       -14.3241
  46   2.0000      -0.519247       -14.1294
  47   2.0000      -0.512178       -13.9371
  48   2.0000      -0.507448       -13.8084
  49   2.0000      -0.496709       -13.5162
  50   2.0000      -0.489256       -13.3133
  51   2.0000      -0.479178       -13.0391
  52   2.0000      -0.472229       -12.8500
  53   2.0000      -0.464426       -12.6377
  54   2.0000      -0.451883       -12.2964
  55   2.0000      -0.445309       -12.1175
  56   2.0000      -0.441116       -12.0034
  57   2.0000      -0.431690       -11.7469
  58   2.0000      -0.428574       -11.6621
  59   2.0000      -0.427025       -11.6199
  60   2.0000      -0.421403       -11.4670
  61   2.0000      -0.416787       -11.3413
  62   2.0000      -0.383691       -10.4408
  63   2.0000      -0.336548        -9.1579
  64   2.0000      -0.332086        -9.0365
  65   2.0000      -0.323097        -8.7919
  66   2.0000      -0.300510        -8.1773
  67   0.0000       0.027009         0.7350
  68   0.0000       0.058086         1.5806
  69   0.0000       0.105581         2.8730
  70   0.0000       0.107498         2.9252
  71   0.0000       0.131562         3.5800

MULLIKEN ATOMIC CHARGES
-----------------------
   0 S :    0.097534
   1 C :   -0.142694
   2 C :   -0.080920
   3 C :    0.016972
   4 C :   -0.174446
   5 H :    0.035426
   6 C :    0.098122
   7 H :    0.006252
   8 H :    0.045015
   9 C :   -0.130716
  10 H :    0.041596
  11 H :    0.047308
  12 C :   -0.055723
  13 H :    0.038321
  14 H :    0.032430
  15 H :    0.041937
  16 S :    0.093359
  17 C :   -0.091528
  18 C :   -0.042277
  19 C :    0.005392
  20 C :   -0.170767
  21 H :    0.021003
  22 C :    0.063411
  23 H :    0.018493
  24 H :    0.022583
  25 C :   -0.118922
  26 H :    0.036429
  27 H :    0.049839
  28 C :   -0.043986
  29 H :    0.043946
  30 H :    0.037896
  31 H :    0.023616
  32 H :    0.066599
  33 H :    0.068501
Sum of atomic charges:   -0.0000000

LOEWDIN ATOMIC CHARGES
----------------------
   0 S :    0.375168
   1 C :   -0.183707
   2 C :   -0.064254
   3 C :   -0.066060
   4 C :   -0.191162
   5 H :    0.039985
   6 C :   -0.028189
   7 H :    0.020638
   8 H :    0.038928
   9 C :   -0.039687
  10 H :    0.034640
  11 H :    0.023894
  12 C :   -0.069787
  13 H :    0.032477
  14 H :    0.024855
  15 H :    0.021132
  16 S :    0.380069
  17 C :   -0.180360
  18 C :   -0.071806
  19 C :   -0.050645
  20 C :   -0.192454
  21 H :    0.033185
  22 C :   -0.047291
  23 H :    0.033599
  24 H :    0.034797
  25 C :   -0.062406
  26 H :    0.035426
  27 H :    0.032234
  28 C :   -0.077996
  29 H :    0.036581
  30 H :    0.030999
  31 H :    0.023629
  32 H :    0.037414
  33 H :    0.036154

  Mayer bond orders larger than 0.100000
B(  0-S ,  1-C ) :   1.1178 B(  0-S ,  4-C ) :   1.1449 B(  1-C ,  2-C ) :   1.6307
B(  1-C ,  4-C ) :   0.1004 B(  1-C , 32-H ) :   0.9592 B(  2-C ,  3-C ) :   1.2310
B(  2-C ,  6-C ) :   1.0158 B(  3-C ,  4-C ) :   1.5979 B(  3-C ,  5-H ) :   0.9827
B(  4-C , 20-C ) :   1.0285 B(  6-C ,  7-H ) :   0.9428 B(  6-C ,  8-H ) :   0.9429
B(  6-C ,  9-C ) :   1.0414 B(  9-C , 10-H ) :   0.9561 B(  9-C , 11-H ) :   0.9694
B(  9-C , 12-C ) :   1.0706 B( 12-C , 13-H ) :   0.9752 B( 12-C , 14-H ) :   0.9756
B( 12-C , 15-H ) :   0.9795 B( 16-S , 17-C ) :   1.1331 B( 16-S , 20-C ) :   1.1307
B( 17-C , 18-C ) :   1.6533 B( 17-C , 33-H ) :   0.9611 B( 18-C , 19-C ) :   1.1904
B( 18-C , 21-H ) :   0.9936 B( 19-C , 20-C ) :   1.6033 B( 19-C , 22-C ) :   1.0746
B( 22-C , 23-H ) :   0.9117 B( 22-C , 24-H ) :   0.9387 B( 22-C , 25-C ) :   1.0393
B( 25-C , 26-H ) :   0.9520 B( 25-C , 27-H ) :   0.9439 B( 25-C , 28-C ) :   1.0993
B( 28-C , 29-H ) :   0.9675 B( 28-C , 30-H ) :   0.9674 B( 28-C , 31-H ) :   0.9703

Dispersion correction           -0.014828394
FINAL SINGLE POINT ENERGY     -1339.853072547352

DIPOLE MOMENT
-------------
                                X             Y             Z
Electronic contribution:     14.22255      12.09196      18.93450
Nuclear contribution   :    -14.66727     -12.10392     -19.57126
                        -----------------------------------------
Total Dipole Moment    :     -0.44472      -0.01196      -0.63676
                        -----------------------------------------
Magnitude (a.u.)       :      0.77677
Magnitude (Debye)      :      1.97440

Rotational constants in cm-1:     0.020951     0.007783     0.006606
Rotational constants in MHz :   628.103624   233.314337   198.045592

                             ****ORCA TERMINATED NORMALLY****
TOTAL RUN TIME: 0 days 0 hours 0 minutes 34 seconds 945 msec
