                         Program Version 4.2.1 -  RELEASE  -
|  1> ! wB97X-D3 SP def2-SVP
|  2> %pal
|  3> nprocs 16
|  4> end
|  5>
|  6> * xyz 0 1
|  7> S 	 -4.20733 	 -11.3368 	 82.6435
|  8> C 	 -3.42642 	 -10.84 	 84.1216
|  9> C 	 -4.21245 	 -11.0072 	 85.2514
| 10> C 	 -5.31991 	 -11.7958 	 84.906
| 11> C 	 -5.40712 	 -12.2527 	 83.6087
| 12> H 	 -6.00654 	 -12.1687 	 85.6492
| 13> C 	 -3.90045 	 -10.7326 	 86.7154
| 14> H 	 -2.94212 	 -11.2053 	 86.9187
| 15> H 	 -4.4956 	 -11.3159 	 87.4104
| 16> C 	 -3.90045 	 -9.27213 	 87.1302
| 17> H 	 -3.36306 	 -9.19594 	 88.0554
| 18> H 	 -3.30198 	 -8.67038 	 86.4659
| 19> C 	 -5.27252 	 -8.61214 	 87.2269
| 20> H 	 -6.02312 	 -9.00845 	 87.9043
| 21> H 	 -5.06245 	 -7.51923 	 87.5957
| 22> H 	 -5.77575 	 -8.71401 	 86.2199
| 23> S 	 -6.87573 	 -12.8841 	 81.4516
| 24> C 	 -8.04402 	 -14.2364 	 81.4342
| 25> C 	 -7.99679 	 -14.8583 	 82.6523
| 26> C 	 -7.12237 	 -14.232 	 83.6139
| 27> C 	 -6.45597 	 -13.1063 	 83.1215
| 28> H 	 -8.4839 	 -15.7595 	 82.8736
| 29> C 	 -6.9619 	 -14.7557 	 85.0052
| 30> H 	 -5.97836 	 -14.5017 	 85.4664
| 31> H 	 -7.01385 	 -15.8751 	 84.9758
| 32> C 	 -8.2496 	 -14.357 	 85.7469
| 33> H 	 -9.11962 	 -14.6745 	 85.1204
| 34> H 	 -8.35556 	 -13.2628 	 85.7576
| 35> C 	 -8.30432 	 -14.9157 	 87.1622
| 36> H 	 -9.19115 	 -14.6736 	 87.6439
| 37> H 	 -7.55477 	 -14.4399 	 87.7206
| 38> H 	 -8.12297 	 -16.0207 	 87.2346
| 39> H 	 -2.41595 	 -10.5161 	 84.2606
| 40> H 	 -8.51968 	 -14.602 	 80.6341
| 41> *
| 42>
| 43>                          ****END OF INPUT****

CARTESIAN COORDINATES (ANGSTROEM)
---------------------------------
  S     -4.207330  -11.336800   82.643500
  C     -3.426420  -10.840000   84.121600
  C     -4.212450  -11.007200   85.251400
  C     -5.319910  -11.795800   84.906000
  C     -5.407120  -12.252700   83.608700
  H     -6.006540  -12.168700   85.649200
  C     -3.900450  -10.732600   86.715400
  H     -2.942120  -11.205300   86.918700
  H     -4.495600  -11.315900   87.410400
  C     -3.900450   -9.272130   87.130200
  H     -3.363060   -9.195940   88.055400
  H     -3.301980   -8.670380   86.465900
  C     -5.272520   -8.612140   87.226900
  H     -6.023120   -9.008450   87.904300
  H     -5.062450   -7.519230   87.595700
  H     -5.775750   -8.714010   86.219900
  S     -6.875730  -12.884100   81.451600
  C     -8.044020  -14.236400   81.434200
  C     -7.996790  -14.858300   82.652300
  C     -7.122370  -14.232000   83.613900
  C     -6.455970  -13.106300   83.121500
  H     -8.483900  -15.759500   82.873600
  C     -6.961900  -14.755700   85.005200
  H     -5.978360  -14.501700   85.466400
  H     -7.013850  -15.875100   84.975800
  C     -8.249600  -14.357000   85.746900
  H     -9.119620  -14.674500   85.120400
  H     -8.355560  -13.262800   85.757600
  C     -8.304320  -14.915700   87.162200
  H     -9.191150  -14.673600   87.643900
  H     -7.554770  -14.439900   87.720600
  H     -8.122970  -16.020700   87.234600
  H     -2.415950  -10.516100   84.260600
  H     -8.519680  -14.602000   80.634100

 Total Charge           Charge          ....    0
 Multiplicity           Mult            ....    1
 Number of Electrons    NEL             ....  134
 Basis Dimension        Dim             ....  322

ORBITAL ENERGIES
----------------

  NO   OCC          E(Eh)            E(eV)
   0   2.0000     -88.972284     -2421.0589
   1   2.0000     -88.960050     -2420.7260
   2   2.0000     -10.331403      -281.1318
   3   2.0000     -10.326961      -281.0109
   4   2.0000     -10.315310      -280.6939
   5   2.0000     -10.312484      -280.6169
   6   2.0000     -10.302160      -280.3360
   7   2.0000     -10.300486      -280.2905
   8   2.0000     -10.295437      -280.1531
   9   2.0000     -10.294491      -280.1273
  10   2.0000     -10.292829      -280.0821
  11   2.0000     -10.290004      -280.0052
  12   2.0000     -10.289168      -279.9825
  13   2.0000     -10.287721      -279.9431
  14   2.0000     -10.284467      -279.8546
  15   2.0000     -10.271626      -279.5052
  16   2.0000      -8.086066      -220.0330
  17   2.0000      -8.074907      -219.7294
  18   2.0000      -6.044803      -164.4875
  19   2.0000      -6.040880      -164.3807
  20   2.0000      -6.036462      -164.2605
  21   2.0000      -6.033625      -164.1833
  22   2.0000      -6.029340      -164.0667
  23   2.0000      -6.025515      -163.9626
  24   2.0000      -1.008350       -27.4386
  25   2.0000      -0.984974       -26.8025
  26   2.0000      -0.915529       -24.9128
  27   2.0000      -0.912161       -24.8212
  28   2.0000      -0.875500       -23.8236
  29   2.0000      -0.853633       -23.2285
  30   2.0000      -0.845645       -23.0112
  31   2.0000      -0.817158       -22.2360
  32   2.0000      -0.782946       -21.3051
  33   2.0000      -0.772769       -21.0281
  34   2.0000      -0.711980       -19.3740
  35   2.0000      -0.702378       -19.1127
  36   2.0000      -0.698565       -19.0089
  37   2.0000      -0.672700       -18.3051
  38   2.0000      -0.639299       -17.3962
  39   2.0000      -0.620769       -16.8920
  40   2.0000      -0.600558       -16.3420
  41   2.0000      -0.579076       -15.7575
  42   2.0000      -0.563388       -15.3306
  43   2.0000      -0.554223       -15.0812
  44   2.0000      -0.536803       -14.6071
  45   2.0000      -0.529568       -14.4103
  46   2.0000      -0.521483       -14.1903
  47   2.0000      -0.513579       -13.9752
  48   2.0000      -0.509321       -13.8593
  49   2.0000      -0.503720       -13.7069
  50   2.0000      -0.492888       -13.4122
  51   2.0000      -0.480202       -13.0670
  52   2.0000      -0.468237       -12.7414
  53   2.0000      -0.466154       -12.6847
  54   2.0000      -0.461682       -12.5630
  55   2.0000      -0.450449       -12.2573
  56   2.0000      -0.443861       -12.0781
  57   2.0000      -0.438532       -11.9331
  58   2.0000      -0.431115       -11.7312
  59   2.0000      -0.427858       -11.6426
  60   2.0000      -0.418816       -11.3966
  61   2.0000      -0.415935       -11.3182
  62   2.0000      -0.409638       -11.1468
  63   2.0000      -0.361106        -9.8262
  64   2.0000      -0.336753        -9.1635
  65   2.0000      -0.323957        -8.8153
  66   2.0000      -0.280151        -7.6233
  67   0.0000       0.017729         0.4824
  68   0.0000       0.070485         1.9180
  69   0.0000       0.099361         2.7038
  70   0.0000       0.118723         3.2306
  71   0.0000       0.125373         3.4116

MULLIKEN ATOMIC CHARGES
-----------------------
   0 S :    0.123560
   1 C :   -0.104462
   2 C :   -0.056068
   3 C :   -0.026500
   4 C :   -0.096962
   5 H :    0.001939
   6 C :    0.059130
   7 H :    0.027716
   8 H :    0.015223
   9 C :   -0.032111
  10 H :    0.017147
  11 H :    0.021457
  12 C :   -0.099312
  13 H :    0.030130
  14 H :    0.052341
  15 H :    0.051356
  16 S :    0.064607
  17 C :   -0.024747
  18 C :    0.001662
  19 C :   -0.076901
  20 C :   -0.128849
  21 H :    0.001191
  22 C :    0.026546
  23 H :    0.045714
  24 H :    0.023807
  25 C :   -0.115602
  26 H :    0.031290
  27 H :    0.029657
  28 C :    0.030673
  29 H :    0.018370
  30 H :    0.007912
  31 H :    0.033377
  32 H :    0.036428
  33 H :    0.010281
Sum of atomic charges:    0.0000000

LOEWDIN ATOMIC CHARGES
----------------------
   0 S :    0.392677
   1 C :   -0.187866
   2 C :   -0.063702
   3 C :   -0.061441
   4 C :   -0.182036
   5 H :    0.025843
   6 C :   -0.032694
   7 H :    0.036146
   8 H :    0.029325
   9 C :   -0.042841
  10 H :    0.021343
  11 H :    0.023939
  12 C :   -0.077891
  13 H :    0.019197
  14 H :    0.040800
  15 H :    0.034937
  16 S :    0.385434
  17 C :   -0.151568
  18 C :   -0.056325
  19 C :   -0.059625
  20 C :   -0.191847
  21 H :    0.023218
  22 C :   -0.039143
  23 H :    0.032882
  24 H :    0.033057
  25 C :   -0.041614
  26 H :    0.028130
  27 H :    0.023098
  28 C :   -0.060178
  29 H :    0.017731
  30 H :    0.018625
  31 H :    0.030798
  32 H :    0.025905
  33 H :    0.005686

  Mayer bond orders larger than 0.100000
B(  0-S ,  1-C ) :   1.1441 B(  0-S ,  4-C ) :   1.1122 B(  1-C ,  2-C ) :   1.6022
B(  1-C ,  4-C ) :   0.1018 B(  1-C , 32-H ) :   0.9621 B(  2-C ,  3-C ) :   1.2488
B(  2-C ,  6-C ) :   1.0094 B(  3-C ,  4-C ) :   1.5511 B(  3-C ,  5-H ) :   0.9989
B(  4-C , 20-C ) :   1.1055 B(  6-C ,  7-H ) :   0.9356 B(  6-C ,  8-H ) :   0.9465
B(  6-C ,  9-C ) :   1.0755 B(  9-C , 10-H ) :   0.9509 B(  9-C , 11-H ) :   0.9562
B(  9-C , 12-C ) :   1.0709 B( 12-C , 13-H ) :   0.9767 B( 12-C , 14-H ) :   0.9726
B( 12-C , 15-H ) :   0.9739 B( 16-S , 17-C ) :   1.1354 B( 16-S , 20-C ) :   1.1181
B( 17-C , 18-C ) :   1.6041 B( 17-C , 33-H ) :   0.9858 B( 18-C , 19-C ) :   1.2495
B( 18-C , 21-H ) :   0.9897 B( 19-C , 20-C ) :   1.5803 B( 19-C , 22-C ) :   1.0585
B( 22-C , 23-H ) :   0.9395 B( 22-C , 24-H ) :   0.9281 B( 22-C , 25-C ) :   1.0463
B( 25-C , 26-H ) :   0.9551 B( 25-C , 27-H ) :   0.9522 B( 25-C , 28-C ) :   1.0796
B( 28-C , 29-H ) :   0.9700 B( 28-C , 30-H ) :   0.9678 B( 28-C , 31-H ) :   0.9723

Dispersion correction           -0.014208491
FINAL SINGLE POINT ENERGY     -1339.860880999838

DIPOLE MOMENT
-------------
                                X             Y             Z
Electronic contribution:      4.80482      -1.08816     -29.53589
Nuclear contribution   :     -4.78222       0.78133      30.33995
                        -----------------------------------------
Total Dipole Moment    :      0.02260      -0.30683       0.80407
                        -----------------------------------------
Magnitude (a.u.)       :      0.86092
Magnitude (Debye)      :      2.18827

Rotational constants in cm-1:     0.017587     0.009304     0.006642
Rotational constants in MHz :   527.249762   278.931695   199.134881

                             ****ORCA TERMINATED NORMALLY****
TOTAL RUN TIME: 0 days 0 hours 0 minutes 34 seconds 78 msec
