                         Program Version 4.2.1 -  RELEASE  -
|  1> ! wB97X-D3 SP def2-SVP
|  2> %pal
|  3> nprocs 16
|  4> end
|  5>
|  6> * xyz 0 1
|  7> S 	 -47.0073 	 20.8932 	 81.7515
|  8> C 	 -47.4856 	 21.5625 	 83.2951
|  9> C 	 -47.6969 	 20.5193 	 84.1362
| 10> C 	 -47.4017 	 19.1702 	 83.6571
| 11> C 	 -47.19 	 19.2067 	 82.2631
| 12> H 	 -47.5925 	 18.175 	 84.1287
| 13> C 	 -48.1881 	 20.6815 	 85.5391
| 14> H 	 -49.0655 	 19.996 	 85.6009
| 15> H 	 -48.6764 	 21.6435 	 85.6977
| 16> C 	 -47.1305 	 20.4075 	 86.6329
| 17> H 	 -46.7067 	 19.4397 	 86.5108
| 18> H 	 -46.2753 	 21.0583 	 86.6312
| 19> C 	 -47.7316 	 20.4462 	 88.0106
| 20> H 	 -48.5936 	 19.7206 	 88.1153
| 21> H 	 -47.0053 	 20.3362 	 88.8631
| 22> H 	 -48.0798 	 21.4947 	 88.0835
| 23> S 	 -48.6271 	 18.0303 	 80.3112
| 24> C 	 -47.9193 	 16.6312 	 79.4302
| 25> C 	 -46.8251 	 16.137 	 80.1068
| 26> C 	 -46.3859 	 16.9559 	 81.1947
| 27> C 	 -47.1918 	 18.0884 	 81.3296
| 28> H 	 -46.3265 	 15.238 	 79.7241
| 29> C 	 -45.099 	 16.6363 	 82.0176
| 30> H 	 -44.8214 	 15.6045 	 81.999
| 31> H 	 -45.3964 	 16.8117 	 83.0543
| 32> C 	 -43.9642 	 17.536 	 81.5746
| 33> H 	 -44.2317 	 18.4845 	 81.9113
| 34> H 	 -43.8878 	 17.4066 	 80.4627
| 35> C 	 -42.6794 	 17.1269 	 82.2683
| 36> H 	 -41.7192 	 17.5774 	 81.9971
| 37> H 	 -42.5475 	 16.0706 	 82.2433
| 38> H 	 -42.7071 	 17.2418 	 83.3577
| 39> H 	 -47.7907 	 22.6237 	 83.4697
| 40> H 	 -48.4212 	 16.1202 	 78.5873
| 41> *
| 42>
| 43>                          ****END OF INPUT****

CARTESIAN COORDINATES (ANGSTROEM)
---------------------------------
  S    -47.007300   20.893200   81.751500
  C    -47.485600   21.562500   83.295100
  C    -47.696900   20.519300   84.136200
  C    -47.401700   19.170200   83.657100
  C    -47.190000   19.206700   82.263100
  H    -47.592500   18.175000   84.128700
  C    -48.188100   20.681500   85.539100
  H    -49.065500   19.996000   85.600900
  H    -48.676400   21.643500   85.697700
  C    -47.130500   20.407500   86.632900
  H    -46.706700   19.439700   86.510800
  H    -46.275300   21.058300   86.631200
  C    -47.731600   20.446200   88.010600
  H    -48.593600   19.720600   88.115300
  H    -47.005300   20.336200   88.863100
  H    -48.079800   21.494700   88.083500
  S    -48.627100   18.030300   80.311200
  C    -47.919300   16.631200   79.430200
  C    -46.825100   16.137000   80.106800
  C    -46.385900   16.955900   81.194700
  C    -47.191800   18.088400   81.329600
  H    -46.326500   15.238000   79.724100
  C    -45.099000   16.636300   82.017600
  H    -44.821400   15.604500   81.999000
  H    -45.396400   16.811700   83.054300
  C    -43.964200   17.536000   81.574600
  H    -44.231700   18.484500   81.911300
  H    -43.887800   17.406600   80.462700
  C    -42.679400   17.126900   82.268300
  H    -41.719200   17.577400   81.997100
  H    -42.547500   16.070600   82.243300
  H    -42.707100   17.241800   83.357700
  H    -47.790700   22.623700   83.469700
  H    -48.421200   16.120200   78.587300

 Total Charge           Charge          ....    0
 Multiplicity           Mult            ....    1
 Number of Electrons    NEL             ....  134
 Basis Dimension        Dim             ....  322

ORBITAL ENERGIES
----------------

  NO   OCC          E(Eh)            E(eV)
   0   2.0000     -88.966132     -2420.8915
   1   2.0000     -88.961756     -2420.7724
   2   2.0000     -10.335687      -281.2483
   3   2.0000     -10.329386      -281.0769
   4   2.0000     -10.323156      -280.9073
   5   2.0000     -10.315811      -280.7075
   6   2.0000     -10.309899      -280.5466
   7   2.0000     -10.304633      -280.4033
   8   2.0000     -10.301886      -280.3286
   9   2.0000     -10.297736      -280.2156
  10   2.0000     -10.291738      -280.0524
  11   2.0000     -10.291716      -280.0518
  12   2.0000     -10.283747      -279.8350
  13   2.0000     -10.281669      -279.7784
  14   2.0000     -10.280441      -279.7450
  15   2.0000     -10.271522      -279.5023
  16   2.0000      -8.080092      -219.8705
  17   2.0000      -8.076331      -219.7681
  18   2.0000      -6.038665      -164.3204
  19   2.0000      -6.035003      -164.2208
  20   2.0000      -6.034815      -164.2157
  21   2.0000      -6.030713      -164.1040
  22   2.0000      -6.030691      -164.1035
  23   2.0000      -6.027042      -164.0042
  24   2.0000      -1.002699       -27.2848
  25   2.0000      -0.980574       -26.6828
  26   2.0000      -0.913343       -24.8533
  27   2.0000      -0.911864       -24.8131
  28   2.0000      -0.872073       -23.7303
  29   2.0000      -0.846716       -23.0403
  30   2.0000      -0.844865       -22.9900
  31   2.0000      -0.814183       -22.1550
  32   2.0000      -0.778276       -21.1780
  33   2.0000      -0.765025       -20.8174
  34   2.0000      -0.709147       -19.2969
  35   2.0000      -0.699032       -19.0216
  36   2.0000      -0.692767       -18.8511
  37   2.0000      -0.660496       -17.9730
  38   2.0000      -0.641248       -17.4493
  39   2.0000      -0.613829       -16.7031
  40   2.0000      -0.592573       -16.1247
  41   2.0000      -0.574764       -15.6401
  42   2.0000      -0.566311       -15.4101
  43   2.0000      -0.558933       -15.2093
  44   2.0000      -0.525813       -14.3081
  45   2.0000      -0.519829       -14.1453
  46   2.0000      -0.518406       -14.1065
  47   2.0000      -0.516168       -14.0457
  48   2.0000      -0.510629       -13.8949
  49   2.0000      -0.496520       -13.5110
  50   2.0000      -0.490109       -13.3365
  51   2.0000      -0.483588       -13.1591
  52   2.0000      -0.461935       -12.5699
  53   2.0000      -0.457206       -12.4412
  54   2.0000      -0.456545       -12.4232
  55   2.0000      -0.445606       -12.1256
  56   2.0000      -0.443231       -12.0609
  57   2.0000      -0.435464       -11.8496
  58   2.0000      -0.431300       -11.7363
  59   2.0000      -0.427656       -11.6371
  60   2.0000      -0.419926       -11.4268
  61   2.0000      -0.417217       -11.3530
  62   2.0000      -0.408068       -11.1041
  63   2.0000      -0.341208        -9.2847
  64   2.0000      -0.330437        -8.9916
  65   2.0000      -0.322793        -8.7836
  66   2.0000      -0.302801        -8.2396
  67   0.0000       0.027727         0.7545
  68   0.0000       0.062840         1.7100
  69   0.0000       0.104141         2.8338
  70   0.0000       0.116685         3.1752
  71   0.0000       0.131085         3.5670

MULLIKEN ATOMIC CHARGES
-----------------------
   0 S :    0.100151
   1 C :   -0.123530
   2 C :   -0.097239
   3 C :    0.045687
   4 C :   -0.182010
   5 H :    0.044361
   6 C :    0.037428
   7 H :    0.030914
   8 H :    0.007618
   9 C :   -0.029265
  10 H :    0.012902
  11 H :    0.024577
  12 C :   -0.079761
  13 H :    0.041823
  14 H :    0.043716
  15 H :    0.025098
  16 S :    0.108472
  17 C :   -0.102730
  18 C :   -0.046295
  19 C :   -0.014309
  20 C :   -0.189270
  21 H :    0.027474
  22 C :    0.071885
  23 H :    0.009516
  24 H :    0.017582
  25 C :   -0.024906
  26 H :    0.026505
  27 H :    0.044930
  28 C :   -0.027429
  29 H :    0.037022
  30 H :    0.002594
  31 H :    0.012452
  32 H :    0.074917
  33 H :    0.069120
Sum of atomic charges:   -0.0000000

LOEWDIN ATOMIC CHARGES
----------------------
   0 S :    0.391457
   1 C :   -0.209001
   2 C :   -0.067255
   3 C :   -0.067231
   4 C :   -0.190972
   5 H :    0.042830
   6 C :   -0.034538
   7 H :    0.035523
   8 H :    0.024639
   9 C :   -0.039719
  10 H :    0.016624
  11 H :    0.025020
  12 C :   -0.072740
  13 H :    0.028882
  14 H :    0.030104
  15 H :    0.024598
  16 S :    0.389542
  17 C :   -0.173786
  18 C :   -0.074304
  19 C :   -0.046986
  20 C :   -0.201252
  21 H :    0.035862
  22 C :   -0.022553
  23 H :    0.021980
  24 H :    0.029132
  25 C :   -0.030147
  26 H :    0.020102
  27 H :    0.034453
  28 C :   -0.072814
  29 H :    0.027109
  30 H :    0.017067
  31 H :    0.026716
  32 H :    0.046110
  33 H :    0.035547

  Mayer bond orders larger than 0.100000
B(  0-S ,  1-C ) :   1.1086 B(  0-S ,  4-C ) :   1.1544 B(  1-C ,  2-C ) :   1.6456
B(  1-C , 32-H ) :   0.9633 B(  2-C ,  3-C ) :   1.2002 B(  2-C ,  6-C ) :   1.0339
B(  3-C ,  4-C ) :   1.5860 B(  3-C ,  5-H ) :   0.9792 B(  4-C , 20-C ) :   1.0318
B(  6-C ,  7-H ) :   0.9394 B(  6-C ,  8-H ) :   0.9444 B(  6-C ,  9-C ) :   1.0519
B(  9-C , 10-H ) :   0.9531 B(  9-C , 11-H ) :   0.9535 B(  9-C , 12-C ) :   1.0835
B( 12-C , 13-H ) :   0.9748 B( 12-C , 14-H ) :   0.9730 B( 12-C , 15-H ) :   0.9741
B( 16-S , 17-C ) :   1.1350 B( 16-S , 20-C ) :   1.1517 B( 17-C , 18-C ) :   1.6282
B( 17-C , 20-C ) :   0.1046 B( 17-C , 33-H ) :   0.9644 B( 18-C , 19-C ) :   1.2275
B( 18-C , 21-H ) :   0.9854 B( 19-C , 20-C ) :   1.5982 B( 19-C , 22-C ) :   1.0307
B( 22-C , 23-H ) :   0.9417 B( 22-C , 24-H ) :   0.9270 B( 22-C , 25-C ) :   1.0647
B( 25-C , 26-H ) :   0.9516 B( 25-C , 27-H ) :   0.9573 B( 25-C , 28-C ) :   1.0871
B( 28-C , 29-H ) :   0.9746 B( 28-C , 30-H ) :   0.9707 B( 28-C , 31-H ) :   0.9673

Dispersion correction           -0.014006490
FINAL SINGLE POINT ENERGY     -1339.869476313004

DIPOLE MOMENT
-------------
                                X             Y             Z
Electronic contribution:    -13.42023       3.75660     -22.90775
Nuclear contribution   :     13.50548      -4.12136      23.34435
                        -----------------------------------------
Total Dipole Moment    :      0.08524      -0.36476       0.43661
                        -----------------------------------------
Magnitude (a.u.)       :      0.57528
Magnitude (Debye)      :      1.46224

Rotational constants in cm-1:     0.017818     0.008233     0.006831
Rotational constants in MHz :   534.161846   246.828153   204.780913

                             ****ORCA TERMINATED NORMALLY****
TOTAL RUN TIME: 0 days 0 hours 0 minutes 29 seconds 588 msec
