                         Program Version 4.2.1 -  RELEASE  -
|  1> ! wB97X-D3 SP def2-SVP
|  2> %pal
|  3> nprocs 16
|  4> end
|  5>
|  6> * xyz 0 1
|  7> S 	 -12.4994 	 52.5894 	 34.0117
|  8> C 	 -11.641 	 52.8835 	 32.4919
|  9> C 	 -10.5344 	 52.1015 	 32.4498
| 10> C 	 -10.4276 	 51.18 	 33.5382
| 11> C 	 -11.4041 	 51.2865 	 34.4641
| 12> H 	 -9.80223 	 50.2666 	 33.6211
| 13> C 	 -9.49151 	 52.1917 	 31.3774
| 14> H 	 -8.81637 	 52.8658 	 31.8246
| 15> H 	 -9.93538 	 52.7485 	 30.5619
| 16> C 	 -8.71946 	 50.9999 	 30.8611
| 17> H 	 -8.0136 	 50.7654 	 31.671
| 18> H 	 -9.43926 	 50.1625 	 30.6678
| 19> C 	 -7.95953 	 51.3315 	 29.5951
| 20> H 	 -7.23114 	 52.0557 	 29.8488
| 21> H 	 -7.44751 	 50.4296 	 29.3389
| 22> H 	 -8.64363 	 51.4699 	 28.715
| 23> S 	 -12.6369 	 51.2499 	 36.9169
| 24> C 	 -12.5913 	 49.7832 	 37.8845
| 25> C 	 -11.8485 	 48.7654 	 37.2711
| 26> C 	 -11.2088 	 49.175 	 36.0305
| 27> C 	 -11.6528 	 50.4305 	 35.598
| 28> H 	 -11.6517 	 47.7652 	 37.7003
| 29> C 	 -10.5269 	 48.0844 	 35.1897
| 30> H 	 -9.9906 	 47.4878 	 35.8952
| 31> H 	 -9.78459 	 48.4974 	 34.4896
| 32> C 	 -11.4386 	 47.1625 	 34.4278
| 33> H 	 -11.8197 	 47.7539 	 33.5875
| 34> H 	 -12.2858 	 46.8597 	 35.0048
| 35> C 	 -10.7913 	 45.8948 	 33.9498
| 36> H 	 -10.352 	 45.2078 	 34.7226
| 37> H 	 -10.1534 	 46.0711 	 33.1141
| 38> H 	 -11.6201 	 45.3342 	 33.4838
| 39> H 	 -11.79 	 53.6581 	 31.7156
| 40> H 	 -13.1032 	 49.6354 	 38.882
| 41> *
| 42>
| 43>                          ****END OF INPUT****

CARTESIAN COORDINATES (ANGSTROEM)
---------------------------------
  S    -12.499400   52.589400   34.011700
  C    -11.641000   52.883500   32.491900
  C    -10.534400   52.101500   32.449800
  C    -10.427600   51.180000   33.538200
  C    -11.404100   51.286500   34.464100
  H     -9.802230   50.266600   33.621100
  C     -9.491510   52.191700   31.377400
  H     -8.816370   52.865800   31.824600
  H     -9.935380   52.748500   30.561900
  C     -8.719460   50.999900   30.861100
  H     -8.013600   50.765400   31.671000
  H     -9.439260   50.162500   30.667800
  C     -7.959530   51.331500   29.595100
  H     -7.231140   52.055700   29.848800
  H     -7.447510   50.429600   29.338900
  H     -8.643630   51.469900   28.715000
  S    -12.636900   51.249900   36.916900
  C    -12.591300   49.783200   37.884500
  C    -11.848500   48.765400   37.271100
  C    -11.208800   49.175000   36.030500
  C    -11.652800   50.430500   35.598000
  H    -11.651700   47.765200   37.700300
  C    -10.526900   48.084400   35.189700
  H     -9.990600   47.487800   35.895200
  H     -9.784590   48.497400   34.489600
  C    -11.438600   47.162500   34.427800
  H    -11.819700   47.753900   33.587500
  H    -12.285800   46.859700   35.004800
  C    -10.791300   45.894800   33.949800
  H    -10.352000   45.207800   34.722600
  H    -10.153400   46.071100   33.114100
  H    -11.620100   45.334200   33.483800
  H    -11.790000   53.658100   31.715600
  H    -13.103200   49.635400   38.882000

 Total Charge           Charge          ....    0
 Multiplicity           Mult            ....    1
 Number of Electrons    NEL             ....  134
 Basis Dimension        Dim             ....  322

ORBITAL ENERGIES
----------------

  NO   OCC          E(Eh)            E(eV)
   0   2.0000     -88.966630     -2420.9051
   1   2.0000     -88.962914     -2420.8040
   2   2.0000     -10.337344      -281.2934
   3   2.0000     -10.327842      -281.0349
   4   2.0000     -10.327708      -281.0312
   5   2.0000     -10.312103      -280.6066
   6   2.0000     -10.311591      -280.5926
   7   2.0000     -10.302284      -280.3394
   8   2.0000     -10.296972      -280.1949
   9   2.0000     -10.292928      -280.0848
  10   2.0000     -10.289689      -279.9967
  11   2.0000     -10.289179      -279.9828
  12   2.0000     -10.281433      -279.7720
  13   2.0000     -10.280610      -279.7496
  14   2.0000     -10.280217      -279.7389
  15   2.0000     -10.278774      -279.6997
  16   2.0000      -8.080090      -219.8704
  17   2.0000      -8.077199      -219.7918
  18   2.0000      -6.038801      -164.3241
  19   2.0000      -6.036023      -164.2485
  20   2.0000      -6.034839      -164.2163
  21   2.0000      -6.031833      -164.1345
  22   2.0000      -6.030646      -164.1022
  23   2.0000      -6.027562      -164.0183
  24   2.0000      -1.005045       -27.3487
  25   2.0000      -0.977056       -26.5870
  26   2.0000      -0.920130       -25.0380
  27   2.0000      -0.916251       -24.9324
  28   2.0000      -0.874776       -23.8039
  29   2.0000      -0.855553       -23.2808
  30   2.0000      -0.843640       -22.9566
  31   2.0000      -0.814986       -22.1769
  32   2.0000      -0.785487       -21.3742
  33   2.0000      -0.774802       -21.0834
  34   2.0000      -0.711394       -19.3580
  35   2.0000      -0.696517       -18.9532
  36   2.0000      -0.689354       -18.7583
  37   2.0000      -0.662158       -18.0182
  38   2.0000      -0.637933       -17.3591
  39   2.0000      -0.616136       -16.7659
  40   2.0000      -0.595398       -16.2016
  41   2.0000      -0.585300       -15.9268
  42   2.0000      -0.572787       -15.5863
  43   2.0000      -0.558270       -15.1913
  44   2.0000      -0.531333       -14.4583
  45   2.0000      -0.523970       -14.2579
  46   2.0000      -0.519088       -14.1251
  47   2.0000      -0.513620       -13.9763
  48   2.0000      -0.506988       -13.7959
  49   2.0000      -0.498338       -13.5605
  50   2.0000      -0.490292       -13.3415
  51   2.0000      -0.485763       -13.2183
  52   2.0000      -0.472031       -12.8446
  53   2.0000      -0.468901       -12.7595
  54   2.0000      -0.458177       -12.4676
  55   2.0000      -0.452211       -12.3053
  56   2.0000      -0.442876       -12.0513
  57   2.0000      -0.436219       -11.8701
  58   2.0000      -0.430045       -11.7021
  59   2.0000      -0.424669       -11.5558
  60   2.0000      -0.420567       -11.4442
  61   2.0000      -0.417817       -11.3694
  62   2.0000      -0.408168       -11.1068
  63   2.0000      -0.361873        -9.8471
  64   2.0000      -0.333012        -9.0617
  65   2.0000      -0.325720        -8.8633
  66   2.0000      -0.283143        -7.7047
  67   0.0000       0.018235         0.4962
  68   0.0000       0.076858         2.0914
  69   0.0000       0.097095         2.6421
  70   0.0000       0.120564         3.2807
  71   0.0000       0.129910         3.5350

MULLIKEN ATOMIC CHARGES
-----------------------
   0 S :    0.090464
   1 C :   -0.123861
   2 C :   -0.084477
   3 C :   -0.031677
   4 C :   -0.078573
   5 H :    0.010032
   6 C :    0.077880
   7 H :    0.027454
   8 H :    0.000773
   9 C :   -0.113053
  10 H :    0.037018
  11 H :    0.036840
  12 C :   -0.009482
  13 H :    0.031239
  14 H :    0.021006
  15 H :    0.045150
  16 S :    0.078892
  17 C :   -0.096563
  18 C :   -0.048803
  19 C :   -0.046794
  20 C :   -0.121678
  21 H :    0.031331
  22 C :    0.046269
  23 H :    0.004973
  24 H :    0.025495
  25 C :   -0.051686
  26 H :    0.030694
  27 H :    0.019732
  28 C :   -0.047802
  29 H :    0.046563
  30 H :    0.025305
  31 H :    0.029800
  32 H :    0.053849
  33 H :    0.083690
Sum of atomic charges:   -0.0000000

LOEWDIN ATOMIC CHARGES
----------------------
   0 S :    0.380197
   1 C :   -0.200979
   2 C :   -0.060336
   3 C :   -0.081032
   4 C :   -0.183178
   5 H :    0.034428
   6 C :   -0.038572
   7 H :    0.031919
   8 H :    0.024526
   9 C :   -0.044442
  10 H :    0.026599
  11 H :    0.027080
  12 C :   -0.059084
  13 H :    0.023341
  14 H :    0.025118
  15 H :    0.035562
  16 S :    0.364693
  17 C :   -0.189992
  18 C :   -0.074879
  19 C :   -0.052942
  20 C :   -0.158263
  21 H :    0.035540
  22 C :   -0.031054
  23 H :    0.023919
  24 H :    0.026851
  25 C :   -0.040492
  26 H :    0.031004
  27 H :    0.021887
  28 C :   -0.068095
  29 H :    0.031875
  30 H :    0.020182
  31 H :    0.033571
  32 H :    0.039820
  33 H :    0.045228

  Mayer bond orders larger than 0.100000
B(  0-S ,  1-C ) :   1.0981 B(  0-S ,  4-C ) :   1.1233 B(  1-C ,  2-C ) :   1.6619
B(  1-C , 32-H ) :   0.9607 B(  2-C ,  3-C ) :   1.2002 B(  2-C ,  6-C ) :   1.0176
B(  3-C ,  4-C ) :   1.6275 B(  3-C ,  5-H ) :   0.9826 B(  4-C , 20-C ) :   1.0787
B(  6-C ,  7-H ) :   0.9229 B(  6-C ,  8-H ) :   0.9384 B(  6-C ,  9-C ) :   1.0654
B(  9-C , 10-H ) :   0.9428 B(  9-C , 11-H ) :   0.9608 B(  9-C , 12-C ) :   1.1020
B( 12-C , 13-H ) :   0.9720 B( 12-C , 14-H ) :   0.9696 B( 12-C , 15-H ) :   0.9701
B( 16-S , 17-C ) :   1.1438 B( 16-S , 20-C ) :   1.1066 B( 17-C , 18-C ) :   1.6228
B( 17-C , 33-H ) :   0.9584 B( 18-C , 19-C ) :   1.2195 B( 18-C , 21-H ) :   0.9789
B( 19-C , 20-C ) :   1.6052 B( 19-C , 22-C ) :   1.0549 B( 22-C , 23-H ) :   0.9235
B( 22-C , 24-H ) :   0.9387 B( 22-C , 25-C ) :   1.0687 B( 25-C , 26-H ) :   0.9478
B( 25-C , 27-H ) :   0.9539 B( 25-C , 28-C ) :   1.0928 B( 28-C , 29-H ) :   0.9716
B( 28-C , 30-H ) :   0.9727 B( 28-C , 31-H ) :   0.9693

Dispersion correction           -0.013531444
FINAL SINGLE POINT ENERGY     -1339.868471059490

DIPOLE MOMENT
-------------
                                X             Y             Z
Electronic contribution:    -17.34809      18.31861      20.22320
Nuclear contribution   :     17.84098     -18.95336     -20.62427
                        -----------------------------------------
Total Dipole Moment    :      0.49289      -0.63474      -0.40107
                        -----------------------------------------
Magnitude (a.u.)       :      0.89816
Magnitude (Debye)      :      2.28295

Rotational constants in cm-1:     0.016859     0.009070     0.006288
Rotational constants in MHz :   505.418728   271.914286   188.508959

                             ****ORCA TERMINATED NORMALLY****
TOTAL RUN TIME: 0 days 0 hours 0 minutes 31 seconds 969 msec
