                         Program Version 4.2.1 -  RELEASE  -
|  1> ! wB97X-D3 SP def2-SVP
|  2> %pal
|  3> nprocs 16
|  4> end
|  5>
|  6> * xyz 0 1
|  7> S 	 -23.6514 	 -5.09007 	 97.213
|  8> C 	 -24.079 	 -6.60819 	 98.063
|  9> C 	 -24.5324 	 -6.44557 	 99.3065
| 10> C 	 -24.6338 	 -5.02146 	 99.6021
| 11> C 	 -24.2072 	 -4.16514 	 98.6187
| 12> H 	 -24.9638 	 -4.52797 	 100.521
| 13> C 	 -24.7134 	 -7.47908 	 100.306
| 14> H 	 -24.5107 	 -6.98024 	 101.284
| 15> H 	 -23.9199 	 -8.22498 	 100.13
| 16> C 	 -25.9549 	 -8.3051 	 100.509
| 17> H 	 -26.4607 	 -8.49453 	 99.5088
| 18> H 	 -25.5976 	 -9.23628 	 100.985
| 19> C 	 -26.9401 	 -7.55485 	 101.459
| 20> H 	 -26.4851 	 -7.24932 	 102.41
| 21> H 	 -27.3192 	 -6.73423 	 100.984
| 22> H 	 -27.7685 	 -8.15854 	 101.647
| 23> S 	 -22.8727 	 -2.13414 	 99.8707
| 24> C 	 -23.2934 	 -0.459588 	 99.4103
| 25> C 	 -24.3693 	 -0.3943 	 98.5361
| 26> C 	 -24.8488 	 -1.72379 	 98.2388
| 27> C 	 -24.1085 	 -2.74567 	 98.77
| 28> H 	 -24.8374 	 0.576464 	 98.1714
| 29> C 	 -26.0691 	 -1.89831 	 97.4041
| 30> H 	 -26.0482 	 -2.77448 	 96.7612
| 31> H 	 -26.0776 	 -1.0399 	 96.6728
| 32> C 	 -27.4421 	 -1.87406 	 98.1747
| 33> H 	 -27.4525 	 -1.12583 	 98.9519
| 34> H 	 -27.5456 	 -2.75633 	 98.8538
| 35> C 	 -28.6204 	 -1.868 	 97.2348
| 36> H 	 -28.5822 	 -0.882818 	 96.7377
| 37> H 	 -29.5671 	 -2.09299 	 97.7169
| 38> H 	 -28.5678 	 -2.54153 	 96.3749
| 39> H 	 -23.9244 	 -7.6283 	 97.7494
| 40> H 	 -22.8724 	 0.386796 	 99.8865
| 41> *
| 42>
| 43>                          ****END OF INPUT****

CARTESIAN COORDINATES (ANGSTROEM)
---------------------------------
  S    -23.651400   -5.090070   97.213000
  C    -24.079000   -6.608190   98.063000
  C    -24.532400   -6.445570   99.306500
  C    -24.633800   -5.021460   99.602100
  C    -24.207200   -4.165140   98.618700
  H    -24.963800   -4.527970  100.521000
  C    -24.713400   -7.479080  100.306000
  H    -24.510700   -6.980240  101.284000
  H    -23.919900   -8.224980  100.130000
  C    -25.954900   -8.305100  100.509000
  H    -26.460700   -8.494530   99.508800
  H    -25.597600   -9.236280  100.985000
  C    -26.940100   -7.554850  101.459000
  H    -26.485100   -7.249320  102.410000
  H    -27.319200   -6.734230  100.984000
  H    -27.768500   -8.158540  101.647000
  S    -22.872700   -2.134140   99.870700
  C    -23.293400   -0.459588   99.410300
  C    -24.369300   -0.394300   98.536100
  C    -24.848800   -1.723790   98.238800
  C    -24.108500   -2.745670   98.770000
  H    -24.837400    0.576464   98.171400
  C    -26.069100   -1.898310   97.404100
  H    -26.048200   -2.774480   96.761200
  H    -26.077600   -1.039900   96.672800
  C    -27.442100   -1.874060   98.174700
  H    -27.452500   -1.125830   98.951900
  H    -27.545600   -2.756330   98.853800
  C    -28.620400   -1.868000   97.234800
  H    -28.582200   -0.882818   96.737700
  H    -29.567100   -2.092990   97.716900
  H    -28.567800   -2.541530   96.374900
  H    -23.924400   -7.628300   97.749400
  H    -22.872400    0.386796   99.886500

 Total Charge           Charge          ....    0
 Multiplicity           Mult            ....    1
 Number of Electrons    NEL             ....  134
 Basis Dimension        Dim             ....  322

ORBITAL ENERGIES
----------------

  NO   OCC          E(Eh)            E(eV)
   0   2.0000     -88.966523     -2420.9022
   1   2.0000     -88.965535     -2420.8753
   2   2.0000     -10.325218      -280.9635
   3   2.0000     -10.321908      -280.8734
   4   2.0000     -10.320708      -280.8407
   5   2.0000     -10.310285      -280.5571
   6   2.0000     -10.303595      -280.3751
   7   2.0000     -10.301293      -280.3124
   8   2.0000     -10.294192      -280.1192
   9   2.0000     -10.294104      -280.1168
  10   2.0000     -10.293256      -280.0937
  11   2.0000     -10.292262      -280.0667
  12   2.0000     -10.287842      -279.9464
  13   2.0000     -10.286339      -279.9055
  14   2.0000     -10.276879      -279.6481
  15   2.0000     -10.267568      -279.3947
  16   2.0000      -8.080059      -219.8696
  17   2.0000      -8.079626      -219.8578
  18   2.0000      -6.038863      -164.3258
  19   2.0000      -6.038245      -164.3090
  20   2.0000      -6.034854      -164.2167
  21   2.0000      -6.034296      -164.2015
  22   2.0000      -6.030450      -164.0969
  23   2.0000      -6.030236      -164.0911
  24   2.0000      -1.004318       -27.3289
  25   2.0000      -0.981243       -26.7010
  26   2.0000      -0.919017       -25.0077
  27   2.0000      -0.904110       -24.6021
  28   2.0000      -0.874432       -23.7945
  29   2.0000      -0.851163       -23.1613
  30   2.0000      -0.845629       -23.0107
  31   2.0000      -0.814044       -22.1513
  32   2.0000      -0.786572       -21.4037
  33   2.0000      -0.769396       -20.9363
  34   2.0000      -0.708766       -19.2865
  35   2.0000      -0.706082       -19.2135
  36   2.0000      -0.697254       -18.9732
  37   2.0000      -0.665068       -18.0974
  38   2.0000      -0.635267       -17.2865
  39   2.0000      -0.608780       -16.5657
  40   2.0000      -0.596476       -16.2309
  41   2.0000      -0.578394       -15.7389
  42   2.0000      -0.553925       -15.0731
  43   2.0000      -0.553520       -15.0620
  44   2.0000      -0.541468       -14.7341
  45   2.0000      -0.522063       -14.2060
  46   2.0000      -0.516349       -14.0506
  47   2.0000      -0.511929       -13.9303
  48   2.0000      -0.506717       -13.7885
  49   2.0000      -0.494735       -13.4624
  50   2.0000      -0.490552       -13.3486
  51   2.0000      -0.478686       -13.0257
  52   2.0000      -0.470731       -12.8092
  53   2.0000      -0.465644       -12.6708
  54   2.0000      -0.462160       -12.5760
  55   2.0000      -0.448824       -12.2131
  56   2.0000      -0.443344       -12.0640
  57   2.0000      -0.439297       -11.9539
  58   2.0000      -0.433235       -11.7889
  59   2.0000      -0.425389       -11.5754
  60   2.0000      -0.423384       -11.5209
  61   2.0000      -0.416313       -11.3285
  62   2.0000      -0.401087       -10.9141
  63   2.0000      -0.334763        -9.1094
  64   2.0000      -0.330956        -9.0058
  65   2.0000      -0.325696        -8.8626
  66   2.0000      -0.306395        -8.3374
  67   0.0000       0.040601         1.1048
  68   0.0000       0.056727         1.5436
  69   0.0000       0.101949         2.7742
  70   0.0000       0.113268         3.0822
  71   0.0000       0.120852         3.2886

MULLIKEN ATOMIC CHARGES
-----------------------
   0 S :    0.112209
   1 C :   -0.109323
   2 C :   -0.042756
   3 C :    0.013927
   4 C :   -0.154211
   5 H :    0.013106
   6 C :    0.026466
   7 H :    0.024190
   8 H :    0.026412
   9 C :   -0.068888
  10 H :    0.040143
  11 H :    0.036323
  12 C :   -0.007615
  13 H :    0.028682
  14 H :    0.013453
  15 H :    0.017003
  16 S :    0.106734
  17 C :   -0.082577
  18 C :   -0.039995
  19 C :   -0.020402
  20 C :   -0.181963
  21 H :    0.050586
  22 C :    0.039173
  23 H :    0.024867
  24 H :    0.020111
  25 C :   -0.058014
  26 H :    0.016492
  27 H :    0.020586
  28 C :   -0.032061
  29 H :    0.025175
  30 H :    0.039195
  31 H :    0.026451
  32 H :    0.029032
  33 H :    0.047491
Sum of atomic charges:    0.0000000

LOEWDIN ATOMIC CHARGES
----------------------
   0 S :    0.374775
   1 C :   -0.174321
   2 C :   -0.071742
   3 C :   -0.057212
   4 C :   -0.193336
   5 H :    0.030645
   6 C :   -0.045142
   7 H :    0.037879
   8 H :    0.036708
   9 C :   -0.036029
  10 H :    0.032224
  11 H :    0.028307
  12 C :   -0.055476
  13 H :    0.026700
  14 H :    0.014474
  15 H :    0.018397
  16 S :    0.387723
  17 C :   -0.163540
  18 C :   -0.072872
  19 C :   -0.056282
  20 C :   -0.199167
  21 H :    0.047248
  22 C :   -0.032963
  23 H :    0.027860
  24 H :    0.031424
  25 C :   -0.042765
  26 H :    0.019897
  27 H :    0.025481
  28 C :   -0.068572
  29 H :    0.027210
  30 H :    0.027775
  31 H :    0.026729
  32 H :    0.027443
  33 H :    0.020521

  Mayer bond orders larger than 0.100000
B(  0-S ,  1-C ) :   1.1091 B(  0-S ,  4-C ) :   1.1037 B(  1-C ,  2-C ) :   1.6865
B(  1-C , 32-H ) :   0.9576 B(  2-C ,  3-C ) :   1.1689 B(  2-C ,  6-C ) :   1.0325
B(  3-C ,  4-C ) :   1.6430 B(  3-C ,  5-H ) :   0.9888 B(  4-C , 20-C ) :   1.0517
B(  6-C ,  7-H ) :   0.9345 B(  6-C ,  8-H ) :   0.9360 B(  6-C ,  9-C ) :   1.0657
B(  9-C , 10-H ) :   0.9536 B(  9-C , 11-H ) :   0.9547 B(  9-C , 12-C ) :   1.0833
B( 12-C , 13-H ) :   0.9744 B( 12-C , 14-H ) :   0.9758 B( 12-C , 15-H ) :   0.9718
B( 16-S , 17-C ) :   1.1489 B( 16-S , 20-C ) :   1.1155 B( 17-C , 18-C ) :   1.6232
B( 17-C , 33-H ) :   0.9695 B( 18-C , 19-C ) :   1.2225 B( 18-C , 21-H ) :   0.9771
B( 19-C , 20-C ) :   1.6273 B( 19-C , 22-C ) :   1.0594 B( 22-C , 23-H ) :   0.9281
B( 22-C , 24-H ) :   0.9389 B( 22-C , 25-C ) :   1.0498 B( 25-C , 26-H ) :   0.9568
B( 25-C , 27-H ) :   0.9510 B( 25-C , 28-C ) :   1.0775 B( 28-C , 29-H ) :   0.9736
B( 28-C , 30-H ) :   0.9734 B( 28-C , 31-H ) :   0.9726

Dispersion correction           -0.014153366
FINAL SINGLE POINT ENERGY     -1339.868885512709

DIPOLE MOMENT
-------------
                                X             Y             Z
Electronic contribution:     23.62706       7.68586      -4.92532
Nuclear contribution   :    -24.09776      -7.77077       5.20967
                        -----------------------------------------
Total Dipole Moment    :     -0.47070      -0.08491       0.28435
                        -----------------------------------------
Magnitude (a.u.)       :      0.55644
Magnitude (Debye)      :      1.41435

Rotational constants in cm-1:     0.017124     0.008465     0.007237
Rotational constants in MHz :   513.371562   253.759806   216.951381

                             ****ORCA TERMINATED NORMALLY****
TOTAL RUN TIME: 0 days 0 hours 0 minutes 29 seconds 646 msec
