                         Program Version 4.2.1 -  RELEASE  -
|  1> ! wB97X-D3 SP def2-SVP
|  2> %pal
|  3> nprocs 16
|  4> end
|  5>
|  6> * xyz 0 1
|  7> S 	 49.4998 	 28.8955 	 41.5896
|  8> C 	 50.913 	 29.3015 	 42.4479
|  9> C 	 51.1382 	 28.4618 	 43.5537
| 10> C 	 50.1209 	 27.4749 	 43.632
| 11> C 	 49.1578 	 27.5711 	 42.6421
| 12> H 	 50.1505 	 26.7144 	 44.3812
| 13> C 	 52.3783 	 28.363 	 44.3138
| 14> H 	 53.2061 	 28.7415 	 43.7843
| 15> H 	 52.6051 	 27.3567 	 44.3082
| 16> C 	 52.4515 	 28.8809 	 45.8282
| 17> H 	 51.9434 	 29.8353 	 45.9486
| 18> H 	 51.7242 	 28.1912 	 46.3872
| 19> C 	 53.8105 	 28.891 	 46.5194
| 20> H 	 53.9838 	 27.8903 	 46.8391
| 21> H 	 54.6856 	 29.0417 	 45.8445
| 22> H 	 53.7604 	 29.6053 	 47.3566
| 23> S 	 46.454 	 27.0734 	 42.4888
| 24> C 	 45.8973 	 25.3617 	 42.0897
| 25> C 	 46.9773 	 24.523 	 41.9479
| 26> C 	 48.2213 	 25.2272 	 42.1248
| 27> C 	 48.1301 	 26.5931 	 42.365
| 28> H 	 46.8026 	 23.469 	 41.7269
| 29> C 	 49.59 	 24.4854 	 41.9768
| 30> H 	 50.3584 	 25.1873 	 41.5421
| 31> H 	 49.474 	 23.6974 	 41.3092
| 32> C 	 50.0167 	 23.7939 	 43.2681
| 33> H 	 49.2303 	 23.1477 	 43.5262
| 34> H 	 50.2324 	 24.5607 	 44.0111
| 35> C 	 51.2528 	 22.9281 	 43.1261
| 36> H 	 51.2097 	 22.0607 	 42.3972
| 37> H 	 51.4797 	 22.4468 	 44.1001
| 38> H 	 52.0983 	 23.5235 	 42.8306
| 39> H 	 51.618 	 30.0812 	 42.121
| 40> H 	 44.92 	 25.0442 	 42.1286
| 41> *
| 42>
| 43>                          ****END OF INPUT****

CARTESIAN COORDINATES (ANGSTROEM)
---------------------------------
  S     49.499800   28.895500   41.589600
  C     50.913000   29.301500   42.447900
  C     51.138200   28.461800   43.553700
  C     50.120900   27.474900   43.632000
  C     49.157800   27.571100   42.642100
  H     50.150500   26.714400   44.381200
  C     52.378300   28.363000   44.313800
  H     53.206100   28.741500   43.784300
  H     52.605100   27.356700   44.308200
  C     52.451500   28.880900   45.828200
  H     51.943400   29.835300   45.948600
  H     51.724200   28.191200   46.387200
  C     53.810500   28.891000   46.519400
  H     53.983800   27.890300   46.839100
  H     54.685600   29.041700   45.844500
  H     53.760400   29.605300   47.356600
  S     46.454000   27.073400   42.488800
  C     45.897300   25.361700   42.089700
  C     46.977300   24.523000   41.947900
  C     48.221300   25.227200   42.124800
  C     48.130100   26.593100   42.365000
  H     46.802600   23.469000   41.726900
  C     49.590000   24.485400   41.976800
  H     50.358400   25.187300   41.542100
  H     49.474000   23.697400   41.309200
  C     50.016700   23.793900   43.268100
  H     49.230300   23.147700   43.526200
  H     50.232400   24.560700   44.011100
  C     51.252800   22.928100   43.126100
  H     51.209700   22.060700   42.397200
  H     51.479700   22.446800   44.100100
  H     52.098300   23.523500   42.830600
  H     51.618000   30.081200   42.121000
  H     44.920000   25.044200   42.128600

 Total Charge           Charge          ....    0
 Multiplicity           Mult            ....    1
 Number of Electrons    NEL             ....  134
 Basis Dimension        Dim             ....  322

ORBITAL ENERGIES
----------------

  NO   OCC          E(Eh)            E(eV)
   0   2.0000     -88.969877     -2420.9934
   1   2.0000     -88.962545     -2420.7939
   2   2.0000     -10.326115      -280.9879
   3   2.0000     -10.325743      -280.9778
   4   2.0000     -10.319105      -280.7971
   5   2.0000     -10.315120      -280.6887
   6   2.0000     -10.305887      -280.4374
   7   2.0000     -10.299545      -280.2649
   8   2.0000     -10.298392      -280.2335
   9   2.0000     -10.294388      -280.1245
  10   2.0000     -10.292884      -280.0836
  11   2.0000     -10.286797      -279.9180
  12   2.0000     -10.282710      -279.8068
  13   2.0000     -10.282682      -279.8060
  14   2.0000     -10.280446      -279.7452
  15   2.0000     -10.279964      -279.7320
  16   2.0000      -8.085655      -220.0219
  17   2.0000      -8.076194      -219.7644
  18   2.0000      -6.043943      -164.4640
  19   2.0000      -6.039886      -164.3536
  20   2.0000      -6.036718      -164.2674
  21   2.0000      -6.034873      -164.2172
  22   2.0000      -6.030888      -164.1088
  23   2.0000      -6.026797      -163.9975
  24   2.0000      -1.010047       -27.4848
  25   2.0000      -0.980234       -26.6735
  26   2.0000      -0.912038       -24.8178
  27   2.0000      -0.908029       -24.7087
  28   2.0000      -0.872217       -23.7342
  29   2.0000      -0.857900       -23.3447
  30   2.0000      -0.842255       -22.9189
  31   2.0000      -0.818825       -22.2814
  32   2.0000      -0.783834       -21.3292
  33   2.0000      -0.768025       -20.8990
  34   2.0000      -0.707150       -19.2425
  35   2.0000      -0.699860       -19.0442
  36   2.0000      -0.692438       -18.8422
  37   2.0000      -0.666045       -18.1240
  38   2.0000      -0.645865       -17.5749
  39   2.0000      -0.626820       -17.0566
  40   2.0000      -0.590773       -16.0758
  41   2.0000      -0.575501       -15.6602
  42   2.0000      -0.572341       -15.5742
  43   2.0000      -0.551998       -15.0206
  44   2.0000      -0.534303       -14.5391
  45   2.0000      -0.524181       -14.2637
  46   2.0000      -0.517210       -14.0740
  47   2.0000      -0.510039       -13.8789
  48   2.0000      -0.508574       -13.8390
  49   2.0000      -0.503978       -13.7139
  50   2.0000      -0.496559       -13.5121
  51   2.0000      -0.475391       -12.9361
  52   2.0000      -0.469789       -12.7836
  53   2.0000      -0.466347       -12.6899
  54   2.0000      -0.460741       -12.5374
  55   2.0000      -0.447679       -12.1820
  56   2.0000      -0.446249       -12.1430
  57   2.0000      -0.438672       -11.9369
  58   2.0000      -0.435285       -11.8447
  59   2.0000      -0.430335       -11.7100
  60   2.0000      -0.421956       -11.4820
  61   2.0000      -0.412290       -11.2190
  62   2.0000      -0.405600       -11.0370
  63   2.0000      -0.345748        -9.4083
  64   2.0000      -0.332391        -9.0448
  65   2.0000      -0.324634        -8.8337
  66   2.0000      -0.296719        -8.0741
  67   0.0000       0.036678         0.9981
  68   0.0000       0.060719         1.6522
  69   0.0000       0.107485         2.9248
  70   0.0000       0.114702         3.1212
  71   0.0000       0.131002         3.5648

MULLIKEN ATOMIC CHARGES
-----------------------
   0 S :    0.142243
   1 C :   -0.131442
   2 C :   -0.078668
   3 C :    0.042443
   4 C :   -0.155163
   5 H :    0.002005
   6 C :    0.097155
   7 H :   -0.002823
   8 H :    0.001646
   9 C :   -0.113854
  10 H :    0.030784
  11 H :    0.029259
  12 C :   -0.026130
  13 H :    0.022394
  14 H :    0.034016
  15 H :    0.050147
  16 S :    0.082725
  17 C :   -0.066156
  18 C :   -0.027829
  19 C :   -0.037657
  20 C :   -0.152428
  21 H :    0.032018
  22 C :    0.075238
  23 H :    0.043683
  24 H :   -0.008481
  25 C :   -0.041210
  26 H :    0.015773
  27 H :    0.020288
  28 C :   -0.062459
  29 H :    0.033627
  30 H :    0.036113
  31 H :    0.025078
  32 H :    0.058297
  33 H :    0.029368
Sum of atomic charges:    0.0000000

LOEWDIN ATOMIC CHARGES
----------------------
   0 S :    0.449179
   1 C :   -0.211101
   2 C :   -0.065698
   3 C :   -0.047146
   4 C :   -0.213452
   5 H :    0.024709
   6 C :   -0.032180
   7 H :    0.023449
   8 H :    0.024216
   9 C :   -0.043812
  10 H :    0.020332
  11 H :    0.027795
  12 C :   -0.068450
  13 H :    0.022689
  14 H :    0.029866
  15 H :    0.035359
  16 S :    0.366071
  17 C :   -0.141031
  18 C :   -0.066843
  19 C :   -0.051684
  20 C :   -0.202558
  21 H :    0.038580
  22 C :   -0.026724
  23 H :    0.035730
  24 H :    0.016028
  25 C :   -0.035579
  26 H :    0.018990
  27 H :    0.021333
  28 C :   -0.070373
  29 H :    0.027744
  30 H :    0.029362
  31 H :    0.020044
  32 H :    0.032939
  33 H :    0.012212

  Mayer bond orders larger than 0.100000
B(  0-S ,  1-C ) :   1.1731 B(  0-S ,  4-C ) :   1.1753 B(  1-C ,  2-C ) :   1.5573
B(  1-C , 32-H ) :   0.9648 B(  2-C ,  3-C ) :   1.2823 B(  2-C ,  6-C ) :   1.0385
B(  3-C ,  4-C ) :   1.5330 B(  3-C ,  5-H ) :   1.0020 B(  4-C , 20-C ) :   1.0200
B(  6-C ,  7-H ) :   0.9355 B(  6-C ,  8-H ) :   0.9341 B(  6-C ,  9-C ) :   1.0352
B(  9-C , 10-H ) :   0.9675 B(  9-C , 11-H ) :   0.9581 B(  9-C , 12-C ) :   1.0681
B( 12-C , 13-H ) :   0.9749 B( 12-C , 14-H ) :   0.9759 B( 12-C , 15-H ) :   0.9749
B( 16-S , 17-C ) :   1.1314 B( 16-S , 20-C ) :   1.1281 B( 17-C , 18-C ) :   1.6378
B( 17-C , 33-H ) :   0.9767 B( 18-C , 19-C ) :   1.2156 B( 18-C , 21-H ) :   0.9867
B( 19-C , 20-C ) :   1.6288 B( 19-C , 22-C ) :   1.0416 B( 22-C , 23-H ) :   0.9375
B( 22-C , 24-H ) :   0.9308 B( 22-C , 25-C ) :   1.0710 B( 25-C , 26-H ) :   0.9518
B( 25-C , 27-H ) :   0.9489 B( 25-C , 28-C ) :   1.0940 B( 28-C , 29-H ) :   0.9727
B( 28-C , 30-H ) :   0.9729 B( 28-C , 31-H ) :   0.9732

Dispersion correction           -0.014301602
FINAL SINGLE POINT ENERGY     -1339.869156797395

DIPOLE MOMENT
-------------
                                X             Y             Z
Electronic contribution:    -25.17329      12.23269     -15.28011
Nuclear contribution   :     25.74828     -12.74935      15.49921
                        -----------------------------------------
Total Dipole Moment    :      0.57500      -0.51666       0.21910
                        -----------------------------------------
Magnitude (a.u.)       :      0.80347
Magnitude (Debye)      :      2.04226

Rotational constants in cm-1:     0.017824     0.008554     0.006608
Rotational constants in MHz :   534.349264   256.445593   198.111441

                             ****ORCA TERMINATED NORMALLY****
TOTAL RUN TIME: 0 days 0 hours 0 minutes 34 seconds 58 msec
