                         Program Version 4.2.1 -  RELEASE  -
|  1> ! wB97X-D3 SP def2-SVP
|  2> %pal
|  3> nprocs 16
|  4> end
|  5>
|  6> * xyz 0 1
|  7> S 	 -9.51348 	 9.65633 	 84.779
|  8> C 	 -9.59992 	 8.09885 	 85.5822
|  9> C 	 -10.4062 	 7.19573 	 84.9054
| 10> C 	 -11.119 	 7.93222 	 83.9164
| 11> C 	 -10.698 	 9.1971 	 83.5523
| 12> H 	 -11.9865 	 7.47529 	 83.3903
| 13> C 	 -10.7027 	 5.81738 	 85.4371
| 14> H 	 -9.97983 	 5.62314 	 86.2121
| 15> H 	 -10.6729 	 5.0011 	 84.7576
| 16> C 	 -12.1193 	 5.69843 	 86.036
| 17> H 	 -12.1301 	 6.50658 	 86.8454
| 18> H 	 -12.8667 	 5.99779 	 85.269
| 19> C 	 -12.6068 	 4.40656 	 86.6689
| 20> H 	 -13.0172 	 3.73781 	 85.8929
| 21> H 	 -11.7202 	 3.87124 	 87.0255
| 22> H 	 -13.4115 	 4.47867 	 87.4672
| 23> S 	 -11.6729 	 11.6476 	 83.0644
| 24> C 	 -12.2274 	 12.0683 	 81.4951
| 25> C 	 -12.2134 	 11.0185 	 80.6372
| 26> C 	 -11.6735 	 9.84307 	 81.1994
| 27> C 	 -11.2744 	 10.0764 	 82.5
| 28> H 	 -12.6916 	 11.1595 	 79.7403
| 29> C 	 -11.6959 	 8.47279 	 80.4898
| 30> H 	 -12.6754 	 8.02813 	 80.5935
| 31> H 	 -11.1498 	 7.71029 	 81.0477
| 32> C 	 -11.0492 	 8.48557 	 79.0575
| 33> H 	 -11.4455 	 9.25883 	 78.4871
| 34> H 	 -11.2296 	 7.54417 	 78.5408
| 35> C 	 -9.47835 	 8.7531 	 79.0216
| 36> H 	 -9.24792 	 8.86804 	 77.8849
| 37> H 	 -9.00313 	 8.04069 	 79.5454
| 38> H 	 -9.22652 	 9.6942 	 79.6211
| 39> H 	 -8.88496 	 7.84914 	 86.3164
| 40> H 	 -12.5685 	 13.0855 	 81.2874
| 41> *
| 42>
| 43>                          ****END OF INPUT****

CARTESIAN COORDINATES (ANGSTROEM)
---------------------------------
  S     -9.513480    9.656330   84.779000
  C     -9.599920    8.098850   85.582200
  C    -10.406200    7.195730   84.905400
  C    -11.119000    7.932220   83.916400
  C    -10.698000    9.197100   83.552300
  H    -11.986500    7.475290   83.390300
  C    -10.702700    5.817380   85.437100
  H     -9.979830    5.623140   86.212100
  H    -10.672900    5.001100   84.757600
  C    -12.119300    5.698430   86.036000
  H    -12.130100    6.506580   86.845400
  H    -12.866700    5.997790   85.269000
  C    -12.606800    4.406560   86.668900
  H    -13.017200    3.737810   85.892900
  H    -11.720200    3.871240   87.025500
  H    -13.411500    4.478670   87.467200
  S    -11.672900   11.647600   83.064400
  C    -12.227400   12.068300   81.495100
  C    -12.213400   11.018500   80.637200
  C    -11.673500    9.843070   81.199400
  C    -11.274400   10.076400   82.500000
  H    -12.691600   11.159500   79.740300
  C    -11.695900    8.472790   80.489800
  H    -12.675400    8.028130   80.593500
  H    -11.149800    7.710290   81.047700
  C    -11.049200    8.485570   79.057500
  H    -11.445500    9.258830   78.487100
  H    -11.229600    7.544170   78.540800
  C     -9.478350    8.753100   79.021600
  H     -9.247920    8.868040   77.884900
  H     -9.003130    8.040690   79.545400
  H     -9.226520    9.694200   79.621100
  H     -8.884960    7.849140   86.316400
  H    -12.568500   13.085500   81.287400

 Total Charge           Charge          ....    0
 Multiplicity           Mult            ....    1
 Number of Electrons    NEL             ....  134
 Basis Dimension        Dim             ....  322

ORBITAL ENERGIES
----------------

  NO   OCC          E(Eh)            E(eV)
   0   2.0000     -88.965669     -2420.8789
   1   2.0000     -88.964063     -2420.8352
   2   2.0000     -10.332496      -281.1615
   3   2.0000     -10.326890      -281.0090
   4   2.0000     -10.314731      -280.6781
   5   2.0000     -10.312620      -280.6207
   6   2.0000     -10.305794      -280.4349
   7   2.0000     -10.304390      -280.3967
   8   2.0000     -10.295255      -280.1481
   9   2.0000     -10.295169      -280.1458
  10   2.0000     -10.294228      -280.1202
  11   2.0000     -10.291883      -280.0564
  12   2.0000     -10.286167      -279.9008
  13   2.0000     -10.285429      -279.8807
  14   2.0000     -10.285271      -279.8765
  15   2.0000     -10.280368      -279.7430
  16   2.0000      -8.080420      -219.8794
  17   2.0000      -8.080105      -219.8708
  18   2.0000      -6.038629      -164.3195
  19   2.0000      -6.038596      -164.3186
  20   2.0000      -6.034767      -164.2144
  21   2.0000      -6.034641      -164.2109
  22   2.0000      -6.031352      -164.1214
  23   2.0000      -6.030871      -164.1084
  24   2.0000      -1.013620       -27.5820
  25   2.0000      -0.990266       -26.9465
  26   2.0000      -0.913785       -24.8654
  27   2.0000      -0.900888       -24.5144
  28   2.0000      -0.871442       -23.7131
  29   2.0000      -0.848753       -23.0957
  30   2.0000      -0.844877       -22.9903
  31   2.0000      -0.816996       -22.2316
  32   2.0000      -0.785464       -21.3736
  33   2.0000      -0.775457       -21.1013
  34   2.0000      -0.706935       -19.2367
  35   2.0000      -0.698874       -19.0173
  36   2.0000      -0.688189       -18.7266
  37   2.0000      -0.663095       -18.0437
  38   2.0000      -0.643528       -17.5113
  39   2.0000      -0.624514       -16.9939
  40   2.0000      -0.605651       -16.4806
  41   2.0000      -0.577145       -15.7049
  42   2.0000      -0.561710       -15.2849
  43   2.0000      -0.546138       -14.8612
  44   2.0000      -0.538907       -14.6644
  45   2.0000      -0.526093       -14.3157
  46   2.0000      -0.515689       -14.0326
  47   2.0000      -0.510648       -13.8954
  48   2.0000      -0.502188       -13.6652
  49   2.0000      -0.498131       -13.5548
  50   2.0000      -0.490503       -13.3473
  51   2.0000      -0.485734       -13.2175
  52   2.0000      -0.471109       -12.8195
  53   2.0000      -0.464909       -12.6508
  54   2.0000      -0.460346       -12.5267
  55   2.0000      -0.452273       -12.3070
  56   2.0000      -0.446997       -12.1634
  57   2.0000      -0.435377       -11.8472
  58   2.0000      -0.427651       -11.6370
  59   2.0000      -0.422576       -11.4989
  60   2.0000      -0.419070       -11.4035
  61   2.0000      -0.412567       -11.2265
  62   2.0000      -0.408263       -11.1094
  63   2.0000      -0.350802        -9.5458
  64   2.0000      -0.334484        -9.1018
  65   2.0000      -0.329358        -8.9623
  66   2.0000      -0.294443        -8.0122
  67   0.0000       0.030202         0.8218
  68   0.0000       0.075194         2.0461
  69   0.0000       0.112248         3.0544
  70   0.0000       0.121456         3.3050
  71   0.0000       0.135396         3.6843

MULLIKEN ATOMIC CHARGES
-----------------------
   0 S :    0.098510
   1 C :   -0.112302
   2 C :   -0.076024
   3 C :   -0.006965
   4 C :   -0.124494
   5 H :    0.019248
   6 C :    0.119836
   7 H :    0.012610
   8 H :    0.017172
   9 C :   -0.148191
  10 H :    0.035707
  11 H :    0.036564
  12 C :   -0.047797
  13 H :    0.029192
  14 H :    0.025528
  15 H :    0.057936
  16 S :    0.114374
  17 C :   -0.098228
  18 C :   -0.010759
  19 C :   -0.021778
  20 C :   -0.168150
  21 H :   -0.010761
  22 C :    0.069166
  23 H :    0.038889
  24 H :    0.013376
  25 C :   -0.067151
  26 H :    0.017557
  27 H :    0.031045
  28 C :   -0.066240
  29 H :    0.057010
  30 H :    0.013438
  31 H :    0.047971
  32 H :    0.044807
  33 H :    0.058906
Sum of atomic charges:    0.0000000

LOEWDIN ATOMIC CHARGES
----------------------
   0 S :    0.394154
   1 C :   -0.179556
   2 C :   -0.062499
   3 C :   -0.067980
   4 C :   -0.196470
   5 H :    0.029074
   6 C :   -0.025494
   7 H :    0.028754
   8 H :    0.023799
   9 C :   -0.051970
  10 H :    0.028898
  11 H :    0.023895
  12 C :   -0.077022
  13 H :    0.025518
  14 H :    0.024648
  15 H :    0.039590
  16 S :    0.433002
  17 C :   -0.187545
  18 C :   -0.064508
  19 C :   -0.053153
  20 C :   -0.202907
  21 H :    0.020765
  22 C :   -0.033579
  23 H :    0.033050
  24 H :    0.028916
  25 C :   -0.033400
  26 H :    0.009583
  27 H :    0.024190
  28 C :   -0.060903
  29 H :    0.042006
  30 H :    0.002793
  31 H :    0.036237
  32 H :    0.018570
  33 H :    0.029544

  Mayer bond orders larger than 0.100000
B(  0-S ,  1-C ) :   1.1586 B(  0-S ,  4-C ) :   1.1377 B(  1-C ,  2-C ) :   1.5875
B(  1-C , 32-H ) :   0.9639 B(  2-C ,  3-C ) :   1.2482 B(  2-C ,  6-C ) :   1.0511
B(  3-C ,  4-C ) :   1.5847 B(  3-C ,  5-H ) :   0.9782 B(  4-C , 20-C ) :   1.0209
B(  6-C ,  7-H ) :   0.9337 B(  6-C ,  8-H ) :   0.9322 B(  6-C ,  9-C ) :   1.0573
B(  9-C , 10-H ) :   0.9579 B(  9-C , 11-H ) :   0.9584 B(  9-C , 12-C ) :   1.0739
B( 12-C , 13-H ) :   0.9722 B( 12-C , 14-H ) :   0.9737 B( 12-C , 15-H ) :   0.9748
B( 16-S , 17-C ) :   1.1640 B( 16-S , 20-C ) :   1.1719 B( 17-C , 18-C ) :   1.6042
B( 17-C , 33-H ) :   0.9673 B( 18-C , 19-C ) :   1.2282 B( 18-C , 21-H ) :   1.0092
B( 19-C , 20-C ) :   1.5927 B( 19-C , 22-C ) :   1.0355 B( 22-C , 23-H ) :   0.9380
B( 22-C , 24-H ) :   0.9325 B( 22-C , 25-C ) :   1.0537 B( 25-C , 26-H ) :   0.9662
B( 25-C , 27-H ) :   0.9582 B( 25-C , 28-C ) :   1.0637 B( 28-C , 29-H ) :   0.9750
B( 28-C , 30-H ) :   0.9790 B( 28-C , 31-H ) :   0.9746

Dispersion correction           -0.013841898
FINAL SINGLE POINT ENERGY     -1339.859479105957

DIPOLE MOMENT
-------------
                                X             Y             Z
Electronic contribution:      4.26059      23.89916       6.15123
Nuclear contribution   :     -4.60710     -24.43412      -6.36081
                        -----------------------------------------
Total Dipole Moment    :     -0.34651      -0.53496      -0.20958
                        -----------------------------------------
Magnitude (a.u.)       :      0.67095
Magnitude (Debye)      :      1.70542

Rotational constants in cm-1:     0.018884     0.007755     0.006696
Rotational constants in MHz :   566.134297   232.491455   200.745478

                             ****ORCA TERMINATED NORMALLY****
TOTAL RUN TIME: 0 days 0 hours 0 minutes 33 seconds 818 msec
