                         Program Version 4.2.1 -  RELEASE  -
|  1> ! wB97X-D3 SP def2-SVP
|  2> %pal
|  3> nprocs 16
|  4> end
|  5>
|  6> * xyz 0 1
|  7> S 	 -109.881 	 53.7579 	 114.54
|  8> C 	 -110.304 	 54.0729 	 112.9
|  9> C 	 -109.228 	 54.5509 	 112.191
| 10> C 	 -108.039 	 54.5756 	 112.966
| 11> C 	 -108.245 	 54.2061 	 114.235
| 12> H 	 -107.081 	 54.7486 	 112.512
| 13> C 	 -109.184 	 54.7345 	 110.682
| 14> H 	 -108.586 	 55.6475 	 110.501
| 15> H 	 -110.258 	 54.9371 	 110.382
| 16> C 	 -108.522 	 53.5205 	 110.004
| 17> H 	 -108.498 	 53.8306 	 109.052
| 18> H 	 -107.526 	 53.4078 	 110.302
| 19> C 	 -109.208 	 52.1531 	 110.214
| 20> H 	 -109.198 	 51.7727 	 111.229
| 21> H 	 -110.292 	 52.1431 	 109.912
| 22> H 	 -108.755 	 51.4039 	 109.609
| 23> S 	 -107.187 	 55.6342 	 116.373
| 24> C 	 -105.97 	 54.8457 	 117.347
| 25> C 	 -105.751 	 53.5512 	 116.995
| 26> C 	 -106.452 	 53.1799 	 115.778
| 27> C 	 -107.354 	 54.1585 	 115.358
| 28> H 	 -105.042 	 52.881 	 117.594
| 29> C 	 -106.38 	 51.8768 	 115.102
| 30> H 	 -105.343 	 51.8074 	 114.813
| 31> H 	 -106.867 	 51.8109 	 114.15
| 32> C 	 -106.896 	 50.6327 	 115.894
| 33> H 	 -106.298 	 50.3813 	 116.838
| 34> H 	 -106.789 	 49.8084 	 115.174
| 35> C 	 -108.373 	 50.6995 	 116.198
| 36> H 	 -109.021 	 50.7854 	 115.28
| 37> H 	 -108.575 	 51.5156 	 116.849
| 38> H 	 -108.598 	 49.7546 	 116.749
| 39> H 	 -111.158 	 53.6543 	 112.429
| 40> H 	 -105.482 	 55.3084 	 118.183
| 41> *
| 42>
| 43>                          ****END OF INPUT****

CARTESIAN COORDINATES (ANGSTROEM)
---------------------------------
  S    -109.881000   53.757900  114.540000
  C    -110.304000   54.072900  112.900000
  C    -109.228000   54.550900  112.191000
  C    -108.039000   54.575600  112.966000
  C    -108.245000   54.206100  114.235000
  H    -107.081000   54.748600  112.512000
  C    -109.184000   54.734500  110.682000
  H    -108.586000   55.647500  110.501000
  H    -110.258000   54.937100  110.382000
  C    -108.522000   53.520500  110.004000
  H    -108.498000   53.830600  109.052000
  H    -107.526000   53.407800  110.302000
  C    -109.208000   52.153100  110.214000
  H    -109.198000   51.772700  111.229000
  H    -110.292000   52.143100  109.912000
  H    -108.755000   51.403900  109.609000
  S    -107.187000   55.634200  116.373000
  C    -105.970000   54.845700  117.347000
  C    -105.751000   53.551200  116.995000
  C    -106.452000   53.179900  115.778000
  C    -107.354000   54.158500  115.358000
  H    -105.042000   52.881000  117.594000
  C    -106.380000   51.876800  115.102000
  H    -105.343000   51.807400  114.813000
  H    -106.867000   51.810900  114.150000
  C    -106.896000   50.632700  115.894000
  H    -106.298000   50.381300  116.838000
  H    -106.789000   49.808400  115.174000
  C    -108.373000   50.699500  116.198000
  H    -109.021000   50.785400  115.280000
  H    -108.575000   51.515600  116.849000
  H    -108.598000   49.754600  116.749000
  H    -111.158000   53.654300  112.429000
  H    -105.482000   55.308400  118.183000

 Total Charge           Charge          ....    0
 Multiplicity           Mult            ....    1
 Number of Electrons    NEL             ....  134
 Basis Dimension        Dim             ....  322

ORBITAL ENERGIES
----------------

  NO   OCC          E(Eh)            E(eV)
   0   2.0000     -88.961106     -2420.7548
   1   2.0000     -88.960253     -2420.7316
   2   2.0000     -10.321710      -280.8680
   3   2.0000     -10.319023      -280.7949
   4   2.0000     -10.314740      -280.6783
   5   2.0000     -10.304449      -280.3983
   6   2.0000     -10.303198      -280.3643
   7   2.0000     -10.299235      -280.2564
   8   2.0000     -10.297856      -280.2189
   9   2.0000     -10.293109      -280.0897
  10   2.0000     -10.290648      -280.0228
  11   2.0000     -10.287015      -279.9239
  12   2.0000     -10.282960      -279.8136
  13   2.0000     -10.279695      -279.7247
  14   2.0000     -10.278889      -279.7028
  15   2.0000     -10.272695      -279.5342
  16   2.0000      -8.076943      -219.7848
  17   2.0000      -8.074654      -219.7225
  18   2.0000      -6.035358      -164.2305
  19   2.0000      -6.033230      -164.1725
  20   2.0000      -6.031225      -164.1180
  21   2.0000      -6.029240      -164.0640
  22   2.0000      -6.027794      -164.0246
  23   2.0000      -6.025328      -163.9575
  24   2.0000      -1.012055       -27.5394
  25   2.0000      -0.983012       -26.7491
  26   2.0000      -0.915056       -24.8999
  27   2.0000      -0.908147       -24.7119
  28   2.0000      -0.870356       -23.6836
  29   2.0000      -0.850137       -23.1334
  30   2.0000      -0.845525       -23.0079
  31   2.0000      -0.815110       -22.1803
  32   2.0000      -0.786726       -21.4079
  33   2.0000      -0.771538       -20.9946
  34   2.0000      -0.715336       -19.4653
  35   2.0000      -0.698729       -19.0134
  36   2.0000      -0.687850       -18.7174
  37   2.0000      -0.650338       -17.6966
  38   2.0000      -0.643733       -17.5169
  39   2.0000      -0.622618       -16.9423
  40   2.0000      -0.600305       -16.3351
  41   2.0000      -0.568968       -15.4824
  42   2.0000      -0.552007       -15.0209
  43   2.0000      -0.547532       -14.8991
  44   2.0000      -0.546218       -14.8633
  45   2.0000      -0.538310       -14.6482
  46   2.0000      -0.520585       -14.1658
  47   2.0000      -0.514520       -14.0008
  48   2.0000      -0.499698       -13.5975
  49   2.0000      -0.492688       -13.4067
  50   2.0000      -0.487337       -13.2611
  51   2.0000      -0.473905       -12.8956
  52   2.0000      -0.472292       -12.8517
  53   2.0000      -0.463216       -12.6048
  54   2.0000      -0.460418       -12.5286
  55   2.0000      -0.452937       -12.3250
  56   2.0000      -0.440130       -11.9765
  57   2.0000      -0.438955       -11.9446
  58   2.0000      -0.431377       -11.7384
  59   2.0000      -0.428676       -11.6649
  60   2.0000      -0.420789       -11.4503
  61   2.0000      -0.416188       -11.3250
  62   2.0000      -0.407760       -11.0957
  63   2.0000      -0.337270        -9.1776
  64   2.0000      -0.325346        -8.8531
  65   2.0000      -0.319931        -8.7058
  66   2.0000      -0.309494        -8.4218
  67   0.0000       0.050830         1.3832
  68   0.0000       0.055970         1.5230
  69   0.0000       0.119743         3.2584
  70   0.0000       0.123105         3.3499
  71   0.0000       0.124321         3.3830

MULLIKEN ATOMIC CHARGES
-----------------------
   0 S :    0.116087
   1 C :   -0.107965
   2 C :   -0.113781
   3 C :    0.052244
   4 C :   -0.181559
   5 H :    0.005608
   6 C :    0.024190
   7 H :    0.034201
   8 H :    0.035765
   9 C :    0.021775
  10 H :    0.003290
  11 H :    0.013355
  12 C :   -0.066637
  13 H :    0.043904
  14 H :    0.027926
  15 H :    0.027195
  16 S :    0.103078
  17 C :   -0.081465
  18 C :   -0.050432
  19 C :   -0.022788
  20 C :   -0.167155
  21 H :    0.045213
  22 C :    0.085947
  23 H :    0.022119
  24 H :    0.012791
  25 C :   -0.097274
  26 H :    0.042096
  27 H :    0.027947
  28 C :   -0.056786
  29 H :    0.038808
  30 H :    0.035531
  31 H :    0.036919
  32 H :    0.038113
  33 H :    0.051739
Sum of atomic charges:   -0.0000000

LOEWDIN ATOMIC CHARGES
----------------------
   0 S :    0.433757
   1 C :   -0.206327
   2 C :   -0.065034
   3 C :   -0.056784
   4 C :   -0.203249
   5 H :    0.031784
   6 C :   -0.029803
   7 H :    0.034621
   8 H :    0.035468
   9 C :   -0.024606
  10 H :    0.011172
  11 H :    0.020231
  12 C :   -0.064775
  13 H :    0.026258
  14 H :    0.028014
  15 H :    0.023248
  16 S :    0.379808
  17 C :   -0.176885
  18 C :   -0.083071
  19 C :   -0.048855
  20 C :   -0.197243
  21 H :    0.044947
  22 C :   -0.039004
  23 H :    0.032961
  24 H :    0.029256
  25 C :   -0.042301
  26 H :    0.028177
  27 H :    0.024950
  28 C :   -0.070225
  29 H :    0.026134
  30 H :    0.017702
  31 H :    0.031698
  32 H :    0.020597
  33 H :    0.027379

  Mayer bond orders larger than 0.100000
B(  0-S ,  1-C ) :   1.1415 B(  0-S ,  4-C ) :   1.1719 B(  1-C ,  2-C ) :   1.6210
B(  1-C , 32-H ) :   0.9682 B(  2-C ,  3-C ) :   1.2308 B(  2-C ,  6-C ) :   1.0258
B(  3-C ,  4-C ) :   1.6021 B(  3-C ,  5-H ) :   1.0070 B(  4-C , 20-C ) :   0.9978
B(  6-C ,  7-H ) :   0.9352 B(  6-C ,  8-H ) :   0.9449 B(  6-C ,  9-C ) :   1.0709
B(  9-C , 10-H ) :   0.9522 B(  9-C , 11-H ) :   0.9492 B(  9-C , 12-C ) :   1.0728
B( 12-C , 13-H ) :   0.9738 B( 12-C , 14-H ) :   0.9756 B( 12-C , 15-H ) :   0.9727
B( 16-S , 17-C ) :   1.1505 B( 16-S , 20-C ) :   1.1152 B( 17-C , 18-C ) :   1.6467
B( 17-C , 33-H ) :   0.9658 B( 18-C , 19-C ) :   1.1984 B( 18-C , 21-H ) :   0.9774
B( 19-C , 20-C ) :   1.6257 B( 19-C , 22-C ) :   1.0654 B( 22-C , 23-H ) :   0.9171
B( 22-C , 24-H ) :   0.9280 B( 22-C , 25-C ) :   1.0683 B( 25-C , 26-H ) :   0.9562
B( 25-C , 27-H ) :   0.9552 B( 25-C , 28-C ) :   1.0743 B( 28-C , 29-H ) :   0.9692
B( 28-C , 30-H ) :   0.9762 B( 28-C , 31-H ) :   0.9703

Dispersion correction           -0.016297362
FINAL SINGLE POINT ENERGY     -1339.879465925216

DIPOLE MOMENT
-------------
                                X             Y             Z
Electronic contribution:     -0.83700      18.08703      14.83885
Nuclear contribution   :      1.19273     -18.56019     -15.33993
                        -----------------------------------------
Total Dipole Moment    :      0.35573      -0.47316      -0.50108
                        -----------------------------------------
Magnitude (a.u.)       :      0.77556
Magnitude (Debye)      :      1.97133

Rotational constants in cm-1:     0.021033     0.009284     0.007965
Rotational constants in MHz :   630.548954   278.331837   238.771990

                             ****ORCA TERMINATED NORMALLY****
TOTAL RUN TIME: 0 days 0 hours 0 minutes 37 seconds 782 msec
