                         Program Version 4.2.1 -  RELEASE  -
|  1> ! wB97X-D3 SP def2-SVP
|  2> %pal
|  3> nprocs 16
|  4> end
|  5>
|  6> * xyz 0 1
|  7> S 	 4.60166 	 -12.0264 	 65.6879
|  8> C 	 3.58649 	 -10.6071 	 65.5011
|  9> C 	 3.65783 	 -9.81487 	 66.6904
| 10> C 	 4.18121 	 -10.5972 	 67.7559
| 11> C 	 4.8197 	 -11.7777 	 67.4487
| 12> H 	 4.35768 	 -10.0978 	 68.7964
| 13> C 	 3.06755 	 -8.42354 	 66.8393
| 14> H 	 3.27671 	 -8.22904 	 67.9035
| 15> H 	 2.02328 	 -8.37181 	 66.629
| 16> C 	 3.74122 	 -7.36479 	 66.0013
| 17> H 	 3.8159 	 -7.77944 	 64.9643
| 18> H 	 3.09817 	 -6.46343 	 65.9933
| 19> C 	 5.24058 	 -7.11807 	 66.4637
| 20> H 	 5.78163 	 -6.3137 	 65.9815
| 21> H 	 4.8195 	 -6.84819 	 67.4457
| 22> H 	 5.8641 	 -8.09163 	 66.5382
| 23> S 	 7.33034 	 -12.9435 	 67.3642
| 24> C 	 7.99131 	 -13.6834 	 68.8731
| 25> C 	 7.08991 	 -13.6196 	 69.8595
| 26> C 	 5.87469 	 -12.9199 	 69.5169
| 27> C 	 5.79895 	 -12.5314 	 68.1848
| 28> H 	 7.31084 	 -14.108 	 70.7676
| 29> C 	 4.73552 	 -12.8131 	 70.5343
| 30> H 	 4.29077 	 -11.7495 	 70.4229
| 31> H 	 5.09086 	 -12.9538 	 71.5182
| 32> C 	 3.56221 	 -13.8244 	 70.3456
| 33> H 	 2.8545 	 -13.593 	 69.6005
| 34> H 	 3.02588 	 -13.8162 	 71.3433
| 35> C 	 4.08189 	 -15.2917 	 70.1764
| 36> H 	 4.61715 	 -15.4268 	 69.1915
| 37> H 	 3.16204 	 -15.9022 	 70.2062
| 38> H 	 4.76385 	 -15.629 	 70.9846
| 39> H 	 2.88706 	 -10.5428 	 64.6578
| 40> H 	 8.94487 	 -14.2182 	 69.0066
| 41> *
| 42>
| 43>                          ****END OF INPUT****

CARTESIAN COORDINATES (ANGSTROEM)
---------------------------------
  S      4.601660  -12.026400   65.687900
  C      3.586490  -10.607100   65.501100
  C      3.657830   -9.814870   66.690400
  C      4.181210  -10.597200   67.755900
  C      4.819700  -11.777700   67.448700
  H      4.357680  -10.097800   68.796400
  C      3.067550   -8.423540   66.839300
  H      3.276710   -8.229040   67.903500
  H      2.023280   -8.371810   66.629000
  C      3.741220   -7.364790   66.001300
  H      3.815900   -7.779440   64.964300
  H      3.098170   -6.463430   65.993300
  C      5.240580   -7.118070   66.463700
  H      5.781630   -6.313700   65.981500
  H      4.819500   -6.848190   67.445700
  H      5.864100   -8.091630   66.538200
  S      7.330340  -12.943500   67.364200
  C      7.991310  -13.683400   68.873100
  C      7.089910  -13.619600   69.859500
  C      5.874690  -12.919900   69.516900
  C      5.798950  -12.531400   68.184800
  H      7.310840  -14.108000   70.767600
  C      4.735520  -12.813100   70.534300
  H      4.290770  -11.749500   70.422900
  H      5.090860  -12.953800   71.518200
  C      3.562210  -13.824400   70.345600
  H      2.854500  -13.593000   69.600500
  H      3.025880  -13.816200   71.343300
  C      4.081890  -15.291700   70.176400
  H      4.617150  -15.426800   69.191500
  H      3.162040  -15.902200   70.206200
  H      4.763850  -15.629000   70.984600
  H      2.887060  -10.542800   64.657800
  H      8.944870  -14.218200   69.006600

 Total Charge           Charge          ....    0
 Multiplicity           Mult            ....    1
 Number of Electrons    NEL             ....  134
 Basis Dimension        Dim             ....  322

ORBITAL ENERGIES
----------------

  NO   OCC          E(Eh)            E(eV)
   0   2.0000     -88.967729     -2420.9350
   1   2.0000     -88.964719     -2420.8531
   2   2.0000     -10.336924      -281.2820
   3   2.0000     -10.332761      -281.1687
   4   2.0000     -10.325577      -280.9732
   5   2.0000     -10.318926      -280.7922
   6   2.0000     -10.311461      -280.5891
   7   2.0000     -10.306723      -280.4602
   8   2.0000     -10.304583      -280.4020
   9   2.0000     -10.295350      -280.1507
  10   2.0000     -10.293727      -280.1066
  11   2.0000     -10.293407      -280.0978
  12   2.0000     -10.289414      -279.9892
  13   2.0000     -10.287334      -279.9326
  14   2.0000     -10.285237      -279.8755
  15   2.0000     -10.280845      -279.7560
  16   2.0000      -8.081795      -219.9168
  17   2.0000      -8.078178      -219.8184
  18   2.0000      -6.040321      -164.3655
  19   2.0000      -6.037030      -164.2759
  20   2.0000      -6.036239      -164.2544
  21   2.0000      -6.032955      -164.1651
  22   2.0000      -6.032706      -164.1583
  23   2.0000      -6.028528      -164.0446
  24   2.0000      -1.003818       -27.3153
  25   2.0000      -0.980012       -26.6675
  26   2.0000      -0.917208       -24.9585
  27   2.0000      -0.899109       -24.4660
  28   2.0000      -0.873183       -23.7605
  29   2.0000      -0.845517       -23.0077
  30   2.0000      -0.835481       -22.7346
  31   2.0000      -0.815187       -22.1824
  32   2.0000      -0.779478       -21.2107
  33   2.0000      -0.768116       -20.9015
  34   2.0000      -0.709252       -19.2997
  35   2.0000      -0.698140       -18.9974
  36   2.0000      -0.683427       -18.5970
  37   2.0000      -0.662261       -18.0210
  38   2.0000      -0.638076       -17.3629
  39   2.0000      -0.614475       -16.7207
  40   2.0000      -0.587068       -15.9749
  41   2.0000      -0.575508       -15.6604
  42   2.0000      -0.562966       -15.3191
  43   2.0000      -0.551916       -15.0184
  44   2.0000      -0.546806       -14.8793
  45   2.0000      -0.535821       -14.5804
  46   2.0000      -0.516356       -14.0508
  47   2.0000      -0.509941       -13.8762
  48   2.0000      -0.500037       -13.6067
  49   2.0000      -0.492406       -13.3991
  50   2.0000      -0.485516       -13.2116
  51   2.0000      -0.479893       -13.0585
  52   2.0000      -0.470461       -12.8019
  53   2.0000      -0.461153       -12.5486
  54   2.0000      -0.452336       -12.3087
  55   2.0000      -0.445802       -12.1309
  56   2.0000      -0.440469       -11.9858
  57   2.0000      -0.435512       -11.8509
  58   2.0000      -0.433775       -11.8036
  59   2.0000      -0.421121       -11.4593
  60   2.0000      -0.415897       -11.3171
  61   2.0000      -0.407221       -11.0810
  62   2.0000      -0.393878       -10.7180
  63   2.0000      -0.360349        -9.8056
  64   2.0000      -0.334827        -9.1111
  65   2.0000      -0.327629        -8.9152
  66   2.0000      -0.283835        -7.7235
  67   0.0000       0.016235         0.4418
  68   0.0000       0.060051         1.6341
  69   0.0000       0.105057         2.8588
  70   0.0000       0.116496         3.1700
  71   0.0000       0.129031         3.5111

MULLIKEN ATOMIC CHARGES
-----------------------
   0 S :    0.094190
   1 C :   -0.130650
   2 C :   -0.133757
   3 C :    0.001179
   4 C :   -0.140131
   5 H :    0.054818
   6 C :    0.072658
   7 H :    0.014391
   8 H :    0.038720
   9 C :   -0.092403
  10 H :    0.032061
  11 H :    0.043090
  12 C :   -0.098537
  13 H :    0.051824
  14 H :    0.023562
  15 H :    0.075709
  16 S :    0.082343
  17 C :   -0.093244
  18 C :   -0.012001
  19 C :   -0.063900
  20 C :   -0.119089
  21 H :    0.003677
  22 C :    0.073308
  23 H :    0.036783
  24 H :    0.009553
  25 C :   -0.074375
  26 H :    0.036390
  27 H :    0.034020
  28 C :   -0.094710
  29 H :    0.061197
  30 H :    0.039587
  31 H :    0.032305
  32 H :    0.077092
  33 H :    0.064340
Sum of atomic charges:   -0.0000000

LOEWDIN ATOMIC CHARGES
----------------------
   0 S :    0.392439
   1 C :   -0.194374
   2 C :   -0.061952
   3 C :   -0.076201
   4 C :   -0.185842
   5 H :    0.045470
   6 C :   -0.033083
   7 H :    0.027429
   8 H :    0.032485
   9 C :   -0.042693
  10 H :    0.020721
  11 H :    0.027388
  12 C :   -0.078912
  13 H :    0.024364
  14 H :    0.026901
  15 H :    0.043819
  16 S :    0.361776
  17 C :   -0.168956
  18 C :   -0.067642
  19 C :   -0.061179
  20 C :   -0.182531
  21 H :    0.026799
  22 C :   -0.033683
  23 H :    0.038993
  24 H :    0.021534
  25 C :   -0.035536
  26 H :    0.018107
  27 H :    0.030436
  28 C :   -0.075558
  29 H :    0.033465
  30 H :    0.028070
  31 H :    0.023132
  32 H :    0.035046
  33 H :    0.039767

  Mayer bond orders larger than 0.100000
B(  0-S ,  1-C ) :   1.1644 B(  0-S ,  4-C ) :   1.1381 B(  1-C ,  2-C ) :   1.5314
B(  1-C ,  4-C ) :   0.1154 B(  1-C , 32-H ) :   0.9694 B(  2-C ,  3-C ) :   1.3169
B(  2-C ,  6-C ) :   1.0102 B(  3-C ,  4-C ) :   1.5428 B(  3-C ,  5-H ) :   0.9527
B(  4-C , 20-C ) :   1.0788 B(  6-C ,  7-H ) :   0.9439 B(  6-C ,  8-H ) :   0.9377
B(  6-C ,  9-C ) :   1.0737 B(  9-C , 10-H ) :   0.9524 B(  9-C , 11-H ) :   0.9620
B(  9-C , 12-C ) :   1.0239 B( 12-C , 13-H ) :   0.9771 B( 12-C , 14-H ) :   0.9848
B( 12-C , 15-H ) :   0.9730 B( 16-S , 17-C ) :   1.1140 B( 16-S , 20-C ) :   1.1111
B( 17-C , 18-C ) :   1.6699 B( 17-C , 33-H ) :   0.9598 B( 18-C , 19-C ) :   1.2018
B( 18-C , 21-H ) :   0.9942 B( 19-C , 20-C ) :   1.6138 B( 19-C , 22-C ) :   1.0532
B( 22-C , 23-H ) :   0.9328 B( 22-C , 24-H ) :   0.9355 B( 22-C , 25-C ) :   1.0667
B( 25-C , 26-H ) :   0.9599 B( 25-C , 27-H ) :   0.9595 B( 25-C , 28-C ) :   1.0721
B( 28-C , 29-H ) :   0.9699 B( 28-C , 30-H ) :   0.9752 B( 28-C , 31-H ) :   0.9767

Dispersion correction           -0.014952994
FINAL SINGLE POINT ENERGY     -1339.847936936588

DIPOLE MOMENT
-------------
                                X             Y             Z
Electronic contribution:     10.51183      -9.53062     -11.16085
Nuclear contribution   :    -10.86091       9.78228      11.58918
                        -----------------------------------------
Total Dipole Moment    :     -0.34908       0.25165       0.42833
                        -----------------------------------------
Magnitude (a.u.)       :      0.60717
Magnitude (Debye)      :      1.54330

Rotational constants in cm-1:     0.021813     0.008068     0.007363
Rotational constants in MHz :   653.945086   241.858118   220.723366

                             ****ORCA TERMINATED NORMALLY****
TOTAL RUN TIME: 0 days 0 hours 0 minutes 30 seconds 662 msec
