                         Program Version 4.2.1 -  RELEASE  -
|  1> ! wB97X-D3 SP def2-SVP
|  2> %pal
|  3> nprocs 16
|  4> end
|  5>
|  6> * xyz 0 1
|  7> S 	 -109.752 	 42.1842 	 132.915
|  8> C 	 -108.959 	 42.2538 	 134.468
|  9> C 	 -109.416 	 43.3107 	 135.272
| 10> C 	 -110.276 	 44.2006 	 134.515
| 11> C 	 -110.509 	 43.7652 	 133.235
| 12> H 	 -110.809 	 45.141 	 134.963
| 13> C 	 -109.17 	 43.6388 	 136.704
| 14> H 	 -108.494 	 44.4662 	 136.749
| 15> H 	 -108.609 	 42.8524 	 137.158
| 16> C 	 -110.363 	 43.9577 	 137.589
| 17> H 	 -110.044 	 44.347 	 138.597
| 18> H 	 -111.019 	 44.6889 	 137.123
| 19> C 	 -111.219 	 42.7965 	 137.998
| 20> H 	 -112.145 	 43.1654 	 138.422
| 21> H 	 -111.571 	 42.2254 	 137.102
| 22> H 	 -110.693 	 42.1896 	 138.672
| 23> S 	 -110.754 	 44.5209 	 130.646
| 24> C 	 -112.237 	 45.2891 	 130.107
| 25> C 	 -113.099 	 45.4891 	 131.124
| 26> C 	 -112.688 	 44.8596 	 132.348
| 27> C 	 -111.433 	 44.3117 	 132.233
| 28> H 	 -113.99 	 46.0417 	 130.819
| 29> C 	 -113.665 	 44.89 	 133.551
| 30> H 	 -114.507 	 45.5954 	 133.408
| 31> H 	 -113.032 	 45.3633 	 134.297
| 32> C 	 -114.301 	 43.5484 	 134.1
| 33> H 	 -113.51 	 43.0041 	 134.605
| 34> H 	 -114.639 	 42.8998 	 133.321
| 35> C 	 -115.58 	 43.6827 	 134.937
| 36> H 	 -115.998 	 42.7376 	 135.303
| 37> H 	 -116.376 	 44.0738 	 134.297
| 38> H 	 -115.481 	 44.351 	 135.823
| 39> H 	 -108.309 	 41.4839 	 134.816
| 40> H 	 -112.367 	 45.7232 	 129.124
| 41> *
| 42>
| 43>                          ****END OF INPUT****

CARTESIAN COORDINATES (ANGSTROEM)
---------------------------------
  S    -109.752000   42.184200  132.915000
  C    -108.959000   42.253800  134.468000
  C    -109.416000   43.310700  135.272000
  C    -110.276000   44.200600  134.515000
  C    -110.509000   43.765200  133.235000
  H    -110.809000   45.141000  134.963000
  C    -109.170000   43.638800  136.704000
  H    -108.494000   44.466200  136.749000
  H    -108.609000   42.852400  137.158000
  C    -110.363000   43.957700  137.589000
  H    -110.044000   44.347000  138.597000
  H    -111.019000   44.688900  137.123000
  C    -111.219000   42.796500  137.998000
  H    -112.145000   43.165400  138.422000
  H    -111.571000   42.225400  137.102000
  H    -110.693000   42.189600  138.672000
  S    -110.754000   44.520900  130.646000
  C    -112.237000   45.289100  130.107000
  C    -113.099000   45.489100  131.124000
  C    -112.688000   44.859600  132.348000
  C    -111.433000   44.311700  132.233000
  H    -113.990000   46.041700  130.819000
  C    -113.665000   44.890000  133.551000
  H    -114.507000   45.595400  133.408000
  H    -113.032000   45.363300  134.297000
  C    -114.301000   43.548400  134.100000
  H    -113.510000   43.004100  134.605000
  H    -114.639000   42.899800  133.321000
  C    -115.580000   43.682700  134.937000
  H    -115.998000   42.737600  135.303000
  H    -116.376000   44.073800  134.297000
  H    -115.481000   44.351000  135.823000
  H    -108.309000   41.483900  134.816000
  H    -112.367000   45.723200  129.124000

 Total Charge           Charge          ....    0
 Multiplicity           Mult            ....    1
 Number of Electrons    NEL             ....  134
 Basis Dimension        Dim             ....  322

ORBITAL ENERGIES
----------------

  NO   OCC          E(Eh)            E(eV)
   0   2.0000     -88.966791     -2420.9095
   1   2.0000     -88.962569     -2420.7946
   2   2.0000     -10.331077      -281.1229
   3   2.0000     -10.325147      -280.9615
   4   2.0000     -10.315935      -280.7109
   5   2.0000     -10.311487      -280.5898
   6   2.0000     -10.308082      -280.4972
   7   2.0000     -10.305595      -280.4295
   8   2.0000     -10.302865      -280.3552
   9   2.0000     -10.299709      -280.2693
  10   2.0000     -10.290729      -280.0250
  11   2.0000     -10.288274      -279.9582
  12   2.0000     -10.286793      -279.9179
  13   2.0000     -10.285754      -279.8896
  14   2.0000     -10.282468      -279.8002
  15   2.0000     -10.270885      -279.4850
  16   2.0000      -8.081189      -219.9003
  17   2.0000      -8.077828      -219.8089
  18   2.0000      -6.039700      -164.3486
  19   2.0000      -6.036287      -164.2557
  20   2.0000      -6.035935      -164.2461
  21   2.0000      -6.032341      -164.1483
  22   2.0000      -6.031779      -164.1330
  23   2.0000      -6.028522      -164.0444
  24   2.0000      -1.006806       -27.3966
  25   2.0000      -0.982815       -26.7438
  26   2.0000      -0.918441       -24.9920
  27   2.0000      -0.898993       -24.4628
  28   2.0000      -0.870969       -23.7003
  29   2.0000      -0.852651       -23.2018
  30   2.0000      -0.847741       -23.0682
  31   2.0000      -0.817466       -22.2444
  32   2.0000      -0.784719       -21.3533
  33   2.0000      -0.772951       -21.0331
  34   2.0000      -0.708615       -19.2824
  35   2.0000      -0.697046       -18.9676
  36   2.0000      -0.689261       -18.7558
  37   2.0000      -0.659100       -17.9350
  38   2.0000      -0.639008       -17.3883
  39   2.0000      -0.622971       -16.9519
  40   2.0000      -0.591112       -16.0850
  41   2.0000      -0.569104       -15.4861
  42   2.0000      -0.560205       -15.2440
  43   2.0000      -0.555213       -15.1081
  44   2.0000      -0.543695       -14.7947
  45   2.0000      -0.523327       -14.2405
  46   2.0000      -0.520862       -14.1734
  47   2.0000      -0.515253       -14.0207
  48   2.0000      -0.500139       -13.6095
  49   2.0000      -0.495541       -13.4844
  50   2.0000      -0.488484       -13.2923
  51   2.0000      -0.483839       -13.1659
  52   2.0000      -0.468809       -12.7569
  53   2.0000      -0.463492       -12.6123
  54   2.0000      -0.457056       -12.4371
  55   2.0000      -0.451982       -12.2990
  56   2.0000      -0.444559       -12.0971
  57   2.0000      -0.438478       -11.9316
  58   2.0000      -0.433201       -11.7880
  59   2.0000      -0.423453       -11.5227
  60   2.0000      -0.422055       -11.4847
  61   2.0000      -0.415899       -11.3172
  62   2.0000      -0.409416       -11.1408
  63   2.0000      -0.348994        -9.4966
  64   2.0000      -0.330377        -8.9900
  65   2.0000      -0.328689        -8.9441
  66   2.0000      -0.294085        -8.0025
  67   0.0000       0.031242         0.8501
  68   0.0000       0.072749         1.9796
  69   0.0000       0.102801         2.7974
  70   0.0000       0.111639         3.0379
  71   0.0000       0.125168         3.4060

MULLIKEN ATOMIC CHARGES
-----------------------
   0 S :    0.108601
   1 C :   -0.103714
   2 C :   -0.109819
   3 C :   -0.025061
   4 C :   -0.136574
   5 H :    0.059802
   6 C :    0.129513
   7 H :    0.032188
   8 H :   -0.002683
   9 C :   -0.107287
  10 H :    0.032740
  11 H :    0.022048
  12 C :   -0.035572
  13 H :    0.027268
  14 H :    0.037271
  15 H :    0.022666
  16 S :    0.101729
  17 C :   -0.091964
  18 C :   -0.052870
  19 C :   -0.022721
  20 C :   -0.155342
  21 H :    0.024935
  22 C :    0.072822
  23 H :    0.018905
  24 H :    0.016736
  25 C :   -0.037883
  26 H :    0.034958
  27 H :    0.027035
  28 C :   -0.080290
  29 H :    0.036854
  30 H :    0.030157
  31 H :    0.033628
  32 H :    0.038266
  33 H :    0.053658
Sum of atomic charges:   -0.0000000

LOEWDIN ATOMIC CHARGES
----------------------
   0 S :    0.394103
   1 C :   -0.195555
   2 C :   -0.058859
   3 C :   -0.072851
   4 C :   -0.185087
   5 H :    0.049308
   6 C :   -0.033816
   7 H :    0.035442
   8 H :    0.025556
   9 C :   -0.042304
  10 H :    0.032971
  11 H :    0.018110
  12 C :   -0.061527
  13 H :    0.026445
  14 H :    0.028848
  15 H :    0.015399
  16 S :    0.403603
  17 C :   -0.180694
  18 C :   -0.074823
  19 C :   -0.054235
  20 C :   -0.204998
  21 H :    0.037763
  22 C :   -0.029891
  23 H :    0.030848
  24 H :    0.028042
  25 C :   -0.038358
  26 H :    0.023654
  27 H :    0.025035
  28 C :   -0.070940
  29 H :    0.029771
  30 H :    0.025002
  31 H :    0.023719
  32 H :    0.021519
  33 H :    0.028800

  Mayer bond orders larger than 0.100000
B(  0-S ,  1-C ) :   1.1315 B(  0-S ,  4-C ) :   1.1460 B(  1-C ,  2-C ) :   1.6225
B(  1-C , 32-H ) :   0.9692 B(  2-C ,  3-C ) :   1.2107 B(  2-C ,  6-C ) :   1.0309
B(  3-C ,  4-C ) :   1.6244 B(  3-C ,  5-H ) :   0.9697 B(  4-C , 20-C ) :   1.0089
B(  6-C ,  7-H ) :   0.9273 B(  6-C ,  8-H ) :   0.9329 B(  6-C ,  9-C ) :   1.0729
B(  9-C , 10-H ) :   0.9531 B(  9-C , 11-H ) :   0.9557 B(  9-C , 12-C ) :   1.0861
B( 12-C , 13-H ) :   0.9713 B( 12-C , 14-H ) :   0.9735 B( 12-C , 15-H ) :   0.9755
B( 16-S , 17-C ) :   1.1363 B( 16-S , 20-C ) :   1.1482 B( 17-C , 18-C ) :   1.6612
B( 17-C , 33-H ) :   0.9645 B( 18-C , 19-C ) :   1.2023 B( 18-C , 21-H ) :   0.9900
B( 19-C , 20-C ) :   1.6256 B( 19-C , 22-C ) :   1.0260 B( 22-C , 23-H ) :   0.9449
B( 22-C , 24-H ) :   0.9283 B( 22-C , 25-C ) :   1.0492 B( 25-C , 26-H ) :   0.9557
B( 25-C , 27-H ) :   0.9587 B( 25-C , 28-C ) :   1.0841 B( 28-C , 29-H ) :   0.9739
B( 28-C , 30-H ) :   0.9731 B( 28-C , 31-H ) :   0.9774

Dispersion correction           -0.014672590
FINAL SINGLE POINT ENERGY     -1339.877135196684

DIPOLE MOMENT
-------------
                                X             Y             Z
Electronic contribution:     16.19662      -1.16207     -27.05577
Nuclear contribution   :    -16.60220       1.39590      27.60315
                        -----------------------------------------
Total Dipole Moment    :     -0.40557       0.23383       0.54738
                        -----------------------------------------
Magnitude (a.u.)       :      0.72027
Magnitude (Debye)      :      1.83078

Rotational constants in cm-1:     0.016731     0.010289     0.007232
Rotational constants in MHz :   501.579370   308.459045   216.805026

                             ****ORCA TERMINATED NORMALLY****
TOTAL RUN TIME: 0 days 0 hours 0 minutes 35 seconds 256 msec
