                         Program Version 4.2.1 -  RELEASE  -
|  1> ! wB97X-D3 SP def2-SVP
|  2> %pal
|  3> nprocs 16
|  4> end
|  5>
|  6> * xyz 0 1
|  7> S 	 57.1993 	 4.61555 	 80.8176
|  8> C 	 56.5849 	 3.61638 	 79.4589
|  9> C 	 55.2917 	 3.16243 	 79.7255
| 10> C 	 54.8498 	 3.41989 	 81.0535
| 11> C 	 55.7864 	 4.2014 	 81.748
| 12> H 	 53.9201 	 3.08485 	 81.5838
| 13> C 	 54.5402 	 2.37442 	 78.7028
| 14> H 	 55.0536 	 2.52924 	 77.7854
| 15> H 	 53.6023 	 2.88124 	 78.4867
| 16> C 	 54.2914 	 0.871989 	 79.0437
| 17> H 	 54.0111 	 0.281223 	 78.1032
| 18> H 	 55.2571 	 0.485136 	 79.402
| 19> C 	 53.2709 	 0.628809 	 80.1309
| 20> H 	 52.9262 	 -0.439025 	 80.0938
| 21> H 	 53.4999 	 0.900848 	 81.1491
| 22> H 	 52.3633 	 1.23489 	 79.9338
| 23> S 	 55.8402 	 6.28041 	 83.4419
| 24> C 	 55.314 	 6.13648 	 85.1342
| 25> C 	 55.1674 	 4.77761 	 85.4375
| 26> C 	 55.281 	 3.91325 	 84.3438
| 27> C 	 55.5798 	 4.59701 	 83.1263
| 28> H 	 54.9811 	 4.57248 	 86.4657
| 29> C 	 55.025 	 2.45734 	 84.491
| 30> H 	 54.5954 	 2.08221 	 83.5903
| 31> H 	 54.2385 	 2.26762 	 85.2717
| 32> C 	 56.3525 	 1.68877 	 84.7067
| 33> H 	 56.8059 	 2.00551 	 85.6946
| 34> H 	 57.0888 	 1.98293 	 84.0284
| 35> C 	 56.3909 	 0.132885 	 84.7379
| 36> H 	 57.3983 	 -0.143305 	 84.5536
| 37> H 	 55.7433 	 -0.286602 	 83.9672
| 38> H 	 56.037 	 -0.197704 	 85.6584
| 39> H 	 57.236 	 3.45355 	 78.6102
| 40> H 	 55.2946 	 6.89223 	 85.8556
| 41> *
| 42>
| 43>                          ****END OF INPUT****

CARTESIAN COORDINATES (ANGSTROEM)
---------------------------------
  S     57.199300    4.615550   80.817600
  C     56.584900    3.616380   79.458900
  C     55.291700    3.162430   79.725500
  C     54.849800    3.419890   81.053500
  C     55.786400    4.201400   81.748000
  H     53.920100    3.084850   81.583800
  C     54.540200    2.374420   78.702800
  H     55.053600    2.529240   77.785400
  H     53.602300    2.881240   78.486700
  C     54.291400    0.871989   79.043700
  H     54.011100    0.281223   78.103200
  H     55.257100    0.485136   79.402000
  C     53.270900    0.628809   80.130900
  H     52.926200   -0.439025   80.093800
  H     53.499900    0.900848   81.149100
  H     52.363300    1.234890   79.933800
  S     55.840200    6.280410   83.441900
  C     55.314000    6.136480   85.134200
  C     55.167400    4.777610   85.437500
  C     55.281000    3.913250   84.343800
  C     55.579800    4.597010   83.126300
  H     54.981100    4.572480   86.465700
  C     55.025000    2.457340   84.491000
  H     54.595400    2.082210   83.590300
  H     54.238500    2.267620   85.271700
  C     56.352500    1.688770   84.706700
  H     56.805900    2.005510   85.694600
  H     57.088800    1.982930   84.028400
  C     56.390900    0.132885   84.737900
  H     57.398300   -0.143305   84.553600
  H     55.743300   -0.286602   83.967200
  H     56.037000   -0.197704   85.658400
  H     57.236000    3.453550   78.610200
  H     55.294600    6.892230   85.855600

 Total Charge           Charge          ....    0
 Multiplicity           Mult            ....    1
 Number of Electrons    NEL             ....  134
 Basis Dimension        Dim             ....  322

ORBITAL ENERGIES
----------------

  NO   OCC          E(Eh)            E(eV)
   0   2.0000     -88.970377     -2421.0071
   1   2.0000     -88.964749     -2420.8539
   2   2.0000     -10.332236      -281.1544
   3   2.0000     -10.328100      -281.0419
   4   2.0000     -10.319891      -280.8185
   5   2.0000     -10.314441      -280.6702
   6   2.0000     -10.306089      -280.4429
   7   2.0000     -10.303945      -280.3846
   8   2.0000     -10.300467      -280.2899
   9   2.0000     -10.296507      -280.1822
  10   2.0000     -10.291209      -280.0380
  11   2.0000     -10.291071      -280.0343
  12   2.0000     -10.288103      -279.9535
  13   2.0000     -10.282709      -279.8067
  14   2.0000     -10.281448      -279.7724
  15   2.0000     -10.268572      -279.4221
  16   2.0000      -8.084509      -219.9907
  17   2.0000      -8.079252      -219.8476
  18   2.0000      -6.042966      -164.4375
  19   2.0000      -6.039169      -164.3341
  20   2.0000      -6.037695      -164.2940
  21   2.0000      -6.035299      -164.2288
  22   2.0000      -6.033649      -164.1839
  23   2.0000      -6.030245      -164.0913
  24   2.0000      -1.005362       -27.3573
  25   2.0000      -0.980744       -26.6874
  26   2.0000      -0.913214       -24.8498
  27   2.0000      -0.905326       -24.6352
  28   2.0000      -0.870117       -23.6771
  29   2.0000      -0.850707       -23.1489
  30   2.0000      -0.846971       -23.0473
  31   2.0000      -0.817800       -22.2535
  32   2.0000      -0.784443       -21.3458
  33   2.0000      -0.769436       -20.9374
  34   2.0000      -0.706949       -19.2371
  35   2.0000      -0.700257       -19.0550
  36   2.0000      -0.695084       -18.9142
  37   2.0000      -0.663751       -18.0616
  38   2.0000      -0.643521       -17.5111
  39   2.0000      -0.619218       -16.8498
  40   2.0000      -0.595102       -16.1936
  41   2.0000      -0.572052       -15.5663
  42   2.0000      -0.561132       -15.2692
  43   2.0000      -0.544862       -14.8265
  44   2.0000      -0.539557       -14.6821
  45   2.0000      -0.530068       -14.4239
  46   2.0000      -0.516701       -14.0601
  47   2.0000      -0.511746       -13.9253
  48   2.0000      -0.508172       -13.8281
  49   2.0000      -0.498937       -13.5768
  50   2.0000      -0.491388       -13.3713
  51   2.0000      -0.485847       -13.2206
  52   2.0000      -0.479003       -13.0343
  53   2.0000      -0.463661       -12.6169
  54   2.0000      -0.459903       -12.5146
  55   2.0000      -0.444663       -12.0999
  56   2.0000      -0.440265       -11.9802
  57   2.0000      -0.437177       -11.8962
  58   2.0000      -0.433381       -11.7929
  59   2.0000      -0.426917       -11.6170
  60   2.0000      -0.418773       -11.3954
  61   2.0000      -0.416164       -11.3244
  62   2.0000      -0.410262       -11.1638
  63   2.0000      -0.346035        -9.4161
  64   2.0000      -0.335120        -9.1191
  65   2.0000      -0.328467        -8.9381
  66   2.0000      -0.285282        -7.7629
  67   0.0000       0.025549         0.6952
  68   0.0000       0.062695         1.7060
  69   0.0000       0.105919         2.8822
  70   0.0000       0.117506         3.1975
  71   0.0000       0.130967         3.5638

MULLIKEN ATOMIC CHARGES
-----------------------
   0 S :    0.115114
   1 C :   -0.147535
   2 C :   -0.074177
   3 C :   -0.005591
   4 C :   -0.129882
   5 H :    0.042935
   6 C :    0.101755
   7 H :   -0.000989
   8 H :    0.026716
   9 C :   -0.070951
  10 H :    0.046971
  11 H :    0.032894
  12 C :   -0.070198
  13 H :    0.044147
  14 H :    0.035760
  15 H :    0.021423
  16 S :    0.096989
  17 C :   -0.076096
  18 C :   -0.047616
  19 C :   -0.017438
  20 C :   -0.176563
  21 H :    0.010712
  22 C :    0.115097
  23 H :   -0.011478
  24 H :    0.033176
  25 C :   -0.111459
  26 H :    0.019877
  27 H :    0.020220
  28 C :    0.016676
  29 H :    0.028745
  30 H :    0.021517
  31 H :    0.017654
  32 H :    0.056843
  33 H :    0.034752
Sum of atomic charges:    0.0000000

LOEWDIN ATOMIC CHARGES
----------------------
   0 S :    0.393274
   1 C :   -0.186364
   2 C :   -0.055790
   3 C :   -0.069692
   4 C :   -0.196763
   5 H :    0.043202
   6 C :   -0.033908
   7 H :    0.025742
   8 H :    0.031457
   9 C :   -0.041992
  10 H :    0.035663
  11 H :    0.026403
  12 C :   -0.076073
  13 H :    0.035344
  14 H :    0.018921
  15 H :    0.024933
  16 S :    0.409843
  17 C :   -0.175301
  18 C :   -0.063763
  19 C :   -0.058273
  20 C :   -0.200880
  21 H :    0.029306
  22 C :   -0.032810
  23 H :    0.020098
  24 H :    0.036020
  25 C :   -0.037466
  26 H :    0.026132
  27 H :    0.017091
  28 C :   -0.051957
  29 H :    0.025882
  30 H :    0.023208
  31 H :    0.014282
  32 H :    0.027099
  33 H :    0.017135

  Mayer bond orders larger than 0.100000
B(  0-S ,  1-C ) :   1.1215 B(  0-S ,  4-C ) :   1.1618 B(  1-C ,  2-C ) :   1.5923
B(  1-C ,  4-C ) :   0.1006 B(  1-C , 32-H ) :   0.9738 B(  2-C ,  3-C ) :   1.2317
B(  2-C ,  6-C ) :   1.0374 B(  3-C ,  4-C ) :   1.5574 B(  3-C ,  5-H ) :   0.9817
B(  4-C , 20-C ) :   1.0494 B(  6-C ,  7-H ) :   0.9309 B(  6-C ,  8-H ) :   0.9338
B(  6-C ,  9-C ) :   1.0546 B(  9-C , 10-H ) :   0.9565 B(  9-C , 11-H ) :   0.9543
B(  9-C , 12-C ) :   1.0785 B( 12-C , 13-H ) :   0.9696 B( 12-C , 14-H ) :   0.9719
B( 12-C , 15-H ) :   0.9726 B( 16-S , 17-C ) :   1.1580 B( 16-S , 20-C ) :   1.1645
B( 17-C , 18-C ) :   1.5803 B( 17-C , 20-C ) :   0.1195 B( 17-C , 33-H ) :   0.9756
B( 18-C , 19-C ) :   1.2719 B( 18-C , 21-H ) :   0.9968 B( 19-C , 20-C ) :   1.5245
B( 19-C , 22-C ) :   1.0537 B( 22-C , 23-H ) :   0.9216 B( 22-C , 24-H ) :   0.9363
B( 22-C , 25-C ) :   1.0500 B( 25-C , 26-H ) :   0.9560 B( 25-C , 27-H ) :   0.9621
B( 25-C , 28-C ) :   1.0799 B( 28-C , 29-H ) :   0.9753 B( 28-C , 30-H ) :   0.9747
B( 28-C , 31-H ) :   0.9774

Dispersion correction           -0.014785453
FINAL SINGLE POINT ENERGY     -1339.873707632655

DIPOLE MOMENT
-------------
                                X             Y             Z
Electronic contribution:      9.35943      27.87769      -0.00876
Nuclear contribution   :     -9.59868     -28.44116       0.01816
                        -----------------------------------------
Total Dipole Moment    :     -0.23925      -0.56347       0.00940
                        -----------------------------------------
Magnitude (a.u.)       :      0.61223
Magnitude (Debye)      :      1.55617

Rotational constants in cm-1:     0.016804     0.010008     0.007514
Rotational constants in MHz :   503.779813   300.043146   225.249798

                             ****ORCA TERMINATED NORMALLY****
TOTAL RUN TIME: 0 days 0 hours 0 minutes 31 seconds 493 msec
