                         Program Version 4.2.1 -  RELEASE  -
|  1> ! wB97X-D3 SP def2-SVP
|  2> %pal
|  3> nprocs 16
|  4> end
|  5>
|  6> * xyz 0 1
|  7> S 	 -36.8075 	 55.087 	 113.663
|  8> C 	 -37.8094 	 56.378 	 114.369
|  9> C 	 -39.0162 	 55.9136 	 114.925
| 10> C 	 -39.0613 	 54.5061 	 114.852
| 11> C 	 -37.9679 	 53.8782 	 114.273
| 12> H 	 -39.7796 	 53.8455 	 115.31
| 13> C 	 -40.1199 	 56.7856 	 115.562
| 14> H 	 -40.2859 	 57.6847 	 114.995
| 15> H 	 -39.6001 	 57.2615 	 116.401
| 16> C 	 -41.464 	 56.0754 	 115.913
| 17> H 	 -41.3098 	 55.1715 	 116.527
| 18> H 	 -42.022 	 56.7299 	 116.623
| 19> C 	 -42.4651 	 55.9417 	 114.721
| 20> H 	 -42.8113 	 56.9628 	 114.374
| 21> H 	 -41.9825 	 55.4134 	 113.947
| 22> H 	 -43.2771 	 55.2567 	 115.178
| 23> S 	 -36.3215 	 52.0921 	 115.284
| 24> C 	 -36.3954 	 50.4547 	 114.663
| 25> C 	 -37.5046 	 50.2324 	 113.906
| 26> C 	 -38.2838 	 51.3995 	 113.726
| 27> C 	 -37.649 	 52.49 	 114.304
| 28> H 	 -37.6658 	 49.2921 	 113.422
| 29> C 	 -39.5687 	 51.4566 	 112.926
| 30> H 	 -39.265 	 51.0437 	 111.907
| 31> H 	 -39.86 	 52.4885 	 112.923
| 32> C 	 -40.5969 	 50.5271 	 113.448
| 33> H 	 -40.7201 	 50.8822 	 114.488
| 34> H 	 -40.2934 	 49.5469 	 113.385
| 35> C 	 -41.9216 	 50.7489 	 112.675
| 36> H 	 -42.0607 	 51.8374 	 112.516
| 37> H 	 -42.7805 	 50.1835 	 113.092
| 38> H 	 -41.7041 	 50.2707 	 111.731
| 39> H 	 -37.4479 	 57.358 	 114.515
| 40> H 	 -35.6921 	 49.6192 	 114.886
| 41> *
| 42>
| 43>                          ****END OF INPUT****

CARTESIAN COORDINATES (ANGSTROEM)
---------------------------------
  S    -36.807500   55.087000  113.663000
  C    -37.809400   56.378000  114.369000
  C    -39.016200   55.913600  114.925000
  C    -39.061300   54.506100  114.852000
  C    -37.967900   53.878200  114.273000
  H    -39.779600   53.845500  115.310000
  C    -40.119900   56.785600  115.562000
  H    -40.285900   57.684700  114.995000
  H    -39.600100   57.261500  116.401000
  C    -41.464000   56.075400  115.913000
  H    -41.309800   55.171500  116.527000
  H    -42.022000   56.729900  116.623000
  C    -42.465100   55.941700  114.721000
  H    -42.811300   56.962800  114.374000
  H    -41.982500   55.413400  113.947000
  H    -43.277100   55.256700  115.178000
  S    -36.321500   52.092100  115.284000
  C    -36.395400   50.454700  114.663000
  C    -37.504600   50.232400  113.906000
  C    -38.283800   51.399500  113.726000
  C    -37.649000   52.490000  114.304000
  H    -37.665800   49.292100  113.422000
  C    -39.568700   51.456600  112.926000
  H    -39.265000   51.043700  111.907000
  H    -39.860000   52.488500  112.923000
  C    -40.596900   50.527100  113.448000
  H    -40.720100   50.882200  114.488000
  H    -40.293400   49.546900  113.385000
  C    -41.921600   50.748900  112.675000
  H    -42.060700   51.837400  112.516000
  H    -42.780500   50.183500  113.092000
  H    -41.704100   50.270700  111.731000
  H    -37.447900   57.358000  114.515000
  H    -35.692100   49.619200  114.886000

 Total Charge           Charge          ....    0
 Multiplicity           Mult            ....    1
 Number of Electrons    NEL             ....  134
 Basis Dimension        Dim             ....  322

ORBITAL ENERGIES
----------------

  NO   OCC          E(Eh)            E(eV)
   0   2.0000     -88.966388     -2420.8985
   1   2.0000     -88.964663     -2420.8516
   2   2.0000     -10.323994      -280.9302
   3   2.0000     -10.314096      -280.6608
   4   2.0000     -10.313965      -280.6572
   5   2.0000     -10.312294      -280.6118
   6   2.0000     -10.305445      -280.4254
   7   2.0000     -10.297844      -280.2186
   8   2.0000     -10.297498      -280.2092
   9   2.0000     -10.296972      -280.1949
  10   2.0000     -10.291053      -280.0338
  11   2.0000     -10.290796      -280.0268
  12   2.0000     -10.288238      -279.9572
  13   2.0000     -10.287058      -279.9251
  14   2.0000     -10.280476      -279.7460
  15   2.0000     -10.278053      -279.6800
  16   2.0000      -8.080376      -219.8782
  17   2.0000      -8.079964      -219.8670
  18   2.0000      -6.038800      -164.3241
  19   2.0000      -6.038461      -164.3149
  20   2.0000      -6.034839      -164.2163
  21   2.0000      -6.034650      -164.2112
  22   2.0000      -6.031055      -164.1133
  23   2.0000      -6.030809      -164.1066
  24   2.0000      -1.011387       -27.5212
  25   2.0000      -0.979423       -26.6515
  26   2.0000      -0.921028       -25.0624
  27   2.0000      -0.904838       -24.6219
  28   2.0000      -0.871083       -23.7034
  29   2.0000      -0.851463       -23.1695
  30   2.0000      -0.843190       -22.9444
  31   2.0000      -0.813910       -22.1476
  32   2.0000      -0.782629       -21.2964
  33   2.0000      -0.767203       -20.8766
  34   2.0000      -0.708014       -19.2660
  35   2.0000      -0.697330       -18.9753
  36   2.0000      -0.691867       -18.8267
  37   2.0000      -0.659091       -17.9348
  38   2.0000      -0.643319       -17.5056
  39   2.0000      -0.621184       -16.9033
  40   2.0000      -0.596745       -16.2383
  41   2.0000      -0.580555       -15.7977
  42   2.0000      -0.562634       -15.3100
  43   2.0000      -0.544850       -14.8261
  44   2.0000      -0.534590       -14.5469
  45   2.0000      -0.526114       -14.3163
  46   2.0000      -0.520781       -14.1712
  47   2.0000      -0.512566       -13.9476
  48   2.0000      -0.502882       -13.6841
  49   2.0000      -0.491192       -13.3660
  50   2.0000      -0.483839       -13.1659
  51   2.0000      -0.479419       -13.0456
  52   2.0000      -0.471739       -12.8367
  53   2.0000      -0.462743       -12.5919
  54   2.0000      -0.458369       -12.4729
  55   2.0000      -0.453743       -12.3470
  56   2.0000      -0.447263       -12.1707
  57   2.0000      -0.441222       -12.0063
  58   2.0000      -0.436830       -11.8867
  59   2.0000      -0.426282       -11.5997
  60   2.0000      -0.425392       -11.5755
  61   2.0000      -0.413676       -11.2567
  62   2.0000      -0.410007       -11.1569
  63   2.0000      -0.343335        -9.3426
  64   2.0000      -0.327541        -8.9128
  65   2.0000      -0.322330        -8.7710
  66   2.0000      -0.291988        -7.9454
  67   0.0000       0.030101         0.8191
  68   0.0000       0.066889         1.8201
  69   0.0000       0.112920         3.0727
  70   0.0000       0.120502         3.2790
  71   0.0000       0.121431         3.3043

MULLIKEN ATOMIC CHARGES
-----------------------
   0 S :    0.114714
   1 C :   -0.124661
   2 C :   -0.073398
   3 C :    0.035458
   4 C :   -0.190331
   5 H :    0.004857
   6 C :    0.084217
   7 H :    0.018416
   8 H :    0.032082
   9 C :   -0.112991
  10 H :    0.041519
  11 H :    0.030971
  12 C :   -0.053577
  13 H :    0.052414
  14 H :    0.031529
  15 H :    0.052079
  16 S :    0.133806
  17 C :   -0.101085
  18 C :   -0.037438
  19 C :   -0.012403
  20 C :   -0.200297
  21 H :    0.009628
  22 C :    0.076233
  23 H :    0.030953
  24 H :    0.021312
  25 C :   -0.080223
  26 H :    0.027751
  27 H :    0.017804
  28 C :   -0.025329
  29 H :    0.038298
  30 H :    0.045256
  31 H :    0.016804
  32 H :    0.033048
  33 H :    0.062585
Sum of atomic charges:    0.0000000

LOEWDIN ATOMIC CHARGES
----------------------
   0 S :    0.385396
   1 C :   -0.187156
   2 C :   -0.057664
   3 C :   -0.066527
   4 C :   -0.192152
   5 H :    0.028004
   6 C :   -0.037740
   7 H :    0.030666
   8 H :    0.038818
   9 C :   -0.051274
  10 H :    0.025884
  11 H :    0.030377
  12 C :   -0.064585
  13 H :    0.034969
  14 H :    0.014197
  15 H :    0.041397
  16 S :    0.432468
  17 C :   -0.190321
  18 C :   -0.071526
  19 C :   -0.050490
  20 C :   -0.226879
  21 H :    0.028581
  22 C :   -0.028297
  23 H :    0.036821
  24 H :    0.025680
  25 C :   -0.035995
  26 H :    0.024397
  27 H :    0.011645
  28 C :   -0.063153
  29 H :    0.029956
  30 H :    0.029463
  31 H :    0.022406
  32 H :    0.015951
  33 H :    0.036681

  Mayer bond orders larger than 0.100000
B(  0-S ,  1-C ) :   1.1434 B(  0-S ,  4-C ) :   1.1402 B(  1-C ,  2-C ) :   1.6004
B(  1-C ,  4-C ) :   0.1076 B(  1-C , 32-H ) :   0.9748 B(  2-C ,  3-C ) :   1.2591
B(  2-C ,  6-C ) :   0.9933 B(  3-C ,  4-C ) :   1.5719 B(  3-C ,  5-H ) :   0.9866
B(  4-C , 20-C ) :   1.0448 B(  6-C ,  7-H ) :   0.9411 B(  6-C ,  8-H ) :   0.9308
B(  6-C ,  9-C ) :   1.0730 B(  9-C , 10-H ) :   0.9543 B(  9-C , 11-H ) :   0.9540
B(  9-C , 12-C ) :   1.0627 B( 12-C , 13-H ) :   0.9732 B( 12-C , 14-H ) :   0.9817
B( 12-C , 15-H ) :   0.9734 B( 16-S , 17-C ) :   1.1436 B( 16-S , 20-C ) :   1.1650
B( 17-C , 18-C ) :   1.6297 B( 17-C , 33-H ) :   0.9605 B( 18-C , 19-C ) :   1.2297
B( 18-C , 21-H ) :   0.9919 B( 19-C , 20-C ) :   1.5820 B( 19-C , 22-C ) :   1.0489
B( 22-C , 23-H ) :   0.9238 B( 22-C , 24-H ) :   0.9297 B( 22-C , 25-C ) :   1.0694
B( 25-C , 26-H ) :   0.9530 B( 25-C , 27-H ) :   0.9565 B( 25-C , 28-C ) :   1.0827
B( 28-C , 29-H ) :   0.9734 B( 28-C , 30-H ) :   0.9742 B( 28-C , 31-H ) :   0.9716

Dispersion correction           -0.014301628
FINAL SINGLE POINT ENERGY     -1339.861532833714

DIPOLE MOMENT
-------------
                                X             Y             Z
Electronic contribution:     30.11778       0.39834       1.99095
Nuclear contribution   :    -30.66633      -0.47839      -1.83565
                        -----------------------------------------
Total Dipole Moment    :     -0.54856      -0.08006       0.15530
                        -----------------------------------------
Magnitude (a.u.)       :      0.57571
Magnitude (Debye)      :      1.46334

Rotational constants in cm-1:     0.015782     0.010377     0.007053
Rotational constants in MHz :   473.134129   311.105062   211.428792

                             ****ORCA TERMINATED NORMALLY****
TOTAL RUN TIME: 0 days 0 hours 0 minutes 28 seconds 564 msec
