                         Program Version 4.2.1 -  RELEASE  -
|  1> ! wB97X-D3 SP def2-SVP
|  2> %pal
|  3> nprocs 16
|  4> end
|  5>
|  6> * xyz 0 1
|  7> S 	 16.4865 	 2.0118 	 84.2417
|  8> C 	 17.1624 	 3.67973 	 84.384
|  9> C 	 16.3666 	 4.41601 	 85.2477
| 10> C 	 15.2552 	 3.69946 	 85.7904
| 11> C 	 15.0479 	 2.44677 	 85.2295
| 12> H 	 14.5539 	 4.07299 	 86.536
| 13> C 	 16.6274 	 5.8705 	 85.6253
| 14> H 	 17.4777 	 5.74101 	 86.257
| 15> H 	 15.8649 	 6.27652 	 86.3311
| 16> C 	 16.9783 	 6.97877 	 84.6802
| 17> H 	 17.9274 	 6.80672 	 84.1723
| 18> H 	 16.2781 	 7.16602 	 83.8971
| 19> C 	 17.1151 	 8.23696 	 85.4097
| 20> H 	 17.9668 	 8.3941 	 86.1136
| 21> H 	 17.323 	 9.10693 	 84.6951
| 22> H 	 16.2298 	 8.37118 	 85.9973
| 23> S 	 14.5439 	 0.00615879 	 86.4475
| 24> C 	 12.8396 	 -0.614706 	 86.4218
| 25> C 	 11.959 	 0.321507 	 85.9453
| 26> C 	 12.693 	 1.49574 	 85.4769
| 27> C 	 14.0547 	 1.46631 	 85.6024
| 28> H 	 10.8728 	 0.129309 	 85.8834
| 29> C 	 11.7353 	 2.63998 	 84.9828
| 30> H 	 11.0189 	 2.32785 	 84.2327
| 31> H 	 12.3952 	 3.51236 	 84.5871
| 32> C 	 11.0475 	 3.3135 	 86.1789
| 33> H 	 11.8529 	 3.65349 	 86.8359
| 34> H 	 10.4911 	 2.63007 	 86.8755
| 35> C 	 10.1756 	 4.53733 	 85.8448
| 36> H 	 10.2056 	 5.303 	 86.5928
| 37> H 	 9.19073 	 4.21704 	 85.6935
| 38> H 	 10.4226 	 5.03919 	 84.9435
| 39> H 	 18.0923 	 3.98284 	 83.8935
| 40> H 	 12.542 	 -1.51919 	 86.8263
| 41> *
| 42>
| 43>                          ****END OF INPUT****

CARTESIAN COORDINATES (ANGSTROEM)
---------------------------------
  S     16.486500    2.011800   84.241700
  C     17.162400    3.679730   84.384000
  C     16.366600    4.416010   85.247700
  C     15.255200    3.699460   85.790400
  C     15.047900    2.446770   85.229500
  H     14.553900    4.072990   86.536000
  C     16.627400    5.870500   85.625300
  H     17.477700    5.741010   86.257000
  H     15.864900    6.276520   86.331100
  C     16.978300    6.978770   84.680200
  H     17.927400    6.806720   84.172300
  H     16.278100    7.166020   83.897100
  C     17.115100    8.236960   85.409700
  H     17.966800    8.394100   86.113600
  H     17.323000    9.106930   84.695100
  H     16.229800    8.371180   85.997300
  S     14.543900    0.006159   86.447500
  C     12.839600   -0.614706   86.421800
  C     11.959000    0.321507   85.945300
  C     12.693000    1.495740   85.476900
  C     14.054700    1.466310   85.602400
  H     10.872800    0.129309   85.883400
  C     11.735300    2.639980   84.982800
  H     11.018900    2.327850   84.232700
  H     12.395200    3.512360   84.587100
  C     11.047500    3.313500   86.178900
  H     11.852900    3.653490   86.835900
  H     10.491100    2.630070   86.875500
  C     10.175600    4.537330   85.844800
  H     10.205600    5.303000   86.592800
  H      9.190730    4.217040   85.693500
  H     10.422600    5.039190   84.943500
  H     18.092300    3.982840   83.893500
  H     12.542000   -1.519190   86.826300

 Total Charge           Charge          ....    0
 Multiplicity           Mult            ....    1
 Number of Electrons    NEL             ....  134
 Basis Dimension        Dim             ....  322

ORBITAL ENERGIES
----------------

  NO   OCC          E(Eh)            E(eV)
   0   2.0000     -88.964431     -2420.8452
   1   2.0000     -88.964101     -2420.8363
   2   2.0000     -10.334318      -281.2111
   3   2.0000     -10.327904      -281.0366
   4   2.0000     -10.321947      -280.8745
   5   2.0000     -10.318551      -280.7820
   6   2.0000     -10.308176      -280.4997
   7   2.0000     -10.307237      -280.4742
   8   2.0000     -10.300555      -280.2923
   9   2.0000     -10.299688      -280.2687
  10   2.0000     -10.299297      -280.2581
  11   2.0000     -10.291491      -280.0457
  12   2.0000     -10.288354      -279.9604
  13   2.0000     -10.281562      -279.7755
  14   2.0000     -10.280863      -279.7565
  15   2.0000     -10.268297      -279.4146
  16   2.0000      -8.078052      -219.8150
  17   2.0000      -8.077671      -219.8046
  18   2.0000      -6.036832      -164.2705
  19   2.0000      -6.036349      -164.2574
  20   2.0000      -6.032809      -164.1611
  21   2.0000      -6.032426      -164.1507
  22   2.0000      -6.028410      -164.0414
  23   2.0000      -6.028285      -164.0380
  24   2.0000      -0.999682       -27.2027
  25   2.0000      -0.976019       -26.5588
  26   2.0000      -0.924349       -25.1528
  27   2.0000      -0.902486       -24.5579
  28   2.0000      -0.875343       -23.8193
  29   2.0000      -0.847980       -23.0747
  30   2.0000      -0.842899       -22.9364
  31   2.0000      -0.817174       -22.2364
  32   2.0000      -0.780510       -21.2387
  33   2.0000      -0.770685       -20.9714
  34   2.0000      -0.708868       -19.2893
  35   2.0000      -0.703414       -19.1409
  36   2.0000      -0.692522       -18.8445
  37   2.0000      -0.664592       -18.0845
  38   2.0000      -0.643885       -17.5210
  39   2.0000      -0.615315       -16.7436
  40   2.0000      -0.593188       -16.1415
  41   2.0000      -0.584089       -15.8939
  42   2.0000      -0.565764       -15.3952
  43   2.0000      -0.561962       -15.2918
  44   2.0000      -0.525780       -14.3072
  45   2.0000      -0.522539       -14.2190
  46   2.0000      -0.520549       -14.1649
  47   2.0000      -0.512845       -13.9552
  48   2.0000      -0.509417       -13.8619
  49   2.0000      -0.503478       -13.7003
  50   2.0000      -0.495761       -13.4904
  51   2.0000      -0.477389       -12.9904
  52   2.0000      -0.472014       -12.8442
  53   2.0000      -0.465940       -12.6789
  54   2.0000      -0.455324       -12.3900
  55   2.0000      -0.448595       -12.2069
  56   2.0000      -0.442834       -12.0501
  57   2.0000      -0.434299       -11.8179
  58   2.0000      -0.432783       -11.7766
  59   2.0000      -0.417136       -11.3508
  60   2.0000      -0.416229       -11.3262
  61   2.0000      -0.413591       -11.2544
  62   2.0000      -0.409449       -11.1417
  63   2.0000      -0.344408        -9.3718
  64   2.0000      -0.328100        -8.9281
  65   2.0000      -0.326440        -8.8829
  66   2.0000      -0.301070        -8.1925
  67   0.0000       0.029930         0.8144
  68   0.0000       0.061842         1.6828
  69   0.0000       0.105522         2.8714
  70   0.0000       0.117372         3.1939
  71   0.0000       0.128422         3.4946

MULLIKEN ATOMIC CHARGES
-----------------------
   0 S :    0.087896
   1 C :   -0.138491
   2 C :   -0.044741
   3 C :    0.033182
   4 C :   -0.159790
   5 H :    0.022671
   6 C :    0.025710
   7 H :    0.031071
   8 H :    0.014640
   9 C :    0.011453
  10 H :    0.015977
  11 H :    0.027800
  12 C :   -0.099064
  13 H :    0.030915
  14 H :    0.039899
  15 H :    0.024125
  16 S :    0.094024
  17 C :   -0.062138
  18 C :   -0.029853
  19 C :   -0.035309
  20 C :   -0.145633
  21 H :    0.042617
  22 C :    0.039931
  23 H :    0.038422
  24 H :    0.041780
  25 C :   -0.119799
  26 H :    0.020997
  27 H :    0.030766
  28 C :    0.012514
  29 H :    0.026634
  30 H :    0.018332
  31 H :    0.011878
  32 H :    0.061675
  33 H :    0.029909
Sum of atomic charges:    0.0000000

LOEWDIN ATOMIC CHARGES
----------------------
   0 S :    0.364487
   1 C :   -0.181078
   2 C :   -0.060935
   3 C :   -0.057051
   4 C :   -0.175515
   5 H :    0.034143
   6 C :   -0.039590
   7 H :    0.037311
   8 H :    0.031358
   9 C :   -0.043549
  10 H :    0.024386
  11 H :    0.025021
  12 C :   -0.069334
  13 H :    0.025779
  14 H :    0.035690
  15 H :    0.018968
  16 S :    0.371748
  17 C :   -0.145499
  18 C :   -0.067156
  19 C :   -0.048951
  20 C :   -0.205035
  21 H :    0.041695
  22 C :   -0.032151
  23 H :    0.025778
  24 H :    0.039473
  25 C :   -0.049380
  26 H :    0.021663
  27 H :    0.023351
  28 C :   -0.059268
  29 H :    0.026161
  30 H :    0.019576
  31 H :    0.021283
  32 H :    0.033404
  33 H :    0.013218

  Mayer bond orders larger than 0.100000
B(  0-S ,  1-C ) :   1.1199 B(  0-S ,  4-C ) :   1.1356 B(  1-C ,  2-C ) :   1.6108
B(  1-C ,  4-C ) :   0.1028 B(  1-C , 32-H ) :   0.9736 B(  2-C ,  3-C ) :   1.2365
B(  2-C ,  6-C ) :   0.9976 B(  3-C ,  4-C ) :   1.5831 B(  3-C ,  5-H ) :   0.9899
B(  4-C , 20-C ) :   1.0411 B(  6-C ,  7-H ) :   0.9286 B(  6-C ,  8-H ) :   0.9501
B(  6-C ,  9-C ) :   1.0774 B(  9-C , 10-H ) :   0.9384 B(  9-C , 11-H ) :   0.9509
B(  9-C , 12-C ) :   1.0873 B( 12-C , 13-H ) :   0.9744 B( 12-C , 14-H ) :   0.9695
B( 12-C , 15-H ) :   0.9728 B( 16-S , 17-C ) :   1.1273 B( 16-S , 20-C ) :   1.1090
B( 17-C , 18-C ) :   1.6551 B( 17-C , 33-H ) :   0.9745 B( 18-C , 19-C ) :   1.1864
B( 18-C , 21-H ) :   0.9846 B( 19-C , 20-C ) :   1.6692 B( 19-C , 22-C ) :   1.0403
B( 22-C , 23-H ) :   0.9477 B( 22-C , 24-H ) :   0.9349 B( 22-C , 25-C ) :   1.0525
B( 25-C , 26-H ) :   0.9574 B( 25-C , 27-H ) :   0.9572 B( 25-C , 28-C ) :   1.0734
B( 28-C , 29-H ) :   0.9766 B( 28-C , 30-H ) :   0.9742 B( 28-C , 31-H ) :   0.9717

Dispersion correction           -0.013525144
FINAL SINGLE POINT ENERGY     -1339.859038312285

DIPOLE MOMENT
-------------
                                X             Y             Z
Electronic contribution:      9.86799     -29.98342      -1.81891
Nuclear contribution   :    -10.21164      30.62543       2.01119
                        -----------------------------------------
Total Dipole Moment    :     -0.34365       0.64201       0.19228
                        -----------------------------------------
Magnitude (a.u.)       :      0.75316
Magnitude (Debye)      :      1.91438

Rotational constants in cm-1:     0.017890     0.008136     0.006002
Rotational constants in MHz :   536.323896   243.899873   179.936664

                             ****ORCA TERMINATED NORMALLY****
TOTAL RUN TIME: 0 days 0 hours 0 minutes 34 seconds 936 msec
