                         Program Version 4.2.1 -  RELEASE  -
|  1> ! wB97X-D3 SP def2-SVP
|  2> %pal
|  3> nprocs 16
|  4> end
|  5>
|  6> * xyz 0 1
|  7> S 	 41.1403 	 9.88157 	 82.3586
|  8> C 	 39.9001 	 10.1284 	 83.6168
|  9> C 	 40.5491 	 10.5764 	 84.7932
| 10> C 	 41.8271 	 11.0734 	 84.4967
| 11> C 	 42.3053 	 10.8861 	 83.2436
| 12> H 	 42.5224 	 11.6395 	 85.1347
| 13> C 	 39.8923 	 10.7315 	 86.1551
| 14> H 	 38.8023 	 10.5478 	 86.0765
| 15> H 	 39.9319 	 11.7969 	 86.4019
| 16> C 	 40.5313 	 9.78222 	 87.1792
| 17> H 	 40.7016 	 8.7628 	 86.6664
| 18> H 	 41.5165 	 10.1436 	 87.4258
| 19> C 	 39.8522 	 9.57299 	 88.4989
| 20> H 	 38.9871 	 8.96839 	 88.4896
| 21> H 	 40.5279 	 9.15587 	 89.3105
| 22> H 	 39.7008 	 10.61 	 88.9639
| 23> S 	 44.809 	 9.85032 	 82.4646
| 24> C 	 46.1534 	 10.9381 	 82.2447
| 25> C 	 45.7864 	 12.2736 	 82.5127
| 26> C 	 44.4082 	 12.3644 	 82.7806
| 27> C 	 43.6807 	 11.1644 	 82.8212
| 28> H 	 46.3834 	 13.1337 	 82.5235
| 29> C 	 43.8083 	 13.7307 	 82.9355
| 30> H 	 44.3271 	 14.2615 	 83.7682
| 31> H 	 42.792 	 13.7025 	 83.2053
| 32> C 	 43.7889 	 14.6542 	 81.728
| 33> H 	 44.7178 	 15.0477 	 81.4498
| 34> H 	 43.2852 	 15.5843 	 81.9362
| 35> C 	 43.2515 	 13.9526 	 80.439
| 36> H 	 43.0147 	 14.6968 	 79.6457
| 37> H 	 42.3469 	 13.466 	 80.6474
| 38> H 	 43.936 	 13.1624 	 80.0145
| 39> H 	 38.9763 	 9.57979 	 83.7134
| 40> H 	 47.2173 	 10.6198 	 82.2315
| 41> *
| 42>
| 43>                          ****END OF INPUT****

CARTESIAN COORDINATES (ANGSTROEM)
---------------------------------
  S     41.140300    9.881570   82.358600
  C     39.900100   10.128400   83.616800
  C     40.549100   10.576400   84.793200
  C     41.827100   11.073400   84.496700
  C     42.305300   10.886100   83.243600
  H     42.522400   11.639500   85.134700
  C     39.892300   10.731500   86.155100
  H     38.802300   10.547800   86.076500
  H     39.931900   11.796900   86.401900
  C     40.531300    9.782220   87.179200
  H     40.701600    8.762800   86.666400
  H     41.516500   10.143600   87.425800
  C     39.852200    9.572990   88.498900
  H     38.987100    8.968390   88.489600
  H     40.527900    9.155870   89.310500
  H     39.700800   10.610000   88.963900
  S     44.809000    9.850320   82.464600
  C     46.153400   10.938100   82.244700
  C     45.786400   12.273600   82.512700
  C     44.408200   12.364400   82.780600
  C     43.680700   11.164400   82.821200
  H     46.383400   13.133700   82.523500
  C     43.808300   13.730700   82.935500
  H     44.327100   14.261500   83.768200
  H     42.792000   13.702500   83.205300
  C     43.788900   14.654200   81.728000
  H     44.717800   15.047700   81.449800
  H     43.285200   15.584300   81.936200
  C     43.251500   13.952600   80.439000
  H     43.014700   14.696800   79.645700
  H     42.346900   13.466000   80.647400
  H     43.936000   13.162400   80.014500
  H     38.976300    9.579790   83.713400
  H     47.217300   10.619800   82.231500

 Total Charge           Charge          ....    0
 Multiplicity           Mult            ....    1
 Number of Electrons    NEL             ....  134
 Basis Dimension        Dim             ....  322

ORBITAL ENERGIES
----------------

  NO   OCC          E(Eh)            E(eV)
   0   2.0000     -88.969851     -2420.9927
   1   2.0000     -88.966570     -2420.9034
   2   2.0000     -10.331765      -281.1416
   3   2.0000     -10.331022      -281.1214
   4   2.0000     -10.326195      -280.9901
   5   2.0000     -10.320084      -280.8238
   6   2.0000     -10.306159      -280.4449
   7   2.0000     -10.301417      -280.3158
   8   2.0000     -10.298196      -280.2282
   9   2.0000     -10.293372      -280.0969
  10   2.0000     -10.291933      -280.0577
  11   2.0000     -10.291900      -280.0568
  12   2.0000     -10.284774      -279.8629
  13   2.0000     -10.284374      -279.8520
  14   2.0000     -10.277874      -279.6752
  15   2.0000     -10.271483      -279.5013
  16   2.0000      -8.084159      -219.9811
  17   2.0000      -8.080304      -219.8762
  18   2.0000      -6.042685      -164.4298
  19   2.0000      -6.038955      -164.3283
  20   2.0000      -6.038561      -164.3176
  21   2.0000      -6.035075      -164.2227
  22   2.0000      -6.035012      -164.2210
  23   2.0000      -6.030886      -164.1087
  24   2.0000      -1.005638       -27.3648
  25   2.0000      -0.984537       -26.7906
  26   2.0000      -0.912582       -24.8326
  27   2.0000      -0.908955       -24.7339
  28   2.0000      -0.870092       -23.6764
  29   2.0000      -0.849022       -23.1031
  30   2.0000      -0.845358       -23.0033
  31   2.0000      -0.814570       -22.1656
  32   2.0000      -0.782262       -21.2864
  33   2.0000      -0.771119       -20.9832
  34   2.0000      -0.708445       -19.2778
  35   2.0000      -0.697485       -18.9795
  36   2.0000      -0.693794       -18.8791
  37   2.0000      -0.664655       -18.0862
  38   2.0000      -0.644310       -17.5326
  39   2.0000      -0.616589       -16.7782
  40   2.0000      -0.598172       -16.2771
  41   2.0000      -0.572787       -15.5863
  42   2.0000      -0.563223       -15.3261
  43   2.0000      -0.550198       -14.9716
  44   2.0000      -0.538955       -14.6657
  45   2.0000      -0.519346       -14.1321
  46   2.0000      -0.514131       -13.9902
  47   2.0000      -0.509112       -13.8536
  48   2.0000      -0.508363       -13.8333
  49   2.0000      -0.502628       -13.6772
  50   2.0000      -0.491883       -13.3848
  51   2.0000      -0.475223       -12.9315
  52   2.0000      -0.470958       -12.8154
  53   2.0000      -0.462889       -12.5958
  54   2.0000      -0.459972       -12.5165
  55   2.0000      -0.450791       -12.2667
  56   2.0000      -0.449084       -12.2202
  57   2.0000      -0.431308       -11.7365
  58   2.0000      -0.425754       -11.5854
  59   2.0000      -0.420040       -11.4299
  60   2.0000      -0.416346       -11.3293
  61   2.0000      -0.413537       -11.2529
  62   2.0000      -0.409918       -11.1544
  63   2.0000      -0.345587        -9.4039
  64   2.0000      -0.332698        -9.0532
  65   2.0000      -0.329021        -8.9531
  66   2.0000      -0.296090        -8.0570
  67   0.0000       0.027119         0.7380
  68   0.0000       0.052547         1.4299
  69   0.0000       0.111932         3.0458
  70   0.0000       0.122131         3.3233
  71   0.0000       0.127052         3.4573

MULLIKEN ATOMIC CHARGES
-----------------------
   0 S :    0.094551
   1 C :   -0.091082
   2 C :   -0.118777
   3 C :    0.042107
   4 C :   -0.162387
   5 H :    0.018805
   6 C :    0.071687
   7 H :    0.017582
   8 H :    0.037433
   9 C :   -0.093171
  10 H :    0.045609
  11 H :    0.025513
  12 C :   -0.056522
  13 H :    0.037065
  14 H :    0.038270
  15 H :    0.029351
  16 S :    0.112343
  17 C :   -0.099807
  18 C :   -0.003065
  19 C :   -0.062256
  20 C :   -0.149615
  21 H :    0.001806
  22 C :    0.069217
  23 H :    0.030602
  24 H :    0.012259
  25 C :   -0.039863
  26 H :   -0.000046
  27 H :    0.018923
  28 C :   -0.066999
  29 H :    0.034513
  30 H :    0.016882
  31 H :    0.053075
  32 H :    0.056222
  33 H :    0.079777
Sum of atomic charges:   -0.0000000

LOEWDIN ATOMIC CHARGES
----------------------
   0 S :    0.381018
   1 C :   -0.189688
   2 C :   -0.057502
   3 C :   -0.062884
   4 C :   -0.188447
   5 H :    0.036150
   6 C :   -0.033113
   7 H :    0.030316
   8 H :    0.033284
   9 C :   -0.050691
  10 H :    0.035109
  11 H :    0.023668
  12 C :   -0.074272
  13 H :    0.016875
  14 H :    0.035921
  15 H :    0.033279
  16 S :    0.412995
  17 C :   -0.191600
  18 C :   -0.061420
  19 C :   -0.056823
  20 C :   -0.199023
  21 H :    0.025252
  22 C :   -0.034297
  23 H :    0.035724
  24 H :    0.022822
  25 C :   -0.037547
  26 H :    0.009874
  27 H :    0.025424
  28 C :   -0.066757
  29 H :    0.028872
  30 H :    0.014219
  31 H :    0.035373
  32 H :    0.028369
  33 H :    0.039517

  Mayer bond orders larger than 0.100000
B(  0-S ,  1-C ) :   1.1361 B(  0-S ,  4-C ) :   1.1301 B(  1-C ,  2-C ) :   1.6010
B(  1-C ,  4-C ) :   0.1061 B(  1-C , 32-H ) :   0.9612 B(  2-C ,  3-C ) :   1.2331
B(  2-C ,  6-C ) :   1.0346 B(  3-C ,  4-C ) :   1.5974 B(  3-C ,  5-H ) :   0.9887
B(  4-C , 20-C ) :   1.0397 B(  6-C ,  7-H ) :   0.9439 B(  6-C ,  8-H ) :   0.9412
B(  6-C ,  9-C ) :   1.0424 B(  9-C , 10-H ) :   0.9566 B(  9-C , 11-H ) :   0.9519
B(  9-C , 12-C ) :   1.0970 B( 12-C , 13-H ) :   0.9769 B( 12-C , 14-H ) :   0.9720
B( 12-C , 15-H ) :   0.9662 B( 16-S , 17-C ) :   1.1816 B( 16-S , 20-C ) :   1.1377
B( 17-C , 18-C ) :   1.5429 B( 17-C , 20-C ) :   0.1036 B( 17-C , 33-H ) :   0.9602
B( 18-C , 19-C ) :   1.2918 B( 18-C , 21-H ) :   0.9990 B( 19-C , 20-C ) :   1.5647
B( 19-C , 22-C ) :   1.0557 B( 22-C , 23-H ) :   0.9308 B( 22-C , 24-H ) :   0.9331
B( 22-C , 25-C ) :   1.0782 B( 25-C , 26-H ) :   0.9499 B( 25-C , 27-H ) :   0.9538
B( 25-C , 28-C ) :   1.0698 B( 28-C , 29-H ) :   0.9745 B( 28-C , 30-H ) :   0.9798
B( 28-C , 31-H ) :   0.9708

Dispersion correction           -0.014585321
FINAL SINGLE POINT ENERGY     -1339.863474689823

DIPOLE MOMENT
-------------
                                X             Y             Z
Electronic contribution:      7.36762     -12.95689     -13.20202
Nuclear contribution   :     -7.29040      13.32531      13.87748
                        -----------------------------------------
Total Dipole Moment    :      0.07722       0.36842       0.67546
                        -----------------------------------------
Magnitude (a.u.)       :      0.77327
Magnitude (Debye)      :      1.96549

Rotational constants in cm-1:     0.020843     0.007368     0.007074
Rotational constants in MHz :   624.854636   220.890610   212.084529

                             ****ORCA TERMINATED NORMALLY****
TOTAL RUN TIME: 0 days 0 hours 0 minutes 30 seconds 168 msec
