                         Program Version 4.2.1 -  RELEASE  -
|  1> ! wB97X-D3 SP def2-SVP
|  2> %pal
|  3> nprocs 16
|  4> end
|  5>
|  6> * xyz 0 1
|  7> S 	 -23.5582 	 46.7133 	 60.2068
|  8> C 	 -23.8818 	 48.4134 	 60.5796
|  9> C 	 -24.1185 	 49.0947 	 59.3982
| 10> C 	 -24.3116 	 48.229 	 58.3066
| 11> C 	 -24.2206 	 46.8638 	 58.5647
| 12> H 	 -24.4485 	 48.68 	 57.3464
| 13> C 	 -24.3714 	 50.6052 	 59.3372
| 14> H 	 -23.8799 	 50.9526 	 58.5047
| 15> H 	 -23.8642 	 51.0118 	 60.1696
| 16> C 	 -25.8969 	 51.0658 	 59.5773
| 17> H 	 -25.9343 	 52.185 	 59.538
| 18> H 	 -26.7156 	 50.6814 	 58.9003
| 19> C 	 -26.3674 	 50.7948 	 61.0196
| 20> H 	 -27.3358 	 51.2321 	 61.2565
| 21> H 	 -26.4987 	 49.688 	 61.1982
| 22> H 	 -25.5453 	 51.1817 	 61.623
| 23> S 	 -23.1945 	 44.5298 	 57.5675
| 24> C 	 -23.8533 	 43.7934 	 56.1632
| 25> C 	 -25.0316 	 44.3835 	 55.8229
| 26> C 	 -25.2978 	 45.6557 	 56.5322
| 27> C 	 -24.4095 	 45.8284 	 57.5523
| 28> H 	 -25.4754 	 44.0307 	 54.8819
| 29> C 	 -26.3459 	 46.6433 	 56.1618
| 30> H 	 -26.9105 	 46.2847 	 55.3184
| 31> H 	 -25.8216 	 47.4949 	 55.9578
| 32> C 	 -27.528 	 46.9048 	 57.1773
| 33> H 	 -28.2989 	 47.5289 	 56.8231
| 34> H 	 -27.1305 	 47.3281 	 58.2041
| 35> C 	 -28.43 	 45.6689 	 57.4976
| 36> H 	 -29.1807 	 45.5854 	 56.7373
| 37> H 	 -28.9507 	 45.9062 	 58.3979
| 38> H 	 -27.8509 	 44.7241 	 57.5443
| 39> H 	 -23.5529 	 48.8912 	 61.5038
| 40> H 	 -23.285 	 43.1426 	 55.5229
| 41> *
| 42>
| 43>                          ****END OF INPUT****

CARTESIAN COORDINATES (ANGSTROEM)
---------------------------------
  S    -23.558200   46.713300   60.206800
  C    -23.881800   48.413400   60.579600
  C    -24.118500   49.094700   59.398200
  C    -24.311600   48.229000   58.306600
  C    -24.220600   46.863800   58.564700
  H    -24.448500   48.680000   57.346400
  C    -24.371400   50.605200   59.337200
  H    -23.879900   50.952600   58.504700
  H    -23.864200   51.011800   60.169600
  C    -25.896900   51.065800   59.577300
  H    -25.934300   52.185000   59.538000
  H    -26.715600   50.681400   58.900300
  C    -26.367400   50.794800   61.019600
  H    -27.335800   51.232100   61.256500
  H    -26.498700   49.688000   61.198200
  H    -25.545300   51.181700   61.623000
  S    -23.194500   44.529800   57.567500
  C    -23.853300   43.793400   56.163200
  C    -25.031600   44.383500   55.822900
  C    -25.297800   45.655700   56.532200
  C    -24.409500   45.828400   57.552300
  H    -25.475400   44.030700   54.881900
  C    -26.345900   46.643300   56.161800
  H    -26.910500   46.284700   55.318400
  H    -25.821600   47.494900   55.957800
  C    -27.528000   46.904800   57.177300
  H    -28.298900   47.528900   56.823100
  H    -27.130500   47.328100   58.204100
  C    -28.430000   45.668900   57.497600
  H    -29.180700   45.585400   56.737300
  H    -28.950700   45.906200   58.397900
  H    -27.850900   44.724100   57.544300
  H    -23.552900   48.891200   61.503800
  H    -23.285000   43.142600   55.522900

 Total Charge           Charge          ....    0
 Multiplicity           Mult            ....    1
 Number of Electrons    NEL             ....  134
 Basis Dimension        Dim             ....  322

ORBITAL ENERGIES
----------------

  NO   OCC          E(Eh)            E(eV)
   0   2.0000     -88.967903     -2420.9397
   1   2.0000     -88.959909     -2420.7222
   2   2.0000     -10.336495      -281.2703
   3   2.0000     -10.329725      -281.0861
   4   2.0000     -10.316282      -280.7203
   5   2.0000     -10.315501      -280.6991
   6   2.0000     -10.309510      -280.5360
   7   2.0000     -10.300506      -280.2910
   8   2.0000     -10.299137      -280.2538
   9   2.0000     -10.299063      -280.2518
  10   2.0000     -10.293387      -280.0973
  11   2.0000     -10.290525      -280.0194
  12   2.0000     -10.290409      -280.0163
  13   2.0000     -10.287757      -279.9441
  14   2.0000     -10.280205      -279.7386
  15   2.0000     -10.271103      -279.4909
  16   2.0000      -8.081649      -219.9129
  17   2.0000      -8.075581      -219.7477
  18   2.0000      -6.040373      -164.3669
  19   2.0000      -6.036362      -164.2578
  20   2.0000      -6.034158      -164.1978
  21   2.0000      -6.032154      -164.1433
  22   2.0000      -6.029917      -164.0824
  23   2.0000      -6.026255      -163.9827
  24   2.0000      -1.007344       -27.4112
  25   2.0000      -0.985346       -26.8126
  26   2.0000      -0.908561       -24.7232
  27   2.0000      -0.905476       -24.6393
  28   2.0000      -0.869465       -23.6593
  29   2.0000      -0.850735       -23.1497
  30   2.0000      -0.843652       -22.9569
  31   2.0000      -0.815842       -22.2002
  32   2.0000      -0.786663       -21.4062
  33   2.0000      -0.776069       -21.1179
  34   2.0000      -0.709693       -19.3117
  35   2.0000      -0.691935       -18.8285
  36   2.0000      -0.687765       -18.7150
  37   2.0000      -0.663761       -18.0619
  38   2.0000      -0.635333       -17.2883
  39   2.0000      -0.625731       -17.0270
  40   2.0000      -0.587984       -15.9999
  41   2.0000      -0.567060       -15.4305
  42   2.0000      -0.563402       -15.3310
  43   2.0000      -0.558542       -15.1987
  44   2.0000      -0.553709       -15.0672
  45   2.0000      -0.536484       -14.5985
  46   2.0000      -0.515811       -14.0359
  47   2.0000      -0.513390       -13.9701
  48   2.0000      -0.505573       -13.7574
  49   2.0000      -0.490497       -13.3471
  50   2.0000      -0.486050       -13.2261
  51   2.0000      -0.482840       -13.1387
  52   2.0000      -0.471055       -12.8181
  53   2.0000      -0.464529       -12.6405
  54   2.0000      -0.454329       -12.3629
  55   2.0000      -0.449282       -12.2256
  56   2.0000      -0.445960       -12.1352
  57   2.0000      -0.436478       -11.8772
  58   2.0000      -0.428155       -11.6507
  59   2.0000      -0.423270       -11.5178
  60   2.0000      -0.415574       -11.3083
  61   2.0000      -0.411087       -11.1862
  62   2.0000      -0.406349       -11.0573
  63   2.0000      -0.357852        -9.7377
  64   2.0000      -0.331131        -9.0105
  65   2.0000      -0.327009        -8.8984
  66   2.0000      -0.288224        -7.8430
  67   0.0000       0.021767         0.5923
  68   0.0000       0.064710         1.7608
  69   0.0000       0.103787         2.8242
  70   0.0000       0.122865         3.3433
  71   0.0000       0.128850         3.5062

MULLIKEN ATOMIC CHARGES
-----------------------
   0 S :    0.103698
   1 C :   -0.127541
   2 C :   -0.119776
   3 C :    0.009782
   4 C :   -0.093133
   5 H :   -0.000350
   6 C :    0.134597
   7 H :    0.012414
   8 H :    0.000120
   9 C :   -0.097934
  10 H :    0.038363
  11 H :    0.047118
  12 C :   -0.083816
  13 H :    0.041142
  14 H :    0.052394
  15 H :    0.023620
  16 S :    0.084908
  17 C :   -0.092557
  18 C :   -0.025073
  19 C :   -0.090059
  20 C :   -0.138686
  21 H :    0.027134
  22 C :    0.141659
  23 H :    0.008616
  24 H :    0.015774
  25 C :   -0.122228
  26 H :    0.023900
  27 H :    0.059389
  28 C :   -0.053904
  29 H :    0.017469
  30 H :    0.031330
  31 H :    0.048625
  32 H :    0.057901
  33 H :    0.065105
Sum of atomic charges:   -0.0000000

LOEWDIN ATOMIC CHARGES
----------------------
   0 S :    0.388737
   1 C :   -0.193861
   2 C :   -0.064547
   3 C :   -0.064988
   4 C :   -0.182719
   5 H :    0.025444
   6 C :   -0.015967
   7 H :    0.019894
   8 H :    0.024890
   9 C :   -0.041856
  10 H :    0.027746
  11 H :    0.027869
  12 C :   -0.072370
  13 H :    0.026431
  14 H :    0.030362
  15 H :    0.020357
  16 S :    0.392184
  17 C :   -0.186225
  18 C :   -0.076103
  19 C :   -0.050692
  20 C :   -0.177206
  21 H :    0.033638
  22 C :   -0.024123
  23 H :    0.032296
  24 H :    0.020361
  25 C :   -0.040793
  26 H :    0.017629
  27 H :    0.032300
  28 C :   -0.062759
  29 H :    0.016427
  30 H :    0.025748
  31 H :    0.028221
  32 H :    0.031251
  33 H :    0.032424

  Mayer bond orders larger than 0.100000
B(  0-S ,  1-C ) :   1.1339 B(  0-S ,  4-C ) :   1.1434 B(  1-C ,  2-C ) :   1.5853
B(  1-C ,  4-C ) :   0.1053 B(  1-C , 32-H ) :   0.9638 B(  2-C ,  3-C ) :   1.2870
B(  2-C ,  6-C ) :   1.0295 B(  3-C ,  4-C ) :   1.5161 B(  3-C ,  5-H ) :   0.9976
B(  4-C , 20-C ) :   1.0757 B(  6-C ,  7-H ) :   0.9404 B(  6-C ,  8-H ) :   0.9347
B(  6-C ,  9-C ) :   1.0434 B(  9-C , 10-H ) :   0.9596 B(  9-C , 11-H ) :   0.9619
B(  9-C , 12-C ) :   1.0681 B( 12-C , 13-H ) :   0.9736 B( 12-C , 14-H ) :   0.9734
B( 12-C , 15-H ) :   0.9763 B( 16-S , 17-C ) :   1.1558 B( 16-S , 20-C ) :   1.1162
B( 17-C , 18-C ) :   1.6440 B( 17-C , 33-H ) :   0.9664 B( 18-C , 19-C ) :   1.1986
B( 18-C , 21-H ) :   0.9805 B( 19-C , 20-C ) :   1.6300 B( 19-C , 22-C ) :   1.0491
B( 22-C , 23-H ) :   0.9254 B( 22-C , 24-H ) :   0.9285 B( 22-C , 25-C ) :   1.0645
B( 25-C , 26-H ) :   0.9631 B( 25-C , 27-H ) :   0.9602 B( 25-C , 28-C ) :   1.0594
B( 28-C , 29-H ) :   0.9795 B( 28-C , 30-H ) :   0.9747 B( 28-C , 31-H ) :   0.9791

Dispersion correction           -0.015163596
FINAL SINGLE POINT ENERGY     -1339.846923777259

DIPOLE MOMENT
-------------
                                X             Y             Z
Electronic contribution:     21.53309     -18.49201       0.03669
Nuclear contribution   :    -21.80995      19.09073      -0.51392
                        -----------------------------------------
Total Dipole Moment    :     -0.27687       0.59872      -0.47723
                        -----------------------------------------
Magnitude (a.u.)       :      0.81417
Magnitude (Debye)      :      2.06945

Rotational constants in cm-1:     0.020316     0.009240     0.007223
Rotational constants in MHz :   609.061976   277.014371   216.531508

                             ****ORCA TERMINATED NORMALLY****
TOTAL RUN TIME: 0 days 0 hours 0 minutes 36 seconds 753 msec
