                         Program Version 4.2.1 -  RELEASE  -
|  1> ! wB97X-D3 SP def2-SVP
|  2> %pal
|  3> nprocs 16
|  4> end
|  5>
|  6> * xyz 0 1
|  7> S 	 35.4509 	 23.212 	 46.7058
|  8> C 	 36.3214 	 24.6995 	 47.1482
|  9> C 	 37.4614 	 24.3309 	 47.9038
| 10> C 	 37.7464 	 22.9258 	 47.9947
| 11> C 	 36.7453 	 22.1438 	 47.4405
| 12> H 	 38.5514 	 22.4553 	 48.5383
| 13> C 	 38.4478 	 25.3271 	 48.5023
| 14> H 	 38.3167 	 26.2702 	 47.9505
| 15> H 	 39.3842 	 24.9691 	 48.2298
| 16> C 	 38.1771 	 25.7087 	 49.929
| 17> H 	 37.2613 	 26.3451 	 49.9986
| 18> H 	 37.9989 	 24.8162 	 50.5473
| 19> C 	 39.3404 	 26.4104 	 50.5946
| 20> H 	 39.8496 	 27.0488 	 49.881
| 21> H 	 39.1109 	 27.0694 	 51.3866
| 22> H 	 40.1216 	 25.6404 	 50.7608
| 23> S 	 37.1626 	 19.844 	 45.8623
| 24> C 	 36.8181 	 18.2905 	 46.5697
| 25> C 	 36.6599 	 18.3668 	 47.9048
| 26> C 	 36.6497 	 19.7552 	 48.3664
| 27> C 	 36.711 	 20.66 	 47.3601
| 28> H 	 36.482 	 17.4332 	 48.4929
| 29> C 	 36.3776 	 20.1037 	 49.8055
| 30> H 	 35.3071 	 19.8431 	 49.8763
| 31> H 	 36.5437 	 21.1667 	 50.0122
| 32> C 	 37.2682 	 19.3021 	 50.7984
| 33> H 	 38.3667 	 19.5411 	 50.8497
| 34> H 	 37.3152 	 18.2699 	 50.4252
| 35> C 	 36.6178 	 19.2191 	 52.1896
| 36> H 	 37.325 	 18.5176 	 52.6751
| 37> H 	 35.6355 	 18.7734 	 52.2073
| 38> H 	 36.5565 	 20.2657 	 52.6366
| 39> H 	 36.0619 	 25.6407 	 46.8269
| 40> H 	 36.8715 	 17.3476 	 46.074
| 41> *
| 42>
| 43>                          ****END OF INPUT****

CARTESIAN COORDINATES (ANGSTROEM)
---------------------------------
  S     35.450900   23.212000   46.705800
  C     36.321400   24.699500   47.148200
  C     37.461400   24.330900   47.903800
  C     37.746400   22.925800   47.994700
  C     36.745300   22.143800   47.440500
  H     38.551400   22.455300   48.538300
  C     38.447800   25.327100   48.502300
  H     38.316700   26.270200   47.950500
  H     39.384200   24.969100   48.229800
  C     38.177100   25.708700   49.929000
  H     37.261300   26.345100   49.998600
  H     37.998900   24.816200   50.547300
  C     39.340400   26.410400   50.594600
  H     39.849600   27.048800   49.881000
  H     39.110900   27.069400   51.386600
  H     40.121600   25.640400   50.760800
  S     37.162600   19.844000   45.862300
  C     36.818100   18.290500   46.569700
  C     36.659900   18.366800   47.904800
  C     36.649700   19.755200   48.366400
  C     36.711000   20.660000   47.360100
  H     36.482000   17.433200   48.492900
  C     36.377600   20.103700   49.805500
  H     35.307100   19.843100   49.876300
  H     36.543700   21.166700   50.012200
  C     37.268200   19.302100   50.798400
  H     38.366700   19.541100   50.849700
  H     37.315200   18.269900   50.425200
  C     36.617800   19.219100   52.189600
  H     37.325000   18.517600   52.675100
  H     35.635500   18.773400   52.207300
  H     36.556500   20.265700   52.636600
  H     36.061900   25.640700   46.826900
  H     36.871500   17.347600   46.074000

 Total Charge           Charge          ....    0
 Multiplicity           Mult            ....    1
 Number of Electrons    NEL             ....  134
 Basis Dimension        Dim             ....  322

ORBITAL ENERGIES
----------------

  NO   OCC          E(Eh)            E(eV)
   0   2.0000     -88.965077     -2420.8628
   1   2.0000     -88.959633     -2420.7147
   2   2.0000     -10.338063      -281.3130
   3   2.0000     -10.323039      -280.9042
   4   2.0000     -10.317941      -280.7655
   5   2.0000     -10.313291      -280.6389
   6   2.0000     -10.305726      -280.4331
   7   2.0000     -10.302510      -280.3455
   8   2.0000     -10.298762      -280.2436
   9   2.0000     -10.295937      -280.1667
  10   2.0000     -10.291912      -280.0572
  11   2.0000     -10.291396      -280.0431
  12   2.0000     -10.286419      -279.9077
  13   2.0000     -10.284942      -279.8675
  14   2.0000     -10.284377      -279.8521
  15   2.0000     -10.273867      -279.5661
  16   2.0000      -8.078016      -219.8140
  17   2.0000      -8.074761      -219.7254
  18   2.0000      -6.036692      -164.2667
  19   2.0000      -6.033457      -164.1787
  20   2.0000      -6.032700      -164.1581
  21   2.0000      -6.029372      -164.0676
  22   2.0000      -6.028775      -164.0513
  23   2.0000      -6.025134      -163.9522
  24   2.0000      -1.002365       -27.2758
  25   2.0000      -0.976357       -26.5680
  26   2.0000      -0.914364       -24.8811
  27   2.0000      -0.907318       -24.6894
  28   2.0000      -0.869902       -23.6712
  29   2.0000      -0.847957       -23.0741
  30   2.0000      -0.845173       -22.9983
  31   2.0000      -0.819618       -22.3029
  32   2.0000      -0.778269       -21.1778
  33   2.0000      -0.766925       -20.8691
  34   2.0000      -0.702680       -19.1209
  35   2.0000      -0.700174       -19.0527
  36   2.0000      -0.696794       -18.9607
  37   2.0000      -0.653523       -17.7833
  38   2.0000      -0.648282       -17.6407
  39   2.0000      -0.617441       -16.8014
  40   2.0000      -0.597362       -16.2550
  41   2.0000      -0.572043       -15.5661
  42   2.0000      -0.564819       -15.3695
  43   2.0000      -0.554376       -15.0853
  44   2.0000      -0.532853       -14.4997
  45   2.0000      -0.530682       -14.4406
  46   2.0000      -0.521483       -14.1903
  47   2.0000      -0.513550       -13.9744
  48   2.0000      -0.509295       -13.8586
  49   2.0000      -0.500677       -13.6241
  50   2.0000      -0.496772       -13.5178
  51   2.0000      -0.475881       -12.9494
  52   2.0000      -0.471955       -12.8426
  53   2.0000      -0.460372       -12.5274
  54   2.0000      -0.455452       -12.3935
  55   2.0000      -0.448582       -12.2065
  56   2.0000      -0.443831       -12.0772
  57   2.0000      -0.441281       -12.0079
  58   2.0000      -0.440540       -11.9877
  59   2.0000      -0.413692       -11.2571
  60   2.0000      -0.412937       -11.2366
  61   2.0000      -0.407894       -11.0994
  62   2.0000      -0.404624       -11.0104
  63   2.0000      -0.339161        -9.2291
  64   2.0000      -0.327586        -8.9141
  65   2.0000      -0.323069        -8.7912
  66   2.0000      -0.306945        -8.3524
  67   0.0000       0.033699         0.9170
  68   0.0000       0.063124         1.7177
  69   0.0000       0.110276         3.0008
  70   0.0000       0.118940         3.2365
  71   0.0000       0.127523         3.4701

MULLIKEN ATOMIC CHARGES
-----------------------
   0 S :    0.090693
   1 C :   -0.078482
   2 C :   -0.117510
   3 C :    0.065859
   4 C :   -0.186170
   5 H :    0.020457
   6 C :    0.081786
   7 H :    0.013823
   8 H :    0.010731
   9 C :   -0.072302
  10 H :    0.032820
  11 H :    0.027388
  12 C :   -0.020112
  13 H :    0.007570
  14 H :    0.034345
  15 H :    0.030459
  16 S :    0.100587
  17 C :   -0.068631
  18 C :   -0.054986
  19 C :   -0.035977
  20 C :   -0.153173
  21 H :    0.043059
  22 C :    0.077404
  23 H :    0.048663
  24 H :    0.035346
  25 C :   -0.124042
  26 H :    0.042512
  27 H :    0.014639
  28 C :   -0.055246
  29 H :    0.038549
  30 H :    0.035049
  31 H :    0.047368
  32 H :    0.022014
  33 H :    0.045509
Sum of atomic charges:   -0.0000000

LOEWDIN ATOMIC CHARGES
----------------------
   0 S :    0.363560
   1 C :   -0.173940
   2 C :   -0.055130
   3 C :   -0.057180
   4 C :   -0.165668
   5 H :    0.035282
   6 C :   -0.031156
   7 H :    0.033113
   8 H :    0.019853
   9 C :   -0.043394
  10 H :    0.028977
  11 H :    0.021796
  12 C :   -0.065790
  13 H :    0.020636
  14 H :    0.022327
  15 H :    0.030910
  16 S :    0.389981
  17 C :   -0.172278
  18 C :   -0.083158
  19 C :   -0.051180
  20 C :   -0.206022
  21 H :    0.040623
  22 C :   -0.032729
  23 H :    0.042475
  24 H :    0.030571
  25 C :   -0.049442
  26 H :    0.031805
  27 H :    0.018495
  28 C :   -0.068424
  29 H :    0.031595
  30 H :    0.021648
  31 H :    0.032081
  32 H :    0.012471
  33 H :    0.027292

  Mayer bond orders larger than 0.100000
B(  0-S ,  1-C ) :   1.1307 B(  0-S ,  4-C ) :   1.1370 B(  1-C ,  2-C ) :   1.6023
B(  1-C ,  4-C ) :   0.1030 B(  1-C , 32-H ) :   0.9838 B(  2-C ,  3-C ) :   1.2248
B(  2-C ,  6-C ) :   1.0243 B(  3-C ,  4-C ) :   1.5935 B(  3-C ,  5-H ) :   0.9912
B(  4-C , 20-C ) :   1.0174 B(  6-C ,  7-H ) :   0.9319 B(  6-C ,  8-H ) :   0.9485
B(  6-C ,  9-C ) :   1.0603 B(  9-C , 10-H ) :   0.9524 B(  9-C , 11-H ) :   0.9636
B(  9-C , 12-C ) :   1.0779 B( 12-C , 13-H ) :   0.9695 B( 12-C , 14-H ) :   0.9741
B( 12-C , 15-H ) :   0.9749 B( 16-S , 17-C ) :   1.1450 B( 16-S , 20-C ) :   1.1135
B( 17-C , 18-C ) :   1.6695 B( 17-C , 33-H ) :   0.9654 B( 18-C , 19-C ) :   1.1775
B( 18-C , 21-H ) :   0.9789 B( 19-C , 20-C ) :   1.6555 B( 19-C , 22-C ) :   1.0434
B( 22-C , 23-H ) :   0.9433 B( 22-C , 24-H ) :   0.9320 B( 22-C , 25-C ) :   1.0433
B( 25-C , 26-H ) :   0.9553 B( 25-C , 27-H ) :   0.9598 B( 25-C , 28-C ) :   1.0755
B( 28-C , 29-H ) :   0.9749 B( 28-C , 30-H ) :   0.9773 B( 28-C , 31-H ) :   0.9739

Dispersion correction           -0.013739613
FINAL SINGLE POINT ENERGY     -1339.863087567028

DIPOLE MOMENT
-------------
                                X             Y             Z
Electronic contribution:     -9.63443      -7.43662     -27.47051
Nuclear contribution   :      9.95648       7.38391      28.05757
                        -----------------------------------------
Total Dipole Moment    :      0.32205      -0.05271       0.58706
                        -----------------------------------------
Magnitude (a.u.)       :      0.67166
Magnitude (Debye)      :      1.70723

Rotational constants in cm-1:     0.016614     0.008503     0.006348
Rotational constants in MHz :   498.084174   254.915717   190.320124

                             ****ORCA TERMINATED NORMALLY****
TOTAL RUN TIME: 0 days 0 hours 0 minutes 34 seconds 281 msec
