                         Program Version 4.2.1 -  RELEASE  -
|  1> ! wB97X-D3 SP def2-SVP
|  2> %pal
|  3> nprocs 16
|  4> end
|  5>
|  6> * xyz 0 1
|  7> S 	 -69.8436 	 38.9168 	 123.703
|  8> C 	 -70.3962 	 40.5641 	 123.931
|  9> C 	 -69.2984 	 41.4213 	 123.93
| 10> C 	 -68.0448 	 40.6884 	 123.84
| 11> C 	 -68.1813 	 39.3348 	 123.946
| 12> H 	 -67.0986 	 41.1584 	 123.826
| 13> C 	 -69.4052 	 42.9097 	 124.08
| 14> H 	 -70.3971 	 43.2773 	 124.341
| 15> H 	 -69.1518 	 43.4421 	 123.176
| 16> C 	 -68.5983 	 43.5105 	 125.145
| 17> H 	 -68.6317 	 42.9647 	 126.118
| 18> H 	 -67.5881 	 43.3968 	 124.814
| 19> C 	 -68.8229 	 45.0394 	 125.264
| 20> H 	 -67.9238 	 45.4818 	 125.748
| 21> H 	 -68.8845 	 45.5004 	 124.341
| 22> H 	 -69.7473 	 45.2606 	 125.794
| 23> S 	 -67.2517 	 37.2151 	 122.444
| 24> C 	 -65.6413 	 36.5164 	 122.824
| 25> C 	 -65.0548 	 37.1567 	 123.897
| 26> C 	 -65.8331 	 38.3033 	 124.339
| 27> C 	 -67.1057 	 38.3719 	 123.79
| 28> H 	 -64.013 	 36.8687 	 124.104
| 29> C 	 -65.202 	 39.2939 	 125.371
| 30> H 	 -65.877 	 39.6586 	 126.15
| 31> H 	 -65.2102 	 40.2054 	 124.683
| 32> C 	 -63.8633 	 39.0027 	 126.068
| 33> H 	 -63.8343 	 38.0517 	 126.619
| 34> H 	 -63.83 	 39.5992 	 126.973
| 35> C 	 -62.6626 	 39.2307 	 125.185
| 36> H 	 -61.6986 	 39.1785 	 125.722
| 37> H 	 -62.614 	 40.3578 	 125.1
| 38> H 	 -62.5317 	 38.8057 	 124.161
| 39> H 	 -71.3691 	 40.9435 	 123.956
| 40> H 	 -65.165 	 35.7036 	 122.226
| 41> *
| 42>
| 43>                          ****END OF INPUT****

CARTESIAN COORDINATES (ANGSTROEM)
---------------------------------
  S    -69.843600   38.916800  123.703000
  C    -70.396200   40.564100  123.931000
  C    -69.298400   41.421300  123.930000
  C    -68.044800   40.688400  123.840000
  C    -68.181300   39.334800  123.946000
  H    -67.098600   41.158400  123.826000
  C    -69.405200   42.909700  124.080000
  H    -70.397100   43.277300  124.341000
  H    -69.151800   43.442100  123.176000
  C    -68.598300   43.510500  125.145000
  H    -68.631700   42.964700  126.118000
  H    -67.588100   43.396800  124.814000
  C    -68.822900   45.039400  125.264000
  H    -67.923800   45.481800  125.748000
  H    -68.884500   45.500400  124.341000
  H    -69.747300   45.260600  125.794000
  S    -67.251700   37.215100  122.444000
  C    -65.641300   36.516400  122.824000
  C    -65.054800   37.156700  123.897000
  C    -65.833100   38.303300  124.339000
  C    -67.105700   38.371900  123.790000
  H    -64.013000   36.868700  124.104000
  C    -65.202000   39.293900  125.371000
  H    -65.877000   39.658600  126.150000
  H    -65.210200   40.205400  124.683000
  C    -63.863300   39.002700  126.068000
  H    -63.834300   38.051700  126.619000
  H    -63.830000   39.599200  126.973000
  C    -62.662600   39.230700  125.185000
  H    -61.698600   39.178500  125.722000
  H    -62.614000   40.357800  125.100000
  H    -62.531700   38.805700  124.161000
  H    -71.369100   40.943500  123.956000
  H    -65.165000   35.703600  122.226000

 Total Charge           Charge          ....    0
 Multiplicity           Mult            ....    1
 Number of Electrons    NEL             ....  134
 Basis Dimension        Dim             ....  322

ORBITAL ENERGIES
----------------

  NO   OCC          E(Eh)            E(eV)
   0   2.0000     -88.964736     -2420.8535
   1   2.0000     -88.962976     -2420.8056
   2   2.0000     -10.328358      -281.0489
   3   2.0000     -10.328086      -281.0415
   4   2.0000     -10.324081      -280.9325
   5   2.0000     -10.313380      -280.6413
   6   2.0000     -10.311976      -280.6031
   7   2.0000     -10.302964      -280.3579
   8   2.0000     -10.302762      -280.3524
   9   2.0000     -10.298805      -280.2447
  10   2.0000     -10.294863      -280.1375
  11   2.0000     -10.292628      -280.0766
  12   2.0000     -10.287351      -279.9331
  13   2.0000     -10.285078      -279.8712
  14   2.0000     -10.280819      -279.7553
  15   2.0000     -10.277357      -279.6611
  16   2.0000      -8.079784      -219.8621
  17   2.0000      -8.076690      -219.7779
  18   2.0000      -6.038428      -164.3140
  19   2.0000      -6.035392      -164.2314
  20   2.0000      -6.034284      -164.2012
  21   2.0000      -6.031394      -164.1226
  22   2.0000      -6.030327      -164.0935
  23   2.0000      -6.027243      -164.0096
  24   2.0000      -1.006695       -27.3936
  25   2.0000      -0.978218       -26.6187
  26   2.0000      -0.924468       -25.1561
  27   2.0000      -0.907077       -24.6828
  28   2.0000      -0.872787       -23.7497
  29   2.0000      -0.849538       -23.1171
  30   2.0000      -0.840084       -22.8598
  31   2.0000      -0.817694       -22.2506
  32   2.0000      -0.784354       -21.3433
  33   2.0000      -0.775177       -21.0936
  34   2.0000      -0.714768       -19.4498
  35   2.0000      -0.701287       -19.0830
  36   2.0000      -0.693578       -18.8732
  37   2.0000      -0.655836       -17.8462
  38   2.0000      -0.644844       -17.5471
  39   2.0000      -0.625714       -17.0265
  40   2.0000      -0.592878       -16.1330
  41   2.0000      -0.577893       -15.7253
  42   2.0000      -0.568824       -15.4785
  43   2.0000      -0.550644       -14.9838
  44   2.0000      -0.534564       -14.5462
  45   2.0000      -0.524884       -14.2828
  46   2.0000      -0.518585       -14.1114
  47   2.0000      -0.512789       -13.9537
  48   2.0000      -0.506448       -13.7811
  49   2.0000      -0.503505       -13.7011
  50   2.0000      -0.498969       -13.5776
  51   2.0000      -0.483242       -13.1497
  52   2.0000      -0.472474       -12.8567
  53   2.0000      -0.467171       -12.7124
  54   2.0000      -0.451965       -12.2986
  55   2.0000      -0.450724       -12.2648
  56   2.0000      -0.444319       -12.0905
  57   2.0000      -0.441863       -12.0237
  58   2.0000      -0.434888       -11.8339
  59   2.0000      -0.422201       -11.4887
  60   2.0000      -0.417001       -11.3472
  61   2.0000      -0.408540       -11.1170
  62   2.0000      -0.401375       -10.9220
  63   2.0000      -0.352645        -9.5959
  64   2.0000      -0.327517        -8.9122
  65   2.0000      -0.325210        -8.8494
  66   2.0000      -0.290735        -7.9113
  67   0.0000       0.028390         0.7725
  68   0.0000       0.068059         1.8520
  69   0.0000       0.105676         2.8756
  70   0.0000       0.125888         3.4256
  71   0.0000       0.128085         3.4854

MULLIKEN ATOMIC CHARGES
-----------------------
   0 S :    0.101387
   1 C :   -0.077196
   2 C :   -0.082966
   3 C :    0.028784
   4 C :   -0.125713
   5 H :   -0.001796
   6 C :    0.088171
   7 H :    0.003664
   8 H :    0.025737
   9 C :   -0.113205
  10 H :    0.040544
  11 H :    0.009318
  12 C :   -0.024886
  13 H :    0.039243
  14 H :    0.008119
  15 H :    0.038881
  16 S :    0.085612
  17 C :   -0.113258
  18 C :   -0.039840
  19 C :   -0.034042
  20 C :   -0.130479
  21 H :    0.037404
  22 C :    0.002905
  23 H :    0.038633
  24 H :    0.041799
  25 C :   -0.024623
  26 H :    0.029947
  27 H :    0.019712
  28 C :   -0.082565
  29 H :    0.027899
  30 H :    0.022914
  31 H :    0.062025
  32 H :    0.023463
  33 H :    0.074409
Sum of atomic charges:    0.0000000

LOEWDIN ATOMIC CHARGES
----------------------
   0 S :    0.409812
   1 C :   -0.184553
   2 C :   -0.054346
   3 C :   -0.056011
   4 C :   -0.195920
   5 H :    0.020630
   6 C :   -0.039165
   7 H :    0.026615
   8 H :    0.032066
   9 C :   -0.045184
  10 H :    0.029125
  11 H :    0.013959
  12 C :   -0.057356
  13 H :    0.034628
  14 H :    0.013788
  15 H :    0.026038
  16 S :    0.367234
  17 C :   -0.172523
  18 C :   -0.080036
  19 C :   -0.048262
  20 C :   -0.193291
  21 H :    0.039605
  22 C :   -0.040101
  23 H :    0.034227
  24 H :    0.041477
  25 C :   -0.052095
  26 H :    0.028510
  27 H :    0.033382
  28 C :   -0.086629
  29 H :    0.029273
  30 H :    0.033760
  31 H :    0.032341
  32 H :    0.020192
  33 H :    0.038807

  Mayer bond orders larger than 0.100000
B(  0-S ,  1-C ) :   1.1288 B(  0-S ,  4-C ) :   1.1472 B(  1-C ,  2-C ) :   1.6148
B(  1-C , 32-H ) :   0.9769 B(  2-C ,  3-C ) :   1.2324 B(  2-C ,  6-C ) :   1.0322
B(  3-C ,  4-C ) :   1.5640 B(  3-C ,  5-H ) :   0.9957 B(  4-C , 20-C ) :   1.0515
B(  6-C ,  7-H ) :   0.9479 B(  6-C ,  8-H ) :   0.9252 B(  6-C ,  9-C ) :   1.0654
B(  9-C , 10-H ) :   0.9577 B(  9-C , 11-H ) :   0.9486 B(  9-C , 12-C ) :   1.0860
B( 12-C , 13-H ) :   0.9748 B( 12-C , 14-H ) :   0.9696 B( 12-C , 15-H ) :   0.9757
B( 16-S , 17-C ) :   1.1397 B( 16-S , 20-C ) :   1.1144 B( 17-C , 18-C ) :   1.6426
B( 17-C , 33-H ) :   0.9585 B( 18-C , 19-C ) :   1.2132 B( 18-C , 21-H ) :   0.9792
B( 19-C , 20-C ) :   1.6450 B( 19-C , 22-C ) :   1.0087 B( 22-C , 23-H ) :   0.9430
B( 22-C , 24-H ) :   0.9317 B( 22-C , 25-C ) :   1.0741 B( 25-C , 26-H ) :   0.9478
B( 25-C , 27-H ) :   0.9449 B( 25-C , 28-C ) :   1.0717 B( 28-C , 29-H ) :   0.9685
B( 28-C , 30-H ) :   0.9665 B( 28-C , 31-H ) :   0.9790

Dispersion correction           -0.013692315
FINAL SINGLE POINT ENERGY     -1339.849576626859

DIPOLE MOMENT
-------------
                                X             Y             Z
Electronic contribution:    -15.32673     -23.94615     -13.07986
Nuclear contribution   :     15.92968      24.64371      13.31584
                        -----------------------------------------
Total Dipole Moment    :      0.60296       0.69756       0.23598
                        -----------------------------------------
Magnitude (a.u.)       :      0.95175
Magnitude (Debye)      :      2.41916

Rotational constants in cm-1:     0.017287     0.008689     0.006097
Rotational constants in MHz :   518.261649   260.485784   182.783863

                             ****ORCA TERMINATED NORMALLY****
TOTAL RUN TIME: 0 days 0 hours 0 minutes 33 seconds 774 msec
