                         Program Version 4.2.1 -  RELEASE  -
|  1> ! wB97X-D3 SP def2-SVP
|  2> %pal
|  3> nprocs 16
|  4> end
|  5>
|  6> * xyz 0 1
|  7> S 	 30.2641 	 -5.92186 	 78.9097
|  8> C 	 31.5248 	 -5.37481 	 77.9452
|  9> C 	 31.3318 	 -4.00299 	 77.6555
| 10> C 	 30.1012 	 -3.44307 	 78.2178
| 11> C 	 29.4681 	 -4.35657 	 79.0308
| 12> H 	 29.6621 	 -2.41677 	 78.2936
| 13> C 	 32.2545 	 -3.18338 	 76.7969
| 14> H 	 31.844 	 -2.19119 	 76.7443
| 15> H 	 32.1414 	 -3.61227 	 75.8178
| 16> C 	 33.7616 	 -3.06982 	 77.0891
| 17> H 	 34.146 	 -4.05063 	 77.2987
| 18> H 	 34.1905 	 -2.66308 	 76.1934
| 19> C 	 34.0898 	 -2.07525 	 78.2192
| 20> H 	 35.1968 	 -1.95265 	 78.2704
| 21> H 	 33.5743 	 -1.18104 	 78.1608
| 22> H 	 33.7789 	 -2.3895 	 79.2792
| 23> S 	 26.8112 	 -4.92887 	 79.0556
| 24> C 	 25.8357 	 -4.13632 	 80.2331
| 25> C 	 26.4874 	 -3.3757 	 81.172
| 26> C 	 27.8736 	 -3.24352 	 80.7881
| 27> C 	 28.1891 	 -4.04948 	 79.6805
| 28> H 	 25.9822 	 -2.83012 	 82.0389
| 29> C 	 28.9163 	 -2.48259 	 81.6728
| 30> H 	 28.4463 	 -1.8274 	 82.4593
| 31> H 	 29.4527 	 -1.74655 	 81.0359
| 32> C 	 30.005 	 -3.48879 	 82.2591
| 33> H 	 30.8218 	 -3.01543 	 82.8147
| 34> H 	 30.4054 	 -4.00235 	 81.4621
| 35> C 	 29.4407 	 -4.53942 	 83.2731
| 36> H 	 28.4261 	 -4.77198 	 82.9684
| 37> H 	 29.4252 	 -4.12667 	 84.2731
| 38> H 	 30.0428 	 -5.43271 	 83.2222
| 39> H 	 32.2966 	 -5.99953 	 77.5359
| 40> H 	 24.7481 	 -4.36554 	 80.3769
| 41> *
| 42>
| 43>                          ****END OF INPUT****

CARTESIAN COORDINATES (ANGSTROEM)
---------------------------------
  S     30.264100   -5.921860   78.909700
  C     31.524800   -5.374810   77.945200
  C     31.331800   -4.002990   77.655500
  C     30.101200   -3.443070   78.217800
  C     29.468100   -4.356570   79.030800
  H     29.662100   -2.416770   78.293600
  C     32.254500   -3.183380   76.796900
  H     31.844000   -2.191190   76.744300
  H     32.141400   -3.612270   75.817800
  C     33.761600   -3.069820   77.089100
  H     34.146000   -4.050630   77.298700
  H     34.190500   -2.663080   76.193400
  C     34.089800   -2.075250   78.219200
  H     35.196800   -1.952650   78.270400
  H     33.574300   -1.181040   78.160800
  H     33.778900   -2.389500   79.279200
  S     26.811200   -4.928870   79.055600
  C     25.835700   -4.136320   80.233100
  C     26.487400   -3.375700   81.172000
  C     27.873600   -3.243520   80.788100
  C     28.189100   -4.049480   79.680500
  H     25.982200   -2.830120   82.038900
  C     28.916300   -2.482590   81.672800
  H     28.446300   -1.827400   82.459300
  H     29.452700   -1.746550   81.035900
  C     30.005000   -3.488790   82.259100
  H     30.821800   -3.015430   82.814700
  H     30.405400   -4.002350   81.462100
  C     29.440700   -4.539420   83.273100
  H     28.426100   -4.771980   82.968400
  H     29.425200   -4.126670   84.273100
  H     30.042800   -5.432710   83.222200
  H     32.296600   -5.999530   77.535900
  H     24.748100   -4.365540   80.376900

 Total Charge           Charge          ....    0
 Multiplicity           Mult            ....    1
 Number of Electrons    NEL             ....  134
 Basis Dimension        Dim             ....  322

ORBITAL ENERGIES
----------------

  NO   OCC          E(Eh)            E(eV)
   0   2.0000     -88.970292     -2421.0047
   1   2.0000     -88.967498     -2420.9287
   2   2.0000     -10.327568      -281.0274
   3   2.0000     -10.326431      -280.9965
   4   2.0000     -10.318001      -280.7671
   5   2.0000     -10.312583      -280.6197
   6   2.0000     -10.312076      -280.6058
   7   2.0000     -10.306533      -280.4550
   8   2.0000     -10.303814      -280.3810
   9   2.0000     -10.301599      -280.3208
  10   2.0000     -10.298204      -280.2284
  11   2.0000     -10.285981      -279.8958
  12   2.0000     -10.282953      -279.8134
  13   2.0000     -10.277882      -279.6754
  14   2.0000     -10.277638      -279.6687
  15   2.0000     -10.266154      -279.3562
  16   2.0000      -8.085483      -220.0172
  17   2.0000      -8.082800      -219.9442
  18   2.0000      -6.043824      -164.4608
  19   2.0000      -6.041215      -164.3898
  20   2.0000      -6.040039      -164.3578
  21   2.0000      -6.037013      -164.2755
  22   2.0000      -6.036276      -164.2554
  23   2.0000      -6.033824      -164.1887
  24   2.0000      -1.008287       -27.4369
  25   2.0000      -0.986853       -26.8536
  26   2.0000      -0.909683       -24.7537
  27   2.0000      -0.895064       -24.3559
  28   2.0000      -0.872116       -23.7315
  29   2.0000      -0.848836       -23.0980
  30   2.0000      -0.843066       -22.9410
  31   2.0000      -0.811691       -22.0872
  32   2.0000      -0.778669       -21.1887
  33   2.0000      -0.766356       -20.8536
  34   2.0000      -0.707769       -19.2594
  35   2.0000      -0.701914       -19.1001
  36   2.0000      -0.681407       -18.5420
  37   2.0000      -0.657422       -17.8894
  38   2.0000      -0.646083       -17.5808
  39   2.0000      -0.601971       -16.3805
  40   2.0000      -0.589549       -16.0425
  41   2.0000      -0.574034       -15.6203
  42   2.0000      -0.548613       -14.9285
  43   2.0000      -0.544962       -14.8292
  44   2.0000      -0.542480       -14.7616
  45   2.0000      -0.534019       -14.5314
  46   2.0000      -0.516820       -14.0634
  47   2.0000      -0.508521       -13.8376
  48   2.0000      -0.505162       -13.7462
  49   2.0000      -0.491672       -13.3791
  50   2.0000      -0.483176       -13.1479
  51   2.0000      -0.478527       -13.0214
  52   2.0000      -0.469396       -12.7729
  53   2.0000      -0.465207       -12.6589
  54   2.0000      -0.458963       -12.4890
  55   2.0000      -0.448755       -12.2112
  56   2.0000      -0.438387       -11.9291
  57   2.0000      -0.435323       -11.8458
  58   2.0000      -0.430455       -11.7133
  59   2.0000      -0.424360       -11.5474
  60   2.0000      -0.422338       -11.4924
  61   2.0000      -0.414129       -11.2690
  62   2.0000      -0.410038       -11.1577
  63   2.0000      -0.345330        -9.3969
  64   2.0000      -0.334909        -9.1133
  65   2.0000      -0.318971        -8.6796
  66   2.0000      -0.298465        -8.1217
  67   0.0000       0.037137         1.0105
  68   0.0000       0.060365         1.6426
  69   0.0000       0.114035         3.1030
  70   0.0000       0.122738         3.3399
  71   0.0000       0.126455         3.4410

MULLIKEN ATOMIC CHARGES
-----------------------
   0 S :    0.126756
   1 C :   -0.118941
   2 C :   -0.103448
   3 C :    0.030687
   4 C :   -0.185896
   5 H :    0.041826
   6 C :    0.060835
   7 H :    0.007027
   8 H :    0.031760
   9 C :   -0.023910
  10 H :    0.022738
  11 H :    0.026613
  12 C :   -0.063516
  13 H :    0.042400
  14 H :    0.011671
  15 H :    0.034311
  16 S :    0.137389
  17 C :   -0.103876
  18 C :   -0.058849
  19 C :   -0.039378
  20 C :   -0.201047
  21 H :    0.052575
  22 C :    0.047210
  23 H :    0.031208
  24 H :    0.032853
  25 C :   -0.053049
  26 H :    0.027749
  27 H :    0.021288
  28 C :   -0.050695
  29 H :    0.028691
  30 H :    0.029431
  31 H :    0.035196
  32 H :    0.054038
  33 H :    0.068354
Sum of atomic charges:    0.0000000

LOEWDIN ATOMIC CHARGES
----------------------
   0 S :    0.432003
   1 C :   -0.225589
   2 C :   -0.060970
   3 C :   -0.067393
   4 C :   -0.209155
   5 H :    0.046157
   6 C :   -0.038147
   7 H :    0.025140
   8 H :    0.033438
   9 C :   -0.030077
  10 H :    0.020148
  11 H :    0.026052
  12 C :   -0.068952
  13 H :    0.030724
  14 H :    0.011411
  15 H :    0.033056
  16 S :    0.428158
  17 C :   -0.200220
  18 C :   -0.084132
  19 C :   -0.051562
  20 C :   -0.205643
  21 H :    0.048784
  22 C :   -0.033517
  23 H :    0.031470
  24 H :    0.032797
  25 C :   -0.029943
  26 H :    0.023912
  27 H :    0.009344
  28 C :   -0.062370
  29 H :    0.022529
  30 H :    0.020947
  31 H :    0.026191
  32 H :    0.029929
  33 H :    0.035478

  Mayer bond orders larger than 0.100000
B(  0-S ,  1-C ) :   1.1587 B(  0-S ,  4-C ) :   1.1550 B(  1-C ,  2-C ) :   1.5667
B(  1-C , 32-H ) :   0.9763 B(  2-C ,  3-C ) :   1.2400 B(  2-C ,  6-C ) :   1.0264
B(  3-C ,  4-C ) :   1.5808 B(  3-C ,  5-H ) :   0.9798 B(  4-C , 20-C ) :   1.0285
B(  6-C ,  7-H ) :   0.9427 B(  6-C ,  8-H ) :   0.9315 B(  6-C ,  9-C ) :   1.0821
B(  9-C , 10-H ) :   0.9564 B(  9-C , 11-H ) :   0.9507 B(  9-C , 12-C ) :   1.0761
B( 12-C , 13-H ) :   0.9757 B( 12-C , 14-H ) :   0.9748 B( 12-C , 15-H ) :   0.9757
B( 16-S , 17-C ) :   1.1660 B( 16-S , 20-C ) :   1.1545 B( 17-C , 18-C ) :   1.6252
B( 17-C , 33-H ) :   0.9550 B( 18-C , 19-C ) :   1.2432 B( 18-C , 21-H ) :   0.9752
B( 19-C , 20-C ) :   1.5962 B( 19-C , 22-C ) :   1.0290 B( 22-C , 23-H ) :   0.9496
B( 22-C , 24-H ) :   0.9366 B( 22-C , 25-C ) :   1.0578 B( 25-C , 26-H ) :   0.9602
B( 25-C , 27-H ) :   0.9615 B( 25-C , 28-C ) :   1.0670 B( 28-C , 29-H ) :   0.9795
B( 28-C , 30-H ) :   0.9803 B( 28-C , 31-H ) :   0.9762

Dispersion correction           -0.015319750
FINAL SINGLE POINT ENERGY     -1339.868728372513

DIPOLE MOMENT
-------------
                                X             Y             Z
Electronic contribution:    -19.42163     -13.36064      -7.72337
Nuclear contribution   :     19.65966      13.72999       7.73212
                        -----------------------------------------
Total Dipole Moment    :      0.23803       0.36935       0.00876
                        -----------------------------------------
Magnitude (a.u.)       :      0.43949
Magnitude (Debye)      :      1.11709

Rotational constants in cm-1:     0.021398     0.008503     0.007416
Rotational constants in MHz :   641.506902   254.926154   222.317405

                             ****ORCA TERMINATED NORMALLY****
TOTAL RUN TIME: 0 days 0 hours 0 minutes 29 seconds 180 msec
