                         Program Version 4.2.1 -  RELEASE  -
|  1> ! wB97X-D3 SP def2-SVP
|  2> %pal
|  3> nprocs 16
|  4> end
|  5>
|  6> * xyz 0 1
|  7> S 	 -59.8734 	 59.1807 	 124.663
|  8> C 	 -60.6553 	 59.8855 	 126.134
|  9> C 	 -61.5032 	 58.9919 	 126.662
| 10> C 	 -61.4555 	 57.7052 	 126.012
| 11> C 	 -60.7282 	 57.5923 	 124.851
| 12> H 	 -62.1807 	 56.9653 	 126.256
| 13> C 	 -62.4058 	 59.1639 	 127.876
| 14> H 	 -62.1244 	 60.1363 	 128.303
| 15> H 	 -62.3192 	 58.3065 	 128.588
| 16> C 	 -63.8988 	 59.4128 	 127.434
| 17> H 	 -63.958 	 60.2789 	 126.863
| 18> H 	 -64.1541 	 58.6461 	 126.709
| 19> C 	 -64.8767 	 59.4559 	 128.635
| 20> H 	 -65.8787 	 59.7226 	 128.194
| 21> H 	 -64.922 	 58.4891 	 129.268
| 22> H 	 -64.7255 	 60.2857 	 129.296
| 23> S 	 -60.0514 	 56.9332 	 122.224
| 24> C 	 -60.3312 	 55.3086 	 121.613
| 25> C 	 -60.6599 	 54.4215 	 122.642
| 26> C 	 -60.79 	 55.1106 	 123.906
| 27> C 	 -60.5553 	 56.4947 	 123.872
| 28> H 	 -60.8273 	 53.3708 	 122.507
| 29> C 	 -61.2379 	 54.2667 	 125.09
| 30> H 	 -61.6388 	 53.1818 	 124.843
| 31> H 	 -62.2317 	 54.7965 	 125.342
| 32> C 	 -60.347 	 54.316 	 126.336
| 33> H 	 -60.0595 	 55.3375 	 126.638
| 34> H 	 -59.4324 	 53.776 	 126.068
| 35> C 	 -60.9552 	 53.7208 	 127.613
| 36> H 	 -60.3045 	 53.77 	 128.489
| 37> H 	 -61.1742 	 52.6095 	 127.373
| 38> H 	 -61.8615 	 54.1707 	 127.809
| 39> H 	 -60.6549 	 60.925 	 126.349
| 40> H 	 -60.1264 	 54.9648 	 120.576
| 41> *
| 42>
| 43>                          ****END OF INPUT****

CARTESIAN COORDINATES (ANGSTROEM)
---------------------------------
  S    -59.873400   59.180700  124.663000
  C    -60.655300   59.885500  126.134000
  C    -61.503200   58.991900  126.662000
  C    -61.455500   57.705200  126.012000
  C    -60.728200   57.592300  124.851000
  H    -62.180700   56.965300  126.256000
  C    -62.405800   59.163900  127.876000
  H    -62.124400   60.136300  128.303000
  H    -62.319200   58.306500  128.588000
  C    -63.898800   59.412800  127.434000
  H    -63.958000   60.278900  126.863000
  H    -64.154100   58.646100  126.709000
  C    -64.876700   59.455900  128.635000
  H    -65.878700   59.722600  128.194000
  H    -64.922000   58.489100  129.268000
  H    -64.725500   60.285700  129.296000
  S    -60.051400   56.933200  122.224000
  C    -60.331200   55.308600  121.613000
  C    -60.659900   54.421500  122.642000
  C    -60.790000   55.110600  123.906000
  C    -60.555300   56.494700  123.872000
  H    -60.827300   53.370800  122.507000
  C    -61.237900   54.266700  125.090000
  H    -61.638800   53.181800  124.843000
  H    -62.231700   54.796500  125.342000
  C    -60.347000   54.316000  126.336000
  H    -60.059500   55.337500  126.638000
  H    -59.432400   53.776000  126.068000
  C    -60.955200   53.720800  127.613000
  H    -60.304500   53.770000  128.489000
  H    -61.174200   52.609500  127.373000
  H    -61.861500   54.170700  127.809000
  H    -60.654900   60.925000  126.349000
  H    -60.126400   54.964800  120.576000

 Total Charge           Charge          ....    0
 Multiplicity           Mult            ....    1
 Number of Electrons    NEL             ....  134
 Basis Dimension        Dim             ....  322

ORBITAL ENERGIES
----------------

  NO   OCC          E(Eh)            E(eV)
   0   2.0000     -88.971179     -2421.0289
   1   2.0000     -88.961252     -2420.7587
   2   2.0000     -10.343653      -281.4651
   3   2.0000     -10.339785      -281.3598
   4   2.0000     -10.328728      -281.0590
   5   2.0000     -10.314902      -280.6827
   6   2.0000     -10.314664      -280.6763
   7   2.0000     -10.310155      -280.5536
   8   2.0000     -10.300379      -280.2876
   9   2.0000     -10.300190      -280.2824
  10   2.0000     -10.299893      -280.2743
  11   2.0000     -10.292326      -280.0684
  12   2.0000     -10.290368      -280.0152
  13   2.0000     -10.286773      -279.9173
  14   2.0000     -10.286392      -279.9070
  15   2.0000     -10.279009      -279.7061
  16   2.0000      -8.085078      -220.0062
  17   2.0000      -8.074557      -219.7199
  18   2.0000      -6.043808      -164.4604
  19   2.0000      -6.039622      -164.3465
  20   2.0000      -6.035733      -164.2406
  21   2.0000      -6.033509      -164.1801
  22   2.0000      -6.029349      -164.0669
  23   2.0000      -6.024827      -163.9439
  24   2.0000      -1.000551       -27.2264
  25   2.0000      -0.980290       -26.6750
  26   2.0000      -0.907276       -24.6882
  27   2.0000      -0.906361       -24.6633
  28   2.0000      -0.869717       -23.6662
  29   2.0000      -0.852339       -23.1933
  30   2.0000      -0.838069       -22.8050
  31   2.0000      -0.818644       -22.2764
  32   2.0000      -0.777924       -21.1684
  33   2.0000      -0.769941       -20.9512
  34   2.0000      -0.710361       -19.3299
  35   2.0000      -0.703635       -19.1469
  36   2.0000      -0.688440       -18.7334
  37   2.0000      -0.667025       -18.1507
  38   2.0000      -0.641538       -17.4571
  39   2.0000      -0.623925       -16.9779
  40   2.0000      -0.592320       -16.1178
  41   2.0000      -0.569989       -15.5102
  42   2.0000      -0.564361       -15.3570
  43   2.0000      -0.555970       -15.1287
  44   2.0000      -0.527218       -14.3463
  45   2.0000      -0.517751       -14.0887
  46   2.0000      -0.516615       -14.0578
  47   2.0000      -0.511919       -13.9300
  48   2.0000      -0.509348       -13.8601
  49   2.0000      -0.502336       -13.6693
  50   2.0000      -0.490439       -13.3455
  51   2.0000      -0.486595       -13.2409
  52   2.0000      -0.470540       -12.8040
  53   2.0000      -0.466680       -12.6990
  54   2.0000      -0.462707       -12.5909
  55   2.0000      -0.449631       -12.2351
  56   2.0000      -0.441854       -12.0235
  57   2.0000      -0.438455       -11.9310
  58   2.0000      -0.429148       -11.6777
  59   2.0000      -0.420637       -11.4461
  60   2.0000      -0.416371       -11.3300
  61   2.0000      -0.414760       -11.2862
  62   2.0000      -0.406146       -11.0518
  63   2.0000      -0.361336        -9.8325
  64   2.0000      -0.333474        -9.0743
  65   2.0000      -0.325863        -8.8672
  66   2.0000      -0.289251        -7.8709
  67   0.0000       0.014674         0.3993
  68   0.0000       0.076325         2.0769
  69   0.0000       0.095925         2.6103
  70   0.0000       0.116368         3.1665
  71   0.0000       0.129905         3.5349

MULLIKEN ATOMIC CHARGES
-----------------------
   0 S :    0.054646
   1 C :   -0.103825
   2 C :   -0.092685
   3 C :    0.002409
   4 C :   -0.082106
   5 H :   -0.001211
   6 C :    0.049734
   7 H :    0.018257
   8 H :    0.047850
   9 C :   -0.057263
  10 H :    0.010723
  11 H :    0.024211
  12 C :   -0.061927
  13 H :    0.037805
  14 H :    0.052552
  15 H :    0.027244
  16 S :    0.102888
  17 C :   -0.096200
  18 C :   -0.025839
  19 C :   -0.036130
  20 C :   -0.111387
  21 H :    0.018870
  22 C :   -0.035742
  23 H :    0.046547
  24 H :    0.041029
  25 C :   -0.074428
  26 H :    0.044756
  27 H :    0.033284
  28 C :   -0.035974
  29 H :    0.045268
  30 H :    0.028593
  31 H :    0.009908
  32 H :    0.041528
  33 H :    0.076614
Sum of atomic charges:   -0.0000000

LOEWDIN ATOMIC CHARGES
----------------------
   0 S :    0.337304
   1 C :   -0.169500
   2 C :   -0.064079
   3 C :   -0.074940
   4 C :   -0.153690
   5 H :    0.020969
   6 C :   -0.028281
   7 H :    0.029765
   8 H :    0.036286
   9 C :   -0.035220
  10 H :    0.016949
  11 H :    0.021555
  12 C :   -0.074453
  13 H :    0.033970
  14 H :    0.035936
  15 H :    0.019990
  16 S :    0.400444
  17 C :   -0.181229
  18 C :   -0.070601
  19 C :   -0.048928
  20 C :   -0.194722
  21 H :    0.031309
  22 C :   -0.049633
  23 H :    0.041990
  24 H :    0.037051
  25 C :   -0.047701
  26 H :    0.029247
  27 H :    0.025443
  28 C :   -0.060357
  29 H :    0.029591
  30 H :    0.030630
  31 H :    0.009134
  32 H :    0.025789
  33 H :    0.039984

  Mayer bond orders larger than 0.100000
B(  0-S ,  1-C ) :   1.0974 B(  0-S ,  4-C ) :   1.1148 B(  1-C ,  2-C ) :   1.6794
B(  1-C , 32-H ) :   0.9646 B(  2-C ,  3-C ) :   1.2109 B(  2-C ,  6-C ) :   1.0259
B(  3-C ,  4-C ) :   1.6128 B(  3-C ,  5-H ) :   0.9860 B(  4-C , 20-C ) :   1.0680
B(  6-C ,  7-H ) :   0.9401 B(  6-C ,  8-H ) :   0.9490 B(  6-C ,  9-C ) :   1.0494
B(  9-C , 10-H ) :   0.9516 B(  9-C , 11-H ) :   0.9612 B(  9-C , 12-C ) :   1.0780
B( 12-C , 13-H ) :   0.9726 B( 12-C , 14-H ) :   0.9754 B( 12-C , 15-H ) :   0.9742
B( 16-S , 17-C ) :   1.1673 B( 16-S , 20-C ) :   1.1207 B( 17-C , 18-C ) :   1.5819
B( 17-C , 33-H ) :   0.9611 B( 18-C , 19-C ) :   1.2627 B( 18-C , 21-H ) :   0.9949
B( 19-C , 20-C ) :   1.5705 B( 19-C , 22-C ) :   1.0246 B( 22-C , 23-H ) :   0.9431
B( 22-C , 24-H ) :   0.9320 B( 22-C , 25-C ) :   1.0518 B( 25-C , 26-H ) :   0.9519
B( 25-C , 27-H ) :   0.9547 B( 25-C , 28-C ) :   1.0824 B( 28-C , 29-H ) :   0.9746
B( 28-C , 30-H ) :   0.9733 B( 28-C , 31-H ) :   0.9753

Dispersion correction           -0.014076267
FINAL SINGLE POINT ENERGY     -1339.864483683869

DIPOLE MOMENT
-------------
                                X             Y             Z
Electronic contribution:     16.70909       7.99085     -25.10309
Nuclear contribution   :    -17.27335      -8.33232      25.44667
                        -----------------------------------------
Total Dipole Moment    :     -0.56425      -0.34147       0.34358
                        -----------------------------------------
Magnitude (a.u.)       :      0.74366
Magnitude (Debye)      :      1.89024

Rotational constants in cm-1:     0.017339     0.008742     0.006697
Rotational constants in MHz :   519.823764   262.081340   200.767203

                             ****ORCA TERMINATED NORMALLY****
TOTAL RUN TIME: 0 days 0 hours 0 minutes 33 seconds 694 msec
