                         Program Version 4.2.1 -  RELEASE  -
|  1> ! wB97X-D3 SP def2-SVP
|  2> %pal
|  3> nprocs 16
|  4> end
|  5>
|  6> * xyz 0 1
|  7> S 	 -4.97943 	 73.9728 	 57.5592
|  8> C 	 -4.46913 	 72.3605 	 57.6073
|  9> C 	 -4.00103 	 71.8446 	 56.4029
| 10> C 	 -4.11811 	 72.8319 	 55.3711
| 11> C 	 -4.64348 	 74.0538 	 55.8572
| 12> H 	 -3.82826 	 72.723 	 54.3315
| 13> C 	 -3.3242 	 70.4871 	 56.198
| 14> H 	 -3.92078 	 69.8647 	 55.4379
| 15> H 	 -3.382 	 69.9565 	 57.1194
| 16> C 	 -1.88859 	 70.6112 	 55.8326
| 17> H 	 -1.76112 	 71.2471 	 54.9423
| 18> H 	 -1.27212 	 71.1444 	 56.5802
| 19> C 	 -1.34176 	 69.2691 	 55.4666
| 20> H 	 -0.371098 	 69.4022 	 55.0343
| 21> H 	 -1.21774 	 68.611 	 56.3577
| 22> H 	 -1.90407 	 68.7939 	 54.596
| 23> S 	 -6.6355 	 75.5616 	 54.5465
| 24> C 	 -6.19734 	 76.8227 	 53.4377
| 25> C 	 -4.86907 	 76.9971 	 53.3242
| 26> C 	 -4.14715 	 76.0884 	 54.2147
| 27> C 	 -4.99924 	 75.2304 	 54.9765
| 28> H 	 -4.41667 	 77.7861 	 52.6709
| 29> C 	 -2.557 	 76.1682 	 54.1959
| 30> H 	 -2.24669 	 76.2751 	 55.287
| 31> H 	 -2.28799 	 77.1695 	 53.796
| 32> C 	 -1.66674 	 75.1308 	 53.5392
| 33> H 	 -1.86402 	 74.1807 	 54.0263
| 34> H 	 -0.615401 	 75.4851 	 53.7043
| 35> C 	 -1.97232 	 74.9967 	 52.0556
| 36> H 	 -1.94455 	 75.9325 	 51.5922
| 37> H 	 -2.91797 	 74.4576 	 51.8148
| 38> H 	 -1.14165 	 74.3186 	 51.771
| 39> H 	 -4.43185 	 71.7832 	 58.4795
| 40> H 	 -6.84188 	 77.4211 	 52.8042
| 41> *
| 42>
| 43>                          ****END OF INPUT****

CARTESIAN COORDINATES (ANGSTROEM)
---------------------------------
  S     -4.979430   73.972800   57.559200
  C     -4.469130   72.360500   57.607300
  C     -4.001030   71.844600   56.402900
  C     -4.118110   72.831900   55.371100
  C     -4.643480   74.053800   55.857200
  H     -3.828260   72.723000   54.331500
  C     -3.324200   70.487100   56.198000
  H     -3.920780   69.864700   55.437900
  H     -3.382000   69.956500   57.119400
  C     -1.888590   70.611200   55.832600
  H     -1.761120   71.247100   54.942300
  H     -1.272120   71.144400   56.580200
  C     -1.341760   69.269100   55.466600
  H     -0.371098   69.402200   55.034300
  H     -1.217740   68.611000   56.357700
  H     -1.904070   68.793900   54.596000
  S     -6.635500   75.561600   54.546500
  C     -6.197340   76.822700   53.437700
  C     -4.869070   76.997100   53.324200
  C     -4.147150   76.088400   54.214700
  C     -4.999240   75.230400   54.976500
  H     -4.416670   77.786100   52.670900
  C     -2.557000   76.168200   54.195900
  H     -2.246690   76.275100   55.287000
  H     -2.287990   77.169500   53.796000
  C     -1.666740   75.130800   53.539200
  H     -1.864020   74.180700   54.026300
  H     -0.615401   75.485100   53.704300
  C     -1.972320   74.996700   52.055600
  H     -1.944550   75.932500   51.592200
  H     -2.917970   74.457600   51.814800
  H     -1.141650   74.318600   51.771000
  H     -4.431850   71.783200   58.479500
  H     -6.841880   77.421100   52.804200

 Total Charge           Charge          ....    0
 Multiplicity           Mult            ....    1
 Number of Electrons    NEL             ....  134
 Basis Dimension        Dim             ....  322

ORBITAL ENERGIES
----------------

  NO   OCC          E(Eh)            E(eV)
   0   2.0000     -88.971968     -2421.0503
   1   2.0000     -88.965195     -2420.8660
   2   2.0000     -10.333855      -281.1985
   3   2.0000     -10.331350      -281.1303
   4   2.0000     -10.311270      -280.5839
   5   2.0000     -10.311216      -280.5824
   6   2.0000     -10.307508      -280.4815
   7   2.0000     -10.301192      -280.3097
   8   2.0000     -10.298535      -280.2374
   9   2.0000     -10.294920      -280.1390
  10   2.0000     -10.294108      -280.1169
  11   2.0000     -10.293755      -280.1073
  12   2.0000     -10.285349      -279.8786
  13   2.0000     -10.285192      -279.8743
  14   2.0000     -10.281856      -279.7835
  15   2.0000     -10.273350      -279.5521
  16   2.0000      -8.087529      -220.0729
  17   2.0000      -8.080467      -219.8807
  18   2.0000      -6.045757      -164.5134
  19   2.0000      -6.041925      -164.4091
  20   2.0000      -6.038955      -164.3283
  21   2.0000      -6.038544      -164.3171
  22   2.0000      -6.034832      -164.2161
  23   2.0000      -6.031268      -164.1191
  24   2.0000      -1.005236       -27.3539
  25   2.0000      -0.987008       -26.8579
  26   2.0000      -0.921628       -25.0788
  27   2.0000      -0.903985       -24.5987
  28   2.0000      -0.866970       -23.5915
  29   2.0000      -0.853974       -23.2378
  30   2.0000      -0.841139       -22.8885
  31   2.0000      -0.814400       -22.1610
  32   2.0000      -0.780661       -21.2429
  33   2.0000      -0.769293       -20.9335
  34   2.0000      -0.704718       -19.1764
  35   2.0000      -0.693787       -18.8789
  36   2.0000      -0.678637       -18.4666
  37   2.0000      -0.652155       -17.7460
  38   2.0000      -0.644737       -17.5442
  39   2.0000      -0.620879       -16.8950
  40   2.0000      -0.587624       -15.9901
  41   2.0000      -0.574528       -15.6337
  42   2.0000      -0.567551       -15.4438
  43   2.0000      -0.551429       -15.0052
  44   2.0000      -0.541455       -14.7337
  45   2.0000      -0.525684       -14.3046
  46   2.0000      -0.517001       -14.0683
  47   2.0000      -0.507616       -13.8129
  48   2.0000      -0.501588       -13.6489
  49   2.0000      -0.497170       -13.5287
  50   2.0000      -0.484417       -13.1817
  51   2.0000      -0.477231       -12.9861
  52   2.0000      -0.475122       -12.9287
  53   2.0000      -0.465718       -12.6728
  54   2.0000      -0.464226       -12.6322
  55   2.0000      -0.451673       -12.2907
  56   2.0000      -0.442214       -12.0332
  57   2.0000      -0.441453       -12.0125
  58   2.0000      -0.424744       -11.5579
  59   2.0000      -0.424139       -11.5414
  60   2.0000      -0.417002       -11.3472
  61   2.0000      -0.411134       -11.1875
  62   2.0000      -0.408385       -11.1127
  63   2.0000      -0.342985        -9.3331
  64   2.0000      -0.331724        -9.0267
  65   2.0000      -0.320874        -8.7314
  66   2.0000      -0.303157        -8.2493
  67   0.0000       0.042358         1.1526
  68   0.0000       0.063699         1.7334
  69   0.0000       0.118116         3.2141
  70   0.0000       0.127073         3.4578
  71   0.0000       0.127335         3.4650

MULLIKEN ATOMIC CHARGES
-----------------------
   0 S :    0.146593
   1 C :   -0.095388
   2 C :   -0.094542
   3 C :    0.048143
   4 C :   -0.191400
   5 H :    0.018053
   6 C :    0.080724
   7 H :    0.045467
   8 H :    0.003238
   9 C :   -0.091467
  10 H :    0.023556
  11 H :    0.036107
  12 C :   -0.047205
  13 H :    0.021249
  14 H :    0.042368
  15 H :    0.038300
  16 S :    0.119670
  17 C :   -0.080672
  18 C :   -0.052132
  19 C :   -0.057464
  20 C :   -0.155639
  21 H :    0.040317
  22 C :    0.015955
  23 H :    0.038738
  24 H :    0.013461
  25 C :   -0.057598
  26 H :    0.025071
  27 H :    0.039666
  28 C :   -0.047326
  29 H :    0.020053
  30 H :    0.047814
  31 H :    0.034621
  32 H :    0.021871
  33 H :    0.049795
Sum of atomic charges:   -0.0000000

LOEWDIN ATOMIC CHARGES
----------------------
   0 S :    0.448694
   1 C :   -0.209492
   2 C :   -0.063322
   3 C :   -0.051545
   4 C :   -0.209678
   5 H :    0.030565
   6 C :   -0.031524
   7 H :    0.041048
   8 H :    0.023720
   9 C :   -0.049980
  10 H :    0.023106
  11 H :    0.031066
  12 C :   -0.069394
  13 H :    0.021892
  14 H :    0.028618
  15 H :    0.034117
  16 S :    0.425361
  17 C :   -0.193827
  18 C :   -0.083482
  19 C :   -0.053868
  20 C :   -0.221737
  21 H :    0.041747
  22 C :   -0.043941
  23 H :    0.036409
  24 H :    0.024813
  25 C :   -0.043822
  26 H :    0.020571
  27 H :    0.033378
  28 C :   -0.064807
  29 H :    0.013646
  30 H :    0.031504
  31 H :    0.032052
  32 H :    0.015615
  33 H :    0.032498

  Mayer bond orders larger than 0.100000
B(  0-S ,  1-C ) :   1.1682 B(  0-S ,  4-C ) :   1.1785 B(  1-C ,  2-C ) :   1.5927
B(  1-C , 32-H ) :   0.9677 B(  2-C ,  3-C ) :   1.2642 B(  2-C ,  6-C ) :   1.0221
B(  3-C ,  4-C ) :   1.5549 B(  3-C ,  5-H ) :   0.9886 B(  4-C , 20-C ) :   1.0014
B(  6-C ,  7-H ) :   0.9390 B(  6-C ,  8-H ) :   0.9345 B(  6-C ,  9-C ) :   1.0683
B(  9-C , 10-H ) :   0.9520 B(  9-C , 11-H ) :   0.9482 B(  9-C , 12-C ) :   1.0961
B( 12-C , 13-H ) :   0.9694 B( 12-C , 14-H ) :   0.9723 B( 12-C , 15-H ) :   0.9698
B( 16-S , 17-C ) :   1.1582 B( 16-S , 20-C ) :   1.1514 B( 17-C , 18-C ) :   1.6318
B( 17-C , 33-H ) :   0.9600 B( 18-C , 19-C ) :   1.2497 B( 18-C , 21-H ) :   0.9791
B( 19-C , 20-C ) :   1.5977 B( 19-C , 22-C ) :   1.0135 B( 22-C , 23-H ) :   0.9388
B( 22-C , 24-H ) :   0.9439 B( 22-C , 25-C ) :   1.0803 B( 25-C , 26-H ) :   0.9494
B( 25-C , 27-H ) :   0.9498 B( 25-C , 28-C ) :   1.0762 B( 28-C , 29-H ) :   0.9768
B( 28-C , 30-H ) :   0.9724 B( 28-C , 31-H ) :   0.9749

Dispersion correction           -0.014784777
FINAL SINGLE POINT ENERGY     -1339.877231062164

DIPOLE MOMENT
-------------
                                X             Y             Z
Electronic contribution:    -24.94291      14.05092      11.51418
Nuclear contribution   :     25.52050     -14.28826     -11.77413
                        -----------------------------------------
Total Dipole Moment    :      0.57760      -0.23734      -0.25995
                        -----------------------------------------
Magnitude (a.u.)       :      0.67640
Magnitude (Debye)      :      1.71928

Rotational constants in cm-1:     0.018274     0.009121     0.006859
Rotational constants in MHz :   547.839613   273.449652   205.637978

                             ****ORCA TERMINATED NORMALLY****
TOTAL RUN TIME: 0 days 0 hours 0 minutes 35 seconds 129 msec
