                         Program Version 4.2.1 -  RELEASE  -
|  1> ! wB97X-D3 SP def2-SVP
|  2> %pal
|  3> nprocs 16
|  4> end
|  5>
|  6> * xyz 0 1
|  7> S 	 -32.687 	 74.3536 	 152.46
|  8> C 	 -31.1035 	 74.1146 	 153.274
|  9> C 	 -30.156 	 73.4893 	 152.498
| 10> C 	 -30.6984 	 73.2607 	 151.183
| 11> C 	 -32.0925 	 73.4587 	 151.07
| 12> H 	 -30.206 	 72.8528 	 150.296
| 13> C 	 -28.648 	 73.3731 	 152.79
| 14> H 	 -28.4826 	 72.3914 	 153.236
| 15> H 	 -28.3608 	 73.9302 	 153.661
| 16> C 	 -27.5873 	 73.5694 	 151.637
| 17> H 	 -27.8415 	 72.9082 	 150.894
| 18> H 	 -27.7388 	 74.4739 	 151.089
| 19> C 	 -26.1732 	 73.4079 	 152.055
| 20> H 	 -25.3756 	 73.5747 	 151.248
| 21> H 	 -25.8978 	 74.1222 	 152.834
| 22> H 	 -25.9776 	 72.3543 	 152.403
| 23> S 	 -33.5133 	 74.4744 	 148.916
| 24> C 	 -34.1898 	 73.3644 	 147.711
| 25> C 	 -34.0545 	 72.017 	 148.063
| 26> C 	 -33.3066 	 71.9087 	 149.289
| 27> C 	 -32.9624 	 73.1346 	 149.911
| 28> H 	 -34.5229 	 71.3035 	 147.408
| 29> C 	 -33.2356 	 70.576 	 149.999
| 30> H 	 -32.1891 	 70.3741 	 150.49
| 31> H 	 -33.4726 	 69.7868 	 149.285
| 32> C 	 -34.3579 	 70.4986 	 151.073
| 33> H 	 -35.3133 	 70.7344 	 150.55
| 34> H 	 -34.1969 	 71.1592 	 151.927
| 35> C 	 -34.4932 	 69.1037 	 151.646
| 36> H 	 -33.5814 	 68.6041 	 151.482
| 37> H 	 -35.2207 	 68.4716 	 151.126
| 38> H 	 -34.6997 	 69.1345 	 152.703
| 39> H 	 -30.7706 	 74.6295 	 154.149
| 40> H 	 -34.7369 	 73.6411 	 146.804
| 41> *
| 42>
| 43>                          ****END OF INPUT****

CARTESIAN COORDINATES (ANGSTROEM)
---------------------------------
  S    -32.687000   74.353600  152.460000
  C    -31.103500   74.114600  153.274000
  C    -30.156000   73.489300  152.498000
  C    -30.698400   73.260700  151.183000
  C    -32.092500   73.458700  151.070000
  H    -30.206000   72.852800  150.296000
  C    -28.648000   73.373100  152.790000
  H    -28.482600   72.391400  153.236000
  H    -28.360800   73.930200  153.661000
  C    -27.587300   73.569400  151.637000
  H    -27.841500   72.908200  150.894000
  H    -27.738800   74.473900  151.089000
  C    -26.173200   73.407900  152.055000
  H    -25.375600   73.574700  151.248000
  H    -25.897800   74.122200  152.834000
  H    -25.977600   72.354300  152.403000
  S    -33.513300   74.474400  148.916000
  C    -34.189800   73.364400  147.711000
  C    -34.054500   72.017000  148.063000
  C    -33.306600   71.908700  149.289000
  C    -32.962400   73.134600  149.911000
  H    -34.522900   71.303500  147.408000
  C    -33.235600   70.576000  149.999000
  H    -32.189100   70.374100  150.490000
  H    -33.472600   69.786800  149.285000
  C    -34.357900   70.498600  151.073000
  H    -35.313300   70.734400  150.550000
  H    -34.196900   71.159200  151.927000
  C    -34.493200   69.103700  151.646000
  H    -33.581400   68.604100  151.482000
  H    -35.220700   68.471600  151.126000
  H    -34.699700   69.134500  152.703000
  H    -30.770600   74.629500  154.149000
  H    -34.736900   73.641100  146.804000

 Total Charge           Charge          ....    0
 Multiplicity           Mult            ....    1
 Number of Electrons    NEL             ....  134
 Basis Dimension        Dim             ....  322

ORBITAL ENERGIES
----------------

  NO   OCC          E(Eh)            E(eV)
   0   2.0000     -88.969995     -2420.9966
   1   2.0000     -88.968005     -2420.9425
   2   2.0000     -10.335380      -281.2400
   3   2.0000     -10.330490      -281.1069
   4   2.0000     -10.322890      -280.9001
   5   2.0000     -10.315750      -280.7058
   6   2.0000     -10.309799      -280.5439
   7   2.0000     -10.308958      -280.5210
   8   2.0000     -10.299927      -280.2752
   9   2.0000     -10.298930      -280.2481
  10   2.0000     -10.298477      -280.2358
  11   2.0000     -10.296106      -280.1713
  12   2.0000     -10.288935      -279.9761
  13   2.0000     -10.282488      -279.8007
  14   2.0000     -10.280424      -279.7446
  15   2.0000     -10.264283      -279.3053
  16   2.0000      -8.083568      -219.9651
  17   2.0000      -8.082042      -219.9235
  18   2.0000      -6.042128      -164.4147
  19   2.0000      -6.040555      -164.3719
  20   2.0000      -6.038351      -164.3119
  21   2.0000      -6.036531      -164.2624
  22   2.0000      -6.034227      -164.1997
  23   2.0000      -6.032954      -164.1650
  24   2.0000      -0.998012       -27.1573
  25   2.0000      -0.977387       -26.5960
  26   2.0000      -0.911172       -24.7943
  27   2.0000      -0.905195       -24.6316
  28   2.0000      -0.870173       -23.6786
  29   2.0000      -0.847740       -23.0682
  30   2.0000      -0.845008       -22.9938
  31   2.0000      -0.812646       -22.1132
  32   2.0000      -0.782172       -21.2840
  33   2.0000      -0.764134       -20.7931
  34   2.0000      -0.715466       -19.4688
  35   2.0000      -0.698021       -18.9941
  36   2.0000      -0.684183       -18.6176
  37   2.0000      -0.659833       -17.9550
  38   2.0000      -0.641883       -17.4665
  39   2.0000      -0.616221       -16.7682
  40   2.0000      -0.588060       -16.0019
  41   2.0000      -0.572897       -15.5893
  42   2.0000      -0.563789       -15.3415
  43   2.0000      -0.561158       -15.2699
  44   2.0000      -0.525709       -14.3053
  45   2.0000      -0.518060       -14.0971
  46   2.0000      -0.509120       -13.8539
  47   2.0000      -0.506935       -13.7944
  48   2.0000      -0.505613       -13.7584
  49   2.0000      -0.498436       -13.5631
  50   2.0000      -0.488725       -13.2989
  51   2.0000      -0.479804       -13.0561
  52   2.0000      -0.474080       -12.9004
  53   2.0000      -0.466290       -12.6884
  54   2.0000      -0.454048       -12.3553
  55   2.0000      -0.448413       -12.2020
  56   2.0000      -0.443450       -12.0669
  57   2.0000      -0.435025       -11.8376
  58   2.0000      -0.427823       -11.6416
  59   2.0000      -0.425112       -11.5679
  60   2.0000      -0.419755       -11.4221
  61   2.0000      -0.417298       -11.3553
  62   2.0000      -0.414663       -11.2836
  63   2.0000      -0.338140        -9.2013
  64   2.0000      -0.332575        -9.0498
  65   2.0000      -0.323015        -8.7897
  66   2.0000      -0.299103        -8.1390
  67   0.0000       0.030333         0.8254
  68   0.0000       0.056846         1.5469
  69   0.0000       0.105118         2.8604
  70   0.0000       0.120352         3.2749
  71   0.0000       0.126300         3.4368

MULLIKEN ATOMIC CHARGES
-----------------------
   0 S :    0.110961
   1 C :   -0.105221
   2 C :   -0.056370
   3 C :    0.023267
   4 C :   -0.180854
   5 H :    0.022972
   6 C :    0.053740
   7 H :    0.026084
   8 H :    0.001435
   9 C :   -0.006614
  10 H :    0.008218
  11 H :    0.023390
  12 C :   -0.088144
  13 H :    0.045939
  14 H :    0.036636
  15 H :    0.037676
  16 S :    0.112655
  17 C :   -0.105991
  18 C :   -0.040192
  19 C :   -0.009846
  20 C :   -0.158049
  21 H :    0.025363
  22 C :    0.018230
  23 H :    0.052185
  24 H :    0.017712
  25 C :   -0.090884
  26 H :    0.032503
  27 H :    0.038395
  28 C :   -0.011833
  29 H :    0.007993
  30 H :    0.027077
  31 H :    0.032035
  32 H :    0.038543
  33 H :    0.060990
Sum of atomic charges:    0.0000000

LOEWDIN ATOMIC CHARGES
----------------------
   0 S :    0.388099
   1 C :   -0.181082
   2 C :   -0.058297
   3 C :   -0.059486
   4 C :   -0.197750
   5 H :    0.032617
   6 C :   -0.029820
   7 H :    0.035569
   8 H :    0.023847
   9 C :   -0.039419
  10 H :    0.014269
  11 H :    0.025348
  12 C :   -0.071287
  13 H :    0.037907
  14 H :    0.025120
  15 H :    0.030201
  16 S :    0.402889
  17 C :   -0.178075
  18 C :   -0.073400
  19 C :   -0.049323
  20 C :   -0.211085
  21 H :    0.035468
  22 C :   -0.040298
  23 H :    0.040593
  24 H :    0.025714
  25 C :   -0.040024
  26 H :    0.027919
  27 H :    0.025229
  28 C :   -0.065413
  29 H :    0.016777
  30 H :    0.025157
  31 H :    0.026530
  32 H :    0.023369
  33 H :    0.032137

  Mayer bond orders larger than 0.100000
B(  0-S ,  1-C ) :   1.1282 B(  0-S ,  4-C ) :   1.1440 B(  1-C ,  2-C ) :   1.6416
B(  1-C , 32-H ) :   0.9622 B(  2-C ,  3-C ) :   1.2222 B(  2-C ,  6-C ) :   1.0129
B(  3-C ,  4-C ) :   1.5963 B(  3-C ,  5-H ) :   0.9865 B(  4-C , 20-C ) :   1.0174
B(  6-C ,  7-H ) :   0.9270 B(  6-C ,  8-H ) :   0.9451 B(  6-C ,  9-C ) :   1.0534
B(  9-C , 10-H ) :   0.9401 B(  9-C , 11-H ) :   0.9527 B(  9-C , 12-C ) :   1.0940
B( 12-C , 13-H ) :   0.9707 B( 12-C , 14-H ) :   0.9755 B( 12-C , 15-H ) :   0.9733
B( 16-S , 17-C ) :   1.1687 B( 16-S , 20-C ) :   1.1395 B( 17-C , 18-C ) :   1.6102
B( 17-C , 20-C ) :   0.1027 B( 17-C , 33-H ) :   0.9618 B( 18-C , 19-C ) :   1.2334
B( 18-C , 21-H ) :   0.9929 B( 19-C , 20-C ) :   1.5764 B( 19-C , 22-C ) :   1.0666
B( 22-C , 23-H ) :   0.9261 B( 22-C , 24-H ) :   0.9392 B( 22-C , 25-C ) :   1.0678
B( 25-C , 26-H ) :   0.9591 B( 25-C , 27-H ) :   0.9593 B( 25-C , 28-C ) :   1.0776
B( 28-C , 29-H ) :   0.9711 B( 28-C , 30-H ) :   0.9744 B( 28-C , 31-H ) :   0.9751

Dispersion correction           -0.013900297
FINAL SINGLE POINT ENERGY     -1339.859866892996

DIPOLE MOMENT
-------------
                                X             Y             Z
Electronic contribution:    -15.58487      17.39503      -6.08156
Nuclear contribution   :     15.97477     -17.76804       5.93679
                        -----------------------------------------
Total Dipole Moment    :      0.38991      -0.37302      -0.14477
                        -----------------------------------------
Magnitude (a.u.)       :      0.55868
Magnitude (Debye)      :      1.42006

Rotational constants in cm-1:     0.017889     0.007602     0.006951
Rotational constants in MHz :   536.309469   227.915878   208.397456

                             ****ORCA TERMINATED NORMALLY****
TOTAL RUN TIME: 0 days 0 hours 0 minutes 33 seconds 223 msec
