                         Program Version 4.2.1 -  RELEASE  -
|  1> ! wB97X-D3 SP def2-SVP
|  2> %pal
|  3> nprocs 16
|  4> end
|  5>
|  6> * xyz 0 1
|  7> S 	 9.76661 	 -6.84505 	 88.4015
|  8> C 	 10.8046 	 -5.83822 	 87.3289
|  9> C 	 10.1002 	 -5.47686 	 86.2079
| 10> C 	 8.90708 	 -6.30103 	 86.0551
| 11> C 	 8.51876 	 -7.004 	 87.2057
| 12> H 	 8.19381 	 -6.21388 	 85.2472
| 13> C 	 10.5537 	 -4.50426 	 85.2043
| 14> H 	 10.6366 	 -5.05919 	 84.2934
| 15> H 	 11.5646 	 -4.14112 	 85.4569
| 16> C 	 9.55886 	 -3.35897 	 85.0925
| 17> H 	 9.64803 	 -2.84422 	 84.1553
| 18> H 	 8.57657 	 -3.78637 	 85.1071
| 19> C 	 9.63778 	 -2.35988 	 86.2684
| 20> H 	 8.69617 	 -1.85587 	 86.5192
| 21> H 	 9.95667 	 -2.90313 	 87.205
| 22> H 	 10.4772 	 -1.64869 	 85.984
| 23> S 	 7.56342 	 -9.50365 	 87.8264
| 24> C 	 5.88513 	 -9.80302 	 87.9959
| 25> C 	 5.09182 	 -8.6534 	 87.7273
| 26> C 	 5.92325 	 -7.55161 	 87.2998
| 27> C 	 7.30551 	 -7.8342 	 87.4182
| 28> H 	 3.98538 	 -8.80161 	 87.7629
| 29> C 	 5.38998 	 -6.17963 	 87.112
| 30> H 	 4.7648 	 -6.08624 	 86.2062
| 31> H 	 6.13647 	 -5.33035 	 87.038
| 32> C 	 4.37269 	 -5.81363 	 88.1766
| 33> H 	 4.78531 	 -6.04227 	 89.1349
| 34> H 	 3.46861 	 -6.44645 	 88.0581
| 35> C 	 3.94564 	 -4.39447 	 88.059
| 36> H 	 3.28541 	 -3.99749 	 88.8897
| 37> H 	 3.37295 	 -4.10488 	 87.111
| 38> H 	 4.82343 	 -3.73156 	 88.0615
| 39> H 	 11.7156 	 -5.39626 	 87.7363
| 40> H 	 5.48582 	 -10.6577 	 88.5508
| 41> *
| 42>
| 43>                          ****END OF INPUT****

CARTESIAN COORDINATES (ANGSTROEM)
---------------------------------
  S      9.766610   -6.845050   88.401500
  C     10.804600   -5.838220   87.328900
  C     10.100200   -5.476860   86.207900
  C      8.907080   -6.301030   86.055100
  C      8.518760   -7.004000   87.205700
  H      8.193810   -6.213880   85.247200
  C     10.553700   -4.504260   85.204300
  H     10.636600   -5.059190   84.293400
  H     11.564600   -4.141120   85.456900
  C      9.558860   -3.358970   85.092500
  H      9.648030   -2.844220   84.155300
  H      8.576570   -3.786370   85.107100
  C      9.637780   -2.359880   86.268400
  H      8.696170   -1.855870   86.519200
  H      9.956670   -2.903130   87.205000
  H     10.477200   -1.648690   85.984000
  S      7.563420   -9.503650   87.826400
  C      5.885130   -9.803020   87.995900
  C      5.091820   -8.653400   87.727300
  C      5.923250   -7.551610   87.299800
  C      7.305510   -7.834200   87.418200
  H      3.985380   -8.801610   87.762900
  C      5.389980   -6.179630   87.112000
  H      4.764800   -6.086240   86.206200
  H      6.136470   -5.330350   87.038000
  C      4.372690   -5.813630   88.176600
  H      4.785310   -6.042270   89.134900
  H      3.468610   -6.446450   88.058100
  C      3.945640   -4.394470   88.059000
  H      3.285410   -3.997490   88.889700
  H      3.372950   -4.104880   87.111000
  H      4.823430   -3.731560   88.061500
  H     11.715600   -5.396260   87.736300
  H      5.485820  -10.657700   88.550800

 Total Charge           Charge          ....    0
 Multiplicity           Mult            ....    1
 Number of Electrons    NEL             ....  134
 Basis Dimension        Dim             ....  322

ORBITAL ENERGIES
----------------

  NO   OCC          E(Eh)            E(eV)
   0   2.0000     -88.967826     -2420.9376
   1   2.0000     -88.962628     -2420.7962
   2   2.0000     -10.335441      -281.2416
   3   2.0000     -10.331571      -281.1363
   4   2.0000     -10.319842      -280.8172
   5   2.0000     -10.318023      -280.7677
   6   2.0000     -10.312150      -280.6079
   7   2.0000     -10.305885      -280.4374
   8   2.0000     -10.303834      -280.3816
   9   2.0000     -10.297613      -280.2123
  10   2.0000     -10.292226      -280.0657
  11   2.0000     -10.289900      -280.0024
  12   2.0000     -10.285716      -279.8886
  13   2.0000     -10.284794      -279.8635
  14   2.0000     -10.283328      -279.8236
  15   2.0000     -10.281065      -279.7620
  16   2.0000      -8.083307      -219.9580
  17   2.0000      -8.077099      -219.7890
  18   2.0000      -6.041623      -164.4009
  19   2.0000      -6.037529      -164.2895
  20   2.0000      -6.035679      -164.2392
  21   2.0000      -6.034396      -164.2043
  22   2.0000      -6.031588      -164.1278
  23   2.0000      -6.027843      -164.0259
  24   2.0000      -1.004622       -27.3371
  25   2.0000      -0.983503       -26.7625
  26   2.0000      -0.921217       -25.0676
  27   2.0000      -0.918920       -25.0051
  28   2.0000      -0.864962       -23.5368
  29   2.0000      -0.853038       -23.2123
  30   2.0000      -0.838985       -22.8299
  31   2.0000      -0.811790       -22.0899
  32   2.0000      -0.781132       -21.2557
  33   2.0000      -0.770131       -20.9563
  34   2.0000      -0.707450       -19.2507
  35   2.0000      -0.697110       -18.9693
  36   2.0000      -0.690081       -18.7781
  37   2.0000      -0.653363       -17.7789
  38   2.0000      -0.641279       -17.4501
  39   2.0000      -0.622429       -16.9372
  40   2.0000      -0.602048       -16.3826
  41   2.0000      -0.574018       -15.6198
  42   2.0000      -0.570550       -15.5255
  43   2.0000      -0.556212       -15.1353
  44   2.0000      -0.540783       -14.7155
  45   2.0000      -0.523336       -14.2407
  46   2.0000      -0.513033       -13.9603
  47   2.0000      -0.510577       -13.8935
  48   2.0000      -0.503463       -13.6999
  49   2.0000      -0.498900       -13.5758
  50   2.0000      -0.485731       -13.2174
  51   2.0000      -0.472386       -12.8543
  52   2.0000      -0.468133       -12.7386
  53   2.0000      -0.465675       -12.6717
  54   2.0000      -0.459969       -12.5164
  55   2.0000      -0.450762       -12.2659
  56   2.0000      -0.443450       -12.0669
  57   2.0000      -0.439917       -11.9707
  58   2.0000      -0.432503       -11.7690
  59   2.0000      -0.424111       -11.5406
  60   2.0000      -0.421402       -11.4669
  61   2.0000      -0.415399       -11.3036
  62   2.0000      -0.413590       -11.2543
  63   2.0000      -0.338672        -9.2157
  64   2.0000      -0.332267        -9.0414
  65   2.0000      -0.324633        -8.8337
  66   2.0000      -0.299335        -8.1453
  67   0.0000       0.028097         0.7646
  68   0.0000       0.068312         1.8589
  69   0.0000       0.108663         2.9569
  70   0.0000       0.117041         3.1849
  71   0.0000       0.126092         3.4311

MULLIKEN ATOMIC CHARGES
-----------------------
   0 S :    0.088374
   1 C :   -0.129205
   2 C :   -0.119112
   3 C :    0.047091
   4 C :   -0.152221
   5 H :    0.014727
   6 C :    0.095302
   7 H :    0.032210
   8 H :    0.016873
   9 C :   -0.055057
  10 H :    0.026084
  11 H :    0.016802
  12 C :   -0.085989
  13 H :    0.045816
  14 H :    0.039843
  15 H :    0.041778
  16 S :    0.128869
  17 C :   -0.108562
  18 C :   -0.078263
  19 C :    0.023342
  20 C :   -0.171954
  21 H :    0.049821
  22 C :    0.025235
  23 H :    0.023199
  24 H :    0.038532
  25 C :   -0.068653
  26 H :    0.030555
  27 H :    0.031265
  28 C :   -0.082032
  29 H :    0.043143
  30 H :    0.035424
  31 H :    0.024922
  32 H :    0.060127
  33 H :    0.071714
Sum of atomic charges:    0.0000000

LOEWDIN ATOMIC CHARGES
----------------------
   0 S :    0.384286
   1 C :   -0.184205
   2 C :   -0.059194
   3 C :   -0.064308
   4 C :   -0.197698
   5 H :    0.026997
   6 C :   -0.028586
   7 H :    0.034338
   8 H :    0.030345
   9 C :   -0.038751
  10 H :    0.020806
  11 H :    0.019133
  12 C :   -0.072678
  13 H :    0.027596
  14 H :    0.030312
  15 H :    0.031953
  16 S :    0.439001
  17 C :   -0.204982
  18 C :   -0.076321
  19 C :   -0.051340
  20 C :   -0.211036
  21 H :    0.043162
  22 C :   -0.040902
  23 H :    0.033896
  24 H :    0.034674
  25 C :   -0.044326
  26 H :    0.021593
  27 H :    0.025547
  28 C :   -0.078308
  29 H :    0.032874
  30 H :    0.030700
  31 H :    0.022655
  32 H :    0.029273
  33 H :    0.033495

  Mayer bond orders larger than 0.100000
B(  0-S ,  1-C ) :   1.1194 B(  0-S ,  4-C ) :   1.1619 B(  1-C ,  2-C ) :   1.6157
B(  1-C , 32-H ) :   0.9677 B(  2-C ,  3-C ) :   1.2097 B(  2-C ,  6-C ) :   1.0392
B(  3-C ,  4-C ) :   1.5865 B(  3-C ,  5-H ) :   0.9846 B(  4-C , 20-C ) :   1.0168
B(  6-C ,  7-H ) :   0.9303 B(  6-C ,  8-H ) :   0.9440 B(  6-C ,  9-C ) :   1.0628
B(  9-C , 10-H ) :   0.9581 B(  9-C , 11-H ) :   0.9592 B(  9-C , 12-C ) :   1.0602
B( 12-C , 13-H ) :   0.9760 B( 12-C , 14-H ) :   0.9774 B( 12-C , 15-H ) :   0.9768
B( 16-S , 17-C ) :   1.1887 B( 16-S , 20-C ) :   1.1653 B( 17-C , 18-C ) :   1.5849
B( 17-C , 20-C ) :   0.1024 B( 17-C , 33-H ) :   0.9607 B( 18-C , 19-C ) :   1.2450
B( 18-C , 21-H ) :   0.9813 B( 19-C , 20-C ) :   1.5590 B( 19-C , 22-C ) :   1.0582
B( 22-C , 23-H ) :   0.9184 B( 22-C , 24-H ) :   0.9486 B( 22-C , 25-C ) :   1.0639
B( 25-C , 26-H ) :   0.9561 B( 25-C , 27-H ) :   0.9400 B( 25-C , 28-C ) :   1.0922
B( 28-C , 29-H ) :   0.9713 B( 28-C , 30-H ) :   0.9705 B( 28-C , 31-H ) :   0.9712

Dispersion correction           -0.014281461
FINAL SINGLE POINT ENERGY     -1339.880063452337

DIPOLE MOMENT
-------------
                                X             Y             Z
Electronic contribution:     10.27059     -26.38100       6.99140
Nuclear contribution   :    -10.61433      26.85889      -7.21116
                        -----------------------------------------
Total Dipole Moment    :     -0.34374       0.47789      -0.21975
                        -----------------------------------------
Magnitude (a.u.)       :      0.62836
Magnitude (Debye)      :      1.59716

Rotational constants in cm-1:     0.017659     0.009454     0.006893
Rotational constants in MHz :   529.400032   283.409121   206.646948

                             ****ORCA TERMINATED NORMALLY****
TOTAL RUN TIME: 0 days 0 hours 0 minutes 34 seconds 154 msec
