                         Program Version 4.2.1 -  RELEASE  -
|  1> ! wB97X-D3 SP def2-SVP
|  2> %pal
|  3> nprocs 16
|  4> end
|  5>
|  6> * xyz 0 1
|  7> S 	 36.9562 	 31.6361 	 53.926
|  8> C 	 36.1377 	 32.8236 	 52.9463
|  9> C 	 35.3098 	 33.6242 	 53.7305
| 10> C 	 35.4966 	 33.3178 	 55.1126
| 11> C 	 36.3484 	 32.2464 	 55.4002
| 12> H 	 34.9298 	 33.8423 	 55.8914
| 13> C 	 34.4088 	 34.7536 	 53.3014
| 14> H 	 35.0719 	 35.3847 	 52.8033
| 15> H 	 33.9673 	 35.1462 	 54.1691
| 16> C 	 33.3192 	 34.3491 	 52.3154
| 17> H 	 33.7498 	 33.8896 	 51.3781
| 18> H 	 32.6597 	 33.6072 	 52.7251
| 19> C 	 32.394 	 35.5294 	 51.905
| 20> H 	 32.911 	 36.0232 	 51.0677
| 21> H 	 31.4494 	 35.2118 	 51.5648
| 22> H 	 32.2411 	 36.1605 	 52.8075
| 23> S 	 38.3875 	 31.5716 	 57.1226
| 24> C 	 37.904 	 31.3322 	 58.7556
| 25> C 	 36.5424 	 31.1517 	 58.9199
| 26> C 	 35.8203 	 31.4015 	 57.7002
| 27> C 	 36.6502 	 31.6796 	 56.6684
| 28> H 	 36.1693 	 30.84 	 59.8451
| 29> C 	 34.3255 	 31.2475 	 57.5824
| 30> H 	 33.9948 	 30.4067 	 57.0055
| 31> H 	 33.9879 	 32.1502 	 57.0959
| 32> C 	 33.4954 	 31.0953 	 58.8615
| 33> H 	 33.7338 	 31.958 	 59.4938
| 34> H 	 33.7839 	 30.1932 	 59.3953
| 35> C 	 31.9829 	 30.9299 	 58.6095
| 36> H 	 31.5676 	 30.4725 	 59.5719
| 37> H 	 31.7453 	 30.1286 	 58.0192
| 38> H 	 31.4319 	 31.8093 	 58.3293
| 39> H 	 36.2881 	 32.9305 	 51.8588
| 40> H 	 38.585 	 31.186 	 59.6213
| 41> *
| 42>
| 43>                          ****END OF INPUT****

CARTESIAN COORDINATES (ANGSTROEM)
---------------------------------
  S     36.956200   31.636100   53.926000
  C     36.137700   32.823600   52.946300
  C     35.309800   33.624200   53.730500
  C     35.496600   33.317800   55.112600
  C     36.348400   32.246400   55.400200
  H     34.929800   33.842300   55.891400
  C     34.408800   34.753600   53.301400
  H     35.071900   35.384700   52.803300
  H     33.967300   35.146200   54.169100
  C     33.319200   34.349100   52.315400
  H     33.749800   33.889600   51.378100
  H     32.659700   33.607200   52.725100
  C     32.394000   35.529400   51.905000
  H     32.911000   36.023200   51.067700
  H     31.449400   35.211800   51.564800
  H     32.241100   36.160500   52.807500
  S     38.387500   31.571600   57.122600
  C     37.904000   31.332200   58.755600
  C     36.542400   31.151700   58.919900
  C     35.820300   31.401500   57.700200
  C     36.650200   31.679600   56.668400
  H     36.169300   30.840000   59.845100
  C     34.325500   31.247500   57.582400
  H     33.994800   30.406700   57.005500
  H     33.987900   32.150200   57.095900
  C     33.495400   31.095300   58.861500
  H     33.733800   31.958000   59.493800
  H     33.783900   30.193200   59.395300
  C     31.982900   30.929900   58.609500
  H     31.567600   30.472500   59.571900
  H     31.745300   30.128600   58.019200
  H     31.431900   31.809300   58.329300
  H     36.288100   32.930500   51.858800
  H     38.585000   31.186000   59.621300

 Total Charge           Charge          ....    0
 Multiplicity           Mult            ....    1
 Number of Electrons    NEL             ....  134
 Basis Dimension        Dim             ....  322

ORBITAL ENERGIES
----------------

  NO   OCC          E(Eh)            E(eV)
   0   2.0000     -88.965954     -2420.8867
   1   2.0000     -88.963426     -2420.8179
   2   2.0000     -10.322337      -280.8851
   3   2.0000     -10.320730      -280.8413
   4   2.0000     -10.318417      -280.7784
   5   2.0000     -10.312583      -280.6196
   6   2.0000     -10.302434      -280.3435
   7   2.0000     -10.298094      -280.2254
   8   2.0000     -10.290719      -280.0247
   9   2.0000     -10.289775      -279.9990
  10   2.0000     -10.287959      -279.9496
  11   2.0000     -10.286410      -279.9074
  12   2.0000     -10.285058      -279.8706
  13   2.0000     -10.283988      -279.8415
  14   2.0000     -10.278255      -279.6855
  15   2.0000     -10.278107      -279.6815
  16   2.0000      -8.080756      -219.8885
  17   2.0000      -8.078903      -219.8381
  18   2.0000      -6.039228      -164.3357
  19   2.0000      -6.037340      -164.2844
  20   2.0000      -6.035447      -164.2329
  21   2.0000      -6.033111      -164.1693
  22   2.0000      -6.031351      -164.1214
  23   2.0000      -6.029909      -164.0822
  24   2.0000      -1.009712       -27.4757
  25   2.0000      -0.985162       -26.8076
  26   2.0000      -0.916412       -24.9368
  27   2.0000      -0.912021       -24.8174
  28   2.0000      -0.871580       -23.7169
  29   2.0000      -0.855697       -23.2847
  30   2.0000      -0.845249       -23.0004
  31   2.0000      -0.809750       -22.0344
  32   2.0000      -0.788382       -21.4530
  33   2.0000      -0.775814       -21.1110
  34   2.0000      -0.707315       -19.2470
  35   2.0000      -0.701904       -19.0998
  36   2.0000      -0.694807       -18.9067
  37   2.0000      -0.656668       -17.8688
  38   2.0000      -0.636992       -17.3334
  39   2.0000      -0.619657       -16.8617
  40   2.0000      -0.600147       -16.3308
  41   2.0000      -0.580007       -15.7828
  42   2.0000      -0.577290       -15.7089
  43   2.0000      -0.562995       -15.3199
  44   2.0000      -0.528377       -14.3779
  45   2.0000      -0.522507       -14.2181
  46   2.0000      -0.520472       -14.1628
  47   2.0000      -0.511046       -13.9063
  48   2.0000      -0.508349       -13.8329
  49   2.0000      -0.498533       -13.5658
  50   2.0000      -0.489805       -13.3283
  51   2.0000      -0.484468       -13.1830
  52   2.0000      -0.475908       -12.9501
  53   2.0000      -0.466034       -12.6814
  54   2.0000      -0.457464       -12.4482
  55   2.0000      -0.455550       -12.3962
  56   2.0000      -0.444386       -12.0924
  57   2.0000      -0.435736       -11.8570
  58   2.0000      -0.434151       -11.8138
  59   2.0000      -0.424937       -11.5631
  60   2.0000      -0.422859       -11.5066
  61   2.0000      -0.414751       -11.2859
  62   2.0000      -0.412822       -11.2335
  63   2.0000      -0.343190        -9.3387
  64   2.0000      -0.333269        -9.0687
  65   2.0000      -0.327870        -8.9218
  66   2.0000      -0.287724        -7.8294
  67   0.0000       0.030021         0.8169
  68   0.0000       0.068429         1.8621
  69   0.0000       0.112879         3.0716
  70   0.0000       0.129628         3.5273
  71   0.0000       0.131746         3.5850

MULLIKEN ATOMIC CHARGES
-----------------------
   0 S :    0.114294
   1 C :   -0.149020
   2 C :   -0.107159
   3 C :    0.005105
   4 C :   -0.156322
   5 H :    0.015568
   6 C :    0.161057
   7 H :    0.023078
   8 H :    0.002673
   9 C :   -0.125209
  10 H :    0.032131
  11 H :    0.024129
  12 C :   -0.034942
  13 H :    0.037847
  14 H :    0.025205
  15 H :    0.033941
  16 S :    0.115615
  17 C :   -0.086334
  18 C :   -0.036534
  19 C :   -0.020691
  20 C :   -0.145146
  21 H :   -0.004074
  22 C :    0.104514
  23 H :    0.032986
  24 H :    0.009704
  25 C :   -0.118501
  26 H :    0.031478
  27 H :    0.028769
  28 C :   -0.013077
  29 H :    0.026138
  30 H :    0.007800
  31 H :    0.043128
  32 H :    0.057224
  33 H :    0.064628
Sum of atomic charges:   -0.0000000

LOEWDIN ATOMIC CHARGES
----------------------
   0 S :    0.430480
   1 C :   -0.213519
   2 C :   -0.058324
   3 C :   -0.071083
   4 C :   -0.212424
   5 H :    0.027544
   6 C :   -0.018651
   7 H :    0.030117
   8 H :    0.023521
   9 C :   -0.040375
  10 H :    0.025715
  11 H :    0.018772
  12 C :   -0.062656
  13 H :    0.028337
  14 H :    0.018090
  15 H :    0.028236
  16 S :    0.398222
  17 C :   -0.188952
  18 C :   -0.069585
  19 C :   -0.044776
  20 C :   -0.189314
  21 H :    0.021302
  22 C :   -0.031914
  23 H :    0.033025
  24 H :    0.029506
  25 C :   -0.041384
  26 H :    0.023356
  27 H :    0.021877
  28 C :   -0.060690
  29 H :    0.039546
  30 H :    0.013309
  31 H :    0.024152
  32 H :    0.031828
  33 H :    0.036714

  Mayer bond orders larger than 0.100000
B(  0-S ,  1-C ) :   1.1529 B(  0-S ,  4-C ) :   1.1741 B(  1-C ,  2-C ) :   1.5606
B(  1-C ,  4-C ) :   0.1035 B(  1-C , 32-H ) :   0.9698 B(  2-C ,  3-C ) :   1.3013
B(  2-C ,  6-C ) :   1.0162 B(  3-C ,  4-C ) :   1.5307 B(  3-C ,  5-H ) :   0.9826
B(  4-C , 20-C ) :   1.0461 B(  6-C ,  7-H ) :   0.9304 B(  6-C ,  8-H ) :   0.9330
B(  6-C ,  9-C ) :   1.0706 B(  9-C , 10-H ) :   0.9586 B(  9-C , 11-H ) :   0.9607
B(  9-C , 12-C ) :   1.0762 B( 12-C , 13-H ) :   0.9793 B( 12-C , 14-H ) :   0.9775
B( 12-C , 15-H ) :   0.9743 B( 16-S , 17-C ) :   1.1642 B( 16-S , 20-C ) :   1.1106
B( 17-C , 18-C ) :   1.6199 B( 17-C , 33-H ) :   0.9549 B( 18-C , 19-C ) :   1.2117
B( 18-C , 21-H ) :   0.9988 B( 19-C , 20-C ) :   1.6393 B( 19-C , 22-C ) :   1.0293
B( 22-C , 23-H ) :   0.9317 B( 22-C , 24-H ) :   0.9204 B( 22-C , 25-C ) :   1.0896
B( 25-C , 26-H ) :   0.9549 B( 25-C , 27-H ) :   0.9476 B( 25-C , 28-C ) :   1.0886
B( 28-C , 29-H ) :   0.9701 B( 28-C , 30-H ) :   0.9673 B( 28-C , 31-H ) :   0.9775

Dispersion correction           -0.013311166
FINAL SINGLE POINT ENERGY     -1339.871297288620

DIPOLE MOMENT
-------------
                                X             Y             Z
Electronic contribution:     30.02336      -8.90603       1.00695
Nuclear contribution   :    -30.69390       9.04363      -0.81677
                        -----------------------------------------
Total Dipole Moment    :     -0.67054       0.13760       0.19018
                        -----------------------------------------
Magnitude (a.u.)       :      0.71044
Magnitude (Debye)      :      1.80580

Rotational constants in cm-1:     0.017215     0.008314     0.006049
Rotational constants in MHz :   516.101526   249.247651   181.353332

                             ****ORCA TERMINATED NORMALLY****
TOTAL RUN TIME: 0 days 0 hours 0 minutes 31 seconds 911 msec
