                         Program Version 4.2.1 -  RELEASE  -
|  1> ! wB97X-D3 SP def2-SVP
|  2> %pal
|  3> nprocs 16
|  4> end
|  5>
|  6> * xyz 0 1
|  7> S 	 -66.7305 	 52.1172 	 130.368
|  8> C 	 -66.5118 	 53.7876 	 130.893
|  9> C 	 -67.4328 	 54.1621 	 131.876
| 10> C 	 -68.4027 	 53.158 	 132.047
| 11> C 	 -68.1713 	 52.0319 	 131.364
| 12> H 	 -69.316 	 53.3207 	 132.642
| 13> C 	 -67.3567 	 55.4959 	 132.583
| 14> H 	 -68.1699 	 55.4524 	 133.268
| 15> H 	 -67.6399 	 56.2878 	 131.965
| 16> C 	 -65.91 	 55.7657 	 133.064
| 17> H 	 -65.5376 	 54.9993 	 133.632
| 18> H 	 -65.217 	 55.9594 	 132.266
| 19> C 	 -65.9395 	 57.0928 	 133.902
| 20> H 	 -66.9438 	 57.0554 	 134.325
| 21> H 	 -65.1983 	 57.2514 	 134.669
| 22> H 	 -65.7963 	 57.8354 	 133.142
| 23> S 	 -68.1239 	 49.4888 	 132.627
| 24> C 	 -69.5331 	 48.5072 	 132.504
| 25> C 	 -70.5442 	 49.1562 	 131.785
| 26> C 	 -70.2081 	 50.4552 	 131.274
| 27> C 	 -68.8954 	 50.7638 	 131.607
| 28> H 	 -71.5097 	 48.6642 	 131.717
| 29> C 	 -71.1765 	 51.386 	 130.488
| 30> H 	 -71.7588 	 50.7457 	 129.833
| 31> H 	 -70.5908 	 52.0089 	 129.81
| 32> C 	 -72.2039 	 52.2205 	 131.32
| 33> H 	 -72.8292 	 52.8051 	 130.655
| 34> H 	 -71.4904 	 52.8921 	 131.859
| 35> C 	 -73.1315 	 51.3724 	 132.231
| 36> H 	 -73.8519 	 51.99 	 132.814
| 37> H 	 -72.6106 	 50.7112 	 132.936
| 38> H 	 -73.8044 	 50.6754 	 131.643
| 39> H 	 -65.613 	 54.3668 	 130.659
| 40> H 	 -69.8082 	 47.6057 	 133.089
| 41> *
| 42>
| 43>                          ****END OF INPUT****

CARTESIAN COORDINATES (ANGSTROEM)
---------------------------------
  S    -66.730500   52.117200  130.368000
  C    -66.511800   53.787600  130.893000
  C    -67.432800   54.162100  131.876000
  C    -68.402700   53.158000  132.047000
  C    -68.171300   52.031900  131.364000
  H    -69.316000   53.320700  132.642000
  C    -67.356700   55.495900  132.583000
  H    -68.169900   55.452400  133.268000
  H    -67.639900   56.287800  131.965000
  C    -65.910000   55.765700  133.064000
  H    -65.537600   54.999300  133.632000
  H    -65.217000   55.959400  132.266000
  C    -65.939500   57.092800  133.902000
  H    -66.943800   57.055400  134.325000
  H    -65.198300   57.251400  134.669000
  H    -65.796300   57.835400  133.142000
  S    -68.123900   49.488800  132.627000
  C    -69.533100   48.507200  132.504000
  C    -70.544200   49.156200  131.785000
  C    -70.208100   50.455200  131.274000
  C    -68.895400   50.763800  131.607000
  H    -71.509700   48.664200  131.717000
  C    -71.176500   51.386000  130.488000
  H    -71.758800   50.745700  129.833000
  H    -70.590800   52.008900  129.810000
  C    -72.203900   52.220500  131.320000
  H    -72.829200   52.805100  130.655000
  H    -71.490400   52.892100  131.859000
  C    -73.131500   51.372400  132.231000
  H    -73.851900   51.990000  132.814000
  H    -72.610600   50.711200  132.936000
  H    -73.804400   50.675400  131.643000
  H    -65.613000   54.366800  130.659000
  H    -69.808200   47.605700  133.089000

 Total Charge           Charge          ....    0
 Multiplicity           Mult            ....    1
 Number of Electrons    NEL             ....  134
 Basis Dimension        Dim             ....  322

ORBITAL ENERGIES
----------------

  NO   OCC          E(Eh)            E(eV)
   0   2.0000     -88.967007     -2420.9153
   1   2.0000     -88.966707     -2420.9072
   2   2.0000     -10.328336      -281.0483
   3   2.0000     -10.323414      -280.9144
   4   2.0000     -10.317590      -280.7559
   5   2.0000     -10.313046      -280.6322
   6   2.0000     -10.306496      -280.4540
   7   2.0000     -10.297310      -280.2041
   8   2.0000     -10.296228      -280.1746
   9   2.0000     -10.295438      -280.1531
  10   2.0000     -10.293243      -280.0934
  11   2.0000     -10.290577      -280.0208
  12   2.0000     -10.288709      -279.9700
  13   2.0000     -10.287960      -279.9496
  14   2.0000     -10.282845      -279.8104
  15   2.0000     -10.275248      -279.6037
  16   2.0000      -8.081152      -219.8993
  17   2.0000      -8.081114      -219.8983
  18   2.0000      -6.039631      -164.3467
  19   2.0000      -6.039530      -164.3440
  20   2.0000      -6.035793      -164.2423
  21   2.0000      -6.035735      -164.2407
  22   2.0000      -6.031970      -164.1383
  23   2.0000      -6.031886      -164.1360
  24   2.0000      -1.004264       -27.3274
  25   2.0000      -0.980588       -26.6832
  26   2.0000      -0.916324       -24.9344
  27   2.0000      -0.901526       -24.5318
  28   2.0000      -0.862715       -23.4757
  29   2.0000      -0.852764       -23.2049
  30   2.0000      -0.842238       -22.9185
  31   2.0000      -0.811138       -22.0722
  32   2.0000      -0.784230       -21.3400
  33   2.0000      -0.768918       -20.9233
  34   2.0000      -0.716809       -19.5054
  35   2.0000      -0.701480       -19.0883
  36   2.0000      -0.686613       -18.6837
  37   2.0000      -0.652835       -17.7645
  38   2.0000      -0.641744       -17.4627
  39   2.0000      -0.620049       -16.8724
  40   2.0000      -0.587436       -15.9849
  41   2.0000      -0.575710       -15.6659
  42   2.0000      -0.565090       -15.3769
  43   2.0000      -0.551666       -15.0116
  44   2.0000      -0.540760       -14.7148
  45   2.0000      -0.529392       -14.4055
  46   2.0000      -0.517028       -14.0691
  47   2.0000      -0.511462       -13.9176
  48   2.0000      -0.500473       -13.6186
  49   2.0000      -0.491934       -13.3862
  50   2.0000      -0.484865       -13.1938
  51   2.0000      -0.476257       -12.9596
  52   2.0000      -0.469220       -12.7681
  53   2.0000      -0.465809       -12.6753
  54   2.0000      -0.453685       -12.3454
  55   2.0000      -0.447197       -12.1688
  56   2.0000      -0.442758       -12.0480
  57   2.0000      -0.439566       -11.9612
  58   2.0000      -0.433247       -11.7892
  59   2.0000      -0.430733       -11.7208
  60   2.0000      -0.426138       -11.5958
  61   2.0000      -0.419279       -11.4092
  62   2.0000      -0.414111       -11.2685
  63   2.0000      -0.340981        -9.2786
  64   2.0000      -0.331506        -9.0207
  65   2.0000      -0.323047        -8.7906
  66   2.0000      -0.300354        -8.1730
  67   0.0000       0.039962         1.0874
  68   0.0000       0.055662         1.5146
  69   0.0000       0.117843         3.2067
  70   0.0000       0.120193         3.2706
  71   0.0000       0.127603         3.4723

MULLIKEN ATOMIC CHARGES
-----------------------
   0 S :    0.116265
   1 C :   -0.134699
   2 C :   -0.110697
   3 C :    0.036674
   4 C :   -0.175772
   5 H :    0.023107
   6 C :    0.122091
   7 H :    0.004447
   8 H :    0.021885
   9 C :   -0.081279
  10 H :    0.022234
  11 H :    0.031910
  12 C :   -0.039810
  13 H :    0.032445
  14 H :    0.036298
  15 H :    0.027400
  16 S :    0.119520
  17 C :   -0.101737
  18 C :   -0.063234
  19 C :   -0.026029
  20 C :   -0.180161
  21 H :    0.017597
  22 C :    0.078207
  23 H :    0.014399
  24 H :    0.036642
  25 C :   -0.044694
  26 H :    0.035982
  27 H :    0.026644
  28 C :   -0.089387
  29 H :    0.040801
  30 H :    0.046205
  31 H :    0.031004
  32 H :    0.054188
  33 H :    0.071555
Sum of atomic charges:   -0.0000000

LOEWDIN ATOMIC CHARGES
----------------------
   0 S :    0.401071
   1 C :   -0.192958
   2 C :   -0.060580
   3 C :   -0.063799
   4 C :   -0.199551
   5 H :    0.035683
   6 C :   -0.023935
   7 H :    0.025899
   8 H :    0.028211
   9 C :   -0.021368
  10 H :    0.011869
  11 H :    0.021910
  12 C :   -0.060207
  13 H :    0.026320
  14 H :    0.022687
  15 H :    0.022886
  16 S :    0.398136
  17 C :   -0.208461
  18 C :   -0.077155
  19 C :   -0.053511
  20 C :   -0.183013
  21 H :    0.028110
  22 C :   -0.027065
  23 H :    0.025148
  24 H :    0.033192
  25 C :   -0.036144
  26 H :    0.025900
  27 H :    0.025085
  28 C :   -0.077033
  29 H :    0.029977
  30 H :    0.026202
  31 H :    0.028791
  32 H :    0.026034
  33 H :    0.041668

  Mayer bond orders larger than 0.100000
B(  0-S ,  1-C ) :   1.1420 B(  0-S ,  4-C ) :   1.1498 B(  1-C ,  2-C ) :   1.6022
B(  1-C , 32-H ) :   0.9647 B(  2-C ,  3-C ) :   1.2675 B(  2-C ,  6-C ) :   1.0135
B(  3-C ,  4-C ) :   1.5937 B(  3-C ,  5-H ) :   0.9803 B(  4-C , 20-C ) :   1.0057
B(  6-C ,  7-H ) :   0.9346 B(  6-C ,  8-H ) :   0.9293 B(  6-C ,  9-C ) :   1.0578
B(  9-C , 10-H ) :   0.9674 B(  9-C , 11-H ) :   0.9596 B(  9-C , 12-C ) :   1.0624
B( 12-C , 13-H ) :   0.9791 B( 12-C , 14-H ) :   0.9782 B( 12-C , 15-H ) :   0.9820
B( 16-S , 17-C ) :   1.1524 B( 16-S , 20-C ) :   1.1418 B( 17-C , 18-C ) :   1.6257
B( 17-C , 33-H ) :   0.9578 B( 18-C , 19-C ) :   1.2361 B( 18-C , 21-H ) :   0.9832
B( 19-C , 20-C ) :   1.6154 B( 19-C , 22-C ) :   1.0295 B( 22-C , 23-H ) :   0.9365
B( 22-C , 24-H ) :   0.9355 B( 22-C , 25-C ) :   1.0640 B( 25-C , 26-H ) :   0.9547
B( 25-C , 27-H ) :   0.9551 B( 25-C , 28-C ) :   1.0701 B( 28-C , 29-H ) :   0.9743
B( 28-C , 30-H ) :   0.9732 B( 28-C , 31-H ) :   0.9735

Dispersion correction           -0.014507224
FINAL SINGLE POINT ENERGY     -1339.868309201288

DIPOLE MOMENT
-------------
                                X             Y             Z
Electronic contribution:     11.90059     -20.23402      -7.09631
Nuclear contribution   :    -12.28783      20.72630       7.33771
                        -----------------------------------------
Total Dipole Moment    :     -0.38724       0.49228       0.24140
                        -----------------------------------------
Magnitude (a.u.)       :      0.67124
Magnitude (Debye)      :      1.70616

Rotational constants in cm-1:     0.020458     0.007621     0.006548
Rotational constants in MHz :   613.329761   228.462113   196.311562

                             ****ORCA TERMINATED NORMALLY****
TOTAL RUN TIME: 0 days 0 hours 0 minutes 35 seconds 770 msec
