                         Program Version 4.2.1 -  RELEASE  -
|  1> ! wB97X-D3 SP def2-SVP
|  2> %pal
|  3> nprocs 16
|  4> end
|  5>
|  6> * xyz 0 1
|  7> S 	 68.9327 	 21.103 	 71.9964
|  8> C 	 68.361 	 19.455 	 72.4404
|  9> C 	 68.4624 	 19.1903 	 73.8311
| 10> C 	 68.9883 	 20.3487 	 74.4879
| 11> C 	 69.4563 	 21.3714 	 73.669
| 12> H 	 69.161 	 20.4851 	 75.5535
| 13> C 	 67.9388 	 17.9516 	 74.5531
| 14> H 	 68.7633 	 17.6291 	 75.2357
| 15> H 	 67.7457 	 17.2362 	 73.7594
| 16> C 	 66.5699 	 18.1881 	 75.2454
| 17> H 	 66.7905 	 18.7343 	 76.106
| 18> H 	 65.8486 	 18.6705 	 74.5862
| 19> C 	 65.8289 	 16.9169 	 75.7275
| 20> H 	 65.5985 	 16.3033 	 74.9294
| 21> H 	 66.4697 	 16.2906 	 76.3461
| 22> H 	 64.9408 	 17.2002 	 76.3069
| 23> S 	 68.8191 	 23.9004 	 74.3915
| 24> C 	 70.0408 	 24.9568 	 74.9986
| 25> C 	 71.2907 	 24.372 	 75.0568
| 26> C 	 71.2011 	 22.9995 	 74.6155
| 27> C 	 69.9338 	 22.6513 	 74.1591
| 28> H 	 72.1014 	 24.9236 	 75.3067
| 29> C 	 72.4427 	 22.1007 	 74.7273
| 30> H 	 72.1155 	 21.108 	 75.036
| 31> H 	 73.0546 	 22.5228 	 75.4739
| 32> C 	 73.2269 	 21.9149 	 73.4325
| 33> H 	 72.5959 	 21.6214 	 72.5971
| 34> H 	 73.9286 	 21.0333 	 73.4742
| 35> C 	 74.185 	 23.1241 	 73.094
| 36> H 	 75.0417 	 22.984 	 73.795
| 37> H 	 73.7614 	 24.1308 	 73.1876
| 38> H 	 74.5414 	 22.9045 	 72.0917
| 39> H 	 68.1216 	 18.6975 	 71.6685
| 40> H 	 69.9265 	 26.0465 	 75
| 41> *
| 42>
| 43>                          ****END OF INPUT****

CARTESIAN COORDINATES (ANGSTROEM)
---------------------------------
  S     68.932700   21.103000   71.996400
  C     68.361000   19.455000   72.440400
  C     68.462400   19.190300   73.831100
  C     68.988300   20.348700   74.487900
  C     69.456300   21.371400   73.669000
  H     69.161000   20.485100   75.553500
  C     67.938800   17.951600   74.553100
  H     68.763300   17.629100   75.235700
  H     67.745700   17.236200   73.759400
  C     66.569900   18.188100   75.245400
  H     66.790500   18.734300   76.106000
  H     65.848600   18.670500   74.586200
  C     65.828900   16.916900   75.727500
  H     65.598500   16.303300   74.929400
  H     66.469700   16.290600   76.346100
  H     64.940800   17.200200   76.306900
  S     68.819100   23.900400   74.391500
  C     70.040800   24.956800   74.998600
  C     71.290700   24.372000   75.056800
  C     71.201100   22.999500   74.615500
  C     69.933800   22.651300   74.159100
  H     72.101400   24.923600   75.306700
  C     72.442700   22.100700   74.727300
  H     72.115500   21.108000   75.036000
  H     73.054600   22.522800   75.473900
  C     73.226900   21.914900   73.432500
  H     72.595900   21.621400   72.597100
  H     73.928600   21.033300   73.474200
  C     74.185000   23.124100   73.094000
  H     75.041700   22.984000   73.795000
  H     73.761400   24.130800   73.187600
  H     74.541400   22.904500   72.091700
  H     68.121600   18.697500   71.668500
  H     69.926500   26.046500   75.000000

 Total Charge           Charge          ....    0
 Multiplicity           Mult            ....    1
 Number of Electrons    NEL             ....  134
 Basis Dimension        Dim             ....  322

ORBITAL ENERGIES
----------------

  NO   OCC          E(Eh)            E(eV)
   0   2.0000     -88.968673     -2420.9607
   1   2.0000     -88.964176     -2420.8383
   2   2.0000     -10.328516      -281.0532
   3   2.0000     -10.325131      -280.9611
   4   2.0000     -10.318571      -280.7826
   5   2.0000     -10.312141      -280.6076
   6   2.0000     -10.309150      -280.5262
   7   2.0000     -10.302543      -280.3465
   8   2.0000     -10.300553      -280.2923
   9   2.0000     -10.296165      -280.1729
  10   2.0000     -10.287122      -279.9268
  11   2.0000     -10.285246      -279.8758
  12   2.0000     -10.284765      -279.8627
  13   2.0000     -10.284657      -279.8598
  14   2.0000     -10.278864      -279.7021
  15   2.0000     -10.273865      -279.5661
  16   2.0000      -8.082039      -219.9235
  17   2.0000      -8.080507      -219.8818
  18   2.0000      -6.040543      -164.3715
  19   2.0000      -6.038878      -164.3262
  20   2.0000      -6.036794      -164.2695
  21   2.0000      -6.034661      -164.2115
  22   2.0000      -6.032827      -164.1616
  23   2.0000      -6.031447      -164.1240
  24   2.0000      -1.008721       -27.4487
  25   2.0000      -0.978357       -26.6224
  26   2.0000      -0.910226       -24.7685
  27   2.0000      -0.902836       -24.5674
  28   2.0000      -0.869657       -23.6646
  29   2.0000      -0.847288       -23.0559
  30   2.0000      -0.843566       -22.9546
  31   2.0000      -0.812324       -22.1044
  32   2.0000      -0.783288       -21.3143
  33   2.0000      -0.769161       -20.9299
  34   2.0000      -0.706714       -19.2307
  35   2.0000      -0.698146       -18.9975
  36   2.0000      -0.684958       -18.6387
  37   2.0000      -0.666822       -18.1452
  38   2.0000      -0.640540       -17.4300
  39   2.0000      -0.616025       -16.7629
  40   2.0000      -0.590779       -16.0759
  41   2.0000      -0.576076       -15.6758
  42   2.0000      -0.563589       -15.3360
  43   2.0000      -0.545444       -14.8423
  44   2.0000      -0.538903       -14.6643
  45   2.0000      -0.527316       -14.3490
  46   2.0000      -0.517560       -14.0835
  47   2.0000      -0.512679       -13.9507
  48   2.0000      -0.502992       -13.6871
  49   2.0000      -0.498314       -13.5598
  50   2.0000      -0.485649       -13.2152
  51   2.0000      -0.474849       -12.9213
  52   2.0000      -0.473324       -12.8798
  53   2.0000      -0.468576       -12.7506
  54   2.0000      -0.456849       -12.4315
  55   2.0000      -0.447762       -12.1842
  56   2.0000      -0.440280       -11.9806
  57   2.0000      -0.437382       -11.9018
  58   2.0000      -0.435275       -11.8444
  59   2.0000      -0.425155       -11.5690
  60   2.0000      -0.421281       -11.4636
  61   2.0000      -0.418843       -11.3973
  62   2.0000      -0.404695       -11.0123
  63   2.0000      -0.339243        -9.2313
  64   2.0000      -0.328767        -8.9462
  65   2.0000      -0.319166        -8.6849
  66   2.0000      -0.306512        -8.3406
  67   0.0000       0.038559         1.0493
  68   0.0000       0.054102         1.4722
  69   0.0000       0.113312         3.0834
  70   0.0000       0.119718         3.2577
  71   0.0000       0.124957         3.4003

MULLIKEN ATOMIC CHARGES
-----------------------
   0 S :    0.105048
   1 C :   -0.145347
   2 C :   -0.084871
   3 C :    0.033534
   4 C :   -0.177681
   5 H :    0.020158
   6 C :    0.070237
   7 H :    0.047985
   8 H :    0.011523
   9 C :   -0.063242
  10 H :    0.020645
  11 H :    0.041008
  12 C :   -0.028564
  13 H :    0.013883
  14 H :    0.017251
  15 H :    0.044286
  16 S :    0.133185
  17 C :   -0.104208
  18 C :   -0.005286
  19 C :   -0.052147
  20 C :   -0.178457
  21 H :   -0.018573
  22 C :    0.139713
  23 H :    0.020064
  24 H :    0.003776
  25 C :   -0.097026
  26 H :    0.030083
  27 H :    0.026273
  28 C :   -0.069943
  29 H :    0.033867
  30 H :    0.045761
  31 H :    0.035757
  32 H :    0.066713
  33 H :    0.064596
Sum of atomic charges:    0.0000000

LOEWDIN ATOMIC CHARGES
----------------------
   0 S :    0.379552
   1 C :   -0.189098
   2 C :   -0.060300
   3 C :   -0.056725
   4 C :   -0.196472
   5 H :    0.032371
   6 C :   -0.029529
   7 H :    0.039031
   8 H :    0.027076
   9 C :   -0.030410
  10 H :    0.015660
  11 H :    0.030387
  12 C :   -0.058480
  13 H :    0.011899
  14 H :    0.022165
  15 H :    0.032300
  16 S :    0.447385
  17 C :   -0.198058
  18 C :   -0.058995
  19 C :   -0.045975
  20 C :   -0.232496
  21 H :    0.013809
  22 C :   -0.025956
  23 H :    0.031779
  24 H :    0.022012
  25 C :   -0.042017
  26 H :    0.020444
  27 H :    0.027150
  28 C :   -0.069077
  29 H :    0.027474
  30 H :    0.023019
  31 H :    0.026519
  32 H :    0.032237
  33 H :    0.031320

  Mayer bond orders larger than 0.100000
B(  0-S ,  1-C ) :   1.1438 B(  0-S ,  4-C ) :   1.1341 B(  1-C ,  2-C ) :   1.6010
B(  1-C ,  4-C ) :   0.1058 B(  1-C , 32-H ) :   0.9591 B(  2-C ,  3-C ) :   1.2263
B(  2-C ,  6-C ) :   1.0328 B(  3-C ,  4-C ) :   1.6052 B(  3-C ,  5-H ) :   0.9861
B(  4-C , 20-C ) :   1.0118 B(  6-C ,  7-H ) :   0.9365 B(  6-C ,  8-H ) :   0.9373
B(  6-C ,  9-C ) :   1.0630 B(  9-C , 10-H ) :   0.9564 B(  9-C , 11-H ) :   0.9580
B(  9-C , 12-C ) :   1.0881 B( 12-C , 13-H ) :   0.9761 B( 12-C , 14-H ) :   0.9728
B( 12-C , 15-H ) :   0.9750 B( 16-S , 17-C ) :   1.1745 B( 16-S , 20-C ) :   1.1691
B( 17-C , 18-C ) :   1.6004 B( 17-C , 33-H ) :   0.9587 B( 18-C , 19-C ) :   1.2480
B( 18-C , 21-H ) :   1.0070 B( 19-C , 20-C ) :   1.5922 B( 19-C , 22-C ) :   1.0415
B( 22-C , 23-H ) :   0.9239 B( 22-C , 24-H ) :   0.9358 B( 22-C , 25-C ) :   1.0745
B( 25-C , 26-H ) :   0.9606 B( 25-C , 27-H ) :   0.9577 B( 25-C , 28-C ) :   1.0605
B( 28-C , 29-H ) :   0.9790 B( 28-C , 30-H ) :   0.9798 B( 28-C , 31-H ) :   0.9755

Dispersion correction           -0.014134457
FINAL SINGLE POINT ENERGY     -1339.870759147932

DIPOLE MOMENT
-------------
                                X             Y             Z
Electronic contribution:     -6.89344      15.67693      -7.33396
Nuclear contribution   :      7.02371     -16.05239       7.61902
                        -----------------------------------------
Total Dipole Moment    :      0.13027      -0.37546       0.28506
                        -----------------------------------------
Magnitude (a.u.)       :      0.48908
Magnitude (Debye)      :      1.24314

Rotational constants in cm-1:     0.021721     0.007221     0.006597
Rotational constants in MHz :   651.182555   216.488945   197.768416

                             ****ORCA TERMINATED NORMALLY****
TOTAL RUN TIME: 0 days 0 hours 0 minutes 29 seconds 191 msec
