                         Program Version 4.2.1 -  RELEASE  -
|  1> ! wB97X-D3 SP def2-SVP
|  2> %pal
|  3> nprocs 16
|  4> end
|  5>
|  6> * xyz 0 1
|  7> S 	 45.7017 	 8.95982 	 87.0937
|  8> C 	 46.9162 	 8.63215 	 88.2487
|  9> C 	 47.4856 	 9.80567 	 88.8369
| 10> C 	 46.6748 	 10.9462 	 88.5135
| 11> C 	 45.7591 	 10.6659 	 87.5034
| 12> H 	 46.8309 	 11.9599 	 88.8842
| 13> C 	 48.7182 	 9.84259 	 89.7236
| 14> H 	 49.3998 	 10.508 	 89.1738
| 15> H 	 49.2117 	 8.88842 	 89.6338
| 16> C 	 48.3699 	 10.305 	 91.1693
| 17> H 	 49.2181 	 10.2473 	 91.784
| 18> H 	 48.1769 	 11.3815 	 91.1509
| 19> C 	 47.1297 	 9.53155 	 91.8308
| 20> H 	 46.3754 	 9.27574 	 91.1276
| 21> H 	 47.5593 	 8.6872 	 92.4295
| 22> H 	 46.6639 	 10.105 	 92.6139
| 23> S 	 44.5939 	 11.2186 	 85.1004
| 24> C 	 44.1268 	 12.8533 	 84.6983
| 25> C 	 44.3014 	 13.7093 	 85.8147
| 26> C 	 44.8648 	 13.0146 	 86.9497
| 27> C 	 45.0431 	 11.6401 	 86.7548
| 28> H 	 44.0942 	 14.7393 	 85.7867
| 29> C 	 45.0482 	 13.7314 	 88.2492
| 30> H 	 45.9925 	 14.3233 	 88.2047
| 31> H 	 45.2019 	 13.0452 	 89.046
| 32> C 	 43.909 	 14.6503 	 88.8547
| 33> H 	 43.8794 	 15.5815 	 88.2506
| 34> H 	 44.1098 	 14.9236 	 89.9099
| 35> C 	 42.532 	 14.0869 	 89.1068
| 36> H 	 41.7749 	 14.8228 	 89.2497
| 37> H 	 42.4993 	 13.4568 	 90.0218
| 38> H 	 42.2849 	 13.4734 	 88.2694
| 39> H 	 47.316 	 7.63944 	 88.576
| 40> H 	 43.7162 	 13.1881 	 83.7402
| 41> *
| 42>
| 43>                          ****END OF INPUT****

CARTESIAN COORDINATES (ANGSTROEM)
---------------------------------
  S     45.701700    8.959820   87.093700
  C     46.916200    8.632150   88.248700
  C     47.485600    9.805670   88.836900
  C     46.674800   10.946200   88.513500
  C     45.759100   10.665900   87.503400
  H     46.830900   11.959900   88.884200
  C     48.718200    9.842590   89.723600
  H     49.399800   10.508000   89.173800
  H     49.211700    8.888420   89.633800
  C     48.369900   10.305000   91.169300
  H     49.218100   10.247300   91.784000
  H     48.176900   11.381500   91.150900
  C     47.129700    9.531550   91.830800
  H     46.375400    9.275740   91.127600
  H     47.559300    8.687200   92.429500
  H     46.663900   10.105000   92.613900
  S     44.593900   11.218600   85.100400
  C     44.126800   12.853300   84.698300
  C     44.301400   13.709300   85.814700
  C     44.864800   13.014600   86.949700
  C     45.043100   11.640100   86.754800
  H     44.094200   14.739300   85.786700
  C     45.048200   13.731400   88.249200
  H     45.992500   14.323300   88.204700
  H     45.201900   13.045200   89.046000
  C     43.909000   14.650300   88.854700
  H     43.879400   15.581500   88.250600
  H     44.109800   14.923600   89.909900
  C     42.532000   14.086900   89.106800
  H     41.774900   14.822800   89.249700
  H     42.499300   13.456800   90.021800
  H     42.284900   13.473400   88.269400
  H     47.316000    7.639440   88.576000
  H     43.716200   13.188100   83.740200

 Total Charge           Charge          ....    0
 Multiplicity           Mult            ....    1
 Number of Electrons    NEL             ....  134
 Basis Dimension        Dim             ....  322

ORBITAL ENERGIES
----------------

  NO   OCC          E(Eh)            E(eV)
   0   2.0000     -88.972525     -2421.0655
   1   2.0000     -88.966692     -2420.9068
   2   2.0000     -10.330045      -281.0948
   3   2.0000     -10.328319      -281.0478
   4   2.0000     -10.323623      -280.9201
   5   2.0000     -10.316714      -280.7321
   6   2.0000     -10.305026      -280.4140
   7   2.0000     -10.304529      -280.4005
   8   2.0000     -10.296738      -280.1885
   9   2.0000     -10.296025      -280.1691
  10   2.0000     -10.295677      -280.1596
  11   2.0000     -10.293631      -280.1039
  12   2.0000     -10.291296      -280.0404
  13   2.0000     -10.290828      -280.0277
  14   2.0000     -10.278439      -279.6906
  15   2.0000     -10.269793      -279.4553
  16   2.0000      -8.087440      -220.0704
  17   2.0000      -8.081229      -219.9014
  18   2.0000      -6.045938      -164.5183
  19   2.0000      -6.042010      -164.4115
  20   2.0000      -6.039818      -164.3518
  21   2.0000      -6.038133      -164.3059
  22   2.0000      -6.035697      -164.2397
  23   2.0000      -6.031992      -164.1389
  24   2.0000      -1.008415       -27.4404
  25   2.0000      -0.980170       -26.6718
  26   2.0000      -0.908204       -24.7135
  27   2.0000      -0.905022       -24.6269
  28   2.0000      -0.870013       -23.6743
  29   2.0000      -0.854167       -23.2431
  30   2.0000      -0.842530       -22.9264
  31   2.0000      -0.810374       -22.0514
  32   2.0000      -0.786071       -21.3901
  33   2.0000      -0.771900       -21.0045
  34   2.0000      -0.714204       -19.4345
  35   2.0000      -0.697366       -18.9763
  36   2.0000      -0.692382       -18.8407
  37   2.0000      -0.661529       -18.0011
  38   2.0000      -0.632789       -17.2191
  39   2.0000      -0.623737       -16.9728
  40   2.0000      -0.593921       -16.1614
  41   2.0000      -0.563589       -15.3360
  42   2.0000      -0.554747       -15.0954
  43   2.0000      -0.549769       -14.9600
  44   2.0000      -0.544681       -14.8215
  45   2.0000      -0.542981       -14.7753
  46   2.0000      -0.516129       -14.0446
  47   2.0000      -0.508537       -13.8380
  48   2.0000      -0.502762       -13.6808
  49   2.0000      -0.493865       -13.4387
  50   2.0000      -0.489747       -13.3267
  51   2.0000      -0.476509       -12.9665
  52   2.0000      -0.471440       -12.8285
  53   2.0000      -0.468239       -12.7414
  54   2.0000      -0.459120       -12.4933
  55   2.0000      -0.452262       -12.3067
  56   2.0000      -0.450408       -12.2562
  57   2.0000      -0.443540       -12.0693
  58   2.0000      -0.434463       -11.8223
  59   2.0000      -0.425676       -11.5832
  60   2.0000      -0.415163       -11.2972
  61   2.0000      -0.406334       -11.0569
  62   2.0000      -0.404390       -11.0040
  63   2.0000      -0.363574        -9.8933
  64   2.0000      -0.334575        -9.1042
  65   2.0000      -0.326876        -8.8948
  66   2.0000      -0.272868        -7.4251
  67   0.0000       0.017063         0.4643
  68   0.0000       0.078758         2.1431
  69   0.0000       0.102880         2.7995
  70   0.0000       0.112144         3.0516
  71   0.0000       0.132380         3.6022

MULLIKEN ATOMIC CHARGES
-----------------------
   0 S :    0.131790
   1 C :   -0.113992
   2 C :   -0.163052
   3 C :   -0.010897
   4 C :   -0.117767
   5 H :    0.012723
   6 C :    0.099887
   7 H :    0.041461
   8 H :    0.010942
   9 C :   -0.065427
  10 H :    0.019492
  11 H :    0.027737
  12 C :   -0.055060
  13 H :    0.055580
  14 H :    0.036100
  15 H :    0.024438
  16 S :    0.089100
  17 C :   -0.095911
  18 C :   -0.005528
  19 C :   -0.079282
  20 C :   -0.096259
  21 H :    0.002431
  22 C :    0.032591
  23 H :    0.046679
  24 H :    0.024335
  25 C :   -0.101650
  26 H :    0.031629
  27 H :    0.031674
  28 C :   -0.031147
  29 H :    0.029738
  30 H :    0.030161
  31 H :    0.030600
  32 H :    0.059909
  33 H :    0.066975
Sum of atomic charges:    0.0000000

LOEWDIN ATOMIC CHARGES
----------------------
   0 S :    0.423705
   1 C :   -0.229913
   2 C :   -0.055624
   3 C :   -0.065172
   4 C :   -0.188543
   5 H :    0.031776
   6 C :   -0.031700
   7 H :    0.039331
   8 H :    0.026261
   9 C :   -0.035054
  10 H :    0.017027
  11 H :    0.023073
  12 C :   -0.064749
  13 H :    0.023736
  14 H :    0.032171
  15 H :    0.024239
  16 S :    0.399209
  17 C :   -0.189033
  18 C :   -0.060866
  19 C :   -0.064274
  20 C :   -0.188824
  21 H :    0.023363
  22 C :   -0.039868
  23 H :    0.040014
  24 H :    0.023420
  25 C :   -0.046247
  26 H :    0.019927
  27 H :    0.031816
  28 C :   -0.064123
  29 H :    0.025109
  30 H :    0.028075
  31 H :    0.020970
  32 H :    0.036665
  33 H :    0.034101

  Mayer bond orders larger than 0.100000
B(  0-S ,  1-C ) :   1.1460 B(  0-S ,  4-C ) :   1.1430 B(  1-C ,  2-C ) :   1.5852
B(  1-C , 32-H ) :   0.9567 B(  2-C ,  3-C ) :   1.2566 B(  2-C ,  6-C ) :   1.0268
B(  3-C ,  4-C ) :   1.5441 B(  3-C ,  5-H ) :   0.9783 B(  4-C , 20-C ) :   1.1120
B(  6-C ,  7-H ) :   0.9387 B(  6-C ,  8-H ) :   0.9388 B(  6-C ,  9-C ) :   1.0523
B(  9-C , 10-H ) :   0.9613 B(  9-C , 11-H ) :   0.9589 B(  9-C , 12-C ) :   1.0605
B( 12-C , 13-H ) :   0.9760 B( 12-C , 14-H ) :   0.9786 B( 12-C , 15-H ) :   0.9764
B( 16-S , 17-C ) :   1.1622 B( 16-S , 20-C ) :   1.1237 B( 17-C , 18-C ) :   1.5748
B( 17-C , 33-H ) :   0.9674 B( 18-C , 19-C ) :   1.2558 B( 18-C , 21-H ) :   0.9985
B( 19-C , 20-C ) :   1.5693 B( 19-C , 22-C ) :   1.0507 B( 22-C , 23-H ) :   0.9244
B( 22-C , 24-H ) :   0.9358 B( 22-C , 25-C ) :   1.0640 B( 25-C , 26-H ) :   0.9550
B( 25-C , 27-H ) :   0.9620 B( 25-C , 28-C ) :   1.0709 B( 28-C , 29-H ) :   0.9710
B( 28-C , 30-H ) :   0.9773 B( 28-C , 31-H ) :   0.9750

Dispersion correction           -0.014585980
FINAL SINGLE POINT ENERGY     -1339.865412447617

DIPOLE MOMENT
-------------
                                X             Y             Z
Electronic contribution:     -2.72926     -11.82115     -25.15581
Nuclear contribution   :      3.02487      12.26014      25.63838
                        -----------------------------------------
Total Dipole Moment    :      0.29561       0.43899       0.48256
                        -----------------------------------------
Magnitude (a.u.)       :      0.71621
Magnitude (Debye)      :      1.82047

Rotational constants in cm-1:     0.018543     0.009340     0.006931
Rotational constants in MHz :   555.902909   280.014488   207.792195

                             ****ORCA TERMINATED NORMALLY****
TOTAL RUN TIME: 0 days 0 hours 0 minutes 28 seconds 858 msec
