                         Program Version 4.2.1 -  RELEASE  -
|  1> ! wB97X-D3 SP def2-SVP
|  2> %pal
|  3> nprocs 16
|  4> end
|  5>
|  6> * xyz 0 1
|  7> S 	 -58.9524 	 35.1122 	 91.6521
|  8> C 	 -59.0192 	 33.4089 	 91.1848
|  9> C 	 -57.938 	 32.7424 	 91.7793
| 10> C 	 -56.9417 	 33.6532 	 92.2431
| 11> C 	 -57.2624 	 34.9756 	 92.0323
| 12> H 	 -56.0031 	 33.3423 	 92.6934
| 13> C 	 -57.6977 	 31.2509 	 91.94
| 14> H 	 -58.4598 	 30.8604 	 91.3384
| 15> H 	 -58.0771 	 31.0079 	 92.8908
| 16> C 	 -56.3234 	 30.7069 	 91.6181
| 17> H 	 -55.6361 	 31.0371 	 92.3455
| 18> H 	 -56.4093 	 29.6523 	 91.6133
| 19> C 	 -55.8475 	 31.0487 	 90.2305
| 20> H 	 -56.5748 	 31.0889 	 89.4781
| 21> H 	 -55.3664 	 32.0679 	 90.3447
| 22> H 	 -55.1455 	 30.2624 	 89.8485
| 23> S 	 -57.2372 	 37.2223 	 93.5962
| 24> C 	 -55.8639 	 38.1487 	 93.5376
| 25> C 	 -54.8061 	 37.54 	 92.9307
| 26> C 	 -55.1871 	 36.2954 	 92.3926
| 27> C 	 -56.5416 	 36.0515 	 92.539
| 28> H 	 -53.8096 	 37.9237 	 92.9988
| 29> C 	 -54.2005 	 35.3996 	 91.6305
| 30> H 	 -53.4608 	 36.0996 	 91.2343
| 31> H 	 -54.672 	 34.7567 	 90.81
| 32> C 	 -53.496 	 34.5202 	 92.576
| 33> H 	 -52.8908 	 33.7874 	 92.0833
| 34> H 	 -54.1766 	 33.9416 	 93.2349
| 35> C 	 -52.594 	 35.2408 	 93.5107
| 36> H 	 -52.1849 	 34.4279 	 94.1176
| 37> H 	 -53.1577 	 35.8334 	 94.2197
| 38> H 	 -51.8237 	 35.8846 	 93.0582
| 39> H 	 -59.9005 	 32.9067 	 90.7739
| 40> H 	 -55.721 	 39.0396 	 94.1196
| 41> *
| 42>
| 43>                          ****END OF INPUT****

CARTESIAN COORDINATES (ANGSTROEM)
---------------------------------
  S    -58.952400   35.112200   91.652100
  C    -59.019200   33.408900   91.184800
  C    -57.938000   32.742400   91.779300
  C    -56.941700   33.653200   92.243100
  C    -57.262400   34.975600   92.032300
  H    -56.003100   33.342300   92.693400
  C    -57.697700   31.250900   91.940000
  H    -58.459800   30.860400   91.338400
  H    -58.077100   31.007900   92.890800
  C    -56.323400   30.706900   91.618100
  H    -55.636100   31.037100   92.345500
  H    -56.409300   29.652300   91.613300
  C    -55.847500   31.048700   90.230500
  H    -56.574800   31.088900   89.478100
  H    -55.366400   32.067900   90.344700
  H    -55.145500   30.262400   89.848500
  S    -57.237200   37.222300   93.596200
  C    -55.863900   38.148700   93.537600
  C    -54.806100   37.540000   92.930700
  C    -55.187100   36.295400   92.392600
  C    -56.541600   36.051500   92.539000
  H    -53.809600   37.923700   92.998800
  C    -54.200500   35.399600   91.630500
  H    -53.460800   36.099600   91.234300
  H    -54.672000   34.756700   90.810000
  C    -53.496000   34.520200   92.576000
  H    -52.890800   33.787400   92.083300
  H    -54.176600   33.941600   93.234900
  C    -52.594000   35.240800   93.510700
  H    -52.184900   34.427900   94.117600
  H    -53.157700   35.833400   94.219700
  H    -51.823700   35.884600   93.058200
  H    -59.900500   32.906700   90.773900
  H    -55.721000   39.039600   94.119600

 Total Charge           Charge          ....    0
 Multiplicity           Mult            ....    1
 Number of Electrons    NEL             ....  134
 Basis Dimension        Dim             ....  322

ORBITAL ENERGIES
----------------

  NO   OCC          E(Eh)            E(eV)
   0   2.0000     -88.965040     -2420.8618
   1   2.0000     -88.963353     -2420.8159
   2   2.0000     -10.320532      -280.8359
   3   2.0000     -10.316511      -280.7265
   4   2.0000     -10.313243      -280.6376
   5   2.0000     -10.304670      -280.4043
   6   2.0000     -10.301235      -280.3109
   7   2.0000     -10.295453      -280.1535
   8   2.0000     -10.290886      -280.0293
   9   2.0000     -10.288905      -279.9753
  10   2.0000     -10.285568      -279.8845
  11   2.0000     -10.281887      -279.7844
  12   2.0000     -10.280071      -279.7350
  13   2.0000     -10.278687      -279.6973
  14   2.0000     -10.277012      -279.6517
  15   2.0000     -10.272370      -279.5254
  16   2.0000      -8.082110      -219.9254
  17   2.0000      -8.078189      -219.8187
  18   2.0000      -6.040324      -164.3656
  19   2.0000      -6.036767      -164.2688
  20   2.0000      -6.036395      -164.2587
  21   2.0000      -6.033001      -164.1663
  22   2.0000      -6.032939      -164.1646
  23   2.0000      -6.028553      -164.0453
  24   2.0000      -1.021212       -27.7886
  25   2.0000      -0.990405       -26.9503
  26   2.0000      -0.926604       -25.2142
  27   2.0000      -0.921831       -25.0843
  28   2.0000      -0.878404       -23.9026
  29   2.0000      -0.856455       -23.3053
  30   2.0000      -0.844775       -22.9875
  31   2.0000      -0.814367       -22.1601
  32   2.0000      -0.790760       -21.5177
  33   2.0000      -0.775244       -21.0955
  34   2.0000      -0.714044       -19.4301
  35   2.0000      -0.701904       -19.0998
  36   2.0000      -0.689545       -18.7635
  37   2.0000      -0.664165       -18.0729
  38   2.0000      -0.636003       -17.3065
  39   2.0000      -0.626896       -17.0587
  40   2.0000      -0.600144       -16.3307
  41   2.0000      -0.571302       -15.5459
  42   2.0000      -0.557634       -15.1740
  43   2.0000      -0.556158       -15.1338
  44   2.0000      -0.554207       -15.0807
  45   2.0000      -0.548048       -14.9132
  46   2.0000      -0.526599       -14.3295
  47   2.0000      -0.515656       -14.0317
  48   2.0000      -0.504175       -13.7193
  49   2.0000      -0.499991       -13.6054
  50   2.0000      -0.494780       -13.4636
  51   2.0000      -0.479343       -13.0436
  52   2.0000      -0.475334       -12.9345
  53   2.0000      -0.469077       -12.7642
  54   2.0000      -0.459520       -12.5042
  55   2.0000      -0.450920       -12.2702
  56   2.0000      -0.440425       -11.9846
  57   2.0000      -0.437546       -11.9062
  58   2.0000      -0.433524       -11.7968
  59   2.0000      -0.427554       -11.6343
  60   2.0000      -0.424217       -11.5435
  61   2.0000      -0.411384       -11.1943
  62   2.0000      -0.409546       -11.1443
  63   2.0000      -0.352881        -9.6024
  64   2.0000      -0.333305        -9.0697
  65   2.0000      -0.324746        -8.8368
  66   2.0000      -0.282590        -7.6897
  67   0.0000       0.024545         0.6679
  68   0.0000       0.072792         1.9808
  69   0.0000       0.109823         2.9884
  70   0.0000       0.120814         3.2875
  71   0.0000       0.130604         3.5539

MULLIKEN ATOMIC CHARGES
-----------------------
   0 S :    0.093445
   1 C :   -0.121403
   2 C :   -0.134462
   3 C :    0.009493
   4 C :   -0.126769
   5 H :   -0.010106
   6 C :    0.143841
   7 H :   -0.016361
   8 H :    0.023894
   9 C :   -0.036877
  10 H :    0.027287
  11 H :    0.021649
  12 C :   -0.058686
  13 H :    0.020867
  14 H :    0.043461
  15 H :    0.037523
  16 S :    0.134867
  17 C :   -0.074622
  18 C :   -0.036655
  19 C :   -0.072199
  20 C :   -0.150501
  21 H :    0.009009
  22 C :    0.083361
  23 H :    0.019069
  24 H :    0.054733
  25 C :   -0.070923
  26 H :    0.021229
  27 H :    0.031393
  28 C :   -0.060966
  29 H :    0.026889
  30 H :    0.035298
  31 H :    0.034368
  32 H :    0.052479
  33 H :    0.046373
Sum of atomic charges:    0.0000000

LOEWDIN ATOMIC CHARGES
----------------------
   0 S :    0.399616
   1 C :   -0.202159
   2 C :   -0.053960
   3 C :   -0.062133
   4 C :   -0.190321
   5 H :    0.025242
   6 C :   -0.027489
   7 H :    0.022640
   8 H :    0.031543
   9 C :   -0.035961
  10 H :    0.018955
  11 H :    0.024745
  12 C :   -0.063316
  13 H :    0.016621
  14 H :    0.033318
  15 H :    0.032201
  16 S :    0.452700
  17 C :   -0.211143
  18 C :   -0.073982
  19 C :   -0.052291
  20 C :   -0.213789
  21 H :    0.028716
  22 C :   -0.033987
  23 H :    0.030544
  24 H :    0.040065
  25 C :   -0.048068
  26 H :    0.019765
  27 H :    0.024562
  28 C :   -0.064727
  29 H :    0.030127
  30 H :    0.022598
  31 H :    0.022991
  32 H :    0.029896
  33 H :    0.026479

  Mayer bond orders larger than 0.100000
B(  0-S ,  1-C ) :   1.1262 B(  0-S ,  4-C ) :   1.1434 B(  1-C ,  2-C ) :   1.5960
B(  1-C ,  4-C ) :   0.1004 B(  1-C , 32-H ) :   0.9670 B(  2-C ,  3-C ) :   1.2565
B(  2-C ,  6-C ) :   1.0071 B(  3-C ,  4-C ) :   1.5246 B(  3-C ,  5-H ) :   0.9917
B(  4-C , 20-C ) :   1.1083 B(  6-C ,  7-H ) :   0.9213 B(  6-C ,  8-H ) :   0.9240
B(  6-C ,  9-C ) :   1.0819 B(  9-C , 10-H ) :   0.9536 B(  9-C , 11-H ) :   0.9507
B(  9-C , 12-C ) :   1.0808 B( 12-C , 13-H ) :   0.9759 B( 12-C , 14-H ) :   0.9702
B( 12-C , 15-H ) :   0.9752 B( 16-S , 17-C ) :   1.1833 B( 16-S , 20-C ) :   1.1492
B( 17-C , 18-C ) :   1.5760 B( 17-C , 33-H ) :   0.9644 B( 18-C , 19-C ) :   1.2809
B( 18-C , 21-H ) :   0.9939 B( 19-C , 20-C ) :   1.5706 B( 19-C , 22-C ) :   1.0329
B( 22-C , 23-H ) :   0.9339 B( 22-C , 24-H ) :   0.9306 B( 22-C , 25-C ) :   1.0803
B( 25-C , 26-H ) :   0.9524 B( 25-C , 27-H ) :   0.9383 B( 25-C , 28-C ) :   1.0904
B( 28-C , 29-H ) :   0.9677 B( 28-C , 30-H ) :   0.9675 B( 28-C , 31-H ) :   0.9727

Dispersion correction           -0.016012762
FINAL SINGLE POINT ENERGY     -1339.857182588131

DIPOLE MOMENT
-------------
                                X             Y             Z
Electronic contribution:    -21.11214      19.93461       3.61308
Nuclear contribution   :     21.56906     -20.51938      -3.41017
                        -----------------------------------------
Total Dipole Moment    :      0.45692      -0.58477       0.20291
                        -----------------------------------------
Magnitude (a.u.)       :      0.76936
Magnitude (Debye)      :      1.95555

Rotational constants in cm-1:     0.018855     0.011013     0.007502
Rotational constants in MHz :   565.269646   330.171094   224.906023

                             ****ORCA TERMINATED NORMALLY****
TOTAL RUN TIME: 0 days 0 hours 0 minutes 33 seconds 691 msec
