                         Program Version 4.2.1 -  RELEASE  -
|  1> ! wB97X-D3 SP def2-SVP
|  2> %pal
|  3> nprocs 16
|  4> end
|  5>
|  6> * xyz 0 1
|  7> S 	 -50.6508 	 12.8033 	 79.3851
|  8> C 	 -49.4468 	 11.7101 	 80.0327
|  9> C 	 -48.9103 	 12.238 	 81.2021
| 10> C 	 -49.715 	 13.3027 	 81.6818
| 11> C 	 -50.7624 	 13.7156 	 80.8627
| 12> H 	 -49.6207 	 13.8396 	 82.6216
| 13> C 	 -47.6014 	 11.8347 	 81.808
| 14> H 	 -47.4467 	 10.7208 	 81.8551
| 15> H 	 -47.5051 	 12.1509 	 82.8642
| 16> C 	 -46.2879 	 12.3864 	 81.1929
| 17> H 	 -45.4327 	 12.2593 	 81.7789
| 18> H 	 -46.1484 	 11.9506 	 80.2243
| 19> C 	 -46.3807 	 13.9655 	 80.9117
| 20> H 	 -47.335 	 14.2965 	 80.5183
| 21> H 	 -46.1161 	 14.4545 	 81.8946
| 22> H 	 -45.619 	 14.3085 	 80.2343
| 23> S 	 -51.8773 	 15.9716 	 79.7107
| 24> C 	 -52.8127 	 16.9747 	 80.7274
| 25> C 	 -52.9652 	 16.4672 	 81.9388
| 26> C 	 -52.2122 	 15.3187 	 82.1765
| 27> C 	 -51.6015 	 14.812 	 81.028
| 28> H 	 -53.5714 	 16.9235 	 82.7118
| 29> C 	 -52.1876 	 14.6624 	 83.5236
| 30> H 	 -51.8481 	 13.6671 	 83.2416
| 31> H 	 -53.1956 	 14.5715 	 83.8635
| 32> C 	 -51.4039 	 15.4545 	 84.5865
| 33> H 	 -52.1698 	 16.1635 	 84.931
| 34> H 	 -50.6688 	 16.012 	 84.0647
| 35> C 	 -50.7867 	 14.6102 	 85.7182
| 36> H 	 -50.2034 	 15.1264 	 86.4301
| 37> H 	 -50.0894 	 13.8973 	 85.3008
| 38> H 	 -51.6135 	 14.0302 	 86.1691
| 39> H 	 -48.9318 	 10.9357 	 79.4471
| 40> H 	 -53.1682 	 17.9094 	 80.4223
| 41> *
| 42>
| 43>                          ****END OF INPUT****

CARTESIAN COORDINATES (ANGSTROEM)
---------------------------------
  S    -50.650800   12.803300   79.385100
  C    -49.446800   11.710100   80.032700
  C    -48.910300   12.238000   81.202100
  C    -49.715000   13.302700   81.681800
  C    -50.762400   13.715600   80.862700
  H    -49.620700   13.839600   82.621600
  C    -47.601400   11.834700   81.808000
  H    -47.446700   10.720800   81.855100
  H    -47.505100   12.150900   82.864200
  C    -46.287900   12.386400   81.192900
  H    -45.432700   12.259300   81.778900
  H    -46.148400   11.950600   80.224300
  C    -46.380700   13.965500   80.911700
  H    -47.335000   14.296500   80.518300
  H    -46.116100   14.454500   81.894600
  H    -45.619000   14.308500   80.234300
  S    -51.877300   15.971600   79.710700
  C    -52.812700   16.974700   80.727400
  C    -52.965200   16.467200   81.938800
  C    -52.212200   15.318700   82.176500
  C    -51.601500   14.812000   81.028000
  H    -53.571400   16.923500   82.711800
  C    -52.187600   14.662400   83.523600
  H    -51.848100   13.667100   83.241600
  H    -53.195600   14.571500   83.863500
  C    -51.403900   15.454500   84.586500
  H    -52.169800   16.163500   84.931000
  H    -50.668800   16.012000   84.064700
  C    -50.786700   14.610200   85.718200
  H    -50.203400   15.126400   86.430100
  H    -50.089400   13.897300   85.300800
  H    -51.613500   14.030200   86.169100
  H    -48.931800   10.935700   79.447100
  H    -53.168200   17.909400   80.422300

 Total Charge           Charge          ....    0
 Multiplicity           Mult            ....    1
 Number of Electrons    NEL             ....  134
 Basis Dimension        Dim             ....  322

ORBITAL ENERGIES
----------------

  NO   OCC          E(Eh)            E(eV)
   0   2.0000     -88.966807     -2420.9099
   1   2.0000     -88.963943     -2420.8320
   2   2.0000     -10.326809      -281.0068
   3   2.0000     -10.323874      -280.9269
   4   2.0000     -10.317422      -280.7513
   5   2.0000     -10.307787      -280.4891
   6   2.0000     -10.305163      -280.4177
   7   2.0000     -10.298302      -280.2310
   8   2.0000     -10.296466      -280.1811
   9   2.0000     -10.294519      -280.1281
  10   2.0000     -10.286868      -279.9199
  11   2.0000     -10.285204      -279.8746
  12   2.0000     -10.283500      -279.8283
  13   2.0000     -10.283297      -279.8227
  14   2.0000     -10.279132      -279.7094
  15   2.0000     -10.276109      -279.6272
  16   2.0000      -8.081710      -219.9145
  17   2.0000      -8.079539      -219.8554
  18   2.0000      -6.040241      -164.3633
  19   2.0000      -6.038013      -164.3027
  20   2.0000      -6.036215      -164.2538
  21   2.0000      -6.033971      -164.1927
  22   2.0000      -6.032401      -164.1500
  23   2.0000      -6.030241      -164.0912
  24   2.0000      -1.016972       -27.6732
  25   2.0000      -0.992534       -27.0082
  26   2.0000      -0.914452       -24.8835
  27   2.0000      -0.910358       -24.7721
  28   2.0000      -0.877623       -23.8813
  29   2.0000      -0.855299       -23.2739
  30   2.0000      -0.841914       -22.9096
  31   2.0000      -0.815977       -22.2039
  32   2.0000      -0.786153       -21.3923
  33   2.0000      -0.774185       -21.0666
  34   2.0000      -0.713919       -19.4267
  35   2.0000      -0.706860       -19.2346
  36   2.0000      -0.701710       -19.0945
  37   2.0000      -0.664439       -18.0803
  38   2.0000      -0.639324       -17.3969
  39   2.0000      -0.614898       -16.7322
  40   2.0000      -0.602316       -16.3898
  41   2.0000      -0.577497       -15.7145
  42   2.0000      -0.569085       -15.4856
  43   2.0000      -0.552113       -15.0238
  44   2.0000      -0.542303       -14.7568
  45   2.0000      -0.530449       -14.4343
  46   2.0000      -0.524446       -14.2709
  47   2.0000      -0.511807       -13.9270
  48   2.0000      -0.509229       -13.8568
  49   2.0000      -0.498979       -13.5779
  50   2.0000      -0.491295       -13.3688
  51   2.0000      -0.484299       -13.1785
  52   2.0000      -0.471880       -12.8405
  53   2.0000      -0.465403       -12.6643
  54   2.0000      -0.461384       -12.5549
  55   2.0000      -0.450337       -12.2543
  56   2.0000      -0.444565       -12.0972
  57   2.0000      -0.438157       -11.9228
  58   2.0000      -0.429682       -11.6923
  59   2.0000      -0.426838       -11.6149
  60   2.0000      -0.423742       -11.5306
  61   2.0000      -0.416159       -11.3243
  62   2.0000      -0.405909       -11.0454
  63   2.0000      -0.361087        -9.8257
  64   2.0000      -0.334224        -9.0947
  65   2.0000      -0.329374        -8.9627
  66   2.0000      -0.283248        -7.7076
  67   0.0000       0.021307         0.5798
  68   0.0000       0.070087         1.9072
  69   0.0000       0.115595         3.1455
  70   0.0000       0.120042         3.2665
  71   0.0000       0.126207         3.4343

MULLIKEN ATOMIC CHARGES
-----------------------
   0 S :    0.104793
   1 C :   -0.107263
   2 C :   -0.075687
   3 C :    0.015207
   4 C :   -0.169232
   5 H :    0.003617
   6 C :    0.036362
   7 H :    0.041484
   8 H :    0.022428
   9 C :   -0.045291
  10 H :    0.026357
  11 H :    0.021209
  12 C :   -0.094805
  13 H :    0.057747
  14 H :    0.029070
  15 H :    0.028778
  16 S :    0.101642
  17 C :   -0.050548
  18 C :   -0.010207
  19 C :   -0.082322
  20 C :   -0.123742
  21 H :    0.010185
  22 C :    0.060099
  23 H :    0.024541
  24 H :    0.020634
  25 C :   -0.065731
  26 H :    0.028468
  27 H :    0.027809
  28 C :   -0.017761
  29 H :    0.031062
  30 H :    0.022615
  31 H :    0.035932
  32 H :    0.059765
  33 H :    0.032784
Sum of atomic charges:    0.0000000

LOEWDIN ATOMIC CHARGES
----------------------
   0 S :    0.412516
   1 C :   -0.196447
   2 C :   -0.066694
   3 C :   -0.062840
   4 C :   -0.199096
   5 H :    0.029659
   6 C :   -0.040189
   7 H :    0.038453
   8 H :    0.031210
   9 C :   -0.027153
  10 H :    0.017948
  11 H :    0.015530
  12 C :   -0.069172
  13 H :    0.025657
  14 H :    0.026763
  15 H :    0.021030
  16 S :    0.406224
  17 C :   -0.175454
  18 C :   -0.075333
  19 C :   -0.050334
  20 C :   -0.196033
  21 H :    0.032746
  22 C :   -0.032738
  23 H :    0.028461
  24 H :    0.027151
  25 C :   -0.035999
  26 H :    0.026588
  27 H :    0.016606
  28 C :   -0.059318
  29 H :    0.021199
  30 H :    0.023916
  31 H :    0.031337
  32 H :    0.033410
  33 H :    0.020395

  Mayer bond orders larger than 0.100000
B(  0-S ,  1-C ) :   1.1452 B(  0-S ,  4-C ) :   1.1431 B(  1-C ,  2-C ) :   1.5778
B(  1-C ,  4-C ) :   0.1034 B(  1-C , 32-H ) :   0.9669 B(  2-C ,  3-C ) :   1.2595
B(  2-C ,  6-C ) :   1.0356 B(  3-C ,  4-C ) :   1.5268 B(  3-C ,  5-H ) :   0.9959
B(  4-C , 20-C ) :   1.1218 B(  6-C ,  7-H ) :   0.9411 B(  6-C ,  8-H ) :   0.9435
B(  6-C ,  9-C ) :   1.0646 B(  9-C , 10-H ) :   0.9627 B(  9-C , 11-H ) :   0.9597
B(  9-C , 12-C ) :   1.0678 B( 12-C , 13-H ) :   0.9761 B( 12-C , 14-H ) :   0.9804
B( 12-C , 15-H ) :   0.9778 B( 16-S , 17-C ) :   1.1590 B( 16-S , 20-C ) :   1.1202
B( 17-C , 18-C ) :   1.5930 B( 17-C , 33-H ) :   0.9723 B( 18-C , 19-C ) :   1.2578
B( 18-C , 21-H ) :   0.9954 B( 19-C , 20-C ) :   1.5686 B( 19-C , 22-C ) :   1.0537
B( 22-C , 23-H ) :   0.9385 B( 22-C , 24-H ) :   0.9325 B( 22-C , 25-C ) :   1.0274
B( 25-C , 26-H ) :   0.9521 B( 25-C , 27-H ) :   0.9661 B( 25-C , 28-C ) :   1.0854
B( 28-C , 29-H ) :   0.9745 B( 28-C , 30-H ) :   0.9761 B( 28-C , 31-H ) :   0.9722

Dispersion correction           -0.015054318
FINAL SINGLE POINT ENERGY     -1339.870657589764

DIPOLE MOMENT
-------------
                                X             Y             Z
Electronic contribution:    -15.79898       1.96410     -21.57905
Nuclear contribution   :     16.11098      -1.80505      22.14438
                        -----------------------------------------
Total Dipole Moment    :      0.31199       0.15905       0.56533
                        -----------------------------------------
Magnitude (a.u.)       :      0.66501
Magnitude (Debye)      :      1.69032

Rotational constants in cm-1:     0.017352     0.009904     0.007509
Rotational constants in MHz :   520.194002   296.927203   225.124664

                             ****ORCA TERMINATED NORMALLY****
TOTAL RUN TIME: 0 days 0 hours 0 minutes 31 seconds 682 msec
