                         Program Version 4.2.1 -  RELEASE  -
|  1> ! wB97X-D3 SP def2-SVP
|  2> %pal
|  3> nprocs 16
|  4> end
|  5>
|  6> * xyz 0 1
|  7> S 	 -37.4147 	 58.0126 	 114.661
|  8> C 	 -38.9173 	 58.4823 	 114.011
|  9> C 	 -39.0248 	 58.219 	 112.657
| 10> C 	 -37.9353 	 57.3901 	 112.231
| 11> C 	 -37.0738 	 57.0109 	 113.223
| 12> H 	 -37.7157 	 56.9647 	 111.242
| 13> C 	 -40.2427 	 58.5706 	 111.901
| 14> H 	 -40.7544 	 59.2142 	 112.588
| 15> H 	 -40.8492 	 57.6582 	 111.941
| 16> C 	 -39.9586 	 59.0484 	 110.537
| 17> H 	 -39.3928 	 58.2879 	 110.038
| 18> H 	 -40.936 	 59.1883 	 110.039
| 19> C 	 -39.2741 	 60.3664 	 110.401
| 20> H 	 -39.6262 	 61.0518 	 111.172
| 21> H 	 -38.2557 	 60.173 	 110.753
| 22> H 	 -39.339 	 60.8013 	 109.392
| 23> S 	 -34.5078 	 56.8549 	 112.115
| 24> C 	 -33.7167 	 55.2845 	 112.071
| 25> C 	 -34.286 	 54.4526 	 112.99
| 26> C 	 -35.5065 	 55.0091 	 113.547
| 27> C 	 -35.8464 	 56.228 	 113.037
| 28> H 	 -33.9228 	 53.4181 	 113.16
| 29> C 	 -36.3243 	 54.2383 	 114.531
| 30> H 	 -37.3041 	 54.7266 	 114.765
| 31> H 	 -35.8374 	 54.2098 	 115.492
| 32> C 	 -36.7842 	 52.8258 	 114.069
| 33> H 	 -36.146 	 52.3485 	 113.336
| 34> H 	 -37.7032 	 53.0408 	 113.392
| 35> C 	 -37.0306 	 51.981 	 115.373
| 36> H 	 -36.0931 	 51.4588 	 115.561
| 37> H 	 -37.7855 	 51.1716 	 115.093
| 38> H 	 -37.4286 	 52.5624 	 116.228
| 39> H 	 -39.5909 	 59.1371 	 114.601
| 40> H 	 -32.7045 	 55.1177 	 111.641
| 41> *
| 42>
| 43>                          ****END OF INPUT****

CARTESIAN COORDINATES (ANGSTROEM)
---------------------------------
  S    -37.414700   58.012600  114.661000
  C    -38.917300   58.482300  114.011000
  C    -39.024800   58.219000  112.657000
  C    -37.935300   57.390100  112.231000
  C    -37.073800   57.010900  113.223000
  H    -37.715700   56.964700  111.242000
  C    -40.242700   58.570600  111.901000
  H    -40.754400   59.214200  112.588000
  H    -40.849200   57.658200  111.941000
  C    -39.958600   59.048400  110.537000
  H    -39.392800   58.287900  110.038000
  H    -40.936000   59.188300  110.039000
  C    -39.274100   60.366400  110.401000
  H    -39.626200   61.051800  111.172000
  H    -38.255700   60.173000  110.753000
  H    -39.339000   60.801300  109.392000
  S    -34.507800   56.854900  112.115000
  C    -33.716700   55.284500  112.071000
  C    -34.286000   54.452600  112.990000
  C    -35.506500   55.009100  113.547000
  C    -35.846400   56.228000  113.037000
  H    -33.922800   53.418100  113.160000
  C    -36.324300   54.238300  114.531000
  H    -37.304100   54.726600  114.765000
  H    -35.837400   54.209800  115.492000
  C    -36.784200   52.825800  114.069000
  H    -36.146000   52.348500  113.336000
  H    -37.703200   53.040800  113.392000
  C    -37.030600   51.981000  115.373000
  H    -36.093100   51.458800  115.561000
  H    -37.785500   51.171600  115.093000
  H    -37.428600   52.562400  116.228000
  H    -39.590900   59.137100  114.601000
  H    -32.704500   55.117700  111.641000

 Total Charge           Charge          ....    0
 Multiplicity           Mult            ....    1
 Number of Electrons    NEL             ....  134
 Basis Dimension        Dim             ....  322

ORBITAL ENERGIES
----------------

  NO   OCC          E(Eh)            E(eV)
   0   2.0000     -88.961618     -2420.7687
   1   2.0000     -88.960783     -2420.7460
   2   2.0000     -10.327624      -281.0289
   3   2.0000     -10.321822      -280.8710
   4   2.0000     -10.320323      -280.8303
   5   2.0000     -10.312299      -280.6119
   6   2.0000     -10.299833      -280.2727
   7   2.0000     -10.297512      -280.2095
   8   2.0000     -10.297308      -280.2040
   9   2.0000     -10.296055      -280.1699
  10   2.0000     -10.292383      -280.0700
  11   2.0000     -10.288392      -279.9614
  12   2.0000     -10.285977      -279.8957
  13   2.0000     -10.284018      -279.8424
  14   2.0000     -10.278683      -279.6972
  15   2.0000     -10.273200      -279.5480
  16   2.0000      -8.076881      -219.7831
  17   2.0000      -8.075851      -219.7551
  18   2.0000      -6.035194      -164.2260
  19   2.0000      -6.034430      -164.2052
  20   2.0000      -6.031483      -164.1250
  21   2.0000      -6.030448      -164.0968
  22   2.0000      -6.027640      -164.0204
  23   2.0000      -6.026358      -163.9855
  24   2.0000      -1.008303       -27.4373
  25   2.0000      -0.988928       -26.9101
  26   2.0000      -0.926357       -25.2074
  27   2.0000      -0.902781       -24.5659
  28   2.0000      -0.872985       -23.7551
  29   2.0000      -0.849273       -23.1099
  30   2.0000      -0.841320       -22.8935
  31   2.0000      -0.821349       -22.3500
  32   2.0000      -0.780215       -21.2307
  33   2.0000      -0.765431       -20.8284
  34   2.0000      -0.709599       -19.3092
  35   2.0000      -0.696851       -18.9623
  36   2.0000      -0.683772       -18.6064
  37   2.0000      -0.659340       -17.9415
  38   2.0000      -0.639368       -17.3981
  39   2.0000      -0.621766       -16.9191
  40   2.0000      -0.600797       -16.3485
  41   2.0000      -0.568424       -15.4676
  42   2.0000      -0.561607       -15.2821
  43   2.0000      -0.549595       -14.9552
  44   2.0000      -0.542470       -14.7614
  45   2.0000      -0.521330       -14.1861
  46   2.0000      -0.517293       -14.0763
  47   2.0000      -0.513555       -13.9746
  48   2.0000      -0.507775       -13.8173
  49   2.0000      -0.493606       -13.4317
  50   2.0000      -0.484469       -13.1831
  51   2.0000      -0.476871       -12.9763
  52   2.0000      -0.475749       -12.9458
  53   2.0000      -0.468549       -12.7499
  54   2.0000      -0.464568       -12.6415
  55   2.0000      -0.451361       -12.2821
  56   2.0000      -0.446758       -12.1569
  57   2.0000      -0.433341       -11.7918
  58   2.0000      -0.430790       -11.7224
  59   2.0000      -0.426426       -11.6036
  60   2.0000      -0.410402       -11.1676
  61   2.0000      -0.405627       -11.0377
  62   2.0000      -0.404721       -11.0130
  63   2.0000      -0.336415        -9.1543
  64   2.0000      -0.332150        -9.0383
  65   2.0000      -0.319009        -8.6807
  66   2.0000      -0.305997        -8.3266
  67   0.0000       0.036175         0.9844
  68   0.0000       0.061766         1.6808
  69   0.0000       0.105642         2.8747
  70   0.0000       0.119073         3.2401
  71   0.0000       0.135779         3.6947

MULLIKEN ATOMIC CHARGES
-----------------------
   0 S :    0.111123
   1 C :   -0.138323
   2 C :   -0.115399
   3 C :    0.009337
   4 C :   -0.169676
   5 H :    0.026244
   6 C :    0.110901
   7 H :   -0.003783
   8 H :    0.043335
   9 C :   -0.067262
  10 H :    0.028128
  11 H :    0.025886
  12 C :   -0.040484
  13 H :    0.021111
  14 H :    0.031341
  15 H :    0.052209
  16 S :    0.104493
  17 C :   -0.105622
  18 C :   -0.036676
  19 C :   -0.017708
  20 C :   -0.173240
  21 H :    0.035814
  22 C :    0.041424
  23 H :    0.038189
  24 H :    0.036407
  25 C :   -0.122422
  26 H :    0.027881
  27 H :    0.039766
  28 C :   -0.071664
  29 H :    0.045635
  30 H :    0.041352
  31 H :    0.054741
  32 H :    0.061300
  33 H :    0.075640
Sum of atomic charges:   -0.0000000

LOEWDIN ATOMIC CHARGES
----------------------
   0 S :    0.403101
   1 C :   -0.210793
   2 C :   -0.070474
   3 C :   -0.059369
   4 C :   -0.186559
   5 H :    0.036172
   6 C :   -0.032020
   7 H :    0.025411
   8 H :    0.041725
   9 C :   -0.046134
  10 H :    0.022772
  11 H :    0.027428
  12 C :   -0.065057
  13 H :    0.025241
  14 H :    0.027973
  15 H :    0.032315
  16 S :    0.395172
  17 C :   -0.184622
  18 C :   -0.074447
  19 C :   -0.054219
  20 C :   -0.208091
  21 H :    0.037627
  22 C :   -0.041699
  23 H :    0.036646
  24 H :    0.029038
  25 C :   -0.047649
  26 H :    0.015085
  27 H :    0.031438
  28 C :   -0.069962
  29 H :    0.028937
  30 H :    0.033138
  31 H :    0.030502
  32 H :    0.031894
  33 H :    0.039482

  Mayer bond orders larger than 0.100000
B(  0-S ,  1-C ) :   1.1604 B(  0-S ,  4-C ) :   1.1353 B(  1-C ,  2-C ) :   1.5948
B(  1-C , 32-H ) :   0.9601 B(  2-C ,  3-C ) :   1.2100 B(  2-C ,  6-C ) :   1.0218
B(  3-C ,  4-C ) :   1.6084 B(  3-C ,  5-H ) :   0.9936 B(  4-C , 20-C ) :   1.0355
B(  6-C ,  7-H ) :   0.9290 B(  6-C ,  8-H ) :   0.9315 B(  6-C ,  9-C ) :   1.0799
B(  9-C , 10-H ) :   0.9516 B(  9-C , 11-H ) :   0.9491 B(  9-C , 12-C ) :   1.0829
B( 12-C , 13-H ) :   0.9710 B( 12-C , 14-H ) :   0.9683 B( 12-C , 15-H ) :   0.9737
B( 16-S , 17-C ) :   1.1466 B( 16-S , 20-C ) :   1.1268 B( 17-C , 18-C ) :   1.6283
B( 17-C , 33-H ) :   0.9599 B( 18-C , 19-C ) :   1.2186 B( 18-C , 21-H ) :   0.9848
B( 19-C , 20-C ) :   1.6210 B( 19-C , 22-C ) :   1.0556 B( 22-C , 23-H ) :   0.9304
B( 22-C , 24-H ) :   0.9416 B( 22-C , 25-C ) :   1.0277 B( 25-C , 26-H ) :   0.9715
B( 25-C , 27-H ) :   0.9619 B( 25-C , 28-C ) :   1.0473 B( 28-C , 29-H ) :   0.9773
B( 28-C , 30-H ) :   0.9758 B( 28-C , 31-H ) :   0.9755

Dispersion correction           -0.014202472
FINAL SINGLE POINT ENERGY     -1339.867208532086

DIPOLE MOMENT
-------------
                                X             Y             Z
Electronic contribution:     14.48112       7.88351       3.56686
Nuclear contribution   :    -14.76275      -8.18074      -3.65136
                        -----------------------------------------
Total Dipole Moment    :     -0.28163      -0.29723      -0.08451
                        -----------------------------------------
Magnitude (a.u.)       :      0.41809
Magnitude (Debye)      :      1.06271

Rotational constants in cm-1:     0.019974     0.007970     0.006790
Rotational constants in MHz :   598.791866   238.924718   203.567071

                             ****ORCA TERMINATED NORMALLY****
TOTAL RUN TIME: 0 days 0 hours 0 minutes 29 seconds 553 msec
