                         Program Version 4.2.1 -  RELEASE  -
|  1> ! wB97X-D3 SP def2-SVP
|  2> %pal
|  3> nprocs 16
|  4> end
|  5>
|  6> * xyz 0 1
|  7> S 	 -55.418 	 41.7119 	 114.094
|  8> C 	 -53.9419 	 41.4461 	 113.222
|  9> C 	 -54.2376 	 41.093 	 111.933
| 10> C 	 -55.6152 	 40.9486 	 111.64
| 11> C 	 -56.3948 	 41.2798 	 112.683
| 12> H 	 -56.0725 	 40.5948 	 110.809
| 13> C 	 -53.154 	 40.6693 	 110.853
| 14> H 	 -52.9921 	 39.5947 	 111.003
| 15> H 	 -52.2678 	 41.272 	 111.028
| 16> C 	 -53.6179 	 40.9416 	 109.379
| 17> H 	 -52.9224 	 40.5352 	 108.691
| 18> H 	 -54.5421 	 40.4585 	 109.175
| 19> C 	 -53.5716 	 42.3945 	 109.13
| 20> H 	 -54.2759 	 42.901 	 109.782
| 21> H 	 -52.6205 	 42.8689 	 109.233
| 22> H 	 -53.9635 	 42.4351 	 108.069
| 23> S 	 -58.6512 	 39.8323 	 112.267
| 24> C 	 -60.2198 	 40.5809 	 112.396
| 25> C 	 -60.132 	 41.9104 	 112.686
| 26> C 	 -58.7863 	 42.3502 	 112.769
| 27> C 	 -57.8523 	 41.3355 	 112.641
| 28> H 	 -61.1074 	 42.4124 	 112.699
| 29> C 	 -58.481 	 43.7832 	 113.186
| 30> H 	 -57.3634 	 43.7615 	 113.179
| 31> H 	 -58.8273 	 43.961 	 114.26
| 32> C 	 -58.9491 	 44.9721 	 112.251
| 33> H 	 -60.0102 	 45.1648 	 112.291
| 34> H 	 -58.8111 	 44.5986 	 111.228
| 35> C 	 -58.2633 	 46.2829 	 112.616
| 36> H 	 -58.4178 	 47.0056 	 111.821
| 37> H 	 -57.154 	 46.2317 	 112.759
| 38> H 	 -58.7468 	 46.7559 	 113.491
| 39> H 	 -52.9424 	 41.6487 	 113.646
| 40> H 	 -61.1052 	 39.9962 	 112.168
| 41> *
| 42>
| 43>                          ****END OF INPUT****

CARTESIAN COORDINATES (ANGSTROEM)
---------------------------------
  S    -55.418000   41.711900  114.094000
  C    -53.941900   41.446100  113.222000
  C    -54.237600   41.093000  111.933000
  C    -55.615200   40.948600  111.640000
  C    -56.394800   41.279800  112.683000
  H    -56.072500   40.594800  110.809000
  C    -53.154000   40.669300  110.853000
  H    -52.992100   39.594700  111.003000
  H    -52.267800   41.272000  111.028000
  C    -53.617900   40.941600  109.379000
  H    -52.922400   40.535200  108.691000
  H    -54.542100   40.458500  109.175000
  C    -53.571600   42.394500  109.130000
  H    -54.275900   42.901000  109.782000
  H    -52.620500   42.868900  109.233000
  H    -53.963500   42.435100  108.069000
  S    -58.651200   39.832300  112.267000
  C    -60.219800   40.580900  112.396000
  C    -60.132000   41.910400  112.686000
  C    -58.786300   42.350200  112.769000
  C    -57.852300   41.335500  112.641000
  H    -61.107400   42.412400  112.699000
  C    -58.481000   43.783200  113.186000
  H    -57.363400   43.761500  113.179000
  H    -58.827300   43.961000  114.260000
  C    -58.949100   44.972100  112.251000
  H    -60.010200   45.164800  112.291000
  H    -58.811100   44.598600  111.228000
  C    -58.263300   46.282900  112.616000
  H    -58.417800   47.005600  111.821000
  H    -57.154000   46.231700  112.759000
  H    -58.746800   46.755900  113.491000
  H    -52.942400   41.648700  113.646000
  H    -61.105200   39.996200  112.168000

 Total Charge           Charge          ....    0
 Multiplicity           Mult            ....    1
 Number of Electrons    NEL             ....  134
 Basis Dimension        Dim             ....  322

ORBITAL ENERGIES
----------------

  NO   OCC          E(Eh)            E(eV)
   0   2.0000     -88.965169     -2420.8653
   1   2.0000     -88.962517     -2420.7932
   2   2.0000     -10.326756      -281.0053
   3   2.0000     -10.325315      -280.9661
   4   2.0000     -10.314653      -280.6760
   5   2.0000     -10.313837      -280.6538
   6   2.0000     -10.303266      -280.3661
   7   2.0000     -10.301367      -280.3144
   8   2.0000     -10.295522      -280.1554
   9   2.0000     -10.293567      -280.1022
  10   2.0000     -10.291751      -280.0528
  11   2.0000     -10.287330      -279.9325
  12   2.0000     -10.282979      -279.8141
  13   2.0000     -10.279996      -279.7329
  14   2.0000     -10.277215      -279.6572
  15   2.0000     -10.271546      -279.5030
  16   2.0000      -8.079673      -219.8591
  17   2.0000      -8.077830      -219.8089
  18   2.0000      -6.038225      -164.3084
  19   2.0000      -6.036261      -164.2550
  20   2.0000      -6.034169      -164.1981
  21   2.0000      -6.032212      -164.1448
  22   2.0000      -6.030437      -164.0965
  23   2.0000      -6.028702      -164.0493
  24   2.0000      -1.011213       -27.5165
  25   2.0000      -0.988832       -26.9075
  26   2.0000      -0.912054       -24.8182
  27   2.0000      -0.898529       -24.4502
  28   2.0000      -0.877183       -23.8694
  29   2.0000      -0.851698       -23.1759
  30   2.0000      -0.846716       -23.0403
  31   2.0000      -0.818620       -22.2758
  32   2.0000      -0.775650       -21.1065
  33   2.0000      -0.764889       -20.8137
  34   2.0000      -0.708013       -19.2660
  35   2.0000      -0.698494       -19.0070
  36   2.0000      -0.689598       -18.7649
  37   2.0000      -0.661967       -18.0130
  38   2.0000      -0.646577       -17.5943
  39   2.0000      -0.622759       -16.9461
  40   2.0000      -0.591936       -16.1074
  41   2.0000      -0.568400       -15.4669
  42   2.0000      -0.558014       -15.1843
  43   2.0000      -0.552636       -15.0380
  44   2.0000      -0.543709       -14.7951
  45   2.0000      -0.523991       -14.2585
  46   2.0000      -0.521900       -14.2016
  47   2.0000      -0.514020       -13.9872
  48   2.0000      -0.506127       -13.7724
  49   2.0000      -0.499582       -13.5943
  50   2.0000      -0.488073       -13.2811
  51   2.0000      -0.479754       -13.0548
  52   2.0000      -0.475017       -12.9259
  53   2.0000      -0.464591       -12.6422
  54   2.0000      -0.456460       -12.4209
  55   2.0000      -0.448733       -12.2106
  56   2.0000      -0.442338       -12.0366
  57   2.0000      -0.441481       -12.0133
  58   2.0000      -0.425084       -11.5671
  59   2.0000      -0.421691       -11.4748
  60   2.0000      -0.413040       -11.2394
  61   2.0000      -0.409138       -11.1332
  62   2.0000      -0.408051       -11.1036
  63   2.0000      -0.346465        -9.4278
  64   2.0000      -0.334981        -9.1153
  65   2.0000      -0.325874        -8.8675
  66   2.0000      -0.300659        -8.1814
  67   0.0000       0.038244         1.0407
  68   0.0000       0.069591         1.8937
  69   0.0000       0.116365         3.1665
  70   0.0000       0.118875         3.2348
  71   0.0000       0.133617         3.6359

MULLIKEN ATOMIC CHARGES
-----------------------
   0 S :    0.112248
   1 C :   -0.141109
   2 C :   -0.081889
   3 C :    0.068919
   4 C :   -0.142869
   5 H :   -0.035083
   6 C :    0.059399
   7 H :    0.050555
   8 H :    0.017178
   9 C :   -0.060794
  10 H :    0.016974
  11 H :    0.025494
  12 C :   -0.048595
  13 H :    0.033816
  14 H :    0.032188
  15 H :    0.035690
  16 S :    0.096570
  17 C :   -0.109277
  18 C :   -0.024793
  19 C :   -0.013741
  20 C :   -0.176775
  21 H :    0.030858
  22 C :    0.017602
  23 H :    0.023957
  24 H :    0.052428
  25 C :   -0.065118
  26 H :    0.024717
  27 H :    0.031099
  28 C :   -0.061271
  29 H :    0.029501
  30 H :    0.043852
  31 H :    0.036545
  32 H :    0.062287
  33 H :    0.059439
Sum of atomic charges:    0.0000000

LOEWDIN ATOMIC CHARGES
----------------------
   0 S :    0.404470
   1 C :   -0.205734
   2 C :   -0.064131
   3 C :   -0.054112
   4 C :   -0.183493
   5 H :    0.013677
   6 C :   -0.022901
   7 H :    0.032450
   8 H :    0.024477
   9 C :   -0.041909
  10 H :    0.021777
  11 H :    0.018278
  12 C :   -0.061505
  13 H :    0.023014
  14 H :    0.021920
  15 H :    0.035034
  16 S :    0.409205
  17 C :   -0.181566
  18 C :   -0.076457
  19 C :   -0.062505
  20 C :   -0.199788
  21 H :    0.040801
  22 C :   -0.039831
  23 H :    0.026031
  24 H :    0.038745
  25 C :   -0.043538
  26 H :    0.021249
  27 H :    0.025534
  28 C :   -0.070266
  29 H :    0.026274
  30 H :    0.030288
  31 H :    0.029657
  32 H :    0.037546
  33 H :    0.027307

  Mayer bond orders larger than 0.100000
B(  0-S ,  1-C ) :   1.1348 B(  0-S ,  4-C ) :   1.1404 B(  1-C ,  2-C ) :   1.6316
B(  1-C , 32-H ) :   0.9692 B(  2-C ,  3-C ) :   1.2133 B(  2-C ,  6-C ) :   0.9946
B(  3-C ,  4-C ) :   1.6002 B(  3-C ,  5-H ) :   1.0128 B(  4-C , 20-C ) :   0.9993
B(  6-C ,  7-H ) :   0.9456 B(  6-C ,  8-H ) :   0.9473 B(  6-C ,  9-C ) :   1.0819
B(  9-C , 10-H ) :   0.9512 B(  9-C , 11-H ) :   0.9510 B(  9-C , 12-C ) :   1.0810
B( 12-C , 13-H ) :   0.9754 B( 12-C , 14-H ) :   0.9734 B( 12-C , 15-H ) :   0.9716
B( 16-S , 17-C ) :   1.1600 B( 16-S , 20-C ) :   1.1492 B( 17-C , 18-C ) :   1.6152
B( 17-C , 33-H ) :   0.9669 B( 18-C , 19-C ) :   1.2105 B( 18-C , 21-H ) :   0.9952
B( 19-C , 20-C ) :   1.6013 B( 19-C , 22-C ) :   1.0471 B( 22-C , 23-H ) :   0.9353
B( 22-C , 24-H ) :   0.9408 B( 22-C , 25-C ) :   1.0484 B( 25-C , 26-H ) :   0.9525
B( 25-C , 27-H ) :   0.9595 B( 25-C , 28-C ) :   1.0855 B( 28-C , 29-H ) :   0.9729
B( 28-C , 30-H ) :   0.9764 B( 28-C , 31-H ) :   0.9739

Dispersion correction           -0.014083837
FINAL SINGLE POINT ENERGY     -1339.876463816309

DIPOLE MOMENT
-------------
                                X             Y             Z
Electronic contribution:     -6.60558     -17.63133      13.53851
Nuclear contribution   :      6.61138      17.85561     -13.94469
                        -----------------------------------------
Total Dipole Moment    :      0.00580       0.22428      -0.40617
                        -----------------------------------------
Magnitude (a.u.)       :      0.46402
Magnitude (Debye)      :      1.17944

Rotational constants in cm-1:     0.016540     0.008854     0.007621
Rotational constants in MHz :   495.852790   265.428278   228.459028

                             ****ORCA TERMINATED NORMALLY****
TOTAL RUN TIME: 0 days 0 hours 0 minutes 28 seconds 535 msec
