                         Program Version 4.2.1 -  RELEASE  -
|  1> ! wB97X-D3 SP def2-SVP
|  2> %pal
|  3> nprocs 16
|  4> end
|  5>
|  6> * xyz 0 1
|  7> S 	 47.6705 	 3.05644 	 87.9392
|  8> C 	 46.8059 	 4.21762 	 87.0027
|  9> C 	 45.514 	 4.35987 	 87.3363
| 10> C 	 45.2295 	 3.54321 	 88.4549
| 11> C 	 46.2917 	 2.71725 	 88.8669
| 12> H 	 44.3418 	 3.64059 	 89.0966
| 13> C 	 44.5134 	 5.41111 	 86.7987
| 14> H 	 45.1694 	 6.20664 	 86.5348
| 15> H 	 43.8789 	 5.74638 	 87.6441
| 16> C 	 43.7115 	 5.00351 	 85.597
| 17> H 	 44.388 	 4.45064 	 84.9278
| 18> H 	 43.0348 	 4.28072 	 86.0002
| 19> C 	 43.1086 	 6.23948 	 84.894
| 20> H 	 43.874 	 6.96578 	 84.6979
| 21> H 	 42.4061 	 6.00053 	 84.0415
| 22> H 	 42.5062 	 6.67923 	 85.6432
| 23> S 	 45.0819 	 1.86897 	 91.1525
| 24> C 	 45.446 	 0.312037 	 91.88
| 25> C 	 46.6103 	 -0.189578 	 91.2996
| 26> C 	 47.0726 	 0.541372 	 90.1353
| 27> C 	 46.2302 	 1.63321 	 89.8792
| 28> H 	 47.0493 	 -1.1146 	 91.6799
| 29> C 	 48.1968 	 0.0843172 	 89.2837
| 30> H 	 48.0516 	 0.489502 	 88.2956
| 31> H 	 48.033 	 -0.98037 	 89.3841
| 32> C 	 49.57 	 0.497901 	 89.7732
| 33> H 	 49.6677 	 -0.139938 	 90.608
| 34> H 	 49.5499 	 1.49637 	 90.2301
| 35> C 	 50.6069 	 0.273479 	 88.7457
| 36> H 	 50.5242 	 -0.765353 	 88.3467
| 37> H 	 51.5972 	 0.205727 	 89.1947
| 38> H 	 50.6033 	 0.971448 	 87.8826
| 39> H 	 47.371 	 4.81454 	 86.3423
| 40> H 	 45.1127 	 -0.13585 	 92.7779
| 41> *
| 42>
| 43>                          ****END OF INPUT****

CARTESIAN COORDINATES (ANGSTROEM)
---------------------------------
  S     47.670500    3.056440   87.939200
  C     46.805900    4.217620   87.002700
  C     45.514000    4.359870   87.336300
  C     45.229500    3.543210   88.454900
  C     46.291700    2.717250   88.866900
  H     44.341800    3.640590   89.096600
  C     44.513400    5.411110   86.798700
  H     45.169400    6.206640   86.534800
  H     43.878900    5.746380   87.644100
  C     43.711500    5.003510   85.597000
  H     44.388000    4.450640   84.927800
  H     43.034800    4.280720   86.000200
  C     43.108600    6.239480   84.894000
  H     43.874000    6.965780   84.697900
  H     42.406100    6.000530   84.041500
  H     42.506200    6.679230   85.643200
  S     45.081900    1.868970   91.152500
  C     45.446000    0.312037   91.880000
  C     46.610300   -0.189578   91.299600
  C     47.072600    0.541372   90.135300
  C     46.230200    1.633210   89.879200
  H     47.049300   -1.114600   91.679900
  C     48.196800    0.084317   89.283700
  H     48.051600    0.489502   88.295600
  H     48.033000   -0.980370   89.384100
  C     49.570000    0.497901   89.773200
  H     49.667700   -0.139938   90.608000
  H     49.549900    1.496370   90.230100
  C     50.606900    0.273479   88.745700
  H     50.524200   -0.765353   88.346700
  H     51.597200    0.205727   89.194700
  H     50.603300    0.971448   87.882600
  H     47.371000    4.814540   86.342300
  H     45.112700   -0.135850   92.777900

 Total Charge           Charge          ....    0
 Multiplicity           Mult            ....    1
 Number of Electrons    NEL             ....  134
 Basis Dimension        Dim             ....  322

ORBITAL ENERGIES
----------------

  NO   OCC          E(Eh)            E(eV)
   0   2.0000     -88.969311     -2420.9780
   1   2.0000     -88.965183     -2420.8657
   2   2.0000     -10.329475      -281.0793
   3   2.0000     -10.328496      -281.0527
   4   2.0000     -10.315101      -280.6882
   5   2.0000     -10.306225      -280.4466
   6   2.0000     -10.301169      -280.3091
   7   2.0000     -10.298504      -280.2365
   8   2.0000     -10.296317      -280.1770
   9   2.0000     -10.292444      -280.0716
  10   2.0000     -10.291622      -280.0493
  11   2.0000     -10.282966      -279.8137
  12   2.0000     -10.281772      -279.7812
  13   2.0000     -10.280302      -279.7412
  14   2.0000     -10.277656      -279.6692
  15   2.0000     -10.276592      -279.6403
  16   2.0000      -8.085017      -220.0045
  17   2.0000      -8.079786      -219.8621
  18   2.0000      -6.043336      -164.4475
  19   2.0000      -6.039300      -164.3377
  20   2.0000      -6.038449      -164.3146
  21   2.0000      -6.036035      -164.2489
  22   2.0000      -6.034343      -164.2028
  23   2.0000      -6.030383      -164.0951
  24   2.0000      -1.014209       -27.5980
  25   2.0000      -0.988626       -26.9019
  26   2.0000      -0.921282       -25.0693
  27   2.0000      -0.917955       -24.9788
  28   2.0000      -0.870940       -23.6995
  29   2.0000      -0.856944       -23.3186
  30   2.0000      -0.848717       -23.0948
  31   2.0000      -0.811790       -22.0899
  32   2.0000      -0.785621       -21.3778
  33   2.0000      -0.772458       -21.0197
  34   2.0000      -0.706664       -19.2293
  35   2.0000      -0.703574       -19.1452
  36   2.0000      -0.693667       -18.8756
  37   2.0000      -0.670786       -18.2530
  38   2.0000      -0.641744       -17.4627
  39   2.0000      -0.615793       -16.7566
  40   2.0000      -0.593697       -16.1553
  41   2.0000      -0.578877       -15.7520
  42   2.0000      -0.570682       -15.5290
  43   2.0000      -0.563773       -15.3410
  44   2.0000      -0.526386       -14.3237
  45   2.0000      -0.522717       -14.2238
  46   2.0000      -0.516882       -14.0651
  47   2.0000      -0.515873       -14.0376
  48   2.0000      -0.508416       -13.8347
  49   2.0000      -0.503034       -13.6883
  50   2.0000      -0.495842       -13.4925
  51   2.0000      -0.481397       -13.0995
  52   2.0000      -0.473082       -12.8732
  53   2.0000      -0.468533       -12.7494
  54   2.0000      -0.464588       -12.6421
  55   2.0000      -0.449616       -12.2347
  56   2.0000      -0.441335       -12.0093
  57   2.0000      -0.436328       -11.8731
  58   2.0000      -0.431036       -11.7291
  59   2.0000      -0.428476       -11.6594
  60   2.0000      -0.424104       -11.5405
  61   2.0000      -0.418914       -11.3992
  62   2.0000      -0.408511       -11.1161
  63   2.0000      -0.359245        -9.7756
  64   2.0000      -0.336200        -9.1485
  65   2.0000      -0.325149        -8.8477
  66   2.0000      -0.282641        -7.6911
  67   0.0000       0.023652         0.6436
  68   0.0000       0.084691         2.3046
  69   0.0000       0.114300         3.1103
  70   0.0000       0.119195         3.2435
  71   0.0000       0.123277         3.3545

MULLIKEN ATOMIC CHARGES
-----------------------
   0 S :    0.104093
   1 C :   -0.128388
   2 C :   -0.048737
   3 C :   -0.025880
   4 C :   -0.132139
   5 H :    0.024741
   6 C :    0.052150
   7 H :    0.006233
   8 H :    0.034037
   9 C :   -0.051203
  10 H :    0.028650
  11 H :    0.024279
  12 C :   -0.019427
  13 H :    0.028889
  14 H :    0.053444
  15 H :    0.012558
  16 S :    0.088646
  17 C :   -0.055625
  18 C :   -0.061623
  19 C :   -0.090504
  20 C :   -0.098622
  21 H :    0.020316
  22 C :    0.050064
  23 H :    0.020885
  24 H :    0.028884
  25 C :   -0.041370
  26 H :    0.001876
  27 H :    0.033145
  28 C :   -0.022841
  29 H :    0.020992
  30 H :    0.027314
  31 H :    0.045583
  32 H :    0.027231
  33 H :    0.042352
Sum of atomic charges:    0.0000000

LOEWDIN ATOMIC CHARGES
----------------------
   0 S :    0.453573
   1 C :   -0.195544
   2 C :   -0.060874
   3 C :   -0.076842
   4 C :   -0.209790
   5 H :    0.026925
   6 C :   -0.023383
   7 H :    0.022414
   8 H :    0.033100
   9 C :   -0.040009
  10 H :    0.024129
  11 H :    0.022789
  12 C :   -0.062376
  13 H :    0.024429
  14 H :    0.036751
  15 H :    0.020204
  16 S :    0.414088
  17 C :   -0.186802
  18 C :   -0.069843
  19 C :   -0.062941
  20 C :   -0.193921
  21 H :    0.029779
  22 C :   -0.036541
  23 H :    0.014895
  24 H :    0.034624
  25 C :   -0.044722
  26 H :    0.019733
  27 H :    0.026039
  28 C :   -0.068294
  29 H :    0.030847
  30 H :    0.027378
  31 H :    0.029363
  32 H :    0.015059
  33 H :    0.025762

  Mayer bond orders larger than 0.100000
B(  0-S ,  1-C ) :   1.1555 B(  0-S ,  4-C ) :   1.1714 B(  1-C ,  2-C ) :   1.5967
B(  1-C , 32-H ) :   0.9743 B(  2-C ,  3-C ) :   1.2860 B(  2-C ,  6-C ) :   0.9973
B(  3-C ,  4-C ) :   1.5267 B(  3-C ,  5-H ) :   0.9805 B(  4-C , 20-C ) :   1.0471
B(  6-C ,  7-H ) :   0.9407 B(  6-C ,  8-H ) :   0.9435 B(  6-C ,  9-C ) :   1.0587
B(  9-C , 10-H ) :   0.9582 B(  9-C , 11-H ) :   0.9550 B(  9-C , 12-C ) :   1.0693
B( 12-C , 13-H ) :   0.9749 B( 12-C , 14-H ) :   0.9739 B( 12-C , 15-H ) :   0.9711
B( 16-S , 17-C ) :   1.1391 B( 16-S , 20-C ) :   1.1475 B( 17-C , 18-C ) :   1.6227
B( 17-C , 33-H ) :   0.9698 B( 18-C , 19-C ) :   1.2432 B( 18-C , 21-H ) :   0.9810
B( 19-C , 20-C ) :   1.5680 B( 19-C , 22-C ) :   1.0393 B( 22-C , 23-H ) :   0.9361
B( 22-C , 24-H ) :   0.9250 B( 22-C , 25-C ) :   1.0509 B( 25-C , 26-H ) :   0.9445
B( 25-C , 27-H ) :   0.9566 B( 25-C , 28-C ) :   1.0980 B( 28-C , 29-H ) :   0.9623
B( 28-C , 30-H ) :   0.9693 B( 28-C , 31-H ) :   0.9729

Dispersion correction           -0.013759102
FINAL SINGLE POINT ENERGY     -1339.872217129401

DIPOLE MOMENT
-------------
                                X             Y             Z
Electronic contribution:     -2.25750      -3.69859      13.68429
Nuclear contribution   :      2.36827       3.76768     -13.75071
                        -----------------------------------------
Total Dipole Moment    :      0.11077       0.06908      -0.06642
                        -----------------------------------------
Magnitude (a.u.)       :      0.14647
Magnitude (Debye)      :      0.37230

Rotational constants in cm-1:     0.022264     0.007628     0.005929
Rotational constants in MHz :   667.454315   228.679755   177.759642

                             ****ORCA TERMINATED NORMALLY****
TOTAL RUN TIME: 0 days 0 hours 0 minutes 29 seconds 79 msec
