                         Program Version 4.2.1 -  RELEASE  -
|  1> ! wB97X-D3 SP def2-SVP
|  2> %pal
|  3> nprocs 16
|  4> end
|  5>
|  6> * xyz 0 1
|  7> S 	 43.8198 	 21.5692 	 44.8329
|  8> C 	 42.2729 	 21.2936 	 44.1928
|  9> C 	 41.3112 	 22.3135 	 44.4754
| 10> C 	 41.9582 	 23.342 	 45.2608
| 11> C 	 43.2923 	 23.1171 	 45.497
| 12> H 	 41.4055 	 24.1932 	 45.5786
| 13> C 	 39.9332 	 22.3475 	 43.9375
| 14> H 	 39.4232 	 21.4366 	 44.0457
| 15> H 	 40.1324 	 22.5721 	 42.8161
| 16> C 	 38.949 	 23.4716 	 44.4958
| 17> H 	 39.4053 	 24.4879 	 44.4995
| 18> H 	 38.2891 	 23.5196 	 43.6706
| 19> C 	 38.2788 	 23.104 	 45.853
| 20> H 	 37.4597 	 23.7753 	 46.2129
| 21> H 	 37.8155 	 22.1 	 45.889
| 22> H 	 39.0813 	 22.9849 	 46.5869
| 23> S 	 44.9775 	 25.2353 	 45.4603
| 24> C 	 46.0812 	 25.2935 	 46.7439
| 25> C 	 45.6149 	 24.7635 	 47.9189
| 26> C 	 44.6137 	 23.7835 	 47.5923
| 27> C 	 44.2223 	 23.9278 	 46.2787
| 28> H 	 46.1565 	 24.8538 	 48.913
| 29> C 	 44.0144 	 22.8062 	 48.5972
| 30> H 	 44.9005 	 22.3577 	 49.1906
| 31> H 	 43.617 	 21.8879 	 48.0411
| 32> C 	 42.9133 	 23.379 	 49.5618
| 33> H 	 41.9834 	 23.6269 	 49.104
| 34> H 	 43.2596 	 24.3203 	 50.0101
| 35> C 	 42.7278 	 22.4685 	 50.7982
| 36> H 	 42.0969 	 22.8087 	 51.6146
| 37> H 	 43.672 	 22.2054 	 51.2646
| 38> H 	 42.132 	 21.6268 	 50.4685
| 39> H 	 42.062 	 20.39 	 43.646
| 40> H 	 47.0919 	 25.7204 	 46.5955
| 41> *
| 42>
| 43>                          ****END OF INPUT****

CARTESIAN COORDINATES (ANGSTROEM)
---------------------------------
  S     43.819800   21.569200   44.832900
  C     42.272900   21.293600   44.192800
  C     41.311200   22.313500   44.475400
  C     41.958200   23.342000   45.260800
  C     43.292300   23.117100   45.497000
  H     41.405500   24.193200   45.578600
  C     39.933200   22.347500   43.937500
  H     39.423200   21.436600   44.045700
  H     40.132400   22.572100   42.816100
  C     38.949000   23.471600   44.495800
  H     39.405300   24.487900   44.499500
  H     38.289100   23.519600   43.670600
  C     38.278800   23.104000   45.853000
  H     37.459700   23.775300   46.212900
  H     37.815500   22.100000   45.889000
  H     39.081300   22.984900   46.586900
  S     44.977500   25.235300   45.460300
  C     46.081200   25.293500   46.743900
  C     45.614900   24.763500   47.918900
  C     44.613700   23.783500   47.592300
  C     44.222300   23.927800   46.278700
  H     46.156500   24.853800   48.913000
  C     44.014400   22.806200   48.597200
  H     44.900500   22.357700   49.190600
  H     43.617000   21.887900   48.041100
  C     42.913300   23.379000   49.561800
  H     41.983400   23.626900   49.104000
  H     43.259600   24.320300   50.010100
  C     42.727800   22.468500   50.798200
  H     42.096900   22.808700   51.614600
  H     43.672000   22.205400   51.264600
  H     42.132000   21.626800   50.468500
  H     42.062000   20.390000   43.646000
  H     47.091900   25.720400   46.595500

 Total Charge           Charge          ....    0
 Multiplicity           Mult            ....    1
 Number of Electrons    NEL             ....  134
 Basis Dimension        Dim             ....  322

ORBITAL ENERGIES
----------------

  NO   OCC          E(Eh)            E(eV)
   0   2.0000     -88.964250     -2420.8403
   1   2.0000     -88.960663     -2420.7427
   2   2.0000     -10.321359      -280.8585
   3   2.0000     -10.313112      -280.6340
   4   2.0000     -10.312527      -280.6181
   5   2.0000     -10.307133      -280.4714
   6   2.0000     -10.303907      -280.3836
   7   2.0000     -10.301514      -280.3185
   8   2.0000     -10.299948      -280.2758
   9   2.0000     -10.298041      -280.2239
  10   2.0000     -10.296420      -280.1798
  11   2.0000     -10.294669      -280.1322
  12   2.0000     -10.289372      -279.9881
  13   2.0000     -10.287575      -279.9392
  14   2.0000     -10.287536      -279.9381
  15   2.0000     -10.273918      -279.5675
  16   2.0000      -8.079348      -219.8502
  17   2.0000      -8.077782      -219.8076
  18   2.0000      -6.037612      -164.2918
  19   2.0000      -6.035880      -164.2446
  20   2.0000      -6.033740      -164.1864
  21   2.0000      -6.032374      -164.1492
  22   2.0000      -6.030433      -164.0964
  23   2.0000      -6.028401      -164.0411
  24   2.0000      -1.011636       -27.5280
  25   2.0000      -0.984966       -26.8023
  26   2.0000      -0.906398       -24.6644
  27   2.0000      -0.899479       -24.4761
  28   2.0000      -0.864126       -23.5141
  29   2.0000      -0.852153       -23.1883
  30   2.0000      -0.845144       -22.9975
  31   2.0000      -0.811372       -22.0786
  32   2.0000      -0.779021       -21.1982
  33   2.0000      -0.763169       -20.7669
  34   2.0000      -0.710782       -19.3414
  35   2.0000      -0.700306       -19.0563
  36   2.0000      -0.681451       -18.5432
  37   2.0000      -0.656594       -17.8668
  38   2.0000      -0.638107       -17.3638
  39   2.0000      -0.623154       -16.9569
  40   2.0000      -0.594202       -16.1691
  41   2.0000      -0.562088       -15.2952
  42   2.0000      -0.556888       -15.1537
  43   2.0000      -0.549556       -14.9542
  44   2.0000      -0.529732       -14.4147
  45   2.0000      -0.520807       -14.1719
  46   2.0000      -0.514322       -13.9954
  47   2.0000      -0.508563       -13.8387
  48   2.0000      -0.503625       -13.7043
  49   2.0000      -0.489285       -13.3141
  50   2.0000      -0.483914       -13.1680
  51   2.0000      -0.476058       -12.9542
  52   2.0000      -0.466538       -12.6952
  53   2.0000      -0.466150       -12.6846
  54   2.0000      -0.461255       -12.5514
  55   2.0000      -0.448336       -12.1998
  56   2.0000      -0.447299       -12.1716
  57   2.0000      -0.442122       -12.0308
  58   2.0000      -0.436425       -11.8757
  59   2.0000      -0.424773       -11.5587
  60   2.0000      -0.421066       -11.4578
  61   2.0000      -0.415023       -11.2934
  62   2.0000      -0.406492       -11.0612
  63   2.0000      -0.336048        -9.1443
  64   2.0000      -0.331162        -9.0114
  65   2.0000      -0.310637        -8.4529
  66   2.0000      -0.293633        -7.9902
  67   0.0000       0.046424         1.2633
  68   0.0000       0.054440         1.4814
  69   0.0000       0.103825         2.8252
  70   0.0000       0.125613         3.4181
  71   0.0000       0.131319         3.5734

MULLIKEN ATOMIC CHARGES
-----------------------
   0 S :    0.134108
   1 C :   -0.132262
   2 C :   -0.093052
   3 C :    0.053552
   4 C :   -0.162856
   5 H :   -0.003420
   6 C :    0.010259
   7 H :    0.027185
   8 H :    0.064550
   9 C :   -0.060672
  10 H :    0.037297
  11 H :    0.018297
  12 C :   -0.062361
  13 H :    0.053401
  14 H :    0.027811
  15 H :    0.033022
  16 S :    0.135190
  17 C :   -0.123972
  18 C :   -0.032369
  19 C :   -0.021909
  20 C :   -0.194500
  21 H :    0.044466
  22 C :    0.017937
  23 H :    0.035027
  24 H :    0.043035
  25 C :   -0.036202
  26 H :    0.028997
  27 H :    0.021889
  28 C :   -0.056587
  29 H :    0.026243
  30 H :    0.032154
  31 H :    0.025836
  32 H :    0.040049
  33 H :    0.069858
Sum of atomic charges:   -0.0000000

LOEWDIN ATOMIC CHARGES
----------------------
   0 S :    0.429600
   1 C :   -0.219467
   2 C :   -0.067722
   3 C :   -0.059982
   4 C :   -0.199084
   5 H :    0.025330
   6 C :   -0.033329
   7 H :    0.024608
   8 H :    0.052991
   9 C :   -0.040952
  10 H :    0.027840
  11 H :    0.019575
  12 C :   -0.076426
  13 H :    0.033753
  14 H :    0.027779
  15 H :    0.026868
  16 S :    0.434130
  17 C :   -0.193570
  18 C :   -0.078698
  19 C :   -0.054474
  20 C :   -0.222649
  21 H :    0.043015
  22 C :   -0.039422
  23 H :    0.037307
  24 H :    0.037243
  25 C :   -0.034094
  26 H :    0.021928
  27 H :    0.023264
  28 C :   -0.069728
  29 H :    0.025156
  30 H :    0.023755
  31 H :    0.023911
  32 H :    0.020042
  33 H :    0.031502

  Mayer bond orders larger than 0.100000
B(  0-S ,  1-C ) :   1.1718 B(  0-S ,  4-C ) :   1.1532 B(  1-C ,  2-C ) :   1.5702
B(  1-C , 32-H ) :   0.9725 B(  2-C ,  3-C ) :   1.2679 B(  2-C ,  6-C ) :   1.0182
B(  3-C ,  4-C ) :   1.5720 B(  3-C ,  5-H ) :   0.9952 B(  4-C , 20-C ) :   1.0024
B(  6-C ,  7-H ) :   0.9404 B(  6-C ,  8-H ) :   0.9375 B(  6-C ,  9-C ) :   1.0757
B(  9-C , 10-H ) :   0.9539 B(  9-C , 11-H ) :   0.9549 B(  9-C , 12-C ) :   1.0578
B( 12-C , 13-H ) :   0.9764 B( 12-C , 14-H ) :   0.9734 B( 12-C , 15-H ) :   0.9775
B( 16-S , 17-C ) :   1.1770 B( 16-S , 20-C ) :   1.1461 B( 17-C , 18-C ) :   1.6088
B( 17-C , 33-H ) :   0.9658 B( 18-C , 19-C ) :   1.2137 B( 18-C , 21-H ) :   0.9799
B( 19-C , 20-C ) :   1.6260 B( 19-C , 22-C ) :   1.0503 B( 22-C , 23-H ) :   0.9394
B( 22-C , 24-H ) :   0.9278 B( 22-C , 25-C ) :   1.0473 B( 25-C , 26-H ) :   0.9576
B( 25-C , 27-H ) :   0.9608 B( 25-C , 28-C ) :   1.0739 B( 28-C , 29-H ) :   0.9747
B( 28-C , 30-H ) :   0.9766 B( 28-C , 31-H ) :   0.9765

Dispersion correction           -0.014400257
FINAL SINGLE POINT ENERGY     -1339.854596676692

DIPOLE MOMENT
-------------
                                X             Y             Z
Electronic contribution:     21.93223       3.70252     -15.23394
Nuclear contribution   :    -22.31722      -3.75514      15.44927
                        -----------------------------------------
Total Dipole Moment    :     -0.38499      -0.05262       0.21533
                        -----------------------------------------
Magnitude (a.u.)       :      0.44424
Magnitude (Debye)      :      1.12918

Rotational constants in cm-1:     0.016149     0.009215     0.007463
Rotational constants in MHz :   484.124440   276.262391   223.729018

                             ****ORCA TERMINATED NORMALLY****
TOTAL RUN TIME: 0 days 0 hours 0 minutes 34 seconds 337 msec
