                         Program Version 4.2.1 -  RELEASE  -
|  1> ! wB97X-D3 SP def2-SVP
|  2> %pal
|  3> nprocs 16
|  4> end
|  5>
|  6> * xyz 0 1
|  7> S 	 -1.78294 	 7.36042 	 84.4987
|  8> C 	 -1.22471 	 6.91853 	 82.9321
|  9> C 	 -1.60455 	 7.82103 	 81.9574
| 10> C 	 -2.35816 	 8.9266 	 82.5048
| 11> C 	 -2.39751 	 8.91285 	 83.8768
| 12> H 	 -2.60791 	 9.81242 	 81.9383
| 13> C 	 -1.3675 	 7.56969 	 80.4126
| 14> H 	 -1.67705 	 6.59849 	 80.1809
| 15> H 	 -0.29053 	 7.48928 	 80.177
| 16> C 	 -2.03566 	 8.46908 	 79.4367
| 17> H 	 -2.18323 	 7.95936 	 78.4943
| 18> H 	 -3.03554 	 8.75459 	 79.8481
| 19> C 	 -1.31305 	 9.83897 	 79.159
| 20> H 	 -0.329476 	 9.66079 	 78.8535
| 21> H 	 -1.73549 	 10.313 	 78.2889
| 22> H 	 -1.357 	 10.542 	 80.0006
| 23> S 	 -2.06021 	 10.6353 	 85.9867
| 24> C 	 -3.39483 	 11.6069 	 86.5027
| 25> C 	 -4.60657 	 11.2424 	 85.9014
| 26> C 	 -4.36309 	 10.2615 	 84.8861
| 27> C 	 -3.01511 	 9.86807 	 84.7418
| 28> H 	 -5.60254 	 11.5808 	 86.1656
| 29> C 	 -5.54322 	 9.69627 	 84.0659
| 30> H 	 -5.05033 	 8.92532 	 83.4994
| 31> H 	 -5.88775 	 10.5268 	 83.4897
| 32> C 	 -6.64436 	 8.9914 	 84.8219
| 33> H 	 -7.10573 	 9.61932 	 85.6182
| 34> H 	 -6.30517 	 7.94759 	 85.1676
| 35> C 	 -7.82497 	 8.61509 	 83.828
| 36> H 	 -8.4021 	 9.48387 	 83.5549
| 37> H 	 -8.48927 	 8.02332 	 84.4197
| 38> H 	 -7.58112 	 8.15135 	 82.8095
| 39> H 	 -0.825804 	 5.9245 	 82.7167
| 40> H 	 -3.41803 	 12.3545 	 87.2723
| 41> *
| 42>
| 43>                          ****END OF INPUT****

CARTESIAN COORDINATES (ANGSTROEM)
---------------------------------
  S     -1.782940    7.360420   84.498700
  C     -1.224710    6.918530   82.932100
  C     -1.604550    7.821030   81.957400
  C     -2.358160    8.926600   82.504800
  C     -2.397510    8.912850   83.876800
  H     -2.607910    9.812420   81.938300
  C     -1.367500    7.569690   80.412600
  H     -1.677050    6.598490   80.180900
  H     -0.290530    7.489280   80.177000
  C     -2.035660    8.469080   79.436700
  H     -2.183230    7.959360   78.494300
  H     -3.035540    8.754590   79.848100
  C     -1.313050    9.838970   79.159000
  H     -0.329476    9.660790   78.853500
  H     -1.735490   10.313000   78.288900
  H     -1.357000   10.542000   80.000600
  S     -2.060210   10.635300   85.986700
  C     -3.394830   11.606900   86.502700
  C     -4.606570   11.242400   85.901400
  C     -4.363090   10.261500   84.886100
  C     -3.015110    9.868070   84.741800
  H     -5.602540   11.580800   86.165600
  C     -5.543220    9.696270   84.065900
  H     -5.050330    8.925320   83.499400
  H     -5.887750   10.526800   83.489700
  C     -6.644360    8.991400   84.821900
  H     -7.105730    9.619320   85.618200
  H     -6.305170    7.947590   85.167600
  C     -7.824970    8.615090   83.828000
  H     -8.402100    9.483870   83.554900
  H     -8.489270    8.023320   84.419700
  H     -7.581120    8.151350   82.809500
  H     -0.825804    5.924500   82.716700
  H     -3.418030   12.354500   87.272300

 Total Charge           Charge          ....    0
 Multiplicity           Mult            ....    1
 Number of Electrons    NEL             ....  134
 Basis Dimension        Dim             ....  322

ORBITAL ENERGIES
----------------

  NO   OCC          E(Eh)            E(eV)
   0   2.0000     -88.967742     -2420.9353
   1   2.0000     -88.965257     -2420.8677
   2   2.0000     -10.328881      -281.0631
   3   2.0000     -10.322613      -280.8926
   4   2.0000     -10.318104      -280.7699
   5   2.0000     -10.312226      -280.6099
   6   2.0000     -10.305832      -280.4359
   7   2.0000     -10.302790      -280.3532
   8   2.0000     -10.298103      -280.2256
   9   2.0000     -10.296485      -280.1816
  10   2.0000     -10.294383      -280.1244
  11   2.0000     -10.289997      -280.0051
  12   2.0000     -10.288492      -279.9641
  13   2.0000     -10.283600      -279.8310
  14   2.0000     -10.280243      -279.7396
  15   2.0000     -10.273067      -279.5444
  16   2.0000      -8.082591      -219.9385
  17   2.0000      -8.080173      -219.8727
  18   2.0000      -6.041047      -164.3852
  19   2.0000      -6.038596      -164.3186
  20   2.0000      -6.037011      -164.2754
  21   2.0000      -6.034687      -164.2122
  22   2.0000      -6.033470      -164.1791
  23   2.0000      -6.030974      -164.1111
  24   2.0000      -1.005771       -27.3684
  25   2.0000      -0.982531       -26.7360
  26   2.0000      -0.909925       -24.7603
  27   2.0000      -0.905354       -24.6359
  28   2.0000      -0.872167       -23.7329
  29   2.0000      -0.846835       -23.0435
  30   2.0000      -0.841551       -22.8998
  31   2.0000      -0.814840       -22.1729
  32   2.0000      -0.786574       -21.4038
  33   2.0000      -0.769866       -20.9491
  34   2.0000      -0.708346       -19.2751
  35   2.0000      -0.691795       -18.8247
  36   2.0000      -0.688037       -18.7224
  37   2.0000      -0.658111       -17.9081
  38   2.0000      -0.643007       -17.4971
  39   2.0000      -0.625946       -17.0328
  40   2.0000      -0.590203       -16.0603
  41   2.0000      -0.569905       -15.5079
  42   2.0000      -0.565699       -15.3934
  43   2.0000      -0.547973       -14.9111
  44   2.0000      -0.537500       -14.6261
  45   2.0000      -0.523875       -14.2554
  46   2.0000      -0.515939       -14.0394
  47   2.0000      -0.511247       -13.9117
  48   2.0000      -0.504124       -13.7179
  49   2.0000      -0.500867       -13.6293
  50   2.0000      -0.490367       -13.3436
  51   2.0000      -0.479142       -13.0381
  52   2.0000      -0.467355       -12.7174
  53   2.0000      -0.463994       -12.6259
  54   2.0000      -0.460257       -12.5242
  55   2.0000      -0.452107       -12.3025
  56   2.0000      -0.448249       -12.1975
  57   2.0000      -0.433959       -11.8086
  58   2.0000      -0.430398       -11.7117
  59   2.0000      -0.421935       -11.4814
  60   2.0000      -0.420751       -11.4492
  61   2.0000      -0.417099       -11.3498
  62   2.0000      -0.404446       -11.0055
  63   2.0000      -0.344370        -9.3708
  64   2.0000      -0.329781        -8.9738
  65   2.0000      -0.328684        -8.9440
  66   2.0000      -0.293743        -7.9932
  67   0.0000       0.035137         0.9561
  68   0.0000       0.059078         1.6076
  69   0.0000       0.118038         3.2120
  70   0.0000       0.120321         3.2741
  71   0.0000       0.128918         3.5080

MULLIKEN ATOMIC CHARGES
-----------------------
   0 S :    0.115940
   1 C :   -0.125388
   2 C :   -0.088954
   3 C :    0.032232
   4 C :   -0.168174
   5 H :    0.019823
   6 C :    0.102445
   7 H :    0.010788
   8 H :    0.028348
   9 C :   -0.103464
  10 H :    0.029107
  11 H :    0.032051
  12 C :   -0.031761
  13 H :    0.011618
  14 H :    0.024562
  15 H :    0.040561
  16 S :    0.126777
  17 C :   -0.073417
  18 C :   -0.035458
  19 C :   -0.045532
  20 C :   -0.186245
  21 H :    0.018890
  22 C :    0.104581
  23 H :    0.023134
  24 H :    0.030839
  25 C :   -0.115810
  26 H :    0.039560
  27 H :    0.052992
  28 C :   -0.066440
  29 H :    0.019233
  30 H :    0.029516
  31 H :    0.046222
  32 H :    0.052892
  33 H :    0.048533
Sum of atomic charges:   -0.0000000

LOEWDIN ATOMIC CHARGES
----------------------
   0 S :    0.404053
   1 C :   -0.206583
   2 C :   -0.058688
   3 C :   -0.061292
   4 C :   -0.188014
   5 H :    0.033116
   6 C :   -0.033162
   7 H :    0.024923
   8 H :    0.034578
   9 C :   -0.043150
  10 H :    0.027057
  11 H :    0.027349
  12 C :   -0.061156
  13 H :    0.014659
  14 H :    0.025133
  15 H :    0.025363
  16 S :    0.426702
  17 C :   -0.186390
  18 C :   -0.073210
  19 C :   -0.045426
  20 C :   -0.222804
  21 H :    0.031159
  22 C :   -0.034511
  23 H :    0.031611
  24 H :    0.028553
  25 C :   -0.039190
  26 H :    0.025061
  27 H :    0.038068
  28 C :   -0.073009
  29 H :    0.017376
  30 H :    0.021092
  31 H :    0.034147
  32 H :    0.030386
  33 H :    0.026202

  Mayer bond orders larger than 0.100000
B(  0-S ,  1-C ) :   1.1434 B(  0-S ,  4-C ) :   1.1474 B(  1-C ,  2-C ) :   1.6285
B(  1-C , 32-H ) :   0.9674 B(  2-C ,  3-C ) :   1.2499 B(  2-C ,  6-C ) :   0.9889
B(  3-C ,  4-C ) :   1.5855 B(  3-C ,  5-H ) :   0.9867 B(  4-C , 20-C ) :   1.0545
B(  6-C ,  7-H ) :   0.9377 B(  6-C ,  8-H ) :   0.9365 B(  6-C ,  9-C ) :   1.0925
B(  9-C , 10-H ) :   0.9535 B(  9-C , 11-H ) :   0.9508 B(  9-C , 12-C ) :   1.0776
B( 12-C , 13-H ) :   0.9726 B( 12-C , 14-H ) :   0.9740 B( 12-C , 15-H ) :   0.9780
B( 16-S , 17-C ) :   1.1794 B( 16-S , 20-C ) :   1.1347 B( 17-C , 18-C ) :   1.5739
B( 17-C , 20-C ) :   0.1018 B( 17-C , 33-H ) :   0.9678 B( 18-C , 19-C ) :   1.2708
B( 18-C , 21-H ) :   0.9888 B( 19-C , 20-C ) :   1.5718 B( 19-C , 22-C ) :   1.0220
B( 22-C , 23-H ) :   0.9283 B( 22-C , 24-H ) :   0.9390 B( 22-C , 25-C ) :   1.0813
B( 25-C , 26-H ) :   0.9530 B( 25-C , 27-H ) :   0.9585 B( 25-C , 28-C ) :   1.0680
B( 28-C , 29-H ) :   0.9757 B( 28-C , 30-H ) :   0.9770 B( 28-C , 31-H ) :   0.9756

Dispersion correction           -0.013896483
FINAL SINGLE POINT ENERGY     -1339.869869846370

DIPOLE MOMENT
-------------
                                X             Y             Z
Electronic contribution:     15.23977       0.71239      21.76672
Nuclear contribution   :    -15.68086      -0.74979     -22.25173
                        -----------------------------------------
Total Dipole Moment    :     -0.44109      -0.03740      -0.48502
                        -----------------------------------------
Magnitude (a.u.)       :      0.65666
Magnitude (Debye)      :      1.66909

Rotational constants in cm-1:     0.016199     0.008603     0.007289
Rotational constants in MHz :   485.628185   257.904498   218.530639

                             ****ORCA TERMINATED NORMALLY****
TOTAL RUN TIME: 0 days 0 hours 0 minutes 34 seconds 189 msec
