                         Program Version 4.2.1 -  RELEASE  -
|  1> ! wB97X-D3 SP def2-SVP
|  2> %pal
|  3> nprocs 16
|  4> end
|  5>
|  6> * xyz 0 1
|  7> S 	 -45.7835 	 39.0321 	 82.2939
|  8> C 	 -46.7324 	 38.3571 	 83.6291
|  9> C 	 -46.2993 	 38.8161 	 84.8521
| 10> C 	 -45.0497 	 39.4819 	 84.7184
| 11> C 	 -44.645 	 39.7846 	 83.4207
| 12> H 	 -44.4348 	 39.9447 	 85.5128
| 13> C 	 -46.9993 	 38.4813 	 86.1437
| 14> H 	 -46.2161 	 38.4486 	 86.8647
| 15> H 	 -47.5417 	 37.553 	 85.9962
| 16> C 	 -47.9946 	 39.4809 	 86.6819
| 17> H 	 -47.5951 	 40.5309 	 86.7913
| 18> H 	 -48.7585 	 39.6046 	 85.8935
| 19> C 	 -48.5883 	 38.9419 	 87.9537
| 20> H 	 -49.2951 	 39.7095 	 88.3254
| 21> H 	 -48.9674 	 37.9482 	 87.758
| 22> H 	 -47.7655 	 38.796 	 88.696
| 23> S 	 -43.7937 	 42.086 	 82.1283
| 24> C 	 -42.2289 	 42.6749 	 82.4712
| 25> C 	 -41.4188 	 41.7913 	 83.2059
| 26> C 	 -42.1354 	 40.6119 	 83.5548
| 27> C 	 -43.4958 	 40.656 	 83.1713
| 28> H 	 -40.3607 	 42.0438 	 83.4411
| 29> C 	 -41.5139 	 39.4729 	 84.4237
| 30> H 	 -41.7566 	 39.6009 	 85.4422
| 31> H 	 -40.4631 	 39.7115 	 84.4419
| 32> C 	 -41.7755 	 38.0927 	 84.0298
| 33> H 	 -42.776 	 37.9183 	 84.2033
| 34> H 	 -41.1733 	 37.4624 	 84.6238
| 35> C 	 -41.4577 	 37.7052 	 82.512
| 36> H 	 -42.1446 	 37.0049 	 82.1369
| 37> H 	 -40.4285 	 37.2072 	 82.5232
| 38> H 	 -41.3931 	 38.5394 	 81.8571
| 39> H 	 -47.7578 	 37.8475 	 83.4583
| 40> H 	 -41.9583 	 43.6265 	 82.1289
| 41> *
| 42>
| 43>                          ****END OF INPUT****

CARTESIAN COORDINATES (ANGSTROEM)
---------------------------------
  S    -45.783500   39.032100   82.293900
  C    -46.732400   38.357100   83.629100
  C    -46.299300   38.816100   84.852100
  C    -45.049700   39.481900   84.718400
  C    -44.645000   39.784600   83.420700
  H    -44.434800   39.944700   85.512800
  C    -46.999300   38.481300   86.143700
  H    -46.216100   38.448600   86.864700
  H    -47.541700   37.553000   85.996200
  C    -47.994600   39.480900   86.681900
  H    -47.595100   40.530900   86.791300
  H    -48.758500   39.604600   85.893500
  C    -48.588300   38.941900   87.953700
  H    -49.295100   39.709500   88.325400
  H    -48.967400   37.948200   87.758000
  H    -47.765500   38.796000   88.696000
  S    -43.793700   42.086000   82.128300
  C    -42.228900   42.674900   82.471200
  C    -41.418800   41.791300   83.205900
  C    -42.135400   40.611900   83.554800
  C    -43.495800   40.656000   83.171300
  H    -40.360700   42.043800   83.441100
  C    -41.513900   39.472900   84.423700
  H    -41.756600   39.600900   85.442200
  H    -40.463100   39.711500   84.441900
  C    -41.775500   38.092700   84.029800
  H    -42.776000   37.918300   84.203300
  H    -41.173300   37.462400   84.623800
  C    -41.457700   37.705200   82.512000
  H    -42.144600   37.004900   82.136900
  H    -40.428500   37.207200   82.523200
  H    -41.393100   38.539400   81.857100
  H    -47.757800   37.847500   83.458300
  H    -41.958300   43.626500   82.128900

 Total Charge           Charge          ....    0
 Multiplicity           Mult            ....    1
 Number of Electrons    NEL             ....  134
 Basis Dimension        Dim             ....  322

ORBITAL ENERGIES
----------------

  NO   OCC          E(Eh)            E(eV)
   0   2.0000     -88.968869     -2420.9660
   1   2.0000     -88.966719     -2420.9075
   2   2.0000     -10.332194      -281.1533
   3   2.0000     -10.331565      -281.1362
   4   2.0000     -10.321086      -280.8510
   5   2.0000     -10.315559      -280.7006
   6   2.0000     -10.310359      -280.5591
   7   2.0000     -10.301081      -280.3067
   8   2.0000     -10.301005      -280.3046
   9   2.0000     -10.294981      -280.1407
  10   2.0000     -10.288576      -279.9664
  11   2.0000     -10.286680      -279.9148
  12   2.0000     -10.283633      -279.8319
  13   2.0000     -10.282736      -279.8075
  14   2.0000     -10.268443      -279.4185
  15   2.0000     -10.267354      -279.3889
  16   2.0000      -8.082591      -219.9385
  17   2.0000      -8.081729      -219.9150
  18   2.0000      -6.041200      -164.3894
  19   2.0000      -6.040005      -164.3569
  20   2.0000      -6.037220      -164.2811
  21   2.0000      -6.036158      -164.2522
  22   2.0000      -6.033315      -164.1749
  23   2.0000      -6.032775      -164.1602
  24   2.0000      -1.002020       -27.2664
  25   2.0000      -0.982280       -26.7292
  26   2.0000      -0.921002       -25.0617
  27   2.0000      -0.911720       -24.8092
  28   2.0000      -0.868743       -23.6397
  29   2.0000      -0.848741       -23.0954
  30   2.0000      -0.844841       -22.9893
  31   2.0000      -0.807122       -21.9629
  32   2.0000      -0.785836       -21.3837
  33   2.0000      -0.771820       -21.0023
  34   2.0000      -0.708643       -19.2832
  35   2.0000      -0.695433       -18.9237
  36   2.0000      -0.688074       -18.7234
  37   2.0000      -0.662917       -18.0389
  38   2.0000      -0.636748       -17.3268
  39   2.0000      -0.616410       -16.7734
  40   2.0000      -0.592373       -16.1193
  41   2.0000      -0.574916       -15.6443
  42   2.0000      -0.565630       -15.3916
  43   2.0000      -0.559230       -15.2174
  44   2.0000      -0.547175       -14.8894
  45   2.0000      -0.526370       -14.3232
  46   2.0000      -0.510722       -13.8974
  47   2.0000      -0.503528       -13.7017
  48   2.0000      -0.500325       -13.6145
  49   2.0000      -0.496534       -13.5114
  50   2.0000      -0.487318       -13.2606
  51   2.0000      -0.479345       -13.0436
  52   2.0000      -0.469278       -12.7697
  53   2.0000      -0.465299       -12.6614
  54   2.0000      -0.463524       -12.6131
  55   2.0000      -0.448081       -12.1929
  56   2.0000      -0.444782       -12.1031
  57   2.0000      -0.440770       -11.9940
  58   2.0000      -0.437046       -11.8926
  59   2.0000      -0.421176       -11.4608
  60   2.0000      -0.415892       -11.3170
  61   2.0000      -0.414766       -11.2863
  62   2.0000      -0.407947       -11.1008
  63   2.0000      -0.342598        -9.3226
  64   2.0000      -0.335284        -9.1235
  65   2.0000      -0.330668        -8.9979
  66   2.0000      -0.288724        -7.8566
  67   0.0000       0.028132         0.7655
  68   0.0000       0.060647         1.6503
  69   0.0000       0.114119         3.1053
  70   0.0000       0.121036         3.2935
  71   0.0000       0.129156         3.5145

MULLIKEN ATOMIC CHARGES
-----------------------
   0 S :    0.111852
   1 C :   -0.163282
   2 C :   -0.062689
   3 C :    0.006478
   4 C :   -0.147735
   5 H :    0.024050
   6 C :    0.078274
   7 H :    0.010793
   8 H :    0.022534
   9 C :   -0.099531
  10 H :    0.035661
  11 H :    0.019912
  12 C :   -0.021772
  13 H :    0.050141
  14 H :    0.026342
  15 H :    0.027984
  16 S :    0.111162
  17 C :   -0.073309
  18 C :   -0.053781
  19 C :   -0.047341
  20 C :   -0.191693
  21 H :    0.038099
  22 C :    0.105771
  23 H :    0.022856
  24 H :   -0.005087
  25 C :   -0.017712
  26 H :    0.020447
  27 H :    0.016103
  28 C :   -0.058452
  29 H :    0.029106
  30 H :    0.028312
  31 H :    0.035648
  32 H :    0.082401
  33 H :    0.038457
Sum of atomic charges:   -0.0000000

LOEWDIN ATOMIC CHARGES
----------------------
   0 S :    0.387644
   1 C :   -0.206823
   2 C :   -0.065612
   3 C :   -0.066647
   4 C :   -0.197760
   5 H :    0.035265
   6 C :   -0.026888
   7 H :    0.026043
   8 H :    0.032607
   9 C :   -0.048317
  10 H :    0.028093
  11 H :    0.020656
  12 C :   -0.063902
  13 H :    0.033891
  14 H :    0.023561
  15 H :    0.028129
  16 S :    0.412787
  17 C :   -0.183170
  18 C :   -0.080098
  19 C :   -0.047582
  20 C :   -0.188859
  21 H :    0.040977
  22 C :   -0.025584
  23 H :    0.028637
  24 H :    0.024809
  25 C :   -0.031409
  26 H :    0.014340
  27 H :    0.022622
  28 C :   -0.058410
  29 H :    0.019609
  30 H :    0.030837
  31 H :    0.019310
  32 H :    0.046674
  33 H :    0.014569

  Mayer bond orders larger than 0.100000
B(  0-S ,  1-C ) :   1.1308 B(  0-S ,  4-C ) :   1.1362 B(  1-C ,  2-C ) :   1.6117
B(  1-C , 32-H ) :   0.9507 B(  2-C ,  3-C ) :   1.2455 B(  2-C ,  6-C ) :   1.0219
B(  3-C ,  4-C ) :   1.5697 B(  3-C ,  5-H ) :   0.9841 B(  4-C , 20-C ) :   1.0732
B(  6-C ,  7-H ) :   0.9358 B(  6-C ,  8-H ) :   0.9398 B(  6-C ,  9-C ) :   1.0720
B(  9-C , 10-H ) :   0.9519 B(  9-C , 11-H ) :   0.9495 B(  9-C , 12-C ) :   1.0823
B( 12-C , 13-H ) :   0.9714 B( 12-C , 14-H ) :   0.9697 B( 12-C , 15-H ) :   0.9719
B( 16-S , 17-C ) :   1.1911 B( 16-S , 20-C ) :   1.1372 B( 17-C , 18-C ) :   1.5699
B( 17-C , 20-C ) :   0.1086 B( 17-C , 33-H ) :   0.9742 B( 18-C , 19-C ) :   1.2618
B( 18-C , 21-H ) :   0.9858 B( 19-C , 20-C ) :   1.5614 B( 19-C , 22-C ) :   1.0179
B( 22-C , 23-H ) :   0.9278 B( 22-C , 24-H ) :   0.9267 B( 22-C , 25-C ) :   1.0900
B( 25-C , 26-H ) :   0.9515 B( 25-C , 27-H ) :   0.9517 B( 25-C , 28-C ) :   1.0665
B( 28-C , 29-H ) :   0.9793 B( 28-C , 30-H ) :   0.9807 B( 28-C , 31-H ) :   0.9814

Dispersion correction           -0.014854521
FINAL SINGLE POINT ENERGY     -1339.866180521763

DIPOLE MOMENT
-------------
                                X             Y             Z
Electronic contribution:      0.76029      12.23807     -19.08201
Nuclear contribution   :     -0.70507     -12.24369      19.71345
                        -----------------------------------------
Total Dipole Moment    :      0.05523      -0.00562       0.63144
                        -----------------------------------------
Magnitude (a.u.)       :      0.63387
Magnitude (Debye)      :      1.61118

Rotational constants in cm-1:     0.020313     0.007811     0.007312
Rotational constants in MHz :   608.980955   234.176966   219.203116

                             ****ORCA TERMINATED NORMALLY****
TOTAL RUN TIME: 0 days 0 hours 0 minutes 30 seconds 820 msec
