                         Program Version 4.2.1 -  RELEASE  -
|  1> ! wB97X-D3 SP def2-SVP
|  2> %pal
|  3> nprocs 16
|  4> end
|  5>
|  6> * xyz 0 1
|  7> S 	 -41.6012 	 24.4936 	 77.878
|  8> C 	 -42.6668 	 24.6532 	 79.2048
|  9> C 	 -42.307 	 23.7085 	 80.1591
| 10> C 	 -41.1247 	 22.9718 	 79.8526
| 11> C 	 -40.5398 	 23.3464 	 78.6465
| 12> H 	 -40.7234 	 22.1173 	 80.476
| 13> C 	 -43.1129 	 23.3485 	 81.4309
| 14> H 	 -43.5156 	 22.3549 	 81.1311
| 15> H 	 -43.9863 	 23.9925 	 81.6219
| 16> C 	 -42.3026 	 23.251 	 82.7032
| 17> H 	 -42.858 	 22.8522 	 83.5
| 18> H 	 -41.5576 	 22.489 	 82.6075
| 19> C 	 -41.6349 	 24.4849 	 83.2216
| 20> H 	 -41.1596 	 25.114 	 82.4831
| 21> H 	 -42.3611 	 25.128 	 83.7309
| 22> H 	 -40.907 	 24.2569 	 83.9078
| 23> S 	 -39.5183 	 20.9848 	 77.8134
| 24> C 	 -38.0087 	 20.9621 	 76.9942
| 25> C 	 -37.3379 	 22.1843 	 76.988
| 26> C 	 -38.205 	 23.2434 	 77.3691
| 27> C 	 -39.3804 	 22.7258 	 77.9764
| 28> H 	 -36.4286 	 22.1654 	 76.384
| 29> C 	 -37.6997 	 24.7119 	 77.3664
| 30> H 	 -36.7771 	 24.8014 	 77.9166
| 31> H 	 -38.5029 	 25.1962 	 77.9689
| 32> C 	 -37.9326 	 25.5149 	 76.0089
| 33> H 	 -39.0197 	 25.5332 	 75.8081
| 34> H 	 -37.38 	 24.9142 	 75.2504
| 35> C 	 -37.352 	 26.9494 	 76.0025
| 36> H 	 -37.443 	 27.4832 	 75.0982
| 37> H 	 -36.2156 	 26.9707 	 76.1477
| 38> H 	 -37.8327 	 27.6453 	 76.706
| 39> H 	 -43.5086 	 25.2349 	 79.363
| 40> H 	 -37.5964 	 20.1147 	 76.5307
| 41> *
| 42>
| 43>                          ****END OF INPUT****

CARTESIAN COORDINATES (ANGSTROEM)
---------------------------------
  S    -41.601200   24.493600   77.878000
  C    -42.666800   24.653200   79.204800
  C    -42.307000   23.708500   80.159100
  C    -41.124700   22.971800   79.852600
  C    -40.539800   23.346400   78.646500
  H    -40.723400   22.117300   80.476000
  C    -43.112900   23.348500   81.430900
  H    -43.515600   22.354900   81.131100
  H    -43.986300   23.992500   81.621900
  C    -42.302600   23.251000   82.703200
  H    -42.858000   22.852200   83.500000
  H    -41.557600   22.489000   82.607500
  C    -41.634900   24.484900   83.221600
  H    -41.159600   25.114000   82.483100
  H    -42.361100   25.128000   83.730900
  H    -40.907000   24.256900   83.907800
  S    -39.518300   20.984800   77.813400
  C    -38.008700   20.962100   76.994200
  C    -37.337900   22.184300   76.988000
  C    -38.205000   23.243400   77.369100
  C    -39.380400   22.725800   77.976400
  H    -36.428600   22.165400   76.384000
  C    -37.699700   24.711900   77.366400
  H    -36.777100   24.801400   77.916600
  H    -38.502900   25.196200   77.968900
  C    -37.932600   25.514900   76.008900
  H    -39.019700   25.533200   75.808100
  H    -37.380000   24.914200   75.250400
  C    -37.352000   26.949400   76.002500
  H    -37.443000   27.483200   75.098200
  H    -36.215600   26.970700   76.147700
  H    -37.832700   27.645300   76.706000
  H    -43.508600   25.234900   79.363000
  H    -37.596400   20.114700   76.530700

 Total Charge           Charge          ....    0
 Multiplicity           Mult            ....    1
 Number of Electrons    NEL             ....  134
 Basis Dimension        Dim             ....  322

ORBITAL ENERGIES
----------------

  NO   OCC          E(Eh)            E(eV)
   0   2.0000     -88.970883     -2421.0208
   1   2.0000     -88.966399     -2420.8988
   2   2.0000     -10.332314      -281.1566
   3   2.0000     -10.331666      -281.1389
   4   2.0000     -10.313092      -280.6335
   5   2.0000     -10.312953      -280.6297
   6   2.0000     -10.306497      -280.4540
   7   2.0000     -10.300217      -280.2831
   8   2.0000     -10.296876      -280.1922
   9   2.0000     -10.296346      -280.1778
  10   2.0000     -10.295048      -280.1425
  11   2.0000     -10.294987      -280.1409
  12   2.0000     -10.293622      -280.1037
  13   2.0000     -10.280572      -279.7486
  14   2.0000     -10.273956      -279.5686
  15   2.0000     -10.262801      -279.2650
  16   2.0000      -8.085898      -220.0285
  17   2.0000      -8.081286      -219.9030
  18   2.0000      -6.044151      -164.4697
  19   2.0000      -6.040393      -164.3675
  20   2.0000      -6.039819      -164.3518
  21   2.0000      -6.036880      -164.2719
  22   2.0000      -6.035572      -164.2363
  23   2.0000      -6.032210      -164.1448
  24   2.0000      -1.008359       -27.4388
  25   2.0000      -0.987854       -26.8809
  26   2.0000      -0.913026       -24.8447
  27   2.0000      -0.897036       -24.4096
  28   2.0000      -0.870837       -23.6967
  29   2.0000      -0.850869       -23.1533
  30   2.0000      -0.844953       -22.9923
  31   2.0000      -0.813584       -22.1387
  32   2.0000      -0.784568       -21.3492
  33   2.0000      -0.773161       -21.0388
  34   2.0000      -0.709366       -19.3028
  35   2.0000      -0.698265       -19.0008
  36   2.0000      -0.691132       -18.8067
  37   2.0000      -0.662240       -18.0205
  38   2.0000      -0.631016       -17.1708
  39   2.0000      -0.620338       -16.8802
  40   2.0000      -0.591341       -16.0912
  41   2.0000      -0.570540       -15.5252
  42   2.0000      -0.561662       -15.2836
  43   2.0000      -0.556865       -15.1531
  44   2.0000      -0.538968       -14.6661
  45   2.0000      -0.518292       -14.1034
  46   2.0000      -0.513630       -13.9766
  47   2.0000      -0.509699       -13.8696
  48   2.0000      -0.508558       -13.8386
  49   2.0000      -0.500283       -13.6134
  50   2.0000      -0.484540       -13.1850
  51   2.0000      -0.480863       -13.0850
  52   2.0000      -0.472737       -12.8638
  53   2.0000      -0.463164       -12.6033
  54   2.0000      -0.462026       -12.5724
  55   2.0000      -0.448985       -12.2175
  56   2.0000      -0.443547       -12.0695
  57   2.0000      -0.440080       -11.9752
  58   2.0000      -0.431509       -11.7420
  59   2.0000      -0.428531       -11.6609
  60   2.0000      -0.416055       -11.3214
  61   2.0000      -0.407317       -11.0837
  62   2.0000      -0.402650       -10.9567
  63   2.0000      -0.343779        -9.3547
  64   2.0000      -0.337606        -9.1867
  65   2.0000      -0.325161        -8.8481
  66   2.0000      -0.292874        -7.9695
  67   0.0000       0.032243         0.8774
  68   0.0000       0.066649         1.8136
  69   0.0000       0.108269         2.9461
  70   0.0000       0.114971         3.1285
  71   0.0000       0.132197         3.5973

MULLIKEN ATOMIC CHARGES
-----------------------
   0 S :    0.118775
   1 C :   -0.073663
   2 C :   -0.123096
   3 C :   -0.019194
   4 C :   -0.128216
   5 H :    0.040780
   6 C :    0.068353
   7 H :    0.043899
   8 H :    0.019073
   9 C :   -0.045844
  10 H :    0.008814
  11 H :    0.004334
  12 C :   -0.010906
  13 H :    0.031166
  14 H :    0.018634
  15 H :    0.011884
  16 S :    0.131824
  17 C :   -0.088912
  18 C :   -0.030473
  19 C :   -0.029774
  20 C :   -0.172522
  21 H :    0.031663
  22 C :    0.027330
  23 H :    0.045440
  24 H :    0.024646
  25 C :   -0.071284
  26 H :    0.044100
  27 H :    0.033226
  28 C :   -0.054203
  29 H :    0.022501
  30 H :    0.035416
  31 H :    0.033894
  32 H :    0.014264
  33 H :    0.038071
Sum of atomic charges:    0.0000000

LOEWDIN ATOMIC CHARGES
----------------------
   0 S :    0.432098
   1 C :   -0.211016
   2 C :   -0.063319
   3 C :   -0.082617
   4 C :   -0.202971
   5 H :    0.039850
   6 C :   -0.029106
   7 H :    0.041034
   8 H :    0.027107
   9 C :   -0.045217
  10 H :    0.021630
  11 H :    0.017732
  12 C :   -0.056162
  13 H :    0.026112
  14 H :    0.024780
  15 H :    0.017306
  16 S :    0.433389
  17 C :   -0.183110
  18 C :   -0.076714
  19 C :   -0.047557
  20 C :   -0.203577
  21 H :    0.036607
  22 C :   -0.037150
  23 H :    0.031688
  24 H :    0.032107
  25 C :   -0.035302
  26 H :    0.028669
  27 H :    0.022847
  28 C :   -0.076102
  29 H :    0.020320
  30 H :    0.033465
  31 H :    0.026736
  32 H :    0.019457
  33 H :    0.016988

  Mayer bond orders larger than 0.100000
B(  0-S ,  1-C ) :   1.1399 B(  0-S ,  4-C ) :   1.1678 B(  1-C ,  2-C ) :   1.5856
B(  1-C , 32-H ) :   0.9779 B(  2-C ,  3-C ) :   1.2675 B(  2-C ,  6-C ) :   1.0097
B(  3-C ,  4-C ) :   1.5378 B(  3-C ,  5-H ) :   0.9845 B(  4-C , 20-C ) :   1.0316
B(  6-C ,  7-H ) :   0.9361 B(  6-C ,  8-H ) :   0.9493 B(  6-C ,  9-C ) :   1.0821
B(  9-C , 10-H ) :   0.9460 B(  9-C , 11-H ) :   0.9489 B(  9-C , 12-C ) :   1.0868
B( 12-C , 13-H ) :   0.9736 B( 12-C , 14-H ) :   0.9726 B( 12-C , 15-H ) :   0.9693
B( 16-S , 17-C ) :   1.1767 B( 16-S , 20-C ) :   1.1571 B( 17-C , 18-C ) :   1.6079
B( 17-C , 20-C ) :   0.1017 B( 17-C , 33-H ) :   0.9702 B( 18-C , 19-C ) :   1.2462
B( 18-C , 21-H ) :   0.9805 B( 19-C , 20-C ) :   1.5635 B( 19-C , 22-C ) :   1.0339
B( 22-C , 23-H ) :   0.9548 B( 22-C , 24-H ) :   0.9355 B( 22-C , 25-C ) :   1.0330
B( 25-C , 26-H ) :   0.9560 B( 25-C , 27-H ) :   0.9635 B( 25-C , 28-C ) :   1.0805
B( 28-C , 29-H ) :   0.9731 B( 28-C , 30-H ) :   0.9743 B( 28-C , 31-H ) :   0.9746

Dispersion correction           -0.014102886
FINAL SINGLE POINT ENERGY     -1339.860685412989

DIPOLE MOMENT
-------------
                                X             Y             Z
Electronic contribution:     -3.97050     -14.28023     -10.58043
Nuclear contribution   :      4.06391      14.22894      10.74825
                        -----------------------------------------
Total Dipole Moment    :      0.09340      -0.05129       0.16782
                        -----------------------------------------
Magnitude (a.u.)       :      0.19879
Magnitude (Debye)      :      0.50528

Rotational constants in cm-1:     0.018563     0.008217     0.006778
Rotational constants in MHz :   556.512538   246.343253   203.206586

                             ****ORCA TERMINATED NORMALLY****
TOTAL RUN TIME: 0 days 0 hours 0 minutes 28 seconds 997 msec
