                         Program Version 4.2.1 -  RELEASE  -
|  1> ! wB97X-D3 SP def2-SVP
|  2> %pal
|  3> nprocs 16
|  4> end
|  5>
|  6> * xyz 0 1
|  7> S 	 55.3066 	 18.0663 	 48.1006
|  8> C 	 53.7105 	 18.1125 	 48.825
|  9> C 	 52.728 	 17.9968 	 47.8661
| 10> C 	 53.2611 	 17.6251 	 46.5958
| 11> C 	 54.5845 	 17.3661 	 46.6722
| 12> H 	 52.7313 	 17.4703 	 45.6517
| 13> C 	 51.2355 	 18.0411 	 48.1988
| 14> H 	 50.8005 	 18.6728 	 47.3441
| 15> H 	 51.1536 	 18.6062 	 49.1042
| 16> C 	 50.4389 	 16.6871 	 48.3382
| 17> H 	 50.651 	 16.0967 	 47.383
| 18> H 	 50.8948 	 16.117 	 49.0885
| 19> C 	 49.0037 	 16.9298 	 48.5975
| 20> H 	 48.487 	 15.9503 	 48.4393
| 21> H 	 48.8987 	 17.2627 	 49.6483
| 22> H 	 48.6558 	 17.7316 	 47.9684
| 23> S 	 56.719 	 17.5962 	 44.7641
| 24> C 	 57.1059 	 16.1331 	 43.845
| 25> C 	 56.3408 	 15.0525 	 44.2884
| 26> C 	 55.4162 	 15.3348 	 45.3726
| 27> C 	 55.4278 	 16.688 	 45.7002
| 28> H 	 56.5148 	 14.088 	 43.8617
| 29> C 	 54.4674 	 14.3256 	 46.0087
| 30> H 	 54.1694 	 14.6905 	 46.9728
| 31> H 	 55.0503 	 13.4089 	 46.2322
| 32> C 	 53.2698 	 13.9387 	 45.1706
| 33> H 	 53.7293 	 13.5185 	 44.2872
| 34> H 	 52.6282 	 14.7514 	 44.9055
| 35> C 	 52.3846 	 12.9034 	 45.894
| 36> H 	 53.0528 	 12.2213 	 46.4635
| 37> H 	 51.7222 	 12.4106 	 45.2047
| 38> H 	 51.7927 	 13.4679 	 46.6186
| 39> H 	 53.4095 	 18.3578 	 49.8763
| 40> H 	 57.7042 	 16.1985 	 42.9805
| 41> *
| 42>
| 43>                          ****END OF INPUT****

CARTESIAN COORDINATES (ANGSTROEM)
---------------------------------
  S     55.306600   18.066300   48.100600
  C     53.710500   18.112500   48.825000
  C     52.728000   17.996800   47.866100
  C     53.261100   17.625100   46.595800
  C     54.584500   17.366100   46.672200
  H     52.731300   17.470300   45.651700
  C     51.235500   18.041100   48.198800
  H     50.800500   18.672800   47.344100
  H     51.153600   18.606200   49.104200
  C     50.438900   16.687100   48.338200
  H     50.651000   16.096700   47.383000
  H     50.894800   16.117000   49.088500
  C     49.003700   16.929800   48.597500
  H     48.487000   15.950300   48.439300
  H     48.898700   17.262700   49.648300
  H     48.655800   17.731600   47.968400
  S     56.719000   17.596200   44.764100
  C     57.105900   16.133100   43.845000
  C     56.340800   15.052500   44.288400
  C     55.416200   15.334800   45.372600
  C     55.427800   16.688000   45.700200
  H     56.514800   14.088000   43.861700
  C     54.467400   14.325600   46.008700
  H     54.169400   14.690500   46.972800
  H     55.050300   13.408900   46.232200
  C     53.269800   13.938700   45.170600
  H     53.729300   13.518500   44.287200
  H     52.628200   14.751400   44.905500
  C     52.384600   12.903400   45.894000
  H     53.052800   12.221300   46.463500
  H     51.722200   12.410600   45.204700
  H     51.792700   13.467900   46.618600
  H     53.409500   18.357800   49.876300
  H     57.704200   16.198500   42.980500

 Total Charge           Charge          ....    0
 Multiplicity           Mult            ....    1
 Number of Electrons    NEL             ....  134
 Basis Dimension        Dim             ....  322

ORBITAL ENERGIES
----------------

  NO   OCC          E(Eh)            E(eV)
   0   2.0000     -88.963458     -2420.8188
   1   2.0000     -88.963283     -2420.8140
   2   2.0000     -10.330384      -281.1040
   3   2.0000     -10.324572      -280.9459
   4   2.0000     -10.320323      -280.8303
   5   2.0000     -10.314520      -280.6724
   6   2.0000     -10.308478      -280.5079
   7   2.0000     -10.299669      -280.2682
   8   2.0000     -10.298371      -280.2329
   9   2.0000     -10.298172      -280.2275
  10   2.0000     -10.294044      -280.1152
  11   2.0000     -10.290786      -280.0265
  12   2.0000     -10.288131      -279.9543
  13   2.0000     -10.281972      -279.7867
  14   2.0000     -10.280962      -279.7592
  15   2.0000     -10.279863      -279.7293
  16   2.0000      -8.078478      -219.8266
  17   2.0000      -8.076846      -219.7821
  18   2.0000      -6.036951      -164.2738
  19   2.0000      -6.035442      -164.2327
  20   2.0000      -6.033317      -164.1749
  21   2.0000      -6.031584      -164.1277
  22   2.0000      -6.028818      -164.0525
  23   2.0000      -6.027565      -164.0184
  24   2.0000      -1.005928       -27.3727
  25   2.0000      -0.975552       -26.5461
  26   2.0000      -0.912062       -24.8185
  27   2.0000      -0.911782       -24.8108
  28   2.0000      -0.870583       -23.6898
  29   2.0000      -0.852766       -23.2049
  30   2.0000      -0.844335       -22.9755
  31   2.0000      -0.814171       -22.1547
  32   2.0000      -0.781671       -21.2704
  33   2.0000      -0.766633       -20.8612
  34   2.0000      -0.705008       -19.1842
  35   2.0000      -0.698191       -18.9987
  36   2.0000      -0.695753       -18.9324
  37   2.0000      -0.658946       -17.9308
  38   2.0000      -0.639779       -17.4093
  39   2.0000      -0.617485       -16.8026
  40   2.0000      -0.597504       -16.2589
  41   2.0000      -0.574201       -15.6248
  42   2.0000      -0.569928       -15.5085
  43   2.0000      -0.556100       -15.1323
  44   2.0000      -0.532136       -14.4802
  45   2.0000      -0.526925       -14.3384
  46   2.0000      -0.519249       -14.1295
  47   2.0000      -0.509070       -13.8525
  48   2.0000      -0.503809       -13.7093
  49   2.0000      -0.498350       -13.5608
  50   2.0000      -0.492533       -13.4025
  51   2.0000      -0.478390       -13.0176
  52   2.0000      -0.470400       -12.8002
  53   2.0000      -0.464689       -12.6448
  54   2.0000      -0.457414       -12.4469
  55   2.0000      -0.452895       -12.3239
  56   2.0000      -0.442357       -12.0371
  57   2.0000      -0.439140       -11.9496
  58   2.0000      -0.434979       -11.8364
  59   2.0000      -0.425807       -11.5868
  60   2.0000      -0.421356       -11.4657
  61   2.0000      -0.416774       -11.3410
  62   2.0000      -0.415377       -11.3030
  63   2.0000      -0.335040        -9.1169
  64   2.0000      -0.330968        -9.0061
  65   2.0000      -0.327911        -8.9229
  66   2.0000      -0.296603        -8.0710
  67   0.0000       0.034387         0.9357
  68   0.0000       0.051442         1.3998
  69   0.0000       0.104068         2.8318
  70   0.0000       0.114060         3.1037
  71   0.0000       0.122757         3.3404

MULLIKEN ATOMIC CHARGES
-----------------------
   0 S :    0.118993
   1 C :   -0.124433
   2 C :   -0.093709
   3 C :    0.042148
   4 C :   -0.182084
   5 H :    0.024130
   6 C :    0.018185
   7 H :    0.038861
   8 H :    0.010780
   9 C :   -0.065114
  10 H :    0.031723
  11 H :    0.016290
  12 C :   -0.023809
  13 H :    0.049619
  14 H :    0.034164
  15 H :    0.029696
  16 S :    0.082374
  17 C :   -0.081896
  18 C :   -0.025240
  19 C :   -0.011512
  20 C :   -0.174267
  21 H :    0.013533
  22 C :    0.066727
  23 H :    0.022332
  24 H :    0.026054
  25 C :   -0.059478
  26 H :    0.019540
  27 H :    0.022022
  28 C :   -0.031384
  29 H :    0.028963
  30 H :    0.038709
  31 H :    0.029248
  32 H :    0.054673
  33 H :    0.054160
Sum of atomic charges:    0.0000000

LOEWDIN ATOMIC CHARGES
----------------------
   0 S :    0.396788
   1 C :   -0.203065
   2 C :   -0.069712
   3 C :   -0.057856
   4 C :   -0.187450
   5 H :    0.037532
   6 C :   -0.034448
   7 H :    0.038117
   8 H :    0.020783
   9 C :   -0.042454
  10 H :    0.026398
  11 H :    0.015411
  12 C :   -0.064420
  13 H :    0.036936
  14 H :    0.030460
  15 H :    0.023762
  16 S :    0.352555
  17 C :   -0.165927
  18 C :   -0.067587
  19 C :   -0.044998
  20 C :   -0.177819
  21 H :    0.026324
  22 C :   -0.029197
  23 H :    0.026200
  24 H :    0.034531
  25 C :   -0.035965
  26 H :    0.020445
  27 H :    0.018674
  28 C :   -0.059165
  29 H :    0.026603
  30 H :    0.024508
  31 H :    0.025026
  32 H :    0.037300
  33 H :    0.021712

  Mayer bond orders larger than 0.100000
B(  0-S ,  1-C ) :   1.1217 B(  0-S ,  4-C ) :   1.1343 B(  1-C ,  2-C ) :   1.6476
B(  1-C , 32-H ) :   0.9602 B(  2-C ,  3-C ) :   1.1886 B(  2-C ,  6-C ) :   1.0330
B(  3-C ,  4-C ) :   1.6157 B(  3-C ,  5-H ) :   0.9994 B(  4-C , 20-C ) :   1.0338
B(  6-C ,  7-H ) :   0.9375 B(  6-C ,  8-H ) :   0.9408 B(  6-C ,  9-C ) :   1.0545
B(  9-C , 10-H ) :   0.9532 B(  9-C , 11-H ) :   0.9532 B(  9-C , 12-C ) :   1.0819
B( 12-C , 13-H ) :   0.9702 B( 12-C , 14-H ) :   0.9718 B( 12-C , 15-H ) :   0.9740
B( 16-S , 17-C ) :   1.1406 B( 16-S , 20-C ) :   1.1154 B( 17-C , 18-C ) :   1.6251
B( 17-C , 33-H ) :   0.9735 B( 18-C , 19-C ) :   1.2063 B( 18-C , 21-H ) :   0.9910
B( 19-C , 20-C ) :   1.6277 B( 19-C , 22-C ) :   1.0518 B( 22-C , 23-H ) :   0.9261
B( 22-C , 24-H ) :   0.9270 B( 22-C , 25-C ) :   1.0718 B( 25-C , 26-H ) :   0.9542
B( 25-C , 27-H ) :   0.9541 B( 25-C , 28-C ) :   1.0799 B( 28-C , 29-H ) :   0.9728
B( 28-C , 30-H ) :   0.9743 B( 28-C , 31-H ) :   0.9767

Dispersion correction           -0.014814989
FINAL SINGLE POINT ENERGY     -1339.873304758534

DIPOLE MOMENT
-------------
                                X             Y             Z
Electronic contribution:     28.85169      16.14457      -4.41603
Nuclear contribution   :    -29.51501     -16.60219       4.37299
                        -----------------------------------------
Total Dipole Moment    :     -0.66332      -0.45762      -0.04304
                        -----------------------------------------
Magnitude (a.u.)       :      0.80701
Magnitude (Debye)      :      2.05124

Rotational constants in cm-1:     0.018294     0.009308     0.006755
Rotational constants in MHz :   548.448962   279.045003   202.502584

                             ****ORCA TERMINATED NORMALLY****
TOTAL RUN TIME: 0 days 0 hours 0 minutes 29 seconds 922 msec
