                         Program Version 4.2.1 -  RELEASE  -
|  1> ! wB97X-D3 SP def2-SVP
|  2> %pal
|  3> nprocs 16
|  4> end
|  5>
|  6> * xyz 0 1
|  7> S 	 -9.17236 	 7.6732 	 85.314
|  8> C 	 -9.62831 	 6.94676 	 86.8264
|  9> C 	 -8.67798 	 7.15909 	 87.7788
| 10> C 	 -7.61638 	 8.04203 	 87.3971
| 11> C 	 -7.70329 	 8.40503 	 86.0307
| 12> H 	 -6.8249 	 8.42695 	 88.0181
| 13> C 	 -8.79788 	 6.62041 	 89.2436
| 14> H 	 -9.42624 	 5.76946 	 89.3804
| 15> H 	 -9.28418 	 7.3574 	 89.8347
| 16> C 	 -7.44279 	 6.25658 	 89.8275
| 17> H 	 -7.05197 	 5.62113 	 89.0105
| 18> H 	 -6.83659 	 7.20482 	 89.9045
| 19> C 	 -7.4677 	 5.5531 	 91.2406
| 20> H 	 -8.15664 	 4.69522 	 91.3885
| 21> H 	 -6.4715 	 5.24142 	 91.3745
| 22> H 	 -7.76253 	 6.23209 	 92.0161
| 23> S 	 -6.48836 	 10.9331 	 86.0898
| 24> C 	 -5.53702 	 11.3403 	 84.6837
| 25> C 	 -5.23482 	 10.2327 	 83.8659
| 26> C 	 -5.94797 	 9.06112 	 84.2937
| 27> C 	 -6.78975 	 9.29161 	 85.358
| 28> H 	 -4.61006 	 10.2947 	 83.0139
| 29> C 	 -5.84357 	 7.76912 	 83.4632
| 30> H 	 -5.80344 	 7.97142 	 82.4061
| 31> H 	 -6.84527 	 7.2585 	 83.5798
| 32> C 	 -4.56344 	 6.9119 	 83.9414
| 33> H 	 -3.69412 	 7.40399 	 83.6455
| 34> H 	 -4.51285 	 5.81331 	 83.6155
| 35> C 	 -4.46873 	 6.65695 	 85.4046
| 36> H 	 -3.53014 	 6.14505 	 85.5589
| 37> H 	 -5.3202 	 5.94936 	 85.598
| 38> H 	 -4.5179 	 7.57937 	 86.0036
| 39> H 	 -10.4668 	 6.27758 	 86.8638
| 40> H 	 -5.09528 	 12.282 	 84.385
| 41> *
| 42>
| 43>                          ****END OF INPUT****

CARTESIAN COORDINATES (ANGSTROEM)
---------------------------------
  S     -9.172360    7.673200   85.314000
  C     -9.628310    6.946760   86.826400
  C     -8.677980    7.159090   87.778800
  C     -7.616380    8.042030   87.397100
  C     -7.703290    8.405030   86.030700
  H     -6.824900    8.426950   88.018100
  C     -8.797880    6.620410   89.243600
  H     -9.426240    5.769460   89.380400
  H     -9.284180    7.357400   89.834700
  C     -7.442790    6.256580   89.827500
  H     -7.051970    5.621130   89.010500
  H     -6.836590    7.204820   89.904500
  C     -7.467700    5.553100   91.240600
  H     -8.156640    4.695220   91.388500
  H     -6.471500    5.241420   91.374500
  H     -7.762530    6.232090   92.016100
  S     -6.488360   10.933100   86.089800
  C     -5.537020   11.340300   84.683700
  C     -5.234820   10.232700   83.865900
  C     -5.947970    9.061120   84.293700
  C     -6.789750    9.291610   85.358000
  H     -4.610060   10.294700   83.013900
  C     -5.843570    7.769120   83.463200
  H     -5.803440    7.971420   82.406100
  H     -6.845270    7.258500   83.579800
  C     -4.563440    6.911900   83.941400
  H     -3.694120    7.403990   83.645500
  H     -4.512850    5.813310   83.615500
  C     -4.468730    6.656950   85.404600
  H     -3.530140    6.145050   85.558900
  H     -5.320200    5.949360   85.598000
  H     -4.517900    7.579370   86.003600
  H    -10.466800    6.277580   86.863800
  H     -5.095280   12.282000   84.385000

 Total Charge           Charge          ....    0
 Multiplicity           Mult            ....    1
 Number of Electrons    NEL             ....  134
 Basis Dimension        Dim             ....  322

ORBITAL ENERGIES
----------------

  NO   OCC          E(Eh)            E(eV)
   0   2.0000     -88.971397     -2421.0348
   1   2.0000     -88.967167     -2420.9197
   2   2.0000     -10.334174      -281.2072
   3   2.0000     -10.329050      -281.0677
   4   2.0000     -10.321645      -280.8663
   5   2.0000     -10.311408      -280.5877
   6   2.0000     -10.306085      -280.4428
   7   2.0000     -10.302912      -280.3565
   8   2.0000     -10.299056      -280.2516
   9   2.0000     -10.298299      -280.2310
  10   2.0000     -10.294441      -280.1260
  11   2.0000     -10.291693      -280.0512
  12   2.0000     -10.285437      -279.8810
  13   2.0000     -10.283947      -279.8404
  14   2.0000     -10.278905      -279.7032
  15   2.0000     -10.268989      -279.4334
  16   2.0000      -8.084807      -219.9988
  17   2.0000      -8.081132      -219.8988
  18   2.0000      -6.043427      -164.4500
  19   2.0000      -6.039708      -164.3488
  20   2.0000      -6.039682      -164.3481
  21   2.0000      -6.035660      -164.2386
  22   2.0000      -6.035320      -164.2294
  23   2.0000      -6.031980      -164.1385
  24   2.0000      -1.000120       -27.2147
  25   2.0000      -0.978882       -26.6367
  26   2.0000      -0.905993       -24.6533
  27   2.0000      -0.902350       -24.5542
  28   2.0000      -0.869467       -23.6594
  29   2.0000      -0.852549       -23.1991
  30   2.0000      -0.841730       -22.9046
  31   2.0000      -0.809540       -22.0287
  32   2.0000      -0.783542       -21.3213
  33   2.0000      -0.771659       -20.9979
  34   2.0000      -0.708961       -19.2918
  35   2.0000      -0.688207       -18.7271
  36   2.0000      -0.682384       -18.5686
  37   2.0000      -0.665412       -18.1068
  38   2.0000      -0.642549       -17.4846
  39   2.0000      -0.614763       -16.7285
  40   2.0000      -0.588599       -16.0166
  41   2.0000      -0.566905       -15.4263
  42   2.0000      -0.562164       -15.2972
  43   2.0000      -0.555578       -15.1180
  44   2.0000      -0.547310       -14.8931
  45   2.0000      -0.527250       -14.3472
  46   2.0000      -0.516798       -14.0628
  47   2.0000      -0.512792       -13.9538
  48   2.0000      -0.498798       -13.5730
  49   2.0000      -0.493926       -13.4404
  50   2.0000      -0.489610       -13.3230
  51   2.0000      -0.480243       -13.0681
  52   2.0000      -0.470345       -12.7987
  53   2.0000      -0.461294       -12.5525
  54   2.0000      -0.453936       -12.3522
  55   2.0000      -0.447021       -12.1640
  56   2.0000      -0.440842       -11.9959
  57   2.0000      -0.432397       -11.7661
  58   2.0000      -0.429011       -11.6740
  59   2.0000      -0.420958       -11.4549
  60   2.0000      -0.418997       -11.4015
  61   2.0000      -0.411276       -11.1914
  62   2.0000      -0.409163       -11.1339
  63   2.0000      -0.342909        -9.3310
  64   2.0000      -0.333527        -9.0757
  65   2.0000      -0.331123        -9.0103
  66   2.0000      -0.291837        -7.9413
  67   0.0000       0.028385         0.7724
  68   0.0000       0.054893         1.4937
  69   0.0000       0.101670         2.7666
  70   0.0000       0.114767         3.1230
  71   0.0000       0.130967         3.5638

MULLIKEN ATOMIC CHARGES
-----------------------
   0 S :    0.105612
   1 C :   -0.131545
   2 C :   -0.061221
   3 C :    0.008646
   4 C :   -0.148326
   5 H :    0.019315
   6 C :    0.108469
   7 H :    0.002902
   8 H :    0.023835
   9 C :   -0.162335
  10 H :    0.045585
  11 H :    0.044794
  12 C :   -0.013718
  13 H :    0.033133
  14 H :    0.031969
  15 H :    0.028038
  16 S :    0.116065
  17 C :   -0.075538
  18 C :   -0.029166
  19 C :   -0.048039
  20 C :   -0.173745
  21 H :    0.009127
  22 C :    0.077601
  23 H :    0.030346
  24 H :    0.027163
  25 C :   -0.077938
  26 H :    0.013836
  27 H :    0.039259
  28 C :   -0.062332
  29 H :    0.029542
  30 H :    0.040898
  31 H :    0.046249
  32 H :    0.048408
  33 H :    0.053109
Sum of atomic charges:   -0.0000000

LOEWDIN ATOMIC CHARGES
----------------------
   0 S :    0.398805
   1 C :   -0.196617
   2 C :   -0.061393
   3 C :   -0.060019
   4 C :   -0.180135
   5 H :    0.029272
   6 C :   -0.030081
   7 H :    0.021813
   8 H :    0.023777
   9 C :   -0.045327
  10 H :    0.029423
  11 H :    0.027735
  12 C :   -0.062275
  13 H :    0.028208
  14 H :    0.023688
  15 H :    0.023779
  16 S :    0.384097
  17 C :   -0.181130
  18 C :   -0.065863
  19 C :   -0.048622
  20 C :   -0.183710
  21 H :    0.025112
  22 C :   -0.030986
  23 H :    0.027543
  24 H :    0.028849
  25 C :   -0.040295
  26 H :    0.009556
  27 H :    0.036672
  28 C :   -0.067246
  29 H :    0.024363
  30 H :    0.031702
  31 H :    0.022122
  32 H :    0.026763
  33 H :    0.030420

  Mayer bond orders larger than 0.100000
B(  0-S ,  1-C ) :   1.1357 B(  0-S ,  4-C ) :   1.1458 B(  1-C ,  2-C ) :   1.6195
B(  1-C , 32-H ) :   0.9727 B(  2-C ,  3-C ) :   1.2342 B(  2-C ,  6-C ) :   1.0117
B(  3-C ,  4-C ) :   1.5541 B(  3-C ,  5-H ) :   0.9922 B(  4-C , 20-C ) :   1.0757
B(  6-C ,  7-H ) :   0.9455 B(  6-C ,  8-H ) :   0.9371 B(  6-C ,  9-C ) :   1.0572
B(  9-C , 10-H ) :   0.9665 B(  9-C , 11-H ) :   0.9474 B(  9-C , 12-C ) :   1.0735
B( 12-C , 13-H ) :   0.9760 B( 12-C , 14-H ) :   0.9753 B( 12-C , 15-H ) :   0.9738
B( 16-S , 17-C ) :   1.1497 B( 16-S , 20-C ) :   1.1008 B( 17-C , 18-C ) :   1.6245
B( 17-C , 33-H ) :   0.9643 B( 18-C , 19-C ) :   1.2188 B( 18-C , 21-H ) :   0.9924
B( 19-C , 20-C ) :   1.6104 B( 19-C , 22-C ) :   1.0302 B( 22-C , 23-H ) :   0.9492
B( 22-C , 24-H ) :   0.9365 B( 22-C , 25-C ) :   1.0368 B( 25-C , 26-H ) :   0.9612
B( 25-C , 27-H ) :   0.9646 B( 25-C , 28-C ) :   1.0788 B( 28-C , 29-H ) :   0.9718
B( 28-C , 30-H ) :   0.9804 B( 28-C , 31-H ) :   0.9680

Dispersion correction           -0.015268338
FINAL SINGLE POINT ENERGY     -1339.863169508049

DIPOLE MOMENT
-------------
                                X             Y             Z
Electronic contribution:    -10.01922      18.33606     -12.16549
Nuclear contribution   :     10.30655     -18.61716      12.29650
                        -----------------------------------------
Total Dipole Moment    :      0.28733      -0.28110       0.13101
                        -----------------------------------------
Magnitude (a.u.)       :      0.42277
Magnitude (Debye)      :      1.07460

Rotational constants in cm-1:     0.019233     0.008096     0.007857
Rotational constants in MHz :   576.602104   242.713342   235.552096

                             ****ORCA TERMINATED NORMALLY****
TOTAL RUN TIME: 0 days 0 hours 0 minutes 34 seconds 38 msec
