                         Program Version 4.2.1 -  RELEASE  -
|  1> ! wB97X-D3 SP def2-SVP
|  2> %pal
|  3> nprocs 16
|  4> end
|  5>
|  6> * xyz 0 1
|  7> S 	 -5.11879 	 -9.57004 	 83.8921
|  8> C 	 -5.31418 	 -7.82134 	 83.5849
|  9> C 	 -6.53087 	 -7.31014 	 84.0794
| 10> C 	 -7.32045 	 -8.38388 	 84.5356
| 11> C 	 -6.71203 	 -9.62342 	 84.6276
| 12> H 	 -8.34983 	 -8.21983 	 84.9557
| 13> C 	 -7.16185 	 -5.97668 	 84.0951
| 14> H 	 -7.12563 	 -5.61446 	 85.1163
| 15> H 	 -8.18183 	 -6.05938 	 83.7048
| 16> C 	 -6.48502 	 -4.94597 	 83.1853
| 17> H 	 -5.44376 	 -4.9462 	 83.4651
| 18> H 	 -6.50994 	 -5.30674 	 82.1735
| 19> C 	 -6.99767 	 -3.40605 	 83.3001
| 20> H 	 -6.90903 	 -3.18249 	 84.3613
| 21> H 	 -6.31681 	 -2.72781 	 82.8621
| 22> H 	 -8.0848 	 -3.36096 	 83.1079
| 23> S 	 -6.0874 	 -11.638 	 86.3701
| 24> C 	 -7.36721 	 -12.5135 	 87.0197
| 25> C 	 -8.5682 	 -12.41 	 86.3864
| 26> C 	 -8.46724 	 -11.3712 	 85.3955
| 27> C 	 -7.19542 	 -10.7627 	 85.3467
| 28> H 	 -9.45024 	 -12.8259 	 86.8148
| 29> C 	 -9.62689 	 -10.7962 	 84.5607
| 30> H 	 -9.35075 	 -11.0487 	 83.5507
| 31> H 	 -9.65177 	 -9.66954 	 84.5569
| 32> C 	 -11.1005 	 -11.2642 	 84.8435
| 33> H 	 -11.2937 	 -11.1078 	 85.9185
| 34> H 	 -11.1763 	 -12.3239 	 84.7022
| 35> C 	 -12.1153 	 -10.5852 	 84.0342
| 36> H 	 -13.0077 	 -11.1033 	 84.3048
| 37> H 	 -12.0355 	 -10.5115 	 82.9238
| 38> H 	 -12.3102 	 -9.62903 	 84.4047
| 39> H 	 -4.50821 	 -7.21405 	 83.1536
| 40> H 	 -7.23774 	 -13.0701 	 87.9227
| 41> *
| 42>
| 43>                          ****END OF INPUT****

CARTESIAN COORDINATES (ANGSTROEM)
---------------------------------
  S     -5.118790   -9.570040   83.892100
  C     -5.314180   -7.821340   83.584900
  C     -6.530870   -7.310140   84.079400
  C     -7.320450   -8.383880   84.535600
  C     -6.712030   -9.623420   84.627600
  H     -8.349830   -8.219830   84.955700
  C     -7.161850   -5.976680   84.095100
  H     -7.125630   -5.614460   85.116300
  H     -8.181830   -6.059380   83.704800
  C     -6.485020   -4.945970   83.185300
  H     -5.443760   -4.946200   83.465100
  H     -6.509940   -5.306740   82.173500
  C     -6.997670   -3.406050   83.300100
  H     -6.909030   -3.182490   84.361300
  H     -6.316810   -2.727810   82.862100
  H     -8.084800   -3.360960   83.107900
  S     -6.087400  -11.638000   86.370100
  C     -7.367210  -12.513500   87.019700
  C     -8.568200  -12.410000   86.386400
  C     -8.467240  -11.371200   85.395500
  C     -7.195420  -10.762700   85.346700
  H     -9.450240  -12.825900   86.814800
  C     -9.626890  -10.796200   84.560700
  H     -9.350750  -11.048700   83.550700
  H     -9.651770   -9.669540   84.556900
  C    -11.100500  -11.264200   84.843500
  H    -11.293700  -11.107800   85.918500
  H    -11.176300  -12.323900   84.702200
  C    -12.115300  -10.585200   84.034200
  H    -13.007700  -11.103300   84.304800
  H    -12.035500  -10.511500   82.923800
  H    -12.310200   -9.629030   84.404700
  H     -4.508210   -7.214050   83.153600
  H     -7.237740  -13.070100   87.922700

 Total Charge           Charge          ....    0
 Multiplicity           Mult            ....    1
 Number of Electrons    NEL             ....  134
 Basis Dimension        Dim             ....  322

ORBITAL ENERGIES
----------------

  NO   OCC          E(Eh)            E(eV)
   0   2.0000     -88.967641     -2420.9326
   1   2.0000     -88.964201     -2420.8390
   2   2.0000     -10.327033      -281.0129
   3   2.0000     -10.320870      -280.8452
   4   2.0000     -10.319724      -280.8140
   5   2.0000     -10.308259      -280.5020
   6   2.0000     -10.307239      -280.4742
   7   2.0000     -10.301214      -280.3103
   8   2.0000     -10.292833      -280.0822
   9   2.0000     -10.291938      -280.0579
  10   2.0000     -10.291713      -280.0517
  11   2.0000     -10.289951      -280.0038
  12   2.0000     -10.286974      -279.9228
  13   2.0000     -10.285281      -279.8767
  14   2.0000     -10.284465      -279.8545
  15   2.0000     -10.270680      -279.4794
  16   2.0000      -8.081643      -219.9127
  17   2.0000      -8.080673      -219.8863
  18   2.0000      -6.040235      -164.3631
  19   2.0000      -6.038877      -164.3262
  20   2.0000      -6.036351      -164.2575
  21   2.0000      -6.035025      -164.2214
  22   2.0000      -6.032268      -164.1464
  23   2.0000      -6.031559      -164.1271
  24   2.0000      -1.010131       -27.4871
  25   2.0000      -0.984809       -26.7980
  26   2.0000      -0.914132       -24.8748
  27   2.0000      -0.910811       -24.7844
  28   2.0000      -0.867810       -23.6143
  29   2.0000      -0.859920       -23.3996
  30   2.0000      -0.846253       -23.0277
  31   2.0000      -0.809989       -22.0409
  32   2.0000      -0.786481       -21.4012
  33   2.0000      -0.770839       -20.9756
  34   2.0000      -0.715139       -19.4599
  35   2.0000      -0.705051       -19.1854
  36   2.0000      -0.690900       -18.8004
  37   2.0000      -0.653839       -17.7919
  38   2.0000      -0.633222       -17.2308
  39   2.0000      -0.615564       -16.7503
  40   2.0000      -0.598932       -16.2978
  41   2.0000      -0.577974       -15.7275
  42   2.0000      -0.569207       -15.4889
  43   2.0000      -0.565252       -15.3813
  44   2.0000      -0.529835       -14.4175
  45   2.0000      -0.524585       -14.2747
  46   2.0000      -0.519919       -14.1477
  47   2.0000      -0.510576       -13.8935
  48   2.0000      -0.501713       -13.6523
  49   2.0000      -0.496019       -13.4974
  50   2.0000      -0.493302       -13.4234
  51   2.0000      -0.486068       -13.2266
  52   2.0000      -0.480810       -13.0835
  53   2.0000      -0.466212       -12.6863
  54   2.0000      -0.459687       -12.5087
  55   2.0000      -0.453583       -12.3426
  56   2.0000      -0.438406       -11.9296
  57   2.0000      -0.433661       -11.8005
  58   2.0000      -0.430700       -11.7199
  59   2.0000      -0.425519       -11.5790
  60   2.0000      -0.423899       -11.5349
  61   2.0000      -0.420782       -11.4501
  62   2.0000      -0.408150       -11.1063
  63   2.0000      -0.350862        -9.5475
  64   2.0000      -0.333109        -9.0644
  65   2.0000      -0.330038        -8.9808
  66   2.0000      -0.278628        -7.5819
  67   0.0000       0.028025         0.7626
  68   0.0000       0.068735         1.8704
  69   0.0000       0.108490         2.9522
  70   0.0000       0.122086         3.3221
  71   0.0000       0.138507         3.7690

MULLIKEN ATOMIC CHARGES
-----------------------
   0 S :    0.107456
   1 C :   -0.150797
   2 C :   -0.059466
   3 C :   -0.034512
   4 C :   -0.128592
   5 H :    0.031233
   6 C :    0.069892
   7 H :    0.042398
   8 H :    0.041138
   9 C :   -0.127559
  10 H :    0.021528
  11 H :    0.031527
  12 C :   -0.019149
  13 H :    0.014923
  14 H :    0.037551
  15 H :    0.043377
  16 S :    0.121586
  17 C :   -0.080947
  18 C :   -0.023758
  19 C :   -0.034527
  20 C :   -0.154026
  21 H :    0.018044
  22 C :    0.029580
  23 H :    0.031449
  24 H :    0.029065
  25 C :   -0.086395
  26 H :    0.028827
  27 H :    0.025268
  28 C :    0.003582
  29 H :    0.015991
  30 H :    0.044456
  31 H :    0.009130
  32 H :    0.055207
  33 H :    0.046521
Sum of atomic charges:   -0.0000000

LOEWDIN ATOMIC CHARGES
----------------------
   0 S :    0.387877
   1 C :   -0.197193
   2 C :   -0.060534
   3 C :   -0.069808
   4 C :   -0.190860
   5 H :    0.035142
   6 C :   -0.032183
   7 H :    0.037632
   8 H :    0.037063
   9 C :   -0.039452
  10 H :    0.017287
  11 H :    0.018846
  12 C :   -0.062201
  13 H :    0.024183
  14 H :    0.023952
  15 H :    0.029859
  16 S :    0.434806
  17 C :   -0.192215
  18 C :   -0.075623
  19 C :   -0.045583
  20 C :   -0.209505
  21 H :    0.031104
  22 C :   -0.038925
  23 H :    0.032591
  24 H :    0.032428
  25 C :   -0.042480
  26 H :    0.027616
  27 H :    0.018627
  28 C :   -0.063108
  29 H :    0.029802
  30 H :    0.033105
  31 H :    0.017605
  32 H :    0.027418
  33 H :    0.022728

  Mayer bond orders larger than 0.100000
B(  0-S ,  1-C ) :   1.1228 B(  0-S ,  4-C ) :   1.1380 B(  1-C ,  2-C ) :   1.5926
B(  1-C ,  4-C ) :   0.1014 B(  1-C , 32-H ) :   0.9648 B(  2-C ,  3-C ) :   1.2688
B(  2-C ,  6-C ) :   1.0232 B(  3-C ,  4-C ) :   1.5646 B(  3-C ,  5-H ) :   0.9728
B(  4-C , 20-C ) :   1.0844 B(  6-C ,  7-H ) :   0.9227 B(  6-C ,  8-H ) :   0.9447
B(  6-C ,  9-C ) :   1.0771 B(  9-C , 10-H ) :   0.9506 B(  9-C , 11-H ) :   0.9637
B(  9-C , 12-C ) :   1.0715 B( 12-C , 13-H ) :   0.9743 B( 12-C , 14-H ) :   0.9760
B( 12-C , 15-H ) :   0.9779 B( 16-S , 17-C ) :   1.1917 B( 16-S , 20-C ) :   1.1334
B( 17-C , 18-C ) :   1.5959 B( 17-C , 33-H ) :   0.9630 B( 18-C , 19-C ) :   1.2467
B( 18-C , 21-H ) :   0.9941 B( 19-C , 20-C ) :   1.5788 B( 19-C , 22-C ) :   1.0238
B( 22-C , 23-H ) :   0.9205 B( 22-C , 24-H ) :   0.9438 B( 22-C , 25-C ) :   1.0739
B( 25-C , 26-H ) :   0.9500 B( 25-C , 27-H ) :   0.9526 B( 25-C , 28-C ) :   1.0994
B( 28-C , 29-H ) :   0.9632 B( 28-C , 30-H ) :   0.9738 B( 28-C , 31-H ) :   0.9650

Dispersion correction           -0.013270501
FINAL SINGLE POINT ENERGY     -1339.860824611662

DIPOLE MOMENT
-------------
                                X             Y             Z
Electronic contribution:     21.93227     -19.80200       7.17422
Nuclear contribution   :    -22.57132      20.20391      -6.97799
                        -----------------------------------------
Total Dipole Moment    :     -0.63905       0.40191       0.19622
                        -----------------------------------------
Magnitude (a.u.)       :      0.78001
Magnitude (Debye)      :      1.98263

Rotational constants in cm-1:     0.017551     0.007929     0.005877
Rotational constants in MHz :   526.174013   237.711383   176.201564

                             ****ORCA TERMINATED NORMALLY****
TOTAL RUN TIME: 0 days 0 hours 0 minutes 32 seconds 999 msec
