                         Program Version 4.2.1 -  RELEASE  -
|  1> ! wB97X-D3 SP def2-SVP
|  2> %pal
|  3> nprocs 16
|  4> end
|  5>
|  6> * xyz 0 1
|  7> S 	 17.2462 	 4.45609 	 88.6878
|  8> C 	 18.4186 	 5.77777 	 88.7307
|  9> C 	 18.3219 	 6.57932 	 87.5819
| 10> C 	 17.2858 	 6.13973 	 86.6917
| 11> C 	 16.606 	 5.03455 	 87.147
| 12> H 	 17.0068 	 6.63493 	 85.7611
| 13> C 	 19.1975 	 7.76882 	 87.1739
| 14> H 	 20.0276 	 7.7452 	 87.8444
| 15> H 	 18.7143 	 8.75001 	 87.4259
| 16> C 	 19.7154 	 7.7299 	 85.721
| 17> H 	 20.1953 	 6.75194 	 85.6858
| 18> H 	 18.8854 	 7.72521 	 85.0224
| 19> C 	 20.7232 	 8.89101 	 85.3261
| 20> H 	 21.3341 	 8.6378 	 84.4947
| 21> H 	 20.1697 	 9.79146 	 85.0333
| 22> H 	 21.3413 	 9.22558 	 86.133
| 23> S 	 15.5764 	 2.7214 	 86.0731
| 24> C 	 14.1532 	 2.84864 	 85.0679
| 25> C 	 13.526 	 4.06135 	 85.205
| 26> C 	 14.3149 	 4.99201 	 85.9472
| 27> C 	 15.4511 	 4.39396 	 86.5225
| 28> H 	 12.645 	 4.26087 	 84.6444
| 29> C 	 13.9447 	 6.4105 	 86.1755
| 30> H 	 14.7033 	 6.85039 	 86.8626
| 31> H 	 12.9207 	 6.49901 	 86.6342
| 32> C 	 13.9998 	 7.37233 	 84.8948
| 33> H 	 13.0505 	 7.23089 	 84.3508
| 34> H 	 14.761 	 6.95846 	 84.1751
| 35> C 	 14.1539 	 8.80789 	 85.2561
| 36> H 	 14.1965 	 9.4462 	 84.3286
| 37> H 	 14.9328 	 9.12971 	 85.9469
| 38> H 	 13.2617 	 9.11758 	 85.8085
| 39> H 	 19.0463 	 6.1013 	 89.5354
| 40> H 	 13.7807 	 2.0218 	 84.4976
| 41> *
| 42>
| 43>                          ****END OF INPUT****

CARTESIAN COORDINATES (ANGSTROEM)
---------------------------------
  S     17.246200    4.456090   88.687800
  C     18.418600    5.777770   88.730700
  C     18.321900    6.579320   87.581900
  C     17.285800    6.139730   86.691700
  C     16.606000    5.034550   87.147000
  H     17.006800    6.634930   85.761100
  C     19.197500    7.768820   87.173900
  H     20.027600    7.745200   87.844400
  H     18.714300    8.750010   87.425900
  C     19.715400    7.729900   85.721000
  H     20.195300    6.751940   85.685800
  H     18.885400    7.725210   85.022400
  C     20.723200    8.891010   85.326100
  H     21.334100    8.637800   84.494700
  H     20.169700    9.791460   85.033300
  H     21.341300    9.225580   86.133000
  S     15.576400    2.721400   86.073100
  C     14.153200    2.848640   85.067900
  C     13.526000    4.061350   85.205000
  C     14.314900    4.992010   85.947200
  C     15.451100    4.393960   86.522500
  H     12.645000    4.260870   84.644400
  C     13.944700    6.410500   86.175500
  H     14.703300    6.850390   86.862600
  H     12.920700    6.499010   86.634200
  C     13.999800    7.372330   84.894800
  H     13.050500    7.230890   84.350800
  H     14.761000    6.958460   84.175100
  C     14.153900    8.807890   85.256100
  H     14.196500    9.446200   84.328600
  H     14.932800    9.129710   85.946900
  H     13.261700    9.117580   85.808500
  H     19.046300    6.101300   89.535400
  H     13.780700    2.021800   84.497600

 Total Charge           Charge          ....    0
 Multiplicity           Mult            ....    1
 Number of Electrons    NEL             ....  134
 Basis Dimension        Dim             ....  322

ORBITAL ENERGIES
----------------

  NO   OCC          E(Eh)            E(eV)
   0   2.0000     -88.968591     -2420.9584
   1   2.0000     -88.965121     -2420.8640
   2   2.0000     -10.330065      -281.0954
   3   2.0000     -10.324539      -280.9450
   4   2.0000     -10.316698      -280.7316
   5   2.0000     -10.316546      -280.7275
   6   2.0000     -10.304048      -280.3874
   7   2.0000     -10.303772      -280.3799
   8   2.0000     -10.294298      -280.1221
   9   2.0000     -10.294230      -280.1202
  10   2.0000     -10.293458      -280.0992
  11   2.0000     -10.293222      -280.0928
  12   2.0000     -10.292517      -280.0736
  13   2.0000     -10.292052      -280.0610
  14   2.0000     -10.281959      -279.7863
  15   2.0000     -10.279534      -279.7204
  16   2.0000      -8.082565      -219.9378
  17   2.0000      -8.080370      -219.8780
  18   2.0000      -6.041175      -164.3887
  19   2.0000      -6.038777      -164.3235
  20   2.0000      -6.037158      -164.2794
  21   2.0000      -6.034790      -164.2150
  22   2.0000      -6.033290      -164.1742
  23   2.0000      -6.031226      -164.1180
  24   2.0000      -1.005766       -27.3683
  25   2.0000      -0.981405       -26.7054
  26   2.0000      -0.906015       -24.6539
  27   2.0000      -0.905505       -24.6400
  28   2.0000      -0.868115       -23.6226
  29   2.0000      -0.855423       -23.2773
  30   2.0000      -0.843344       -22.9486
  31   2.0000      -0.815648       -22.1949
  32   2.0000      -0.782048       -21.2806
  33   2.0000      -0.767692       -20.8900
  34   2.0000      -0.710995       -19.3472
  35   2.0000      -0.698373       -19.0037
  36   2.0000      -0.694279       -18.8923
  37   2.0000      -0.659610       -17.9489
  38   2.0000      -0.638764       -17.3817
  39   2.0000      -0.621659       -16.9162
  40   2.0000      -0.596528       -16.2324
  41   2.0000      -0.566563       -15.4170
  42   2.0000      -0.562839       -15.3156
  43   2.0000      -0.557129       -15.1603
  44   2.0000      -0.526140       -14.3170
  45   2.0000      -0.523388       -14.2421
  46   2.0000      -0.516050       -14.0424
  47   2.0000      -0.507176       -13.8010
  48   2.0000      -0.502717       -13.6796
  49   2.0000      -0.500953       -13.6316
  50   2.0000      -0.491948       -13.3866
  51   2.0000      -0.483856       -13.1664
  52   2.0000      -0.472153       -12.8479
  53   2.0000      -0.467043       -12.7089
  54   2.0000      -0.457599       -12.4519
  55   2.0000      -0.454714       -12.3734
  56   2.0000      -0.440405       -11.9840
  57   2.0000      -0.437394       -11.9021
  58   2.0000      -0.430281       -11.7085
  59   2.0000      -0.424011       -11.5379
  60   2.0000      -0.423307       -11.5188
  61   2.0000      -0.421054       -11.4574
  62   2.0000      -0.412604       -11.2275
  63   2.0000      -0.348123        -9.4729
  64   2.0000      -0.331802        -9.0288
  65   2.0000      -0.327316        -8.9067
  66   2.0000      -0.290855        -7.9146
  67   0.0000       0.033112         0.9010
  68   0.0000       0.065016         1.7692
  69   0.0000       0.111246         3.0272
  70   0.0000       0.118883         3.2350
  71   0.0000       0.125064         3.4032

MULLIKEN ATOMIC CHARGES
-----------------------
   0 S :    0.112406
   1 C :   -0.099916
   2 C :   -0.118919
   3 C :    0.022434
   4 C :   -0.151563
   5 H :    0.015915
   6 C :    0.081082
   7 H :    0.000721
   8 H :    0.039874
   9 C :   -0.105035
  10 H :    0.040375
  11 H :    0.037305
  12 C :   -0.027503
  13 H :    0.035380
  14 H :    0.028021
  15 H :    0.025069
  16 S :    0.108617
  17 C :   -0.099035
  18 C :    0.002546
  19 C :   -0.038993
  20 C :   -0.132984
  21 H :    0.010589
  22 C :    0.007593
  23 H :    0.038344
  24 H :    0.047549
  25 C :   -0.094114
  26 H :    0.029922
  27 H :    0.040518
  28 C :   -0.052957
  29 H :    0.044508
  30 H :    0.034857
  31 H :    0.023854
  32 H :    0.039706
  33 H :    0.053830
Sum of atomic charges:    0.0000000

LOEWDIN ATOMIC CHARGES
----------------------
   0 S :    0.394985
   1 C :   -0.197297
   2 C :   -0.059440
   3 C :   -0.063760
   4 C :   -0.185762
   5 H :    0.033502
   6 C :   -0.035588
   7 H :    0.022043
   8 H :    0.032961
   9 C :   -0.036144
  10 H :    0.028652
  11 H :    0.020677
  12 C :   -0.061618
  13 H :    0.024789
  14 H :    0.028053
  15 H :    0.022069
  16 S :    0.413512
  17 C :   -0.175670
  18 C :   -0.066522
  19 C :   -0.055146
  20 C :   -0.209964
  21 H :    0.029186
  22 C :   -0.040510
  23 H :    0.033412
  24 H :    0.038026
  25 C :   -0.048699
  26 H :    0.025217
  27 H :    0.024591
  28 C :   -0.075995
  29 H :    0.035162
  30 H :    0.024426
  31 H :    0.028397
  32 H :    0.027199
  33 H :    0.025254

  Mayer bond orders larger than 0.100000
B(  0-S ,  1-C ) :   1.1239 B(  0-S ,  4-C ) :   1.1461 B(  1-C ,  2-C ) :   1.6349
B(  1-C , 32-H ) :   0.9648 B(  2-C ,  3-C ) :   1.2249 B(  2-C ,  6-C ) :   1.0225
B(  3-C ,  4-C ) :   1.5902 B(  3-C ,  5-H ) :   0.9920 B(  4-C , 20-C ) :   1.0123
B(  6-C ,  7-H ) :   0.9352 B(  6-C ,  8-H ) :   0.9352 B(  6-C ,  9-C ) :   1.0584
B(  9-C , 10-H ) :   0.9619 B(  9-C , 11-H ) :   0.9563 B(  9-C , 12-C ) :   1.0727
B( 12-C , 13-H ) :   0.9776 B( 12-C , 14-H ) :   0.9754 B( 12-C , 15-H ) :   0.9782
B( 16-S , 17-C ) :   1.1677 B( 16-S , 20-C ) :   1.1442 B( 17-C , 18-C ) :   1.5989
B( 17-C , 33-H ) :   0.9694 B( 18-C , 19-C ) :   1.2298 B( 18-C , 21-H ) :   0.9987
B( 19-C , 20-C ) :   1.5813 B( 19-C , 22-C ) :   1.0677 B( 22-C , 23-H ) :   0.9409
B( 22-C , 24-H ) :   0.9326 B( 22-C , 25-C ) :   1.0319 B( 25-C , 26-H ) :   0.9489
B( 25-C , 27-H ) :   0.9619 B( 25-C , 28-C ) :   1.0885 B( 28-C , 29-H ) :   0.9711
B( 28-C , 30-H ) :   0.9747 B( 28-C , 31-H ) :   0.9673

Dispersion correction           -0.014415720
FINAL SINGLE POINT ENERGY     -1339.889230244752

DIPOLE MOMENT
-------------
                                X             Y             Z
Electronic contribution:     -4.90164     -29.25681      11.72931
Nuclear contribution   :      4.80454      29.91864     -12.12729
                        -----------------------------------------
Total Dipole Moment    :     -0.09710       0.66183      -0.39798
                        -----------------------------------------
Magnitude (a.u.)       :      0.77835
Magnitude (Debye)      :      1.97840

Rotational constants in cm-1:     0.016407     0.009307     0.007050
Rotational constants in MHz :   491.881419   279.008449   211.348769

                             ****ORCA TERMINATED NORMALLY****
TOTAL RUN TIME: 0 days 0 hours 0 minutes 35 seconds 296 msec
