                         Program Version 4.2.1 -  RELEASE  -
|  1> ! wB97X-D3 SP def2-SVP
|  2> %pal
|  3> nprocs 16
|  4> end
|  5>
|  6> * xyz 0 1
|  7> S 	 -31.8412 	 66.1464 	 98.7899
|  8> C 	 -33.1538 	 65.8445 	 99.8798
|  9> C 	 -32.8739 	 66.4935 	 101.081
| 10> C 	 -31.5844 	 67.1359 	 101.114
| 11> C 	 -30.8108 	 66.922 	 99.9993
| 12> H 	 -31.239 	 67.6317 	 102.036
| 13> C 	 -33.7059 	 66.4695 	 102.339
| 14> H 	 -33.0251 	 66.5765 	 103.227
| 15> H 	 -34.204 	 65.4598 	 102.482
| 16> C 	 -34.8936 	 67.5441 	 102.294
| 17> H 	 -35.6901 	 67.3089 	 101.551
| 18> H 	 -35.3877 	 67.447 	 103.296
| 19> C 	 -34.5294 	 69.0103 	 102.278
| 20> H 	 -34.1739 	 69.2411 	 101.294
| 21> H 	 -35.437 	 69.52 	 102.474
| 22> H 	 -33.6865 	 69.346 	 102.87
| 23> S 	 -29.3786 	 68.3419 	 98.1863
| 24> C 	 -27.7359 	 68.8509 	 98.6264
| 25> C 	 -27.3675 	 68.3211 	 99.8565
| 26> C 	 -28.3742 	 67.6294 	 100.52
| 27> C 	 -29.4775 	 67.4469 	 99.7078
| 28> H 	 -26.369 	 68.5685 	 100.178
| 29> C 	 -28.2445 	 67.1974 	 102.002
| 30> H 	 -29.0669 	 67.4835 	 102.588
| 31> H 	 -27.4804 	 67.8951 	 102.336
| 32> C 	 -27.6891 	 65.7738 	 102.173
| 33> H 	 -27.0663 	 65.6149 	 103.146
| 34> H 	 -26.9472 	 65.6501 	 101.362
| 35> C 	 -28.6715 	 64.6049 	 102.139
| 36> H 	 -29.3905 	 64.8414 	 102.909
| 37> H 	 -28.0979 	 63.7797 	 102.516
| 38> H 	 -29.1392 	 64.386 	 101.152
| 39> H 	 -34.1403 	 65.4264 	 99.658
| 40> H 	 -27.0681 	 69.5382 	 98.0822
| 41> *
| 42>
| 43>                          ****END OF INPUT****

CARTESIAN COORDINATES (ANGSTROEM)
---------------------------------
  S    -31.841200   66.146400   98.789900
  C    -33.153800   65.844500   99.879800
  C    -32.873900   66.493500  101.081000
  C    -31.584400   67.135900  101.114000
  C    -30.810800   66.922000   99.999300
  H    -31.239000   67.631700  102.036000
  C    -33.705900   66.469500  102.339000
  H    -33.025100   66.576500  103.227000
  H    -34.204000   65.459800  102.482000
  C    -34.893600   67.544100  102.294000
  H    -35.690100   67.308900  101.551000
  H    -35.387700   67.447000  103.296000
  C    -34.529400   69.010300  102.278000
  H    -34.173900   69.241100  101.294000
  H    -35.437000   69.520000  102.474000
  H    -33.686500   69.346000  102.870000
  S    -29.378600   68.341900   98.186300
  C    -27.735900   68.850900   98.626400
  C    -27.367500   68.321100   99.856500
  C    -28.374200   67.629400  100.520000
  C    -29.477500   67.446900   99.707800
  H    -26.369000   68.568500  100.178000
  C    -28.244500   67.197400  102.002000
  H    -29.066900   67.483500  102.588000
  H    -27.480400   67.895100  102.336000
  C    -27.689100   65.773800  102.173000
  H    -27.066300   65.614900  103.146000
  H    -26.947200   65.650100  101.362000
  C    -28.671500   64.604900  102.139000
  H    -29.390500   64.841400  102.909000
  H    -28.097900   63.779700  102.516000
  H    -29.139200   64.386000  101.152000
  H    -34.140300   65.426400   99.658000
  H    -27.068100   69.538200   98.082200

 Total Charge           Charge          ....    0
 Multiplicity           Mult            ....    1
 Number of Electrons    NEL             ....  134
 Basis Dimension        Dim             ....  322

ORBITAL ENERGIES
----------------

  NO   OCC          E(Eh)            E(eV)
   0   2.0000     -88.969530     -2420.9840
   1   2.0000     -88.965132     -2420.8643
   2   2.0000     -10.331918      -281.1458
   3   2.0000     -10.329393      -281.0771
   4   2.0000     -10.321575      -280.8643
   5   2.0000     -10.314982      -280.6849
   6   2.0000     -10.305142      -280.4172
   7   2.0000     -10.301957      -280.3305
   8   2.0000     -10.299222      -280.2561
   9   2.0000     -10.293795      -280.1084
  10   2.0000     -10.293377      -280.0970
  11   2.0000     -10.293353      -280.0964
  12   2.0000     -10.293199      -280.0922
  13   2.0000     -10.292801      -280.0814
  14   2.0000     -10.271403      -279.4991
  15   2.0000     -10.267993      -279.4063
  16   2.0000      -8.083453      -219.9619
  17   2.0000      -8.079694      -219.8597
  18   2.0000      -6.041978      -164.4106
  19   2.0000      -6.038370      -164.3124
  20   2.0000      -6.038098      -164.3050
  21   2.0000      -6.034198      -164.1989
  22   2.0000      -6.034089      -164.1959
  23   2.0000      -6.030410      -164.0958
  24   2.0000      -1.007179       -27.4067
  25   2.0000      -0.984335       -26.7851
  26   2.0000      -0.906685       -24.6721
  27   2.0000      -0.902574       -24.5603
  28   2.0000      -0.869867       -23.6703
  29   2.0000      -0.852244       -23.1907
  30   2.0000      -0.845630       -23.0108
  31   2.0000      -0.814615       -22.1668
  32   2.0000      -0.786106       -21.3910
  33   2.0000      -0.771034       -20.9809
  34   2.0000      -0.703650       -19.1473
  35   2.0000      -0.695628       -18.9290
  36   2.0000      -0.687073       -18.6962
  37   2.0000      -0.663237       -18.0476
  38   2.0000      -0.633862       -17.2482
  39   2.0000      -0.617810       -16.8115
  40   2.0000      -0.595799       -16.2125
  41   2.0000      -0.567784       -15.4502
  42   2.0000      -0.550966       -14.9925
  43   2.0000      -0.546829       -14.8800
  44   2.0000      -0.543100       -14.7785
  45   2.0000      -0.531181       -14.4542
  46   2.0000      -0.516242       -14.0477
  47   2.0000      -0.509652       -13.8683
  48   2.0000      -0.505749       -13.7621
  49   2.0000      -0.501956       -13.6589
  50   2.0000      -0.489952       -13.3323
  51   2.0000      -0.481642       -13.1062
  52   2.0000      -0.473326       -12.8798
  53   2.0000      -0.467344       -12.7171
  54   2.0000      -0.459981       -12.5167
  55   2.0000      -0.444153       -12.0860
  56   2.0000      -0.437330       -11.9004
  57   2.0000      -0.435407       -11.8480
  58   2.0000      -0.432537       -11.7699
  59   2.0000      -0.422026       -11.4839
  60   2.0000      -0.418315       -11.3829
  61   2.0000      -0.409418       -11.1408
  62   2.0000      -0.401404       -10.9228
  63   2.0000      -0.353035        -9.6066
  64   2.0000      -0.337308        -9.1786
  65   2.0000      -0.323665        -8.8074
  66   2.0000      -0.288354        -7.8465
  67   0.0000       0.025501         0.6939
  68   0.0000       0.067493         1.8366
  69   0.0000       0.103994         2.8298
  70   0.0000       0.114911         3.1269
  71   0.0000       0.135210         3.6793

MULLIKEN ATOMIC CHARGES
-----------------------
   0 S :    0.097974
   1 C :   -0.104537
   2 C :   -0.101952
   3 C :    0.017924
   4 C :   -0.131929
   5 H :    0.015453
   6 C :    0.018345
   7 H :    0.034856
   8 H :    0.040927
   9 C :   -0.114547
  10 H :    0.041173
  11 H :    0.028538
  12 C :   -0.015095
  13 H :    0.024523
  14 H :    0.032933
  15 H :    0.025774
  16 S :    0.106050
  17 C :   -0.105623
  18 C :   -0.039736
  19 C :   -0.058043
  20 C :   -0.132669
  21 H :    0.013947
  22 C :    0.134665
  23 H :    0.007791
  24 H :    0.010099
  25 C :   -0.120978
  26 H :    0.037324
  27 H :    0.028505
  28 C :   -0.015455
  29 H :    0.019065
  30 H :    0.025835
  31 H :    0.059489
  32 H :    0.056610
  33 H :    0.062765
Sum of atomic charges:    0.0000000

LOEWDIN ATOMIC CHARGES
----------------------
   0 S :    0.402702
   1 C :   -0.210093
   2 C :   -0.070405
   3 C :   -0.071353
   4 C :   -0.188895
   5 H :    0.030268
   6 C :   -0.039826
   7 H :    0.033535
   8 H :    0.038369
   9 C :   -0.044540
  10 H :    0.028626
  11 H :    0.024360
  12 C :   -0.065671
  13 H :    0.022514
  14 H :    0.025997
  15 H :    0.025124
  16 S :    0.395502
  17 C :   -0.182480
  18 C :   -0.070770
  19 C :   -0.055308
  20 C :   -0.187133
  21 H :    0.031535
  22 C :   -0.024051
  23 H :    0.018213
  24 H :    0.035708
  25 C :   -0.047242
  26 H :    0.031723
  27 H :    0.024942
  28 C :   -0.064490
  29 H :    0.021873
  30 H :    0.025218
  31 H :    0.033523
  32 H :    0.036826
  33 H :    0.035698

  Mayer bond orders larger than 0.100000
B(  0-S ,  1-C ) :   1.1340 B(  0-S ,  4-C ) :   1.1489 B(  1-C ,  2-C ) :   1.5987
B(  1-C , 32-H ) :   0.9664 B(  2-C ,  3-C ) :   1.2611 B(  2-C ,  6-C ) :   1.0179
B(  3-C ,  4-C ) :   1.5522 B(  3-C ,  5-H ) :   0.9857 B(  4-C , 20-C ) :   1.0413
B(  6-C ,  7-H ) :   0.9510 B(  6-C ,  8-H ) :   0.9469 B(  6-C ,  9-C ) :   1.0580
B(  9-C , 10-H ) :   0.9591 B(  9-C , 11-H ) :   0.9613 B(  9-C , 12-C ) :   1.0738
B( 12-C , 13-H ) :   0.9711 B( 12-C , 14-H ) :   0.9729 B( 12-C , 15-H ) :   0.9739
B( 16-S , 17-C ) :   1.1479 B( 16-S , 20-C ) :   1.1431 B( 17-C , 18-C ) :   1.6211
B( 17-C , 20-C ) :   0.1064 B( 17-C , 33-H ) :   0.9634 B( 18-C , 19-C ) :   1.2504
B( 18-C , 21-H ) :   0.9876 B( 19-C , 20-C ) :   1.5970 B( 19-C , 22-C ) :   1.0197
B( 22-C , 23-H ) :   0.9438 B( 22-C , 24-H ) :   0.9213 B( 22-C , 25-C ) :   1.0592
B( 25-C , 26-H ) :   0.9587 B( 25-C , 27-H ) :   0.9518 B( 25-C , 28-C ) :   1.0812
B( 28-C , 29-H ) :   0.9742 B( 28-C , 30-H ) :   0.9716 B( 28-C , 31-H ) :   0.9732

Dispersion correction           -0.015128205
FINAL SINGLE POINT ENERGY     -1339.867968151011

DIPOLE MOMENT
-------------
                                X             Y             Z
Electronic contribution:      5.37762       2.52238     -23.46877
Nuclear contribution   :     -5.30891      -2.31878      24.15507
                        -----------------------------------------
Total Dipole Moment    :      0.06870       0.20360       0.68630
                        -----------------------------------------
Magnitude (a.u.)       :      0.71915
Magnitude (Debye)      :      1.82794

Rotational constants in cm-1:     0.018744     0.009005     0.007791
Rotational constants in MHz :   561.926308   269.951047   233.570938

                             ****ORCA TERMINATED NORMALLY****
TOTAL RUN TIME: 0 days 0 hours 0 minutes 29 seconds 650 msec
