                         Program Version 4.2.1 -  RELEASE  -
|  1> ! wB97X-D3 SP def2-SVP
|  2> %pal
|  3> nprocs 16
|  4> end
|  5>
|  6> * xyz 0 1
|  7> S 	 -65.178 	 40.34 	 131.202
|  8> C 	 -66.0363 	 39.9826 	 132.659
|  9> C 	 -65.3858 	 38.8851 	 133.303
| 10> C 	 -64.1216 	 38.6341 	 132.728
| 11> C 	 -63.8394 	 39.3105 	 131.624
| 12> H 	 -63.5359 	 37.7329 	 132.983
| 13> C 	 -65.8818 	 38.037 	 134.372
| 14> H 	 -66.5193 	 38.658 	 134.996
| 15> H 	 -65.042 	 37.7748 	 135.07
| 16> C 	 -66.6032 	 36.704 	 133.908
| 17> H 	 -67.4709 	 36.8808 	 133.331
| 18> H 	 -65.9972 	 36.1283 	 133.205
| 19> C 	 -67.0465 	 35.7979 	 135.106
| 20> H 	 -67.8515 	 36.3441 	 135.661
| 21> H 	 -67.5075 	 34.8561 	 134.745
| 22> H 	 -66.2087 	 35.5117 	 135.75
| 23> S 	 -63.1401 	 38.7141 	 129.007
| 24> C 	 -61.4446 	 38.4703 	 128.731
| 25> C 	 -60.5913 	 38.7102 	 129.753
| 26> C 	 -61.281 	 39.0281 	 130.954
| 27> C 	 -62.701 	 39.1173 	 130.697
| 28> H 	 -59.5235 	 38.544 	 129.568
| 29> C 	 -60.6353 	 39.3853 	 132.301
| 30> H 	 -60.37 	 38.515 	 132.953
| 31> H 	 -61.3853 	 39.9537 	 132.89
| 32> C 	 -59.3724 	 40.2819 	 132.206
| 33> H 	 -58.6193 	 39.6952 	 131.666
| 34> H 	 -59.1376 	 40.3877 	 133.285
| 35> C 	 -59.3936 	 41.676 	 131.718
| 36> H 	 -58.5155 	 42.2108 	 132.017
| 37> H 	 -60.2868 	 42.2232 	 132.085
| 38> H 	 -59.399 	 41.6683 	 130.596
| 39> H 	 -66.952 	 40.3525 	 132.954
| 40> H 	 -61.1567 	 38.0565 	 127.801
| 41> *
| 42>
| 43>                          ****END OF INPUT****

CARTESIAN COORDINATES (ANGSTROEM)
---------------------------------
  S    -65.178000   40.340000  131.202000
  C    -66.036300   39.982600  132.659000
  C    -65.385800   38.885100  133.303000
  C    -64.121600   38.634100  132.728000
  C    -63.839400   39.310500  131.624000
  H    -63.535900   37.732900  132.983000
  C    -65.881800   38.037000  134.372000
  H    -66.519300   38.658000  134.996000
  H    -65.042000   37.774800  135.070000
  C    -66.603200   36.704000  133.908000
  H    -67.470900   36.880800  133.331000
  H    -65.997200   36.128300  133.205000
  C    -67.046500   35.797900  135.106000
  H    -67.851500   36.344100  135.661000
  H    -67.507500   34.856100  134.745000
  H    -66.208700   35.511700  135.750000
  S    -63.140100   38.714100  129.007000
  C    -61.444600   38.470300  128.731000
  C    -60.591300   38.710200  129.753000
  C    -61.281000   39.028100  130.954000
  C    -62.701000   39.117300  130.697000
  H    -59.523500   38.544000  129.568000
  C    -60.635300   39.385300  132.301000
  H    -60.370000   38.515000  132.953000
  H    -61.385300   39.953700  132.890000
  C    -59.372400   40.281900  132.206000
  H    -58.619300   39.695200  131.666000
  H    -59.137600   40.387700  133.285000
  C    -59.393600   41.676000  131.718000
  H    -58.515500   42.210800  132.017000
  H    -60.286800   42.223200  132.085000
  H    -59.399000   41.668300  130.596000
  H    -66.952000   40.352500  132.954000
  H    -61.156700   38.056500  127.801000

 Total Charge           Charge          ....    0
 Multiplicity           Mult            ....    1
 Number of Electrons    NEL             ....  134
 Basis Dimension        Dim             ....  322

ORBITAL ENERGIES
----------------

  NO   OCC          E(Eh)            E(eV)
   0   2.0000     -88.968525     -2420.9566
   1   2.0000     -88.963840     -2420.8292
   2   2.0000     -10.333771      -281.1962
   3   2.0000     -10.322160      -280.8803
   4   2.0000     -10.312454      -280.6161
   5   2.0000     -10.310698      -280.5684
   6   2.0000     -10.310595      -280.5656
   7   2.0000     -10.298625      -280.2398
   8   2.0000     -10.297040      -280.1967
   9   2.0000     -10.294487      -280.1272
  10   2.0000     -10.293362      -280.0966
  11   2.0000     -10.289336      -279.9871
  12   2.0000     -10.285851      -279.8922
  13   2.0000     -10.284323      -279.8507
  14   2.0000     -10.282641      -279.8049
  15   2.0000     -10.274511      -279.5837
  16   2.0000      -8.083084      -219.9519
  17   2.0000      -8.079072      -219.8427
  18   2.0000      -6.041295      -164.3920
  19   2.0000      -6.037900      -164.2996
  20   2.0000      -6.037569      -164.2906
  21   2.0000      -6.033889      -164.1905
  22   2.0000      -6.033515      -164.1803
  23   2.0000      -6.029815      -164.0796
  24   2.0000      -1.007902       -27.4264
  25   2.0000      -0.984417       -26.7873
  26   2.0000      -0.908566       -24.7233
  27   2.0000      -0.907097       -24.6834
  28   2.0000      -0.866044       -23.5663
  29   2.0000      -0.854158       -23.2428
  30   2.0000      -0.848006       -23.0754
  31   2.0000      -0.817594       -22.2479
  32   2.0000      -0.784019       -21.3342
  33   2.0000      -0.766089       -20.8463
  34   2.0000      -0.706443       -19.2233
  35   2.0000      -0.700743       -19.0682
  36   2.0000      -0.687209       -18.6999
  37   2.0000      -0.648307       -17.6413
  38   2.0000      -0.643948       -17.5227
  39   2.0000      -0.622903       -16.9500
  40   2.0000      -0.602504       -16.3950
  41   2.0000      -0.566004       -15.4018
  42   2.0000      -0.554006       -15.0753
  43   2.0000      -0.551064       -14.9952
  44   2.0000      -0.542525       -14.7628
  45   2.0000      -0.524293       -14.2667
  46   2.0000      -0.521411       -14.1883
  47   2.0000      -0.512574       -13.9478
  48   2.0000      -0.499248       -13.5852
  49   2.0000      -0.492152       -13.3921
  50   2.0000      -0.489947       -13.3321
  51   2.0000      -0.477963       -13.0060
  52   2.0000      -0.469107       -12.7650
  53   2.0000      -0.461408       -12.5555
  54   2.0000      -0.454733       -12.3739
  55   2.0000      -0.451058       -12.2739
  56   2.0000      -0.448113       -12.1938
  57   2.0000      -0.443450       -12.0669
  58   2.0000      -0.438430       -11.9303
  59   2.0000      -0.423160       -11.5148
  60   2.0000      -0.418711       -11.3937
  61   2.0000      -0.417246       -11.3538
  62   2.0000      -0.400521       -10.8987
  63   2.0000      -0.350958        -9.5500
  64   2.0000      -0.335504        -9.1295
  65   2.0000      -0.324006        -8.8167
  66   2.0000      -0.285559        -7.7704
  67   0.0000       0.031200         0.8490
  68   0.0000       0.063011         1.7146
  69   0.0000       0.110264         3.0004
  70   0.0000       0.124388         3.3848
  71   0.0000       0.129688         3.5290

MULLIKEN ATOMIC CHARGES
-----------------------
   0 S :    0.103591
   1 C :   -0.066746
   2 C :   -0.116226
   3 C :    0.016653
   4 C :   -0.135411
   5 H :    0.025045
   6 C :    0.046893
   7 H :    0.014684
   8 H :    0.029055
   9 C :   -0.047664
  10 H :    0.017661
  11 H :    0.024800
  12 C :   -0.074365
  13 H :    0.040150
  14 H :    0.038768
  15 H :    0.039138
  16 S :    0.106995
  17 C :   -0.077658
  18 C :   -0.035786
  19 C :   -0.010663
  20 C :   -0.162625
  21 H :    0.028558
  22 C :    0.048365
  23 H :    0.047583
  24 H :    0.031434
  25 C :   -0.118284
  26 H :    0.030084
  27 H :    0.029581
  28 C :   -0.028439
  29 H :    0.033706
  30 H :    0.036142
  31 H :    0.034322
  32 H :    0.013903
  33 H :    0.036758
Sum of atomic charges:   -0.0000000

LOEWDIN ATOMIC CHARGES
----------------------
   0 S :    0.415762
   1 C :   -0.194508
   2 C :   -0.062372
   3 C :   -0.074821
   4 C :   -0.200169
   5 H :    0.038940
   6 C :   -0.039239
   7 H :    0.029149
   8 H :    0.035912
   9 C :   -0.033360
  10 H :    0.019135
  11 H :    0.023259
  12 C :   -0.070019
  13 H :    0.029352
  14 H :    0.029112
  15 H :    0.023636
  16 S :    0.395148
  17 C :   -0.175088
  18 C :   -0.077180
  19 C :   -0.050750
  20 C :   -0.183589
  21 H :    0.039633
  22 C :   -0.036210
  23 H :    0.038999
  24 H :    0.033316
  25 C :   -0.050880
  26 H :    0.020759
  27 H :    0.030510
  28 C :   -0.067310
  29 H :    0.025815
  30 H :    0.030828
  31 H :    0.029056
  32 H :    0.011185
  33 H :    0.015988

  Mayer bond orders larger than 0.100000
B(  0-S ,  1-C ) :   1.1458 B(  0-S ,  4-C ) :   1.1520 B(  1-C ,  2-C ) :   1.5624
B(  1-C , 32-H ) :   0.9832 B(  2-C ,  3-C ) :   1.2663 B(  2-C ,  6-C ) :   1.0580
B(  3-C ,  4-C ) :   1.5829 B(  3-C ,  5-H ) :   0.9867 B(  4-C , 20-C ) :   1.0168
B(  6-C ,  7-H ) :   0.9324 B(  6-C ,  8-H ) :   0.9405 B(  6-C ,  9-C ) :   1.0421
B(  9-C , 10-H ) :   0.9552 B(  9-C , 11-H ) :   0.9590 B(  9-C , 12-C ) :   1.0778
B( 12-C , 13-H ) :   0.9773 B( 12-C , 14-H ) :   0.9749 B( 12-C , 15-H ) :   0.9775
B( 16-S , 17-C ) :   1.1541 B( 16-S , 20-C ) :   1.1496 B( 17-C , 18-C ) :   1.6346
B( 17-C , 33-H ) :   0.9665 B( 18-C , 19-C ) :   1.2208 B( 18-C , 21-H ) :   0.9873
B( 19-C , 20-C ) :   1.5867 B( 19-C , 22-C ) :   1.0303 B( 22-C , 23-H ) :   0.9352
B( 22-C , 24-H ) :   0.9358 B( 22-C , 25-C ) :   1.0775 B( 25-C , 26-H ) :   0.9509
B( 25-C , 27-H ) :   0.9534 B( 25-C , 28-C ) :   1.0920 B( 28-C , 29-H ) :   0.9710
B( 28-C , 30-H ) :   0.9693 B( 28-C , 31-H ) :   0.9705

Dispersion correction           -0.013816856
FINAL SINGLE POINT ENERGY     -1339.870852364451

DIPOLE MOMENT
-------------
                                X             Y             Z
Electronic contribution:     -5.45154       5.95534     -19.80123
Nuclear contribution   :      5.65837      -6.36705      20.15542
                        -----------------------------------------
Total Dipole Moment    :      0.20683      -0.41171       0.35420
                        -----------------------------------------
Magnitude (a.u.)       :      0.58115
Magnitude (Debye)      :      1.47717

Rotational constants in cm-1:     0.020316     0.007298     0.006713
Rotational constants in MHz :   609.067222   218.781695   201.252503

                             ****ORCA TERMINATED NORMALLY****
TOTAL RUN TIME: 0 days 0 hours 0 minutes 35 seconds 83 msec
