                         Program Version 4.2.1 -  RELEASE  -
|  1> ! wB97X-D3 SP def2-SVP
|  2> %pal
|  3> nprocs 16
|  4> end
|  5>
|  6> * xyz 0 1
|  7> S 	 -44.6735 	 12.0345 	 82.4093
|  8> C 	 -43.2634 	 11.1151 	 81.9737
|  9> C 	 -42.1322 	 11.8629 	 82.0451
| 10> C 	 -42.3104 	 13.2581 	 82.2678
| 11> C 	 -43.7203 	 13.5433 	 82.3676
| 12> H 	 -41.5165 	 14.0653 	 82.4764
| 13> C 	 -40.6751 	 11.2732 	 81.8894
| 14> H 	 -40.521 	 11.1694 	 80.7745
| 15> H 	 -40.6105 	 10.2694 	 82.2047
| 16> C 	 -39.5432 	 12.1214 	 82.533
| 17> H 	 -38.6079 	 11.5732 	 82.3493
| 18> H 	 -39.5036 	 13.0529 	 82.0053
| 19> C 	 -39.6066 	 12.2436 	 84.0496
| 20> H 	 -40.4036 	 12.8552 	 84.42
| 21> H 	 -39.5513 	 11.3461 	 84.6372
| 22> H 	 -38.8292 	 12.8776 	 84.2837
| 23> S 	 -44.5311 	 15.9781 	 81.3746
| 24> C 	 -45.5028 	 17.0991 	 82.3765
| 25> C 	 -45.6868 	 16.4905 	 83.5877
| 26> C 	 -44.8486 	 15.3051 	 83.8283
| 27> C 	 -44.3283 	 14.8078 	 82.6996
| 28> H 	 -46.3415 	 17.0689 	 84.2557
| 29> C 	 -44.8977 	 14.5485 	 85.2163
| 30> H 	 -44.893 	 13.5099 	 84.9881
| 31> H 	 -45.9207 	 14.688 	 85.465
| 32> C 	 -43.8309 	 14.9587 	 86.257
| 33> H 	 -42.7898 	 14.588 	 85.9108
| 34> H 	 -44.0825 	 14.4305 	 87.1245
| 35> C 	 -43.7076 	 16.4781 	 86.6324
| 36> H 	 -43.3838 	 17.131 	 85.8365
| 37> H 	 -42.9508 	 16.5285 	 87.4537
| 38> H 	 -44.5122 	 16.9105 	 87.1643
| 39> H 	 -43.1484 	 10.0908 	 81.6952
| 40> H 	 -45.9998 	 17.9911 	 82.0359
| 41> *
| 42>
| 43>                          ****END OF INPUT****

CARTESIAN COORDINATES (ANGSTROEM)
---------------------------------
  S    -44.673500   12.034500   82.409300
  C    -43.263400   11.115100   81.973700
  C    -42.132200   11.862900   82.045100
  C    -42.310400   13.258100   82.267800
  C    -43.720300   13.543300   82.367600
  H    -41.516500   14.065300   82.476400
  C    -40.675100   11.273200   81.889400
  H    -40.521000   11.169400   80.774500
  H    -40.610500   10.269400   82.204700
  C    -39.543200   12.121400   82.533000
  H    -38.607900   11.573200   82.349300
  H    -39.503600   13.052900   82.005300
  C    -39.606600   12.243600   84.049600
  H    -40.403600   12.855200   84.420000
  H    -39.551300   11.346100   84.637200
  H    -38.829200   12.877600   84.283700
  S    -44.531100   15.978100   81.374600
  C    -45.502800   17.099100   82.376500
  C    -45.686800   16.490500   83.587700
  C    -44.848600   15.305100   83.828300
  C    -44.328300   14.807800   82.699600
  H    -46.341500   17.068900   84.255700
  C    -44.897700   14.548500   85.216300
  H    -44.893000   13.509900   84.988100
  H    -45.920700   14.688000   85.465000
  C    -43.830900   14.958700   86.257000
  H    -42.789800   14.588000   85.910800
  H    -44.082500   14.430500   87.124500
  C    -43.707600   16.478100   86.632400
  H    -43.383800   17.131000   85.836500
  H    -42.950800   16.528500   87.453700
  H    -44.512200   16.910500   87.164300
  H    -43.148400   10.090800   81.695200
  H    -45.999800   17.991100   82.035900

 Total Charge           Charge          ....    0
 Multiplicity           Mult            ....    1
 Number of Electrons    NEL             ....  134
 Basis Dimension        Dim             ....  322

ORBITAL ENERGIES
----------------

  NO   OCC          E(Eh)            E(eV)
   0   2.0000     -88.973026     -2421.0791
   1   2.0000     -88.954136     -2420.5651
   2   2.0000     -10.335899      -281.2541
   3   2.0000     -10.321216      -280.8546
   4   2.0000     -10.316687      -280.7313
   5   2.0000     -10.309236      -280.5286
   6   2.0000     -10.308790      -280.5164
   7   2.0000     -10.303163      -280.3633
   8   2.0000     -10.300567      -280.2927
   9   2.0000     -10.295760      -280.1619
  10   2.0000     -10.293921      -280.1118
  11   2.0000     -10.293878      -280.1107
  12   2.0000     -10.289910      -280.0027
  13   2.0000     -10.286925      -279.9215
  14   2.0000     -10.276231      -279.6305
  15   2.0000     -10.267627      -279.3963
  16   2.0000      -8.086493      -220.0447
  17   2.0000      -8.068463      -219.5541
  18   2.0000      -6.045071      -164.4948
  19   2.0000      -6.041245      -164.3906
  20   2.0000      -6.037184      -164.2801
  21   2.0000      -6.027231      -164.0093
  22   2.0000      -6.023001      -163.8942
  23   2.0000      -6.018960      -163.7842
  24   2.0000      -1.000947       -27.2371
  25   2.0000      -0.978540       -26.6274
  26   2.0000      -0.907044       -24.6819
  27   2.0000      -0.895575       -24.3698
  28   2.0000      -0.871768       -23.7220
  29   2.0000      -0.845462       -23.0062
  30   2.0000      -0.836607       -22.7652
  31   2.0000      -0.813163       -22.1273
  32   2.0000      -0.786777       -21.4093
  33   2.0000      -0.778515       -21.1845
  34   2.0000      -0.714870       -19.4526
  35   2.0000      -0.698883       -19.0176
  36   2.0000      -0.691343       -18.8124
  37   2.0000      -0.657986       -17.9047
  38   2.0000      -0.631579       -17.1861
  39   2.0000      -0.616964       -16.7884
  40   2.0000      -0.581000       -15.8098
  41   2.0000      -0.569690       -15.5020
  42   2.0000      -0.552607       -15.0372
  43   2.0000      -0.550690       -14.9850
  44   2.0000      -0.536517       -14.5994
  45   2.0000      -0.532457       -14.4889
  46   2.0000      -0.520196       -14.1553
  47   2.0000      -0.511747       -13.9253
  48   2.0000      -0.503572       -13.7029
  49   2.0000      -0.492512       -13.4019
  50   2.0000      -0.489687       -13.3251
  51   2.0000      -0.480831       -13.0841
  52   2.0000      -0.477156       -12.9841
  53   2.0000      -0.465883       -12.6773
  54   2.0000      -0.456198       -12.4138
  55   2.0000      -0.444060       -12.0835
  56   2.0000      -0.438687       -11.9373
  57   2.0000      -0.431975       -11.7546
  58   2.0000      -0.429333       -11.6827
  59   2.0000      -0.427868       -11.6429
  60   2.0000      -0.421950       -11.4818
  61   2.0000      -0.411915       -11.2088
  62   2.0000      -0.401476       -10.9247
  63   2.0000      -0.335581        -9.1316
  64   2.0000      -0.329970        -8.9789
  65   2.0000      -0.322183        -8.7670
  66   2.0000      -0.303872        -8.2688
  67   0.0000       0.035071         0.9543
  68   0.0000       0.055378         1.5069
  69   0.0000       0.104214         2.8358
  70   0.0000       0.122375         3.3300
  71   0.0000       0.131071         3.5666

MULLIKEN ATOMIC CHARGES
-----------------------
   0 S :    0.130810
   1 C :   -0.097591
   2 C :   -0.097132
   3 C :    0.016201
   4 C :   -0.174897
   5 H :    0.061057
   6 C :    0.060861
   7 H :    0.045283
   8 H :    0.006664
   9 C :   -0.089337
  10 H :    0.032346
  11 H :    0.031899
  12 C :    0.003392
  13 H :    0.015543
  14 H :    0.036657
  15 H :    0.007199
  16 S :    0.075128
  17 C :   -0.096793
  18 C :   -0.047387
  19 C :   -0.056278
  20 C :   -0.165072
  21 H :    0.030346
  22 C :    0.108438
  23 H :    0.005118
  24 H :    0.010371
  25 C :   -0.048948
  26 H :    0.046079
  27 H :    0.022036
  28 C :   -0.055392
  29 H :    0.049135
  30 H :    0.024055
  31 H :    0.019436
  32 H :    0.030886
  33 H :    0.059887
Sum of atomic charges:    0.0000000

LOEWDIN ATOMIC CHARGES
----------------------
   0 S :    0.414614
   1 C :   -0.205130
   2 C :   -0.066293
   3 C :   -0.060961
   4 C :   -0.186870
   5 H :    0.051968
   6 C :   -0.032152
   7 H :    0.038978
   8 H :    0.017253
   9 C :   -0.038142
  10 H :    0.031950
  11 H :    0.021454
  12 C :   -0.061525
  13 H :    0.022425
  14 H :    0.027706
  15 H :    0.021174
  16 S :    0.361300
  17 C :   -0.170818
  18 C :   -0.076687
  19 C :   -0.056840
  20 C :   -0.196055
  21 H :    0.033755
  22 C :   -0.026332
  23 H :    0.019897
  24 H :    0.025640
  25 C :   -0.032612
  26 H :    0.036222
  27 H :    0.018593
  28 C :   -0.070332
  29 H :    0.026208
  30 H :    0.032655
  31 H :    0.018190
  32 H :    0.029144
  33 H :    0.031623

  Mayer bond orders larger than 0.100000
B(  0-S ,  1-C ) :   1.1293 B(  0-S ,  4-C ) :   1.1583 B(  1-C ,  2-C ) :   1.6401
B(  1-C ,  4-C ) :   0.1038 B(  1-C , 32-H ) :   0.9665 B(  2-C ,  3-C ) :   1.2568
B(  2-C ,  6-C ) :   0.9904 B(  3-C ,  4-C ) :   1.5514 B(  3-C ,  5-H ) :   0.9697
B(  4-C , 20-C ) :   1.0279 B(  6-C ,  7-H ) :   0.9414 B(  6-C ,  8-H ) :   0.9455
B(  6-C ,  9-C ) :   1.0847 B(  9-C , 10-H ) :   0.9525 B(  9-C , 11-H ) :   0.9480
B(  9-C , 12-C ) :   1.0847 B( 12-C , 13-H ) :   0.9685 B( 12-C , 14-H ) :   0.9738
B( 12-C , 15-H ) :   0.9643 B( 16-S , 17-C ) :   1.1215 B( 16-S , 20-C ) :   1.1107
B( 17-C , 18-C ) :   1.6770 B( 17-C , 33-H ) :   0.9690 B( 18-C , 19-C ) :   1.1661
B( 18-C , 21-H ) :   0.9807 B( 19-C , 20-C ) :   1.6736 B( 19-C , 22-C ) :   1.0083
B( 22-C , 23-H ) :   0.9336 B( 22-C , 24-H ) :   0.9414 B( 22-C , 25-C ) :   1.0652
B( 25-C , 26-H ) :   0.9554 B( 25-C , 27-H ) :   0.9543 B( 25-C , 28-C ) :   1.0799
B( 28-C , 29-H ) :   0.9755 B( 28-C , 30-H ) :   0.9714 B( 28-C , 31-H ) :   0.9752

Dispersion correction           -0.015014886
FINAL SINGLE POINT ENERGY     -1339.846528482879

DIPOLE MOMENT
-------------
                                X             Y             Z
Electronic contribution:    -17.37652       0.79680     -18.03472
Nuclear contribution   :     17.73727      -0.91892      18.56798
                        -----------------------------------------
Total Dipole Moment    :      0.36075      -0.12212       0.53326
                        -----------------------------------------
Magnitude (a.u.)       :      0.65530
Magnitude (Debye)      :      1.66564

Rotational constants in cm-1:     0.018013     0.009052     0.007690
Rotational constants in MHz :   540.005135   271.360299   230.540739

                             ****ORCA TERMINATED NORMALLY****
TOTAL RUN TIME: 0 days 0 hours 0 minutes 28 seconds 808 msec
