                         Program Version 4.2.1 -  RELEASE  -
|  1> ! wB97X-D3 SP def2-SVP
|  2> %pal
|  3> nprocs 16
|  4> end
|  5>
|  6> * xyz 0 1
|  7> S 	 -42.5572 	 -3.67366 	 97.2253
|  8> C 	 -41.4749 	 -3.75543 	 95.9035
|  9> C 	 -42.1617 	 -3.63597 	 94.7321
| 10> C 	 -43.5115 	 -3.24891 	 94.8847
| 11> C 	 -43.8942 	 -3.22169 	 96.2031
| 12> H 	 -44.2982 	 -3.00181 	 94.1926
| 13> C 	 -41.4712 	 -3.62444 	 93.4213
| 14> H 	 -40.3692 	 -3.45813 	 93.6012
| 15> H 	 -41.8892 	 -2.73932 	 92.9734
| 16> C 	 -41.6827 	 -4.86043 	 92.5587
| 17> H 	 -40.8785 	 -4.88472 	 91.7567
| 18> H 	 -41.6853 	 -5.79728 	 93.0494
| 19> C 	 -42.9212 	 -4.73612 	 91.7388
| 20> H 	 -42.9727 	 -3.81589 	 91.1034
| 21> H 	 -42.8825 	 -5.56438 	 91.0735
| 22> H 	 -43.7798 	 -4.75857 	 92.3803
| 23> S 	 -44.8636 	 -1.00545 	 97.4505
| 24> C 	 -46.6088 	 -0.801161 	 97.7526
| 25> C 	 -47.3009 	 -1.82703 	 97.1263
| 26> C 	 -46.4687 	 -2.81738 	 96.5702
| 27> C 	 -45.1091 	 -2.57052 	 96.717
| 28> H 	 -48.4195 	 -1.87179 	 97.2469
| 29> C 	 -47.0816 	 -4.04406 	 95.8669
| 30> H 	 -47.9228 	 -4.49568 	 96.4083
| 31> H 	 -46.3262 	 -4.86339 	 95.7754
| 32> C 	 -47.5241 	 -3.82602 	 94.4102
| 33> H 	 -46.6053 	 -3.63616 	 93.8618
| 34> H 	 -48.1065 	 -2.90956 	 94.2708
| 35> C 	 -48.2848 	 -4.97035 	 93.8157
| 36> H 	 -47.6995 	 -5.85637 	 94.1768
| 37> H 	 -48.3722 	 -4.91631 	 92.7207
| 38> H 	 -49.2727 	 -5.01536 	 94.2501
| 39> H 	 -40.4123 	 -4.10159 	 96.0436
| 40> H 	 -47.0954 	 0.00800938 	 98.2545
| 41> *
| 42>
| 43>                          ****END OF INPUT****

CARTESIAN COORDINATES (ANGSTROEM)
---------------------------------
  S    -42.557200   -3.673660   97.225300
  C    -41.474900   -3.755430   95.903500
  C    -42.161700   -3.635970   94.732100
  C    -43.511500   -3.248910   94.884700
  C    -43.894200   -3.221690   96.203100
  H    -44.298200   -3.001810   94.192600
  C    -41.471200   -3.624440   93.421300
  H    -40.369200   -3.458130   93.601200
  H    -41.889200   -2.739320   92.973400
  C    -41.682700   -4.860430   92.558700
  H    -40.878500   -4.884720   91.756700
  H    -41.685300   -5.797280   93.049400
  C    -42.921200   -4.736120   91.738800
  H    -42.972700   -3.815890   91.103400
  H    -42.882500   -5.564380   91.073500
  H    -43.779800   -4.758570   92.380300
  S    -44.863600   -1.005450   97.450500
  C    -46.608800   -0.801161   97.752600
  C    -47.300900   -1.827030   97.126300
  C    -46.468700   -2.817380   96.570200
  C    -45.109100   -2.570520   96.717000
  H    -48.419500   -1.871790   97.246900
  C    -47.081600   -4.044060   95.866900
  H    -47.922800   -4.495680   96.408300
  H    -46.326200   -4.863390   95.775400
  C    -47.524100   -3.826020   94.410200
  H    -46.605300   -3.636160   93.861800
  H    -48.106500   -2.909560   94.270800
  C    -48.284800   -4.970350   93.815700
  H    -47.699500   -5.856370   94.176800
  H    -48.372200   -4.916310   92.720700
  H    -49.272700   -5.015360   94.250100
  H    -40.412300   -4.101590   96.043600
  H    -47.095400    0.008009   98.254500

 Total Charge           Charge          ....    0
 Multiplicity           Mult            ....    1
 Number of Electrons    NEL             ....  134
 Basis Dimension        Dim             ....  322

ORBITAL ENERGIES
----------------

  NO   OCC          E(Eh)            E(eV)
   0   2.0000     -88.965140     -2420.8645
   1   2.0000     -88.963511     -2420.8202
   2   2.0000     -10.328627      -281.0562
   3   2.0000     -10.327287      -281.0198
   4   2.0000     -10.318995      -280.7941
   5   2.0000     -10.314290      -280.6661
   6   2.0000     -10.305286      -280.4211
   7   2.0000     -10.297262      -280.2027
   8   2.0000     -10.295859      -280.1646
   9   2.0000     -10.295232      -280.1475
  10   2.0000     -10.293393      -280.0975
  11   2.0000     -10.286730      -279.9162
  12   2.0000     -10.282628      -279.8045
  13   2.0000     -10.281126      -279.7637
  14   2.0000     -10.279654      -279.7236
  15   2.0000     -10.271489      -279.5014
  16   2.0000      -8.079410      -219.8519
  17   2.0000      -8.079370      -219.8508
  18   2.0000      -6.037943      -164.3008
  19   2.0000      -6.037736      -164.2952
  20   2.0000      -6.033941      -164.1919
  21   2.0000      -6.033606      -164.1828
  22   2.0000      -6.030332      -164.0937
  23   2.0000      -6.030168      -164.0892
  24   2.0000      -1.013288       -27.5730
  25   2.0000      -0.988251       -26.8917
  26   2.0000      -0.920498       -25.0480
  27   2.0000      -0.910155       -24.7666
  28   2.0000      -0.874055       -23.7842
  29   2.0000      -0.855503       -23.2794
  30   2.0000      -0.849334       -23.1116
  31   2.0000      -0.819636       -22.3034
  32   2.0000      -0.779043       -21.1988
  33   2.0000      -0.768076       -20.9004
  34   2.0000      -0.701853       -19.0984
  35   2.0000      -0.698682       -19.0121
  36   2.0000      -0.690105       -18.7787
  37   2.0000      -0.661838       -18.0095
  38   2.0000      -0.649156       -17.6644
  39   2.0000      -0.615390       -16.7456
  40   2.0000      -0.598078       -16.2745
  41   2.0000      -0.577295       -15.7090
  42   2.0000      -0.564450       -15.3595
  43   2.0000      -0.555297       -15.1104
  44   2.0000      -0.537335       -14.6216
  45   2.0000      -0.526604       -14.3296
  46   2.0000      -0.523947       -14.2573
  47   2.0000      -0.515059       -14.0155
  48   2.0000      -0.513336       -13.9686
  49   2.0000      -0.500376       -13.6159
  50   2.0000      -0.490292       -13.3415
  51   2.0000      -0.483917       -13.1681
  52   2.0000      -0.472007       -12.8440
  53   2.0000      -0.464240       -12.6326
  54   2.0000      -0.456929       -12.4337
  55   2.0000      -0.451243       -12.2789
  56   2.0000      -0.445794       -12.1307
  57   2.0000      -0.438453       -11.9309
  58   2.0000      -0.429500       -11.6873
  59   2.0000      -0.422884       -11.5073
  60   2.0000      -0.412484       -11.2242
  61   2.0000      -0.412232       -11.2174
  62   2.0000      -0.410028       -11.1574
  63   2.0000      -0.346733        -9.4351
  64   2.0000      -0.329268        -8.9598
  65   2.0000      -0.326535        -8.8855
  66   2.0000      -0.303500        -8.2586
  67   0.0000       0.033029         0.8988
  68   0.0000       0.064433         1.7533
  69   0.0000       0.118543         3.2257
  70   0.0000       0.120228         3.2716
  71   0.0000       0.126676         3.4470

MULLIKEN ATOMIC CHARGES
-----------------------
   0 S :    0.117484
   1 C :   -0.153364
   2 C :   -0.061894
   3 C :    0.045975
   4 C :   -0.181108
   5 H :    0.011716
   6 C :    0.053934
   7 H :    0.029013
   8 H :    0.023739
   9 C :   -0.053464
  10 H :    0.028546
  11 H :    0.027378
  12 C :   -0.045826
  13 H :    0.030743
  14 H :    0.023928
  15 H :    0.025161
  16 S :    0.107998
  17 C :   -0.091345
  18 C :   -0.052524
  19 C :   -0.005604
  20 C :   -0.158638
  21 H :    0.041384
  22 C :    0.027947
  23 H :    0.025008
  24 H :    0.029937
  25 C :   -0.081881
  26 H :    0.013592
  27 H :    0.021666
  28 C :   -0.033714
  29 H :    0.028576
  30 H :    0.045840
  31 H :    0.031208
  32 H :    0.076876
  33 H :    0.051717
Sum of atomic charges:   -0.0000000

LOEWDIN ATOMIC CHARGES
----------------------
   0 S :    0.423814
   1 C :   -0.211829
   2 C :   -0.072596
   3 C :   -0.058708
   4 C :   -0.203533
   5 H :    0.032287
   6 C :   -0.032679
   7 H :    0.034938
   8 H :    0.031237
   9 C :   -0.039621
  10 H :    0.030085
  11 H :    0.021362
  12 C :   -0.060974
  13 H :    0.027617
  14 H :    0.021771
  15 H :    0.016494
  16 S :    0.403358
  17 C :   -0.174562
  18 C :   -0.076268
  19 C :   -0.061412
  20 C :   -0.198772
  21 H :    0.042584
  22 C :   -0.033038
  23 H :    0.027282
  24 H :    0.032606
  25 C :   -0.048094
  26 H :    0.017289
  27 H :    0.018739
  28 C :   -0.064211
  29 H :    0.030030
  30 H :    0.031212
  31 H :    0.023274
  32 H :    0.042920
  33 H :    0.027396

  Mayer bond orders larger than 0.100000
B(  0-S ,  1-C ) :   1.1527 B(  0-S ,  4-C ) :   1.1709 B(  1-C ,  2-C ) :   1.5974
B(  1-C , 32-H ) :   0.9607 B(  2-C ,  3-C ) :   1.2294 B(  2-C ,  6-C ) :   1.0227
B(  3-C ,  4-C ) :   1.5746 B(  3-C ,  5-H ) :   0.9934 B(  4-C , 20-C ) :   1.0009
B(  6-C ,  7-H ) :   0.9455 B(  6-C ,  8-H ) :   0.9415 B(  6-C ,  9-C ) :   1.0592
B(  9-C , 10-H ) :   0.9558 B(  9-C , 11-H ) :   0.9562 B(  9-C , 12-C ) :   1.0871
B( 12-C , 13-H ) :   0.9742 B( 12-C , 14-H ) :   0.9723 B( 12-C , 15-H ) :   0.9731
B( 16-S , 17-C ) :   1.1500 B( 16-S , 20-C ) :   1.1531 B( 17-C , 18-C ) :   1.6078
B( 17-C , 20-C ) :   0.1052 B( 17-C , 33-H ) :   0.9711 B( 18-C , 19-C ) :   1.2544
B( 18-C , 21-H ) :   0.9788 B( 19-C , 20-C ) :   1.6016 B( 19-C , 22-C ) :   1.0446
B( 22-C , 23-H ) :   0.9459 B( 22-C , 24-H ) :   0.9310 B( 22-C , 25-C ) :   1.0569
B( 25-C , 26-H ) :   0.9489 B( 25-C , 27-H ) :   0.9548 B( 25-C , 28-C ) :   1.0867
B( 28-C , 29-H ) :   0.9705 B( 28-C , 30-H ) :   0.9716 B( 28-C , 31-H ) :   0.9732

Dispersion correction           -0.014395823
FINAL SINGLE POINT ENERGY     -1339.878810562906

DIPOLE MOMENT
-------------
                                X             Y             Z
Electronic contribution:      8.20412      13.32825      25.73363
Nuclear contribution   :     -8.38681     -13.47765     -26.25893
                        -----------------------------------------
Total Dipole Moment    :     -0.18269      -0.14940      -0.52529
                        -----------------------------------------
Magnitude (a.u.)       :      0.57587
Magnitude (Debye)      :      1.46375

Rotational constants in cm-1:     0.016400     0.010089     0.006989
Rotational constants in MHz :   491.651465   302.469523   209.515345

                             ****ORCA TERMINATED NORMALLY****
TOTAL RUN TIME: 0 days 0 hours 0 minutes 30 seconds 688 msec
