                         Program Version 4.2.1 -  RELEASE  -
|  1> ! wB97X-D3 SP def2-SVP
|  2> %pal
|  3> nprocs 16
|  4> end
|  5>
|  6> * xyz 0 1
|  7> S 	 40.2617 	 11.5763 	 68.228
|  8> C 	 38.7191 	 10.877 	 68.5615
|  9> C 	 37.7098 	 11.8086 	 68.3935
| 10> C 	 38.2225 	 13.0853 	 68.0107
| 11> C 	 39.5921 	 13.1614 	 67.983
| 12> H 	 37.6984 	 13.9765 	 67.841
| 13> C 	 36.2687 	 11.4994 	 68.6945
| 14> H 	 36.202 	 10.4005 	 68.6207
| 15> H 	 35.5918 	 12.0002 	 67.9829
| 16> C 	 35.867 	 11.8244 	 70.1361
| 17> H 	 36.481 	 11.3169 	 70.8758
| 18> H 	 36.1017 	 12.8794 	 70.3274
| 19> C 	 34.3863 	 11.4458 	 70.4509
| 20> H 	 34.4004 	 10.5831 	 71.1544
| 21> H 	 33.8828 	 12.2836 	 70.9369
| 22> H 	 33.8809 	 11.1508 	 69.562
| 23> S 	 40.7712 	 14.8918 	 66.1753
| 24> C 	 41.7461 	 16.2247 	 66.7675
| 25> C 	 41.9403 	 16.2006 	 68.119
| 26> C 	 41.1285 	 15.1811 	 68.7379
| 27> C 	 40.4099 	 14.364 	 67.8048
| 28> H 	 42.5813 	 16.9589 	 68.5667
| 29> C 	 40.9818 	 14.9709 	 70.2413
| 30> H 	 40.6315 	 14.0873 	 70.5384
| 31> H 	 40.3274 	 15.7852 	 70.6797
| 32> C 	 42.2539 	 15.1682 	 71.0936
| 33> H 	 42.6837 	 16.1539 	 70.7061
| 34> H 	 42.9353 	 14.3503 	 70.8576
| 35> C 	 41.9432 	 15.112 	 72.6106
| 36> H 	 42.7794 	 15.3978 	 73.2582
| 37> H 	 41.6572 	 14.0652 	 72.8625
| 38> H 	 41.2582 	 15.8542 	 72.8612
| 39> H 	 38.6143 	 9.9184 	 68.903
| 40> H 	 42.156 	 16.9656 	 66.1808
| 41> *
| 42>
| 43>                          ****END OF INPUT****

CARTESIAN COORDINATES (ANGSTROEM)
---------------------------------
  S     40.261700   11.576300   68.228000
  C     38.719100   10.877000   68.561500
  C     37.709800   11.808600   68.393500
  C     38.222500   13.085300   68.010700
  C     39.592100   13.161400   67.983000
  H     37.698400   13.976500   67.841000
  C     36.268700   11.499400   68.694500
  H     36.202000   10.400500   68.620700
  H     35.591800   12.000200   67.982900
  C     35.867000   11.824400   70.136100
  H     36.481000   11.316900   70.875800
  H     36.101700   12.879400   70.327400
  C     34.386300   11.445800   70.450900
  H     34.400400   10.583100   71.154400
  H     33.882800   12.283600   70.936900
  H     33.880900   11.150800   69.562000
  S     40.771200   14.891800   66.175300
  C     41.746100   16.224700   66.767500
  C     41.940300   16.200600   68.119000
  C     41.128500   15.181100   68.737900
  C     40.409900   14.364000   67.804800
  H     42.581300   16.958900   68.566700
  C     40.981800   14.970900   70.241300
  H     40.631500   14.087300   70.538400
  H     40.327400   15.785200   70.679700
  C     42.253900   15.168200   71.093600
  H     42.683700   16.153900   70.706100
  H     42.935300   14.350300   70.857600
  C     41.943200   15.112000   72.610600
  H     42.779400   15.397800   73.258200
  H     41.657200   14.065200   72.862500
  H     41.258200   15.854200   72.861200
  H     38.614300    9.918400   68.903000
  H     42.156000   16.965600   66.180800

 Total Charge           Charge          ....    0
 Multiplicity           Mult            ....    1
 Number of Electrons    NEL             ....  134
 Basis Dimension        Dim             ....  322

ORBITAL ENERGIES
----------------

  NO   OCC          E(Eh)            E(eV)
   0   2.0000     -88.965369     -2420.8708
   1   2.0000     -88.963369     -2420.8163
   2   2.0000     -10.328884      -281.0632
   3   2.0000     -10.325702      -280.9766
   4   2.0000     -10.312900      -280.6283
   5   2.0000     -10.312477      -280.6168
   6   2.0000     -10.307056      -280.4692
   7   2.0000     -10.299687      -280.2687
   8   2.0000     -10.297441      -280.2076
   9   2.0000     -10.293752      -280.1072
  10   2.0000     -10.288995      -279.9778
  11   2.0000     -10.288667      -279.9689
  12   2.0000     -10.284561      -279.8571
  13   2.0000     -10.281726      -279.7800
  14   2.0000     -10.278952      -279.7045
  15   2.0000     -10.278186      -279.6837
  16   2.0000      -8.079984      -219.8675
  17   2.0000      -8.078720      -219.8331
  18   2.0000      -6.038404      -164.3133
  19   2.0000      -6.037103      -164.2779
  20   2.0000      -6.034427      -164.2051
  21   2.0000      -6.033007      -164.1665
  22   2.0000      -6.030929      -164.1099
  23   2.0000      -6.029717      -164.0770
  24   2.0000      -1.006339       -27.3839
  25   2.0000      -0.984458       -26.7885
  26   2.0000      -0.911253       -24.7965
  27   2.0000      -0.907061       -24.6824
  28   2.0000      -0.871431       -23.7129
  29   2.0000      -0.847836       -23.0708
  30   2.0000      -0.844479       -22.9794
  31   2.0000      -0.821045       -22.3418
  32   2.0000      -0.781543       -21.2669
  33   2.0000      -0.768863       -20.9218
  34   2.0000      -0.706187       -19.2163
  35   2.0000      -0.698110       -18.9966
  36   2.0000      -0.695408       -18.9230
  37   2.0000      -0.657129       -17.8814
  38   2.0000      -0.648386       -17.6435
  39   2.0000      -0.619995       -16.8709
  40   2.0000      -0.603544       -16.4233
  41   2.0000      -0.575853       -15.6697
  42   2.0000      -0.571780       -15.5589
  43   2.0000      -0.559837       -15.2340
  44   2.0000      -0.526320       -14.3219
  45   2.0000      -0.520266       -14.1572
  46   2.0000      -0.517596       -14.0845
  47   2.0000      -0.512375       -13.9424
  48   2.0000      -0.505801       -13.7635
  49   2.0000      -0.501071       -13.6348
  50   2.0000      -0.494380       -13.4528
  51   2.0000      -0.478374       -13.0172
  52   2.0000      -0.469299       -12.7703
  53   2.0000      -0.466760       -12.7012
  54   2.0000      -0.463033       -12.5998
  55   2.0000      -0.457587       -12.4516
  56   2.0000      -0.442507       -12.0412
  57   2.0000      -0.441515       -12.0142
  58   2.0000      -0.427133       -11.6229
  59   2.0000      -0.421007       -11.4562
  60   2.0000      -0.419844       -11.4245
  61   2.0000      -0.413056       -11.2398
  62   2.0000      -0.411587       -11.1999
  63   2.0000      -0.336499        -9.1566
  64   2.0000      -0.332981        -9.0609
  65   2.0000      -0.316129        -8.6023
  66   2.0000      -0.308833        -8.4038
  67   0.0000       0.041863         1.1392
  68   0.0000       0.056936         1.5493
  69   0.0000       0.116024         3.1572
  70   0.0000       0.121930         3.3179
  71   0.0000       0.130263         3.5446

MULLIKEN ATOMIC CHARGES
-----------------------
   0 S :    0.121728
   1 C :   -0.096487
   2 C :   -0.078077
   3 C :    0.073997
   4 C :   -0.185184
   5 H :   -0.010608
   6 C :    0.061539
   7 H :    0.021440
   8 H :    0.037451
   9 C :   -0.087113
  10 H :    0.020313
  11 H :    0.023455
  12 C :   -0.035088
  13 H :    0.037230
  14 H :    0.041645
  15 H :    0.028477
  16 S :    0.116530
  17 C :   -0.061166
  18 C :   -0.044112
  19 C :    0.002458
  20 C :   -0.181492
  21 H :    0.031915
  22 C :    0.105888
  23 H :   -0.012744
  24 H :    0.034724
  25 C :   -0.141933
  26 H :    0.032312
  27 H :    0.035931
  28 C :   -0.025177
  29 H :    0.031884
  30 H :    0.045270
  31 H :    0.015096
  32 H :    0.014821
  33 H :    0.025076
Sum of atomic charges:   -0.0000000

LOEWDIN ATOMIC CHARGES
----------------------
   0 S :    0.421613
   1 C :   -0.186844
   2 C :   -0.061726
   3 C :   -0.050692
   4 C :   -0.207076
   5 H :    0.024672
   6 C :   -0.033476
   7 H :    0.031637
   8 H :    0.033157
   9 C :   -0.043548
  10 H :    0.021768
  11 H :    0.020954
  12 C :   -0.064210
  13 H :    0.031127
  14 H :    0.029981
  15 H :    0.019436
  16 S :    0.409927
  17 C :   -0.166424
  18 C :   -0.074313
  19 C :   -0.040917
  20 C :   -0.211592
  21 H :    0.036947
  22 C :   -0.025677
  23 H :    0.005055
  24 H :    0.039454
  25 C :   -0.042162
  26 H :    0.022532
  27 H :    0.021554
  28 C :   -0.063708
  29 H :    0.030124
  30 H :    0.034095
  31 H :    0.015093
  32 H :    0.009590
  33 H :    0.013649

  Mayer bond orders larger than 0.100000
B(  0-S ,  1-C ) :   1.1576 B(  0-S ,  4-C ) :   1.1551 B(  1-C ,  2-C ) :   1.5864
B(  1-C , 32-H ) :   0.9818 B(  2-C ,  3-C ) :   1.2377 B(  2-C ,  6-C ) :   1.0364
B(  3-C ,  4-C ) :   1.5841 B(  3-C ,  5-H ) :   1.0047 B(  4-C , 20-C ) :   1.0177
B(  6-C ,  7-H ) :   0.9370 B(  6-C ,  8-H ) :   0.9366 B(  6-C ,  9-C ) :   1.0710
B(  9-C , 10-H ) :   0.9608 B(  9-C , 11-H ) :   0.9627 B(  9-C , 12-C ) :   1.0541
B( 12-C , 13-H ) :   0.9811 B( 12-C , 14-H ) :   0.9776 B( 12-C , 15-H ) :   0.9792
B( 16-S , 17-C ) :   1.1659 B( 16-S , 20-C ) :   1.1478 B( 17-C , 18-C ) :   1.6215
B( 17-C , 33-H ) :   0.9706 B( 18-C , 19-C ) :   1.2312 B( 18-C , 21-H ) :   0.9862
B( 19-C , 20-C ) :   1.5791 B( 19-C , 22-C ) :   1.0472 B( 22-C , 23-H ) :   0.9375
B( 22-C , 24-H ) :   0.9360 B( 22-C , 25-C ) :   1.0436 B( 25-C , 26-H ) :   0.9561
B( 25-C , 27-H ) :   0.9605 B( 25-C , 28-C ) :   1.0824 B( 28-C , 29-H ) :   0.9723
B( 28-C , 30-H ) :   0.9736 B( 28-C , 31-H ) :   0.9730

Dispersion correction           -0.013529531
FINAL SINGLE POINT ENERGY     -1339.869889702587

DIPOLE MOMENT
-------------
                                X             Y             Z
Electronic contribution:     12.40278      -0.40020     -24.05746
Nuclear contribution   :    -12.65485       0.59054      24.58935
                        -----------------------------------------
Total Dipole Moment    :     -0.25207       0.19033       0.53189
                        -----------------------------------------
Magnitude (a.u.)       :      0.61861
Magnitude (Debye)      :      1.57237

Rotational constants in cm-1:     0.017622     0.007855     0.006465
Rotational constants in MHz :   528.305809   235.479620   193.804127

                             ****ORCA TERMINATED NORMALLY****
TOTAL RUN TIME: 0 days 0 hours 0 minutes 29 seconds 374 msec
