                         Program Version 4.2.1 -  RELEASE  -
|  1> ! wB97X-D3 SP def2-SVP
|  2> %pal
|  3> nprocs 16
|  4> end
|  5>
|  6> * xyz 0 1
|  7> S 	 -4.28009 	 8.15095 	 84.5836
|  8> C 	 -2.98924 	 7.0143 	 84.3436
|  9> C 	 -3.02279 	 6.37675 	 83.17
| 10> C 	 -3.98159 	 6.99673 	 82.3012
| 11> C 	 -4.69291 	 8.06534 	 82.924
| 12> H 	 -4.16622 	 6.66019 	 81.325
| 13> C 	 -2.07362 	 5.2446 	 82.8227
| 14> H 	 -1.25097 	 5.31162 	 83.6221
| 15> H 	 -1.51425 	 5.40373 	 81.9233
| 16> C 	 -2.53948 	 3.80891 	 83.0068
| 17> H 	 -2.73833 	 3.84934 	 84.0563
| 18> H 	 -3.46285 	 3.59653 	 82.3973
| 19> C 	 -1.53312 	 2.7299 	 82.5833
| 20> H 	 -0.47429 	 2.89458 	 82.9775
| 21> H 	 -1.89121 	 1.80432 	 82.9832
| 22> H 	 -1.42282 	 2.60397 	 81.4856
| 23> S 	 -6.9645 	 9.47084 	 83.2512
| 24> C 	 -7.53123 	 10.5268 	 82.0243
| 25> C 	 -6.55592 	 10.7938 	 81.1198
| 26> C 	 -5.47767 	 9.83838 	 81.1818
| 27> C 	 -5.62759 	 9.00126 	 82.2851
| 28> H 	 -6.64009 	 11.7189 	 80.4986
| 29> C 	 -4.3363 	 9.7536 	 80.213
| 30> H 	 -4.81168 	 9.96544 	 79.2874
| 31> H 	 -3.95599 	 8.76042 	 79.992
| 32> C 	 -3.22489 	 10.7345 	 80.4553
| 33> H 	 -2.85828 	 10.6136 	 81.4672
| 34> H 	 -3.58758 	 11.7656 	 80.3724
| 35> C 	 -1.97213 	 10.469 	 79.5891
| 36> H 	 -1.18516 	 11.2172 	 79.8333
| 37> H 	 -2.39742 	 10.4673 	 78.5622
| 38> H 	 -1.5453 	 9.45922 	 79.7398
| 39> H 	 -2.2012 	 6.77848 	 85.1139
| 40> H 	 -8.45339 	 11.1548 	 82.053
| 41> *
| 42>
| 43>                          ****END OF INPUT****

CARTESIAN COORDINATES (ANGSTROEM)
---------------------------------
  S     -4.280090    8.150950   84.583600
  C     -2.989240    7.014300   84.343600
  C     -3.022790    6.376750   83.170000
  C     -3.981590    6.996730   82.301200
  C     -4.692910    8.065340   82.924000
  H     -4.166220    6.660190   81.325000
  C     -2.073620    5.244600   82.822700
  H     -1.250970    5.311620   83.622100
  H     -1.514250    5.403730   81.923300
  C     -2.539480    3.808910   83.006800
  H     -2.738330    3.849340   84.056300
  H     -3.462850    3.596530   82.397300
  C     -1.533120    2.729900   82.583300
  H     -0.474290    2.894580   82.977500
  H     -1.891210    1.804320   82.983200
  H     -1.422820    2.603970   81.485600
  S     -6.964500    9.470840   83.251200
  C     -7.531230   10.526800   82.024300
  C     -6.555920   10.793800   81.119800
  C     -5.477670    9.838380   81.181800
  C     -5.627590    9.001260   82.285100
  H     -6.640090   11.718900   80.498600
  C     -4.336300    9.753600   80.213000
  H     -4.811680    9.965440   79.287400
  H     -3.955990    8.760420   79.992000
  C     -3.224890   10.734500   80.455300
  H     -2.858280   10.613600   81.467200
  H     -3.587580   11.765600   80.372400
  C     -1.972130   10.469000   79.589100
  H     -1.185160   11.217200   79.833300
  H     -2.397420   10.467300   78.562200
  H     -1.545300    9.459220   79.739800
  H     -2.201200    6.778480   85.113900
  H     -8.453390   11.154800   82.053000

 Total Charge           Charge          ....    0
 Multiplicity           Mult            ....    1
 Number of Electrons    NEL             ....  134
 Basis Dimension        Dim             ....  322

ORBITAL ENERGIES
----------------

  NO   OCC          E(Eh)            E(eV)
   0   2.0000     -88.968113     -2420.9454
   1   2.0000     -88.963535     -2420.8208
   2   2.0000     -10.331752      -281.1413
   3   2.0000     -10.323755      -280.9237
   4   2.0000     -10.314104      -280.6610
   5   2.0000     -10.310295      -280.5574
   6   2.0000     -10.304935      -280.4115
   7   2.0000     -10.296777      -280.1896
   8   2.0000     -10.296521      -280.1826
   9   2.0000     -10.294177      -280.1188
  10   2.0000     -10.292530      -280.0740
  11   2.0000     -10.289079      -279.9801
  12   2.0000     -10.286177      -279.9011
  13   2.0000     -10.283221      -279.8207
  14   2.0000     -10.282932      -279.8128
  15   2.0000     -10.280240      -279.7396
  16   2.0000      -8.083762      -219.9703
  17   2.0000      -8.079862      -219.8642
  18   2.0000      -6.042237      -164.4176
  19   2.0000      -6.038285      -164.3101
  20   2.0000      -6.038256      -164.3093
  21   2.0000      -6.034388      -164.2040
  22   2.0000      -6.034354      -164.2031
  23   2.0000      -6.030414      -164.0959
  24   2.0000      -1.015393       -27.6302
  25   2.0000      -0.993056       -27.0224
  26   2.0000      -0.915161       -24.9028
  27   2.0000      -0.913996       -24.8711
  28   2.0000      -0.873009       -23.7558
  29   2.0000      -0.851192       -23.1621
  30   2.0000      -0.846447       -23.0330
  31   2.0000      -0.813972       -22.1493
  32   2.0000      -0.784211       -21.3395
  33   2.0000      -0.772099       -21.0099
  34   2.0000      -0.704748       -19.1772
  35   2.0000      -0.694605       -18.9012
  36   2.0000      -0.691846       -18.8261
  37   2.0000      -0.660111       -17.9625
  38   2.0000      -0.634787       -17.2734
  39   2.0000      -0.622453       -16.9378
  40   2.0000      -0.599490       -16.3130
  41   2.0000      -0.575900       -15.6710
  42   2.0000      -0.564509       -15.3611
  43   2.0000      -0.558263       -15.1911
  44   2.0000      -0.532713       -14.4959
  45   2.0000      -0.522025       -14.2050
  46   2.0000      -0.519697       -14.1417
  47   2.0000      -0.508850       -13.8465
  48   2.0000      -0.505009       -13.7420
  49   2.0000      -0.495472       -13.4825
  50   2.0000      -0.494243       -13.4490
  51   2.0000      -0.479413       -13.0455
  52   2.0000      -0.472473       -12.8566
  53   2.0000      -0.463718       -12.6184
  54   2.0000      -0.456625       -12.4254
  55   2.0000      -0.451743       -12.2926
  56   2.0000      -0.448338       -12.1999
  57   2.0000      -0.435136       -11.8407
  58   2.0000      -0.433046       -11.7838
  59   2.0000      -0.432553       -11.7704
  60   2.0000      -0.426279       -11.5996
  61   2.0000      -0.410029       -11.1574
  62   2.0000      -0.402074       -10.9410
  63   2.0000      -0.354300        -9.6410
  64   2.0000      -0.332580        -9.0500
  65   2.0000      -0.327170        -8.9027
  66   2.0000      -0.286272        -7.7899
  67   0.0000       0.031319         0.8522
  68   0.0000       0.068693         1.8692
  69   0.0000       0.104638         2.8474
  70   0.0000       0.117567         3.1992
  71   0.0000       0.137873         3.7517

MULLIKEN ATOMIC CHARGES
-----------------------
   0 S :    0.124674
   1 C :   -0.152184
   2 C :   -0.048205
   3 C :    0.030878
   4 C :   -0.131961
   5 H :   -0.010570
   6 C :    0.026977
   7 H :    0.012547
   8 H :    0.021260
   9 C :   -0.057991
  10 H :    0.024113
  11 H :    0.039517
  12 C :   -0.056365
  13 H :    0.033184
  14 H :    0.034612
  15 H :    0.040714
  16 S :    0.097283
  17 C :   -0.095185
  18 C :   -0.058585
  19 C :   -0.048431
  20 C :   -0.147158
  21 H :    0.039702
  22 C :    0.099941
  23 H :    0.004120
  24 H :    0.008429
  25 C :   -0.070748
  26 H :    0.028310
  27 H :    0.027695
  28 C :   -0.063374
  29 H :    0.051419
  30 H :    0.028762
  31 H :    0.037464
  32 H :    0.060865
  33 H :    0.068290
Sum of atomic charges:   -0.0000000

LOEWDIN ATOMIC CHARGES
----------------------
   0 S :    0.422644
   1 C :   -0.207160
   2 C :   -0.069067
   3 C :   -0.058959
   4 C :   -0.200949
   5 H :    0.018141
   6 C :   -0.035960
   7 H :    0.034632
   8 H :    0.020556
   9 C :   -0.041668
  10 H :    0.023146
  11 H :    0.029598
  12 C :   -0.069106
  13 H :    0.028971
  14 H :    0.025312
  15 H :    0.029445
  16 S :    0.424406
  17 C :   -0.203529
  18 C :   -0.076714
  19 C :   -0.050500
  20 C :   -0.205896
  21 H :    0.041428
  22 C :   -0.035561
  23 H :    0.026805
  24 H :    0.029576
  25 C :   -0.040027
  26 H :    0.023530
  27 H :    0.023840
  28 C :   -0.068784
  29 H :    0.032779
  30 H :    0.025387
  31 H :    0.026389
  32 H :    0.037676
  33 H :    0.039618

  Mayer bond orders larger than 0.100000
B(  0-S ,  1-C ) :   1.1325 B(  0-S ,  4-C ) :   1.1652 B(  1-C ,  2-C ) :   1.6398
B(  1-C , 32-H ) :   0.9513 B(  2-C ,  3-C ) :   1.2408 B(  2-C ,  6-C ) :   1.0177
B(  3-C ,  4-C ) :   1.5404 B(  3-C ,  5-H ) :   1.0105 B(  4-C , 20-C ) :   1.0485
B(  6-C ,  7-H ) :   0.9435 B(  6-C ,  8-H ) :   0.9452 B(  6-C ,  9-C ) :   1.0467
B(  9-C , 10-H ) :   0.9568 B(  9-C , 11-H ) :   0.9557 B(  9-C , 12-C ) :   1.0813
B( 12-C , 13-H ) :   0.9731 B( 12-C , 14-H ) :   0.9735 B( 12-C , 15-H ) :   0.9740
B( 16-S , 17-C ) :   1.1562 B( 16-S , 20-C ) :   1.1437 B( 17-C , 18-C ) :   1.6276
B( 17-C , 33-H ) :   0.9612 B( 18-C , 19-C ) :   1.2421 B( 18-C , 21-H ) :   0.9814
B( 19-C , 20-C ) :   1.5830 B( 19-C , 22-C ) :   1.0365 B( 22-C , 23-H ) :   0.9126
B( 22-C , 24-H ) :   0.9392 B( 22-C , 25-C ) :   1.0647 B( 25-C , 26-H ) :   0.9574
B( 25-C , 27-H ) :   0.9533 B( 25-C , 28-C ) :   1.0775 B( 28-C , 29-H ) :   0.9739
B( 28-C , 30-H ) :   0.9748 B( 28-C , 31-H ) :   0.9749

Dispersion correction           -0.013762210
FINAL SINGLE POINT ENERGY     -1339.864172444878

DIPOLE MOMENT
-------------
                                X             Y             Z
Electronic contribution:    -21.53350      11.67718      15.23325
Nuclear contribution   :     21.91123     -11.70205     -15.62278
                        -----------------------------------------
Total Dipole Moment    :      0.37773      -0.02487      -0.38952
                        -----------------------------------------
Magnitude (a.u.)       :      0.54317
Magnitude (Debye)      :      1.38062

Rotational constants in cm-1:     0.019452     0.007954     0.006434
Rotational constants in MHz :   583.144985   238.462021   192.874939

                             ****ORCA TERMINATED NORMALLY****
TOTAL RUN TIME: 0 days 0 hours 0 minutes 33 seconds 517 msec
