                         Program Version 4.2.1 -  RELEASE  -
|  1> ! wB97X-D3 SP def2-SVP
|  2> %pal
|  3> nprocs 16
|  4> end
|  5>
|  6> * xyz 0 1
|  7> S 	 22.899 	 -0.779644 	 85.643
|  8> C 	 23.7945 	 0.69797 	 85.9903
|  9> C 	 23.099 	 1.85555 	 85.5804
| 10> C 	 21.7345 	 1.54558 	 85.3208
| 11> C 	 21.4776 	 0.16091 	 85.2936
| 12> H 	 20.9496 	 2.30855 	 85.0756
| 13> C 	 23.6922 	 3.28948 	 85.6518
| 14> H 	 23.4214 	 3.80212 	 84.8007
| 15> H 	 24.7636 	 3.22748 	 85.5141
| 16> C 	 23.5975 	 4.0852 	 86.9293
| 17> H 	 22.5903 	 4.03118 	 87.2679
| 18> H 	 24.0933 	 3.62223 	 87.7106
| 19> C 	 24.0383 	 5.50731 	 86.7425
| 20> H 	 25.1779 	 5.65505 	 86.6024
| 21> H 	 23.5925 	 6.06237 	 85.8932
| 22> H 	 23.7821 	 6.01236 	 87.6392
| 23> S 	 19.2664 	 -0.965939 	 86.4309
| 24> C 	 17.9859 	 -1.57685 	 85.4033
| 25> C 	 18.2222 	 -1.24032 	 84.0605
| 26> C 	 19.4958 	 -0.589723 	 83.8898
| 27> C 	 20.1981 	 -0.483657 	 85.0418
| 28> H 	 17.5055 	 -1.43949 	 83.341
| 29> C 	 19.901 	 0.0674392 	 82.5154
| 30> H 	 20.1011 	 1.08568 	 82.7104
| 31> H 	 19.0317 	 0.0711799 	 81.8051
| 32> C 	 20.9679 	 -0.656882 	 81.7207
| 33> H 	 20.694 	 -1.70477 	 81.3083
| 34> H 	 21.7969 	 -0.858713 	 82.38
| 35> C 	 21.7091 	 0.238302 	 80.6821
| 36> H 	 22.3864 	 -0.371638 	 80.0649
| 37> H 	 22.2148 	 1.1072 	 81.0713
| 38> H 	 21.0033 	 0.738684 	 80.0564
| 39> H 	 24.8695 	 0.719556 	 86.2495
| 40> H 	 17.1084 	 -2.10919 	 85.6906
| 41> *
| 42>
| 43>                          ****END OF INPUT****

CARTESIAN COORDINATES (ANGSTROEM)
---------------------------------
  S     22.899000   -0.779644   85.643000
  C     23.794500    0.697970   85.990300
  C     23.099000    1.855550   85.580400
  C     21.734500    1.545580   85.320800
  C     21.477600    0.160910   85.293600
  H     20.949600    2.308550   85.075600
  C     23.692200    3.289480   85.651800
  H     23.421400    3.802120   84.800700
  H     24.763600    3.227480   85.514100
  C     23.597500    4.085200   86.929300
  H     22.590300    4.031180   87.267900
  H     24.093300    3.622230   87.710600
  C     24.038300    5.507310   86.742500
  H     25.177900    5.655050   86.602400
  H     23.592500    6.062370   85.893200
  H     23.782100    6.012360   87.639200
  S     19.266400   -0.965939   86.430900
  C     17.985900   -1.576850   85.403300
  C     18.222200   -1.240320   84.060500
  C     19.495800   -0.589723   83.889800
  C     20.198100   -0.483657   85.041800
  H     17.505500   -1.439490   83.341000
  C     19.901000    0.067439   82.515400
  H     20.101100    1.085680   82.710400
  H     19.031700    0.071180   81.805100
  C     20.967900   -0.656882   81.720700
  H     20.694000   -1.704770   81.308300
  H     21.796900   -0.858713   82.380000
  C     21.709100    0.238302   80.682100
  H     22.386400   -0.371638   80.064900
  H     22.214800    1.107200   81.071300
  H     21.003300    0.738684   80.056400
  H     24.869500    0.719556   86.249500
  H     17.108400   -2.109190   85.690600

 Total Charge           Charge          ....    0
 Multiplicity           Mult            ....    1
 Number of Electrons    NEL             ....  134
 Basis Dimension        Dim             ....  322

ORBITAL ENERGIES
----------------

  NO   OCC          E(Eh)            E(eV)
   0   2.0000     -88.971606     -2421.0405
   1   2.0000     -88.964981     -2420.8602
   2   2.0000     -10.329048      -281.0677
   3   2.0000     -10.318885      -280.7911
   4   2.0000     -10.318784      -280.7884
   5   2.0000     -10.316387      -280.7232
   6   2.0000     -10.306697      -280.4595
   7   2.0000     -10.302601      -280.3480
   8   2.0000     -10.302120      -280.3349
   9   2.0000     -10.293696      -280.1057
  10   2.0000     -10.290430      -280.0168
  11   2.0000     -10.286216      -279.9022
  12   2.0000     -10.284925      -279.8670
  13   2.0000     -10.283338      -279.8239
  14   2.0000     -10.276108      -279.6271
  15   2.0000     -10.272769      -279.5363
  16   2.0000      -8.085751      -220.0245
  17   2.0000      -8.079803      -219.8626
  18   2.0000      -6.044125      -164.4690
  19   2.0000      -6.040333      -164.3658
  20   2.0000      -6.038342      -164.3116
  21   2.0000      -6.036702      -164.2670
  22   2.0000      -6.034302      -164.2017
  23   2.0000      -6.030521      -164.0988
  24   2.0000      -1.005478       -27.3604
  25   2.0000      -0.980766       -26.6880
  26   2.0000      -0.918034       -24.9810
  27   2.0000      -0.901494       -24.5309
  28   2.0000      -0.867811       -23.6143
  29   2.0000      -0.849621       -23.1194
  30   2.0000      -0.845142       -22.9975
  31   2.0000      -0.809862       -22.0375
  32   2.0000      -0.784240       -21.3403
  33   2.0000      -0.772065       -21.0090
  34   2.0000      -0.710499       -19.3337
  35   2.0000      -0.700150       -19.0520
  36   2.0000      -0.689656       -18.7665
  37   2.0000      -0.666632       -18.1400
  38   2.0000      -0.640549       -17.4302
  39   2.0000      -0.617976       -16.8160
  40   2.0000      -0.591573       -16.0975
  41   2.0000      -0.570584       -15.5264
  42   2.0000      -0.562367       -15.3028
  43   2.0000      -0.555138       -15.1061
  44   2.0000      -0.531200       -14.4547
  45   2.0000      -0.527547       -14.3553
  46   2.0000      -0.516616       -14.0578
  47   2.0000      -0.511464       -13.9177
  48   2.0000      -0.497506       -13.5378
  49   2.0000      -0.494045       -13.4436
  50   2.0000      -0.490175       -13.3383
  51   2.0000      -0.476733       -12.9726
  52   2.0000      -0.472719       -12.8633
  53   2.0000      -0.466398       -12.6913
  54   2.0000      -0.459113       -12.4931
  55   2.0000      -0.454101       -12.3567
  56   2.0000      -0.446930       -12.1616
  57   2.0000      -0.443318       -12.0633
  58   2.0000      -0.435618       -11.8538
  59   2.0000      -0.428863       -11.6699
  60   2.0000      -0.416713       -11.3393
  61   2.0000      -0.409869       -11.1531
  62   2.0000      -0.397902       -10.8275
  63   2.0000      -0.338761        -9.2182
  64   2.0000      -0.328696        -8.9443
  65   2.0000      -0.321250        -8.7417
  66   2.0000      -0.308102        -8.3839
  67   0.0000       0.037737         1.0269
  68   0.0000       0.056992         1.5508
  69   0.0000       0.108256         2.9458
  70   0.0000       0.112385         3.0582
  71   0.0000       0.135849         3.6966

MULLIKEN ATOMIC CHARGES
-----------------------
   0 S :    0.137689
   1 C :   -0.136007
   2 C :   -0.097789
   3 C :    0.037095
   4 C :   -0.191977
   5 H :    0.036217
   6 C :    0.083568
   7 H :   -0.000204
   8 H :    0.002924
   9 C :    0.007265
  10 H :    0.010196
  11 H :    0.006107
  12 C :   -0.071138
  13 H :    0.039337
  14 H :    0.036396
  15 H :    0.029679
  16 S :    0.123523
  17 C :   -0.086387
  18 C :   -0.022555
  19 C :   -0.004757
  20 C :   -0.186425
  21 H :   -0.006788
  22 C :    0.096950
  23 H :    0.015013
  24 H :    0.023649
  25 C :   -0.097479
  26 H :    0.046536
  27 H :    0.025097
  28 C :   -0.036816
  29 H :    0.039802
  30 H :    0.026692
  31 H :    0.005865
  32 H :    0.060966
  33 H :    0.047755
Sum of atomic charges:    0.0000000

LOEWDIN ATOMIC CHARGES
----------------------
   0 S :    0.421812
   1 C :   -0.201394
   2 C :   -0.060177
   3 C :   -0.063254
   4 C :   -0.206827
   5 H :    0.040774
   6 C :   -0.027531
   7 H :    0.018348
   8 H :    0.029865
   9 C :   -0.034204
  10 H :    0.020923
  11 H :    0.019004
  12 C :   -0.066841
  13 H :    0.033113
  14 H :    0.027835
  15 H :    0.023849
  16 S :    0.415535
  17 C :   -0.180765
  18 C :   -0.061132
  19 C :   -0.048962
  20 C :   -0.215619
  21 H :    0.018797
  22 C :   -0.024950
  23 H :    0.023863
  24 H :    0.034078
  25 C :   -0.050868
  26 H :    0.035613
  27 H :    0.019028
  28 C :   -0.064971
  29 H :    0.029865
  30 H :    0.024451
  31 H :    0.013931
  32 H :    0.031694
  33 H :    0.025121

  Mayer bond orders larger than 0.100000
B(  0-S ,  1-C ) :   1.1545 B(  0-S ,  4-C ) :   1.1685 B(  1-C ,  2-C ) :   1.5857
B(  1-C ,  4-C ) :   0.1074 B(  1-C , 32-H ) :   0.9623 B(  2-C ,  3-C ) :   1.2592
B(  2-C ,  6-C ) :   1.0274 B(  3-C ,  4-C ) :   1.5643 B(  3-C ,  5-H ) :   0.9832
B(  4-C , 20-C ) :   1.0091 B(  6-C ,  7-H ) :   0.9393 B(  6-C ,  8-H ) :   0.9343
B(  6-C ,  9-C ) :   1.0645 B(  9-C , 10-H ) :   0.9508 B(  9-C , 11-H ) :   0.9449
B(  9-C , 12-C ) :   1.0838 B( 12-C , 13-H ) :   0.9735 B( 12-C , 14-H ) :   0.9754
B( 12-C , 15-H ) :   0.9711 B( 16-S , 17-C ) :   1.1566 B( 16-S , 20-C ) :   1.1462
B( 17-C , 18-C ) :   1.6092 B( 17-C , 33-H ) :   0.9710 B( 18-C , 19-C ) :   1.2388
B( 18-C , 21-H ) :   1.0008 B( 19-C , 20-C ) :   1.6301 B( 19-C , 22-C ) :   1.0217
B( 22-C , 23-H ) :   0.9390 B( 22-C , 24-H ) :   0.9376 B( 22-C , 25-C ) :   1.0603
B( 25-C , 26-H ) :   0.9549 B( 25-C , 27-H ) :   0.9603 B( 25-C , 28-C ) :   1.0705
B( 28-C , 29-H ) :   0.9751 B( 28-C , 30-H ) :   0.9749 B( 28-C , 31-H ) :   0.9737

Dispersion correction           -0.014240908
FINAL SINGLE POINT ENERGY     -1339.860870724678

DIPOLE MOMENT
-------------
                                X             Y             Z
Electronic contribution:     -9.71046     -20.67524      12.98650
Nuclear contribution   :      9.73442      21.21739     -13.24780
                        -----------------------------------------
Total Dipole Moment    :      0.02396       0.54215      -0.26130
                        -----------------------------------------
Magnitude (a.u.)       :      0.60232
Magnitude (Debye)      :      1.53096

Rotational constants in cm-1:     0.018205     0.008028     0.006845
Rotational constants in MHz :   545.773039   240.682195   205.195623

                             ****ORCA TERMINATED NORMALLY****
TOTAL RUN TIME: 0 days 0 hours 0 minutes 32 seconds 440 msec
