                         Program Version 4.2.1 -  RELEASE  -
|  1> ! wB97X-D3 SP def2-SVP
|  2> %pal
|  3> nprocs 16
|  4> end
|  5>
|  6> * xyz 0 1
|  7> S 	 9.47114 	 21.8017 	 42.3313
|  8> C 	 9.1112 	 23.1107 	 41.1889
|  9> C 	 8.26651 	 22.8099 	 40.1497
| 10> C 	 8.05479 	 21.3967 	 40.1366
| 11> C 	 8.65666 	 20.715 	 41.1967
| 12> H 	 7.40984 	 20.9202 	 39.4061
| 13> C 	 7.95196 	 23.8229 	 39.0969
| 14> H 	 8.41525 	 24.7445 	 39.3287
| 15> H 	 6.90099 	 24.1996 	 39.0263
| 16> C 	 8.23157 	 23.4781 	 37.6756
| 17> H 	 9.30881 	 23.2736 	 37.7171
| 18> H 	 7.71288 	 22.6205 	 37.3538
| 19> C 	 8.01792 	 24.5688 	 36.5922
| 20> H 	 7.07855 	 25.1472 	 36.6527
| 21> H 	 8.74816 	 25.4505 	 36.6737
| 22> H 	 8.13223 	 24.1406 	 35.582
| 23> S 	 7.97095 	 18.9468 	 43.179
| 24> C 	 8.12116 	 17.1957 	 42.8792
| 25> C 	 8.42189 	 16.9644 	 41.5179
| 26> C 	 8.5919 	 18.1413 	 40.7637
| 27> C 	 8.4565 	 19.2972 	 41.481
| 28> H 	 8.53297 	 15.9346 	 41.2035
| 29> C 	 8.90066 	 18.0575 	 39.2336
| 30> H 	 9.71502 	 17.3226 	 39.0428
| 31> H 	 9.3841 	 19.0556 	 38.9733
| 32> C 	 7.67282 	 17.6699 	 38.4352
| 33> H 	 6.73818 	 17.9177 	 38.9308
| 34> H 	 7.62159 	 16.6116 	 38.4319
| 35> C 	 7.7713 	 18.1719 	 36.9436
| 36> H 	 8.75204 	 17.9932 	 36.4411
| 37> H 	 7.69491 	 19.2519 	 36.9674
| 38> H 	 7.05182 	 17.8176 	 36.224
| 39> H 	 9.52069 	 24.1407 	 41.3528
| 40> H 	 7.83101 	 16.4712 	 43.5538
| 41> *
| 42>
| 43>                          ****END OF INPUT****

CARTESIAN COORDINATES (ANGSTROEM)
---------------------------------
  S      9.471140   21.801700   42.331300
  C      9.111200   23.110700   41.188900
  C      8.266510   22.809900   40.149700
  C      8.054790   21.396700   40.136600
  C      8.656660   20.715000   41.196700
  H      7.409840   20.920200   39.406100
  C      7.951960   23.822900   39.096900
  H      8.415250   24.744500   39.328700
  H      6.900990   24.199600   39.026300
  C      8.231570   23.478100   37.675600
  H      9.308810   23.273600   37.717100
  H      7.712880   22.620500   37.353800
  C      8.017920   24.568800   36.592200
  H      7.078550   25.147200   36.652700
  H      8.748160   25.450500   36.673700
  H      8.132230   24.140600   35.582000
  S      7.970950   18.946800   43.179000
  C      8.121160   17.195700   42.879200
  C      8.421890   16.964400   41.517900
  C      8.591900   18.141300   40.763700
  C      8.456500   19.297200   41.481000
  H      8.532970   15.934600   41.203500
  C      8.900660   18.057500   39.233600
  H      9.715020   17.322600   39.042800
  H      9.384100   19.055600   38.973300
  C      7.672820   17.669900   38.435200
  H      6.738180   17.917700   38.930800
  H      7.621590   16.611600   38.431900
  C      7.771300   18.171900   36.943600
  H      8.752040   17.993200   36.441100
  H      7.694910   19.251900   36.967400
  H      7.051820   17.817600   36.224000
  H      9.520690   24.140700   41.352800
  H      7.831010   16.471200   43.553800

 Total Charge           Charge          ....    0
 Multiplicity           Mult            ....    1
 Number of Electrons    NEL             ....  134
 Basis Dimension        Dim             ....  322

ORBITAL ENERGIES
----------------

  NO   OCC          E(Eh)            E(eV)
   0   2.0000     -88.973421     -2421.0899
   1   2.0000     -88.963993     -2420.8333
   2   2.0000     -10.334361      -281.2123
   3   2.0000     -10.328899      -281.0636
   4   2.0000     -10.319367      -280.8042
   5   2.0000     -10.317058      -280.7414
   6   2.0000     -10.303402      -280.3698
   7   2.0000     -10.303122      -280.3622
   8   2.0000     -10.299529      -280.2644
   9   2.0000     -10.299461      -280.2626
  10   2.0000     -10.296150      -280.1725
  11   2.0000     -10.290844      -280.0281
  12   2.0000     -10.289832      -280.0006
  13   2.0000     -10.287473      -279.9364
  14   2.0000     -10.284054      -279.8433
  15   2.0000     -10.282697      -279.8064
  16   2.0000      -8.087263      -220.0656
  17   2.0000      -8.077581      -219.8022
  18   2.0000      -6.045790      -164.5143
  19   2.0000      -6.042107      -164.4141
  20   2.0000      -6.037833      -164.2978
  21   2.0000      -6.036128      -164.2514
  22   2.0000      -6.032303      -164.1473
  23   2.0000      -6.028314      -164.0388
  24   2.0000      -1.002929       -27.2911
  25   2.0000      -0.979318       -26.6486
  26   2.0000      -0.919646       -25.0248
  27   2.0000      -0.903887       -24.5960
  28   2.0000      -0.867942       -23.6179
  29   2.0000      -0.850848       -23.1527
  30   2.0000      -0.842660       -22.9299
  31   2.0000      -0.812299       -22.1038
  32   2.0000      -0.782551       -21.2943
  33   2.0000      -0.773407       -21.0455
  34   2.0000      -0.712634       -19.3918
  35   2.0000      -0.703806       -19.1515
  36   2.0000      -0.692176       -18.8351
  37   2.0000      -0.665035       -18.0965
  38   2.0000      -0.642238       -17.4762
  39   2.0000      -0.624128       -16.9834
  40   2.0000      -0.593143       -16.1402
  41   2.0000      -0.574198       -15.6247
  42   2.0000      -0.563998       -15.3472
  43   2.0000      -0.558376       -15.1942
  44   2.0000      -0.527173       -14.3451
  45   2.0000      -0.526683       -14.3318
  46   2.0000      -0.520194       -14.1552
  47   2.0000      -0.510526       -13.8921
  48   2.0000      -0.499476       -13.5914
  49   2.0000      -0.491236       -13.3672
  50   2.0000      -0.486800       -13.2465
  51   2.0000      -0.481833       -13.1113
  52   2.0000      -0.468655       -12.7527
  53   2.0000      -0.463350       -12.6084
  54   2.0000      -0.456545       -12.4232
  55   2.0000      -0.448724       -12.2104
  56   2.0000      -0.446445       -12.1484
  57   2.0000      -0.444070       -12.0838
  58   2.0000      -0.437088       -11.8938
  59   2.0000      -0.434279       -11.8173
  60   2.0000      -0.417478       -11.3601
  61   2.0000      -0.412504       -11.2248
  62   2.0000      -0.409062       -11.1311
  63   2.0000      -0.347344        -9.4517
  64   2.0000      -0.337441        -9.1822
  65   2.0000      -0.332379        -9.0445
  66   2.0000      -0.287840        -7.8325
  67   0.0000       0.025948         0.7061
  68   0.0000       0.061864         1.6834
  69   0.0000       0.101670         2.7666
  70   0.0000       0.121965         3.3188
  71   0.0000       0.125476         3.4144

MULLIKEN ATOMIC CHARGES
-----------------------
   0 S :    0.122557
   1 C :   -0.152296
   2 C :   -0.026769
   3 C :    0.010384
   4 C :   -0.132336
   5 H :    0.015976
   6 C :    0.090084
   7 H :   -0.006417
   8 H :    0.022149
   9 C :   -0.078403
  10 H :    0.032097
  11 H :    0.027373
  12 C :   -0.086665
  13 H :    0.030905
  14 H :    0.033175
  15 H :    0.048056
  16 S :    0.079637
  17 C :   -0.076015
  18 C :   -0.039606
  19 C :   -0.029430
  20 C :   -0.157653
  21 H :    0.021802
  22 C :    0.023043
  23 H :    0.036358
  24 H :    0.042766
  25 C :   -0.031761
  26 H :    0.038267
  27 H :    0.017235
  28 C :   -0.065632
  29 H :    0.033013
  30 H :    0.024580
  31 H :    0.034751
  32 H :    0.061950
  33 H :    0.036825
Sum of atomic charges:   -0.0000000

LOEWDIN ATOMIC CHARGES
----------------------
   0 S :    0.393016
   1 C :   -0.183355
   2 C :   -0.062310
   3 C :   -0.053330
   4 C :   -0.188334
   5 H :    0.031396
   6 C :   -0.037418
   7 H :    0.024245
   8 H :    0.034348
   9 C :   -0.042097
  10 H :    0.029193
  11 H :    0.016636
  12 C :   -0.074980
  13 H :    0.024072
  14 H :    0.030755
  15 H :    0.032229
  16 S :    0.366916
  17 C :   -0.163309
  18 C :   -0.066706
  19 C :   -0.062069
  20 C :   -0.176239
  21 H :    0.032347
  22 C :   -0.031345
  23 H :    0.033702
  24 H :    0.034358
  25 C :   -0.039400
  26 H :    0.026655
  27 H :    0.019990
  28 C :   -0.069040
  29 H :    0.030535
  30 H :    0.021145
  31 H :    0.023050
  32 H :    0.032522
  33 H :    0.012824

  Mayer bond orders larger than 0.100000
B(  0-S ,  1-C ) :   1.1317 B(  0-S ,  4-C ) :   1.1367 B(  1-C ,  2-C ) :   1.6233
B(  1-C , 32-H ) :   0.9554 B(  2-C ,  3-C ) :   1.2308 B(  2-C ,  6-C ) :   1.0386
B(  3-C ,  4-C ) :   1.5655 B(  3-C ,  5-H ) :   0.9951 B(  4-C , 20-C ) :   1.0493
B(  6-C ,  7-H ) :   0.9378 B(  6-C ,  8-H ) :   0.9202 B(  6-C ,  9-C ) :   1.0620
B(  9-C , 10-H ) :   0.9556 B(  9-C , 11-H ) :   0.9536 B(  9-C , 12-C ) :   1.0809
B( 12-C , 13-H ) :   0.9741 B( 12-C , 14-H ) :   0.9741 B( 12-C , 15-H ) :   0.9757
B( 16-S , 17-C ) :   1.1456 B( 16-S , 20-C ) :   1.1254 B( 17-C , 18-C ) :   1.6058
B( 17-C , 20-C ) :   0.1077 B( 17-C , 33-H ) :   0.9774 B( 18-C , 19-C ) :   1.2311
B( 18-C , 21-H ) :   0.9930 B( 19-C , 20-C ) :   1.6278 B( 19-C , 22-C ) :   1.0296
B( 22-C , 23-H ) :   0.9383 B( 22-C , 24-H ) :   0.9485 B( 22-C , 25-C ) :   1.0353
B( 25-C , 26-H ) :   0.9639 B( 25-C , 27-H ) :   0.9504 B( 25-C , 28-C ) :   1.0689
B( 28-C , 29-H ) :   0.9744 B( 28-C , 30-H ) :   0.9803 B( 28-C , 31-H ) :   0.9772

Dispersion correction           -0.014133244
FINAL SINGLE POINT ENERGY     -1339.869021649147

DIPOLE MOMENT
-------------
                                X             Y             Z
Electronic contribution:      4.21096      -5.34669      32.78186
Nuclear contribution   :     -4.34197       5.33407     -33.46708
                        -----------------------------------------
Total Dipole Moment    :     -0.13101      -0.01261      -0.68522
                        -----------------------------------------
Magnitude (a.u.)       :      0.69775
Magnitude (Debye)      :      1.77353

Rotational constants in cm-1:     0.017506     0.009195     0.006326
Rotational constants in MHz :   524.803661   275.650661   189.651754

                             ****ORCA TERMINATED NORMALLY****
TOTAL RUN TIME: 0 days 0 hours 0 minutes 33 seconds 254 msec
