                         Program Version 4.2.1 -  RELEASE  -
|  1> ! wB97X-D3 SP def2-SVP
|  2> %pal
|  3> nprocs 16
|  4> end
|  5>
|  6> * xyz 0 1
|  7> S 	 -39.6062 	 27.7771 	 91.4082
|  8> C 	 -39.4618 	 26.0596 	 91.203
|  9> C 	 -40.3827 	 25.5044 	 90.3735
| 10> C 	 -41.12 	 26.5349 	 89.7034
| 11> C 	 -40.7297 	 27.8071 	 90.0473
| 12> H 	 -41.8681 	 26.404 	 88.9568
| 13> C 	 -40.6182 	 24.0107 	 90.073
| 14> H 	 -39.8783 	 23.679 	 89.3378
| 15> H 	 -41.5785 	 23.8503 	 89.6409
| 16> C 	 -40.5958 	 23.1509 	 91.332
| 17> H 	 -40.5987 	 22.1301 	 90.8953
| 18> H 	 -39.692 	 23.3164 	 91.8053
| 19> C 	 -41.8549 	 23.426 	 92.1746
| 20> H 	 -42.053 	 24.4257 	 92.5256
| 21> H 	 -42.711 	 23.0919 	 91.6603
| 22> H 	 -41.8572 	 22.8778 	 93.1145
| 23> S 	 -42.0176 	 30.1947 	 90.5809
| 24> C 	 -42.5401 	 31.2482 	 89.261
| 25> C 	 -42.1464 	 30.612 	 88.0949
| 26> C 	 -41.4615 	 29.356 	 88.148
| 27> C 	 -41.2713 	 29.0106 	 89.455
| 28> H 	 -42.3966 	 31.1314 	 87.2119
| 29> C 	 -40.9706 	 28.5506 	 86.9102
| 30> H 	 -41.3921 	 29.0148 	 85.9838
| 31> H 	 -41.4355 	 27.5154 	 86.8807
| 32> C 	 -39.4387 	 28.3827 	 86.7702
| 33> H 	 -39.3042 	 27.5611 	 86.1257
| 34> H 	 -39.1006 	 28.0977 	 87.7418
| 35> C 	 -38.6575 	 29.5816 	 86.2041
| 36> H 	 -37.5985 	 29.3793 	 86.0887
| 37> H 	 -38.6365 	 30.4887 	 86.761
| 38> H 	 -39.0032 	 29.7894 	 85.1505
| 39> H 	 -38.8662 	 25.532 	 91.8594
| 40> H 	 -42.8498 	 32.2826 	 89.3854
| 41> *
| 42>
| 43>                          ****END OF INPUT****

CARTESIAN COORDINATES (ANGSTROEM)
---------------------------------
  S    -39.606200   27.777100   91.408200
  C    -39.461800   26.059600   91.203000
  C    -40.382700   25.504400   90.373500
  C    -41.120000   26.534900   89.703400
  C    -40.729700   27.807100   90.047300
  H    -41.868100   26.404000   88.956800
  C    -40.618200   24.010700   90.073000
  H    -39.878300   23.679000   89.337800
  H    -41.578500   23.850300   89.640900
  C    -40.595800   23.150900   91.332000
  H    -40.598700   22.130100   90.895300
  H    -39.692000   23.316400   91.805300
  C    -41.854900   23.426000   92.174600
  H    -42.053000   24.425700   92.525600
  H    -42.711000   23.091900   91.660300
  H    -41.857200   22.877800   93.114500
  S    -42.017600   30.194700   90.580900
  C    -42.540100   31.248200   89.261000
  C    -42.146400   30.612000   88.094900
  C    -41.461500   29.356000   88.148000
  C    -41.271300   29.010600   89.455000
  H    -42.396600   31.131400   87.211900
  C    -40.970600   28.550600   86.910200
  H    -41.392100   29.014800   85.983800
  H    -41.435500   27.515400   86.880700
  C    -39.438700   28.382700   86.770200
  H    -39.304200   27.561100   86.125700
  H    -39.100600   28.097700   87.741800
  C    -38.657500   29.581600   86.204100
  H    -37.598500   29.379300   86.088700
  H    -38.636500   30.488700   86.761000
  H    -39.003200   29.789400   85.150500
  H    -38.866200   25.532000   91.859400
  H    -42.849800   32.282600   89.385400

 Total Charge           Charge          ....    0
 Multiplicity           Mult            ....    1
 Number of Electrons    NEL             ....  134
 Basis Dimension        Dim             ....  322

ORBITAL ENERGIES
----------------

  NO   OCC          E(Eh)            E(eV)
   0   2.0000     -88.966585     -2420.9039
   1   2.0000     -88.958739     -2420.6904
   2   2.0000     -10.326064      -280.9865
   3   2.0000     -10.325748      -280.9779
   4   2.0000     -10.317757      -280.7604
   5   2.0000     -10.306443      -280.4526
   6   2.0000     -10.304657      -280.4040
   7   2.0000     -10.303372      -280.3690
   8   2.0000     -10.300166      -280.2818
   9   2.0000     -10.291266      -280.0396
  10   2.0000     -10.291011      -280.0327
  11   2.0000     -10.290831      -280.0278
  12   2.0000     -10.285401      -279.8800
  13   2.0000     -10.280298      -279.7411
  14   2.0000     -10.275002      -279.5970
  15   2.0000     -10.272143      -279.5192
  16   2.0000      -8.081526      -219.9095
  17   2.0000      -8.072919      -219.6753
  18   2.0000      -6.039963      -164.3557
  19   2.0000      -6.036207      -164.2536
  20   2.0000      -6.032157      -164.1433
  21   2.0000      -6.031534      -164.1264
  22   2.0000      -6.027453      -164.0153
  23   2.0000      -6.023643      -163.9116
  24   2.0000      -1.006214       -27.3805
  25   2.0000      -0.981624       -26.7113
  26   2.0000      -0.916031       -24.9265
  27   2.0000      -0.901449       -24.5297
  28   2.0000      -0.869610       -23.6633
  29   2.0000      -0.850475       -23.1426
  30   2.0000      -0.841350       -22.8943
  31   2.0000      -0.810015       -22.0416
  32   2.0000      -0.785486       -21.3742
  33   2.0000      -0.778356       -21.1801
  34   2.0000      -0.714397       -19.4397
  35   2.0000      -0.706382       -19.2216
  36   2.0000      -0.689617       -18.7654
  37   2.0000      -0.663902       -18.0657
  38   2.0000      -0.647232       -17.6121
  39   2.0000      -0.611178       -16.6310
  40   2.0000      -0.591949       -16.1078
  41   2.0000      -0.579693       -15.7742
  42   2.0000      -0.557371       -15.1668
  43   2.0000      -0.552312       -15.0292
  44   2.0000      -0.541631       -14.7385
  45   2.0000      -0.533456       -14.5161
  46   2.0000      -0.513462       -13.9720
  47   2.0000      -0.510265       -13.8850
  48   2.0000      -0.501924       -13.6580
  49   2.0000      -0.491041       -13.3619
  50   2.0000      -0.486363       -13.2346
  51   2.0000      -0.484043       -13.1715
  52   2.0000      -0.474992       -12.9252
  53   2.0000      -0.465077       -12.6554
  54   2.0000      -0.461532       -12.5589
  55   2.0000      -0.448457       -12.2031
  56   2.0000      -0.439077       -11.9479
  57   2.0000      -0.434635       -11.8270
  58   2.0000      -0.433330       -11.7915
  59   2.0000      -0.430348       -11.7104
  60   2.0000      -0.420467       -11.4415
  61   2.0000      -0.415370       -11.3028
  62   2.0000      -0.412418       -11.2225
  63   2.0000      -0.345468        -9.4007
  64   2.0000      -0.332061        -9.0358
  65   2.0000      -0.328861        -8.9488
  66   2.0000      -0.294091        -8.0026
  67   0.0000       0.026713         0.7269
  68   0.0000       0.069971         1.9040
  69   0.0000       0.108683         2.9574
  70   0.0000       0.125244         3.4081
  71   0.0000       0.134257         3.6533

MULLIKEN ATOMIC CHARGES
-----------------------
   0 S :    0.115044
   1 C :   -0.108427
   2 C :   -0.065406
   3 C :    0.027737
   4 C :   -0.158271
   5 H :    0.000371
   6 C :    0.074684
   7 H :    0.045057
   8 H :    0.007084
   9 C :   -0.048877
  10 H :    0.032587
  11 H :    0.014540
  12 C :   -0.032351
  13 H :    0.039398
  14 H :    0.016229
  15 H :    0.025330
  16 S :    0.077361
  17 C :   -0.101124
  18 C :   -0.038188
  19 C :    0.005312
  20 C :   -0.167417
  21 H :   -0.001682
  22 C :    0.029355
  23 H :    0.017070
  24 H :    0.038822
  25 C :   -0.013608
  26 H :    0.014929
  27 H :    0.032861
  28 C :   -0.053174
  29 H :    0.027035
  30 H :    0.035051
  31 H :    0.026004
  32 H :    0.015219
  33 H :    0.071443
Sum of atomic charges:    0.0000000

LOEWDIN ATOMIC CHARGES
----------------------
   0 S :    0.402742
   1 C :   -0.183993
   2 C :   -0.058640
   3 C :   -0.049525
   4 C :   -0.193948
   5 H :    0.025992
   6 C :   -0.024420
   7 H :    0.034585
   8 H :    0.022786
   9 C :   -0.030483
  10 H :    0.032112
  11 H :    0.009098
  12 C :   -0.062584
  13 H :    0.028369
  14 H :    0.020308
  15 H :    0.027409
  16 S :    0.368377
  17 C :   -0.187416
  18 C :   -0.064728
  19 C :   -0.063326
  20 C :   -0.174453
  21 H :    0.020101
  22 C :   -0.031037
  23 H :    0.029659
  24 H :    0.036511
  25 C :   -0.030991
  26 H :    0.021064
  27 H :    0.023704
  28 C :   -0.068378
  29 H :    0.026951
  30 H :    0.022300
  31 H :    0.028450
  32 H :    0.006968
  33 H :    0.036435

  Mayer bond orders larger than 0.100000
B(  0-S ,  1-C ) :   1.1400 B(  0-S ,  4-C ) :   1.1320 B(  1-C ,  2-C ) :   1.6253
B(  1-C , 32-H ) :   0.9758 B(  2-C ,  3-C ) :   1.2237 B(  2-C ,  6-C ) :   1.0029
B(  3-C ,  4-C ) :   1.5851 B(  3-C ,  5-H ) :   1.0028 B(  4-C , 20-C ) :   1.0444
B(  6-C ,  7-H ) :   0.9380 B(  6-C ,  8-H ) :   0.9450 B(  6-C ,  9-C ) :   1.0778
B(  9-C , 10-H ) :   0.9546 B(  9-C , 11-H ) :   0.9598 B(  9-C , 12-C ) :   1.0717
B( 12-C , 13-H ) :   0.9773 B( 12-C , 14-H ) :   0.9728 B( 12-C , 15-H ) :   0.9731
B( 16-S , 17-C ) :   1.1278 B( 16-S , 20-C ) :   1.1439 B( 17-C , 18-C ) :   1.6219
B( 17-C , 20-C ) :   0.1033 B( 17-C , 33-H ) :   0.9678 B( 18-C , 19-C ) :   1.2243
B( 18-C , 21-H ) :   0.9907 B( 19-C , 20-C ) :   1.6091 B( 19-C , 22-C ) :   1.0310
B( 22-C , 23-H ) :   0.9354 B( 22-C , 24-H ) :   0.9384 B( 22-C , 25-C ) :   1.0692
B( 25-C , 26-H ) :   0.9512 B( 25-C , 27-H ) :   0.9565 B( 25-C , 28-C ) :   1.0785
B( 28-C , 29-H ) :   0.9729 B( 28-C , 30-H ) :   0.9785 B( 28-C , 31-H ) :   0.9728

Dispersion correction           -0.014776753
FINAL SINGLE POINT ENERGY     -1339.876545919868

DIPOLE MOMENT
-------------
                                X             Y             Z
Electronic contribution:     -3.20224      17.10497      12.03815
Nuclear contribution   :      3.20784     -17.62702     -12.49876
                        -----------------------------------------
Total Dipole Moment    :      0.00560      -0.52205      -0.46062
                        -----------------------------------------
Magnitude (a.u.)       :      0.69623
Magnitude (Debye)      :      1.76968

Rotational constants in cm-1:     0.020775     0.008336     0.007096
Rotational constants in MHz :   622.808483   249.893600   212.718663

                             ****ORCA TERMINATED NORMALLY****
TOTAL RUN TIME: 0 days 0 hours 0 minutes 30 seconds 651 msec
