                         Program Version 4.2.1 -  RELEASE  -
|  1> ! wB97X-D3 SP def2-SVP
|  2> %pal
|  3> nprocs 16
|  4> end
|  5>
|  6> * xyz 0 1
|  7> S 	 -36.8613 	 50.3184 	 100.01
|  8> C 	 -35.398 	 51.3001 	 100.142
|  9> C 	 -35.1691 	 51.5549 	 101.512
| 10> C 	 -36.083 	 50.7953 	 102.357
| 11> C 	 -36.9416 	 49.9803 	 101.655
| 12> H 	 -36.1219 	 50.8174 	 103.514
| 13> C 	 -34.1696 	 52.5035 	 102.143
| 14> H 	 -33.5824 	 52.9168 	 101.313
| 15> H 	 -33.4064 	 52.12 	 102.863
| 16> C 	 -34.7495 	 53.6815 	 102.87
| 17> H 	 -35.3071 	 53.2506 	 103.72
| 18> H 	 -33.9947 	 54.3478 	 103.242
| 19> C 	 -35.6927 	 54.4311 	 101.868
| 20> H 	 -35.1406 	 54.8882 	 101.012
| 21> H 	 -36.5472 	 53.8666 	 101.51
| 22> H 	 -36.0119 	 55.3893 	 102.16
| 23> S 	 -38.281 	 47.6393 	 101.042
| 24> C 	 -39.4503 	 46.9708 	 102.158
| 25> C 	 -39.7335 	 47.854 	 103.12
| 26> C 	 -38.8993 	 49.0534 	 103.101
| 27> C 	 -38.0491 	 49.0924 	 102.017
| 28> H 	 -40.4002 	 47.7199 	 103.941
| 29> C 	 -38.9946 	 50.1748 	 104.113
| 30> H 	 -40.0255 	 50.5634 	 103.97
| 31> H 	 -38.4297 	 50.9799 	 103.792
| 32> C 	 -38.5729 	 49.9393 	 105.59
| 33> H 	 -37.539 	 49.5983 	 105.862
| 34> H 	 -39.2448 	 49.2604 	 106.065
| 35> C 	 -38.6161 	 51.2868 	 106.402
| 36> H 	 -39.4685 	 51.9098 	 106.274
| 37> H 	 -37.759 	 51.9066 	 105.987
| 38> H 	 -38.5842 	 51.1616 	 107.515
| 39> H 	 -34.9403 	 51.8051 	 99.3265
| 40> H 	 -39.8933 	 46.0064 	 102.19
| 41> *
| 42>
| 43>                          ****END OF INPUT****

CARTESIAN COORDINATES (ANGSTROEM)
---------------------------------
  S    -36.861300   50.318400  100.010000
  C    -35.398000   51.300100  100.142000
  C    -35.169100   51.554900  101.512000
  C    -36.083000   50.795300  102.357000
  C    -36.941600   49.980300  101.655000
  H    -36.121900   50.817400  103.514000
  C    -34.169600   52.503500  102.143000
  H    -33.582400   52.916800  101.313000
  H    -33.406400   52.120000  102.863000
  C    -34.749500   53.681500  102.870000
  H    -35.307100   53.250600  103.720000
  H    -33.994700   54.347800  103.242000
  C    -35.692700   54.431100  101.868000
  H    -35.140600   54.888200  101.012000
  H    -36.547200   53.866600  101.510000
  H    -36.011900   55.389300  102.160000
  S    -38.281000   47.639300  101.042000
  C    -39.450300   46.970800  102.158000
  C    -39.733500   47.854000  103.120000
  C    -38.899300   49.053400  103.101000
  C    -38.049100   49.092400  102.017000
  H    -40.400200   47.719900  103.941000
  C    -38.994600   50.174800  104.113000
  H    -40.025500   50.563400  103.970000
  H    -38.429700   50.979900  103.792000
  C    -38.572900   49.939300  105.590000
  H    -37.539000   49.598300  105.862000
  H    -39.244800   49.260400  106.065000
  C    -38.616100   51.286800  106.402000
  H    -39.468500   51.909800  106.274000
  H    -37.759000   51.906600  105.987000
  H    -38.584200   51.161600  107.515000
  H    -34.940300   51.805100   99.326500
  H    -39.893300   46.006400  102.190000

 Total Charge           Charge          ....    0
 Multiplicity           Mult            ....    1
 Number of Electrons    NEL             ....  134
 Basis Dimension        Dim             ....  322

ORBITAL ENERGIES
----------------

  NO   OCC          E(Eh)            E(eV)
   0   2.0000     -88.964446     -2420.8456
   1   2.0000     -88.964200     -2420.8390
   2   2.0000     -10.329167      -281.0709
   3   2.0000     -10.328402      -281.0501
   4   2.0000     -10.318279      -280.7746
   5   2.0000     -10.315122      -280.6887
   6   2.0000     -10.312007      -280.6040
   7   2.0000     -10.304587      -280.4021
   8   2.0000     -10.303343      -280.3682
   9   2.0000     -10.296449      -280.1806
  10   2.0000     -10.292955      -280.0856
  11   2.0000     -10.292011      -280.0599
  12   2.0000     -10.291266      -280.0396
  13   2.0000     -10.289445      -279.9900
  14   2.0000     -10.286517      -279.9104
  15   2.0000     -10.272171      -279.5200
  16   2.0000      -8.080395      -219.8787
  17   2.0000      -8.078871      -219.8373
  18   2.0000      -6.038850      -164.3255
  19   2.0000      -6.037636      -164.2924
  20   2.0000      -6.034687      -164.2122
  21   2.0000      -6.033357      -164.1760
  22   2.0000      -6.031142      -164.1157
  23   2.0000      -6.029353      -164.0670
  24   2.0000      -1.013507       -27.5789
  25   2.0000      -0.987163       -26.8621
  26   2.0000      -0.918488       -24.9933
  27   2.0000      -0.907176       -24.6855
  28   2.0000      -0.872086       -23.7307
  29   2.0000      -0.850099       -23.1324
  30   2.0000      -0.836622       -22.7656
  31   2.0000      -0.818344       -22.2683
  32   2.0000      -0.785311       -21.3694
  33   2.0000      -0.774150       -21.0657
  34   2.0000      -0.713070       -19.4036
  35   2.0000      -0.704849       -19.1799
  36   2.0000      -0.696980       -18.9658
  37   2.0000      -0.660397       -17.9703
  38   2.0000      -0.643138       -17.5007
  39   2.0000      -0.619915       -16.8687
  40   2.0000      -0.601540       -16.3687
  41   2.0000      -0.574474       -15.6322
  42   2.0000      -0.563767       -15.3409
  43   2.0000      -0.549302       -14.9473
  44   2.0000      -0.546183       -14.8624
  45   2.0000      -0.529983       -14.4216
  46   2.0000      -0.518299       -14.1036
  47   2.0000      -0.512731       -13.9521
  48   2.0000      -0.503530       -13.7018
  49   2.0000      -0.501042       -13.6341
  50   2.0000      -0.493213       -13.4210
  51   2.0000      -0.476899       -12.9771
  52   2.0000      -0.469778       -12.7833
  53   2.0000      -0.466045       -12.6817
  54   2.0000      -0.456234       -12.4148
  55   2.0000      -0.448695       -12.2096
  56   2.0000      -0.444691       -12.1006
  57   2.0000      -0.440574       -11.9886
  58   2.0000      -0.426385       -11.6025
  59   2.0000      -0.422514       -11.4972
  60   2.0000      -0.421192       -11.4612
  61   2.0000      -0.413206       -11.2439
  62   2.0000      -0.410276       -11.1642
  63   2.0000      -0.357533        -9.7290
  64   2.0000      -0.328876        -8.9492
  65   2.0000      -0.327759        -8.9188
  66   2.0000      -0.294796        -8.0218
  67   0.0000       0.028076         0.7640
  68   0.0000       0.075198         2.0462
  69   0.0000       0.101740         2.7685
  70   0.0000       0.114540         3.1168
  71   0.0000       0.121598         3.3088

MULLIKEN ATOMIC CHARGES
-----------------------
   0 S :    0.093156
   1 C :   -0.091193
   2 C :   -0.104953
   3 C :   -0.025604
   4 C :   -0.110361
   5 H :    0.045234
   6 C :    0.052120
   7 H :    0.010482
   8 H :    0.044091
   9 C :   -0.059914
  10 H :    0.031120
  11 H :    0.032609
  12 C :   -0.056112
  13 H :    0.013701
  14 H :    0.057897
  15 H :    0.003834
  16 S :    0.098444
  17 C :   -0.052448
  18 C :   -0.001145
  19 C :   -0.075687
  20 C :   -0.126188
  21 H :    0.004774
  22 C :    0.076964
  23 H :    0.041985
  24 H :   -0.016286
  25 C :   -0.057077
  26 H :    0.047161
  27 H :    0.022381
  28 C :   -0.094691
  29 H :    0.020637
  30 H :    0.036790
  31 H :    0.046852
  32 H :    0.043292
  33 H :    0.048136
Sum of atomic charges:   -0.0000000

LOEWDIN ATOMIC CHARGES
----------------------
   0 S :    0.432230
   1 C :   -0.191437
   2 C :   -0.053419
   3 C :   -0.085736
   4 C :   -0.204518
   5 H :    0.043443
   6 C :   -0.041602
   7 H :    0.026546
   8 H :    0.036175
   9 C :   -0.034115
  10 H :    0.022681
  11 H :    0.025380
  12 C :   -0.075714
  13 H :    0.030610
  14 H :    0.029532
  15 H :    0.015991
  16 S :    0.392901
  17 C :   -0.173749
  18 C :   -0.066917
  19 C :   -0.052992
  20 C :   -0.199813
  21 H :    0.026170
  22 C :   -0.032410
  23 H :    0.045182
  24 H :    0.016685
  25 C :   -0.038323
  26 H :    0.034879
  27 H :    0.015200
  28 C :   -0.074501
  29 H :    0.014647
  30 H :    0.028982
  31 H :    0.032454
  32 H :    0.023634
  33 H :    0.031923

  Mayer bond orders larger than 0.100000
B(  0-S ,  1-C ) :   1.1349 B(  0-S ,  4-C ) :   1.1851 B(  1-C ,  2-C ) :   1.5898
B(  1-C ,  4-C ) :   0.1005 B(  1-C , 32-H ) :   0.9759 B(  2-C ,  3-C ) :   1.2305
B(  2-C ,  6-C ) :   1.0276 B(  3-C ,  4-C ) :   1.5828 B(  3-C ,  5-H ) :   0.9765
B(  4-C , 20-C ) :   1.0004 B(  6-C ,  7-H ) :   0.9395 B(  6-C ,  8-H ) :   0.9462
B(  6-C ,  9-C ) :   1.0740 B(  9-C , 10-H ) :   0.9544 B(  9-C , 11-H ) :   0.9552
B(  9-C , 12-C ) :   1.0699 B( 12-C , 13-H ) :   0.9682 B( 12-C , 14-H ) :   0.9750
B( 12-C , 15-H ) :   0.9703 B( 16-S , 17-C ) :   1.1309 B( 16-S , 20-C ) :   1.1157
B( 17-C , 18-C ) :   1.6323 B( 17-C , 33-H ) :   0.9692 B( 18-C , 19-C ) :   1.2213
B( 18-C , 21-H ) :   0.9926 B( 19-C , 20-C ) :   1.6386 B( 19-C , 22-C ) :   1.0453
B( 22-C , 23-H ) :   0.9283 B( 22-C , 24-H ) :   0.9355 B( 22-C , 25-C ) :   1.0470
B( 25-C , 26-H ) :   0.9613 B( 25-C , 27-H ) :   0.9580 B( 25-C , 28-C ) :   1.0667
B( 28-C , 29-H ) :   0.9767 B( 28-C , 30-H ) :   0.9774 B( 28-C , 31-H ) :   0.9758

Dispersion correction           -0.014668817
FINAL SINGLE POINT ENERGY     -1339.856931068711

DIPOLE MOMENT
-------------
                                X             Y             Z
Electronic contribution:     -4.25615     -21.89173     -21.46020
Nuclear contribution   :      4.18252      22.31727      22.11457
                        -----------------------------------------
Total Dipole Moment    :     -0.07363       0.42554       0.65437
                        -----------------------------------------
Magnitude (a.u.)       :      0.78403
Magnitude (Debye)      :      1.99285

Rotational constants in cm-1:     0.017514     0.010066     0.006827
Rotational constants in MHz :   525.069552   301.772849   204.659739

                             ****ORCA TERMINATED NORMALLY****
TOTAL RUN TIME: 0 days 0 hours 0 minutes 30 seconds 774 msec
