                         Program Version 4.2.1 -  RELEASE  -
|  1> ! wB97X-D3 SP def2-SVP
|  2> %pal
|  3> nprocs 16
|  4> end
|  5>
|  6> * xyz 0 1
|  7> S 	 12.9456 	 -6.98855 	 64.7319
|  8> C 	 13.1541 	 -6.21732 	 63.2271
|  9> C 	 14.0857 	 -5.21772 	 63.3267
| 10> C 	 14.6439 	 -5.02157 	 64.6536
| 11> C 	 14.2625 	 -6.03195 	 65.4807
| 12> H 	 15.3294 	 -4.281 	 65.0197
| 13> C 	 14.263 	 -4.16106 	 62.2603
| 14> H 	 14.0554 	 -4.78135 	 61.3805
| 15> H 	 15.3259 	 -4.00685 	 62.1663
| 16> C 	 13.2456 	 -2.96185 	 62.4201
| 17> H 	 12.34 	 -3.2317 	 61.849
| 18> H 	 12.9256 	 -2.9017 	 63.456
| 19> C 	 13.9126 	 -1.66963 	 61.9058
| 20> H 	 13.2274 	 -0.854374 	 62.0006
| 21> H 	 14.8927 	 -1.55993 	 62.4115
| 22> H 	 14.2088 	 -1.73872 	 60.8666
| 23> S 	 15.6159 	 -7.60926 	 67.3418
| 24> C 	 15.8603 	 -7.07967 	 68.9965
| 25> C 	 15.2283 	 -5.9122 	 69.0829
| 26> C 	 14.521 	 -5.39453 	 67.9559
| 27> C 	 14.6948 	 -6.16494 	 66.8642
| 28> H 	 15.3904 	 -5.34239 	 70.064
| 29> C 	 13.7773 	 -4.00984 	 67.9962
| 30> H 	 13.5324 	 -3.7158 	 66.9773
| 31> H 	 14.5386 	 -3.27145 	 68.2758
| 32> C 	 12.484 	 -3.82892 	 68.8041
| 33> H 	 12.2087 	 -2.74498 	 68.6477
| 34> H 	 12.8337 	 -3.88557 	 69.8344
| 35> C 	 11.375 	 -4.72537 	 68.3436
| 36> H 	 10.484 	 -4.41899 	 69.0009
| 37> H 	 11.5155 	 -5.83324 	 68.4097
| 38> H 	 11.2483 	 -4.45658 	 67.2414
| 39> H 	 12.5554 	 -6.16969 	 62.3615
| 40> H 	 16.4308 	 -7.51117 	 69.8253
| 41> *
| 42>
| 43>                          ****END OF INPUT****

CARTESIAN COORDINATES (ANGSTROEM)
---------------------------------
  S     12.945600   -6.988550   64.731900
  C     13.154100   -6.217320   63.227100
  C     14.085700   -5.217720   63.326700
  C     14.643900   -5.021570   64.653600
  C     14.262500   -6.031950   65.480700
  H     15.329400   -4.281000   65.019700
  C     14.263000   -4.161060   62.260300
  H     14.055400   -4.781350   61.380500
  H     15.325900   -4.006850   62.166300
  C     13.245600   -2.961850   62.420100
  H     12.340000   -3.231700   61.849000
  H     12.925600   -2.901700   63.456000
  C     13.912600   -1.669630   61.905800
  H     13.227400   -0.854374   62.000600
  H     14.892700   -1.559930   62.411500
  H     14.208800   -1.738720   60.866600
  S     15.615900   -7.609260   67.341800
  C     15.860300   -7.079670   68.996500
  C     15.228300   -5.912200   69.082900
  C     14.521000   -5.394530   67.955900
  C     14.694800   -6.164940   66.864200
  H     15.390400   -5.342390   70.064000
  C     13.777300   -4.009840   67.996200
  H     13.532400   -3.715800   66.977300
  H     14.538600   -3.271450   68.275800
  C     12.484000   -3.828920   68.804100
  H     12.208700   -2.744980   68.647700
  H     12.833700   -3.885570   69.834400
  C     11.375000   -4.725370   68.343600
  H     10.484000   -4.418990   69.000900
  H     11.515500   -5.833240   68.409700
  H     11.248300   -4.456580   67.241400
  H     12.555400   -6.169690   62.361500
  H     16.430800   -7.511170   69.825300

 Total Charge           Charge          ....    0
 Multiplicity           Mult            ....    1
 Number of Electrons    NEL             ....  134
 Basis Dimension        Dim             ....  322

ORBITAL ENERGIES
----------------

  NO   OCC          E(Eh)            E(eV)
   0   2.0000     -88.967255     -2420.9221
   1   2.0000     -88.957685     -2420.6617
   2   2.0000     -10.330247      -281.1003
   3   2.0000     -10.326335      -280.9939
   4   2.0000     -10.315039      -280.6865
   5   2.0000     -10.306410      -280.4517
   6   2.0000     -10.303339      -280.3681
   7   2.0000     -10.296416      -280.1797
   8   2.0000     -10.295324      -280.1500
   9   2.0000     -10.294521      -280.1282
  10   2.0000     -10.291730      -280.0522
  11   2.0000     -10.291333      -280.0414
  12   2.0000     -10.288788      -279.9721
  13   2.0000     -10.288359      -279.9605
  14   2.0000     -10.287701      -279.9426
  15   2.0000     -10.280543      -279.7478
  16   2.0000      -8.081855      -219.9185
  17   2.0000      -8.072408      -219.6614
  18   2.0000      -6.040497      -164.3703
  19   2.0000      -6.036433      -164.2597
  20   2.0000      -6.032401      -164.1500
  21   2.0000      -6.031097      -164.1145
  22   2.0000      -6.026897      -164.0002
  23   2.0000      -6.022938      -163.8925
  24   2.0000      -1.009728       -27.4761
  25   2.0000      -0.989901       -26.9366
  26   2.0000      -0.908802       -24.7298
  27   2.0000      -0.906182       -24.6585
  28   2.0000      -0.877672       -23.8827
  29   2.0000      -0.849296       -23.1105
  30   2.0000      -0.840790       -22.8791
  31   2.0000      -0.823003       -22.3951
  32   2.0000      -0.777614       -21.1600
  33   2.0000      -0.768637       -20.9157
  34   2.0000      -0.711543       -19.3621
  35   2.0000      -0.707722       -19.2581
  36   2.0000      -0.688383       -18.7319
  37   2.0000      -0.651133       -17.7182
  38   2.0000      -0.644600       -17.5405
  39   2.0000      -0.614430       -16.7195
  40   2.0000      -0.593621       -16.1532
  41   2.0000      -0.570180       -15.5154
  42   2.0000      -0.555307       -15.1107
  43   2.0000      -0.548550       -14.9268
  44   2.0000      -0.543608       -14.7923
  45   2.0000      -0.532940       -14.5020
  46   2.0000      -0.518786       -14.1169
  47   2.0000      -0.513123       -13.9628
  48   2.0000      -0.509528       -13.8650
  49   2.0000      -0.500386       -13.6162
  50   2.0000      -0.491311       -13.3692
  51   2.0000      -0.481126       -13.0921
  52   2.0000      -0.469707       -12.7814
  53   2.0000      -0.462320       -12.5804
  54   2.0000      -0.457135       -12.4393
  55   2.0000      -0.450345       -12.2545
  56   2.0000      -0.443760       -12.0753
  57   2.0000      -0.435381       -11.8473
  58   2.0000      -0.424825       -11.5601
  59   2.0000      -0.417248       -11.3539
  60   2.0000      -0.414909       -11.2902
  61   2.0000      -0.413731       -11.2582
  62   2.0000      -0.403284       -10.9739
  63   2.0000      -0.347041        -9.4435
  64   2.0000      -0.329686        -8.9712
  65   2.0000      -0.326029        -8.8717
  66   2.0000      -0.306229        -8.3329
  67   0.0000       0.041301         1.1239
  68   0.0000       0.060935         1.6581
  69   0.0000       0.114492         3.1155
  70   0.0000       0.124319         3.3829
  71   0.0000       0.133312         3.6276

MULLIKEN ATOMIC CHARGES
-----------------------
   0 S :    0.121700
   1 C :   -0.064258
   2 C :   -0.165205
   3 C :    0.045009
   4 C :   -0.145087
   5 H :    0.019075
   6 C :    0.050752
   7 H :    0.014370
   8 H :    0.025381
   9 C :   -0.043853
  10 H :    0.031944
  11 H :    0.039871
  12 C :   -0.040111
  13 H :    0.035716
  14 H :    0.036961
  15 H :    0.027706
  16 S :    0.083818
  17 C :   -0.083748
  18 C :   -0.074493
  19 C :    0.001907
  20 C :   -0.197196
  21 H :    0.036157
  22 C :    0.041383
  23 H :    0.004326
  24 H :    0.030493
  25 C :   -0.061922
  26 H :    0.037372
  27 H :    0.025645
  28 C :   -0.079959
  29 H :    0.050243
  30 H :    0.060233
  31 H :    0.041190
  32 H :    0.029555
  33 H :    0.065024
Sum of atomic charges:    0.0000000

LOEWDIN ATOMIC CHARGES
----------------------
   0 S :    0.408698
   1 C :   -0.211520
   2 C :   -0.066154
   3 C :   -0.051188
   4 C :   -0.180444
   5 H :    0.034146
   6 C :   -0.040178
   7 H :    0.030272
   8 H :    0.026976
   9 C :   -0.031769
  10 H :    0.027840
  11 H :    0.023569
  12 C :   -0.063607
  13 H :    0.022127
  14 H :    0.029955
  15 H :    0.025489
  16 S :    0.380294
  17 C :   -0.185666
  18 C :   -0.089206
  19 C :   -0.062945
  20 C :   -0.186836
  21 H :    0.038443
  22 C :   -0.033945
  23 H :    0.021177
  24 H :    0.031500
  25 C :   -0.049819
  26 H :    0.034092
  27 H :    0.018803
  28 C :   -0.076598
  29 H :    0.037494
  30 H :    0.032859
  31 H :    0.035564
  32 H :    0.026476
  33 H :    0.044103

  Mayer bond orders larger than 0.100000
B(  0-S ,  1-C ) :   1.1280 B(  0-S ,  4-C ) :   1.1359 B(  1-C ,  2-C ) :   1.6369
B(  1-C , 32-H ) :   0.9651 B(  2-C ,  3-C ) :   1.2045 B(  2-C ,  6-C ) :   1.0341
B(  3-C ,  4-C ) :   1.6041 B(  3-C ,  5-H ) :   1.0004 B(  4-C , 20-C ) :   1.0255
B(  6-C ,  7-H ) :   0.9355 B(  6-C ,  8-H ) :   0.9489 B(  6-C ,  9-C ) :   1.0183
B(  9-C , 10-H ) :   0.9518 B(  9-C , 11-H ) :   0.9687 B(  9-C , 12-C ) :   1.0744
B( 12-C , 13-H ) :   0.9744 B( 12-C , 14-H ) :   0.9798 B( 12-C , 15-H ) :   0.9737
B( 16-S , 17-C ) :   1.1238 B( 16-S , 20-C ) :   1.1283 B( 17-C , 18-C ) :   1.6651
B( 17-C , 33-H ) :   0.9652 B( 18-C , 19-C ) :   1.2071 B( 18-C , 21-H ) :   0.9705
B( 19-C , 20-C ) :   1.6419 B( 19-C , 22-C ) :   1.0195 B( 22-C , 23-H ) :   0.9337
B( 22-C , 24-H ) :   0.9386 B( 22-C , 25-C ) :   1.0800 B( 25-C , 26-H ) :   0.9509
B( 25-C , 27-H ) :   0.9543 B( 25-C , 28-C ) :   1.0640 B( 28-C , 29-H ) :   0.9714
B( 28-C , 30-H ) :   0.9746 B( 28-C , 31-H ) :   0.9697

Dispersion correction           -0.014872402
FINAL SINGLE POINT ENERGY     -1339.859424208597

DIPOLE MOMENT
-------------
                                X             Y             Z
Electronic contribution:      8.56399     -24.67653       5.15255
Nuclear contribution   :     -8.62547      25.53979      -5.14361
                        -----------------------------------------
Total Dipole Moment    :     -0.06148       0.86326       0.00894
                        -----------------------------------------
Magnitude (a.u.)       :      0.86550
Magnitude (Debye)      :      2.19991

Rotational constants in cm-1:     0.019209     0.008457     0.007287
Rotational constants in MHz :   575.856844   253.536813   218.459171

                             ****ORCA TERMINATED NORMALLY****
TOTAL RUN TIME: 0 days 0 hours 0 minutes 33 seconds 177 msec
