                         Program Version 4.2.1 -  RELEASE  -
|  1> ! wB97X-D3 SP def2-SVP
|  2> %pal
|  3> nprocs 16
|  4> end
|  5>
|  6> * xyz 0 1
|  7> S 	 -5.67854 	 75.5817 	 47.4329
|  8> C 	 -5.65805 	 76.9514 	 48.4952
|  9> C 	 -6.85328 	 77.0818 	 49.2116
| 10> C 	 -7.71912 	 75.9168 	 48.9706
| 11> C 	 -7.17335 	 75.0042 	 48.1198
| 12> H 	 -8.67745 	 75.7988 	 49.4339
| 13> C 	 -7.01149 	 78.1622 	 50.2561
| 14> H 	 -6.47167 	 79.1199 	 49.8914
| 15> H 	 -6.6786 	 77.8812 	 51.2023
| 16> C 	 -8.39536 	 78.5508 	 50.5523
| 17> H 	 -8.93457 	 78.783 	 49.629
| 18> H 	 -8.84596 	 77.593 	 50.9295
| 19> C 	 -8.61658 	 79.7091 	 51.5199
| 20> H 	 -7.80838 	 79.6381 	 52.2467
| 21> H 	 -8.49465 	 80.7104 	 51.0506
| 22> H 	 -9.54944 	 79.7034 	 52.0863
| 23> S 	 -6.95557 	 72.303 	 48.2972
| 24> C 	 -8.41122 	 71.4507 	 48.0032
| 25> C 	 -9.43828 	 72.0922 	 47.3608
| 26> C 	 -9.13627 	 73.4645 	 47.3131
| 27> C 	 -7.81584 	 73.7469 	 47.781
| 28> H 	 -10.3333 	 71.5302 	 47.1448
| 29> C 	 -10.1385 	 74.5198 	 46.7411
| 30> H 	 -10.6204 	 74.1144 	 45.8706
| 31> H 	 -9.71536 	 75.4674 	 46.3372
| 32> C 	 -11.2283 	 75.0097 	 47.6936
| 33> H 	 -10.7288 	 75.4276 	 48.5503
| 34> H 	 -11.8421 	 74.193 	 48.1655
| 35> C 	 -12.265 	 75.9402 	 46.9853
| 36> H 	 -11.8198 	 76.9452 	 46.9733
| 37> H 	 -13.2475 	 76.0102 	 47.5117
| 38> H 	 -12.2809 	 75.488 	 45.9567
| 39> H 	 -4.83345 	 77.6707 	 48.6666
| 40> H 	 -8.48126 	 70.4012 	 48.2136
| 41> *
| 42>
| 43>                          ****END OF INPUT****

CARTESIAN COORDINATES (ANGSTROEM)
---------------------------------
  S     -5.678540   75.581700   47.432900
  C     -5.658050   76.951400   48.495200
  C     -6.853280   77.081800   49.211600
  C     -7.719120   75.916800   48.970600
  C     -7.173350   75.004200   48.119800
  H     -8.677450   75.798800   49.433900
  C     -7.011490   78.162200   50.256100
  H     -6.471670   79.119900   49.891400
  H     -6.678600   77.881200   51.202300
  C     -8.395360   78.550800   50.552300
  H     -8.934570   78.783000   49.629000
  H     -8.845960   77.593000   50.929500
  C     -8.616580   79.709100   51.519900
  H     -7.808380   79.638100   52.246700
  H     -8.494650   80.710400   51.050600
  H     -9.549440   79.703400   52.086300
  S     -6.955570   72.303000   48.297200
  C     -8.411220   71.450700   48.003200
  C     -9.438280   72.092200   47.360800
  C     -9.136270   73.464500   47.313100
  C     -7.815840   73.746900   47.781000
  H    -10.333300   71.530200   47.144800
  C    -10.138500   74.519800   46.741100
  H    -10.620400   74.114400   45.870600
  H     -9.715360   75.467400   46.337200
  C    -11.228300   75.009700   47.693600
  H    -10.728800   75.427600   48.550300
  H    -11.842100   74.193000   48.165500
  C    -12.265000   75.940200   46.985300
  H    -11.819800   76.945200   46.973300
  H    -13.247500   76.010200   47.511700
  H    -12.280900   75.488000   45.956700
  H     -4.833450   77.670700   48.666600
  H     -8.481260   70.401200   48.213600

 Total Charge           Charge          ....    0
 Multiplicity           Mult            ....    1
 Number of Electrons    NEL             ....  134
 Basis Dimension        Dim             ....  322

ORBITAL ENERGIES
----------------

  NO   OCC          E(Eh)            E(eV)
   0   2.0000     -88.970696     -2421.0157
   1   2.0000     -88.965744     -2420.8810
   2   2.0000     -10.326940      -281.0103
   3   2.0000     -10.324623      -280.9473
   4   2.0000     -10.314083      -280.6605
   5   2.0000     -10.313523      -280.6452
   6   2.0000     -10.312506      -280.6175
   7   2.0000     -10.302830      -280.3542
   8   2.0000     -10.295143      -280.1451
   9   2.0000     -10.293680      -280.1053
  10   2.0000     -10.293308      -280.0952
  11   2.0000     -10.289858      -280.0013
  12   2.0000     -10.287747      -279.9438
  13   2.0000     -10.285866      -279.8927
  14   2.0000     -10.283214      -279.8205
  15   2.0000     -10.281934      -279.7856
  16   2.0000      -8.086128      -220.0347
  17   2.0000      -8.080758      -219.8886
  18   2.0000      -6.044219      -164.4716
  19   2.0000      -6.040779      -164.3779
  20   2.0000      -6.039284      -164.3373
  21   2.0000      -6.037045      -164.2763
  22   2.0000      -6.035247      -164.2274
  23   2.0000      -6.031474      -164.1248
  24   2.0000      -1.008377       -27.4393
  25   2.0000      -0.985655       -26.8210
  26   2.0000      -0.922344       -25.0983
  27   2.0000      -0.906412       -24.6647
  28   2.0000      -0.871746       -23.7214
  29   2.0000      -0.853506       -23.2251
  30   2.0000      -0.845010       -22.9939
  31   2.0000      -0.812744       -22.1159
  32   2.0000      -0.783280       -21.3141
  33   2.0000      -0.769130       -20.9291
  34   2.0000      -0.707139       -19.2422
  35   2.0000      -0.692955       -18.8563
  36   2.0000      -0.681373       -18.5411
  37   2.0000      -0.660026       -17.9602
  38   2.0000      -0.639539       -17.4027
  39   2.0000      -0.621887       -16.9224
  40   2.0000      -0.603938       -16.4340
  41   2.0000      -0.582544       -15.8518
  42   2.0000      -0.567073       -15.4308
  43   2.0000      -0.557661       -15.1747
  44   2.0000      -0.526247       -14.3199
  45   2.0000      -0.518938       -14.1210
  46   2.0000      -0.517508       -14.0821
  47   2.0000      -0.505754       -13.7623
  48   2.0000      -0.502986       -13.6869
  49   2.0000      -0.494065       -13.4442
  50   2.0000      -0.489781       -13.3276
  51   2.0000      -0.479289       -13.0421
  52   2.0000      -0.470195       -12.7947
  53   2.0000      -0.464534       -12.6406
  54   2.0000      -0.464298       -12.6342
  55   2.0000      -0.459392       -12.5007
  56   2.0000      -0.449448       -12.2301
  57   2.0000      -0.438334       -11.9277
  58   2.0000      -0.427839       -11.6421
  59   2.0000      -0.426403       -11.6030
  60   2.0000      -0.419666       -11.4197
  61   2.0000      -0.410371       -11.1668
  62   2.0000      -0.407331       -11.0840
  63   2.0000      -0.346705        -9.4343
  64   2.0000      -0.333466        -9.0741
  65   2.0000      -0.326248        -8.8777
  66   2.0000      -0.293496        -7.9864
  67   0.0000       0.034792         0.9467
  68   0.0000       0.063846         1.7373
  69   0.0000       0.113027         3.0756
  70   0.0000       0.116903         3.1811
  71   0.0000       0.129066         3.5121

MULLIKEN ATOMIC CHARGES
-----------------------
   0 S :    0.120523
   1 C :   -0.129096
   2 C :   -0.091380
   3 C :    0.031327
   4 C :   -0.134070
   5 H :    0.004831
   6 C :    0.081299
   7 H :    0.033732
   8 H :    0.024377
   9 C :   -0.144605
  10 H :    0.026773
  11 H :    0.030199
  12 C :   -0.019390
  13 H :    0.012084
  14 H :    0.038551
  15 H :    0.041066
  16 S :    0.134257
  17 C :   -0.092493
  18 C :   -0.026483
  19 C :    0.005024
  20 C :   -0.181815
  21 H :    0.023930
  22 C :    0.050305
  23 H :    0.014295
  24 H :    0.034493
  25 C :   -0.092274
  26 H :    0.011761
  27 H :    0.024157
  28 C :   -0.068616
  29 H :    0.042658
  30 H :    0.053664
  31 H :    0.040537
  32 H :    0.056859
  33 H :    0.043521
Sum of atomic charges:   -0.0000000

LOEWDIN ATOMIC CHARGES
----------------------
   0 S :    0.409328
   1 C :   -0.207370
   2 C :   -0.060693
   3 C :   -0.058179
   4 C :   -0.204266
   5 H :    0.024484
   6 C :   -0.035280
   7 H :    0.037744
   8 H :    0.023638
   9 C :   -0.053837
  10 H :    0.020088
  11 H :    0.025265
  12 C :   -0.065657
  13 H :    0.021621
  14 H :    0.030744
  15 H :    0.030360
  16 S :    0.430380
  17 C :   -0.183281
  18 C :   -0.071719
  19 C :   -0.038691
  20 C :   -0.203819
  21 H :    0.038057
  22 C :   -0.034022
  23 H :    0.023959
  24 H :    0.036405
  25 C :   -0.048851
  26 H :    0.013129
  27 H :    0.022348
  28 C :   -0.070391
  29 H :    0.027347
  30 H :    0.033196
  31 H :    0.032490
  32 H :    0.036054
  33 H :    0.019419

  Mayer bond orders larger than 0.100000
B(  0-S ,  1-C ) :   1.1349 B(  0-S ,  4-C ) :   1.1427 B(  1-C ,  2-C ) :   1.6288
B(  1-C , 32-H ) :   0.9637 B(  2-C ,  3-C ) :   1.2175 B(  2-C ,  6-C ) :   1.0331
B(  3-C ,  4-C ) :   1.5928 B(  3-C ,  5-H ) :   0.9971 B(  4-C , 20-C ) :   1.0236
B(  6-C ,  7-H ) :   0.9424 B(  6-C ,  8-H ) :   0.9280 B(  6-C ,  9-C ) :   1.0670
B(  9-C , 10-H ) :   0.9622 B(  9-C , 11-H ) :   0.9446 B(  9-C , 12-C ) :   1.0806
B( 12-C , 13-H ) :   0.9712 B( 12-C , 14-H ) :   0.9730 B( 12-C , 15-H ) :   0.9736
B( 16-S , 17-C ) :   1.1856 B( 16-S , 20-C ) :   1.1504 B( 17-C , 18-C ) :   1.6087
B( 17-C , 20-C ) :   0.1020 B( 17-C , 33-H ) :   0.9623 B( 18-C , 19-C ) :   1.2407
B( 18-C , 21-H ) :   0.9943 B( 19-C , 20-C ) :   1.5806 B( 19-C , 22-C ) :   1.0294
B( 22-C , 23-H ) :   0.9354 B( 22-C , 24-H ) :   0.9434 B( 22-C , 25-C ) :   1.0581
B( 25-C , 26-H ) :   0.9549 B( 25-C , 27-H ) :   0.9568 B( 25-C , 28-C ) :   1.0605
B( 28-C , 29-H ) :   0.9771 B( 28-C , 30-H ) :   0.9760 B( 28-C , 31-H ) :   0.9740

Dispersion correction           -0.013986782
FINAL SINGLE POINT ENERGY     -1339.865446087809

DIPOLE MOMENT
-------------
                                X             Y             Z
Electronic contribution:     22.55998     -21.37298      -8.43502
Nuclear contribution   :    -23.08179      21.52925       8.74114
                        -----------------------------------------
Total Dipole Moment    :     -0.52181       0.15627       0.30613
                        -----------------------------------------
Magnitude (a.u.)       :      0.62483
Magnitude (Debye)      :      1.58820

Rotational constants in cm-1:     0.015983     0.009340     0.006795
Rotational constants in MHz :   479.167569   280.005748   203.701418

                             ****ORCA TERMINATED NORMALLY****
TOTAL RUN TIME: 0 days 0 hours 0 minutes 34 seconds 56 msec
