                         Program Version 4.2.1 -  RELEASE  -
|  1> ! wB97X-D3 SP def2-SVP
|  2> %pal
|  3> nprocs 16
|  4> end
|  5>
|  6> * xyz 0 1
|  7> S 	 -15.6825 	 36.8573 	 34.1748
|  8> C 	 -14.9614 	 35.7019 	 33.0915
|  9> C 	 -14.1225 	 34.81 	 33.7704
| 10> C 	 -13.8682 	 35.1762 	 35.1849
| 11> C 	 -14.8784 	 36.0809 	 35.544
| 12> H 	 -13.2101 	 34.5989 	 35.9285
| 13> C 	 -13.4968 	 33.5908 	 33.1284
| 14> H 	 -12.546 	 33.3713 	 33.6778
| 15> H 	 -13.2695 	 33.8738 	 32.1624
| 16> C 	 -14.3944 	 32.3278 	 33.1516
| 17> H 	 -15.3693 	 32.5136 	 32.6091
| 18> H 	 -13.8274 	 31.6275 	 32.5395
| 19> C 	 -14.5197 	 31.6473 	 34.5335
| 20> H 	 -14.961 	 32.3095 	 35.3058
| 21> H 	 -15.2525 	 30.8295 	 34.5167
| 22> H 	 -13.6152 	 31.2318 	 34.8908
| 23> S 	 -14.913 	 38.3461 	 37.2082
| 24> C 	 -15.0808 	 38.1751 	 38.9306
| 25> C 	 -15.2348 	 36.8374 	 39.2272
| 26> C 	 -15.1888 	 35.9249 	 38.0955
| 27> C 	 -15.0781 	 36.6085 	 36.8942
| 28> H 	 -15.0981 	 36.4701 	 40.2323
| 29> C 	 -15.2275 	 34.4497 	 38.3355
| 30> H 	 -14.1578 	 34.0482 	 38.4332
| 31> H 	 -15.6051 	 33.8624 	 37.4942
| 32> C 	 -15.9906 	 34.0165 	 39.5436
| 33> H 	 -15.6449 	 34.4899 	 40.439
| 34> H 	 -15.8266 	 32.9376 	 39.621
| 35> C 	 -17.4904 	 34.265 	 39.3128
| 36> H 	 -18.0839 	 34.2178 	 40.2075
| 37> H 	 -17.9619 	 33.579 	 38.6063
| 38> H 	 -17.6447 	 35.2801 	 38.8402
| 39> H 	 -15.3448 	 35.6143 	 32.0816
| 40> H 	 -14.8719 	 38.8927 	 39.7464
| 41> *
| 42>
| 43>                          ****END OF INPUT****

CARTESIAN COORDINATES (ANGSTROEM)
---------------------------------
  S    -15.682500   36.857300   34.174800
  C    -14.961400   35.701900   33.091500
  C    -14.122500   34.810000   33.770400
  C    -13.868200   35.176200   35.184900
  C    -14.878400   36.080900   35.544000
  H    -13.210100   34.598900   35.928500
  C    -13.496800   33.590800   33.128400
  H    -12.546000   33.371300   33.677800
  H    -13.269500   33.873800   32.162400
  C    -14.394400   32.327800   33.151600
  H    -15.369300   32.513600   32.609100
  H    -13.827400   31.627500   32.539500
  C    -14.519700   31.647300   34.533500
  H    -14.961000   32.309500   35.305800
  H    -15.252500   30.829500   34.516700
  H    -13.615200   31.231800   34.890800
  S    -14.913000   38.346100   37.208200
  C    -15.080800   38.175100   38.930600
  C    -15.234800   36.837400   39.227200
  C    -15.188800   35.924900   38.095500
  C    -15.078100   36.608500   36.894200
  H    -15.098100   36.470100   40.232300
  C    -15.227500   34.449700   38.335500
  H    -14.157800   34.048200   38.433200
  H    -15.605100   33.862400   37.494200
  C    -15.990600   34.016500   39.543600
  H    -15.644900   34.489900   40.439000
  H    -15.826600   32.937600   39.621000
  C    -17.490400   34.265000   39.312800
  H    -18.083900   34.217800   40.207500
  H    -17.961900   33.579000   38.606300
  H    -17.644700   35.280100   38.840200
  H    -15.344800   35.614300   32.081600
  H    -14.871900   38.892700   39.746400

 Total Charge           Charge          ....    0
 Multiplicity           Mult            ....    1
 Number of Electrons    NEL             ....  134
 Basis Dimension        Dim             ....  322

ORBITAL ENERGIES
----------------

  NO   OCC          E(Eh)            E(eV)
   0   2.0000     -88.966650     -2420.9056
   1   2.0000     -88.964164     -2420.8380
   2   2.0000     -10.335306      -281.2380
   3   2.0000     -10.326293      -280.9927
   4   2.0000     -10.319349      -280.8038
   5   2.0000     -10.313282      -280.6387
   6   2.0000     -10.310137      -280.5531
   7   2.0000     -10.307439      -280.4797
   8   2.0000     -10.303102      -280.3616
   9   2.0000     -10.294656      -280.1318
  10   2.0000     -10.293677      -280.1052
  11   2.0000     -10.291194      -280.0376
  12   2.0000     -10.289030      -279.9787
  13   2.0000     -10.282939      -279.8130
  14   2.0000     -10.279964      -279.7320
  15   2.0000     -10.273667      -279.5607
  16   2.0000      -8.081374      -219.9054
  17   2.0000      -8.078580      -219.8293
  18   2.0000      -6.039925      -164.3547
  19   2.0000      -6.037289      -164.2830
  20   2.0000      -6.035958      -164.2468
  21   2.0000      -6.033050      -164.1676
  22   2.0000      -6.032030      -164.1399
  23   2.0000      -6.029198      -164.0628
  24   2.0000      -1.002060       -27.2674
  25   2.0000      -0.979470       -26.6527
  26   2.0000      -0.917834       -24.9755
  27   2.0000      -0.908710       -24.7272
  28   2.0000      -0.867309       -23.6007
  29   2.0000      -0.846458       -23.0333
  30   2.0000      -0.838294       -22.8111
  31   2.0000      -0.813171       -22.1275
  32   2.0000      -0.782445       -21.2914
  33   2.0000      -0.771311       -20.9884
  34   2.0000      -0.705320       -19.1927
  35   2.0000      -0.700534       -19.0625
  36   2.0000      -0.693944       -18.8832
  37   2.0000      -0.652838       -17.7646
  38   2.0000      -0.637590       -17.3497
  39   2.0000      -0.612386       -16.6639
  40   2.0000      -0.600355       -16.3365
  41   2.0000      -0.569736       -15.5033
  42   2.0000      -0.557330       -15.1657
  43   2.0000      -0.549286       -14.9468
  44   2.0000      -0.540060       -14.6958
  45   2.0000      -0.528819       -14.3899
  46   2.0000      -0.517474       -14.0812
  47   2.0000      -0.510539       -13.8925
  48   2.0000      -0.500792       -13.6272
  49   2.0000      -0.491747       -13.3811
  50   2.0000      -0.490955       -13.3596
  51   2.0000      -0.478868       -13.0307
  52   2.0000      -0.466097       -12.6831
  53   2.0000      -0.464341       -12.6354
  54   2.0000      -0.462214       -12.5775
  55   2.0000      -0.447642       -12.1810
  56   2.0000      -0.442269       -12.0347
  57   2.0000      -0.436903       -11.8887
  58   2.0000      -0.430169       -11.7055
  59   2.0000      -0.428401       -11.6574
  60   2.0000      -0.426965       -11.6183
  61   2.0000      -0.412465       -11.2237
  62   2.0000      -0.409914       -11.1543
  63   2.0000      -0.347572        -9.4579
  64   2.0000      -0.326023        -8.8715
  65   2.0000      -0.324973        -8.8430
  66   2.0000      -0.291567        -7.9340
  67   0.0000       0.029112         0.7922
  68   0.0000       0.066338         1.8052
  69   0.0000       0.106295         2.8924
  70   0.0000       0.115260         3.1364
  71   0.0000       0.125113         3.4045

MULLIKEN ATOMIC CHARGES
-----------------------
   0 S :    0.107829
   1 C :   -0.119924
   2 C :   -0.125869
   3 C :    0.016469
   4 C :   -0.174538
   5 H :    0.061035
   6 C :    0.090930
   7 H :    0.023302
   8 H :    0.007505
   9 C :   -0.073101
  10 H :    0.041755
  11 H :    0.028880
  12 C :   -0.050027
  13 H :    0.036728
  14 H :    0.029629
  15 H :    0.024345
  16 S :    0.103313
  17 C :   -0.088769
  18 C :   -0.042315
  19 C :   -0.058207
  20 C :   -0.132952
  21 H :    0.017812
  22 C :    0.025294
  23 H :    0.044616
  24 H :    0.031975
  25 C :   -0.045111
  26 H :    0.023628
  27 H :    0.027636
  28 C :   -0.067444
  29 H :    0.029926
  30 H :    0.026435
  31 H :    0.048801
  32 H :    0.057004
  33 H :    0.073409
Sum of atomic charges:    0.0000000

LOEWDIN ATOMIC CHARGES
----------------------
   0 S :    0.400755
   1 C :   -0.210878
   2 C :   -0.054021
   3 C :   -0.064894
   4 C :   -0.181731
   5 H :    0.050428
   6 C :   -0.030084
   7 H :    0.034399
   8 H :    0.019703
   9 C :   -0.038489
  10 H :    0.030795
  11 H :    0.024578
  12 C :   -0.068452
  13 H :    0.026543
  14 H :    0.029581
  15 H :    0.018877
  16 S :    0.399171
  17 C :   -0.196619
  18 C :   -0.076601
  19 C :   -0.058883
  20 C :   -0.198595
  21 H :    0.026794
  22 C :   -0.041679
  23 H :    0.039016
  24 H :    0.031668
  25 C :   -0.039807
  26 H :    0.016896
  27 H :    0.028822
  28 C :   -0.069755
  29 H :    0.021198
  30 H :    0.024861
  31 H :    0.034827
  32 H :    0.027011
  33 H :    0.044564

  Mayer bond orders larger than 0.100000
B(  0-S ,  1-C ) :   1.1214 B(  0-S ,  4-C ) :   1.1612 B(  1-C ,  2-C ) :   1.6301
B(  1-C , 32-H ) :   0.9673 B(  2-C ,  3-C ) :   1.2057 B(  2-C ,  6-C ) :   1.0304
B(  3-C ,  4-C ) :   1.5814 B(  3-C ,  5-H ) :   0.9703 B(  4-C , 20-C ) :   1.0390
B(  6-C ,  7-H ) :   0.9402 B(  6-C ,  8-H ) :   0.9350 B(  6-C ,  9-C ) :   1.0707
B(  9-C , 10-H ) :   0.9573 B(  9-C , 11-H ) :   0.9545 B(  9-C , 12-C ) :   1.0744
B( 12-C , 13-H ) :   0.9754 B( 12-C , 14-H ) :   0.9707 B( 12-C , 15-H ) :   0.9737
B( 16-S , 17-C ) :   1.1483 B( 16-S , 20-C ) :   1.1306 B( 17-C , 18-C ) :   1.6231
B( 17-C , 33-H ) :   0.9584 B( 18-C , 19-C ) :   1.2437 B( 18-C , 21-H ) :   0.9794
B( 19-C , 20-C ) :   1.6076 B( 19-C , 22-C ) :   1.0496 B( 22-C , 23-H ) :   0.9200
B( 22-C , 24-H ) :   0.9340 B( 22-C , 25-C ) :   1.0909 B( 25-C , 26-H ) :   0.9492
B( 25-C , 27-H ) :   0.9479 B( 25-C , 28-C ) :   1.0742 B( 28-C , 29-H ) :   0.9757
B( 28-C , 30-H ) :   0.9723 B( 28-C , 31-H ) :   0.9748

Dispersion correction           -0.015059427
FINAL SINGLE POINT ENERGY     -1339.876102937037

DIPOLE MOMENT
-------------
                                X             Y             Z
Electronic contribution:      1.33624      27.87433      -5.45489
Nuclear contribution   :     -1.07105     -28.67664       5.64130
                        -----------------------------------------
Total Dipole Moment    :      0.26518      -0.80230       0.18641
                        -----------------------------------------
Magnitude (a.u.)       :      0.86531
Magnitude (Debye)      :      2.19944

Rotational constants in cm-1:     0.018429     0.009670     0.007075
Rotational constants in MHz :   552.489929   289.885285   212.116997

                             ****ORCA TERMINATED NORMALLY****
TOTAL RUN TIME: 0 days 0 hours 0 minutes 34 seconds 61 msec
