                         Program Version 4.2.1 -  RELEASE  -
|  1> ! wB97X-D3 SP def2-SVP
|  2> %pal
|  3> nprocs 16
|  4> end
|  5>
|  6> * xyz 0 1
|  7> S 	 34.5566 	 -4.16481 	 70.36
|  8> C 	 34.9522 	 -2.55774 	 70.9338
|  9> C 	 36.2924 	 -2.2413 	 70.8735
| 10> C 	 36.9512 	 -3.24163 	 70.1296
| 11> C 	 36.2189 	 -4.37396 	 69.8699
| 12> H 	 37.9752 	 -3.08606 	 69.8403
| 13> C 	 36.911 	 -0.904 	 71.2872
| 14> H 	 36.0977 	 -0.360901 	 71.7019
| 15> H 	 37.1276 	 -0.349992 	 70.4466
| 16> C 	 38.1545 	 -0.918002 	 72.1166
| 17> H 	 37.9316 	 -1.40626 	 73.0693
| 18> H 	 38.975 	 -1.41377 	 71.6706
| 19> C 	 38.619 	 0.536675 	 72.4724
| 20> H 	 37.7832 	 1.03934 	 72.8689
| 21> H 	 39.334 	 0.480952 	 73.2632
| 22> H 	 38.9453 	 1.00103 	 71.5452
| 23> S 	 36.0965 	 -7.08426 	 70.1707
| 24> C 	 36.7792 	 -8.16478 	 68.9357
| 25> C 	 37.6435 	 -7.3804 	 68.1462
| 26> C 	 37.4576 	 -5.92718 	 68.2647
| 27> C 	 36.656 	 -5.62185 	 69.311
| 28> H 	 38.3313 	 -7.78872 	 67.4446
| 29> C 	 38.1034 	 -4.94094 	 67.3195
| 30> H 	 38.6484 	 -5.52151 	 66.5889
| 31> H 	 38.7834 	 -4.27282 	 67.9231
| 32> C 	 37.0698 	 -4.05937 	 66.5353
| 33> H 	 36.2774 	 -3.62086 	 67.1575
| 34> H 	 36.5766 	 -4.79663 	 65.9341
| 35> C 	 37.7023 	 -3.032 	 65.5595
| 36> H 	 38.4263 	 -2.50691 	 66.1872
| 37> H 	 37.0367 	 -2.39409 	 64.9179
| 38> H 	 38.2638 	 -3.7014 	 64.8515
| 39> H 	 34.1986 	 -1.92233 	 71.3067
| 40> H 	 36.6231 	 -9.26527 	 68.9383
| 41> *
| 42>
| 43>                          ****END OF INPUT****

CARTESIAN COORDINATES (ANGSTROEM)
---------------------------------
  S     34.556600   -4.164810   70.360000
  C     34.952200   -2.557740   70.933800
  C     36.292400   -2.241300   70.873500
  C     36.951200   -3.241630   70.129600
  C     36.218900   -4.373960   69.869900
  H     37.975200   -3.086060   69.840300
  C     36.911000   -0.904000   71.287200
  H     36.097700   -0.360901   71.701900
  H     37.127600   -0.349992   70.446600
  C     38.154500   -0.918002   72.116600
  H     37.931600   -1.406260   73.069300
  H     38.975000   -1.413770   71.670600
  C     38.619000    0.536675   72.472400
  H     37.783200    1.039340   72.868900
  H     39.334000    0.480952   73.263200
  H     38.945300    1.001030   71.545200
  S     36.096500   -7.084260   70.170700
  C     36.779200   -8.164780   68.935700
  C     37.643500   -7.380400   68.146200
  C     37.457600   -5.927180   68.264700
  C     36.656000   -5.621850   69.311000
  H     38.331300   -7.788720   67.444600
  C     38.103400   -4.940940   67.319500
  H     38.648400   -5.521510   66.588900
  H     38.783400   -4.272820   67.923100
  C     37.069800   -4.059370   66.535300
  H     36.277400   -3.620860   67.157500
  H     36.576600   -4.796630   65.934100
  C     37.702300   -3.032000   65.559500
  H     38.426300   -2.506910   66.187200
  H     37.036700   -2.394090   64.917900
  H     38.263800   -3.701400   64.851500
  H     34.198600   -1.922330   71.306700
  H     36.623100   -9.265270   68.938300

 Total Charge           Charge          ....    0
 Multiplicity           Mult            ....    1
 Number of Electrons    NEL             ....  134
 Basis Dimension        Dim             ....  322

ORBITAL ENERGIES
----------------

  NO   OCC          E(Eh)            E(eV)
   0   2.0000     -88.967223     -2420.9212
   1   2.0000     -88.960038     -2420.7257
   2   2.0000     -10.326332      -280.9938
   3   2.0000     -10.325382      -280.9679
   4   2.0000     -10.322394      -280.8866
   5   2.0000     -10.310965      -280.5756
   6   2.0000     -10.300978      -280.3039
   7   2.0000     -10.300043      -280.2784
   8   2.0000     -10.299830      -280.2726
   9   2.0000     -10.299396      -280.2608
  10   2.0000     -10.291025      -280.0330
  11   2.0000     -10.285943      -279.8947
  12   2.0000     -10.284995      -279.8690
  13   2.0000     -10.283441      -279.8267
  14   2.0000     -10.283267      -279.8219
  15   2.0000     -10.275965      -279.6232
  16   2.0000      -8.082046      -219.9237
  17   2.0000      -8.074166      -219.7092
  18   2.0000      -6.040415      -164.3680
  19   2.0000      -6.036612      -164.2646
  20   2.0000      -6.032910      -164.1638
  21   2.0000      -6.032865      -164.1626
  22   2.0000      -6.028819      -164.0525
  23   2.0000      -6.024638      -163.9387
  24   2.0000      -1.007949       -27.4277
  25   2.0000      -0.979826       -26.6624
  26   2.0000      -0.919237       -25.0137
  27   2.0000      -0.904021       -24.5997
  28   2.0000      -0.870603       -23.6903
  29   2.0000      -0.852739       -23.2042
  30   2.0000      -0.842540       -22.9267
  31   2.0000      -0.813339       -22.1321
  32   2.0000      -0.783661       -21.3245
  33   2.0000      -0.771235       -20.9864
  34   2.0000      -0.711960       -19.3734
  35   2.0000      -0.699794       -19.0424
  36   2.0000      -0.687595       -18.7104
  37   2.0000      -0.668192       -18.1824
  38   2.0000      -0.643956       -17.5229
  39   2.0000      -0.626790       -17.0558
  40   2.0000      -0.589795       -16.0492
  41   2.0000      -0.580846       -15.8056
  42   2.0000      -0.568250       -15.4629
  43   2.0000      -0.559185       -15.2162
  44   2.0000      -0.530953       -14.4480
  45   2.0000      -0.523364       -14.2415
  46   2.0000      -0.518979       -14.1221
  47   2.0000      -0.511250       -13.9118
  48   2.0000      -0.509159       -13.8549
  49   2.0000      -0.495864       -13.4931
  50   2.0000      -0.494955       -13.4684
  51   2.0000      -0.485094       -13.2001
  52   2.0000      -0.468138       -12.7387
  53   2.0000      -0.465363       -12.6632
  54   2.0000      -0.456790       -12.4299
  55   2.0000      -0.449184       -12.2229
  56   2.0000      -0.444755       -12.1024
  57   2.0000      -0.441681       -12.0188
  58   2.0000      -0.430039       -11.7019
  59   2.0000      -0.424897       -11.5620
  60   2.0000      -0.420597       -11.4450
  61   2.0000      -0.418085       -11.3767
  62   2.0000      -0.413989       -11.2652
  63   2.0000      -0.346317        -9.4238
  64   2.0000      -0.335504        -9.1295
  65   2.0000      -0.323180        -8.7942
  66   2.0000      -0.288661        -7.8549
  67   0.0000       0.026594         0.7237
  68   0.0000       0.070634         1.9220
  69   0.0000       0.102957         2.8016
  70   0.0000       0.115822         3.1517
  71   0.0000       0.139461         3.7949

MULLIKEN ATOMIC CHARGES
-----------------------
   0 S :    0.122919
   1 C :   -0.123019
   2 C :   -0.070475
   3 C :    0.026488
   4 C :   -0.150391
   5 H :   -0.004664
   6 C :    0.122648
   7 H :   -0.004449
   8 H :    0.006570
   9 C :   -0.090519
  10 H :    0.028783
  11 H :    0.027103
  12 C :   -0.017031
  13 H :    0.016141
  14 H :    0.032607
  15 H :    0.034333
  16 S :    0.082240
  17 C :   -0.115523
  18 C :   -0.011695
  19 C :   -0.058860
  20 C :   -0.129056
  21 H :    0.008175
  22 C :    0.069351
  23 H :    0.011419
  24 H :    0.040638
  25 C :   -0.100229
  26 H :    0.053450
  27 H :    0.019759
  28 C :   -0.049648
  29 H :    0.029641
  30 H :    0.057042
  31 H :    0.024685
  32 H :    0.028650
  33 H :    0.082918
Sum of atomic charges:   -0.0000000

LOEWDIN ATOMIC CHARGES
----------------------
   0 S :    0.412224
   1 C :   -0.183576
   2 C :   -0.057506
   3 C :   -0.054798
   4 C :   -0.198845
   5 H :    0.025466
   6 C :   -0.025617
   7 H :    0.027554
   8 H :    0.022898
   9 C :   -0.032985
  10 H :    0.025276
  11 H :    0.017303
  12 C :   -0.050174
  13 H :    0.017972
  14 H :    0.024923
  15 H :    0.024902
  16 S :    0.368896
  17 C :   -0.183901
  18 C :   -0.061604
  19 C :   -0.063399
  20 C :   -0.180060
  21 H :    0.021530
  22 C :   -0.025577
  23 H :    0.027266
  24 H :    0.031101
  25 C :   -0.042972
  26 H :    0.025125
  27 H :    0.019648
  28 C :   -0.071142
  29 H :    0.022428
  30 H :    0.034812
  31 H :    0.027784
  32 H :    0.014595
  33 H :    0.040453

  Mayer bond orders larger than 0.100000
B(  0-S ,  1-C ) :   1.1468 B(  0-S ,  4-C ) :   1.1423 B(  1-C ,  2-C ) :   1.6037
B(  1-C ,  4-C ) :   0.1006 B(  1-C , 32-H ) :   0.9689 B(  2-C ,  3-C ) :   1.2593
B(  2-C ,  6-C ) :   1.0203 B(  3-C ,  4-C ) :   1.5578 B(  3-C ,  5-H ) :   0.9953
B(  4-C , 20-C ) :   1.0596 B(  6-C ,  7-H ) :   0.9299 B(  6-C ,  8-H ) :   0.9321
B(  6-C ,  9-C ) :   1.0663 B(  9-C , 10-H ) :   0.9562 B(  9-C , 11-H ) :   0.9566
B(  9-C , 12-C ) :   1.0843 B( 12-C , 13-H ) :   0.9755 B( 12-C , 14-H ) :   0.9755
B( 12-C , 15-H ) :   0.9768 B( 16-S , 17-C ) :   1.1313 B( 16-S , 20-C ) :   1.1227
B( 17-C , 18-C ) :   1.6081 B( 17-C , 33-H ) :   0.9684 B( 18-C , 19-C ) :   1.2197
B( 18-C , 21-H ) :   0.9862 B( 19-C , 20-C ) :   1.6356 B( 19-C , 22-C ) :   1.0509
B( 22-C , 23-H ) :   0.9297 B( 22-C , 24-H ) :   0.9310 B( 22-C , 25-C ) :   1.0507
B( 25-C , 26-H ) :   0.9618 B( 25-C , 27-H ) :   0.9559 B( 25-C , 28-C ) :   1.0654
B( 28-C , 29-H ) :   0.9776 B( 28-C , 30-H ) :   0.9747 B( 28-C , 31-H ) :   0.9757

Dispersion correction           -0.014052792
FINAL SINGLE POINT ENERGY     -1339.869946766429

DIPOLE MOMENT
-------------
                                X             Y             Z
Electronic contribution:    -15.55270     -23.29583       6.77616
Nuclear contribution   :     15.95494      23.78140      -6.98907
                        -----------------------------------------
Total Dipole Moment    :      0.40224       0.48557      -0.21291
                        -----------------------------------------
Magnitude (a.u.)       :      0.66551
Magnitude (Debye)      :      1.69160

Rotational constants in cm-1:     0.017871     0.008436     0.006962
Rotational constants in MHz :   535.765544   252.912685   208.708191

                             ****ORCA TERMINATED NORMALLY****
TOTAL RUN TIME: 0 days 0 hours 0 minutes 29 seconds 974 msec
