                         Program Version 4.2.1 -  RELEASE  -
|  1> ! wB97X-D3 SP def2-SVP
|  2> %pal
|  3> nprocs 16
|  4> end
|  5>
|  6> * xyz 0 1
|  7> S 	 5.57532 	 22.7196 	 60.8091
|  8> C 	 6.99652 	 23.4602 	 60.0242
|  9> C 	 6.65072 	 23.6723 	 58.673
| 10> C 	 5.45823 	 23.0044 	 58.2661
| 11> C 	 4.71553 	 22.403 	 59.2951
| 12> H 	 4.98503 	 22.9847 	 57.2788
| 13> C 	 7.61827 	 24.2784 	 57.5304
| 14> H 	 8.09323 	 25.2262 	 57.7578
| 15> H 	 6.97045 	 24.5551 	 56.6832
| 16> C 	 8.70617 	 23.3434 	 56.9907
| 17> H 	 9.23222 	 23.8882 	 56.2278
| 18> H 	 9.49851 	 23.0957 	 57.7063
| 19> C 	 8.27678 	 22.0766 	 56.2739
| 20> H 	 7.68161 	 22.3252 	 55.3953
| 21> H 	 9.09999 	 21.4384 	 56.081
| 22> H 	 7.53356 	 21.6028 	 56.9381
| 23> S 	 3.48822 	 20.2492 	 58.1703
| 24> C 	 1.77623 	 20.0394 	 58.4042
| 25> C 	 1.26975 	 21.0729 	 59.1521
| 26> C 	 2.1687 	 21.9886 	 59.6153
| 27> C 	 3.43731 	 21.7458 	 59.1115
| 28> H 	 0.249241 	 21.1052 	 59.3715
| 29> C 	 1.73856 	 23.223 	 60.2975
| 30> H 	 0.886684 	 23.6173 	 59.7368
| 31> H 	 2.55273 	 24.0099 	 60.1205
| 32> C 	 1.33428 	 23.0168 	 61.8029
| 33> H 	 0.738124 	 22.0958 	 61.8792
| 34> H 	 0.807303 	 23.9207 	 62.2247
| 35> C 	 2.53681 	 22.7239 	 62.6904
| 36> H 	 2.98648 	 21.7288 	 62.4135
| 37> H 	 2.24882 	 22.7449 	 63.7925
| 38> H 	 3.24101 	 23.5591 	 62.5442
| 39> H 	 7.98342 	 23.7142 	 60.4617
| 40> H 	 1.126 	 19.3745 	 57.8266
| 41> *
| 42>
| 43>                          ****END OF INPUT****

CARTESIAN COORDINATES (ANGSTROEM)
---------------------------------
  S      5.575320   22.719600   60.809100
  C      6.996520   23.460200   60.024200
  C      6.650720   23.672300   58.673000
  C      5.458230   23.004400   58.266100
  C      4.715530   22.403000   59.295100
  H      4.985030   22.984700   57.278800
  C      7.618270   24.278400   57.530400
  H      8.093230   25.226200   57.757800
  H      6.970450   24.555100   56.683200
  C      8.706170   23.343400   56.990700
  H      9.232220   23.888200   56.227800
  H      9.498510   23.095700   57.706300
  C      8.276780   22.076600   56.273900
  H      7.681610   22.325200   55.395300
  H      9.099990   21.438400   56.081000
  H      7.533560   21.602800   56.938100
  S      3.488220   20.249200   58.170300
  C      1.776230   20.039400   58.404200
  C      1.269750   21.072900   59.152100
  C      2.168700   21.988600   59.615300
  C      3.437310   21.745800   59.111500
  H      0.249241   21.105200   59.371500
  C      1.738560   23.223000   60.297500
  H      0.886684   23.617300   59.736800
  H      2.552730   24.009900   60.120500
  C      1.334280   23.016800   61.802900
  H      0.738124   22.095800   61.879200
  H      0.807303   23.920700   62.224700
  C      2.536810   22.723900   62.690400
  H      2.986480   21.728800   62.413500
  H      2.248820   22.744900   63.792500
  H      3.241010   23.559100   62.544200
  H      7.983420   23.714200   60.461700
  H      1.126000   19.374500   57.826600

 Total Charge           Charge          ....    0
 Multiplicity           Mult            ....    1
 Number of Electrons    NEL             ....  134
 Basis Dimension        Dim             ....  322

ORBITAL ENERGIES
----------------

  NO   OCC          E(Eh)            E(eV)
   0   2.0000     -88.969982     -2420.9963
   1   2.0000     -88.968624     -2420.9593
   2   2.0000     -10.332967      -281.1743
   3   2.0000     -10.328189      -281.0443
   4   2.0000     -10.327272      -281.0194
   5   2.0000     -10.316033      -280.7135
   6   2.0000     -10.312523      -280.6180
   7   2.0000     -10.299552      -280.2651
   8   2.0000     -10.298314      -280.2314
   9   2.0000     -10.295287      -280.1490
  10   2.0000     -10.294957      -280.1400
  11   2.0000     -10.291563      -280.0477
  12   2.0000     -10.282628      -279.8045
  13   2.0000     -10.280685      -279.7517
  14   2.0000     -10.279402      -279.7168
  15   2.0000     -10.268689      -279.4252
  16   2.0000      -8.083114      -219.9527
  17   2.0000      -8.082903      -219.9470
  18   2.0000      -6.041528      -164.3983
  19   2.0000      -6.041522      -164.3982
  20   2.0000      -6.037611      -164.2917
  21   2.0000      -6.037444      -164.2872
  22   2.0000      -6.034021      -164.1940
  23   2.0000      -6.033798      -164.1880
  24   2.0000      -1.009309       -27.4647
  25   2.0000      -0.981754       -26.7149
  26   2.0000      -0.909119       -24.7384
  27   2.0000      -0.904572       -24.6146
  28   2.0000      -0.871276       -23.7086
  29   2.0000      -0.852855       -23.2074
  30   2.0000      -0.840278       -22.8651
  31   2.0000      -0.810185       -22.0463
  32   2.0000      -0.783594       -21.3227
  33   2.0000      -0.769908       -20.9503
  34   2.0000      -0.704935       -19.1823
  35   2.0000      -0.692860       -18.8537
  36   2.0000      -0.687729       -18.7140
  37   2.0000      -0.665234       -18.1019
  38   2.0000      -0.637363       -17.3435
  39   2.0000      -0.609450       -16.5840
  40   2.0000      -0.597580       -16.2610
  41   2.0000      -0.569729       -15.5031
  42   2.0000      -0.552225       -15.0268
  43   2.0000      -0.551085       -14.9958
  44   2.0000      -0.541873       -14.7451
  45   2.0000      -0.539050       -14.6683
  46   2.0000      -0.519106       -14.1256
  47   2.0000      -0.512609       -13.9488
  48   2.0000      -0.502285       -13.6679
  49   2.0000      -0.493485       -13.4284
  50   2.0000      -0.487000       -13.2519
  51   2.0000      -0.476452       -12.9649
  52   2.0000      -0.466175       -12.6853
  53   2.0000      -0.461713       -12.5638
  54   2.0000      -0.459563       -12.5053
  55   2.0000      -0.444581       -12.0977
  56   2.0000      -0.441791       -12.0217
  57   2.0000      -0.432948       -11.7811
  58   2.0000      -0.430475       -11.7138
  59   2.0000      -0.422867       -11.5068
  60   2.0000      -0.421601       -11.4724
  61   2.0000      -0.411099       -11.1866
  62   2.0000      -0.399637       -10.8747
  63   2.0000      -0.340316        -9.2605
  64   2.0000      -0.337898        -9.1947
  65   2.0000      -0.330136        -8.9835
  66   2.0000      -0.296280        -8.0622
  67   0.0000       0.026895         0.7318
  68   0.0000       0.056723         1.5435
  69   0.0000       0.104000         2.8300
  70   0.0000       0.117058         3.1853
  71   0.0000       0.127505         3.4696

MULLIKEN ATOMIC CHARGES
-----------------------
   0 S :    0.118640
   1 C :   -0.132917
   2 C :   -0.066255
   3 C :    0.005628
   4 C :   -0.143943
   5 H :    0.025076
   6 C :    0.052863
   7 H :    0.028590
   8 H :    0.020725
   9 C :   -0.075557
  10 H :    0.016694
  11 H :    0.024507
  12 C :   -0.038172
  13 H :    0.020443
  14 H :    0.036084
  15 H :    0.033172
  16 S :    0.119407
  17 C :   -0.084961
  18 C :   -0.031051
  19 C :    0.014887
  20 C :   -0.210066
  21 H :   -0.006941
  22 C :    0.018834
  23 H :    0.034000
  24 H :    0.043733
  25 C :   -0.075102
  26 H :    0.032756
  27 H :    0.044213
  28 C :   -0.095466
  29 H :    0.052906
  30 H :    0.046029
  31 H :    0.034506
  32 H :    0.073762
  33 H :    0.062976
Sum of atomic charges:   -0.0000000

LOEWDIN ATOMIC CHARGES
----------------------
   0 S :    0.408407
   1 C :   -0.193574
   2 C :   -0.065222
   3 C :   -0.070059
   4 C :   -0.200468
   5 H :    0.034062
   6 C :   -0.028777
   7 H :    0.029655
   8 H :    0.030949
   9 C :   -0.046343
  10 H :    0.021124
  11 H :    0.022064
  12 C :   -0.063601
  13 H :    0.022669
  14 H :    0.023319
  15 H :    0.027611
  16 S :    0.415955
  17 C :   -0.191709
  18 C :   -0.064896
  19 C :   -0.066553
  20 C :   -0.189882
  21 H :    0.022567
  22 C :   -0.036073
  23 H :    0.034240
  24 H :    0.038369
  25 C :   -0.044846
  26 H :    0.024673
  27 H :    0.030131
  28 C :   -0.079380
  29 H :    0.027644
  30 H :    0.032756
  31 H :    0.017559
  32 H :    0.043228
  33 H :    0.034400

  Mayer bond orders larger than 0.100000
B(  0-S ,  1-C ) :   1.1482 B(  0-S ,  4-C ) :   1.1370 B(  1-C ,  2-C ) :   1.5747
B(  1-C ,  4-C ) :   0.1062 B(  1-C , 32-H ) :   0.9698 B(  2-C ,  3-C ) :   1.2556
B(  2-C ,  6-C ) :   1.0100 B(  3-C ,  4-C ) :   1.5479 B(  3-C ,  5-H ) :   0.9872
B(  4-C , 20-C ) :   1.0493 B(  6-C ,  7-H ) :   0.9471 B(  6-C ,  8-H ) :   0.9450
B(  6-C ,  9-C ) :   1.0775 B(  9-C , 10-H ) :   0.9505 B(  9-C , 11-H ) :   0.9565
B(  9-C , 12-C ) :   1.0836 B( 12-C , 13-H ) :   0.9730 B( 12-C , 14-H ) :   0.9724
B( 12-C , 15-H ) :   0.9739 B( 16-S , 17-C ) :   1.1563 B( 16-S , 20-C ) :   1.1611
B( 17-C , 18-C ) :   1.5872 B( 17-C , 20-C ) :   0.1099 B( 17-C , 33-H ) :   0.9612
B( 18-C , 19-C ) :   1.2774 B( 18-C , 21-H ) :   0.9916 B( 19-C , 20-C ) :   1.5408
B( 19-C , 22-C ) :   1.0358 B( 22-C , 23-H ) :   0.9416 B( 22-C , 24-H ) :   0.9429
B( 22-C , 25-C ) :   1.0458 B( 25-C , 26-H ) :   0.9600 B( 25-C , 27-H ) :   0.9574
B( 25-C , 28-C ) :   1.0705 B( 28-C , 29-H ) :   0.9732 B( 28-C , 30-H ) :   0.9721
B( 28-C , 31-H ) :   0.9725

Dispersion correction           -0.015463005
FINAL SINGLE POINT ENERGY     -1339.871625203804

DIPOLE MOMENT
-------------
                                X             Y             Z
Electronic contribution:     -4.50417      -8.47014       1.47582
Nuclear contribution   :      4.39412       8.79971      -1.73228
                        -----------------------------------------
Total Dipole Moment    :     -0.11006       0.32957      -0.25646
                        -----------------------------------------
Magnitude (a.u.)       :      0.43186
Magnitude (Debye)      :      1.09770

Rotational constants in cm-1:     0.021987     0.008795     0.006921
Rotational constants in MHz :   659.138704   263.669198   207.473426

                             ****ORCA TERMINATED NORMALLY****
TOTAL RUN TIME: 0 days 0 hours 0 minutes 34 seconds 114 msec
