                         Program Version 4.2.1 -  RELEASE  -
|  1> ! wB97X-D3 SP def2-SVP
|  2> %pal
|  3> nprocs 16
|  4> end
|  5>
|  6> * xyz 0 1
|  7> S 	 38.7734 	 7.31357 	 89.6427
|  8> C 	 39.5451 	 6.57695 	 88.2693
|  9> C 	 38.6621 	 6.01969 	 87.3854
| 10> C 	 37.394 	 6.60466 	 87.576
| 11> C 	 37.2873 	 7.3929 	 88.6604
| 12> H 	 36.5966 	 6.40932 	 86.8259
| 13> C 	 39.0726 	 5.07856 	 86.1744
| 14> H 	 39.4691 	 4.17339 	 86.5692
| 15> H 	 39.7551 	 5.70288 	 85.5327
| 16> C 	 37.9236 	 4.68493 	 85.2364
| 17> H 	 37.2271 	 4.0585 	 85.7158
| 18> H 	 37.3254 	 5.56665 	 85.1518
| 19> C 	 38.4106 	 4.18395 	 83.8333
| 20> H 	 38.5732 	 3.13268 	 83.8184
| 21> H 	 37.6469 	 4.37214 	 83.1237
| 22> H 	 39.291 	 4.71831 	 83.5316
| 23> S 	 35.1892 	 7.89658 	 90.4287
| 24> C 	 34.1565 	 9.26325 	 90.1965
| 25> C 	 34.4857 	 9.94579 	 89.0511
| 26> C 	 35.5878 	 9.3717 	 88.3604
| 27> C 	 36.1682 	 8.26641 	 89.0036
| 28> H 	 33.8381 	 10.7689 	 88.7601
| 29> C 	 36.0976 	 9.91834 	 87.019
| 30> H 	 35.2219 	 10.1111 	 86.4049
| 31> H 	 36.6767 	 9.1544 	 86.5823
| 32> C 	 36.965 	 11.2218 	 87.0065
| 33> H 	 36.3994 	 11.9711 	 87.5057
| 34> H 	 37.1402 	 11.5612 	 85.9382
| 35> C 	 38.2896 	 11.0441 	 87.7714
| 36> H 	 38.7851 	 10.2124 	 87.3208
| 37> H 	 38.1655 	 10.976 	 88.884
| 38> H 	 38.883 	 11.9354 	 87.6161
| 39> H 	 40.5867 	 6.34145 	 88.205
| 40> H 	 33.2751 	 9.47121 	 90.7688
| 41> *
| 42>
| 43>                          ****END OF INPUT****

CARTESIAN COORDINATES (ANGSTROEM)
---------------------------------
  S     38.773400    7.313570   89.642700
  C     39.545100    6.576950   88.269300
  C     38.662100    6.019690   87.385400
  C     37.394000    6.604660   87.576000
  C     37.287300    7.392900   88.660400
  H     36.596600    6.409320   86.825900
  C     39.072600    5.078560   86.174400
  H     39.469100    4.173390   86.569200
  H     39.755100    5.702880   85.532700
  C     37.923600    4.684930   85.236400
  H     37.227100    4.058500   85.715800
  H     37.325400    5.566650   85.151800
  C     38.410600    4.183950   83.833300
  H     38.573200    3.132680   83.818400
  H     37.646900    4.372140   83.123700
  H     39.291000    4.718310   83.531600
  S     35.189200    7.896580   90.428700
  C     34.156500    9.263250   90.196500
  C     34.485700    9.945790   89.051100
  C     35.587800    9.371700   88.360400
  C     36.168200    8.266410   89.003600
  H     33.838100   10.768900   88.760100
  C     36.097600    9.918340   87.019000
  H     35.221900   10.111100   86.404900
  H     36.676700    9.154400   86.582300
  C     36.965000   11.221800   87.006500
  H     36.399400   11.971100   87.505700
  H     37.140200   11.561200   85.938200
  C     38.289600   11.044100   87.771400
  H     38.785100   10.212400   87.320800
  H     38.165500   10.976000   88.884000
  H     38.883000   11.935400   87.616100
  H     40.586700    6.341450   88.205000
  H     33.275100    9.471210   90.768800

 Total Charge           Charge          ....    0
 Multiplicity           Mult            ....    1
 Number of Electrons    NEL             ....  134
 Basis Dimension        Dim             ....  322

ORBITAL ENERGIES
----------------

  NO   OCC          E(Eh)            E(eV)
   0   2.0000     -88.966533     -2420.9024
   1   2.0000     -88.961297     -2420.7600
   2   2.0000     -10.327152      -281.0161
   3   2.0000     -10.326417      -280.9961
   4   2.0000     -10.312598      -280.6201
   5   2.0000     -10.310255      -280.5563
   6   2.0000     -10.303965      -280.3851
   7   2.0000     -10.300816      -280.2994
   8   2.0000     -10.299669      -280.2682
   9   2.0000     -10.293805      -280.1087
  10   2.0000     -10.290713      -280.0245
  11   2.0000     -10.283991      -279.8416
  12   2.0000     -10.283832      -279.8373
  13   2.0000     -10.282882      -279.8114
  14   2.0000     -10.277954      -279.6773
  15   2.0000     -10.268347      -279.4159
  16   2.0000      -8.081176      -219.9000
  17   2.0000      -8.076231      -219.7654
  18   2.0000      -6.039716      -164.3490
  19   2.0000      -6.036059      -164.2495
  20   2.0000      -6.034615      -164.2102
  21   2.0000      -6.031530      -164.1263
  22   2.0000      -6.030626      -164.1017
  23   2.0000      -6.027210      -164.0087
  24   2.0000      -1.007472       -27.4147
  25   2.0000      -0.986008       -26.8306
  26   2.0000      -0.909807       -24.7571
  27   2.0000      -0.899465       -24.4757
  28   2.0000      -0.870031       -23.6748
  29   2.0000      -0.848956       -23.1013
  30   2.0000      -0.841521       -22.8990
  31   2.0000      -0.815410       -22.1884
  32   2.0000      -0.784952       -21.3596
  33   2.0000      -0.771129       -20.9835
  34   2.0000      -0.716215       -19.4892
  35   2.0000      -0.694329       -18.8937
  36   2.0000      -0.689731       -18.7685
  37   2.0000      -0.651852       -17.7378
  38   2.0000      -0.638559       -17.3761
  39   2.0000      -0.626185       -17.0394
  40   2.0000      -0.593000       -16.1364
  41   2.0000      -0.577826       -15.7234
  42   2.0000      -0.567382       -15.4393
  43   2.0000      -0.545481       -14.8433
  44   2.0000      -0.538266       -14.6470
  45   2.0000      -0.524932       -14.2841
  46   2.0000      -0.515375       -14.0241
  47   2.0000      -0.505976       -13.7683
  48   2.0000      -0.498061       -13.5529
  49   2.0000      -0.496826       -13.5193
  50   2.0000      -0.491809       -13.3828
  51   2.0000      -0.481049       -13.0900
  52   2.0000      -0.471642       -12.8340
  53   2.0000      -0.467700       -12.7268
  54   2.0000      -0.461940       -12.5700
  55   2.0000      -0.452532       -12.3140
  56   2.0000      -0.439456       -11.9582
  57   2.0000      -0.435724       -11.8567
  58   2.0000      -0.427803       -11.6411
  59   2.0000      -0.423999       -11.5376
  60   2.0000      -0.420178       -11.4336
  61   2.0000      -0.417905       -11.3718
  62   2.0000      -0.411821       -11.2062
  63   2.0000      -0.340838        -9.2747
  64   2.0000      -0.332980        -9.0608
  65   2.0000      -0.327694        -8.9170
  66   2.0000      -0.294708        -8.0194
  67   0.0000       0.037105         1.0097
  68   0.0000       0.054087         1.4718
  69   0.0000       0.111099         3.0232
  70   0.0000       0.124620         3.3911
  71   0.0000       0.132793         3.6135

MULLIKEN ATOMIC CHARGES
-----------------------
   0 S :    0.126291
   1 C :   -0.121570
   2 C :   -0.102978
   3 C :    0.021164
   4 C :   -0.149946
   5 H :    0.029851
   6 C :    0.075056
   7 H :    0.038987
   8 H :    0.047823
   9 C :   -0.112501
  10 H :    0.018997
  11 H :    0.016985
  12 C :    0.009324
  13 H :    0.032653
  14 H :    0.023624
  15 H :    0.024685
  16 S :    0.097365
  17 C :   -0.088788
  18 C :   -0.043873
  19 C :   -0.042203
  20 C :   -0.167574
  21 H :    0.022264
  22 C :    0.100142
  23 H :    0.022080
  24 H :    0.001502
  25 C :   -0.077307
  26 H :    0.013872
  27 H :    0.038867
  28 C :   -0.048932
  29 H :    0.029091
  30 H :    0.052574
  31 H :    0.025323
  32 H :    0.033770
  33 H :    0.053383
Sum of atomic charges:    0.0000000

LOEWDIN ATOMIC CHARGES
----------------------
   0 S :    0.396236
   1 C :   -0.185049
   2 C :   -0.068088
   3 C :   -0.061545
   4 C :   -0.189839
   5 H :    0.039036
   6 C :   -0.022118
   7 H :    0.027396
   8 H :    0.039999
   9 C :   -0.043717
  10 H :    0.017560
  11 H :    0.016446
  12 C :   -0.049539
  13 H :    0.024243
  14 H :    0.025055
  15 H :    0.023887
  16 S :    0.404049
  17 C :   -0.187291
  18 C :   -0.078679
  19 C :   -0.052979
  20 C :   -0.198144
  21 H :    0.034732
  22 C :   -0.027823
  23 H :    0.029921
  24 H :    0.018192
  25 C :   -0.037199
  26 H :    0.013499
  27 H :    0.030158
  28 C :   -0.065969
  29 H :    0.020500
  30 H :    0.034501
  31 H :    0.023370
  32 H :    0.021272
  33 H :    0.027930

  Mayer bond orders larger than 0.100000
B(  0-S ,  1-C ) :   1.1454 B(  0-S ,  4-C ) :   1.1210 B(  1-C ,  2-C ) :   1.6467
B(  1-C , 32-H ) :   0.9710 B(  2-C ,  3-C ) :   1.2375 B(  2-C ,  6-C ) :   0.9901
B(  3-C ,  4-C ) :   1.6036 B(  3-C ,  5-H ) :   0.9843 B(  4-C , 20-C ) :   1.0243
B(  6-C ,  7-H ) :   0.9405 B(  6-C ,  8-H ) :   0.9474 B(  6-C ,  9-C ) :   1.0893
B(  9-C , 10-H ) :   0.9551 B(  9-C , 11-H ) :   0.9479 B(  9-C , 12-C ) :   1.0734
B( 12-C , 13-H ) :   0.9766 B( 12-C , 14-H ) :   0.9749 B( 12-C , 15-H ) :   0.9761
B( 16-S , 17-C ) :   1.1693 B( 16-S , 20-C ) :   1.1453 B( 17-C , 18-C ) :   1.5993
B( 17-C , 20-C ) :   0.1022 B( 17-C , 33-H ) :   0.9674 B( 18-C , 19-C ) :   1.2458
B( 18-C , 21-H ) :   0.9934 B( 19-C , 20-C ) :   1.5835 B( 19-C , 22-C ) :   1.0393
B( 22-C , 23-H ) :   0.9323 B( 22-C , 24-H ) :   0.9331 B( 22-C , 25-C ) :   1.0741
B( 25-C , 26-H ) :   0.9561 B( 25-C , 27-H ) :   0.9560 B( 25-C , 28-C ) :   1.0758
B( 28-C , 29-H ) :   0.9784 B( 28-C , 30-H ) :   0.9733 B( 28-C , 31-H ) :   0.9726

Dispersion correction           -0.014893969
FINAL SINGLE POINT ENERGY     -1339.868868386163

DIPOLE MOMENT
-------------
                                X             Y             Z
Electronic contribution:     -6.17991      -0.82872      25.33035
Nuclear contribution   :      6.13903       0.75646     -26.08786
                        -----------------------------------------
Total Dipole Moment    :     -0.04088      -0.07226      -0.75751
                        -----------------------------------------
Magnitude (a.u.)       :      0.76204
Magnitude (Debye)      :      1.93696

Rotational constants in cm-1:     0.018721     0.008130     0.007615
Rotational constants in MHz :   561.238576   243.727442   228.286151

                             ****ORCA TERMINATED NORMALLY****
TOTAL RUN TIME: 0 days 0 hours 0 minutes 31 seconds 75 msec
