                         Program Version 4.2.1 -  RELEASE  -
|  1> ! wB97X-D3 SP def2-SVP
|  2> %pal
|  3> nprocs 16
|  4> end
|  5>
|  6> * xyz 0 1
|  7> S 	 -42.7853 	 56.4763 	 106.871
|  8> C 	 -41.8659 	 57.593 	 105.834
|  9> C 	 -41.5711 	 56.9331 	 104.611
| 10> C 	 -42.3184 	 55.6965 	 104.428
| 11> C 	 -42.9404 	 55.2801 	 105.592
| 12> H 	 -42.1883 	 54.957 	 103.647
| 13> C 	 -40.4827 	 57.2368 	 103.648
| 14> H 	 -40.5197 	 58.2603 	 103.404
| 15> H 	 -40.7405 	 56.8093 	 102.612
| 16> C 	 -39.1101 	 56.6622 	 103.921
| 17> H 	 -39.0399 	 55.5699 	 104.18
| 18> H 	 -38.468 	 56.7674 	 102.975
| 19> C 	 -38.4781 	 57.2716 	 105.18
| 20> H 	 -38.8629 	 56.8252 	 106.078
| 21> H 	 -37.367 	 57.0593 	 105.218
| 22> H 	 -38.7299 	 58.3411 	 105.31
| 23> S 	 -45.028 	 53.7673 	 106.575
| 24> C 	 -44.9431 	 52.0345 	 106.395
| 25> C 	 -43.868 	 51.6294 	 105.731
| 26> C 	 -43.0386 	 52.6971 	 105.282
| 27> C 	 -43.4529 	 53.9516 	 105.789
| 28> H 	 -43.7754 	 50.5326 	 105.577
| 29> C 	 -41.7115 	 52.4492 	 104.581
| 30> H 	 -41.6527 	 52.9226 	 103.674
| 31> H 	 -41.769 	 51.3775 	 104.398
| 32> C 	 -40.4084 	 52.8346 	 105.279
| 33> H 	 -40.3957 	 52.6455 	 106.336
| 34> H 	 -40.3111 	 53.8587 	 105.253
| 35> C 	 -39.1162 	 52.104 	 104.836
| 36> H 	 -38.9819 	 52.2271 	 103.722
| 37> H 	 -39.3481 	 51.0228 	 104.987
| 38> H 	 -38.2475 	 52.55 	 105.258
| 39> H 	 -41.3993 	 58.4963 	 106.261
| 40> H 	 -45.6898 	 51.3139 	 106.637
| 41> *
| 42>
| 43>                          ****END OF INPUT****

CARTESIAN COORDINATES (ANGSTROEM)
---------------------------------
  S    -42.785300   56.476300  106.871000
  C    -41.865900   57.593000  105.834000
  C    -41.571100   56.933100  104.611000
  C    -42.318400   55.696500  104.428000
  C    -42.940400   55.280100  105.592000
  H    -42.188300   54.957000  103.647000
  C    -40.482700   57.236800  103.648000
  H    -40.519700   58.260300  103.404000
  H    -40.740500   56.809300  102.612000
  C    -39.110100   56.662200  103.921000
  H    -39.039900   55.569900  104.180000
  H    -38.468000   56.767400  102.975000
  C    -38.478100   57.271600  105.180000
  H    -38.862900   56.825200  106.078000
  H    -37.367000   57.059300  105.218000
  H    -38.729900   58.341100  105.310000
  S    -45.028000   53.767300  106.575000
  C    -44.943100   52.034500  106.395000
  C    -43.868000   51.629400  105.731000
  C    -43.038600   52.697100  105.282000
  C    -43.452900   53.951600  105.789000
  H    -43.775400   50.532600  105.577000
  C    -41.711500   52.449200  104.581000
  H    -41.652700   52.922600  103.674000
  H    -41.769000   51.377500  104.398000
  C    -40.408400   52.834600  105.279000
  H    -40.395700   52.645500  106.336000
  H    -40.311100   53.858700  105.253000
  C    -39.116200   52.104000  104.836000
  H    -38.981900   52.227100  103.722000
  H    -39.348100   51.022800  104.987000
  H    -38.247500   52.550000  105.258000
  H    -41.399300   58.496300  106.261000
  H    -45.689800   51.313900  106.637000

 Total Charge           Charge          ....    0
 Multiplicity           Mult            ....    1
 Number of Electrons    NEL             ....  134
 Basis Dimension        Dim             ....  322

ORBITAL ENERGIES
----------------

  NO   OCC          E(Eh)            E(eV)
   0   2.0000     -88.968765     -2420.9632
   1   2.0000     -88.965477     -2420.8737
   2   2.0000     -10.331476      -281.1337
   3   2.0000     -10.330119      -281.0968
   4   2.0000     -10.325821      -280.9799
   5   2.0000     -10.311080      -280.5788
   6   2.0000     -10.310252      -280.5562
   7   2.0000     -10.309394      -280.5329
   8   2.0000     -10.298795      -280.2445
   9   2.0000     -10.295321      -280.1499
  10   2.0000     -10.293153      -280.0909
  11   2.0000     -10.292490      -280.0729
  12   2.0000     -10.287300      -279.9317
  13   2.0000     -10.284720      -279.8615
  14   2.0000     -10.279848      -279.7289
  15   2.0000     -10.275203      -279.6025
  16   2.0000      -8.082789      -219.9439
  17   2.0000      -8.080244      -219.8746
  18   2.0000      -6.041409      -164.3951
  19   2.0000      -6.038741      -164.3225
  20   2.0000      -6.037361      -164.2849
  21   2.0000      -6.034779      -164.2147
  22   2.0000      -6.033496      -164.1798
  23   2.0000      -6.030968      -164.1110
  24   2.0000      -1.007117       -27.4050
  25   2.0000      -0.982597       -26.7378
  26   2.0000      -0.915864       -24.9219
  27   2.0000      -0.911933       -24.8150
  28   2.0000      -0.873356       -23.7652
  29   2.0000      -0.853201       -23.2168
  30   2.0000      -0.845176       -22.9984
  31   2.0000      -0.817314       -22.2403
  32   2.0000      -0.784946       -21.3595
  33   2.0000      -0.774350       -21.0711
  34   2.0000      -0.713834       -19.4244
  35   2.0000      -0.700581       -19.0638
  36   2.0000      -0.694049       -18.8860
  37   2.0000      -0.659759       -17.9530
  38   2.0000      -0.640621       -17.4322
  39   2.0000      -0.621810       -16.9203
  40   2.0000      -0.600327       -16.3357
  41   2.0000      -0.571900       -15.5622
  42   2.0000      -0.570082       -15.5127
  43   2.0000      -0.548686       -14.9305
  44   2.0000      -0.535664       -14.5762
  45   2.0000      -0.528047       -14.3689
  46   2.0000      -0.523483       -14.2447
  47   2.0000      -0.513140       -13.9633
  48   2.0000      -0.505917       -13.7667
  49   2.0000      -0.499358       -13.5882
  50   2.0000      -0.492430       -13.3997
  51   2.0000      -0.486054       -13.2262
  52   2.0000      -0.470910       -12.8141
  53   2.0000      -0.467057       -12.7093
  54   2.0000      -0.458250       -12.4696
  55   2.0000      -0.449952       -12.2438
  56   2.0000      -0.447841       -12.1864
  57   2.0000      -0.443697       -12.0736
  58   2.0000      -0.437803       -11.9132
  59   2.0000      -0.422091       -11.4857
  60   2.0000      -0.413216       -11.2442
  61   2.0000      -0.412188       -11.2162
  62   2.0000      -0.401608       -10.9283
  63   2.0000      -0.353684        -9.6242
  64   2.0000      -0.333534        -9.0759
  65   2.0000      -0.328399        -8.9362
  66   2.0000      -0.289817        -7.8863
  67   0.0000       0.019750         0.5374
  68   0.0000       0.069629         1.8947
  69   0.0000       0.104884         2.8540
  70   0.0000       0.114904         3.1267
  71   0.0000       0.120260         3.2724

MULLIKEN ATOMIC CHARGES
-----------------------
   0 S :    0.102264
   1 C :   -0.124406
   2 C :   -0.105716
   3 C :    0.033912
   4 C :   -0.131453
   5 H :    0.009242
   6 C :    0.053304
   7 H :    0.023421
   8 H :    0.025206
   9 C :   -0.085458
  10 H :    0.038926
  11 H :    0.046844
  12 C :   -0.073576
  13 H :    0.033172
  14 H :    0.043343
  15 H :    0.026687
  16 S :    0.103580
  17 C :   -0.061990
  18 C :   -0.057776
  19 C :   -0.038229
  20 C :   -0.151192
  21 H :    0.032342
  22 C :    0.104314
  23 H :    0.007397
  24 H :    0.004476
  25 C :   -0.031172
  26 H :    0.019430
  27 H :   -0.001403
  28 C :   -0.063022
  29 H :    0.022916
  30 H :    0.044637
  31 H :    0.039291
  32 H :    0.069670
  33 H :    0.041018
Sum of atomic charges:    0.0000000

LOEWDIN ATOMIC CHARGES
----------------------
   0 S :    0.392954
   1 C :   -0.198788
   2 C :   -0.055113
   3 C :   -0.060495
   4 C :   -0.190785
   5 H :    0.031403
   6 C :   -0.043250
   7 H :    0.026527
   8 H :    0.039920
   9 C :   -0.048984
  10 H :    0.032113
  11 H :    0.033869
  12 C :   -0.075372
  13 H :    0.021631
  14 H :    0.033593
  15 H :    0.020696
  16 S :    0.399467
  17 C :   -0.180094
  18 C :   -0.080951
  19 C :   -0.047901
  20 C :   -0.190907
  21 H :    0.042465
  22 C :   -0.024074
  23 H :    0.016904
  24 H :    0.029502
  25 C :   -0.036823
  26 H :    0.024463
  27 H :    0.007593
  28 C :   -0.062261
  29 H :    0.023037
  30 H :    0.032256
  31 H :    0.024418
  32 H :    0.034498
  33 H :    0.028489

  Mayer bond orders larger than 0.100000
B(  0-S ,  1-C ) :   1.1227 B(  0-S ,  4-C ) :   1.1530 B(  1-C ,  2-C ) :   1.5935
B(  1-C , 32-H ) :   0.9696 B(  2-C ,  3-C ) :   1.2333 B(  2-C ,  6-C ) :   1.0377
B(  3-C ,  4-C ) :   1.5686 B(  3-C ,  5-H ) :   0.9886 B(  4-C , 20-C ) :   1.0703
B(  6-C ,  7-H ) :   0.9364 B(  6-C ,  8-H ) :   0.9359 B(  6-C ,  9-C ) :   1.0690
B(  9-C , 10-H ) :   0.9518 B(  9-C , 11-H ) :   0.9551 B(  9-C , 12-C ) :   1.0643
B( 12-C , 13-H ) :   0.9736 B( 12-C , 14-H ) :   0.9719 B( 12-C , 15-H ) :   0.9765
B( 16-S , 17-C ) :   1.1420 B( 16-S , 20-C ) :   1.1365 B( 17-C , 18-C ) :   1.6593
B( 17-C , 33-H ) :   0.9598 B( 18-C , 19-C ) :   1.2398 B( 18-C , 21-H ) :   0.9791
B( 19-C , 20-C ) :   1.5671 B( 19-C , 22-C ) :   1.0460 B( 22-C , 23-H ) :   0.9212
B( 22-C , 24-H ) :   0.9316 B( 22-C , 25-C ) :   1.0578 B( 25-C , 26-H ) :   0.9497
B( 25-C , 27-H ) :   0.9453 B( 25-C , 28-C ) :   1.0874 B( 28-C , 29-H ) :   0.9763
B( 28-C , 30-H ) :   0.9758 B( 28-C , 31-H ) :   0.9727

Dispersion correction           -0.016328065
FINAL SINGLE POINT ENERGY     -1339.854671632322

DIPOLE MOMENT
-------------
                                X             Y             Z
Electronic contribution:    -28.75558       2.99679      11.96369
Nuclear contribution   :     29.35595      -3.35730     -12.31147
                        -----------------------------------------
Total Dipole Moment    :      0.60037      -0.36051      -0.34778
                        -----------------------------------------
Magnitude (a.u.)       :      0.78190
Magnitude (Debye)      :      1.98743

Rotational constants in cm-1:     0.019548     0.010324     0.007494
Rotational constants in MHz :   586.019751   309.519347   224.662316

                             ****ORCA TERMINATED NORMALLY****
TOTAL RUN TIME: 0 days 0 hours 0 minutes 33 seconds 414 msec
