                         Program Version 4.2.1 -  RELEASE  -
|  1> ! wB97X-D3 SP def2-SVP
|  2> %pal
|  3> nprocs 16
|  4> end
|  5>
|  6> * xyz 0 1
|  7> S 	 2.28676 	 13.4339 	 46.5331
|  8> C 	 1.82327 	 11.9652 	 45.8014
|  9> C 	 2.95523 	 11.1721 	 45.5189
| 10> C 	 4.19921 	 11.866 	 45.6976
| 11> C 	 4.01008 	 13.1033 	 46.2247
| 12> H 	 5.14458 	 11.4529 	 45.4487
| 13> C 	 2.94463 	 9.83233 	 44.9591
| 14> H 	 2.46289 	 9.2608 	 45.7473
| 15> H 	 3.98829 	 9.52921 	 44.9178
| 16> C 	 2.25568 	 9.72995 	 43.5774
| 17> H 	 1.20313 	 10.0127 	 43.7042
| 18> H 	 2.81242 	 10.4327 	 42.8847
| 19> C 	 2.39345 	 8.3045 	 43.1081
| 20> H 	 1.80002 	 7.62635 	 43.7805
| 21> H 	 2.08195 	 8.2856 	 42.0532
| 22> H 	 3.45192 	 8.05547 	 42.919
| 23> S 	 5.03611 	 14.7186 	 48.132
| 24> C 	 6.22965 	 15.9325 	 47.6563
| 25> C 	 6.59859 	 15.8674 	 46.3467
| 26> C 	 5.91056 	 14.8 	 45.6491
| 27> C 	 4.97746 	 14.159 	 46.4099
| 28> H 	 7.27632 	 16.61 	 45.9319
| 29> C 	 6.31294 	 14.4085 	 44.2024
| 30> H 	 6.1753 	 13.3708 	 44.0526
| 31> H 	 7.35902 	 14.4896 	 44.0073
| 32> C 	 5.42094 	 14.9948 	 43.0176
| 33> H 	 5.79793 	 14.4657 	 42.1347
| 34> H 	 5.78842 	 15.9946 	 42.9398
| 35> C 	 3.90934 	 14.9009 	 43.1593
| 36> H 	 3.56867 	 13.9014 	 43.3796
| 37> H 	 3.32079 	 15.0511 	 42.2014
| 38> H 	 3.54978 	 15.5949 	 43.9204
| 39> H 	 0.791208 	 11.6698 	 45.8921
| 40> H 	 6.59304 	 16.6689 	 48.2634
| 41> *
| 42>
| 43>                          ****END OF INPUT****

CARTESIAN COORDINATES (ANGSTROEM)
---------------------------------
  S      2.286760   13.433900   46.533100
  C      1.823270   11.965200   45.801400
  C      2.955230   11.172100   45.518900
  C      4.199210   11.866000   45.697600
  C      4.010080   13.103300   46.224700
  H      5.144580   11.452900   45.448700
  C      2.944630    9.832330   44.959100
  H      2.462890    9.260800   45.747300
  H      3.988290    9.529210   44.917800
  C      2.255680    9.729950   43.577400
  H      1.203130   10.012700   43.704200
  H      2.812420   10.432700   42.884700
  C      2.393450    8.304500   43.108100
  H      1.800020    7.626350   43.780500
  H      2.081950    8.285600   42.053200
  H      3.451920    8.055470   42.919000
  S      5.036110   14.718600   48.132000
  C      6.229650   15.932500   47.656300
  C      6.598590   15.867400   46.346700
  C      5.910560   14.800000   45.649100
  C      4.977460   14.159000   46.409900
  H      7.276320   16.610000   45.931900
  C      6.312940   14.408500   44.202400
  H      6.175300   13.370800   44.052600
  H      7.359020   14.489600   44.007300
  C      5.420940   14.994800   43.017600
  H      5.797930   14.465700   42.134700
  H      5.788420   15.994600   42.939800
  C      3.909340   14.900900   43.159300
  H      3.568670   13.901400   43.379600
  H      3.320790   15.051100   42.201400
  H      3.549780   15.594900   43.920400
  H      0.791208   11.669800   45.892100
  H      6.593040   16.668900   48.263400

 Total Charge           Charge          ....    0
 Multiplicity           Mult            ....    1
 Number of Electrons    NEL             ....  134
 Basis Dimension        Dim             ....  322

ORBITAL ENERGIES
----------------

  NO   OCC          E(Eh)            E(eV)
   0   2.0000     -88.963235     -2420.8127
   1   2.0000     -88.960325     -2420.7335
   2   2.0000     -10.326102      -280.9875
   3   2.0000     -10.325584      -280.9734
   4   2.0000     -10.310515      -280.5634
   5   2.0000     -10.308639      -280.5123
   6   2.0000     -10.306704      -280.4597
   7   2.0000     -10.297099      -280.1983
   8   2.0000     -10.292802      -280.0814
   9   2.0000     -10.292755      -280.0801
  10   2.0000     -10.290521      -280.0193
  11   2.0000     -10.288210      -279.9564
  12   2.0000     -10.284019      -279.8424
  13   2.0000     -10.283231      -279.8209
  14   2.0000     -10.282619      -279.8043
  15   2.0000     -10.273728      -279.5623
  16   2.0000      -8.078376      -219.8238
  17   2.0000      -8.074332      -219.7137
  18   2.0000      -6.036818      -164.2702
  19   2.0000      -6.032907      -164.1637
  20   2.0000      -6.032756      -164.1596
  21   2.0000      -6.029248      -164.0642
  22   2.0000      -6.029163      -164.0619
  23   2.0000      -6.024843      -163.9443
  24   2.0000      -1.004664       -27.3383
  25   2.0000      -0.979881       -26.6639
  26   2.0000      -0.918247       -24.9868
  27   2.0000      -0.897493       -24.4220
  28   2.0000      -0.870693       -23.6928
  29   2.0000      -0.857463       -23.3328
  30   2.0000      -0.840466       -22.8703
  31   2.0000      -0.817271       -22.2391
  32   2.0000      -0.782841       -21.3022
  33   2.0000      -0.764994       -20.8165
  34   2.0000      -0.705416       -19.1953
  35   2.0000      -0.699581       -19.0366
  36   2.0000      -0.690176       -18.7806
  37   2.0000      -0.663582       -18.0570
  38   2.0000      -0.648380       -17.6433
  39   2.0000      -0.618691       -16.8354
  40   2.0000      -0.595509       -16.2046
  41   2.0000      -0.576129       -15.6773
  42   2.0000      -0.561987       -15.2924
  43   2.0000      -0.546556       -14.8725
  44   2.0000      -0.538170       -14.6443
  45   2.0000      -0.527534       -14.3549
  46   2.0000      -0.519765       -14.1435
  47   2.0000      -0.509877       -13.8745
  48   2.0000      -0.501399       -13.6438
  49   2.0000      -0.499106       -13.5814
  50   2.0000      -0.487477       -13.2649
  51   2.0000      -0.472613       -12.8605
  52   2.0000      -0.466211       -12.6862
  53   2.0000      -0.464390       -12.6367
  54   2.0000      -0.459019       -12.4906
  55   2.0000      -0.448996       -12.2178
  56   2.0000      -0.448168       -12.1953
  57   2.0000      -0.436012       -11.8645
  58   2.0000      -0.432575       -11.7710
  59   2.0000      -0.423641       -11.5279
  60   2.0000      -0.417079       -11.3493
  61   2.0000      -0.410667       -11.1748
  62   2.0000      -0.405667       -11.0388
  63   2.0000      -0.345538        -9.4026
  64   2.0000      -0.328421        -8.9368
  65   2.0000      -0.325353        -8.8533
  66   2.0000      -0.291466        -7.9312
  67   0.0000       0.033316         0.9066
  68   0.0000       0.062907         1.7118
  69   0.0000       0.106984         2.9112
  70   0.0000       0.122319         3.3285
  71   0.0000       0.129255         3.5172

MULLIKEN ATOMIC CHARGES
-----------------------
   0 S :    0.119192
   1 C :   -0.133539
   2 C :   -0.106893
   3 C :    0.040373
   4 C :   -0.131877
   5 H :    0.006530
   6 C :    0.068144
   7 H :    0.032282
   8 H :    0.006464
   9 C :   -0.097774
  10 H :    0.038030
  11 H :    0.040424
  12 C :   -0.028869
  13 H :    0.050394
  14 H :    0.026483
  15 H :    0.027220
  16 S :    0.079719
  17 C :   -0.039056
  18 C :   -0.045133
  19 C :   -0.016709
  20 C :   -0.167194
  21 H :    0.025115
  22 C :    0.068838
  23 H :   -0.003156
  24 H :    0.019745
  25 C :   -0.058437
  26 H :    0.023832
  27 H :    0.019088
  28 C :   -0.047495
  29 H :    0.027068
  30 H :    0.036174
  31 H :    0.048941
  32 H :    0.053512
  33 H :    0.018565
Sum of atomic charges:    0.0000000

LOEWDIN ATOMIC CHARGES
----------------------
   0 S :    0.417519
   1 C :   -0.218559
   2 C :   -0.060366
   3 C :   -0.055698
   4 C :   -0.188078
   5 H :    0.028626
   6 C :   -0.041467
   7 H :    0.034445
   8 H :    0.026669
   9 C :   -0.037218
  10 H :    0.025072
  11 H :    0.032167
  12 C :   -0.073968
  13 H :    0.034287
  14 H :    0.027235
  15 H :    0.028161
  16 S :    0.362934
  17 C :   -0.158576
  18 C :   -0.069490
  19 C :   -0.051764
  20 C :   -0.173271
  21 H :    0.035705
  22 C :   -0.028942
  23 H :    0.020038
  24 H :    0.028160
  25 C :   -0.033354
  26 H :    0.023374
  27 H :    0.015609
  28 C :   -0.072543
  29 H :    0.023863
  30 H :    0.035913
  31 H :    0.029826
  32 H :    0.024115
  33 H :    0.009574

  Mayer bond orders larger than 0.100000
B(  0-S ,  1-C ) :   1.1530 B(  0-S ,  4-C ) :   1.1568 B(  1-C ,  2-C ) :   1.5602
B(  1-C ,  4-C ) :   0.1020 B(  1-C , 32-H ) :   0.9733 B(  2-C ,  3-C ) :   1.2484
B(  2-C ,  6-C ) :   1.0374 B(  3-C ,  4-C ) :   1.5731 B(  3-C ,  5-H ) :   1.0022
B(  4-C , 20-C ) :   1.0124 B(  6-C ,  7-H ) :   0.9205 B(  6-C ,  8-H ) :   0.9410
B(  6-C ,  9-C ) :   1.0669 B(  9-C , 10-H ) :   0.9521 B(  9-C , 11-H ) :   0.9530
B(  9-C , 12-C ) :   1.0961 B( 12-C , 13-H ) :   0.9707 B( 12-C , 14-H ) :   0.9693
B( 12-C , 15-H ) :   0.9689 B( 16-S , 17-C ) :   1.1267 B( 16-S , 20-C ) :   1.1148
B( 17-C , 18-C ) :   1.6710 B( 17-C , 33-H ) :   0.9731 B( 18-C , 19-C ) :   1.1762
B( 18-C , 21-H ) :   0.9898 B( 19-C , 20-C ) :   1.6737 B( 19-C , 22-C ) :   1.0291
B( 22-C , 23-H ) :   0.9386 B( 22-C , 24-H ) :   0.9427 B( 22-C , 25-C ) :   1.0590
B( 25-C , 26-H ) :   0.9580 B( 25-C , 27-H ) :   0.9607 B( 25-C , 28-C ) :   1.0799
B( 28-C , 29-H ) :   0.9715 B( 28-C , 30-H ) :   0.9712 B( 28-C , 31-H ) :   0.9705

Dispersion correction           -0.015555831
FINAL SINGLE POINT ENERGY     -1339.867939754163

DIPOLE MOMENT
-------------
                                X             Y             Z
Electronic contribution:      0.88382      13.59997      24.47270
Nuclear contribution   :     -0.68800     -13.95621     -25.03025
                        -----------------------------------------
Total Dipole Moment    :      0.19582      -0.35624      -0.55755
                        -----------------------------------------
Magnitude (a.u.)       :      0.69001
Magnitude (Debye)      :      1.75387

Rotational constants in cm-1:     0.022338     0.008461     0.007164
Rotational constants in MHz :   669.671633   253.648753   214.764380

                             ****ORCA TERMINATED NORMALLY****
TOTAL RUN TIME: 0 days 0 hours 0 minutes 35 seconds 633 msec
