                         Program Version 4.2.1 -  RELEASE  -
|  1> ! wB97X-D3 SP def2-SVP
|  2> %pal
|  3> nprocs 16
|  4> end
|  5>
|  6> * xyz 0 1
|  7> S 	 53.6278 	 20.4957 	 48.4591
|  8> C 	 53.9935 	 22.1707 	 48.3668
|  9> C 	 53.4303 	 22.9573 	 49.3823
| 10> C 	 52.5634 	 22.1144 	 50.1799
| 11> C 	 52.5907 	 20.7211 	 49.8313
| 12> H 	 51.8794 	 22.428 	 50.95
| 13> C 	 53.464 	 24.4819 	 49.3427
| 14> H 	 53.5348 	 24.7048 	 48.2173
| 15> H 	 54.395 	 24.8765 	 49.7945
| 16> C 	 52.2003 	 25.1722 	 49.8345
| 17> H 	 51.9712 	 25.0093 	 50.9316
| 18> H 	 52.4179 	 26.2674 	 49.6756
| 19> C 	 50.906 	 25.045 	 49.0331
| 20> H 	 50.074 	 25.6261 	 49.6202
| 21> H 	 51.0646 	 25.5476 	 48.1109
| 22> H 	 50.6709 	 23.9835 	 48.9128
| 23> S 	 52.6338 	 19.1501 	 52.1551
| 24> C 	 51.5493 	 17.7888 	 52.2178
| 25> C 	 50.6756 	 17.7715 	 51.156
| 26> C 	 50.9173 	 18.8292 	 50.259
| 27> C 	 52.0506 	 19.6219 	 50.5818
| 28> H 	 49.8607 	 17.1199 	 51.0954
| 29> C 	 49.8353 	 19.1863 	 49.239
| 30> H 	 49.3084 	 18.2532 	 48.8771
| 31> H 	 50.2643 	 19.7251 	 48.4127
| 32> C 	 48.7819 	 20.2551 	 49.7482
| 33> H 	 49.2113 	 21.2761 	 49.814
| 34> H 	 48.4789 	 20.033 	 50.7852
| 35> C 	 47.4637 	 20.3868 	 48.8719
| 36> H 	 46.773 	 21.0519 	 49.3523
| 37> H 	 46.9445 	 19.4199 	 48.8775
| 38> H 	 47.6479 	 20.8093 	 47.9443
| 39> H 	 54.6308 	 22.5488 	 47.5975
| 40> H 	 51.5416 	 16.9852 	 52.939
| 41> *
| 42>
| 43>                          ****END OF INPUT****

CARTESIAN COORDINATES (ANGSTROEM)
---------------------------------
  S     53.627800   20.495700   48.459100
  C     53.993500   22.170700   48.366800
  C     53.430300   22.957300   49.382300
  C     52.563400   22.114400   50.179900
  C     52.590700   20.721100   49.831300
  H     51.879400   22.428000   50.950000
  C     53.464000   24.481900   49.342700
  H     53.534800   24.704800   48.217300
  H     54.395000   24.876500   49.794500
  C     52.200300   25.172200   49.834500
  H     51.971200   25.009300   50.931600
  H     52.417900   26.267400   49.675600
  C     50.906000   25.045000   49.033100
  H     50.074000   25.626100   49.620200
  H     51.064600   25.547600   48.110900
  H     50.670900   23.983500   48.912800
  S     52.633800   19.150100   52.155100
  C     51.549300   17.788800   52.217800
  C     50.675600   17.771500   51.156000
  C     50.917300   18.829200   50.259000
  C     52.050600   19.621900   50.581800
  H     49.860700   17.119900   51.095400
  C     49.835300   19.186300   49.239000
  H     49.308400   18.253200   48.877100
  H     50.264300   19.725100   48.412700
  C     48.781900   20.255100   49.748200
  H     49.211300   21.276100   49.814000
  H     48.478900   20.033000   50.785200
  C     47.463700   20.386800   48.871900
  H     46.773000   21.051900   49.352300
  H     46.944500   19.419900   48.877500
  H     47.647900   20.809300   47.944300
  H     54.630800   22.548800   47.597500
  H     51.541600   16.985200   52.939000

 Total Charge           Charge          ....    0
 Multiplicity           Mult            ....    1
 Number of Electrons    NEL             ....  134
 Basis Dimension        Dim             ....  322

ORBITAL ENERGIES
----------------

  NO   OCC          E(Eh)            E(eV)
   0   2.0000     -88.969222     -2420.9756
   1   2.0000     -88.968604     -2420.9588
   2   2.0000     -10.328220      -281.0452
   3   2.0000     -10.324497      -280.9439
   4   2.0000     -10.316470      -280.7254
   5   2.0000     -10.311690      -280.5954
   6   2.0000     -10.305686      -280.4320
   7   2.0000     -10.304550      -280.4011
   8   2.0000     -10.301553      -280.3195
   9   2.0000     -10.300724      -280.2969
  10   2.0000     -10.294206      -280.1196
  11   2.0000     -10.293859      -280.1101
  12   2.0000     -10.291015      -280.0328
  13   2.0000     -10.285540      -279.8838
  14   2.0000     -10.283819      -279.8369
  15   2.0000     -10.273220      -279.5485
  16   2.0000      -8.083762      -219.9703
  17   2.0000      -8.083742      -219.9698
  18   2.0000      -6.042176      -164.4160
  19   2.0000      -6.041940      -164.4095
  20   2.0000      -6.038215      -164.3082
  21   2.0000      -6.038023      -164.3030
  22   2.0000      -6.034975      -164.2200
  23   2.0000      -6.034713      -164.2129
  24   2.0000      -1.004910       -27.3450
  25   2.0000      -0.983952       -26.7747
  26   2.0000      -0.912415       -24.8281
  27   2.0000      -0.894735       -24.3470
  28   2.0000      -0.870766       -23.6947
  29   2.0000      -0.848525       -23.0895
  30   2.0000      -0.843859       -22.9626
  31   2.0000      -0.812328       -22.1046
  32   2.0000      -0.784641       -21.3512
  33   2.0000      -0.767687       -20.8898
  34   2.0000      -0.708007       -19.2658
  35   2.0000      -0.690881       -18.7998
  36   2.0000      -0.681364       -18.5408
  37   2.0000      -0.662398       -18.0248
  38   2.0000      -0.640717       -17.4348
  39   2.0000      -0.616627       -16.7793
  40   2.0000      -0.593904       -16.1610
  41   2.0000      -0.570456       -15.5229
  42   2.0000      -0.558175       -15.1887
  43   2.0000      -0.552638       -15.0380
  44   2.0000      -0.543493       -14.7892
  45   2.0000      -0.520850       -14.1730
  46   2.0000      -0.513412       -13.9707
  47   2.0000      -0.510439       -13.8897
  48   2.0000      -0.507488       -13.8095
  49   2.0000      -0.494534       -13.4569
  50   2.0000      -0.485618       -13.2143
  51   2.0000      -0.478329       -13.0160
  52   2.0000      -0.472567       -12.8592
  53   2.0000      -0.465898       -12.6777
  54   2.0000      -0.457744       -12.4558
  55   2.0000      -0.449163       -12.2223
  56   2.0000      -0.444087       -12.0842
  57   2.0000      -0.438504       -11.9323
  58   2.0000      -0.430110       -11.7039
  59   2.0000      -0.422719       -11.5028
  60   2.0000      -0.418330       -11.3833
  61   2.0000      -0.416044       -11.3211
  62   2.0000      -0.407402       -11.0860
  63   2.0000      -0.336367        -9.1530
  64   2.0000      -0.330734        -8.9997
  65   2.0000      -0.323258        -8.7963
  66   2.0000      -0.296608        -8.0711
  67   0.0000       0.035370         0.9625
  68   0.0000       0.053128         1.4457
  69   0.0000       0.106657         2.9023
  70   0.0000       0.123109         3.3500
  71   0.0000       0.129275         3.5177

MULLIKEN ATOMIC CHARGES
-----------------------
   0 S :    0.145711
   1 C :   -0.130758
   2 C :   -0.075207
   3 C :    0.024050
   4 C :   -0.195935
   5 H :    0.011847
   6 C :    0.058730
   7 H :    0.033289
   8 H :    0.053846
   9 C :   -0.146262
  10 H :    0.049039
  11 H :    0.034765
  12 C :   -0.055970
  13 H :    0.051337
  14 H :    0.026961
  15 H :    0.047386
  16 S :    0.137879
  17 C :   -0.089854
  18 C :   -0.003051
  19 C :   -0.032154
  20 C :   -0.172051
  21 H :   -0.003164
  22 C :    0.072884
  23 H :    0.033031
  24 H :    0.021607
  25 C :   -0.111923
  26 H :    0.034614
  27 H :    0.023936
  28 C :   -0.023357
  29 H :    0.022795
  30 H :    0.032468
  31 H :    0.026238
  32 H :    0.043915
  33 H :    0.053357
Sum of atomic charges:   -0.0000000

LOEWDIN ATOMIC CHARGES
----------------------
   0 S :    0.444504
   1 C :   -0.204234
   2 C :   -0.069318
   3 C :   -0.058782
   4 C :   -0.215862
   5 H :    0.026548
   6 C :   -0.038135
   7 H :    0.041317
   8 H :    0.038740
   9 C :   -0.060766
  10 H :    0.027136
  11 H :    0.033194
  12 C :   -0.065562
  13 H :    0.042214
  14 H :    0.018186
  15 H :    0.022984
  16 S :    0.427653
  17 C :   -0.184046
  18 C :   -0.067015
  19 C :   -0.049995
  20 C :   -0.222240
  21 H :    0.023420
  22 C :   -0.033595
  23 H :    0.033424
  24 H :    0.026941
  25 C :   -0.038678
  26 H :    0.024858
  27 H :    0.018819
  28 C :   -0.058794
  29 H :    0.025546
  30 H :    0.026756
  31 H :    0.014626
  32 H :    0.020375
  33 H :    0.029780

  Mayer bond orders larger than 0.100000
B(  0-S ,  1-C ) :   1.1842 B(  0-S ,  4-C ) :   1.1691 B(  1-C ,  2-C ) :   1.5668
B(  1-C ,  4-C ) :   0.1072 B(  1-C , 32-H ) :   0.9699 B(  2-C ,  3-C ) :   1.2728
B(  2-C ,  6-C ) :   1.0005 B(  3-C ,  4-C ) :   1.5309 B(  3-C ,  5-H ) :   0.9936
B(  4-C , 20-C ) :   1.0631 B(  6-C ,  7-H ) :   0.9497 B(  6-C ,  8-H ) :   0.9331
B(  6-C ,  9-C ) :   1.0818 B(  9-C , 10-H ) :   0.9518 B(  9-C , 11-H ) :   0.9555
B(  9-C , 12-C ) :   1.0719 B( 12-C , 13-H ) :   0.9725 B( 12-C , 14-H ) :   0.9739
B( 12-C , 15-H ) :   0.9757 B( 16-S , 17-C ) :   1.1752 B( 16-S , 20-C ) :   1.1443
B( 17-C , 18-C ) :   1.5726 B( 17-C , 20-C ) :   0.1016 B( 17-C , 33-H ) :   0.9652
B( 18-C , 19-C ) :   1.2877 B( 18-C , 21-H ) :   0.9979 B( 19-C , 20-C ) :   1.5345
B( 19-C , 22-C ) :   1.0692 B( 22-C , 23-H ) :   0.9435 B( 22-C , 24-H ) :   0.9228
B( 22-C , 25-C ) :   1.0425 B( 25-C , 26-H ) :   0.9573 B( 25-C , 27-H ) :   0.9624
B( 25-C , 28-C ) :   1.0797 B( 28-C , 29-H ) :   0.9734 B( 28-C , 30-H ) :   0.9766
B( 28-C , 31-H ) :   0.9786

Dispersion correction           -0.014880026
FINAL SINGLE POINT ENERGY     -1339.870692046598

DIPOLE MOMENT
-------------
                                X             Y             Z
Electronic contribution:     20.47602     -18.11574       6.72852
Nuclear contribution   :    -20.87006      18.49745      -6.80613
                        -----------------------------------------
Total Dipole Moment    :     -0.39404       0.38171      -0.07762
                        -----------------------------------------
Magnitude (a.u.)       :      0.55407
Magnitude (Debye)      :      1.40834

Rotational constants in cm-1:     0.016842     0.009416     0.007492
Rotational constants in MHz :   504.903630   282.279443   224.618762

                             ****ORCA TERMINATED NORMALLY****
TOTAL RUN TIME: 0 days 0 hours 0 minutes 30 seconds 968 msec
