                         Program Version 4.2.1 -  RELEASE  -
|  1> ! wB97X-D3 SP def2-SVP
|  2> %pal
|  3> nprocs 16
|  4> end
|  5>
|  6> * xyz 0 1
|  7> S 	 11.3881 	 -4.98489 	 62.8637
|  8> C 	 10.3259 	 -3.66534 	 62.8163
|  9> C 	 10.7525 	 -2.64337 	 63.7167
| 10> C 	 12.0002 	 -2.96739 	 64.3027
| 11> C 	 12.4035 	 -4.2644 	 64.1281
| 12> H 	 12.6477 	 -2.32888 	 64.9165
| 13> C 	 10.1282 	 -1.29757 	 63.9559
| 14> H 	 10.2365 	 -0.755224 	 62.9939
| 15> H 	 10.725 	 -0.715293 	 64.5968
| 16> C 	 8.71524 	 -1.28694 	 64.5429
| 17> H 	 8.22626 	 -0.335798 	 64.5149
| 18> H 	 8.0417 	 -1.82397 	 63.8224
| 19> C 	 8.75132 	 -1.96316 	 65.984
| 20> H 	 9.52957 	 -1.41698 	 66.5944
| 21> H 	 7.7448 	 -1.86342 	 66.3982
| 22> H 	 9.01025 	 -2.99745 	 65.9486
| 23> S 	 14.7373 	 -5.64211 	 63.4509
| 24> C 	 15.8578 	 -6.16321 	 64.7277
| 25> C 	 15.4714 	 -5.70014 	 65.9318
| 26> C 	 14.292 	 -4.82224 	 65.8957
| 27> C 	 13.649 	 -4.84039 	 64.6412
| 28> H 	 15.9674 	 -5.88523 	 66.8955
| 29> C 	 13.6922 	 -4.25015 	 67.1499
| 30> H 	 13.4384 	 -3.15 	 66.9727
| 31> H 	 14.3909 	 -4.22669 	 67.9637
| 32> C 	 12.3963 	 -4.87121 	 67.7048
| 33> H 	 12.7274 	 -5.754 	 68.2419
| 34> H 	 11.7494 	 -5.0685 	 66.8357
| 35> C 	 11.4894 	 -3.93646 	 68.5412
| 36> H 	 11.8387 	 -3.6139 	 69.5023
| 37> H 	 10.5923 	 -4.51859 	 68.7238
| 38> H 	 11.2405 	 -3.01402 	 67.9462
| 39> H 	 9.42494 	 -3.60517 	 62.2589
| 40> H 	 16.5219 	 -6.94429 	 64.6115
| 41> *
| 42>
| 43>                          ****END OF INPUT****

CARTESIAN COORDINATES (ANGSTROEM)
---------------------------------
  S     11.388100   -4.984890   62.863700
  C     10.325900   -3.665340   62.816300
  C     10.752500   -2.643370   63.716700
  C     12.000200   -2.967390   64.302700
  C     12.403500   -4.264400   64.128100
  H     12.647700   -2.328880   64.916500
  C     10.128200   -1.297570   63.955900
  H     10.236500   -0.755224   62.993900
  H     10.725000   -0.715293   64.596800
  C      8.715240   -1.286940   64.542900
  H      8.226260   -0.335798   64.514900
  H      8.041700   -1.823970   63.822400
  C      8.751320   -1.963160   65.984000
  H      9.529570   -1.416980   66.594400
  H      7.744800   -1.863420   66.398200
  H      9.010250   -2.997450   65.948600
  S     14.737300   -5.642110   63.450900
  C     15.857800   -6.163210   64.727700
  C     15.471400   -5.700140   65.931800
  C     14.292000   -4.822240   65.895700
  C     13.649000   -4.840390   64.641200
  H     15.967400   -5.885230   66.895500
  C     13.692200   -4.250150   67.149900
  H     13.438400   -3.150000   66.972700
  H     14.390900   -4.226690   67.963700
  C     12.396300   -4.871210   67.704800
  H     12.727400   -5.754000   68.241900
  H     11.749400   -5.068500   66.835700
  C     11.489400   -3.936460   68.541200
  H     11.838700   -3.613900   69.502300
  H     10.592300   -4.518590   68.723800
  H     11.240500   -3.014020   67.946200
  H      9.424940   -3.605170   62.258900
  H     16.521900   -6.944290   64.611500

 Total Charge           Charge          ....    0
 Multiplicity           Mult            ....    1
 Number of Electrons    NEL             ....  134
 Basis Dimension        Dim             ....  322

ORBITAL ENERGIES
----------------

  NO   OCC          E(Eh)            E(eV)
   0   2.0000     -88.971826     -2421.0465
   1   2.0000     -88.961239     -2420.7584
   2   2.0000     -10.335439      -281.2416
   3   2.0000     -10.330866      -281.1172
   4   2.0000     -10.317648      -280.7575
   5   2.0000     -10.311532      -280.5910
   6   2.0000     -10.308806      -280.5169
   7   2.0000     -10.305285      -280.4211
   8   2.0000     -10.297738      -280.2157
   9   2.0000     -10.295122      -280.1445
  10   2.0000     -10.293136      -280.0905
  11   2.0000     -10.291371      -280.0424
  12   2.0000     -10.289263      -279.9851
  13   2.0000     -10.285086      -279.8714
  14   2.0000     -10.284827      -279.8644
  15   2.0000     -10.279465      -279.7185
  16   2.0000      -8.086650      -220.0489
  17   2.0000      -8.075115      -219.7350
  18   2.0000      -6.045094      -164.4954
  19   2.0000      -6.040948      -164.3826
  20   2.0000      -6.037661      -164.2931
  21   2.0000      -6.033874      -164.1901
  22   2.0000      -6.029776      -164.0785
  23   2.0000      -6.025623      -163.9655
  24   2.0000      -1.006491       -27.3880
  25   2.0000      -0.980239       -26.6737
  26   2.0000      -0.911202       -24.7951
  27   2.0000      -0.905105       -24.6291
  28   2.0000      -0.871770       -23.7221
  29   2.0000      -0.849825       -23.1249
  30   2.0000      -0.842789       -22.9335
  31   2.0000      -0.815166       -22.1818
  32   2.0000      -0.779705       -21.2168
  33   2.0000      -0.770983       -20.9795
  34   2.0000      -0.712059       -19.3761
  35   2.0000      -0.705160       -19.1884
  36   2.0000      -0.687070       -18.6961
  37   2.0000      -0.664029       -18.0692
  38   2.0000      -0.646494       -17.5920
  39   2.0000      -0.610822       -16.6213
  40   2.0000      -0.595248       -16.1975
  41   2.0000      -0.574345       -15.6287
  42   2.0000      -0.570120       -15.5138
  43   2.0000      -0.557012       -15.1571
  44   2.0000      -0.541194       -14.7266
  45   2.0000      -0.521379       -14.1874
  46   2.0000      -0.513015       -13.9599
  47   2.0000      -0.509314       -13.8591
  48   2.0000      -0.502470       -13.6729
  49   2.0000      -0.501391       -13.6436
  50   2.0000      -0.490466       -13.3463
  51   2.0000      -0.481113       -13.0918
  52   2.0000      -0.478548       -13.0220
  53   2.0000      -0.463300       -12.6070
  54   2.0000      -0.459540       -12.5047
  55   2.0000      -0.442857       -12.0508
  56   2.0000      -0.439989       -11.9727
  57   2.0000      -0.438280       -11.9262
  58   2.0000      -0.428955       -11.6725
  59   2.0000      -0.424296       -11.5457
  60   2.0000      -0.419838       -11.4244
  61   2.0000      -0.417181       -11.3521
  62   2.0000      -0.412978       -11.2377
  63   2.0000      -0.354382        -9.6432
  64   2.0000      -0.330016        -8.9802
  65   2.0000      -0.324899        -8.8410
  66   2.0000      -0.289768        -7.8850
  67   0.0000       0.019193         0.5223
  68   0.0000       0.068655         1.8682
  69   0.0000       0.107570         2.9271
  70   0.0000       0.120934         3.2908
  71   0.0000       0.125667         3.4196

MULLIKEN ATOMIC CHARGES
-----------------------
   0 S :    0.129315
   1 C :   -0.097722
   2 C :   -0.107705
   3 C :    0.007680
   4 C :   -0.149037
   5 H :    0.026232
   6 C :    0.073794
   7 H :    0.041988
   8 H :    0.000235
   9 C :   -0.067261
  10 H :    0.024491
  11 H :    0.020599
  12 C :   -0.069342
  13 H :    0.043596
  14 H :    0.041189
  15 H :    0.050575
  16 S :    0.074255
  17 C :   -0.045359
  18 C :   -0.028183
  19 C :   -0.038770
  20 C :   -0.149528
  21 H :    0.027907
  22 C :    0.031615
  23 H :    0.019314
  24 H :    0.009792
  25 C :   -0.069586
  26 H :    0.032150
  27 H :    0.042946
  28 C :   -0.051980
  29 H :    0.024986
  30 H :    0.036015
  31 H :    0.033318
  32 H :    0.043753
  33 H :    0.038729
Sum of atomic charges:    0.0000000

LOEWDIN ATOMIC CHARGES
----------------------
   0 S :    0.432602
   1 C :   -0.207006
   2 C :   -0.062894
   3 C :   -0.058389
   4 C :   -0.202267
   5 H :    0.035249
   6 C :   -0.036875
   7 H :    0.038959
   8 H :    0.019383
   9 C :   -0.040841
  10 H :    0.020857
  11 H :    0.022830
  12 C :   -0.060789
  13 H :    0.029581
  14 H :    0.027929
  15 H :    0.024064
  16 S :    0.363290
  17 C :   -0.166869
  18 C :   -0.064051
  19 C :   -0.058560
  20 C :   -0.171917
  21 H :    0.035892
  22 C :   -0.044661
  23 H :    0.032101
  24 H :    0.022874
  25 C :   -0.037261
  26 H :    0.023351
  27 H :    0.031069
  28 C :   -0.064470
  29 H :    0.015975
  30 H :    0.029393
  31 H :    0.029515
  32 H :    0.024663
  33 H :    0.017272

  Mayer bond orders larger than 0.100000
B(  0-S ,  1-C ) :   1.1746 B(  0-S ,  4-C ) :   1.1482 B(  1-C ,  2-C ) :   1.5416
B(  1-C ,  4-C ) :   0.1047 B(  1-C , 32-H ) :   0.9749 B(  2-C ,  3-C ) :   1.2776
B(  2-C ,  6-C ) :   1.0211 B(  3-C ,  4-C ) :   1.5489 B(  3-C ,  5-H ) :   0.9852
B(  4-C , 20-C ) :   1.0625 B(  6-C ,  7-H ) :   0.9329 B(  6-C ,  8-H ) :   0.9454
B(  6-C ,  9-C ) :   1.0714 B(  9-C , 10-H ) :   0.9575 B(  9-C , 11-H ) :   0.9562
B(  9-C , 12-C ) :   1.0540 B( 12-C , 13-H ) :   0.9747 B( 12-C , 14-H ) :   0.9745
B( 12-C , 15-H ) :   0.9772 B( 16-S , 17-C ) :   1.1227 B( 16-S , 20-C ) :   1.1250
B( 17-C , 18-C ) :   1.6486 B( 17-C , 33-H ) :   0.9707 B( 18-C , 19-C ) :   1.2191
B( 18-C , 21-H ) :   0.9815 B( 19-C , 20-C ) :   1.5984 B( 19-C , 22-C ) :   1.0680
B( 22-C , 23-H ) :   0.9307 B( 22-C , 24-H ) :   0.9327 B( 22-C , 25-C ) :   1.0550
B( 25-C , 26-H ) :   0.9567 B( 25-C , 27-H ) :   0.9571 B( 25-C , 28-C ) :   1.0816
B( 28-C , 29-H ) :   0.9764 B( 28-C , 30-H ) :   0.9742 B( 28-C , 31-H ) :   0.9691

Dispersion correction           -0.015696805
FINAL SINGLE POINT ENERGY     -1339.871605578429

DIPOLE MOMENT
-------------
                                X             Y             Z
Electronic contribution:     16.27178     -14.84142     -21.47439
Nuclear contribution   :    -16.59324      15.22070      21.96755
                        -----------------------------------------
Total Dipole Moment    :     -0.32145       0.37927       0.49316
                        -----------------------------------------
Magnitude (a.u.)       :      0.70028
Magnitude (Debye)      :      1.77996

Rotational constants in cm-1:     0.019637     0.009760     0.007151
Rotational constants in MHz :   588.695375   292.606352   214.377265

                             ****ORCA TERMINATED NORMALLY****
TOTAL RUN TIME: 0 days 0 hours 0 minutes 36 seconds 961 msec
