                         Program Version 4.2.1 -  RELEASE  -
|  1> ! wB97X-D3 SP def2-SVP
|  2> %pal
|  3> nprocs 16
|  4> end
|  5>
|  6> * xyz 0 1
|  7> S 	 -32.4864 	 2.968 	 98.5069
|  8> C 	 -32.4624 	 1.29194 	 97.8628
|  9> C 	 -33.3717 	 0.440568 	 98.4493
| 10> C 	 -34.1737 	 1.18704 	 99.4054
| 11> C 	 -33.8964 	 2.51468 	 99.5098
| 12> H 	 -34.9776 	 0.77723 	 99.9722
| 13> C 	 -33.444 	 -1.04967 	 98.2582
| 14> H 	 -34.0819 	 -1.55063 	 99.0457
| 15> H 	 -32.4712 	 -1.4564 	 98.3783
| 16> C 	 -34.0132 	 -1.39261 	 96.9202
| 17> H 	 -35.0099 	 -0.958065 	 96.9247
| 18> H 	 -33.4119 	 -1.12181 	 96.1145
| 19> C 	 -34.2644 	 -2.92882 	 96.7715
| 20> H 	 -35.0096 	 -3.32461 	 97.4387
| 21> H 	 -34.539 	 -3.15703 	 95.7644
| 22> H 	 -33.3327 	 -3.47565 	 96.8689
| 23> S 	 -35.0138 	 4.97513 	 99.4355
| 24> C 	 -36.0521 	 5.43313 	 100.74
| 25> C 	 -35.9105 	 4.6336 	 101.861
| 26> C 	 -35.144 	 3.42583 	 101.592
| 27> C 	 -34.5859 	 3.45462 	 100.314
| 28> H 	 -36.5531 	 4.89179 	 102.65
| 29> C 	 -35.1652 	 2.30826 	 102.543
| 30> H 	 -34.7663 	 2.58511 	 103.607
| 31> H 	 -34.4126 	 1.49775 	 102.208
| 32> C 	 -36.5381 	 1.58673 	 102.662
| 33> H 	 -36.7445 	 1.01013 	 101.768
| 34> H 	 -37.4616 	 2.30728 	 102.583
| 35> C 	 -36.753 	 0.6446 	 103.891
| 36> H 	 -35.9688 	 -0.10596 	 103.885
| 37> H 	 -37.8032 	 0.265785 	 103.741
| 38> H 	 -36.7325 	 1.16191 	 104.872
| 39> H 	 -31.8678 	 0.932577 	 97.0156
| 40> H 	 -36.7978 	 6.16316 	 100.667
| 41> *
| 42>
| 43>                          ****END OF INPUT****

CARTESIAN COORDINATES (ANGSTROEM)
---------------------------------
  S    -32.486400    2.968000   98.506900
  C    -32.462400    1.291940   97.862800
  C    -33.371700    0.440568   98.449300
  C    -34.173700    1.187040   99.405400
  C    -33.896400    2.514680   99.509800
  H    -34.977600    0.777230   99.972200
  C    -33.444000   -1.049670   98.258200
  H    -34.081900   -1.550630   99.045700
  H    -32.471200   -1.456400   98.378300
  C    -34.013200   -1.392610   96.920200
  H    -35.009900   -0.958065   96.924700
  H    -33.411900   -1.121810   96.114500
  C    -34.264400   -2.928820   96.771500
  H    -35.009600   -3.324610   97.438700
  H    -34.539000   -3.157030   95.764400
  H    -33.332700   -3.475650   96.868900
  S    -35.013800    4.975130   99.435500
  C    -36.052100    5.433130  100.740000
  C    -35.910500    4.633600  101.861000
  C    -35.144000    3.425830  101.592000
  C    -34.585900    3.454620  100.314000
  H    -36.553100    4.891790  102.650000
  C    -35.165200    2.308260  102.543000
  H    -34.766300    2.585110  103.607000
  H    -34.412600    1.497750  102.208000
  C    -36.538100    1.586730  102.662000
  H    -36.744500    1.010130  101.768000
  H    -37.461600    2.307280  102.583000
  C    -36.753000    0.644600  103.891000
  H    -35.968800   -0.105960  103.885000
  H    -37.803200    0.265785  103.741000
  H    -36.732500    1.161910  104.872000
  H    -31.867800    0.932577   97.015600
  H    -36.797800    6.163160  100.667000

 Total Charge           Charge          ....    0
 Multiplicity           Mult            ....    1
 Number of Electrons    NEL             ....  134
 Basis Dimension        Dim             ....  322

ORBITAL ENERGIES
----------------

  NO   OCC          E(Eh)            E(eV)
   0   2.0000     -88.966818     -2420.9102
   1   2.0000     -88.963040     -2420.8074
   2   2.0000     -10.328891      -281.0634
   3   2.0000     -10.326324      -280.9936
   4   2.0000     -10.315206      -280.6910
   5   2.0000     -10.313846      -280.6540
   6   2.0000     -10.311325      -280.5854
   7   2.0000     -10.307145      -280.4717
   8   2.0000     -10.300907      -280.3019
   9   2.0000     -10.299474      -280.2629
  10   2.0000     -10.292803      -280.0814
  11   2.0000     -10.291699      -280.0514
  12   2.0000     -10.290177      -280.0100
  13   2.0000     -10.289727      -279.9977
  14   2.0000     -10.281317      -279.7689
  15   2.0000     -10.273885      -279.5666
  16   2.0000      -8.080227      -219.8742
  17   2.0000      -8.077800      -219.8081
  18   2.0000      -6.038963      -164.3285
  19   2.0000      -6.036293      -164.2559
  20   2.0000      -6.035193      -164.2259
  21   2.0000      -6.032404      -164.1501
  22   2.0000      -6.030558      -164.0998
  23   2.0000      -6.028456      -164.0426
  24   2.0000      -1.002968       -27.2922
  25   2.0000      -0.977214       -26.5914
  26   2.0000      -0.919294       -25.0153
  27   2.0000      -0.906001       -24.6535
  28   2.0000      -0.872248       -23.7351
  29   2.0000      -0.851972       -23.1833
  30   2.0000      -0.842599       -22.9283
  31   2.0000      -0.814763       -22.1708
  32   2.0000      -0.784036       -21.3347
  33   2.0000      -0.770682       -20.9713
  34   2.0000      -0.707892       -19.2627
  35   2.0000      -0.704189       -19.1620
  36   2.0000      -0.692815       -18.8525
  37   2.0000      -0.664554       -18.0834
  38   2.0000      -0.637439       -17.3456
  39   2.0000      -0.619961       -16.8700
  40   2.0000      -0.598497       -16.2859
  41   2.0000      -0.583620       -15.8811
  42   2.0000      -0.565235       -15.3808
  43   2.0000      -0.548777       -14.9330
  44   2.0000      -0.531024       -14.4499
  45   2.0000      -0.522297       -14.2124
  46   2.0000      -0.518323       -14.1043
  47   2.0000      -0.514604       -14.0031
  48   2.0000      -0.506780       -13.7902
  49   2.0000      -0.500614       -13.6224
  50   2.0000      -0.495069       -13.4715
  51   2.0000      -0.473012       -12.8713
  52   2.0000      -0.469167       -12.7667
  53   2.0000      -0.459992       -12.5170
  54   2.0000      -0.458265       -12.4700
  55   2.0000      -0.448992       -12.2177
  56   2.0000      -0.444639       -12.0992
  57   2.0000      -0.440671       -11.9913
  58   2.0000      -0.434672       -11.8280
  59   2.0000      -0.430778       -11.7221
  60   2.0000      -0.420995       -11.4559
  61   2.0000      -0.420026       -11.4295
  62   2.0000      -0.406094       -11.0504
  63   2.0000      -0.349887        -9.5209
  64   2.0000      -0.329875        -8.9764
  65   2.0000      -0.329486        -8.9658
  66   2.0000      -0.285715        -7.7747
  67   0.0000       0.027672         0.7530
  68   0.0000       0.062879         1.7110
  69   0.0000       0.098568         2.6822
  70   0.0000       0.117234         3.1901
  71   0.0000       0.125229         3.4077

MULLIKEN ATOMIC CHARGES
-----------------------
   0 S :    0.103043
   1 C :   -0.126860
   2 C :   -0.070212
   3 C :    0.013209
   4 C :   -0.115303
   5 H :   -0.014451
   6 C :    0.073467
   7 H :    0.026124
   8 H :    0.023961
   9 C :   -0.074534
  10 H :    0.034214
  11 H :    0.022978
  12 C :   -0.028655
  13 H :    0.031376
  14 H :    0.020776
  15 H :    0.017262
  16 S :    0.094572
  17 C :   -0.079481
  18 C :   -0.014055
  19 C :    0.004861
  20 C :   -0.143654
  21 H :    0.006848
  22 C :   -0.002610
  23 H :    0.051784
  24 H :    0.042904
  25 C :   -0.124551
  26 H :    0.026776
  27 H :    0.035452
  28 C :   -0.051206
  29 H :    0.037793
  30 H :    0.048007
  31 H :    0.042031
  32 H :    0.047161
  33 H :    0.040970
Sum of atomic charges:    0.0000000

LOEWDIN ATOMIC CHARGES
----------------------
   0 S :    0.364051
   1 C :   -0.185080
   2 C :   -0.056045
   3 C :   -0.061703
   4 C :   -0.180763
   5 H :    0.023139
   6 C :   -0.031344
   7 H :    0.036939
   8 H :    0.026555
   9 C :   -0.029589
  10 H :    0.029493
  11 H :    0.015769
  12 C :   -0.062095
  13 H :    0.021390
  14 H :    0.022151
  15 H :    0.021592
  16 S :    0.385056
  17 C :   -0.171209
  18 C :   -0.062124
  19 C :   -0.049516
  20 C :   -0.175392
  21 H :    0.024678
  22 C :   -0.052233
  23 H :    0.043336
  24 H :    0.039450
  25 C :   -0.052847
  26 H :    0.019154
  27 H :    0.029996
  28 C :   -0.067484
  29 H :    0.022946
  30 H :    0.037304
  31 H :    0.026778
  32 H :    0.029160
  33 H :    0.018485

  Mayer bond orders larger than 0.100000
B(  0-S ,  1-C ) :   1.1084 B(  0-S ,  4-C ) :   1.1074 B(  1-C ,  2-C ) :   1.6643
B(  1-C , 32-H ) :   0.9593 B(  2-C ,  3-C ) :   1.2024 B(  2-C ,  6-C ) :   1.0144
B(  3-C ,  4-C ) :   1.6141 B(  3-C ,  5-H ) :   0.9989 B(  4-C , 20-C ) :   1.0717
B(  6-C ,  7-H ) :   0.9455 B(  6-C ,  8-H ) :   0.9340 B(  6-C ,  9-C ) :   1.0708
B(  9-C , 10-H ) :   0.9562 B(  9-C , 11-H ) :   0.9584 B(  9-C , 12-C ) :   1.0924
B( 12-C , 13-H ) :   0.9761 B( 12-C , 14-H ) :   0.9738 B( 12-C , 15-H ) :   0.9713
B( 16-S , 17-C ) :   1.1544 B( 16-S , 20-C ) :   1.1079 B( 17-C , 18-C ) :   1.6460
B( 17-C , 33-H ) :   0.9714 B( 18-C , 19-C ) :   1.1764 B( 18-C , 21-H ) :   0.9956
B( 19-C , 20-C ) :   1.6150 B( 19-C , 22-C ) :   1.0751 B( 22-C , 23-H ) :   0.9366
B( 22-C , 24-H ) :   0.9269 B( 22-C , 25-C ) :   1.0335 B( 25-C , 26-H ) :   0.9505
B( 25-C , 27-H ) :   0.9597 B( 25-C , 28-C ) :   1.0726 B( 28-C , 29-H ) :   0.9754
B( 28-C , 30-H ) :   0.9733 B( 28-C , 31-H ) :   0.9774

Dispersion correction           -0.013727932
FINAL SINGLE POINT ENERGY     -1339.864408519199

DIPOLE MOMENT
-------------
                                X             Y             Z
Electronic contribution:     10.07128      28.48593      -6.68988
Nuclear contribution   :    -10.55951     -29.13125       6.91306
                        -----------------------------------------
Total Dipole Moment    :     -0.48822      -0.64532       0.22319
                        -----------------------------------------
Magnitude (a.u.)       :      0.83941
Magnitude (Debye)      :      2.13362

Rotational constants in cm-1:     0.017023     0.008469     0.006216
Rotational constants in MHz :   510.333032   253.905954   186.354918

                             ****ORCA TERMINATED NORMALLY****
TOTAL RUN TIME: 0 days 0 hours 0 minutes 29 seconds 774 msec
