                         Program Version 4.2.1 -  RELEASE  -
|  1> ! wB97X-D3 SP def2-SVP
|  2> %pal
|  3> nprocs 16
|  4> end
|  5>
|  6> * xyz 0 1
|  7> S 	 -46.9494 	 63.3752 	 130.177
|  8> C 	 -45.5249 	 63.3971 	 129.15
|  9> C 	 -45.7907 	 63.004 	 127.821
| 10> C 	 -47.1502 	 62.686 	 127.619
| 11> C 	 -47.8388 	 62.6809 	 128.855
| 12> H 	 -47.7432 	 62.2634 	 126.779
| 13> C 	 -44.904 	 63.164 	 126.591
| 14> H 	 -44.4535 	 64.1563 	 126.846
| 15> H 	 -45.5258 	 63.2703 	 125.714
| 16> C 	 -43.8963 	 61.9607 	 126.195
| 17> H 	 -43.3041 	 61.6799 	 127.105
| 18> H 	 -44.5201 	 61.1307 	 125.868
| 19> C 	 -42.926 	 62.1324 	 125.036
| 20> H 	 -42.0601 	 62.727 	 125.404
| 21> H 	 -42.6422 	 61.1527 	 124.758
| 22> H 	 -43.3728 	 62.6514 	 124.267
| 23> S 	 -50.2404 	 63.1913 	 130.19
| 24> C 	 -51.6597 	 62.3436 	 129.683
| 25> C 	 -51.3482 	 61.3992 	 128.764
| 26> C 	 -50.0513 	 61.496 	 128.201
| 27> C 	 -49.2526 	 62.3173 	 128.941
| 28> H 	 -52.1564 	 60.7501 	 128.463
| 29> C 	 -49.5855 	 60.6148 	 127.055
| 30> H 	 -48.5446 	 60.3649 	 127.295
| 31> H 	 -49.5169 	 61.1978 	 126.104
| 32> C 	 -50.4284 	 59.3761 	 126.729
| 33> H 	 -51.3094 	 59.8051 	 126.243
| 34> H 	 -50.6846 	 58.7503 	 127.588
| 35> C 	 -49.818 	 58.399 	 125.679
| 36> H 	 -49.5793 	 58.8885 	 124.736
| 37> H 	 -50.4893 	 57.5332 	 125.415
| 38> H 	 -48.9411 	 57.8783 	 126.03
| 39> H 	 -44.5427 	 63.4604 	 129.455
| 40> H 	 -52.6425 	 62.3944 	 130.074
| 41> *
| 42>
| 43>                          ****END OF INPUT****

CARTESIAN COORDINATES (ANGSTROEM)
---------------------------------
  S    -46.949400   63.375200  130.177000
  C    -45.524900   63.397100  129.150000
  C    -45.790700   63.004000  127.821000
  C    -47.150200   62.686000  127.619000
  C    -47.838800   62.680900  128.855000
  H    -47.743200   62.263400  126.779000
  C    -44.904000   63.164000  126.591000
  H    -44.453500   64.156300  126.846000
  H    -45.525800   63.270300  125.714000
  C    -43.896300   61.960700  126.195000
  H    -43.304100   61.679900  127.105000
  H    -44.520100   61.130700  125.868000
  C    -42.926000   62.132400  125.036000
  H    -42.060100   62.727000  125.404000
  H    -42.642200   61.152700  124.758000
  H    -43.372800   62.651400  124.267000
  S    -50.240400   63.191300  130.190000
  C    -51.659700   62.343600  129.683000
  C    -51.348200   61.399200  128.764000
  C    -50.051300   61.496000  128.201000
  C    -49.252600   62.317300  128.941000
  H    -52.156400   60.750100  128.463000
  C    -49.585500   60.614800  127.055000
  H    -48.544600   60.364900  127.295000
  H    -49.516900   61.197800  126.104000
  C    -50.428400   59.376100  126.729000
  H    -51.309400   59.805100  126.243000
  H    -50.684600   58.750300  127.588000
  C    -49.818000   58.399000  125.679000
  H    -49.579300   58.888500  124.736000
  H    -50.489300   57.533200  125.415000
  H    -48.941100   57.878300  126.030000
  H    -44.542700   63.460400  129.455000
  H    -52.642500   62.394400  130.074000

 Total Charge           Charge          ....    0
 Multiplicity           Mult            ....    1
 Number of Electrons    NEL             ....  134
 Basis Dimension        Dim             ....  322

ORBITAL ENERGIES
----------------

  NO   OCC          E(Eh)            E(eV)
   0   2.0000     -88.975206     -2421.1384
   1   2.0000     -88.961828     -2420.7744
   2   2.0000     -10.330423      -281.1051
   3   2.0000     -10.328373      -281.0493
   4   2.0000     -10.309676      -280.5405
   5   2.0000     -10.308536      -280.5095
   6   2.0000     -10.305263      -280.4205
   7   2.0000     -10.302266      -280.3389
   8   2.0000     -10.299966      -280.2763
   9   2.0000     -10.298618      -280.2396
  10   2.0000     -10.294745      -280.1342
  11   2.0000     -10.293769      -280.1077
  12   2.0000     -10.293005      -280.0869
  13   2.0000     -10.286278      -279.9039
  14   2.0000     -10.284414      -279.8531
  15   2.0000     -10.272279      -279.5229
  16   2.0000      -8.089375      -220.1231
  17   2.0000      -8.076247      -219.7659
  18   2.0000      -6.047863      -164.5707
  19   2.0000      -6.044077      -164.4677
  20   2.0000      -6.040104      -164.3596
  21   2.0000      -6.034900      -164.2180
  22   2.0000      -6.030914      -164.1095
  23   2.0000      -6.026776      -163.9969
  24   2.0000      -1.006874       -27.3984
  25   2.0000      -0.984198       -26.7814
  26   2.0000      -0.909890       -24.7594
  27   2.0000      -0.903379       -24.5822
  28   2.0000      -0.871037       -23.7021
  29   2.0000      -0.860906       -23.4264
  30   2.0000      -0.845602       -23.0100
  31   2.0000      -0.812215       -22.1015
  32   2.0000      -0.784882       -21.3577
  33   2.0000      -0.775268       -21.0961
  34   2.0000      -0.708320       -19.2744
  35   2.0000      -0.704841       -19.1797
  36   2.0000      -0.695836       -18.9347
  37   2.0000      -0.653407       -17.7801
  38   2.0000      -0.637430       -17.3453
  39   2.0000      -0.612516       -16.6674
  40   2.0000      -0.597296       -16.2533
  41   2.0000      -0.574712       -15.6387
  42   2.0000      -0.572044       -15.5661
  43   2.0000      -0.557114       -15.1599
  44   2.0000      -0.535327       -14.5670
  45   2.0000      -0.524659       -14.2767
  46   2.0000      -0.518038       -14.0965
  47   2.0000      -0.512822       -13.9546
  48   2.0000      -0.501321       -13.6416
  49   2.0000      -0.497405       -13.5351
  50   2.0000      -0.484739       -13.1904
  51   2.0000      -0.483519       -13.1572
  52   2.0000      -0.476870       -12.9763
  53   2.0000      -0.467923       -12.7328
  54   2.0000      -0.461947       -12.5702
  55   2.0000      -0.452306       -12.3079
  56   2.0000      -0.449418       -12.2293
  57   2.0000      -0.436316       -11.8728
  58   2.0000      -0.434190       -11.8149
  59   2.0000      -0.424093       -11.5402
  60   2.0000      -0.419896       -11.4260
  61   2.0000      -0.417666       -11.3653
  62   2.0000      -0.409737       -11.1495
  63   2.0000      -0.354434        -9.6446
  64   2.0000      -0.335716        -9.1353
  65   2.0000      -0.330566        -8.9952
  66   2.0000      -0.277897        -7.5620
  67   0.0000       0.019594         0.5332
  68   0.0000       0.072048         1.9605
  69   0.0000       0.102440         2.7875
  70   0.0000       0.122008         3.3200
  71   0.0000       0.129611         3.5269

MULLIKEN ATOMIC CHARGES
-----------------------
   0 S :    0.130129
   1 C :   -0.081543
   2 C :   -0.072837
   3 C :   -0.020673
   4 C :   -0.140477
   5 H :    0.022063
   6 C :    0.036453
   7 H :    0.044691
   8 H :    0.022646
   9 C :   -0.115168
  10 H :    0.037569
  11 H :    0.027614
  12 C :    0.008747
  13 H :    0.034687
  14 H :    0.030244
  15 H :    0.012255
  16 S :    0.080489
  17 C :   -0.052730
  18 C :   -0.056060
  19 C :   -0.031512
  20 C :   -0.128125
  21 H :    0.014975
  22 C :   -0.007190
  23 H :    0.041808
  24 H :    0.053984
  25 C :   -0.068529
  26 H :    0.035421
  27 H :    0.044857
  28 C :   -0.058966
  29 H :    0.027490
  30 H :    0.038799
  31 H :    0.029831
  32 H :    0.020918
  33 H :    0.038141
Sum of atomic charges:   -0.0000000

LOEWDIN ATOMIC CHARGES
----------------------
   0 S :    0.419309
   1 C :   -0.198768
   2 C :   -0.053799
   3 C :   -0.071467
   4 C :   -0.190533
   5 H :    0.040592
   6 C :   -0.035891
   7 H :    0.038344
   8 H :    0.027367
   9 C :   -0.041404
  10 H :    0.025656
  11 H :    0.022575
  12 C :   -0.053362
  13 H :    0.030481
  14 H :    0.025189
  15 H :    0.012938
  16 S :    0.370127
  17 C :   -0.182669
  18 C :   -0.074762
  19 C :   -0.062291
  20 C :   -0.166364
  21 H :    0.030346
  22 C :   -0.040376
  23 H :    0.031194
  24 H :    0.036430
  25 C :   -0.041280
  26 H :    0.027815
  27 H :    0.028053
  28 C :   -0.069308
  29 H :    0.021720
  30 H :    0.034138
  31 H :    0.021550
  32 H :    0.012081
  33 H :    0.026368

  Mayer bond orders larger than 0.100000
B(  0-S ,  1-C ) :   1.1316 B(  0-S ,  4-C ) :   1.1644 B(  1-C ,  2-C ) :   1.5958
B(  1-C ,  4-C ) :   0.1031 B(  1-C , 32-H ) :   0.9707 B(  2-C ,  3-C ) :   1.2551
B(  2-C ,  6-C ) :   1.0081 B(  3-C ,  4-C ) :   1.5339 B(  3-C ,  5-H ) :   0.9765
B(  4-C , 20-C ) :   1.0836 B(  6-C ,  7-H ) :   0.9503 B(  6-C ,  8-H ) :   0.9458
B(  6-C ,  9-C ) :   1.0434 B(  9-C , 10-H ) :   0.9636 B(  9-C , 11-H ) :   0.9602
B(  9-C , 12-C ) :   1.0830 B( 12-C , 13-H ) :   0.9766 B( 12-C , 14-H ) :   0.9746
B( 12-C , 15-H ) :   0.9727 B( 16-S , 17-C ) :   1.1385 B( 16-S , 20-C ) :   1.1069
B( 17-C , 18-C ) :   1.6506 B( 17-C , 33-H ) :   0.9620 B( 18-C , 19-C ) :   1.2236
B( 18-C , 21-H ) :   0.9833 B( 19-C , 20-C ) :   1.6330 B( 19-C , 22-C ) :   1.0294
B( 22-C , 23-H ) :   0.9376 B( 22-C , 24-H ) :   0.9178 B( 22-C , 25-C ) :   1.0753
B( 25-C , 26-H ) :   0.9446 B( 25-C , 27-H ) :   0.9561 B( 25-C , 28-C ) :   1.0865
B( 28-C , 29-H ) :   0.9744 B( 28-C , 30-H ) :   0.9740 B( 28-C , 31-H ) :   0.9757

Dispersion correction           -0.013106765
FINAL SINGLE POINT ENERGY     -1339.854965805772

DIPOLE MOMENT
-------------
                                X             Y             Z
Electronic contribution:    -11.49104      16.55155      26.78397
Nuclear contribution   :     11.54483     -17.03845     -27.45575
                        -----------------------------------------
Total Dipole Moment    :      0.05379      -0.48691      -0.67178
                        -----------------------------------------
Magnitude (a.u.)       :      0.83142
Magnitude (Debye)      :      2.11330

Rotational constants in cm-1:     0.016349     0.008649     0.005866
Rotational constants in MHz :   490.122760   259.282090   175.869259

                             ****ORCA TERMINATED NORMALLY****
TOTAL RUN TIME: 0 days 0 hours 0 minutes 32 seconds 238 msec
