                         Program Version 4.2.1 -  RELEASE  -
|  1> ! wB97X-D3 SP def2-SVP
|  2> %pal
|  3> nprocs 16
|  4> end
|  5>
|  6> * xyz 0 1
|  7> S 	 -13.8731 	 75.8806 	 54.6665
|  8> C 	 -15.289 	 76.6436 	 54.0515
|  9> C 	 -16.2995 	 75.73 	 53.8035
| 10> C 	 -15.8329 	 74.4449 	 53.8184
| 11> C 	 -14.5055 	 74.3529 	 53.983
| 12> H 	 -16.4317 	 73.5915 	 53.6559
| 13> C 	 -17.7347 	 76.1559 	 53.6725
| 14> H 	 -17.8785 	 77.0632 	 54.2803
| 15> H 	 -18.4762 	 75.4649 	 54.088
| 16> C 	 -18.0523 	 76.3098 	 52.1655
| 17> H 	 -17.513 	 77.1682 	 51.8709
| 18> H 	 -17.7844 	 75.4013 	 51.5613
| 19> C 	 -19.5156 	 76.5904 	 51.9508
| 20> H 	 -20.1665 	 75.8234 	 52.3567
| 21> H 	 -19.8709 	 77.4587 	 52.5114
| 22> H 	 -19.8269 	 76.6725 	 50.8839
| 23> S 	 -12.7642 	 72.7439 	 55.3474
| 24> C 	 -12.1775 	 71.2162 	 54.7242
| 25> C 	 -12.7515 	 71.0681 	 53.4697
| 26> C 	 -13.5531 	 72.1579 	 52.9713
| 27> C 	 -13.7043 	 73.1661 	 53.9095
| 28> H 	 -12.5309 	 70.1407 	 52.9422
| 29> C 	 -14.2171 	 72.1891 	 51.5547
| 30> H 	 -13.4543 	 71.981 	 50.8064
| 31> H 	 -14.5773 	 73.1282 	 51.2852
| 32> C 	 -15.4678 	 71.244 	 51.3882
| 33> H 	 -16.1671 	 71.5177 	 52.2789
| 34> H 	 -15.148 	 70.2586 	 51.6673
| 35> C 	 -16.1974 	 71.2836 	 50.0209
| 36> H 	 -15.6759 	 71.1169 	 49.0693
| 37> H 	 -16.7035 	 72.2239 	 50.0468
| 38> H 	 -16.9237 	 70.4983 	 50.0504
| 39> H 	 -15.4954 	 77.6918 	 54.2277
| 40> H 	 -11.5161 	 70.5013 	 55.2468
| 41> *
| 42>
| 43>                          ****END OF INPUT****

CARTESIAN COORDINATES (ANGSTROEM)
---------------------------------
  S    -13.873100   75.880600   54.666500
  C    -15.289000   76.643600   54.051500
  C    -16.299500   75.730000   53.803500
  C    -15.832900   74.444900   53.818400
  C    -14.505500   74.352900   53.983000
  H    -16.431700   73.591500   53.655900
  C    -17.734700   76.155900   53.672500
  H    -17.878500   77.063200   54.280300
  H    -18.476200   75.464900   54.088000
  C    -18.052300   76.309800   52.165500
  H    -17.513000   77.168200   51.870900
  H    -17.784400   75.401300   51.561300
  C    -19.515600   76.590400   51.950800
  H    -20.166500   75.823400   52.356700
  H    -19.870900   77.458700   52.511400
  H    -19.826900   76.672500   50.883900
  S    -12.764200   72.743900   55.347400
  C    -12.177500   71.216200   54.724200
  C    -12.751500   71.068100   53.469700
  C    -13.553100   72.157900   52.971300
  C    -13.704300   73.166100   53.909500
  H    -12.530900   70.140700   52.942200
  C    -14.217100   72.189100   51.554700
  H    -13.454300   71.981000   50.806400
  H    -14.577300   73.128200   51.285200
  C    -15.467800   71.244000   51.388200
  H    -16.167100   71.517700   52.278900
  H    -15.148000   70.258600   51.667300
  C    -16.197400   71.283600   50.020900
  H    -15.675900   71.116900   49.069300
  H    -16.703500   72.223900   50.046800
  H    -16.923700   70.498300   50.050400
  H    -15.495400   77.691800   54.227700
  H    -11.516100   70.501300   55.246800

 Total Charge           Charge          ....    0
 Multiplicity           Mult            ....    1
 Number of Electrons    NEL             ....  134
 Basis Dimension        Dim             ....  322

ORBITAL ENERGIES
----------------

  NO   OCC          E(Eh)            E(eV)
   0   2.0000     -88.965848     -2420.8838
   1   2.0000     -88.959425     -2420.7090
   2   2.0000     -10.326691      -281.0035
   3   2.0000     -10.325956      -280.9836
   4   2.0000     -10.322175      -280.8807
   5   2.0000     -10.310131      -280.5529
   6   2.0000     -10.308703      -280.5141
   7   2.0000     -10.296351      -280.1780
   8   2.0000     -10.295252      -280.1480
   9   2.0000     -10.294063      -280.1157
  10   2.0000     -10.293616      -280.1035
  11   2.0000     -10.289697      -279.9969
  12   2.0000     -10.286861      -279.9197
  13   2.0000     -10.284905      -279.8665
  14   2.0000     -10.279975      -279.7324
  15   2.0000     -10.276768      -279.6451
  16   2.0000      -8.080844      -219.8909
  17   2.0000      -8.074202      -219.7102
  18   2.0000      -6.039270      -164.3369
  19   2.0000      -6.035744      -164.2409
  20   2.0000      -6.032781      -164.1603
  21   2.0000      -6.031232      -164.1182
  22   2.0000      -6.028553      -164.0453
  23   2.0000      -6.025018      -163.9491
  24   2.0000      -1.014148       -27.5964
  25   2.0000      -0.986152       -26.8346
  26   2.0000      -0.916327       -24.9345
  27   2.0000      -0.898811       -24.4579
  28   2.0000      -0.873288       -23.7634
  29   2.0000      -0.857799       -23.3419
  30   2.0000      -0.843344       -22.9486
  31   2.0000      -0.818315       -22.2675
  32   2.0000      -0.783141       -21.3104
  33   2.0000      -0.769427       -20.9372
  34   2.0000      -0.707500       -19.2521
  35   2.0000      -0.700502       -19.0616
  36   2.0000      -0.696350       -18.9486
  37   2.0000      -0.659737       -17.9524
  38   2.0000      -0.644720       -17.5437
  39   2.0000      -0.629904       -17.1406
  40   2.0000      -0.596201       -16.2234
  41   2.0000      -0.573387       -15.6026
  42   2.0000      -0.560899       -15.2628
  43   2.0000      -0.557256       -15.1637
  44   2.0000      -0.531124       -14.4526
  45   2.0000      -0.523979       -14.2582
  46   2.0000      -0.518287       -14.1033
  47   2.0000      -0.512901       -13.9567
  48   2.0000      -0.506871       -13.7927
  49   2.0000      -0.499216       -13.5844
  50   2.0000      -0.496197       -13.5022
  51   2.0000      -0.483270       -13.1504
  52   2.0000      -0.476419       -12.9640
  53   2.0000      -0.464199       -12.6315
  54   2.0000      -0.457377       -12.4459
  55   2.0000      -0.450344       -12.2545
  56   2.0000      -0.444613       -12.0985
  57   2.0000      -0.438985       -11.9454
  58   2.0000      -0.432210       -11.7610
  59   2.0000      -0.427553       -11.6343
  60   2.0000      -0.418459       -11.3868
  61   2.0000      -0.416961       -11.3461
  62   2.0000      -0.408196       -11.1076
  63   2.0000      -0.350371        -9.5341
  64   2.0000      -0.332144        -9.0381
  65   2.0000      -0.326873        -8.8947
  66   2.0000      -0.287919        -7.8347
  67   0.0000       0.022751         0.6191
  68   0.0000       0.063475         1.7272
  69   0.0000       0.102000         2.7756
  70   0.0000       0.119815         3.2603
  71   0.0000       0.134224         3.6524

MULLIKEN ATOMIC CHARGES
-----------------------
   0 S :    0.112839
   1 C :   -0.098297
   2 C :   -0.083880
   3 C :    0.052512
   4 C :   -0.135141
   5 H :   -0.010911
   6 C :    0.039687
   7 H :    0.027996
   8 H :    0.022214
   9 C :   -0.057236
  10 H :    0.022646
  11 H :    0.045046
  12 C :   -0.041711
  13 H :    0.015471
  14 H :    0.019660
  15 H :    0.040849
  16 S :    0.076328
  17 C :   -0.101116
  18 C :   -0.052377
  19 C :   -0.031976
  20 C :   -0.151835
  21 H :    0.022054
  22 C :    0.108493
  23 H :    0.025260
  24 H :    0.000179
  25 C :   -0.123130
  26 H :    0.034127
  27 H :    0.015865
  28 C :   -0.014592
  29 H :    0.044013
  30 H :    0.030358
  31 H :    0.027267
  32 H :    0.042854
  33 H :    0.076482
Sum of atomic charges:    0.0000000

LOEWDIN ATOMIC CHARGES
----------------------
   0 S :    0.400364
   1 C :   -0.197031
   2 C :   -0.065136
   3 C :   -0.049453
   4 C :   -0.174891
   5 H :    0.027517
   6 C :   -0.029066
   7 H :    0.031911
   8 H :    0.028793
   9 C :   -0.036359
  10 H :    0.020458
  11 H :    0.032668
  12 C :   -0.075177
  13 H :    0.019926
  14 H :    0.023936
  15 H :    0.029755
  16 S :    0.386886
  17 C :   -0.190901
  18 C :   -0.076752
  19 C :   -0.058219
  20 C :   -0.186159
  21 H :    0.030103
  22 C :   -0.024345
  23 H :    0.029845
  24 H :    0.016820
  25 C :   -0.041758
  26 H :    0.031295
  27 H :    0.011776
  28 C :   -0.064785
  29 H :    0.030997
  30 H :    0.024794
  31 H :    0.027057
  32 H :    0.022826
  33 H :    0.042303

  Mayer bond orders larger than 0.100000
B(  0-S ,  1-C ) :   1.1501 B(  0-S ,  4-C ) :   1.1359 B(  1-C ,  2-C ) :   1.5925
B(  1-C ,  4-C ) :   0.1079 B(  1-C , 32-H ) :   0.9640 B(  2-C ,  3-C ) :   1.2648
B(  2-C ,  6-C ) :   1.0225 B(  3-C ,  4-C ) :   1.5462 B(  3-C ,  5-H ) :   1.0149
B(  4-C , 20-C ) :   1.0589 B(  6-C ,  7-H ) :   0.9402 B(  6-C ,  8-H ) :   0.9496
B(  6-C ,  9-C ) :   1.0482 B(  9-C , 10-H ) :   0.9530 B(  9-C , 11-H ) :   0.9604
B(  9-C , 12-C ) :   1.0902 B( 12-C , 13-H ) :   0.9712 B( 12-C , 14-H ) :   0.9683
B( 12-C , 15-H ) :   0.9731 B( 16-S , 17-C ) :   1.1451 B( 16-S , 20-C ) :   1.1397
B( 17-C , 18-C ) :   1.6038 B( 17-C , 20-C ) :   0.1027 B( 17-C , 33-H ) :   0.9684
B( 18-C , 19-C ) :   1.2316 B( 18-C , 21-H ) :   0.9880 B( 19-C , 20-C ) :   1.5999
B( 19-C , 22-C ) :   1.0444 B( 22-C , 23-H ) :   0.9369 B( 22-C , 24-H ) :   0.9362
B( 22-C , 25-C ) :   1.0483 B( 25-C , 26-H ) :   0.9529 B( 25-C , 27-H ) :   0.9616
B( 25-C , 28-C ) :   1.0659 B( 28-C , 29-H ) :   0.9765 B( 28-C , 30-H ) :   0.9759
B( 28-C , 31-H ) :   0.9727

Dispersion correction           -0.014077112
FINAL SINGLE POINT ENERGY     -1339.861809554065

DIPOLE MOMENT
-------------
                                X             Y             Z
Electronic contribution:     25.20596       2.09622      21.20735
Nuclear contribution   :    -25.81929      -2.32185     -21.55274
                        -----------------------------------------
Total Dipole Moment    :     -0.61333      -0.22562      -0.34538
                        -----------------------------------------
Magnitude (a.u.)       :      0.73917
Magnitude (Debye)      :      1.87882

Rotational constants in cm-1:     0.017122     0.009422     0.006438
Rotational constants in MHz :   513.290339   282.464022   193.019368

                             ****ORCA TERMINATED NORMALLY****
TOTAL RUN TIME: 0 days 0 hours 0 minutes 32 seconds 25 msec
