                         Program Version 4.2.1 -  RELEASE  -
|  1> ! wB97X-D3 SP def2-SVP
|  2> %pal
|  3> nprocs 16
|  4> end
|  5>
|  6> * xyz 0 1
|  7> S 	 7.21324 	 -4.22924 	 90.4905
|  8> C 	 8.69317 	 -3.46837 	 89.9104
|  9> C 	 8.64665 	 -3.17548 	 88.5426
| 10> C 	 7.33238 	 -3.3504 	 88.0701
| 11> C 	 6.42137 	 -3.94333 	 88.963
| 12> H 	 7.04511 	 -3.20061 	 87.0221
| 13> C 	 9.806 	 -2.74706 	 87.6761
| 14> H 	 9.93365 	 -3.57716 	 86.9604
| 15> H 	 10.6711 	 -2.67643 	 88.2949
| 16> C 	 9.53821 	 -1.47401 	 86.8806
| 17> H 	 8.79714 	 -1.81362 	 86.1735
| 18> H 	 9.08063 	 -0.619078 	 87.5328
| 19> C 	 10.8156 	 -0.964963 	 86.1625
| 20> H 	 10.5828 	 -0.39567 	 85.2474
| 21> H 	 11.318 	 -0.314756 	 86.9002
| 22> H 	 11.5277 	 -1.84326 	 86.0228
| 23> S 	 4.76808 	 -6.15048 	 88.5546
| 24> C 	 3.14356 	 -5.86262 	 87.9215
| 25> C 	 2.97579 	 -4.50612 	 87.6836
| 26> C 	 4.1115 	 -3.69685 	 87.9959
| 27> C 	 5.09905 	 -4.40806 	 88.6452
| 28> H 	 2.14507 	 -4.06612 	 87.1043
| 29> C 	 4.18572 	 -2.28921 	 87.5665
| 30> H 	 5.15921 	 -2.00999 	 88.0248
| 31> H 	 3.30765 	 -1.79391 	 87.9568
| 32> C 	 4.29736 	 -2.04161 	 86.0988
| 33> H 	 3.27776 	 -2.22618 	 85.6901
| 34> H 	 4.91372 	 -2.8479 	 85.672
| 35> C 	 4.5624 	 -0.593126 	 85.6695
| 36> H 	 3.66424 	 -0.0139822 	 85.8907
| 37> H 	 4.8321 	 -0.454549 	 84.6239
| 38> H 	 5.44397 	 -0.166174 	 86.2149
| 39> H 	 9.65044 	 -3.36807 	 90.4673
| 40> H 	 2.46415 	 -6.65752 	 87.5609
| 41> *
| 42>
| 43>                          ****END OF INPUT****

CARTESIAN COORDINATES (ANGSTROEM)
---------------------------------
  S      7.213240   -4.229240   90.490500
  C      8.693170   -3.468370   89.910400
  C      8.646650   -3.175480   88.542600
  C      7.332380   -3.350400   88.070100
  C      6.421370   -3.943330   88.963000
  H      7.045110   -3.200610   87.022100
  C      9.806000   -2.747060   87.676100
  H      9.933650   -3.577160   86.960400
  H     10.671100   -2.676430   88.294900
  C      9.538210   -1.474010   86.880600
  H      8.797140   -1.813620   86.173500
  H      9.080630   -0.619078   87.532800
  C     10.815600   -0.964963   86.162500
  H     10.582800   -0.395670   85.247400
  H     11.318000   -0.314756   86.900200
  H     11.527700   -1.843260   86.022800
  S      4.768080   -6.150480   88.554600
  C      3.143560   -5.862620   87.921500
  C      2.975790   -4.506120   87.683600
  C      4.111500   -3.696850   87.995900
  C      5.099050   -4.408060   88.645200
  H      2.145070   -4.066120   87.104300
  C      4.185720   -2.289210   87.566500
  H      5.159210   -2.009990   88.024800
  H      3.307650   -1.793910   87.956800
  C      4.297360   -2.041610   86.098800
  H      3.277760   -2.226180   85.690100
  H      4.913720   -2.847900   85.672000
  C      4.562400   -0.593126   85.669500
  H      3.664240   -0.013982   85.890700
  H      4.832100   -0.454549   84.623900
  H      5.443970   -0.166174   86.214900
  H      9.650440   -3.368070   90.467300
  H      2.464150   -6.657520   87.560900

 Total Charge           Charge          ....    0
 Multiplicity           Mult            ....    1
 Number of Electrons    NEL             ....  134
 Basis Dimension        Dim             ....  322

ORBITAL ENERGIES
----------------

  NO   OCC          E(Eh)            E(eV)
   0   2.0000     -88.970009     -2420.9970
   1   2.0000     -88.965675     -2420.8791
   2   2.0000     -10.329149      -281.0704
   3   2.0000     -10.324201      -280.9358
   4   2.0000     -10.324085      -280.9326
   5   2.0000     -10.318351      -280.7766
   6   2.0000     -10.300882      -280.3013
   7   2.0000     -10.296668      -280.1866
   8   2.0000     -10.295865      -280.1647
   9   2.0000     -10.295292      -280.1491
  10   2.0000     -10.294814      -280.1361
  11   2.0000     -10.294658      -280.1319
  12   2.0000     -10.290162      -280.0095
  13   2.0000     -10.288660      -279.9687
  14   2.0000     -10.284348      -279.8513
  15   2.0000     -10.283029      -279.8154
  16   2.0000      -8.084243      -219.9834
  17   2.0000      -8.079767      -219.8616
  18   2.0000      -6.042719      -164.4307
  19   2.0000      -6.038765      -164.3231
  20   2.0000      -6.038440      -164.3143
  21   2.0000      -6.035129      -164.2242
  22   2.0000      -6.034470      -164.2063
  23   2.0000      -6.030275      -164.0921
  24   2.0000      -1.006339       -27.3839
  25   2.0000      -0.982671       -26.7398
  26   2.0000      -0.917679       -24.9713
  27   2.0000      -0.916108       -24.9286
  28   2.0000      -0.869675       -23.6651
  29   2.0000      -0.852643       -23.2016
  30   2.0000      -0.845896       -23.0180
  31   2.0000      -0.809084       -22.0163
  32   2.0000      -0.783980       -21.3332
  33   2.0000      -0.771699       -20.9990
  34   2.0000      -0.708823       -19.2881
  35   2.0000      -0.696735       -18.9591
  36   2.0000      -0.690194       -18.7811
  37   2.0000      -0.659536       -17.9469
  38   2.0000      -0.637883       -17.3577
  39   2.0000      -0.618635       -16.8339
  40   2.0000      -0.594160       -16.1679
  41   2.0000      -0.576939       -15.6993
  42   2.0000      -0.572296       -15.5730
  43   2.0000      -0.559700       -15.2302
  44   2.0000      -0.529075       -14.3969
  45   2.0000      -0.522731       -14.2242
  46   2.0000      -0.519025       -14.1234
  47   2.0000      -0.510963       -13.9040
  48   2.0000      -0.504278       -13.7221
  49   2.0000      -0.496810       -13.5189
  50   2.0000      -0.493114       -13.4183
  51   2.0000      -0.482224       -13.1220
  52   2.0000      -0.469826       -12.7846
  53   2.0000      -0.466731       -12.7004
  54   2.0000      -0.458765       -12.4836
  55   2.0000      -0.448753       -12.2112
  56   2.0000      -0.443689       -12.0734
  57   2.0000      -0.436648       -11.8818
  58   2.0000      -0.434100       -11.8125
  59   2.0000      -0.427873       -11.6430
  60   2.0000      -0.423950       -11.5363
  61   2.0000      -0.418052       -11.3758
  62   2.0000      -0.406458       -11.0603
  63   2.0000      -0.342459        -9.3188
  64   2.0000      -0.333013        -9.0617
  65   2.0000      -0.326610        -8.8875
  66   2.0000      -0.292710        -7.9650
  67   0.0000       0.029959         0.8152
  68   0.0000       0.061625         1.6769
  69   0.0000       0.111361         3.0303
  70   0.0000       0.112275         3.0552
  71   0.0000       0.124361         3.3840

MULLIKEN ATOMIC CHARGES
-----------------------
   0 S :    0.126881
   1 C :   -0.133794
   2 C :   -0.103873
   3 C :    0.015845
   4 C :   -0.189690
   5 H :    0.012575
   6 C :    0.095822
   7 H :    0.045745
   8 H :    0.004484
   9 C :   -0.134289
  10 H :    0.031390
  11 H :    0.056800
  12 C :   -0.058566
  13 H :    0.052297
  14 H :    0.039325
  15 H :    0.041975
  16 S :    0.099497
  17 C :   -0.105491
  18 C :   -0.025451
  19 C :   -0.075022
  20 C :   -0.121075
  21 H :    0.026057
  22 C :    0.082497
  23 H :    0.031887
  24 H :    0.026987
  25 C :   -0.102822
  26 H :    0.018834
  27 H :    0.035804
  28 C :   -0.034877
  29 H :    0.036638
  30 H :    0.038384
  31 H :    0.032268
  32 H :    0.056415
  33 H :    0.076540
Sum of atomic charges:   -0.0000000

LOEWDIN ATOMIC CHARGES
----------------------
   0 S :    0.415938
   1 C :   -0.204774
   2 C :   -0.063417
   3 C :   -0.064101
   4 C :   -0.203425
   5 H :    0.029096
   6 C :   -0.028424
   7 H :    0.040821
   8 H :    0.020647
   9 C :   -0.049452
  10 H :    0.018253
  11 H :    0.036195
  12 C :   -0.072811
  13 H :    0.030603
  14 H :    0.029333
  15 H :    0.032867
  16 S :    0.389538
  17 C :   -0.183045
  18 C :   -0.074515
  19 C :   -0.053669
  20 C :   -0.200475
  21 H :    0.033634
  22 C :   -0.038464
  23 H :    0.035751
  24 H :    0.031578
  25 C :   -0.048497
  26 H :    0.024158
  27 H :    0.023212
  28 C :   -0.065307
  29 H :    0.028941
  30 H :    0.028546
  31 H :    0.027376
  32 H :    0.034430
  33 H :    0.039459

  Mayer bond orders larger than 0.100000
B(  0-S ,  1-C ) :   1.1476 B(  0-S ,  4-C ) :   1.1588 B(  1-C ,  2-C ) :   1.5957
B(  1-C ,  4-C ) :   0.1034 B(  1-C , 32-H ) :   0.9577 B(  2-C ,  3-C ) :   1.2782
B(  2-C ,  6-C ) :   1.0259 B(  3-C ,  4-C ) :   1.5339 B(  3-C ,  5-H ) :   0.9837
B(  4-C , 20-C ) :   1.0451 B(  6-C ,  7-H ) :   0.9274 B(  6-C ,  8-H ) :   0.9401
B(  6-C ,  9-C ) :   1.0557 B(  9-C , 10-H ) :   0.9524 B(  9-C , 11-H ) :   0.9638
B(  9-C , 12-C ) :   1.0678 B( 12-C , 13-H ) :   0.9751 B( 12-C , 14-H ) :   0.9769
B( 12-C , 15-H ) :   0.9728 B( 16-S , 17-C ) :   1.1499 B( 16-S , 20-C ) :   1.1295
B( 17-C , 18-C ) :   1.5973 B( 17-C , 33-H ) :   0.9640 B( 18-C , 19-C ) :   1.2440
B( 18-C , 21-H ) :   0.9814 B( 19-C , 20-C ) :   1.5949 B( 19-C , 22-C ) :   1.0606
B( 22-C , 23-H ) :   0.9191 B( 22-C , 24-H ) :   0.9230 B( 22-C , 25-C ) :   1.0732
B( 25-C , 26-H ) :   0.9468 B( 25-C , 27-H ) :   0.9538 B( 25-C , 28-C ) :   1.0775
B( 28-C , 29-H ) :   0.9733 B( 28-C , 30-H ) :   0.9746 B( 28-C , 31-H ) :   0.9757

Dispersion correction           -0.014536037
FINAL SINGLE POINT ENERGY     -1339.877396340719

DIPOLE MOMENT
-------------
                                X             Y             Z
Electronic contribution:     -9.07005     -23.47804      20.47409
Nuclear contribution   :      9.26270      23.87178     -21.21373
                        -----------------------------------------
Total Dipole Moment    :      0.19265       0.39373      -0.73964
                        -----------------------------------------
Magnitude (a.u.)       :      0.85977
Magnitude (Debye)      :      2.18536

Rotational constants in cm-1:     0.017100     0.009520     0.006788
Rotational constants in MHz :   512.638796   285.410869   203.484298

                             ****ORCA TERMINATED NORMALLY****
TOTAL RUN TIME: 0 days 0 hours 0 minutes 34 seconds 814 msec
