                         Program Version 4.2.1 -  RELEASE  -
|  1> ! wB97X-D3 SP def2-SVP
|  2> %pal
|  3> nprocs 16
|  4> end
|  5>
|  6> * xyz 0 1
|  7> S 	 51.2726 	 4.60325 	 83.2595
|  8> C 	 52.4812 	 5.85579 	 83.4439
|  9> C 	 51.9386 	 7.09012 	 83.1681
| 10> C 	 50.56 	 6.99993 	 83.031
| 11> C 	 50.0189 	 5.7119 	 82.9098
| 12> H 	 49.8975 	 7.88372 	 82.969
| 13> C 	 52.6614 	 8.38025 	 83.1558
| 14> H 	 52.1867 	 9.12715 	 82.5276
| 15> H 	 53.4806 	 8.28163 	 82.4671
| 16> C 	 52.9686 	 8.97756 	 84.5379
| 17> H 	 52.0906 	 9.2811 	 85.0463
| 18> H 	 53.5771 	 8.27258 	 85.0868
| 19> C 	 53.8658 	 10.3547 	 84.4774
| 20> H 	 54.2398 	 10.5619 	 85.493
| 21> H 	 54.7602 	 10.3518 	 83.8284
| 22> H 	 53.2909 	 11.2008 	 84.1971
| 23> S 	 47.7323 	 4.79395 	 81.6918
| 24> C 	 46.2335 	 4.91268 	 82.6005
| 25> C 	 46.4539 	 5.17867 	 83.9365
| 26> C 	 47.8123 	 5.43254 	 84.2032
| 27> C 	 48.61 	 5.3895 	 83.0687
| 28> H 	 45.5051 	 5.29966 	 84.5442
| 29> C 	 48.2294 	 5.6658 	 85.6628
| 30> H 	 47.7384 	 6.55908 	 86.0766
| 31> H 	 49.3525 	 5.78308 	 85.7176
| 32> C 	 47.8764 	 4.49678 	 86.5722
| 33> H 	 48.3177 	 3.51682 	 86.3623
| 34> H 	 46.8164 	 4.29853 	 86.4284
| 35> C 	 48.1232 	 4.87799 	 88.1007
| 36> H 	 47.6299 	 5.85246 	 88.4276
| 37> H 	 49.1854 	 5.0892 	 88.289
| 38> H 	 47.7766 	 4.07872 	 88.8043
| 39> H 	 53.5605 	 5.62207 	 83.4582
| 40> H 	 45.3013 	 4.84769 	 82.1175
| 41> *
| 42>
| 43>                          ****END OF INPUT****

CARTESIAN COORDINATES (ANGSTROEM)
---------------------------------
  S     51.272600    4.603250   83.259500
  C     52.481200    5.855790   83.443900
  C     51.938600    7.090120   83.168100
  C     50.560000    6.999930   83.031000
  C     50.018900    5.711900   82.909800
  H     49.897500    7.883720   82.969000
  C     52.661400    8.380250   83.155800
  H     52.186700    9.127150   82.527600
  H     53.480600    8.281630   82.467100
  C     52.968600    8.977560   84.537900
  H     52.090600    9.281100   85.046300
  H     53.577100    8.272580   85.086800
  C     53.865800   10.354700   84.477400
  H     54.239800   10.561900   85.493000
  H     54.760200   10.351800   83.828400
  H     53.290900   11.200800   84.197100
  S     47.732300    4.793950   81.691800
  C     46.233500    4.912680   82.600500
  C     46.453900    5.178670   83.936500
  C     47.812300    5.432540   84.203200
  C     48.610000    5.389500   83.068700
  H     45.505100    5.299660   84.544200
  C     48.229400    5.665800   85.662800
  H     47.738400    6.559080   86.076600
  H     49.352500    5.783080   85.717600
  C     47.876400    4.496780   86.572200
  H     48.317700    3.516820   86.362300
  H     46.816400    4.298530   86.428400
  C     48.123200    4.877990   88.100700
  H     47.629900    5.852460   88.427600
  H     49.185400    5.089200   88.289000
  H     47.776600    4.078720   88.804300
  H     53.560500    5.622070   83.458200
  H     45.301300    4.847690   82.117500

 Total Charge           Charge          ....    0
 Multiplicity           Mult            ....    1
 Number of Electrons    NEL             ....  134
 Basis Dimension        Dim             ....  322

ORBITAL ENERGIES
----------------

  NO   OCC          E(Eh)            E(eV)
   0   2.0000     -88.964994     -2420.8606
   1   2.0000     -88.962874     -2420.8029
   2   2.0000     -10.323693      -280.9220
   3   2.0000     -10.322269      -280.8832
   4   2.0000     -10.315833      -280.7081
   5   2.0000     -10.312922      -280.6289
   6   2.0000     -10.303437      -280.3708
   7   2.0000     -10.296141      -280.1722
   8   2.0000     -10.295118      -280.1444
   9   2.0000     -10.294825      -280.1364
  10   2.0000     -10.294420      -280.1254
  11   2.0000     -10.291550      -280.0473
  12   2.0000     -10.287907      -279.9482
  13   2.0000     -10.287632      -279.9407
  14   2.0000     -10.287598      -279.9398
  15   2.0000     -10.283303      -279.8229
  16   2.0000      -8.080270      -219.8753
  17   2.0000      -8.078080      -219.8157
  18   2.0000      -6.038701      -164.3214
  19   2.0000      -6.036436      -164.2598
  20   2.0000      -6.034417      -164.2048
  21   2.0000      -6.032595      -164.1552
  22   2.0000      -6.031351      -164.1214
  23   2.0000      -6.028912      -164.0550
  24   2.0000      -1.011307       -27.5191
  25   2.0000      -0.989448       -26.9243
  26   2.0000      -0.911562       -24.8049
  27   2.0000      -0.902947       -24.5704
  28   2.0000      -0.866339       -23.5743
  29   2.0000      -0.844987       -22.9933
  30   2.0000      -0.842737       -22.9320
  31   2.0000      -0.809739       -22.0341
  32   2.0000      -0.782812       -21.3014
  33   2.0000      -0.767728       -20.8910
  34   2.0000      -0.712262       -19.3816
  35   2.0000      -0.702016       -19.1028
  36   2.0000      -0.695512       -18.9258
  37   2.0000      -0.656389       -17.8613
  38   2.0000      -0.642563       -17.4850
  39   2.0000      -0.619916       -16.8688
  40   2.0000      -0.597477       -16.2582
  41   2.0000      -0.573254       -15.5990
  42   2.0000      -0.558143       -15.1879
  43   2.0000      -0.555441       -15.1143
  44   2.0000      -0.528365       -14.3775
  45   2.0000      -0.518854       -14.1187
  46   2.0000      -0.513753       -13.9799
  47   2.0000      -0.508764       -13.8442
  48   2.0000      -0.501536       -13.6475
  49   2.0000      -0.496296       -13.5049
  50   2.0000      -0.492343       -13.3973
  51   2.0000      -0.472569       -12.8593
  52   2.0000      -0.465916       -12.6782
  53   2.0000      -0.461407       -12.5555
  54   2.0000      -0.459248       -12.4968
  55   2.0000      -0.447091       -12.1660
  56   2.0000      -0.444790       -12.1033
  57   2.0000      -0.438694       -11.9375
  58   2.0000      -0.435806       -11.8589
  59   2.0000      -0.420424       -11.4403
  60   2.0000      -0.419150       -11.4057
  61   2.0000      -0.414909       -11.2902
  62   2.0000      -0.412047       -11.2124
  63   2.0000      -0.335739        -9.1359
  64   2.0000      -0.334634        -9.1059
  65   2.0000      -0.319695        -8.6994
  66   2.0000      -0.308172        -8.3858
  67   0.0000       0.044410         1.2085
  68   0.0000       0.050356         1.3703
  69   0.0000       0.114998         3.1293
  70   0.0000       0.124083         3.3765
  71   0.0000       0.132083         3.5942

MULLIKEN ATOMIC CHARGES
-----------------------
   0 S :    0.113262
   1 C :   -0.139774
   2 C :   -0.072067
   3 C :    0.003026
   4 C :   -0.136920
   5 H :    0.019983
   6 C :    0.080890
   7 H :    0.004360
   8 H :    0.012782
   9 C :   -0.037100
  10 H :    0.033654
  11 H :    0.034645
  12 C :   -0.081494
  13 H :    0.034166
  14 H :    0.035167
  15 H :    0.028710
  16 S :    0.106908
  17 C :   -0.095144
  18 C :   -0.061221
  19 C :    0.005739
  20 C :   -0.191936
  21 H :    0.053097
  22 C :    0.071846
  23 H :    0.031696
  24 H :    0.040096
  25 C :   -0.084263
  26 H :    0.038349
  27 H :    0.021949
  28 C :   -0.090513
  29 H :    0.032940
  30 H :    0.035032
  31 H :    0.048234
  32 H :    0.062156
  33 H :    0.041745
Sum of atomic charges:   -0.0000000

LOEWDIN ATOMIC CHARGES
----------------------
   0 S :    0.432566
   1 C :   -0.196334
   2 C :   -0.073377
   3 C :   -0.054066
   4 C :   -0.227098
   5 H :    0.034508
   6 C :   -0.043402
   7 H :    0.030910
   8 H :    0.032362
   9 C :   -0.017987
  10 H :    0.023570
  11 H :    0.023470
  12 C :   -0.070803
  13 H :    0.027794
  14 H :    0.025044
  15 H :    0.016864
  16 S :    0.407091
  17 C :   -0.171919
  18 C :   -0.081144
  19 C :   -0.054349
  20 C :   -0.210515
  21 H :    0.048174
  22 C :   -0.031175
  23 H :    0.033078
  24 H :    0.035145
  25 C :   -0.040916
  26 H :    0.028372
  27 H :    0.018798
  28 C :   -0.077656
  29 H :    0.028263
  30 H :    0.024006
  31 H :    0.030461
  32 H :    0.033217
  33 H :    0.017046

  Mayer bond orders larger than 0.100000
B(  0-S ,  1-C ) :   1.1742 B(  0-S ,  4-C ) :   1.1737 B(  1-C ,  2-C ) :   1.5481
B(  1-C ,  4-C ) :   0.1105 B(  1-C , 32-H ) :   0.9635 B(  2-C ,  3-C ) :   1.2985
B(  2-C ,  6-C ) :   1.0337 B(  3-C ,  4-C ) :   1.5335 B(  3-C ,  5-H ) :   0.9954
B(  4-C , 20-C ) :   0.9934 B(  6-C ,  7-H ) :   0.9323 B(  6-C ,  8-H ) :   0.9282
B(  6-C ,  9-C ) :   1.0562 B(  9-C , 10-H ) :   0.9587 B(  9-C , 11-H ) :   0.9643
B(  9-C , 12-C ) :   1.0644 B( 12-C , 13-H ) :   0.9788 B( 12-C , 14-H ) :   0.9804
B( 12-C , 15-H ) :   0.9803 B( 16-S , 17-C ) :   1.1661 B( 16-S , 20-C ) :   1.1442
B( 17-C , 18-C ) :   1.6157 B( 17-C , 20-C ) :   0.1022 B( 17-C , 33-H ) :   0.9738
B( 18-C , 19-C ) :   1.2217 B( 18-C , 21-H ) :   0.9789 B( 19-C , 20-C ) :   1.6174
B( 19-C , 22-C ) :   1.0367 B( 22-C , 23-H ) :   0.9367 B( 22-C , 24-H ) :   0.9375
B( 22-C , 25-C ) :   1.0578 B( 25-C , 26-H ) :   0.9553 B( 25-C , 27-H ) :   0.9550
B( 25-C , 28-C ) :   1.0682 B( 28-C , 29-H ) :   0.9751 B( 28-C , 30-H ) :   0.9773
B( 28-C , 31-H ) :   0.9761

Dispersion correction           -0.013951103
FINAL SINGLE POINT ENERGY     -1339.868957348724

DIPOLE MOMENT
-------------
                                X             Y             Z
Electronic contribution:     -8.00957     -16.45845     -21.23993
Nuclear contribution   :      8.01917      16.97334      21.61178
                        -----------------------------------------
Total Dipole Moment    :      0.00960       0.51490       0.37185
                        -----------------------------------------
Magnitude (a.u.)       :      0.63520
Magnitude (Debye)      :      1.61455

Rotational constants in cm-1:     0.017934     0.007901     0.006593
Rotational constants in MHz :   537.641963   236.860419   197.659198

                             ****ORCA TERMINATED NORMALLY****
TOTAL RUN TIME: 0 days 0 hours 0 minutes 34 seconds 252 msec
