                         Program Version 4.2.1 -  RELEASE  -
|  1> ! wB97X-D3 SP def2-SVP
|  2> %pal
|  3> nprocs 16
|  4> end
|  5>
|  6> * xyz 0 1
|  7> S 	 1.58612 	 -0.823849 	 82.5417
|  8> C 	 1.97046 	 -0.666911 	 84.3485
|  9> C 	 1.658 	 -1.83447 	 84.993
| 10> C 	 1.10517 	 -2.8393 	 84.1054
| 11> C 	 0.919762 	 -2.46296 	 82.7621
| 12> H 	 0.889078 	 -3.86694 	 84.2541
| 13> C 	 1.76968 	 -2.00726 	 86.4555
| 14> H 	 0.858759 	 -1.54235 	 86.8867
| 15> H 	 2.58378 	 -1.32742 	 86.8101
| 16> C 	 2.13767 	 -3.41349 	 87.0611
| 17> H 	 1.89449 	 -3.42789 	 88.1278
| 18> H 	 1.36664 	 -4.18088 	 86.6824
| 19> C 	 3.56302 	 -3.95034 	 86.8258
| 20> H 	 3.82787 	 -4.13358 	 85.7818
| 21> H 	 4.3951 	 -3.40534 	 87.3237
| 22> H 	 3.58624 	 -4.93766 	 87.267
| 23> S 	 -1.18764 	 -2.36545 	 81.0279
| 24> C 	 -1.483 	 -3.46894 	 79.7904
| 25> C 	 -0.52699 	 -4.47036 	 79.8922
| 26> C 	 0.385779 	 -4.37652 	 81.0263
| 27> C 	 0.25998 	 -3.12724 	 81.651
| 28> H 	 -0.522009 	 -5.30777 	 79.2704
| 29> C 	 1.51111 	 -5.35167 	 81.3618
| 30> H 	 2.167 	 -4.70938 	 81.9171
| 31> H 	 1.98631 	 -5.6146 	 80.3664
| 32> C 	 1.1509 	 -6.51954 	 82.3046
| 33> H 	 0.529807 	 -6.29893 	 83.1768
| 34> H 	 2.00296 	 -6.83882 	 82.7894
| 35> C 	 0.338469 	 -7.65835 	 81.666
| 36> H 	 0.144036 	 -8.50651 	 82.2846
| 37> H 	 0.788021 	 -8.07237 	 80.7853
| 38> H 	 -0.662842 	 -7.36229 	 81.2211
| 39> H 	 2.02732 	 0.229505 	 84.9478
| 40> H 	 -2.25286 	 -3.33115 	 79.0969
| 41> *
| 42>
| 43>                          ****END OF INPUT****

CARTESIAN COORDINATES (ANGSTROEM)
---------------------------------
  S      1.586120   -0.823849   82.541700
  C      1.970460   -0.666911   84.348500
  C      1.658000   -1.834470   84.993000
  C      1.105170   -2.839300   84.105400
  C      0.919762   -2.462960   82.762100
  H      0.889078   -3.866940   84.254100
  C      1.769680   -2.007260   86.455500
  H      0.858759   -1.542350   86.886700
  H      2.583780   -1.327420   86.810100
  C      2.137670   -3.413490   87.061100
  H      1.894490   -3.427890   88.127800
  H      1.366640   -4.180880   86.682400
  C      3.563020   -3.950340   86.825800
  H      3.827870   -4.133580   85.781800
  H      4.395100   -3.405340   87.323700
  H      3.586240   -4.937660   87.267000
  S     -1.187640   -2.365450   81.027900
  C     -1.483000   -3.468940   79.790400
  C     -0.526990   -4.470360   79.892200
  C      0.385779   -4.376520   81.026300
  C      0.259980   -3.127240   81.651000
  H     -0.522009   -5.307770   79.270400
  C      1.511110   -5.351670   81.361800
  H      2.167000   -4.709380   81.917100
  H      1.986310   -5.614600   80.366400
  C      1.150900   -6.519540   82.304600
  H      0.529807   -6.298930   83.176800
  H      2.002960   -6.838820   82.789400
  C      0.338469   -7.658350   81.666000
  H      0.144036   -8.506510   82.284600
  H      0.788021   -8.072370   80.785300
  H     -0.662842   -7.362290   81.221100
  H      2.027320    0.229505   84.947800
  H     -2.252860   -3.331150   79.096900

 Total Charge           Charge          ....    0
 Multiplicity           Mult            ....    1
 Number of Electrons    NEL             ....  134
 Basis Dimension        Dim             ....  322

ORBITAL ENERGIES
----------------

  NO   OCC          E(Eh)            E(eV)
   0   2.0000     -88.963278     -2420.8139
   1   2.0000     -88.960600     -2420.7410
   2   2.0000     -10.337369      -281.2941
   3   2.0000     -10.328025      -281.0399
   4   2.0000     -10.316558      -280.7278
   5   2.0000     -10.315377      -280.6957
   6   2.0000     -10.309340      -280.5314
   7   2.0000     -10.304828      -280.4086
   8   2.0000     -10.302822      -280.3540
   9   2.0000     -10.299290      -280.2579
  10   2.0000     -10.299094      -280.2526
  11   2.0000     -10.297619      -280.2125
  12   2.0000     -10.292978      -280.0862
  13   2.0000     -10.287564      -279.9389
  14   2.0000     -10.283550      -279.8296
  15   2.0000     -10.277023      -279.6520
  16   2.0000      -8.076931      -219.7845
  17   2.0000      -8.076006      -219.7593
  18   2.0000      -6.035280      -164.2283
  19   2.0000      -6.034800      -164.2152
  20   2.0000      -6.030922      -164.1097
  21   2.0000      -6.030804      -164.1065
  22   2.0000      -6.027998      -164.0302
  23   2.0000      -6.026538      -163.9904
  24   2.0000      -1.006129       -27.3782
  25   2.0000      -0.976630       -26.5755
  26   2.0000      -0.910782       -24.7836
  27   2.0000      -0.907539       -24.6954
  28   2.0000      -0.870482       -23.6870
  29   2.0000      -0.850693       -23.1485
  30   2.0000      -0.836427       -22.7603
  31   2.0000      -0.815869       -22.2009
  32   2.0000      -0.786772       -21.4091
  33   2.0000      -0.776609       -21.1326
  34   2.0000      -0.717500       -19.5242
  35   2.0000      -0.707166       -19.2430
  36   2.0000      -0.694713       -18.9041
  37   2.0000      -0.664354       -18.0780
  38   2.0000      -0.640394       -17.4260
  39   2.0000      -0.611739       -16.6463
  40   2.0000      -0.596346       -16.2274
  41   2.0000      -0.565048       -15.3757
  42   2.0000      -0.554936       -15.1006
  43   2.0000      -0.552508       -15.0345
  44   2.0000      -0.546810       -14.8795
  45   2.0000      -0.532592       -14.4926
  46   2.0000      -0.524359       -14.2685
  47   2.0000      -0.511772       -13.9260
  48   2.0000      -0.509451       -13.8629
  49   2.0000      -0.498087       -13.5536
  50   2.0000      -0.490874       -13.3574
  51   2.0000      -0.475452       -12.9377
  52   2.0000      -0.475120       -12.9287
  53   2.0000      -0.467005       -12.7079
  54   2.0000      -0.459509       -12.5039
  55   2.0000      -0.450445       -12.2572
  56   2.0000      -0.441783       -12.0215
  57   2.0000      -0.435275       -11.8444
  58   2.0000      -0.433895       -11.8069
  59   2.0000      -0.424979       -11.5643
  60   2.0000      -0.415043       -11.2939
  61   2.0000      -0.412895       -11.2354
  62   2.0000      -0.406248       -11.0546
  63   2.0000      -0.337160        -9.1746
  64   2.0000      -0.330413        -8.9910
  65   2.0000      -0.322573        -8.7776
  66   2.0000      -0.301349        -8.2001
  67   0.0000       0.022648         0.6163
  68   0.0000       0.065689         1.7875
  69   0.0000       0.111892         3.0447
  70   0.0000       0.114951         3.1280
  71   0.0000       0.125253         3.4083

MULLIKEN ATOMIC CHARGES
-----------------------
   0 S :    0.085557
   1 C :   -0.111403
   2 C :   -0.077687
   3 C :    0.069596
   4 C :   -0.184127
   5 H :   -0.016516
   6 C :    0.030818
   7 H :    0.053944
   8 H :    0.029377
   9 C :   -0.100127
  10 H :    0.032052
  11 H :    0.037343
  12 C :   -0.045925
  13 H :    0.041302
  14 H :    0.042491
  15 H :    0.027472
  16 S :    0.112337
  17 C :   -0.059209
  18 C :   -0.013001
  19 C :   -0.046265
  20 C :   -0.165524
  21 H :   -0.007798
  22 C :    0.049802
  23 H :    0.024030
  24 H :    0.052389
  25 C :   -0.014325
  26 H :    0.031023
  27 H :    0.011147
  28 C :   -0.064464
  29 H :    0.029266
  30 H :    0.010251
  31 H :    0.034445
  32 H :    0.054192
  33 H :    0.047537
Sum of atomic charges:   -0.0000000

LOEWDIN ATOMIC CHARGES
----------------------
   0 S :    0.352915
   1 C :   -0.176439
   2 C :   -0.061894
   3 C :   -0.061816
   4 C :   -0.179986
   5 H :    0.021512
   6 C :   -0.044753
   7 H :    0.042460
   8 H :    0.035858
   9 C :   -0.047444
  10 H :    0.028301
  11 H :    0.030187
  12 C :   -0.071275
  13 H :    0.027974
  14 H :    0.030394
  15 H :    0.028862
  16 S :    0.442331
  17 C :   -0.190626
  18 C :   -0.072652
  19 C :   -0.047678
  20 C :   -0.214712
  21 H :    0.015601
  22 C :   -0.028587
  23 H :    0.031613
  24 H :    0.043614
  25 C :   -0.036161
  26 H :    0.031360
  27 H :    0.016411
  28 C :   -0.072680
  29 H :    0.022811
  30 H :    0.016173
  31 H :    0.032373
  32 H :    0.032935
  33 H :    0.023018

  Mayer bond orders larger than 0.100000
B(  0-S ,  1-C ) :   1.1013 B(  0-S ,  4-C ) :   1.1364 B(  1-C ,  2-C ) :   1.6601
B(  1-C , 32-H ) :   0.9604 B(  2-C ,  3-C ) :   1.1873 B(  2-C ,  6-C ) :   1.0219
B(  3-C ,  4-C ) :   1.6019 B(  3-C ,  5-H ) :   0.9962 B(  4-C , 20-C ) :   1.0254
B(  6-C ,  7-H ) :   0.9335 B(  6-C ,  8-H ) :   0.9426 B(  6-C ,  9-C ) :   1.0659
B(  9-C , 10-H ) :   0.9539 B(  9-C , 11-H ) :   0.9524 B(  9-C , 12-C ) :   1.0765
B( 12-C , 13-H ) :   0.9757 B( 12-C , 14-H ) :   0.9736 B( 12-C , 15-H ) :   0.9700
B( 16-S , 17-C ) :   1.1878 B( 16-S , 20-C ) :   1.1662 B( 17-C , 18-C ) :   1.5379
B( 17-C , 20-C ) :   0.1036 B( 17-C , 33-H ) :   0.9838 B( 18-C , 19-C ) :   1.2657
B( 18-C , 21-H ) :   0.9995 B( 19-C , 20-C ) :   1.5546 B( 19-C , 22-C ) :   1.0355
B( 22-C , 23-H ) :   0.9284 B( 22-C , 24-H ) :   0.9471 B( 22-C , 25-C ) :   1.0638
B( 25-C , 26-H ) :   0.9502 B( 25-C , 27-H ) :   0.9545 B( 25-C , 28-C ) :   1.0699
B( 28-C , 29-H ) :   0.9744 B( 28-C , 30-H ) :   0.9753 B( 28-C , 31-H ) :   0.9738

Dispersion correction           -0.014527711
FINAL SINGLE POINT ENERGY     -1339.854556013832

DIPOLE MOMENT
-------------
                                X             Y             Z
Electronic contribution:     -9.50867      22.23604     -16.09105
Nuclear contribution   :      9.50724     -22.87069      16.54304
                        -----------------------------------------
Total Dipole Moment    :     -0.00143      -0.63466       0.45199
                        -----------------------------------------
Magnitude (a.u.)       :      0.77915
Magnitude (Debye)      :      1.98045

Rotational constants in cm-1:     0.017540     0.009353     0.006691
Rotational constants in MHz :   525.845825   280.384401   200.584852

                             ****ORCA TERMINATED NORMALLY****
TOTAL RUN TIME: 0 days 0 hours 0 minutes 35 seconds 658 msec
