                         Program Version 4.2.1 -  RELEASE  -
|  1> ! wB97X-D3 SP def2-SVP
|  2> %pal
|  3> nprocs 16
|  4> end
|  5>
|  6> * xyz 0 1
|  7> S 	 49.9987 	 3.98405 	 88.1366
|  8> C 	 51.5613 	 3.83087 	 87.2436
|  9> C 	 52.4703 	 3.11151 	 88.0479
| 10> C 	 51.9352 	 2.75034 	 89.3761
| 11> C 	 50.6117 	 3.17884 	 89.5557
| 12> H 	 52.3248 	 2.21718 	 90.3315
| 13> C 	 53.8399 	 2.74913 	 87.7294
| 14> H 	 53.9794 	 2.99192 	 86.6521
| 15> H 	 53.7655 	 1.68805 	 87.9049
| 16> C 	 54.8489 	 3.43356 	 88.6505
| 17> H 	 54.8015 	 4.524 	 88.644
| 18> H 	 54.6779 	 3.15152 	 89.6525
| 19> C 	 56.3483 	 3.14619 	 88.2536
| 20> H 	 57.0373 	 3.431 	 89.0211
| 21> H 	 56.5966 	 2.08538 	 88.1812
| 22> H 	 56.5516 	 3.68675 	 87.4177
| 23> S 	 48.9382 	 4.48713 	 91.3022
| 24> C 	 47.9954 	 3.47897 	 92.4055
| 25> C 	 48.4845 	 2.25298 	 92.5006
| 26> C 	 49.4878 	 1.8926 	 91.5102
| 27> C 	 49.7871 	 3.00413 	 90.7203
| 28> H 	 48.033 	 1.50793 	 93.2365
| 29> C 	 49.9812 	 0.407034 	 91.3644
| 30> H 	 49.7114 	 -0.0171857 	 92.3286
| 31> H 	 51.0605 	 0.44915 	 91.3581
| 32> C 	 49.5308 	 -0.389736 	 90.1041
| 33> H 	 48.4731 	 -0.490291 	 90.0981
| 34> H 	 49.8898 	 -1.45583 	 90.2167
| 35> C 	 49.8701 	 0.116549 	 88.7421
| 36> H 	 50.8815 	 0.352119 	 88.5582
| 37> H 	 49.3564 	 1.007 	 88.3982
| 38> H 	 49.6262 	 -0.640322 	 88.024
| 39> H 	 51.7336 	 4.24371 	 86.2578
| 40> H 	 47.2536 	 3.77498 	 93.0722
| 41> *
| 42>
| 43>                          ****END OF INPUT****

CARTESIAN COORDINATES (ANGSTROEM)
---------------------------------
  S     49.998700    3.984050   88.136600
  C     51.561300    3.830870   87.243600
  C     52.470300    3.111510   88.047900
  C     51.935200    2.750340   89.376100
  C     50.611700    3.178840   89.555700
  H     52.324800    2.217180   90.331500
  C     53.839900    2.749130   87.729400
  H     53.979400    2.991920   86.652100
  H     53.765500    1.688050   87.904900
  C     54.848900    3.433560   88.650500
  H     54.801500    4.524000   88.644000
  H     54.677900    3.151520   89.652500
  C     56.348300    3.146190   88.253600
  H     57.037300    3.431000   89.021100
  H     56.596600    2.085380   88.181200
  H     56.551600    3.686750   87.417700
  S     48.938200    4.487130   91.302200
  C     47.995400    3.478970   92.405500
  C     48.484500    2.252980   92.500600
  C     49.487800    1.892600   91.510200
  C     49.787100    3.004130   90.720300
  H     48.033000    1.507930   93.236500
  C     49.981200    0.407034   91.364400
  H     49.711400   -0.017186   92.328600
  H     51.060500    0.449150   91.358100
  C     49.530800   -0.389736   90.104100
  H     48.473100   -0.490291   90.098100
  H     49.889800   -1.455830   90.216700
  C     49.870100    0.116549   88.742100
  H     50.881500    0.352119   88.558200
  H     49.356400    1.007000   88.398200
  H     49.626200   -0.640322   88.024000
  H     51.733600    4.243710   86.257800
  H     47.253600    3.774980   93.072200

 Total Charge           Charge          ....    0
 Multiplicity           Mult            ....    1
 Number of Electrons    NEL             ....  134
 Basis Dimension        Dim             ....  322

ORBITAL ENERGIES
----------------

  NO   OCC          E(Eh)            E(eV)
   0   2.0000     -88.964528     -2420.8479
   1   2.0000     -88.963944     -2420.8320
   2   2.0000     -10.330507      -281.1074
   3   2.0000     -10.329055      -281.0679
   4   2.0000     -10.321353      -280.8583
   5   2.0000     -10.311108      -280.5795
   6   2.0000     -10.310269      -280.5567
   7   2.0000     -10.308357      -280.5047
   8   2.0000     -10.304522      -280.4003
   9   2.0000     -10.299938      -280.2756
  10   2.0000     -10.294582      -280.1298
  11   2.0000     -10.289959      -280.0040
  12   2.0000     -10.287277      -279.9310
  13   2.0000     -10.286369      -279.9063
  14   2.0000     -10.269577      -279.4494
  15   2.0000     -10.260106      -279.1917
  16   2.0000      -8.078109      -219.8165
  17   2.0000      -8.077845      -219.8093
  18   2.0000      -6.036759      -164.2686
  19   2.0000      -6.036536      -164.2625
  20   2.0000      -6.032674      -164.1574
  21   2.0000      -6.032659      -164.1570
  22   2.0000      -6.028854      -164.0535
  23   2.0000      -6.028252      -164.0371
  24   2.0000      -1.000089       -27.2138
  25   2.0000      -0.976017       -26.5588
  26   2.0000      -0.918203       -24.9856
  27   2.0000      -0.903200       -24.5773
  28   2.0000      -0.869394       -23.6574
  29   2.0000      -0.848197       -23.0806
  30   2.0000      -0.842825       -22.9344
  31   2.0000      -0.814851       -22.1732
  32   2.0000      -0.784640       -21.3511
  33   2.0000      -0.774503       -21.0753
  34   2.0000      -0.715197       -19.4615
  35   2.0000      -0.705694       -19.2029
  36   2.0000      -0.693792       -18.8790
  37   2.0000      -0.654239       -17.8027
  38   2.0000      -0.639758       -17.4087
  39   2.0000      -0.610041       -16.6001
  40   2.0000      -0.591681       -16.1005
  41   2.0000      -0.568796       -15.4777
  42   2.0000      -0.559061       -15.2128
  43   2.0000      -0.547184       -14.8896
  44   2.0000      -0.541782       -14.7427
  45   2.0000      -0.525914       -14.3108
  46   2.0000      -0.522266       -14.2116
  47   2.0000      -0.512319       -13.9409
  48   2.0000      -0.505667       -13.7599
  49   2.0000      -0.497238       -13.5305
  50   2.0000      -0.491475       -13.3737
  51   2.0000      -0.479005       -13.0344
  52   2.0000      -0.469829       -12.7847
  53   2.0000      -0.466273       -12.6879
  54   2.0000      -0.451403       -12.2833
  55   2.0000      -0.445523       -12.1233
  56   2.0000      -0.444614       -12.0986
  57   2.0000      -0.436173       -11.8689
  58   2.0000      -0.432410       -11.7665
  59   2.0000      -0.428179       -11.6513
  60   2.0000      -0.423540       -11.5251
  61   2.0000      -0.411702       -11.2030
  62   2.0000      -0.408034       -11.1032
  63   2.0000      -0.346224        -9.4212
  64   2.0000      -0.331583        -9.0228
  65   2.0000      -0.322295        -8.7701
  66   2.0000      -0.292643        -7.9632
  67   0.0000       0.024131         0.6566
  68   0.0000       0.074004         2.0137
  69   0.0000       0.103614         2.8195
  70   0.0000       0.112888         3.0719
  71   0.0000       0.131063         3.5664

MULLIKEN ATOMIC CHARGES
-----------------------
   0 S :    0.096656
   1 C :   -0.124995
   2 C :   -0.103864
   3 C :   -0.012021
   4 C :   -0.167122
   5 H :    0.054991
   6 C :    0.104672
   7 H :    0.021303
   8 H :    0.034052
   9 C :   -0.079650
  10 H :    0.033555
  11 H :    0.019001
  12 C :   -0.011806
  13 H :    0.021113
  14 H :    0.024030
  15 H :    0.018293
  16 S :    0.096211
  17 C :   -0.044073
  18 C :   -0.067345
  19 C :   -0.050339
  20 C :   -0.181114
  21 H :    0.041134
  22 C :    0.109912
  23 H :    0.015547
  24 H :    0.016857
  25 C :   -0.054207
  26 H :    0.019653
  27 H :    0.033850
  28 C :   -0.005664
  29 H :    0.008825
  30 H :    0.032386
  31 H :    0.018923
  32 H :    0.052922
  33 H :    0.028315
Sum of atomic charges:    0.0000000

LOEWDIN ATOMIC CHARGES
----------------------
   0 S :    0.386469
   1 C :   -0.194714
   2 C :   -0.052204
   3 C :   -0.082432
   4 C :   -0.196019
   5 H :    0.051301
   6 C :   -0.037086
   7 H :    0.033803
   8 H :    0.038547
   9 C :   -0.027969
  10 H :    0.029447
  11 H :    0.016549
  12 C :   -0.056949
  13 H :    0.025069
  14 H :    0.025208
  15 H :    0.010941
  16 S :    0.368970
  17 C :   -0.168741
  18 C :   -0.080164
  19 C :   -0.050693
  20 C :   -0.182945
  21 H :    0.042232
  22 C :   -0.025305
  23 H :    0.030704
  24 H :    0.025065
  25 C :   -0.037801
  26 H :    0.021870
  27 H :    0.032502
  28 C :   -0.064980
  29 H :    0.015822
  30 H :    0.024798
  31 H :    0.027320
  32 H :    0.030346
  33 H :    0.021040

  Mayer bond orders larger than 0.100000
B(  0-S ,  1-C ) :   1.1035 B(  0-S ,  4-C ) :   1.1508 B(  1-C ,  2-C ) :   1.6157
B(  1-C , 32-H ) :   0.9744 B(  2-C ,  3-C ) :   1.1794 B(  2-C ,  6-C ) :   1.0371
B(  3-C ,  4-C ) :   1.6018 B(  3-C ,  5-H ) :   0.9697 B(  4-C , 20-C ) :   1.0643
B(  6-C ,  7-H ) :   0.9384 B(  6-C ,  8-H ) :   0.9234 B(  6-C ,  9-C ) :   1.0660
B(  9-C , 10-H ) :   0.9590 B(  9-C , 11-H ) :   0.9546 B(  9-C , 12-C ) :   1.0839
B( 12-C , 13-H ) :   0.9735 B( 12-C , 14-H ) :   0.9748 B( 12-C , 15-H ) :   0.9797
B( 16-S , 17-C ) :   1.1101 B( 16-S , 20-C ) :   1.1220 B( 17-C , 18-C ) :   1.6962
B( 17-C , 33-H ) :   0.9656 B( 18-C , 19-C ) :   1.2059 B( 18-C , 21-H ) :   0.9673
B( 19-C , 20-C ) :   1.6268 B( 19-C , 22-C ) :   1.0150 B( 22-C , 23-H ) :   0.9323
B( 22-C , 24-H ) :   0.9352 B( 22-C , 25-C ) :   1.0665 B( 25-C , 26-H ) :   0.9517
B( 25-C , 27-H ) :   0.9526 B( 25-C , 28-C ) :   1.0968 B( 28-C , 29-H ) :   0.9694
B( 28-C , 30-H ) :   0.9600 B( 28-C , 31-H ) :   0.9634

Dispersion correction           -0.015678815
FINAL SINGLE POINT ENERGY     -1339.855715063395

DIPOLE MOMENT
-------------
                                X             Y             Z
Electronic contribution:    -19.52993      16.27953       5.09604
Nuclear contribution   :     19.92000     -16.80943      -4.97765
                        -----------------------------------------
Total Dipole Moment    :      0.39007      -0.52990       0.11839
                        -----------------------------------------
Magnitude (a.u.)       :      0.66855
Magnitude (Debye)      :      1.69932

Rotational constants in cm-1:     0.020378     0.008431     0.007589
Rotational constants in MHz :   610.903940   252.768373   227.507496

                             ****ORCA TERMINATED NORMALLY****
TOTAL RUN TIME: 0 days 0 hours 0 minutes 30 seconds 331 msec
