                         Program Version 4.2.1 -  RELEASE  -
|  1> ! wB97X-D3 SP def2-SVP
|  2> %pal
|  3> nprocs 16
|  4> end
|  5>
|  6> * xyz 0 1
|  7> S 	 -71.3514 	 50.0591 	 135.14
|  8> C 	 -69.9429 	 49.3989 	 136.074
|  9> C 	 -70.4141 	 48.546 	 137.058
| 10> C 	 -71.8297 	 48.5833 	 137.222
| 11> C 	 -72.4888 	 49.2172 	 136.252
| 12> H 	 -72.4302 	 48.0489 	 137.962
| 13> C 	 -69.422 	 47.7338 	 137.952
| 14> H 	 -68.5002 	 48.1459 	 137.983
| 15> H 	 -69.4509 	 46.8318 	 137.415
| 16> C 	 -69.8584 	 47.5741 	 139.434
| 17> H 	 -70.0376 	 48.4741 	 139.993
| 18> H 	 -70.8516 	 47.1549 	 139.548
| 19> C 	 -68.7865 	 46.7522 	 140.124
| 20> H 	 -67.8161 	 47.2925 	 140.25
| 21> H 	 -69.0473 	 46.4559 	 141.178
| 22> H 	 -68.6177 	 45.8663 	 139.523
| 23> S 	 -74.8137 	 47.7019 	 135.694
| 24> C 	 -76.29 	 48.4925 	 135.226
| 25> C 	 -76.0661 	 49.8588 	 135.124
| 26> C 	 -74.7979 	 50.2784 	 135.48
| 27> C 	 -73.9371 	 49.2284 	 135.947
| 28> H 	 -76.7611 	 50.5738 	 134.831
| 29> C 	 -74.3658 	 51.6913 	 135.396
| 30> H 	 -73.4017 	 51.7435 	 135.912
| 31> H 	 -75.0189 	 52.4007 	 136.007
| 32> C 	 -74.1457 	 52.18 	 133.902
| 33> H 	 -74.983 	 52.1658 	 133.263
| 34> H 	 -73.4534 	 51.5224 	 133.508
| 35> C 	 -73.484 	 53.5913 	 133.921
| 36> H 	 -74.2171 	 54.4367 	 134.24
| 37> H 	 -73.0338 	 53.7777 	 132.96
| 38> H 	 -72.6698 	 53.6327 	 134.656
| 39> H 	 -68.877 	 49.5101 	 135.768
| 40> H 	 -77.2147 	 47.9525 	 134.973
| 41> *
| 42>
| 43>                          ****END OF INPUT****

CARTESIAN COORDINATES (ANGSTROEM)
---------------------------------
  S    -71.351400   50.059100  135.140000
  C    -69.942900   49.398900  136.074000
  C    -70.414100   48.546000  137.058000
  C    -71.829700   48.583300  137.222000
  C    -72.488800   49.217200  136.252000
  H    -72.430200   48.048900  137.962000
  C    -69.422000   47.733800  137.952000
  H    -68.500200   48.145900  137.983000
  H    -69.450900   46.831800  137.415000
  C    -69.858400   47.574100  139.434000
  H    -70.037600   48.474100  139.993000
  H    -70.851600   47.154900  139.548000
  C    -68.786500   46.752200  140.124000
  H    -67.816100   47.292500  140.250000
  H    -69.047300   46.455900  141.178000
  H    -68.617700   45.866300  139.523000
  S    -74.813700   47.701900  135.694000
  C    -76.290000   48.492500  135.226000
  C    -76.066100   49.858800  135.124000
  C    -74.797900   50.278400  135.480000
  C    -73.937100   49.228400  135.947000
  H    -76.761100   50.573800  134.831000
  C    -74.365800   51.691300  135.396000
  H    -73.401700   51.743500  135.912000
  H    -75.018900   52.400700  136.007000
  C    -74.145700   52.180000  133.902000
  H    -74.983000   52.165800  133.263000
  H    -73.453400   51.522400  133.508000
  C    -73.484000   53.591300  133.921000
  H    -74.217100   54.436700  134.240000
  H    -73.033800   53.777700  132.960000
  H    -72.669800   53.632700  134.656000
  H    -68.877000   49.510100  135.768000
  H    -77.214700   47.952500  134.973000

 Total Charge           Charge          ....    0
 Multiplicity           Mult            ....    1
 Number of Electrons    NEL             ....  134
 Basis Dimension        Dim             ....  322

ORBITAL ENERGIES
----------------

  NO   OCC          E(Eh)            E(eV)
   0   2.0000     -88.968559     -2420.9576
   1   2.0000     -88.963890     -2420.8305
   2   2.0000     -10.333284      -281.1830
   3   2.0000     -10.331865      -281.1443
   4   2.0000     -10.322722      -280.8956
   5   2.0000     -10.321193      -280.8540
   6   2.0000     -10.306409      -280.4516
   7   2.0000     -10.299262      -280.2572
   8   2.0000     -10.293692      -280.1056
   9   2.0000     -10.291337      -280.0415
  10   2.0000     -10.287809      -279.9455
  11   2.0000     -10.286004      -279.8964
  12   2.0000     -10.285412      -279.8803
  13   2.0000     -10.283111      -279.8177
  14   2.0000     -10.280885      -279.7571
  15   2.0000     -10.279500      -279.7194
  16   2.0000      -8.082616      -219.9392
  17   2.0000      -8.076686      -219.7778
  18   2.0000      -6.041029      -164.3847
  19   2.0000      -6.037052      -164.2765
  20   2.0000      -6.035460      -164.2332
  21   2.0000      -6.033688      -164.1850
  22   2.0000      -6.031556      -164.1270
  23   2.0000      -6.027202      -164.0085
  24   2.0000      -1.002000       -27.2658
  25   2.0000      -0.981283       -26.7021
  26   2.0000      -0.912766       -24.8376
  27   2.0000      -0.903887       -24.5960
  28   2.0000      -0.868019       -23.6200
  29   2.0000      -0.849858       -23.1258
  30   2.0000      -0.841413       -22.8960
  31   2.0000      -0.818000       -22.2589
  32   2.0000      -0.776882       -21.1400
  33   2.0000      -0.762346       -20.7445
  34   2.0000      -0.712783       -19.3958
  35   2.0000      -0.703657       -19.1475
  36   2.0000      -0.692064       -18.8320
  37   2.0000      -0.668052       -18.1786
  38   2.0000      -0.636263       -17.3136
  39   2.0000      -0.619879       -16.8678
  40   2.0000      -0.598944       -16.2981
  41   2.0000      -0.573113       -15.5952
  42   2.0000      -0.565568       -15.3899
  43   2.0000      -0.558703       -15.2031
  44   2.0000      -0.529931       -14.4202
  45   2.0000      -0.523633       -14.2488
  46   2.0000      -0.513081       -13.9616
  47   2.0000      -0.511447       -13.9172
  48   2.0000      -0.504928       -13.7398
  49   2.0000      -0.495217       -13.4755
  50   2.0000      -0.489878       -13.3303
  51   2.0000      -0.476848       -12.9757
  52   2.0000      -0.470472       -12.8022
  53   2.0000      -0.460323       -12.5260
  54   2.0000      -0.456314       -12.4169
  55   2.0000      -0.451442       -12.2844
  56   2.0000      -0.442282       -12.0351
  57   2.0000      -0.440565       -11.9884
  58   2.0000      -0.439525       -11.9601
  59   2.0000      -0.424715       -11.5571
  60   2.0000      -0.422882       -11.5072
  61   2.0000      -0.413257       -11.2453
  62   2.0000      -0.403498       -10.9797
  63   2.0000      -0.346137        -9.4189
  64   2.0000      -0.333759        -9.0820
  65   2.0000      -0.328488        -8.9386
  66   2.0000      -0.292537        -7.9603
  67   0.0000       0.024293         0.6610
  68   0.0000       0.066335         1.8051
  69   0.0000       0.103155         2.8070
  70   0.0000       0.120872         3.2891
  71   0.0000       0.130447         3.5497

MULLIKEN ATOMIC CHARGES
-----------------------
   0 S :    0.071916
   1 C :   -0.139604
   2 C :   -0.098854
   3 C :    0.014689
   4 C :   -0.127659
   5 H :    0.017758
   6 C :    0.128446
   7 H :    0.001399
   8 H :    0.037985
   9 C :   -0.079217
  10 H :    0.026196
  11 H :    0.024189
  12 C :   -0.064861
  13 H :    0.038175
  14 H :    0.037075
  15 H :    0.028294
  16 S :    0.107904
  17 C :   -0.100800
  18 C :    0.015324
  19 C :   -0.041628
  20 C :   -0.144731
  21 H :   -0.010814
  22 C :    0.001683
  23 H :    0.021474
  24 H :    0.042841
  25 C :   -0.021335
  26 H :    0.025060
  27 H :    0.009368
  28 C :   -0.067981
  29 H :    0.043290
  30 H :    0.034386
  31 H :    0.027458
  32 H :    0.068707
  33 H :    0.073869
Sum of atomic charges:   -0.0000000

LOEWDIN ATOMIC CHARGES
----------------------
   0 S :    0.356633
   1 C :   -0.186654
   2 C :   -0.054278
   3 C :   -0.072243
   4 C :   -0.165009
   5 H :    0.036943
   6 C :   -0.007207
   7 H :    0.015533
   8 H :    0.033404
   9 C :   -0.044483
  10 H :    0.024196
  11 H :    0.021506
  12 C :   -0.068532
  13 H :    0.028540
  14 H :    0.029818
  15 H :    0.022880
  16 S :    0.413131
  17 C :   -0.187813
  18 C :   -0.066930
  19 C :   -0.056697
  20 C :   -0.203233
  21 H :    0.022419
  22 C :   -0.041729
  23 H :    0.022679
  24 H :    0.036143
  25 C :   -0.024292
  26 H :    0.017045
  27 H :    0.010783
  28 C :   -0.068226
  29 H :    0.033272
  30 H :    0.022455
  31 H :    0.023724
  32 H :    0.038625
  33 H :    0.037596

  Mayer bond orders larger than 0.100000
B(  0-S ,  1-C ) :   1.1033 B(  0-S ,  4-C ) :   1.1106 B(  1-C ,  2-C ) :   1.6593
B(  1-C , 32-H ) :   0.9651 B(  2-C ,  3-C ) :   1.1919 B(  2-C ,  6-C ) :   0.9916
B(  3-C ,  4-C ) :   1.6352 B(  3-C ,  5-H ) :   0.9929 B(  4-C , 20-C ) :   1.0402
B(  6-C ,  7-H ) :   0.9539 B(  6-C ,  8-H ) :   0.9301 B(  6-C ,  9-C ) :   1.0641
B(  9-C , 10-H ) :   0.9580 B(  9-C , 11-H ) :   0.9476 B(  9-C , 12-C ) :   1.0886
B( 12-C , 13-H ) :   0.9742 B( 12-C , 14-H ) :   0.9717 B( 12-C , 15-H ) :   0.9746
B( 16-S , 17-C ) :   1.1862 B( 16-S , 20-C ) :   1.1488 B( 17-C , 18-C ) :   1.5130
B( 17-C , 20-C ) :   0.1140 B( 17-C , 33-H ) :   0.9675 B( 18-C , 19-C ) :   1.3249
B( 18-C , 21-H ) :   1.0004 B( 19-C , 20-C ) :   1.4976 B( 19-C , 22-C ) :   1.0683
B( 22-C , 23-H ) :   0.9275 B( 22-C , 24-H ) :   0.9378 B( 22-C , 25-C ) :   1.0456
B( 25-C , 26-H ) :   0.9614 B( 25-C , 27-H ) :   0.9484 B( 25-C , 28-C ) :   1.0840
B( 28-C , 29-H ) :   0.9756 B( 28-C , 30-H ) :   0.9758 B( 28-C , 31-H ) :   0.9743

Dispersion correction           -0.014091541
FINAL SINGLE POINT ENERGY     -1339.864596304564

DIPOLE MOMENT
-------------
                                X             Y             Z
Electronic contribution:    -10.58943      -7.00768      -8.67720
Nuclear contribution   :     10.71451       6.94369       8.83871
                        -----------------------------------------
Total Dipole Moment    :      0.12508      -0.06400       0.16151
                        -----------------------------------------
Magnitude (a.u.)       :      0.21407
Magnitude (Debye)      :      0.54412

Rotational constants in cm-1:     0.021163     0.007728     0.006111
Rotational constants in MHz :   634.442254   231.692448   183.194481

                             ****ORCA TERMINATED NORMALLY****
TOTAL RUN TIME: 0 days 0 hours 0 minutes 31 seconds 933 msec
