                         Program Version 4.2.1 -  RELEASE  -
|  1> ! wB97X-D3 SP def2-SVP
|  2> %pal
|  3> nprocs 16
|  4> end
|  5>
|  6> * xyz 0 1
|  7> S 	 -30.5226 	 62.9803 	 109.969
|  8> C 	 -31.5071 	 62.7204 	 111.401
|  9> C 	 -32.489 	 63.7193 	 111.365
| 10> C 	 -32.3413 	 64.6929 	 110.361
| 11> C 	 -31.261 	 64.5317 	 109.57
| 12> H 	 -32.8637 	 65.5819 	 110.2
| 13> C 	 -33.5991 	 63.8395 	 112.368
| 14> H 	 -33.2112 	 64.4347 	 113.107
| 15> H 	 -33.7492 	 62.8508 	 112.825
| 16> C 	 -34.9844 	 64.3294 	 111.845
| 17> H 	 -35.696 	 64.4546 	 112.675
| 18> H 	 -34.8571 	 65.3415 	 111.331
| 19> C 	 -35.5573 	 63.2269 	 110.987
| 20> H 	 -34.7835 	 62.7771 	 110.418
| 21> H 	 -35.8046 	 62.487 	 111.716
| 22> H 	 -36.4043 	 63.6058 	 110.357
| 23> S 	 -28.9724 	 65.8187 	 108.576
| 24> C 	 -29.1473 	 66.7809 	 107.182
| 25> C 	 -30.3888 	 66.867 	 106.692
| 26> C 	 -31.3527 	 66.1948 	 107.522
| 27> C 	 -30.7217 	 65.4699 	 108.547
| 28> H 	 -30.6058 	 67.3143 	 105.785
| 29> C 	 -32.8584 	 66.3142 	 107.167
| 30> H 	 -33.4245 	 65.5621 	 107.816
| 31> H 	 -33.0044 	 66.0084 	 106.136
| 32> C 	 -33.6149 	 67.64 	 107.384
| 33> H 	 -34.6205 	 67.5148 	 107.006
| 34> H 	 -33.1012 	 68.3628 	 106.674
| 35> C 	 -33.5293 	 68.2057 	 108.806
| 36> H 	 -32.6435 	 68.7898 	 109.067
| 37> H 	 -33.8332 	 67.5195 	 109.565
| 38> H 	 -34.2877 	 68.9277 	 108.923
| 39> H 	 -31.3815 	 61.8333 	 112.059
| 40> H 	 -28.2974 	 67.302 	 106.733
| 41> *
| 42>
| 43>                          ****END OF INPUT****

CARTESIAN COORDINATES (ANGSTROEM)
---------------------------------
  S    -30.522600   62.980300  109.969000
  C    -31.507100   62.720400  111.401000
  C    -32.489000   63.719300  111.365000
  C    -32.341300   64.692900  110.361000
  C    -31.261000   64.531700  109.570000
  H    -32.863700   65.581900  110.200000
  C    -33.599100   63.839500  112.368000
  H    -33.211200   64.434700  113.107000
  H    -33.749200   62.850800  112.825000
  C    -34.984400   64.329400  111.845000
  H    -35.696000   64.454600  112.675000
  H    -34.857100   65.341500  111.331000
  C    -35.557300   63.226900  110.987000
  H    -34.783500   62.777100  110.418000
  H    -35.804600   62.487000  111.716000
  H    -36.404300   63.605800  110.357000
  S    -28.972400   65.818700  108.576000
  C    -29.147300   66.780900  107.182000
  C    -30.388800   66.867000  106.692000
  C    -31.352700   66.194800  107.522000
  C    -30.721700   65.469900  108.547000
  H    -30.605800   67.314300  105.785000
  C    -32.858400   66.314200  107.167000
  H    -33.424500   65.562100  107.816000
  H    -33.004400   66.008400  106.136000
  C    -33.614900   67.640000  107.384000
  H    -34.620500   67.514800  107.006000
  H    -33.101200   68.362800  106.674000
  C    -33.529300   68.205700  108.806000
  H    -32.643500   68.789800  109.067000
  H    -33.833200   67.519500  109.565000
  H    -34.287700   68.927700  108.923000
  H    -31.381500   61.833300  112.059000
  H    -28.297400   67.302000  106.733000

 Total Charge           Charge          ....    0
 Multiplicity           Mult            ....    1
 Number of Electrons    NEL             ....  134
 Basis Dimension        Dim             ....  322

ORBITAL ENERGIES
----------------

  NO   OCC          E(Eh)            E(eV)
   0   2.0000     -88.966577     -2420.9036
   1   2.0000     -88.959640     -2420.7149
   2   2.0000     -10.334324      -281.2112
   3   2.0000     -10.328061      -281.0408
   4   2.0000     -10.318630      -280.7842
   5   2.0000     -10.311296      -280.5846
   6   2.0000     -10.310771      -280.5703
   7   2.0000     -10.300887      -280.3014
   8   2.0000     -10.299165      -280.2545
   9   2.0000     -10.296035      -280.1694
  10   2.0000     -10.291321      -280.0411
  11   2.0000     -10.284633      -279.8591
  12   2.0000     -10.282159      -279.7918
  13   2.0000     -10.281177      -279.7651
  14   2.0000     -10.274652      -279.5875
  15   2.0000     -10.270506      -279.4747
  16   2.0000      -8.081786      -219.9166
  17   2.0000      -8.074189      -219.7099
  18   2.0000      -6.040205      -164.3623
  19   2.0000      -6.036324      -164.2567
  20   2.0000      -6.032727      -164.1589
  21   2.0000      -6.032506      -164.1528
  22   2.0000      -6.028644      -164.0477
  23   2.0000      -6.024994      -163.9484
  24   2.0000      -1.006503       -27.3883
  25   2.0000      -0.988263       -26.8920
  26   2.0000      -0.914057       -24.8727
  27   2.0000      -0.906888       -24.6777
  28   2.0000      -0.869158       -23.6510
  29   2.0000      -0.852575       -23.1997
  30   2.0000      -0.844657       -22.9843
  31   2.0000      -0.820114       -22.3164
  32   2.0000      -0.788993       -21.4696
  33   2.0000      -0.769796       -20.9472
  34   2.0000      -0.709761       -19.3136
  35   2.0000      -0.693934       -18.8829
  36   2.0000      -0.688533       -18.7359
  37   2.0000      -0.658713       -17.9245
  38   2.0000      -0.643746       -17.5172
  39   2.0000      -0.625216       -17.0130
  40   2.0000      -0.596319       -16.2267
  41   2.0000      -0.565912       -15.3993
  42   2.0000      -0.561748       -15.2859
  43   2.0000      -0.552135       -15.0244
  44   2.0000      -0.551530       -15.0079
  45   2.0000      -0.539245       -14.6736
  46   2.0000      -0.522760       -14.2250
  47   2.0000      -0.514539       -14.0013
  48   2.0000      -0.501798       -13.6546
  49   2.0000      -0.495447       -13.4818
  50   2.0000      -0.487298       -13.2601
  51   2.0000      -0.482036       -13.1169
  52   2.0000      -0.471408       -12.8277
  53   2.0000      -0.466570       -12.6960
  54   2.0000      -0.456931       -12.4337
  55   2.0000      -0.453615       -12.3435
  56   2.0000      -0.440428       -11.9847
  57   2.0000      -0.436674       -11.8825
  58   2.0000      -0.433885       -11.8066
  59   2.0000      -0.425987       -11.5917
  60   2.0000      -0.420172       -11.4335
  61   2.0000      -0.411042       -11.1850
  62   2.0000      -0.405590       -11.0367
  63   2.0000      -0.351075        -9.5532
  64   2.0000      -0.333189        -9.0665
  65   2.0000      -0.325088        -8.8461
  66   2.0000      -0.292301        -7.9539
  67   0.0000       0.030253         0.8232
  68   0.0000       0.075451         2.0531
  69   0.0000       0.116660         3.1745
  70   0.0000       0.121567         3.3080
  71   0.0000       0.125963         3.4276

MULLIKEN ATOMIC CHARGES
-----------------------
   0 S :    0.089977
   1 C :   -0.147540
   2 C :   -0.094069
   3 C :    0.080652
   4 C :   -0.133982
   5 H :   -0.057992
   6 C :    0.081464
   7 H :    0.023500
   8 H :    0.008503
   9 C :   -0.108295
  10 H :    0.033442
  11 H :    0.041456
  12 C :   -0.018642
  13 H :    0.030919
  14 H :    0.015224
  15 H :    0.048964
  16 S :    0.119829
  17 C :   -0.080137
  18 C :   -0.004410
  19 C :   -0.015562
  20 C :   -0.175523
  21 H :   -0.009818
  22 C :    0.017914
  23 H :    0.029063
  24 H :    0.034080
  25 C :   -0.070714
  26 H :    0.037521
  27 H :    0.028692
  28 C :   -0.017164
  29 H :    0.049866
  30 H :    0.023573
  31 H :    0.006992
  32 H :    0.072850
  33 H :    0.059366
Sum of atomic charges:   -0.0000000

LOEWDIN ATOMIC CHARGES
----------------------
   0 S :    0.389663
   1 C :   -0.206748
   2 C :   -0.062867
   3 C :   -0.069578
   4 C :   -0.177137
   5 H :    0.018498
   6 C :   -0.028665
   7 H :    0.021661
   8 H :    0.028270
   9 C :   -0.043080
  10 H :    0.025872
  11 H :    0.022922
  12 C :   -0.062325
  13 H :    0.020933
  14 H :    0.024332
  15 H :    0.032913
  16 S :    0.413649
  17 C :   -0.190593
  18 C :   -0.068953
  19 C :   -0.045923
  20 C :   -0.189203
  21 H :    0.021000
  22 C :   -0.038985
  23 H :    0.032308
  24 H :    0.031040
  25 C :   -0.038861
  26 H :    0.026932
  27 H :    0.027538
  28 C :   -0.069721
  29 H :    0.036310
  30 H :    0.020357
  31 H :    0.025086
  32 H :    0.041180
  33 H :    0.032175

  Mayer bond orders larger than 0.100000
B(  0-S ,  1-C ) :   1.1323 B(  0-S ,  4-C ) :   1.1589 B(  1-C ,  2-C ) :   1.5706
B(  1-C ,  4-C ) :   0.1007 B(  1-C , 32-H ) :   0.9736 B(  2-C ,  3-C ) :   1.2321
B(  2-C ,  6-C ) :   1.0137 B(  3-C ,  4-C ) :   1.5845 B(  3-C ,  5-H ) :   1.0057
B(  4-C , 20-C ) :   1.0254 B(  6-C ,  7-H ) :   0.9321 B(  6-C ,  8-H ) :   0.9415
B(  6-C ,  9-C ) :   1.0790 B(  9-C , 10-H ) :   0.9588 B(  9-C , 11-H ) :   0.9520
B(  9-C , 12-C ) :   1.0569 B( 12-C , 13-H ) :   0.9800 B( 12-C , 14-H ) :   0.9706
B( 12-C , 15-H ) :   0.9727 B( 16-S , 17-C ) :   1.1565 B( 16-S , 20-C ) :   1.1404
B( 17-C , 18-C ) :   1.6250 B( 17-C , 33-H ) :   0.9599 B( 18-C , 19-C ) :   1.2212
B( 18-C , 21-H ) :   1.0043 B( 19-C , 20-C ) :   1.6045 B( 19-C , 22-C ) :   1.0346
B( 22-C , 23-H ) :   0.9366 B( 22-C , 24-H ) :   0.9386 B( 22-C , 25-C ) :   1.0799
B( 25-C , 26-H ) :   0.9557 B( 25-C , 27-H ) :   0.9507 B( 25-C , 28-C ) :   1.0788
B( 28-C , 29-H ) :   0.9712 B( 28-C , 30-H ) :   0.9683 B( 28-C , 31-H ) :   0.9599

Dispersion correction           -0.015204923
FINAL SINGLE POINT ENERGY     -1339.867472819012

DIPOLE MOMENT
-------------
                                X             Y             Z
Electronic contribution:     28.05695      -7.82335      -3.70675
Nuclear contribution   :    -28.64328       8.24960       3.66140
                        -----------------------------------------
Total Dipole Moment    :     -0.58633       0.42625      -0.04535
                        -----------------------------------------
Magnitude (a.u.)       :      0.72632
Magnitude (Debye)      :      1.84615

Rotational constants in cm-1:     0.018215     0.010223     0.007184
Rotational constants in MHz :   546.071013   306.476189   215.358336

                             ****ORCA TERMINATED NORMALLY****
TOTAL RUN TIME: 0 days 0 hours 0 minutes 27 seconds 334 msec
