                         Program Version 4.2.1 -  RELEASE  -
|  1> ! wB97X-D3 SP def2-SVP
|  2> %pal
|  3> nprocs 16
|  4> end
|  5>
|  6> * xyz 0 1
|  7> S 	 -2.47356 	 76.6437 	 54.116
|  8> C 	 -1.36635 	 75.2663 	 54.4887
|  9> C 	 -1.9154 	 74.0543 	 54.0415
| 10> C 	 -3.07648 	 74.3044 	 53.2646
| 11> C 	 -3.27191 	 75.6635 	 52.9987
| 12> H 	 -3.76448 	 73.5563 	 52.7601
| 13> C 	 -1.50104 	 72.6059 	 54.298
| 14> H 	 -2.36338 	 72.0281 	 54.0125
| 15> H 	 -1.30239 	 72.4607 	 55.369
| 16> C 	 -0.329727 	 72.1208 	 53.4927
| 17> H 	 -0.348933 	 72.4848 	 52.4688
| 18> H 	 0.622919 	 72.4248 	 53.8581
| 19> C 	 -0.230641 	 70.5578 	 53.493
| 20> H 	 0.149323 	 70.0692 	 54.3937
| 21> H 	 -1.19523 	 69.9571 	 53.3503
| 22> H 	 0.297761 	 70.2587 	 52.6178
| 23> S 	 -5.55717 	 76.9171 	 52.1893
| 24> C 	 -6.00091 	 76.8504 	 50.4656
| 25> C 	 -4.96503 	 76.3247 	 49.7482
| 26> C 	 -3.81587 	 75.9845 	 50.5802
| 27> C 	 -4.04235 	 76.1746 	 51.8994
| 28> H 	 -4.96261 	 76.4741 	 48.7049
| 29> C 	 -2.56522 	 75.4981 	 50.0134
| 30> H 	 -2.81855 	 74.7311 	 49.272
| 31> H 	 -1.9931 	 74.9706 	 50.8005
| 32> C 	 -1.80196 	 76.6061 	 49.3687
| 33> H 	 -2.3591 	 77.0804 	 48.5587
| 34> H 	 -0.955146 	 75.9681 	 48.9891
| 35> C 	 -1.24506 	 77.5866 	 50.4078
| 36> H 	 -1.94835 	 78.3114 	 50.8294
| 37> H 	 -0.366932 	 78.1846 	 50.0601
| 38> H 	 -0.918711 	 77.0201 	 51.3261
| 39> H 	 -0.51703 	 75.2269 	 55.1699
| 40> H 	 -6.80959 	 77.3862 	 50.0273
| 41> *
| 42>
| 43>                          ****END OF INPUT****

CARTESIAN COORDINATES (ANGSTROEM)
---------------------------------
  S     -2.473560   76.643700   54.116000
  C     -1.366350   75.266300   54.488700
  C     -1.915400   74.054300   54.041500
  C     -3.076480   74.304400   53.264600
  C     -3.271910   75.663500   52.998700
  H     -3.764480   73.556300   52.760100
  C     -1.501040   72.605900   54.298000
  H     -2.363380   72.028100   54.012500
  H     -1.302390   72.460700   55.369000
  C     -0.329727   72.120800   53.492700
  H     -0.348933   72.484800   52.468800
  H      0.622919   72.424800   53.858100
  C     -0.230641   70.557800   53.493000
  H      0.149323   70.069200   54.393700
  H     -1.195230   69.957100   53.350300
  H      0.297761   70.258700   52.617800
  S     -5.557170   76.917100   52.189300
  C     -6.000910   76.850400   50.465600
  C     -4.965030   76.324700   49.748200
  C     -3.815870   75.984500   50.580200
  C     -4.042350   76.174600   51.899400
  H     -4.962610   76.474100   48.704900
  C     -2.565220   75.498100   50.013400
  H     -2.818550   74.731100   49.272000
  H     -1.993100   74.970600   50.800500
  C     -1.801960   76.606100   49.368700
  H     -2.359100   77.080400   48.558700
  H     -0.955146   75.968100   48.989100
  C     -1.245060   77.586600   50.407800
  H     -1.948350   78.311400   50.829400
  H     -0.366932   78.184600   50.060100
  H     -0.918711   77.020100   51.326100
  H     -0.517030   75.226900   55.169900
  H     -6.809590   77.386200   50.027300

 Total Charge           Charge          ....    0
 Multiplicity           Mult            ....    1
 Number of Electrons    NEL             ....  134
 Basis Dimension        Dim             ....  322

ORBITAL ENERGIES
----------------

  NO   OCC          E(Eh)            E(eV)
   0   2.0000     -88.970661     -2421.0148
   1   2.0000     -88.958471     -2420.6831
   2   2.0000     -10.322556      -280.8910
   3   2.0000     -10.319295      -280.8023
   4   2.0000     -10.316569      -280.7281
   5   2.0000     -10.314021      -280.6588
   6   2.0000     -10.305007      -280.4135
   7   2.0000     -10.297230      -280.2019
   8   2.0000     -10.294232      -280.1203
   9   2.0000     -10.292881      -280.0835
  10   2.0000     -10.290995      -280.0322
  11   2.0000     -10.288430      -279.9624
  12   2.0000     -10.286113      -279.8994
  13   2.0000     -10.282896      -279.8118
  14   2.0000     -10.279858      -279.7292
  15   2.0000     -10.275876      -279.6208
  16   2.0000      -8.085339      -220.0132
  17   2.0000      -8.073928      -219.7027
  18   2.0000      -6.043725      -164.4581
  19   2.0000      -6.040087      -164.3591
  20   2.0000      -6.035978      -164.2473
  21   2.0000      -6.032576      -164.1547
  22   2.0000      -6.028325      -164.0391
  23   2.0000      -6.024516      -163.9354
  24   2.0000      -1.013270       -27.5725
  25   2.0000      -0.985901       -26.8277
  26   2.0000      -0.918072       -24.9820
  27   2.0000      -0.916528       -24.9400
  28   2.0000      -0.871770       -23.7221
  29   2.0000      -0.849856       -23.1257
  30   2.0000      -0.840029       -22.8584
  31   2.0000      -0.809723       -22.0337
  32   2.0000      -0.784890       -21.3579
  33   2.0000      -0.771746       -21.0003
  34   2.0000      -0.710260       -19.3272
  35   2.0000      -0.703654       -19.1474
  36   2.0000      -0.693810       -18.8795
  37   2.0000      -0.660255       -17.9665
  38   2.0000      -0.637749       -17.3540
  39   2.0000      -0.615534       -16.7495
  40   2.0000      -0.601054       -16.3555
  41   2.0000      -0.571213       -15.5435
  42   2.0000      -0.565240       -15.3810
  43   2.0000      -0.552615       -15.0374
  44   2.0000      -0.536930       -14.6106
  45   2.0000      -0.525968       -14.3123
  46   2.0000      -0.521711       -14.1965
  47   2.0000      -0.512680       -13.9507
  48   2.0000      -0.504690       -13.7333
  49   2.0000      -0.500153       -13.6099
  50   2.0000      -0.490950       -13.3594
  51   2.0000      -0.475246       -12.9321
  52   2.0000      -0.465876       -12.6771
  53   2.0000      -0.462628       -12.5888
  54   2.0000      -0.453623       -12.3437
  55   2.0000      -0.450369       -12.2552
  56   2.0000      -0.439993       -11.9728
  57   2.0000      -0.437330       -11.9003
  58   2.0000      -0.430212       -11.7067
  59   2.0000      -0.424443       -11.5497
  60   2.0000      -0.424104       -11.5405
  61   2.0000      -0.422262       -11.4903
  62   2.0000      -0.402557       -10.9541
  63   2.0000      -0.339318        -9.2333
  64   2.0000      -0.332527        -9.0485
  65   2.0000      -0.316846        -8.6218
  66   2.0000      -0.299874        -8.1600
  67   0.0000       0.029711         0.8085
  68   0.0000       0.061507         1.6737
  69   0.0000       0.095574         2.6007
  70   0.0000       0.118543         3.2257
  71   0.0000       0.129649         3.5279

MULLIKEN ATOMIC CHARGES
-----------------------
   0 S :    0.132118
   1 C :   -0.117412
   2 C :   -0.112159
   3 C :    0.026470
   4 C :   -0.204895
   5 H :    0.042294
   6 C :    0.097786
   7 H :    0.016985
   8 H :    0.037484
   9 C :   -0.042016
  10 H :    0.030343
  11 H :    0.022790
  12 C :   -0.084308
  13 H :    0.038459
  14 H :    0.024043
  15 H :    0.029174
  16 S :    0.087327
  17 C :   -0.086100
  18 C :   -0.009808
  19 C :   -0.062677
  20 C :   -0.135183
  21 H :    0.011593
  22 C :    0.051794
  23 H :    0.020778
  24 H :    0.034586
  25 C :   -0.046050
  26 H :    0.035468
  27 H :    0.035404
  28 C :   -0.078309
  29 H :    0.041566
  30 H :    0.040577
  31 H :    0.029572
  32 H :    0.040010
  33 H :    0.052294
Sum of atomic charges:   -0.0000000

LOEWDIN ATOMIC CHARGES
----------------------
   0 S :    0.422320
   1 C :   -0.194450
   2 C :   -0.059925
   3 C :   -0.065655
   4 C :   -0.215930
   5 H :    0.043019
   6 C :   -0.026789
   7 H :    0.030561
   8 H :    0.035345
   9 C :   -0.034017
  10 H :    0.026279
  11 H :    0.022433
  12 C :   -0.075343
  13 H :    0.025091
  14 H :    0.028610
  15 H :    0.023041
  16 S :    0.393032
  17 C :   -0.164532
  18 C :   -0.064653
  19 C :   -0.054574
  20 C :   -0.220107
  21 H :    0.024851
  22 C :   -0.041671
  23 H :    0.031157
  24 H :    0.033337
  25 C :   -0.039388
  26 H :    0.023674
  27 H :    0.034918
  28 C :   -0.076846
  29 H :    0.025413
  30 H :    0.029053
  31 H :    0.028868
  32 H :    0.027016
  33 H :    0.025860

  Mayer bond orders larger than 0.100000
B(  0-S ,  1-C ) :   1.1242 B(  0-S ,  4-C ) :   1.1789 B(  1-C ,  2-C ) :   1.6021
B(  1-C ,  4-C ) :   0.1110 B(  1-C , 32-H ) :   0.9706 B(  2-C ,  3-C ) :   1.2488
B(  2-C ,  6-C ) :   1.0195 B(  3-C ,  4-C ) :   1.5520 B(  3-C ,  5-H ) :   0.9851
B(  4-C , 20-C ) :   0.9982 B(  6-C ,  7-H ) :   0.9426 B(  6-C ,  8-H ) :   0.9337
B(  6-C ,  9-C ) :   1.0730 B(  9-C , 10-H ) :   0.9584 B(  9-C , 11-H ) :   0.9505
B(  9-C , 12-C ) :   1.0719 B( 12-C , 13-H ) :   0.9780 B( 12-C , 14-H ) :   0.9756
B( 12-C , 15-H ) :   0.9769 B( 16-S , 17-C ) :   1.1411 B( 16-S , 20-C ) :   1.1215
B( 17-C , 18-C ) :   1.6438 B( 17-C , 33-H ) :   0.9685 B( 18-C , 19-C ) :   1.2074
B( 18-C , 21-H ) :   0.9870 B( 19-C , 20-C ) :   1.6457 B( 19-C , 22-C ) :   1.0577
B( 22-C , 23-H ) :   0.9231 B( 22-C , 24-H ) :   0.9253 B( 22-C , 25-C ) :   1.0786
B( 25-C , 26-H ) :   0.9564 B( 25-C , 27-H ) :   0.9513 B( 25-C , 28-C ) :   1.0649
B( 28-C , 29-H ) :   0.9726 B( 28-C , 30-H ) :   0.9752 B( 28-C , 31-H ) :   0.9702

Dispersion correction           -0.015789262
FINAL SINGLE POINT ENERGY     -1339.854995653107

DIPOLE MOMENT
-------------
                                X             Y             Z
Electronic contribution:    -18.89096      16.89984       8.14177
Nuclear contribution   :     19.23244     -17.37950      -8.47320
                        -----------------------------------------
Total Dipole Moment    :      0.34148      -0.47966      -0.33143
                        -----------------------------------------
Magnitude (a.u.)       :      0.67567
Magnitude (Debye)      :      1.71741

Rotational constants in cm-1:     0.020488     0.008466     0.007795
Rotational constants in MHz :   614.214860   253.797965   233.675106

                             ****ORCA TERMINATED NORMALLY****
TOTAL RUN TIME: 0 days 0 hours 0 minutes 36 seconds 808 msec
