                         Program Version 4.2.1 -  RELEASE  -
|  1> ! wB97X-D3 SP def2-SVP
|  2> %pal
|  3> nprocs 16
|  4> end
|  5>
|  6> * xyz 0 1
|  7> S 	 43.3663 	 10.3954 	 50.6394
|  8> C 	 41.6659 	 10.6744 	 50.2739
|  9> C 	 41.3248 	 11.9912 	 50.3912
| 10> C 	 42.3568 	 12.8386 	 50.7026
| 11> C 	 43.5539 	 12.1474 	 50.9067
| 12> H 	 42.2173 	 13.9101 	 50.8153
| 13> C 	 39.8537 	 12.5052 	 50.2386
| 14> H 	 39.6928 	 13.5236 	 50.6095
| 15> H 	 39.142 	 11.857 	 50.7764
| 16> C 	 39.4545 	 12.4373 	 48.7027
| 17> H 	 40.0415 	 13.1093 	 48.1066
| 18> H 	 39.5859 	 11.3918 	 48.343
| 19> C 	 38.1124 	 13.0298 	 48.3914
| 20> H 	 37.966 	 12.7994 	 47.3334
| 21> H 	 37.3583 	 12.4816 	 49.0315
| 22> H 	 38.0718 	 14.1471 	 48.5203
| 23> S 	 45.1445 	 14.2848 	 50.4374
| 24> C 	 46.5515 	 14.5345 	 51.3931
| 25> C 	 46.7532 	 13.6145 	 52.3562
| 26> C 	 45.7265 	 12.6332 	 52.3448
| 27> C 	 44.7749 	 12.8903 	 51.3652
| 28> H 	 47.6586 	 13.6188 	 53.0417
| 29> C 	 45.7153 	 11.5785 	 53.4206
| 30> H 	 46.6868 	 11.1149 	 53.4802
| 31> H 	 45.1108 	 10.7417 	 53.0633
| 32> C 	 45.1324 	 11.9986 	 54.7762
| 33> H 	 45.5243 	 12.9062 	 55.2401
| 34> H 	 45.3948 	 11.1712 	 55.4736
| 35> C 	 43.5945 	 12.1819 	 54.6732
| 36> H 	 43.3615 	 12.9145 	 53.9219
| 37> H 	 42.9955 	 12.6165 	 55.5457
| 38> H 	 43.0389 	 11.3077 	 54.4321
| 39> H 	 40.9616 	 9.92236 	 50.1157
| 40> H 	 47.2068 	 15.3793 	 51.2724
| 41> *
| 42>
| 43>                          ****END OF INPUT****

CARTESIAN COORDINATES (ANGSTROEM)
---------------------------------
  S     43.366300   10.395400   50.639400
  C     41.665900   10.674400   50.273900
  C     41.324800   11.991200   50.391200
  C     42.356800   12.838600   50.702600
  C     43.553900   12.147400   50.906700
  H     42.217300   13.910100   50.815300
  C     39.853700   12.505200   50.238600
  H     39.692800   13.523600   50.609500
  H     39.142000   11.857000   50.776400
  C     39.454500   12.437300   48.702700
  H     40.041500   13.109300   48.106600
  H     39.585900   11.391800   48.343000
  C     38.112400   13.029800   48.391400
  H     37.966000   12.799400   47.333400
  H     37.358300   12.481600   49.031500
  H     38.071800   14.147100   48.520300
  S     45.144500   14.284800   50.437400
  C     46.551500   14.534500   51.393100
  C     46.753200   13.614500   52.356200
  C     45.726500   12.633200   52.344800
  C     44.774900   12.890300   51.365200
  H     47.658600   13.618800   53.041700
  C     45.715300   11.578500   53.420600
  H     46.686800   11.114900   53.480200
  H     45.110800   10.741700   53.063300
  C     45.132400   11.998600   54.776200
  H     45.524300   12.906200   55.240100
  H     45.394800   11.171200   55.473600
  C     43.594500   12.181900   54.673200
  H     43.361500   12.914500   53.921900
  H     42.995500   12.616500   55.545700
  H     43.038900   11.307700   54.432100
  H     40.961600    9.922360   50.115700
  H     47.206800   15.379300   51.272400

 Total Charge           Charge          ....    0
 Multiplicity           Mult            ....    1
 Number of Electrons    NEL             ....  134
 Basis Dimension        Dim             ....  322

ORBITAL ENERGIES
----------------

  NO   OCC          E(Eh)            E(eV)
   0   2.0000     -88.974102     -2421.1084
   1   2.0000     -88.966051     -2420.8893
   2   2.0000     -10.335763      -281.2504
   3   2.0000     -10.324574      -280.9459
   4   2.0000     -10.307669      -280.4859
   5   2.0000     -10.307258      -280.4747
   6   2.0000     -10.298873      -280.2466
   7   2.0000     -10.297655      -280.2134
   8   2.0000     -10.295201      -280.1467
   9   2.0000     -10.291583      -280.0482
  10   2.0000     -10.290045      -280.0064
  11   2.0000     -10.289731      -279.9978
  12   2.0000     -10.287782      -279.9448
  13   2.0000     -10.284728      -279.8617
  14   2.0000     -10.283088      -279.8170
  15   2.0000     -10.269860      -279.4571
  16   2.0000      -8.087288      -220.0663
  17   2.0000      -8.081899      -219.9197
  18   2.0000      -6.045827      -164.5153
  19   2.0000      -6.042090      -164.4136
  20   2.0000      -6.040257      -164.3638
  21   2.0000      -6.038046      -164.3036
  22   2.0000      -6.036324      -164.2567
  23   2.0000      -6.032689      -164.1578
  24   2.0000      -1.010665       -27.5016
  25   2.0000      -0.989285       -26.9198
  26   2.0000      -0.907391       -24.6914
  27   2.0000      -0.905281       -24.6339
  28   2.0000      -0.868737       -23.6395
  29   2.0000      -0.856001       -23.2930
  30   2.0000      -0.843133       -22.9428
  31   2.0000      -0.812153       -22.0998
  32   2.0000      -0.780195       -21.2302
  33   2.0000      -0.768311       -20.9068
  34   2.0000      -0.707016       -19.2389
  35   2.0000      -0.694606       -18.9012
  36   2.0000      -0.685259       -18.6468
  37   2.0000      -0.663063       -18.0429
  38   2.0000      -0.637855       -17.3569
  39   2.0000      -0.617154       -16.7936
  40   2.0000      -0.599496       -16.3131
  41   2.0000      -0.570473       -15.5234
  42   2.0000      -0.561792       -15.2871
  43   2.0000      -0.546658       -14.8753
  44   2.0000      -0.534732       -14.5508
  45   2.0000      -0.522732       -14.2243
  46   2.0000      -0.515725       -14.0336
  47   2.0000      -0.505727       -13.7615
  48   2.0000      -0.501635       -13.6502
  49   2.0000      -0.493965       -13.4415
  50   2.0000      -0.484628       -13.1874
  51   2.0000      -0.477606       -12.9963
  52   2.0000      -0.474377       -12.9084
  53   2.0000      -0.466437       -12.6924
  54   2.0000      -0.456984       -12.4352
  55   2.0000      -0.451110       -12.2753
  56   2.0000      -0.446688       -12.1550
  57   2.0000      -0.434316       -11.8184
  58   2.0000      -0.433607       -11.7990
  59   2.0000      -0.421994       -11.4830
  60   2.0000      -0.418427       -11.3860
  61   2.0000      -0.413820       -11.2606
  62   2.0000      -0.408542       -11.1170
  63   2.0000      -0.347861        -9.4658
  64   2.0000      -0.338062        -9.1991
  65   2.0000      -0.331671        -9.0252
  66   2.0000      -0.288478        -7.8499
  67   0.0000       0.030012         0.8167
  68   0.0000       0.077239         2.1018
  69   0.0000       0.106857         2.9077
  70   0.0000       0.116169         3.1611
  71   0.0000       0.135048         3.6748

MULLIKEN ATOMIC CHARGES
-----------------------
   0 S :    0.123814
   1 C :   -0.119814
   2 C :   -0.031489
   3 C :   -0.015372
   4 C :   -0.104179
   5 H :    0.018675
   6 C :    0.058874
   7 H :    0.020378
   8 H :    0.031802
   9 C :   -0.107773
  10 H :    0.022826
  11 H :    0.038984
  12 C :   -0.055833
  13 H :    0.037983
  14 H :    0.030435
  15 H :    0.046550
  16 S :    0.120279
  17 C :   -0.081281
  18 C :   -0.049964
  19 C :   -0.070011
  20 C :   -0.174570
  21 H :    0.041817
  22 C :    0.083105
  23 H :    0.021744
  24 H :    0.004408
  25 C :   -0.036127
  26 H :    0.031484
  27 H :    0.034761
  28 C :   -0.073337
  29 H :    0.030601
  30 H :    0.031501
  31 H :    0.023766
  32 H :    0.021444
  33 H :    0.044520
Sum of atomic charges:   -0.0000000

LOEWDIN ATOMIC CHARGES
----------------------
   0 S :    0.401255
   1 C :   -0.190684
   2 C :   -0.059986
   3 C :   -0.071480
   4 C :   -0.178535
   5 H :    0.032634
   6 C :   -0.024956
   7 H :    0.026463
   8 H :    0.029220
   9 C :   -0.046316
  10 H :    0.022162
  11 H :    0.025988
  12 C :   -0.071477
  13 H :    0.029274
  14 H :    0.024070
  15 H :    0.030495
  16 S :    0.438906
  17 C :   -0.193614
  18 C :   -0.075832
  19 C :   -0.065178
  20 C :   -0.205669
  21 H :    0.045635
  22 C :   -0.034553
  23 H :    0.030095
  24 H :    0.025049
  25 C :   -0.034735
  26 H :    0.024058
  27 H :    0.028699
  28 C :   -0.075282
  29 H :    0.024240
  30 H :    0.032256
  31 H :    0.018618
  32 H :    0.014549
  33 H :    0.024630

  Mayer bond orders larger than 0.100000
B(  0-S ,  1-C ) :   1.1293 B(  0-S ,  4-C ) :   1.1553 B(  1-C ,  2-C ) :   1.5987
B(  1-C , 32-H ) :   0.9708 B(  2-C ,  3-C ) :   1.2990 B(  2-C ,  6-C ) :   1.0117
B(  3-C ,  4-C ) :   1.5182 B(  3-C ,  5-H ) :   0.9900 B(  4-C , 20-C ) :   1.0220
B(  6-C ,  7-H ) :   0.9501 B(  6-C ,  8-H ) :   0.9436 B(  6-C ,  9-C ) :   1.0530
B(  9-C , 10-H ) :   0.9584 B(  9-C , 11-H ) :   0.9598 B(  9-C , 12-C ) :   1.0805
B( 12-C , 13-H ) :   0.9725 B( 12-C , 14-H ) :   0.9717 B( 12-C , 15-H ) :   0.9748
B( 16-S , 17-C ) :   1.1557 B( 16-S , 20-C ) :   1.1602 B( 17-C , 18-C ) :   1.6215
B( 17-C , 33-H ) :   0.9649 B( 18-C , 19-C ) :   1.2416 B( 18-C , 21-H ) :   0.9820
B( 19-C , 20-C ) :   1.5933 B( 19-C , 22-C ) :   1.0524 B( 22-C , 23-H ) :   0.9292
B( 22-C , 24-H ) :   0.9260 B( 22-C , 25-C ) :   1.0636 B( 25-C , 26-H ) :   0.9616
B( 25-C , 27-H ) :   0.9551 B( 25-C , 28-C ) :   1.0613 B( 28-C , 29-H ) :   0.9761
B( 28-C , 30-H ) :   0.9748 B( 28-C , 31-H ) :   0.9767

Dispersion correction           -0.014984009
FINAL SINGLE POINT ENERGY     -1339.879250925082

DIPOLE MOMENT
-------------
                                X             Y             Z
Electronic contribution:     17.77827      -0.45537      -6.72743
Nuclear contribution   :    -17.98913       0.57790       6.90558
                        -----------------------------------------
Total Dipole Moment    :     -0.21086       0.12253       0.17814
                        -----------------------------------------
Magnitude (a.u.)       :      0.30201
Magnitude (Debye)      :      0.76765

Rotational constants in cm-1:     0.022628     0.007765     0.006831
Rotational constants in MHz :   678.371470   232.794830   204.795745

                             ****ORCA TERMINATED NORMALLY****
TOTAL RUN TIME: 0 days 0 hours 0 minutes 35 seconds 41 msec
