                         Program Version 4.2.1 -  RELEASE  -
|  1> ! wB97X-D3 SP def2-SVP
|  2> %pal
|  3> nprocs 16
|  4> end
|  5>
|  6> * xyz 0 1
|  7> S 	 -19.5868 	 -0.0527195 	 78.2526
|  8> C 	 -18.2903 	 -0.62736 	 77.25
|  9> C 	 -18.7664 	 -1.20561 	 76.0634
| 10> C 	 -20.2037 	 -1.34983 	 76.1128
| 11> C 	 -20.7575 	 -0.873834 	 77.2819
| 12> H 	 -20.8213 	 -1.84333 	 75.398
| 13> C 	 -18.049 	 -1.66607 	 74.7802
| 14> H 	 -17.0437 	 -1.35434 	 74.7944
| 15> H 	 -18.5727 	 -1.30704 	 73.8929
| 16> C 	 -17.9151 	 -3.22731 	 74.6619
| 17> H 	 -18.9027 	 -3.66481 	 74.5078
| 18> H 	 -17.2487 	 -3.40486 	 73.7785
| 19> C 	 -17.1396 	 -3.88382 	 75.8006
| 20> H 	 -16.2704 	 -3.27907 	 76.0346
| 21> H 	 -17.7674 	 -3.83099 	 76.7238
| 22> H 	 -16.8019 	 -4.95115 	 75.6455
| 23> S 	 -22.8994 	 0.607245 	 78.3385
| 24> C 	 -24.4439 	 -0.10213 	 78.3074
| 25> C 	 -24.4827 	 -1.38228 	 77.8058
| 26> C 	 -23.1867 	 -1.87851 	 77.3938
| 27> C 	 -22.1846 	 -0.913257 	 77.6591
| 28> H 	 -25.4273 	 -1.87772 	 77.7135
| 29> C 	 -22.9437 	 -3.35696 	 76.9158
| 30> H 	 -22.5026 	 -3.36571 	 75.9369
| 31> H 	 -23.9193 	 -3.79812 	 76.7594
| 32> C 	 -22.0838 	 -4.15952 	 77.8968
| 33> H 	 -22.6133 	 -4.19647 	 78.8399
| 34> H 	 -21.1116 	 -3.6122 	 77.9806
| 35> C 	 -21.727 	 -5.64683 	 77.6
| 36> H 	 -21.1188 	 -5.75013 	 76.693
| 37> H 	 -22.6047 	 -6.17625 	 77.2476
| 38> H 	 -21.1245 	 -6.19901 	 78.3595
| 39> H 	 -17.3131 	 -0.290406 	 77.3939
| 40> H 	 -25.303 	 0.440891 	 78.7595
| 41> *
| 42>
| 43>                          ****END OF INPUT****

CARTESIAN COORDINATES (ANGSTROEM)
---------------------------------
  S    -19.586800   -0.052719   78.252600
  C    -18.290300   -0.627360   77.250000
  C    -18.766400   -1.205610   76.063400
  C    -20.203700   -1.349830   76.112800
  C    -20.757500   -0.873834   77.281900
  H    -20.821300   -1.843330   75.398000
  C    -18.049000   -1.666070   74.780200
  H    -17.043700   -1.354340   74.794400
  H    -18.572700   -1.307040   73.892900
  C    -17.915100   -3.227310   74.661900
  H    -18.902700   -3.664810   74.507800
  H    -17.248700   -3.404860   73.778500
  C    -17.139600   -3.883820   75.800600
  H    -16.270400   -3.279070   76.034600
  H    -17.767400   -3.830990   76.723800
  H    -16.801900   -4.951150   75.645500
  S    -22.899400    0.607245   78.338500
  C    -24.443900   -0.102130   78.307400
  C    -24.482700   -1.382280   77.805800
  C    -23.186700   -1.878510   77.393800
  C    -22.184600   -0.913257   77.659100
  H    -25.427300   -1.877720   77.713500
  C    -22.943700   -3.356960   76.915800
  H    -22.502600   -3.365710   75.936900
  H    -23.919300   -3.798120   76.759400
  C    -22.083800   -4.159520   77.896800
  H    -22.613300   -4.196470   78.839900
  H    -21.111600   -3.612200   77.980600
  C    -21.727000   -5.646830   77.600000
  H    -21.118800   -5.750130   76.693000
  H    -22.604700   -6.176250   77.247600
  H    -21.124500   -6.199010   78.359500
  H    -17.313100   -0.290406   77.393900
  H    -25.303000    0.440891   78.759500

 Total Charge           Charge          ....    0
 Multiplicity           Mult            ....    1
 Number of Electrons    NEL             ....  134
 Basis Dimension        Dim             ....  322

ORBITAL ENERGIES
----------------

  NO   OCC          E(Eh)            E(eV)
   0   2.0000     -88.967072     -2420.9171
   1   2.0000     -88.966892     -2420.9122
   2   2.0000     -10.334498      -281.2160
   3   2.0000     -10.329178      -281.0712
   4   2.0000     -10.317469      -280.7526
   5   2.0000     -10.315147      -280.6894
   6   2.0000     -10.313159      -280.6353
   7   2.0000     -10.308424      -280.5065
   8   2.0000     -10.298416      -280.2341
   9   2.0000     -10.295823      -280.1636
  10   2.0000     -10.295442      -280.1532
  11   2.0000     -10.291802      -280.0542
  12   2.0000     -10.291466      -280.0450
  13   2.0000     -10.287217      -279.9294
  14   2.0000     -10.280666      -279.7511
  15   2.0000     -10.280093      -279.7355
  16   2.0000      -8.082334      -219.9315
  17   2.0000      -8.082061      -219.9241
  18   2.0000      -6.040876      -164.3806
  19   2.0000      -6.040501      -164.3704
  20   2.0000      -6.036781      -164.2691
  21   2.0000      -6.036596      -164.2641
  22   2.0000      -6.033003      -164.1664
  23   2.0000      -6.032822      -164.1614
  24   2.0000      -1.005217       -27.3533
  25   2.0000      -0.982880       -26.7455
  26   2.0000      -0.909313       -24.7437
  27   2.0000      -0.904026       -24.5998
  28   2.0000      -0.864523       -23.5249
  29   2.0000      -0.850617       -23.1465
  30   2.0000      -0.843989       -22.9661
  31   2.0000      -0.809347       -22.0234
  32   2.0000      -0.786103       -21.3910
  33   2.0000      -0.775073       -21.0908
  34   2.0000      -0.704423       -19.1683
  35   2.0000      -0.694258       -18.8917
  36   2.0000      -0.687632       -18.7114
  37   2.0000      -0.660010       -17.9598
  38   2.0000      -0.642626       -17.4868
  39   2.0000      -0.624190       -16.9851
  40   2.0000      -0.595295       -16.1988
  41   2.0000      -0.567020       -15.4294
  42   2.0000      -0.559907       -15.2358
  43   2.0000      -0.554594       -15.0913
  44   2.0000      -0.538287       -14.6475
  45   2.0000      -0.521313       -14.1857
  46   2.0000      -0.515429       -14.0255
  47   2.0000      -0.508293       -13.8314
  48   2.0000      -0.501279       -13.6405
  49   2.0000      -0.495054       -13.4711
  50   2.0000      -0.490643       -13.3511
  51   2.0000      -0.488476       -13.2921
  52   2.0000      -0.466992       -12.7075
  53   2.0000      -0.462912       -12.5965
  54   2.0000      -0.457680       -12.4541
  55   2.0000      -0.450573       -12.2607
  56   2.0000      -0.444964       -12.1081
  57   2.0000      -0.441069       -12.0021
  58   2.0000      -0.432587       -11.7713
  59   2.0000      -0.427961       -11.6454
  60   2.0000      -0.417755       -11.3677
  61   2.0000      -0.414706       -11.2847
  62   2.0000      -0.411382       -11.1943
  63   2.0000      -0.351335        -9.5603
  64   2.0000      -0.335427        -9.1274
  65   2.0000      -0.329604        -8.9690
  66   2.0000      -0.287491        -7.8230
  67   0.0000       0.024059         0.6547
  68   0.0000       0.071773         1.9530
  69   0.0000       0.104147         2.8340
  70   0.0000       0.118785         3.2323
  71   0.0000       0.121014         3.2929

MULLIKEN ATOMIC CHARGES
-----------------------
   0 S :    0.107184
   1 C :   -0.092694
   2 C :   -0.097470
   3 C :    0.016948
   4 C :   -0.142716
   5 H :   -0.002724
   6 C :    0.096338
   7 H :    0.005002
   8 H :    0.044110
   9 C :   -0.099667
  10 H :    0.033576
  11 H :    0.037160
  12 C :   -0.074804
  13 H :    0.018704
  14 H :    0.044248
  15 H :    0.051437
  16 S :    0.101180
  17 C :   -0.102373
  18 C :   -0.030906
  19 C :   -0.052315
  20 C :   -0.143270
  21 H :    0.013211
  22 C :    0.105946
  23 H :    0.016989
  24 H :    0.009087
  25 C :   -0.089716
  26 H :    0.036095
  27 H :    0.055872
  28 C :   -0.052339
  29 H :    0.012377
  30 H :    0.019247
  31 H :    0.054098
  32 H :    0.028682
  33 H :    0.073500
Sum of atomic charges:   -0.0000000

LOEWDIN ATOMIC CHARGES
----------------------
   0 S :    0.417841
   1 C :   -0.196778
   2 C :   -0.053902
   3 C :   -0.062432
   4 C :   -0.198682
   5 H :    0.024665
   6 C :   -0.022308
   7 H :    0.020371
   8 H :    0.037253
   9 C :   -0.041540
  10 H :    0.018079
  11 H :    0.028767
  12 C :   -0.075896
  13 H :    0.020564
  14 H :    0.029091
  15 H :    0.033661
  16 S :    0.399307
  17 C :   -0.201291
  18 C :   -0.075879
  19 C :   -0.045874
  20 C :   -0.179690
  21 H :    0.029715
  22 C :   -0.024274
  23 H :    0.023390
  24 H :    0.026130
  25 C :   -0.042051
  26 H :    0.025721
  27 H :    0.033660
  28 C :   -0.077277
  29 H :    0.021416
  30 H :    0.021420
  31 H :    0.036334
  32 H :    0.013707
  33 H :    0.036782

  Mayer bond orders larger than 0.100000
B(  0-S ,  1-C ) :   1.1419 B(  0-S ,  4-C ) :   1.1580 B(  1-C ,  2-C ) :   1.6051
B(  1-C , 32-H ) :   0.9739 B(  2-C ,  3-C ) :   1.2222 B(  2-C ,  6-C ) :   1.0293
B(  3-C ,  4-C ) :   1.5718 B(  3-C ,  5-H ) :   1.0006 B(  4-C , 20-C ) :   1.0441
B(  6-C ,  7-H ) :   0.9368 B(  6-C ,  8-H ) :   0.9454 B(  6-C ,  9-C ) :   1.0673
B(  9-C , 10-H ) :   0.9596 B(  9-C , 11-H ) :   0.9588 B(  9-C , 12-C ) :   1.0690
B( 12-C , 13-H ) :   0.9726 B( 12-C , 14-H ) :   0.9710 B( 12-C , 15-H ) :   0.9751
B( 16-S , 17-C ) :   1.1672 B( 16-S , 20-C ) :   1.1385 B( 17-C , 18-C ) :   1.6098
B( 17-C , 33-H ) :   0.9589 B( 18-C , 19-C ) :   1.2398 B( 18-C , 21-H ) :   0.9950
B( 19-C , 20-C ) :   1.5895 B( 19-C , 22-C ) :   1.0337 B( 22-C , 23-H ) :   0.9317
B( 22-C , 24-H ) :   0.9301 B( 22-C , 25-C ) :   1.0640 B( 25-C , 26-H ) :   0.9574
B( 25-C , 27-H ) :   0.9549 B( 25-C , 28-C ) :   1.0788 B( 28-C , 29-H ) :   0.9709
B( 28-C , 30-H ) :   0.9725 B( 28-C , 31-H ) :   0.9756

Dispersion correction           -0.015093030
FINAL SINGLE POINT ENERGY     -1339.884804231423

DIPOLE MOMENT
-------------
                                X             Y             Z
Electronic contribution:     -9.65470      27.24472      11.53861
Nuclear contribution   :      9.62641     -27.66051     -11.96813
                        -----------------------------------------
Total Dipole Moment    :     -0.02829      -0.41579      -0.42952
                        -----------------------------------------
Magnitude (a.u.)       :      0.59847
Magnitude (Debye)      :      1.52119

Rotational constants in cm-1:     0.018476     0.009776     0.007207
Rotational constants in MHz :   553.902184   293.076230   216.051396

                             ****ORCA TERMINATED NORMALLY****
TOTAL RUN TIME: 0 days 0 hours 0 minutes 35 seconds 333 msec
