                         Program Version 4.2.1 -  RELEASE  -
|  1> ! wB97X-D3 SP def2-SVP
|  2> %pal
|  3> nprocs 16
|  4> end
|  5>
|  6> * xyz 0 1
|  7> S 	 -53.6457 	 25.7837 	 96.4936
|  8> C 	 -52.4391 	 24.5206 	 96.116
|  9> C 	 -51.8553 	 24.6608 	 94.8918
| 10> C 	 -52.5335 	 25.6907 	 94.1339
| 11> C 	 -53.5696 	 26.3109 	 94.7926
| 12> H 	 -52.1713 	 25.9974 	 93.1547
| 13> C 	 -50.6629 	 23.8911 	 94.3585
| 14> H 	 -51.0409 	 22.877 	 94.0048
| 15> H 	 -49.9614 	 23.6222 	 95.1157
| 16> C 	 -49.9541 	 24.5056 	 93.2076
| 17> H 	 -50.6183 	 24.5733 	 92.3701
| 18> H 	 -49.8101 	 25.5388 	 93.4751
| 19> C 	 -48.6408 	 23.8039 	 92.855
| 20> H 	 -48.3073 	 24.2004 	 91.9345
| 21> H 	 -47.8496 	 23.9773 	 93.5547
| 22> H 	 -48.787 	 22.7523 	 92.6786
| 23> S 	 -56.1049 	 27.1389 	 94.1119
| 24> C 	 -56.3326 	 28.6402 	 93.302
| 25> C 	 -55.165 	 29.2808 	 93.1119
| 26> C 	 -54.0474 	 28.6055 	 93.6809
| 27> C 	 -54.4359 	 27.3915 	 94.3259
| 28> H 	 -55.0659 	 30.2408 	 92.6371
| 29> C 	 -52.599 	 29.1256 	 93.6417
| 30> H 	 -52.5864 	 30.1277 	 93.2121
| 31> H 	 -52.1001 	 28.5162 	 92.7969
| 32> C 	 -51.9546 	 29.2071 	 95.0251
| 33> H 	 -51.5482 	 28.2169 	 95.3315
| 34> H 	 -52.7153 	 29.4538 	 95.7662
| 35> C 	 -50.7555 	 30.2489 	 95.0395
| 36> H 	 -50.0927 	 30.0679 	 94.1518
| 37> H 	 -50.147 	 30.0828 	 95.8772
| 38> H 	 -51.1752 	 31.2061 	 94.8948
| 39> H 	 -52.0666 	 23.8324 	 96.8856
| 40> H 	 -57.3227 	 29.0116 	 92.9733
| 41> *
| 42>
| 43>                          ****END OF INPUT****

CARTESIAN COORDINATES (ANGSTROEM)
---------------------------------
  S    -53.645700   25.783700   96.493600
  C    -52.439100   24.520600   96.116000
  C    -51.855300   24.660800   94.891800
  C    -52.533500   25.690700   94.133900
  C    -53.569600   26.310900   94.792600
  H    -52.171300   25.997400   93.154700
  C    -50.662900   23.891100   94.358500
  H    -51.040900   22.877000   94.004800
  H    -49.961400   23.622200   95.115700
  C    -49.954100   24.505600   93.207600
  H    -50.618300   24.573300   92.370100
  H    -49.810100   25.538800   93.475100
  C    -48.640800   23.803900   92.855000
  H    -48.307300   24.200400   91.934500
  H    -47.849600   23.977300   93.554700
  H    -48.787000   22.752300   92.678600
  S    -56.104900   27.138900   94.111900
  C    -56.332600   28.640200   93.302000
  C    -55.165000   29.280800   93.111900
  C    -54.047400   28.605500   93.680900
  C    -54.435900   27.391500   94.325900
  H    -55.065900   30.240800   92.637100
  C    -52.599000   29.125600   93.641700
  H    -52.586400   30.127700   93.212100
  H    -52.100100   28.516200   92.796900
  C    -51.954600   29.207100   95.025100
  H    -51.548200   28.216900   95.331500
  H    -52.715300   29.453800   95.766200
  C    -50.755500   30.248900   95.039500
  H    -50.092700   30.067900   94.151800
  H    -50.147000   30.082800   95.877200
  H    -51.175200   31.206100   94.894800
  H    -52.066600   23.832400   96.885600
  H    -57.322700   29.011600   92.973300

 Total Charge           Charge          ....    0
 Multiplicity           Mult            ....    1
 Number of Electrons    NEL             ....  134
 Basis Dimension        Dim             ....  322

ORBITAL ENERGIES
----------------

  NO   OCC          E(Eh)            E(eV)
   0   2.0000     -88.963941     -2420.8319
   1   2.0000     -88.963810     -2420.8283
   2   2.0000     -10.330198      -281.0990
   3   2.0000     -10.320854      -280.8447
   4   2.0000     -10.313987      -280.6578
   5   2.0000     -10.313704      -280.6501
   6   2.0000     -10.303042      -280.3600
   7   2.0000     -10.301009      -280.3047
   8   2.0000     -10.297424      -280.2071
   9   2.0000     -10.295469      -280.1540
  10   2.0000     -10.291777      -280.0535
  11   2.0000     -10.288180      -279.9556
  12   2.0000     -10.285737      -279.8891
  13   2.0000     -10.282039      -279.7885
  14   2.0000     -10.275473      -279.6098
  15   2.0000     -10.274457      -279.5822
  16   2.0000      -8.079891      -219.8650
  17   2.0000      -8.077729      -219.8062
  18   2.0000      -6.038214      -164.3082
  19   2.0000      -6.036290      -164.2558
  20   2.0000      -6.034050      -164.1949
  21   2.0000      -6.032620      -164.1559
  22   2.0000      -6.030918      -164.1096
  23   2.0000      -6.028243      -164.0368
  24   2.0000      -1.007594       -27.4180
  25   2.0000      -0.982732       -26.7415
  26   2.0000      -0.920329       -25.0434
  27   2.0000      -0.901900       -24.5419
  28   2.0000      -0.871676       -23.7195
  29   2.0000      -0.845418       -23.0050
  30   2.0000      -0.844065       -22.9682
  31   2.0000      -0.814102       -22.1529
  32   2.0000      -0.785876       -21.3848
  33   2.0000      -0.769347       -20.9350
  34   2.0000      -0.715757       -19.4767
  35   2.0000      -0.698935       -19.0190
  36   2.0000      -0.683700       -18.6044
  37   2.0000      -0.657663       -17.8959
  38   2.0000      -0.638381       -17.3712
  39   2.0000      -0.622283       -16.9332
  40   2.0000      -0.595194       -16.1961
  41   2.0000      -0.575611       -15.6632
  42   2.0000      -0.566810       -15.4237
  43   2.0000      -0.561131       -15.2692
  44   2.0000      -0.524508       -14.2726
  45   2.0000      -0.518253       -14.1024
  46   2.0000      -0.514390       -13.9973
  47   2.0000      -0.510090       -13.8803
  48   2.0000      -0.505892       -13.7660
  49   2.0000      -0.499586       -13.5944
  50   2.0000      -0.485794       -13.2191
  51   2.0000      -0.483261       -13.1502
  52   2.0000      -0.476970       -12.9790
  53   2.0000      -0.471402       -12.8275
  54   2.0000      -0.457347       -12.4450
  55   2.0000      -0.453067       -12.3286
  56   2.0000      -0.441812       -12.0223
  57   2.0000      -0.435468       -11.8497
  58   2.0000      -0.433728       -11.8023
  59   2.0000      -0.426143       -11.5959
  60   2.0000      -0.422643       -11.5007
  61   2.0000      -0.415493       -11.3061
  62   2.0000      -0.410718       -11.1762
  63   2.0000      -0.343910        -9.3583
  64   2.0000      -0.329029        -8.9533
  65   2.0000      -0.323002        -8.7893
  66   2.0000      -0.297149        -8.0858
  67   0.0000       0.033680         0.9165
  68   0.0000       0.068760         1.8710
  69   0.0000       0.104023         2.8306
  70   0.0000       0.127635         3.4731
  71   0.0000       0.134125         3.6497

MULLIKEN ATOMIC CHARGES
-----------------------
   0 S :    0.096210
   1 C :   -0.137941
   2 C :   -0.078935
   3 C :    0.030512
   4 C :   -0.156825
   5 H :    0.009057
   6 C :    0.075575
   7 H :    0.039495
   8 H :    0.015824
   9 C :   -0.117960
  10 H :    0.030526
  11 H :    0.021285
  12 C :    0.020869
  13 H :    0.014596
  14 H :    0.032503
  15 H :    0.025717
  16 S :    0.127708
  17 C :   -0.098044
  18 C :   -0.018507
  19 C :   -0.074321
  20 C :   -0.154164
  21 H :    0.010829
  22 C :    0.058689
  23 H :    0.002004
  24 H :    0.049048
  25 C :   -0.086387
  26 H :    0.045782
  27 H :    0.041576
  28 C :   -0.027304
  29 H :    0.026088
  30 H :    0.030990
  31 H :    0.030654
  32 H :    0.049133
  33 H :    0.065719
Sum of atomic charges:    0.0000000

LOEWDIN ATOMIC CHARGES
----------------------
   0 S :    0.371985
   1 C :   -0.182968
   2 C :   -0.063328
   3 C :   -0.058380
   4 C :   -0.181119
   5 H :    0.029426
   6 C :   -0.033893
   7 H :    0.040482
   8 H :    0.025236
   9 C :   -0.044556
  10 H :    0.020497
  11 H :    0.021385
  12 C :   -0.050859
  13 H :    0.023806
  14 H :    0.025364
  15 H :    0.025620
  16 S :    0.447975
  17 C :   -0.197873
  18 C :   -0.078328
  19 C :   -0.051623
  20 C :   -0.234959
  21 H :    0.030680
  22 C :   -0.041059
  23 H :    0.024227
  24 H :    0.041177
  25 C :   -0.039376
  26 H :    0.028033
  27 H :    0.027194
  28 C :   -0.057255
  29 H :    0.029242
  30 H :    0.019726
  31 H :    0.017815
  32 H :    0.028660
  33 H :    0.037047

  Mayer bond orders larger than 0.100000
B(  0-S ,  1-C ) :   1.1218 B(  0-S ,  4-C ) :   1.1362 B(  1-C ,  2-C ) :   1.6553
B(  1-C , 32-H ) :   0.9656 B(  2-C ,  3-C ) :   1.2221 B(  2-C ,  6-C ) :   1.0099
B(  3-C ,  4-C ) :   1.6069 B(  3-C ,  5-H ) :   0.9898 B(  4-C , 20-C ) :   1.0149
B(  6-C ,  7-H ) :   0.9219 B(  6-C ,  8-H ) :   0.9453 B(  6-C ,  9-C ) :   1.0881
B(  9-C , 10-H ) :   0.9395 B(  9-C , 11-H ) :   0.9550 B(  9-C , 12-C ) :   1.0881
B( 12-C , 13-H ) :   0.9682 B( 12-C , 14-H ) :   0.9733 B( 12-C , 15-H ) :   0.9714
B( 16-S , 17-C ) :   1.1786 B( 16-S , 20-C ) :   1.1758 B( 17-C , 18-C ) :   1.5634
B( 17-C , 33-H ) :   0.9638 B( 18-C , 19-C ) :   1.2994 B( 18-C , 21-H ) :   0.9933
B( 19-C , 20-C ) :   1.5340 B( 19-C , 22-C ) :   1.0345 B( 22-C , 23-H ) :   0.9395
B( 22-C , 24-H ) :   0.9237 B( 22-C , 25-C ) :   1.0468 B( 25-C , 26-H ) :   0.9506
B( 25-C , 27-H ) :   0.9624 B( 25-C , 28-C ) :   1.0796 B( 28-C , 29-H ) :   0.9753
B( 28-C , 30-H ) :   0.9768 B( 28-C , 31-H ) :   0.9783

Dispersion correction           -0.014801835
FINAL SINGLE POINT ENERGY     -1339.884417394689

DIPOLE MOMENT
-------------
                                X             Y             Z
Electronic contribution:    -28.49317      -2.43555       8.30761
Nuclear contribution   :     29.15991       2.57703      -8.72471
                        -----------------------------------------
Total Dipole Moment    :      0.66674       0.14149      -0.41709
                        -----------------------------------------
Magnitude (a.u.)       :      0.79908
Magnitude (Debye)      :      2.03110

Rotational constants in cm-1:     0.017641     0.008849     0.007468
Rotational constants in MHz :   528.866376   265.281520   223.886530

                             ****ORCA TERMINATED NORMALLY****
TOTAL RUN TIME: 0 days 0 hours 0 minutes 30 seconds 996 msec
