                         Program Version 4.2.1 -  RELEASE  -
|  1> ! wB97X-D3 SP def2-SVP
|  2> %pal
|  3> nprocs 16
|  4> end
|  5>
|  6> * xyz 0 1
|  7> S 	 -32.5528 	 61.6677 	 110.018
|  8> C 	 -32.2331 	 60.0039 	 109.732
|  9> C 	 -31.0041 	 59.587 	 110.192
| 10> C 	 -30.2098 	 60.633 	 110.747
| 11> C 	 -30.8709 	 61.84 	 110.666
| 12> H 	 -29.232 	 60.5456 	 111.062
| 13> C 	 -30.4242 	 58.1532 	 110.15
| 14> H 	 -31.227 	 57.6259 	 109.824
| 15> H 	 -30.3399 	 57.8055 	 111.172
| 16> C 	 -29.2519 	 57.9686 	 109.228
| 17> H 	 -29.3279 	 58.4785 	 108.294
| 18> H 	 -28.3868 	 58.3553 	 109.65
| 19> C 	 -29.1313 	 56.5669 	 108.793
| 20> H 	 -28.8447 	 55.94 	 109.578
| 21> H 	 -29.989 	 56.1766 	 108.29
| 22> H 	 -28.2812 	 56.4859 	 108.08
| 23> S 	 -31.4241 	 63.9795 	 112.252
| 24> C 	 -30.0551 	 64.9812 	 112.763
| 25> C 	 -28.9209 	 64.712 	 112.046
| 26> C 	 -29.0926 	 63.6399 	 111.142
| 27> C 	 -30.3677 	 63.1388 	 111.109
| 28> H 	 -27.9004 	 65.1184 	 112.222
| 29> C 	 -27.8999 	 63.0334 	 110.497
| 30> H 	 -27.3574 	 63.9012 	 109.918
| 31> H 	 -28.1909 	 62.3271 	 109.712
| 32> C 	 -26.9726 	 62.2316 	 111.407
| 33> H 	 -27.5711 	 61.6455 	 112.158
| 34> H 	 -26.4484 	 62.9283 	 112.056
| 35> C 	 -25.9395 	 61.3399 	 110.627
| 36> H 	 -25.2683 	 60.7935 	 111.236
| 37> H 	 -25.3586 	 61.9832 	 109.977
| 38> H 	 -26.4601 	 60.6791 	 109.929
| 39> H 	 -32.9588 	 59.3243 	 109.303
| 40> H 	 -30.0232 	 65.6715 	 113.615
| 41> *
| 42>
| 43>                          ****END OF INPUT****

CARTESIAN COORDINATES (ANGSTROEM)
---------------------------------
  S    -32.552800   61.667700  110.018000
  C    -32.233100   60.003900  109.732000
  C    -31.004100   59.587000  110.192000
  C    -30.209800   60.633000  110.747000
  C    -30.870900   61.840000  110.666000
  H    -29.232000   60.545600  111.062000
  C    -30.424200   58.153200  110.150000
  H    -31.227000   57.625900  109.824000
  H    -30.339900   57.805500  111.172000
  C    -29.251900   57.968600  109.228000
  H    -29.327900   58.478500  108.294000
  H    -28.386800   58.355300  109.650000
  C    -29.131300   56.566900  108.793000
  H    -28.844700   55.940000  109.578000
  H    -29.989000   56.176600  108.290000
  H    -28.281200   56.485900  108.080000
  S    -31.424100   63.979500  112.252000
  C    -30.055100   64.981200  112.763000
  C    -28.920900   64.712000  112.046000
  C    -29.092600   63.639900  111.142000
  C    -30.367700   63.138800  111.109000
  H    -27.900400   65.118400  112.222000
  C    -27.899900   63.033400  110.497000
  H    -27.357400   63.901200  109.918000
  H    -28.190900   62.327100  109.712000
  C    -26.972600   62.231600  111.407000
  H    -27.571100   61.645500  112.158000
  H    -26.448400   62.928300  112.056000
  C    -25.939500   61.339900  110.627000
  H    -25.268300   60.793500  111.236000
  H    -25.358600   61.983200  109.977000
  H    -26.460100   60.679100  109.929000
  H    -32.958800   59.324300  109.303000
  H    -30.023200   65.671500  113.615000

 Total Charge           Charge          ....    0
 Multiplicity           Mult            ....    1
 Number of Electrons    NEL             ....  134
 Basis Dimension        Dim             ....  322

ORBITAL ENERGIES
----------------

  NO   OCC          E(Eh)            E(eV)
   0   2.0000     -88.965592     -2420.8768
   1   2.0000     -88.965417     -2420.8721
   2   2.0000     -10.331644      -281.1383
   3   2.0000     -10.323180      -280.9080
   4   2.0000     -10.321083      -280.8509
   5   2.0000     -10.309513      -280.5361
   6   2.0000     -10.297664      -280.2137
   7   2.0000     -10.297016      -280.1960
   8   2.0000     -10.296726      -280.1882
   9   2.0000     -10.296326      -280.1773
  10   2.0000     -10.294256      -280.1210
  11   2.0000     -10.286683      -279.9149
  12   2.0000     -10.283525      -279.8289
  13   2.0000     -10.280589      -279.7490
  14   2.0000     -10.273417      -279.5539
  15   2.0000     -10.268881      -279.4305
  16   2.0000      -8.079965      -219.8670
  17   2.0000      -8.079904      -219.8654
  18   2.0000      -6.038508      -164.3162
  19   2.0000      -6.038452      -164.3146
  20   2.0000      -6.034705      -164.2127
  21   2.0000      -6.034565      -164.2089
  22   2.0000      -6.030558      -164.0998
  23   2.0000      -6.030484      -164.0978
  24   2.0000      -1.005732       -27.3674
  25   2.0000      -0.983037       -26.7498
  26   2.0000      -0.921919       -25.0867
  27   2.0000      -0.910334       -24.7715
  28   2.0000      -0.871099       -23.7038
  29   2.0000      -0.856568       -23.3084
  30   2.0000      -0.850114       -23.1328
  31   2.0000      -0.816642       -22.2220
  32   2.0000      -0.782763       -21.3001
  33   2.0000      -0.770283       -20.9605
  34   2.0000      -0.714455       -19.4413
  35   2.0000      -0.704667       -19.1750
  36   2.0000      -0.695301       -18.9201
  37   2.0000      -0.666961       -18.1489
  38   2.0000      -0.643332       -17.5060
  39   2.0000      -0.623250       -16.9595
  40   2.0000      -0.598890       -16.2966
  41   2.0000      -0.579462       -15.7680
  42   2.0000      -0.558267       -15.1912
  43   2.0000      -0.556280       -15.1372
  44   2.0000      -0.534397       -14.5417
  45   2.0000      -0.527485       -14.3536
  46   2.0000      -0.519750       -14.1431
  47   2.0000      -0.514688       -14.0054
  48   2.0000      -0.507606       -13.8127
  49   2.0000      -0.494638       -13.4598
  50   2.0000      -0.489847       -13.3294
  51   2.0000      -0.481585       -13.1046
  52   2.0000      -0.479060       -13.0359
  53   2.0000      -0.468832       -12.7576
  54   2.0000      -0.463646       -12.6164
  55   2.0000      -0.450554       -12.2602
  56   2.0000      -0.446716       -12.1557
  57   2.0000      -0.439558       -11.9610
  58   2.0000      -0.436911       -11.8890
  59   2.0000      -0.428939       -11.6720
  60   2.0000      -0.423770       -11.5314
  61   2.0000      -0.412830       -11.2337
  62   2.0000      -0.411807       -11.2058
  63   2.0000      -0.353868        -9.6292
  64   2.0000      -0.334068        -9.0905
  65   2.0000      -0.328792        -8.9469
  66   2.0000      -0.286414        -7.7937
  67   0.0000       0.030568         0.8318
  68   0.0000       0.069191         1.8828
  69   0.0000       0.101945         2.7741
  70   0.0000       0.122957         3.3458
  71   0.0000       0.129934         3.5357

MULLIKEN ATOMIC CHARGES
-----------------------
   0 S :    0.103769
   1 C :   -0.114729
   2 C :   -0.129997
   3 C :    0.067026
   4 C :   -0.137373
   5 H :   -0.042796
   6 C :    0.147064
   7 H :   -0.037272
   8 H :    0.032839
   9 C :   -0.017957
  10 H :    0.020072
  11 H :    0.008866
  12 C :   -0.033564
  13 H :    0.012215
  14 H :    0.030430
  15 H :    0.023277
  16 S :    0.093980
  17 C :   -0.090798
  18 C :   -0.030824
  19 C :   -0.058526
  20 C :   -0.101536
  21 H :    0.031745
  22 C :    0.003747
  23 H :    0.047634
  24 H :    0.023709
  25 C :   -0.091390
  26 H :    0.043617
  27 H :    0.018419
  28 C :   -0.013814
  29 H :    0.035232
  30 H :    0.023407
  31 H :    0.027268
  32 H :    0.043225
  33 H :    0.063035
Sum of atomic charges:    0.0000000

LOEWDIN ATOMIC CHARGES
----------------------
   0 S :    0.385385
   1 C :   -0.210085
   2 C :   -0.056281
   3 C :   -0.050535
   4 C :   -0.163168
   5 H :    0.017203
   6 C :   -0.021234
   7 H :    0.012810
   8 H :    0.035494
   9 C :   -0.036472
  10 H :    0.029009
  11 H :    0.014740
  12 C :   -0.054236
  13 H :    0.014716
  14 H :    0.022715
  15 H :    0.029767
  16 S :    0.388472
  17 C :   -0.174813
  18 C :   -0.073012
  19 C :   -0.064100
  20 C :   -0.191180
  21 H :    0.038998
  22 C :   -0.044002
  23 H :    0.043257
  24 H :    0.027133
  25 C :   -0.043770
  26 H :    0.027201
  27 H :    0.019512
  28 C :   -0.057650
  29 H :    0.022439
  30 H :    0.026561
  31 H :    0.023735
  32 H :    0.026853
  33 H :    0.034539

  Mayer bond orders larger than 0.100000
B(  0-S ,  1-C ) :   1.1248 B(  0-S ,  4-C ) :   1.1369 B(  1-C ,  2-C ) :   1.6495
B(  1-C , 32-H ) :   0.9598 B(  2-C ,  3-C ) :   1.2187 B(  2-C ,  6-C ) :   1.0164
B(  3-C ,  4-C ) :   1.5830 B(  3-C ,  5-H ) :   1.0053 B(  4-C , 20-C ) :   1.0196
B(  6-C ,  7-H ) :   0.9243 B(  6-C ,  8-H ) :   0.9301 B(  6-C ,  9-C ) :   1.0594
B(  9-C , 10-H ) :   0.9529 B(  9-C , 11-H ) :   0.9469 B(  9-C , 12-C ) :   1.1059
B( 12-C , 13-H ) :   0.9701 B( 12-C , 14-H ) :   0.9744 B( 12-C , 15-H ) :   0.9714
B( 16-S , 17-C ) :   1.1488 B( 16-S , 20-C ) :   1.1190 B( 17-C , 18-C ) :   1.6176
B( 17-C , 33-H ) :   0.9630 B( 18-C , 19-C ) :   1.2346 B( 18-C , 21-H ) :   0.9836
B( 19-C , 20-C ) :   1.6328 B( 19-C , 22-C ) :   1.0629 B( 22-C , 23-H ) :   0.9264
B( 22-C , 24-H ) :   0.9390 B( 22-C , 25-C ) :   1.0431 B( 25-C , 26-H ) :   0.9543
B( 25-C , 27-H ) :   0.9476 B( 25-C , 28-C ) :   1.0746 B( 28-C , 29-H ) :   0.9764
B( 28-C , 30-H ) :   0.9716 B( 28-C , 31-H ) :   0.9753

Dispersion correction           -0.014786111
FINAL SINGLE POINT ENERGY     -1339.868349387757

DIPOLE MOMENT
-------------
                                X             Y             Z
Electronic contribution:    -25.11029      21.22809       7.08936
Nuclear contribution   :     25.88518     -21.68686      -7.01254
                        -----------------------------------------
Total Dipole Moment    :      0.77489      -0.45878       0.07682
                        -----------------------------------------
Magnitude (a.u.)       :      0.90379
Magnitude (Debye)      :      2.29726

Rotational constants in cm-1:     0.018028     0.009752     0.006656
Rotational constants in MHz :   540.469779   292.345735   199.543636

                             ****ORCA TERMINATED NORMALLY****
TOTAL RUN TIME: 0 days 0 hours 0 minutes 31 seconds 679 msec
