                         Program Version 4.2.1 -  RELEASE  -
|  1> ! wB97X-D3 SP def2-SVP
|  2> %pal
|  3> nprocs 16
|  4> end
|  5>
|  6> * xyz 0 1
|  7> S 	 27.5688 	 -11.4881 	 78.8669
|  8> C 	 27.852 	 -12.2363 	 77.2547
|  9> C 	 26.8536 	 -13.0887 	 76.8606
| 10> C 	 25.7521 	 -13.0889 	 77.808
| 11> C 	 26.0065 	 -12.3566 	 78.9447
| 12> H 	 24.8281 	 -13.6161 	 77.7347
| 13> C 	 26.8385 	 -13.8207 	 75.5479
| 14> H 	 25.8828 	 -14.4102 	 75.5498
| 15> H 	 27.5734 	 -14.5934 	 75.565
| 16> C 	 26.9558 	 -13.026 	 74.1812
| 17> H 	 26.4936 	 -13.5798 	 73.3713
| 18> H 	 26.3867 	 -12.0803 	 74.2489
| 19> C 	 28.4637 	 -12.906 	 73.7419
| 20> H 	 28.4077 	 -12.5471 	 72.6676
| 21> H 	 29.1491 	 -12.2903 	 74.3808
| 22> H 	 28.8358 	 -13.9121 	 73.6497
| 23> S 	 24.7627 	 -14.0489 	 80.6312
| 24> C 	 23.8743 	 -13.3645 	 81.9656
| 25> C 	 24.0761 	 -11.9833 	 82.1562
| 26> C 	 24.9369 	 -11.4786 	 81.1709
| 27> C 	 25.2694 	 -12.3979 	 80.1859
| 28> H 	 23.7326 	 -11.4302 	 83.0569
| 29> C 	 25.2682 	 -10.0054 	 81.1093
| 30> H 	 26.3194 	 -9.71255 	 81.0468
| 31> H 	 24.9727 	 -9.65236 	 82.1151
| 32> C 	 24.5425 	 -9.11493 	 79.9691
| 33> H 	 23.4754 	 -9.48863 	 79.9037
| 34> H 	 25.0306 	 -9.25311 	 79.0121
| 35> C 	 24.5803 	 -7.62254 	 80.2951
| 36> H 	 23.8857 	 -7.46467 	 81.1188
| 37> H 	 24.1953 	 -7.03856 	 79.464
| 38> H 	 25.5692 	 -7.22574 	 80.4437
| 39> H 	 28.7078 	 -12.0221 	 76.6607
| 40> H 	 23.4251 	 -13.9952 	 82.756
| 41> *
| 42>
| 43>                          ****END OF INPUT****

CARTESIAN COORDINATES (ANGSTROEM)
---------------------------------
  S     27.568800  -11.488100   78.866900
  C     27.852000  -12.236300   77.254700
  C     26.853600  -13.088700   76.860600
  C     25.752100  -13.088900   77.808000
  C     26.006500  -12.356600   78.944700
  H     24.828100  -13.616100   77.734700
  C     26.838500  -13.820700   75.547900
  H     25.882800  -14.410200   75.549800
  H     27.573400  -14.593400   75.565000
  C     26.955800  -13.026000   74.181200
  H     26.493600  -13.579800   73.371300
  H     26.386700  -12.080300   74.248900
  C     28.463700  -12.906000   73.741900
  H     28.407700  -12.547100   72.667600
  H     29.149100  -12.290300   74.380800
  H     28.835800  -13.912100   73.649700
  S     24.762700  -14.048900   80.631200
  C     23.874300  -13.364500   81.965600
  C     24.076100  -11.983300   82.156200
  C     24.936900  -11.478600   81.170900
  C     25.269400  -12.397900   80.185900
  H     23.732600  -11.430200   83.056900
  C     25.268200  -10.005400   81.109300
  H     26.319400   -9.712550   81.046800
  H     24.972700   -9.652360   82.115100
  C     24.542500   -9.114930   79.969100
  H     23.475400   -9.488630   79.903700
  H     25.030600   -9.253110   79.012100
  C     24.580300   -7.622540   80.295100
  H     23.885700   -7.464670   81.118800
  H     24.195300   -7.038560   79.464000
  H     25.569200   -7.225740   80.443700
  H     28.707800  -12.022100   76.660700
  H     23.425100  -13.995200   82.756000

 Total Charge           Charge          ....    0
 Multiplicity           Mult            ....    1
 Number of Electrons    NEL             ....  134
 Basis Dimension        Dim             ....  322

ORBITAL ENERGIES
----------------

  NO   OCC          E(Eh)            E(eV)
   0   2.0000     -88.970176     -2421.0016
   1   2.0000     -88.964651     -2420.8512
   2   2.0000     -10.330373      -281.1037
   3   2.0000     -10.325731      -280.9774
   4   2.0000     -10.320911      -280.8463
   5   2.0000     -10.312002      -280.6038
   6   2.0000     -10.302633      -280.3489
   7   2.0000     -10.302328      -280.3406
   8   2.0000     -10.299421      -280.2615
   9   2.0000     -10.296342      -280.1777
  10   2.0000     -10.294007      -280.1142
  11   2.0000     -10.293889      -280.1110
  12   2.0000     -10.293842      -280.1097
  13   2.0000     -10.290165      -280.0096
  14   2.0000     -10.289348      -279.9874
  15   2.0000     -10.273229      -279.5488
  16   2.0000      -8.084230      -219.9831
  17   2.0000      -8.077949      -219.8122
  18   2.0000      -6.042540      -164.4259
  19   2.0000      -6.038890      -164.3265
  20   2.0000      -6.036616      -164.2647
  21   2.0000      -6.035172      -164.2254
  22   2.0000      -6.032829      -164.1616
  23   2.0000      -6.028476      -164.0432
  24   2.0000      -1.002883       -27.2898
  25   2.0000      -0.976697       -26.5773
  26   2.0000      -0.903846       -24.5949
  27   2.0000      -0.898186       -24.4409
  28   2.0000      -0.865859       -23.5612
  29   2.0000      -0.854321       -23.2472
  30   2.0000      -0.843039       -22.9403
  31   2.0000      -0.807994       -21.9866
  32   2.0000      -0.780596       -21.2411
  33   2.0000      -0.767790       -20.8926
  34   2.0000      -0.705203       -19.1896
  35   2.0000      -0.701809       -19.0972
  36   2.0000      -0.687196       -18.6995
  37   2.0000      -0.667659       -18.1679
  38   2.0000      -0.637804       -17.3555
  39   2.0000      -0.611091       -16.6286
  40   2.0000      -0.594820       -16.1859
  41   2.0000      -0.568279       -15.4637
  42   2.0000      -0.560097       -15.2410
  43   2.0000      -0.538263       -14.6469
  44   2.0000      -0.533672       -14.5219
  45   2.0000      -0.516046       -14.0423
  46   2.0000      -0.513980       -13.9861
  47   2.0000      -0.507935       -13.8216
  48   2.0000      -0.507637       -13.8135
  49   2.0000      -0.493235       -13.4216
  50   2.0000      -0.486325       -13.2336
  51   2.0000      -0.480800       -13.0832
  52   2.0000      -0.467185       -12.7128
  53   2.0000      -0.463403       -12.6098
  54   2.0000      -0.457896       -12.4600
  55   2.0000      -0.452182       -12.3045
  56   2.0000      -0.443561       -12.0699
  57   2.0000      -0.439045       -11.9470
  58   2.0000      -0.431268       -11.7354
  59   2.0000      -0.426871       -11.6157
  60   2.0000      -0.419160       -11.4059
  61   2.0000      -0.414913       -11.2903
  62   2.0000      -0.409424       -11.1410
  63   2.0000      -0.345237        -9.3944
  64   2.0000      -0.336577        -9.1587
  65   2.0000      -0.330758        -9.0004
  66   2.0000      -0.284516        -7.7421
  67   0.0000       0.021660         0.5894
  68   0.0000       0.070155         1.9090
  69   0.0000       0.099943         2.7196
  70   0.0000       0.104021         2.8306
  71   0.0000       0.123586         3.3629

MULLIKEN ATOMIC CHARGES
-----------------------
   0 S :    0.087212
   1 C :   -0.112202
   2 C :   -0.063402
   3 C :    0.006495
   4 C :   -0.125959
   5 H :    0.008338
   6 C :    0.057723
   7 H :    0.020494
   8 H :    0.024982
   9 C :   -0.064882
  10 H :    0.029730
  11 H :    0.045178
  12 C :   -0.089041
  13 H :    0.042634
  14 H :    0.054296
  15 H :    0.029914
  16 S :    0.117194
  17 C :   -0.106378
  18 C :   -0.051337
  19 C :   -0.015561
  20 C :   -0.144979
  21 H :    0.039026
  22 C :    0.028029
  23 H :    0.033042
  24 H :    0.007274
  25 C :   -0.084075
  26 H :    0.040667
  27 H :    0.038532
  28 C :   -0.042800
  29 H :    0.032427
  30 H :    0.029698
  31 H :    0.031780
  32 H :    0.028243
  33 H :    0.067707
Sum of atomic charges:    0.0000000

LOEWDIN ATOMIC CHARGES
----------------------
   0 S :    0.364291
   1 C :   -0.172039
   2 C :   -0.059376
   3 C :   -0.067946
   4 C :   -0.175438
   5 H :    0.025608
   6 C :   -0.037524
   7 H :    0.034822
   8 H :    0.027712
   9 C :   -0.036037
  10 H :    0.026365
  11 H :    0.028222
  12 C :   -0.072829
  13 H :    0.034508
  14 H :    0.026126
  15 H :    0.022050
  16 S :    0.415344
  17 C :   -0.193438
  18 C :   -0.073187
  19 C :   -0.062699
  20 C :   -0.183952
  21 H :    0.041758
  22 C :   -0.039612
  23 H :    0.026129
  24 H :    0.027623
  25 C :   -0.035416
  26 H :    0.029566
  27 H :    0.020636
  28 C :   -0.066824
  29 H :    0.025624
  30 H :    0.027629
  31 H :    0.023097
  32 H :    0.017431
  33 H :    0.031777

  Mayer bond orders larger than 0.100000
B(  0-S ,  1-C ) :   1.1085 B(  0-S ,  4-C ) :   1.1190 B(  1-C ,  2-C ) :   1.6536
B(  1-C , 32-H ) :   0.9725 B(  2-C ,  3-C ) :   1.1924 B(  2-C ,  6-C ) :   1.0277
B(  3-C ,  4-C ) :   1.5973 B(  3-C ,  5-H ) :   0.9949 B(  4-C , 20-C ) :   1.0808
B(  6-C ,  7-H ) :   0.9405 B(  6-C ,  8-H ) :   0.9353 B(  6-C ,  9-C ) :   1.0550
B(  9-C , 10-H ) :   0.9569 B(  9-C , 11-H ) :   0.9635 B(  9-C , 12-C ) :   1.0652
B( 12-C , 13-H ) :   0.9735 B( 12-C , 14-H ) :   0.9770 B( 12-C , 15-H ) :   0.9743
B( 16-S , 17-C ) :   1.1753 B( 16-S , 20-C ) :   1.1374 B( 17-C , 18-C ) :   1.5774
B( 17-C , 20-C ) :   0.1031 B( 17-C , 33-H ) :   0.9599 B( 18-C , 19-C ) :   1.2798
B( 18-C , 21-H ) :   0.9786 B( 19-C , 20-C ) :   1.5462 B( 19-C , 22-C ) :   1.0507
B( 22-C , 23-H ) :   0.9361 B( 22-C , 24-H ) :   0.9372 B( 22-C , 25-C ) :   1.0400
B( 25-C , 26-H ) :   0.9606 B( 25-C , 27-H ) :   0.9551 B( 25-C , 28-C ) :   1.0866
B( 28-C , 29-H ) :   0.9769 B( 28-C , 30-H ) :   0.9720 B( 28-C , 31-H ) :   0.9739

Dispersion correction           -0.014128468
FINAL SINGLE POINT ENERGY     -1339.877324783330

DIPOLE MOMENT
-------------
                                X             Y             Z
Electronic contribution:     -0.60136     -12.28736      15.88474
Nuclear contribution   :      0.49716      12.31079     -16.14911
                        -----------------------------------------
Total Dipole Moment    :     -0.10420       0.02343      -0.26437
                        -----------------------------------------
Magnitude (a.u.)       :      0.28513
Magnitude (Debye)      :      0.72473

Rotational constants in cm-1:     0.020559     0.007837     0.006292
Rotational constants in MHz :   616.349800   234.940273   188.642785

                             ****ORCA TERMINATED NORMALLY****
TOTAL RUN TIME: 0 days 0 hours 0 minutes 27 seconds 314 msec
