                         Program Version 4.2.1 -  RELEASE  -
|  1> ! wB97X-D3 SP def2-SVP
|  2> %pal
|  3> nprocs 16
|  4> end
|  5>
|  6> * xyz 0 1
|  7> S 	 -68.2163 	 51.2173 	 134.089
|  8> C 	 -68.3153 	 52.1242 	 135.52
|  9> C 	 -69.1941 	 51.4765 	 136.373
| 10> C 	 -69.6812 	 50.2563 	 135.925
| 11> C 	 -69.1465 	 49.8978 	 134.756
| 12> H 	 -70.353 	 49.5333 	 136.457
| 13> C 	 -69.6412 	 51.8918 	 137.783
| 14> H 	 -69.3679 	 51.0338 	 138.436
| 15> H 	 -70.7196 	 52.0136 	 137.829
| 16> C 	 -68.9996 	 53.1197 	 138.325
| 17> H 	 -67.97 	 53.159 	 138.227
| 18> H 	 -69.3893 	 53.9254 	 137.68
| 19> C 	 -69.5682 	 53.5551 	 139.621
| 20> H 	 -70.6733 	 53.4968 	 139.625
| 21> H 	 -69.28 	 52.9941 	 140.511
| 22> H 	 -69.2354 	 54.5575 	 139.863
| 23> S 	 -68.0406 	 47.3983 	 134.531
| 24> C 	 -68.9523 	 46.1384 	 133.701
| 25> C 	 -70.1441 	 46.6521 	 133.187
| 26> C 	 -70.2709 	 48.0322 	 133.412
| 27> C 	 -69.2646 	 48.567 	 134.179
| 28> H 	 -70.7796 	 45.9549 	 132.655
| 29> C 	 -71.5373 	 48.688 	 132.985
| 30> H 	 -71.7375 	 49.5606 	 133.607
| 31> H 	 -72.3701 	 47.9813 	 133.079
| 32> C 	 -71.5958 	 49.1191 	 131.529
| 33> H 	 -71.5569 	 48.2902 	 130.799
| 34> H 	 -70.7263 	 49.7612 	 131.34
| 35> C 	 -72.8106 	 49.9468 	 131.213
| 36> H 	 -72.6766 	 50.3803 	 130.266
| 37> H 	 -73.1391 	 50.7301 	 131.9
| 38> H 	 -73.6797 	 49.3152 	 131.207
| 39> H 	 -68.0706 	 53.1357 	 135.623
| 40> H 	 -68.6893 	 45.1273 	 133.508
| 41> *
| 42>
| 43>                          ****END OF INPUT****

CARTESIAN COORDINATES (ANGSTROEM)
---------------------------------
  S    -68.216300   51.217300  134.089000
  C    -68.315300   52.124200  135.520000
  C    -69.194100   51.476500  136.373000
  C    -69.681200   50.256300  135.925000
  C    -69.146500   49.897800  134.756000
  H    -70.353000   49.533300  136.457000
  C    -69.641200   51.891800  137.783000
  H    -69.367900   51.033800  138.436000
  H    -70.719600   52.013600  137.829000
  C    -68.999600   53.119700  138.325000
  H    -67.970000   53.159000  138.227000
  H    -69.389300   53.925400  137.680000
  C    -69.568200   53.555100  139.621000
  H    -70.673300   53.496800  139.625000
  H    -69.280000   52.994100  140.511000
  H    -69.235400   54.557500  139.863000
  S    -68.040600   47.398300  134.531000
  C    -68.952300   46.138400  133.701000
  C    -70.144100   46.652100  133.187000
  C    -70.270900   48.032200  133.412000
  C    -69.264600   48.567000  134.179000
  H    -70.779600   45.954900  132.655000
  C    -71.537300   48.688000  132.985000
  H    -71.737500   49.560600  133.607000
  H    -72.370100   47.981300  133.079000
  C    -71.595800   49.119100  131.529000
  H    -71.556900   48.290200  130.799000
  H    -70.726300   49.761200  131.340000
  C    -72.810600   49.946800  131.213000
  H    -72.676600   50.380300  130.266000
  H    -73.139100   50.730100  131.900000
  H    -73.679700   49.315200  131.207000
  H    -68.070600   53.135700  135.623000
  H    -68.689300   45.127300  133.508000

 Total Charge           Charge          ....    0
 Multiplicity           Mult            ....    1
 Number of Electrons    NEL             ....  134
 Basis Dimension        Dim             ....  322

ORBITAL ENERGIES
----------------

  NO   OCC          E(Eh)            E(eV)
   0   2.0000     -88.966763     -2420.9087
   1   2.0000     -88.963411     -2420.8175
   2   2.0000     -10.321005      -280.8488
   3   2.0000     -10.320681      -280.8400
   4   2.0000     -10.315088      -280.6878
   5   2.0000     -10.307056      -280.4693
   6   2.0000     -10.295719      -280.1607
   7   2.0000     -10.295409      -280.1523
   8   2.0000     -10.289898      -280.0024
   9   2.0000     -10.288482      -279.9638
  10   2.0000     -10.286552      -279.9113
  11   2.0000     -10.284348      -279.8513
  12   2.0000     -10.281231      -279.7665
  13   2.0000     -10.275397      -279.6078
  14   2.0000     -10.274509      -279.5836
  15   2.0000     -10.266338      -279.3613
  16   2.0000      -8.081455      -219.9076
  17   2.0000      -8.079169      -219.8454
  18   2.0000      -6.039964      -164.3558
  19   2.0000      -6.037548      -164.2900
  20   2.0000      -6.035892      -164.2450
  21   2.0000      -6.033520      -164.1804
  22   2.0000      -6.032289      -164.1469
  23   2.0000      -6.030001      -164.0847
  24   2.0000      -1.016761       -27.6675
  25   2.0000      -0.992364       -27.0036
  26   2.0000      -0.921529       -25.0761
  27   2.0000      -0.913288       -24.8518
  28   2.0000      -0.874698       -23.8018
  29   2.0000      -0.857856       -23.3434
  30   2.0000      -0.854727       -23.2583
  31   2.0000      -0.817604       -22.2481
  32   2.0000      -0.781402       -21.2630
  33   2.0000      -0.770043       -20.9539
  34   2.0000      -0.714612       -19.4456
  35   2.0000      -0.697825       -18.9888
  36   2.0000      -0.690376       -18.7861
  37   2.0000      -0.662878       -18.0378
  38   2.0000      -0.648527       -17.6473
  39   2.0000      -0.615976       -16.7615
  40   2.0000      -0.597939       -16.2708
  41   2.0000      -0.580363       -15.7925
  42   2.0000      -0.572785       -15.5863
  43   2.0000      -0.566470       -15.4144
  44   2.0000      -0.529564       -14.4102
  45   2.0000      -0.525616       -14.3027
  46   2.0000      -0.521404       -14.1881
  47   2.0000      -0.515167       -14.0184
  48   2.0000      -0.506369       -13.7790
  49   2.0000      -0.497377       -13.5343
  50   2.0000      -0.497020       -13.5246
  51   2.0000      -0.483516       -13.1571
  52   2.0000      -0.474775       -12.9193
  53   2.0000      -0.472109       -12.8467
  54   2.0000      -0.459751       -12.5105
  55   2.0000      -0.454105       -12.3568
  56   2.0000      -0.437986       -11.9182
  57   2.0000      -0.436586       -11.8801
  58   2.0000      -0.435215       -11.8428
  59   2.0000      -0.423815       -11.5326
  60   2.0000      -0.417843       -11.3701
  61   2.0000      -0.411430       -11.1956
  62   2.0000      -0.405521       -11.0348
  63   2.0000      -0.342130        -9.3098
  64   2.0000      -0.330774        -9.0008
  65   2.0000      -0.317802        -8.6478
  66   2.0000      -0.310881        -8.4595
  67   0.0000       0.049241         1.3399
  68   0.0000       0.055107         1.4995
  69   0.0000       0.119022         3.2388
  70   0.0000       0.125194         3.4067
  71   0.0000       0.135588         3.6895

MULLIKEN ATOMIC CHARGES
-----------------------
   0 S :    0.123115
   1 C :   -0.095536
   2 C :   -0.100239
   3 C :    0.031963
   4 C :   -0.178335
   5 H :    0.035556
   6 C :    0.046553
   7 H :    0.037030
   8 H :    0.028625
   9 C :   -0.060392
  10 H :    0.019613
  11 H :    0.019505
  12 C :   -0.024832
  13 H :    0.024958
  14 H :    0.020290
  15 H :    0.024544
  16 S :    0.128082
  17 C :   -0.086492
  18 C :   -0.052232
  19 C :    0.027340
  20 C :   -0.190989
  21 H :    0.019171
  22 C :    0.071194
  23 H :    0.019426
  24 H :    0.018840
  25 C :   -0.087036
  26 H :    0.030098
  27 H :    0.024741
  28 C :   -0.011835
  29 H :    0.025251
  30 H :    0.024226
  31 H :    0.010734
  32 H :    0.036103
  33 H :    0.040960
Sum of atomic charges:    0.0000000

LOEWDIN ATOMIC CHARGES
----------------------
   0 S :    0.427870
   1 C :   -0.213400
   2 C :   -0.065271
   3 C :   -0.063246
   4 C :   -0.199985
   5 H :    0.046186
   6 C :   -0.030648
   7 H :    0.034499
   8 H :    0.030874
   9 C :   -0.048517
  10 H :    0.015217
  11 H :    0.030269
  12 C :   -0.061663
  13 H :    0.027867
  14 H :    0.019772
  15 H :    0.025493
  16 S :    0.419783
  17 C :   -0.179266
  18 C :   -0.068200
  19 C :   -0.057723
  20 C :   -0.210446
  21 H :    0.032546
  22 C :   -0.031248
  23 H :    0.029712
  24 H :    0.030306
  25 C :   -0.039130
  26 H :    0.025788
  27 H :    0.023037
  28 C :   -0.063164
  29 H :    0.022065
  30 H :    0.025907
  31 H :    0.019936
  32 H :    0.020812
  33 H :    0.023968

  Mayer bond orders larger than 0.100000
B(  0-S ,  1-C ) :   1.1421 B(  0-S ,  4-C ) :   1.1595 B(  1-C ,  2-C ) :   1.6005
B(  1-C , 32-H ) :   0.9698 B(  2-C ,  3-C ) :   1.2605 B(  2-C ,  6-C ) :   1.0032
B(  3-C ,  4-C ) :   1.5846 B(  3-C ,  5-H ) :   0.9929 B(  4-C , 20-C ) :   1.0058
B(  6-C ,  7-H ) :   0.9438 B(  6-C ,  8-H ) :   0.9359 B(  6-C ,  9-C ) :   1.0938
B(  9-C , 10-H ) :   0.9509 B(  9-C , 11-H ) :   0.9435 B(  9-C , 12-C ) :   1.0885
B( 12-C , 13-H ) :   0.9705 B( 12-C , 14-H ) :   0.9708 B( 12-C , 15-H ) :   0.9708
B( 16-S , 17-C ) :   1.1594 B( 16-S , 20-C ) :   1.1476 B( 17-C , 18-C ) :   1.6109
B( 17-C , 20-C ) :   0.1017 B( 17-C , 33-H ) :   0.9693 B( 18-C , 19-C ) :   1.2417
B( 18-C , 21-H ) :   0.9908 B( 19-C , 20-C ) :   1.5983 B( 19-C , 22-C ) :   1.0539
B( 22-C , 23-H ) :   0.9270 B( 22-C , 24-H ) :   0.9354 B( 22-C , 25-C ) :   1.0724
B( 25-C , 26-H ) :   0.9508 B( 25-C , 27-H ) :   0.9539 B( 25-C , 28-C ) :   1.0928
B( 28-C , 29-H ) :   0.9723 B( 28-C , 30-H ) :   0.9721 B( 28-C , 31-H ) :   0.9697

Dispersion correction           -0.013657014
FINAL SINGLE POINT ENERGY     -1339.873403655579

DIPOLE MOMENT
-------------
                                X             Y             Z
Electronic contribution:     17.40577     -12.94276      -6.33003
Nuclear contribution   :    -17.94702      12.98625       6.49038
                        -----------------------------------------
Total Dipole Moment    :     -0.54125       0.04349       0.16035
                        -----------------------------------------
Magnitude (a.u.)       :      0.56617
Magnitude (Debye)      :      1.43910

Rotational constants in cm-1:     0.020324     0.007414     0.006373
Rotational constants in MHz :   609.308240   222.263449   191.068815

                             ****ORCA TERMINATED NORMALLY****
TOTAL RUN TIME: 0 days 0 hours 0 minutes 31 seconds 893 msec
