                         Program Version 4.2.1 -  RELEASE  -
|  1> ! wB97X-D3 SP def2-SVP
|  2> %pal
|  3> nprocs 16
|  4> end
|  5>
|  6> * xyz 0 1
|  7> S 	 -5.99303 	 12.3091 	 82.6945
|  8> C 	 -6.43462 	 11.4313 	 81.218
|  9> C 	 -7.15895 	 12.1947 	 80.2693
| 10> C 	 -7.29172 	 13.5181 	 80.7358
| 11> C 	 -6.73524 	 13.7437 	 81.9612
| 12> H 	 -7.86884 	 14.29 	 80.2541
| 13> C 	 -7.84765 	 11.7044 	 79.0221
| 14> H 	 -7.42639 	 10.7979 	 78.5273
| 15> H 	 -7.6766 	 12.5054 	 78.2942
| 16> C 	 -9.38278 	 11.5257 	 79.0771
| 17> H 	 -9.72368 	 11.3028 	 77.9601
| 18> H 	 -9.62064 	 10.5886 	 79.5132
| 19> C 	 -10.2209 	 12.6733 	 79.6866
| 20> H 	 -10.2335 	 12.549 	 80.7228
| 21> H 	 -9.74706 	 13.5753 	 79.5058
| 22> H 	 -11.2166 	 12.7468 	 79.2568
| 23> S 	 -7.85272 	 14.9136 	 84.2494
| 24> C 	 -7.8233 	 16.6866 	 84.4696
| 25> C 	 -7.09981 	 17.2706 	 83.4191
| 26> C 	 -6.69197 	 16.3126 	 82.4156
| 27> C 	 -6.97452 	 14.9711 	 82.7338
| 28> H 	 -6.77608 	 18.3088 	 83.3636
| 29> C 	 -5.96029 	 16.7693 	 81.1924
| 30> H 	 -6.57639 	 17.4629 	 80.6047
| 31> H 	 -5.74532 	 15.9154 	 80.5951
| 32> C 	 -4.58233 	 17.3681 	 81.3771
| 33> H 	 -4.72515 	 18.2317 	 82.0519
| 34> H 	 -4.14452 	 17.8239 	 80.5196
| 35> C 	 -3.56527 	 16.5188 	 82.0447
| 36> H 	 -2.93062 	 15.879 	 81.4795
| 37> H 	 -3.97664 	 15.9323 	 82.827
| 38> H 	 -2.82603 	 17.1643 	 82.5025
| 39> H 	 -6.20945 	 10.3797 	 81.1353
| 40> H 	 -8.08876 	 17.2509 	 85.3581
| 41> *
| 42>
| 43>                          ****END OF INPUT****

CARTESIAN COORDINATES (ANGSTROEM)
---------------------------------
  S     -5.993030   12.309100   82.694500
  C     -6.434620   11.431300   81.218000
  C     -7.158950   12.194700   80.269300
  C     -7.291720   13.518100   80.735800
  C     -6.735240   13.743700   81.961200
  H     -7.868840   14.290000   80.254100
  C     -7.847650   11.704400   79.022100
  H     -7.426390   10.797900   78.527300
  H     -7.676600   12.505400   78.294200
  C     -9.382780   11.525700   79.077100
  H     -9.723680   11.302800   77.960100
  H     -9.620640   10.588600   79.513200
  C    -10.220900   12.673300   79.686600
  H    -10.233500   12.549000   80.722800
  H     -9.747060   13.575300   79.505800
  H    -11.216600   12.746800   79.256800
  S     -7.852720   14.913600   84.249400
  C     -7.823300   16.686600   84.469600
  C     -7.099810   17.270600   83.419100
  C     -6.691970   16.312600   82.415600
  C     -6.974520   14.971100   82.733800
  H     -6.776080   18.308800   83.363600
  C     -5.960290   16.769300   81.192400
  H     -6.576390   17.462900   80.604700
  H     -5.745320   15.915400   80.595100
  C     -4.582330   17.368100   81.377100
  H     -4.725150   18.231700   82.051900
  H     -4.144520   17.823900   80.519600
  C     -3.565270   16.518800   82.044700
  H     -2.930620   15.879000   81.479500
  H     -3.976640   15.932300   82.827000
  H     -2.826030   17.164300   82.502500
  H     -6.209450   10.379700   81.135300
  H     -8.088760   17.250900   85.358100

 Total Charge           Charge          ....    0
 Multiplicity           Mult            ....    1
 Number of Electrons    NEL             ....  134
 Basis Dimension        Dim             ....  322

ORBITAL ENERGIES
----------------

  NO   OCC          E(Eh)            E(eV)
   0   2.0000     -88.973616     -2421.0952
   1   2.0000     -88.966727     -2420.9077
   2   2.0000     -10.331230      -281.1271
   3   2.0000     -10.329826      -281.0889
   4   2.0000     -10.323158      -280.9074
   5   2.0000     -10.320827      -280.8440
   6   2.0000     -10.307287      -280.4755
   7   2.0000     -10.302043      -280.3328
   8   2.0000     -10.298887      -280.2470
   9   2.0000     -10.298177      -280.2276
  10   2.0000     -10.294107      -280.1169
  11   2.0000     -10.294006      -280.1142
  12   2.0000     -10.281597      -279.7765
  13   2.0000     -10.276641      -279.6416
  14   2.0000     -10.268502      -279.4202
  15   2.0000     -10.258806      -279.1563
  16   2.0000      -8.087428      -220.0701
  17   2.0000      -8.080553      -219.8830
  18   2.0000      -6.045831      -164.5154
  19   2.0000      -6.042259      -164.4182
  20   2.0000      -6.039244      -164.3362
  21   2.0000      -6.038172      -164.3070
  22   2.0000      -6.035079      -164.2229
  23   2.0000      -6.031267      -164.1191
  24   2.0000      -1.002790       -27.2873
  25   2.0000      -0.978267       -26.6200
  26   2.0000      -0.913616       -24.8608
  27   2.0000      -0.909883       -24.7592
  28   2.0000      -0.865219       -23.5438
  29   2.0000      -0.852905       -23.2087
  30   2.0000      -0.845375       -23.0038
  31   2.0000      -0.815694       -22.1962
  32   2.0000      -0.787930       -21.4407
  33   2.0000      -0.773265       -21.0416
  34   2.0000      -0.705050       -19.1854
  35   2.0000      -0.702418       -19.1138
  36   2.0000      -0.693590       -18.8735
  37   2.0000      -0.657363       -17.8878
  38   2.0000      -0.645344       -17.5607
  39   2.0000      -0.617905       -16.8140
  40   2.0000      -0.594338       -16.1728
  41   2.0000      -0.567376       -15.4391
  42   2.0000      -0.559469       -15.2239
  43   2.0000      -0.548163       -14.9163
  44   2.0000      -0.541473       -14.7342
  45   2.0000      -0.540001       -14.6942
  46   2.0000      -0.517558       -14.0835
  47   2.0000      -0.512817       -13.9545
  48   2.0000      -0.501577       -13.6486
  49   2.0000      -0.497886       -13.5482
  50   2.0000      -0.491597       -13.3770
  51   2.0000      -0.479567       -13.0497
  52   2.0000      -0.467014       -12.7081
  53   2.0000      -0.462227       -12.5778
  54   2.0000      -0.458578       -12.4786
  55   2.0000      -0.450311       -12.2536
  56   2.0000      -0.445102       -12.1118
  57   2.0000      -0.440507       -11.9868
  58   2.0000      -0.437921       -11.9164
  59   2.0000      -0.433070       -11.7844
  60   2.0000      -0.418464       -11.3870
  61   2.0000      -0.409040       -11.1306
  62   2.0000      -0.396964       -10.8019
  63   2.0000      -0.347604        -9.4588
  64   2.0000      -0.333378        -9.0717
  65   2.0000      -0.326777        -8.8920
  66   2.0000      -0.292759        -7.9664
  67   0.0000       0.028146         0.7659
  68   0.0000       0.062499         1.7007
  69   0.0000       0.106847         2.9075
  70   0.0000       0.119227         3.2443
  71   0.0000       0.120568         3.2808

MULLIKEN ATOMIC CHARGES
-----------------------
   0 S :    0.117603
   1 C :   -0.128100
   2 C :   -0.055640
   3 C :    0.030945
   4 C :   -0.165839
   5 H :    0.021004
   6 C :    0.054174
   7 H :    0.034290
   8 H :    0.028231
   9 C :   -0.114229
  10 H :    0.032350
  11 H :    0.019785
  12 C :    0.016222
  13 H :    0.038125
  14 H :   -0.003343
  15 H :    0.038444
  16 S :    0.100170
  17 C :   -0.098142
  18 C :   -0.030743
  19 C :   -0.075366
  20 C :   -0.144131
  21 H :    0.030083
  22 C :    0.091947
  23 H :    0.033605
  24 H :    0.012008
  25 C :   -0.059623
  26 H :    0.007562
  27 H :    0.018331
  28 C :   -0.020454
  29 H :    0.018522
  30 H :    0.025603
  31 H :    0.014020
  32 H :    0.046714
  33 H :    0.065872
Sum of atomic charges:    0.0000000

LOEWDIN ATOMIC CHARGES
----------------------
   0 S :    0.393192
   1 C :   -0.182651
   2 C :   -0.061606
   3 C :   -0.050126
   4 C :   -0.189463
   5 H :    0.033133
   6 C :   -0.038814
   7 H :    0.038002
   8 H :    0.032841
   9 C :   -0.039239
  10 H :    0.032626
  11 H :    0.013830
  12 C :   -0.054231
  13 H :    0.025242
  14 H :    0.011804
  15 H :    0.032831
  16 S :    0.393085
  17 C :   -0.183446
  18 C :   -0.066743
  19 C :   -0.060863
  20 C :   -0.200126
  21 H :    0.032890
  22 C :   -0.036062
  23 H :    0.034327
  24 H :    0.024840
  25 C :   -0.040835
  26 H :    0.019827
  27 H :    0.022659
  28 C :   -0.063884
  29 H :    0.019748
  30 H :    0.022835
  31 H :    0.028589
  32 H :    0.022003
  33 H :    0.033783

  Mayer bond orders larger than 0.100000
B(  0-S ,  1-C ) :   1.1434 B(  0-S ,  4-C ) :   1.1406 B(  1-C ,  2-C ) :   1.5949
B(  1-C , 32-H ) :   0.9700 B(  2-C ,  3-C ) :   1.2422 B(  2-C ,  6-C ) :   1.0252
B(  3-C ,  4-C ) :   1.5874 B(  3-C ,  5-H ) :   0.9873 B(  4-C , 20-C ) :   1.0301
B(  6-C ,  7-H ) :   0.9438 B(  6-C ,  8-H ) :   0.9351 B(  6-C ,  9-C ) :   1.0729
B(  9-C , 10-H ) :   0.9560 B(  9-C , 11-H ) :   0.9604 B(  9-C , 12-C ) :   1.0693
B( 12-C , 13-H ) :   0.9693 B( 12-C , 14-H ) :   0.9748 B( 12-C , 15-H ) :   0.9694
B( 16-S , 17-C ) :   1.1464 B( 16-S , 20-C ) :   1.1371 B( 17-C , 18-C ) :   1.5968
B( 17-C , 33-H ) :   0.9665 B( 18-C , 19-C ) :   1.2515 B( 18-C , 21-H ) :   0.9826
B( 19-C , 20-C ) :   1.5816 B( 19-C , 22-C ) :   1.0564 B( 22-C , 23-H ) :   0.9318
B( 22-C , 24-H ) :   0.9265 B( 22-C , 25-C ) :   1.0772 B( 25-C , 26-H ) :   0.9567
B( 25-C , 27-H ) :   0.9504 B( 25-C , 28-C ) :   1.0820 B( 28-C , 29-H ) :   0.9727
B( 28-C , 30-H ) :   0.9729 B( 28-C , 31-H ) :   0.9683

Dispersion correction           -0.015166436
FINAL SINGLE POINT ENERGY     -1339.870523846008

DIPOLE MOMENT
-------------
                                X             Y             Z
Electronic contribution:      0.02631      -5.47430      17.92192
Nuclear contribution   :     -0.09845       5.61623     -18.40479
                        -----------------------------------------
Total Dipole Moment    :     -0.07215       0.14193      -0.48287
                        -----------------------------------------
Magnitude (a.u.)       :      0.50844
Magnitude (Debye)      :      1.29236

Rotational constants in cm-1:     0.019215     0.008655     0.008143
Rotational constants in MHz :   576.065013   259.461763   244.107205

                             ****ORCA TERMINATED NORMALLY****
TOTAL RUN TIME: 0 days 0 hours 0 minutes 33 seconds 893 msec
