                         Program Version 4.2.1 -  RELEASE  -
|  1> ! wB97X-D3 SP def2-SVP
|  2> %pal
|  3> nprocs 16
|  4> end
|  5>
|  6> * xyz 0 1
|  7> S 	 24.019 	 9.17186 	 72.6567
|  8> C 	 22.9774 	 8.03142 	 71.7662
|  9> C 	 23.6173 	 6.85758 	 71.3622
| 10> C 	 25.002 	 6.83059 	 71.7423
| 11> C 	 25.2704 	 7.97473 	 72.518
| 12> H 	 25.7899 	 6.14124 	 71.4246
| 13> C 	 23.0364 	 5.8656 	 70.4425
| 14> H 	 23.8786 	 5.40722 	 69.8704
| 15> H 	 22.3293 	 6.32396 	 69.726
| 16> C 	 22.2942 	 4.82528 	 71.1842
| 17> H 	 22.3549 	 3.88853 	 70.576
| 18> H 	 22.8191 	 4.66704 	 72.1103
| 19> C 	 20.8099 	 5.13523 	 71.407
| 20> H 	 20.6685 	 5.67069 	 72.3547
| 21> H 	 20.3491 	 5.69916 	 70.5713
| 22> H 	 20.2623 	 4.16349 	 71.557
| 23> S 	 27.4907 	 9.47403 	 72.2236
| 24> C 	 29.0236 	 9.14078 	 73.0745
| 25> C 	 28.788 	 8.22032 	 74.0615
| 26> C 	 27.4421 	 7.63749 	 74.0164
| 27> C 	 26.6032 	 8.24382 	 73.0015
| 28> H 	 29.4937 	 7.84051 	 74.7821
| 29> C 	 26.9481 	 6.49763 	 74.911
| 30> H 	 27.7611 	 5.76805 	 75.0711
| 31> H 	 26.1019 	 6.01378 	 74.4731
| 32> C 	 26.571 	 6.95455 	 76.2653
| 33> H 	 27.4777 	 7.2333 	 76.7922
| 34> H 	 26.3319 	 6.06315 	 76.8175
| 35> C 	 25.3408 	 7.87678 	 76.3173
| 36> H 	 25.111 	 8.12477 	 77.3642
| 37> H 	 24.4673 	 7.28797 	 76.0096
| 38> H 	 25.4476 	 8.82878 	 75.7475
| 39> H 	 21.8566 	 8.16225 	 71.6666
| 40> H 	 29.9962 	 9.54237 	 72.8632
| 41> *
| 42>
| 43>                          ****END OF INPUT****

CARTESIAN COORDINATES (ANGSTROEM)
---------------------------------
  S     24.019000    9.171860   72.656700
  C     22.977400    8.031420   71.766200
  C     23.617300    6.857580   71.362200
  C     25.002000    6.830590   71.742300
  C     25.270400    7.974730   72.518000
  H     25.789900    6.141240   71.424600
  C     23.036400    5.865600   70.442500
  H     23.878600    5.407220   69.870400
  H     22.329300    6.323960   69.726000
  C     22.294200    4.825280   71.184200
  H     22.354900    3.888530   70.576000
  H     22.819100    4.667040   72.110300
  C     20.809900    5.135230   71.407000
  H     20.668500    5.670690   72.354700
  H     20.349100    5.699160   70.571300
  H     20.262300    4.163490   71.557000
  S     27.490700    9.474030   72.223600
  C     29.023600    9.140780   73.074500
  C     28.788000    8.220320   74.061500
  C     27.442100    7.637490   74.016400
  C     26.603200    8.243820   73.001500
  H     29.493700    7.840510   74.782100
  C     26.948100    6.497630   74.911000
  H     27.761100    5.768050   75.071100
  H     26.101900    6.013780   74.473100
  C     26.571000    6.954550   76.265300
  H     27.477700    7.233300   76.792200
  H     26.331900    6.063150   76.817500
  C     25.340800    7.876780   76.317300
  H     25.111000    8.124770   77.364200
  H     24.467300    7.287970   76.009600
  H     25.447600    8.828780   75.747500
  H     21.856600    8.162250   71.666600
  H     29.996200    9.542370   72.863200

 Total Charge           Charge          ....    0
 Multiplicity           Mult            ....    1
 Number of Electrons    NEL             ....  134
 Basis Dimension        Dim             ....  322

ORBITAL ENERGIES
----------------

  NO   OCC          E(Eh)            E(eV)
   0   2.0000     -88.975392     -2421.1435
   1   2.0000     -88.961231     -2420.7582
   2   2.0000     -10.331278      -281.1284
   3   2.0000     -10.323063      -280.9048
   4   2.0000     -10.319765      -280.8151
   5   2.0000     -10.317749      -280.7602
   6   2.0000     -10.306321      -280.4493
   7   2.0000     -10.301476      -280.3174
   8   2.0000     -10.300986      -280.3041
   9   2.0000     -10.296449      -280.1806
  10   2.0000     -10.287498      -279.9371
  11   2.0000     -10.284617      -279.8587
  12   2.0000     -10.282522      -279.8017
  13   2.0000     -10.282026      -279.7882
  14   2.0000     -10.274747      -279.5901
  15   2.0000     -10.274568      -279.5852
  16   2.0000      -8.089401      -220.1238
  17   2.0000      -8.076202      -219.7646
  18   2.0000      -6.047766      -164.5681
  19   2.0000      -6.044185      -164.4706
  20   2.0000      -6.040183      -164.3617
  21   2.0000      -6.034832      -164.2161
  22   2.0000      -6.030400      -164.0955
  23   2.0000      -6.027081      -164.0052
  24   2.0000      -1.004499       -27.3338
  25   2.0000      -0.978154       -26.6169
  26   2.0000      -0.924567       -25.1588
  27   2.0000      -0.911906       -24.8142
  28   2.0000      -0.868146       -23.6235
  29   2.0000      -0.852687       -23.2028
  30   2.0000      -0.834180       -22.6992
  31   2.0000      -0.809094       -22.0166
  32   2.0000      -0.783247       -21.3132
  33   2.0000      -0.769038       -20.9266
  34   2.0000      -0.704687       -19.1755
  35   2.0000      -0.692758       -18.8509
  36   2.0000      -0.690264       -18.7830
  37   2.0000      -0.653009       -17.7693
  38   2.0000      -0.639447       -17.4002
  39   2.0000      -0.619942       -16.8695
  40   2.0000      -0.594892       -16.1878
  41   2.0000      -0.574555       -15.6344
  42   2.0000      -0.552324       -15.0295
  43   2.0000      -0.548489       -14.9251
  44   2.0000      -0.545453       -14.8425
  45   2.0000      -0.535434       -14.5699
  46   2.0000      -0.518185       -14.1005
  47   2.0000      -0.508032       -13.8243
  48   2.0000      -0.496953       -13.5228
  49   2.0000      -0.492211       -13.3937
  50   2.0000      -0.485907       -13.2222
  51   2.0000      -0.480752       -13.0819
  52   2.0000      -0.468041       -12.7360
  53   2.0000      -0.464050       -12.6274
  54   2.0000      -0.458796       -12.4845
  55   2.0000      -0.454521       -12.3682
  56   2.0000      -0.439295       -11.9538
  57   2.0000      -0.438413       -11.9298
  58   2.0000      -0.429760       -11.6944
  59   2.0000      -0.425849       -11.5879
  60   2.0000      -0.420248       -11.4355
  61   2.0000      -0.410588       -11.1727
  62   2.0000      -0.402879       -10.9629
  63   2.0000      -0.342764        -9.3271
  64   2.0000      -0.334327        -9.0975
  65   2.0000      -0.317108        -8.6289
  66   2.0000      -0.292105        -7.9486
  67   0.0000       0.035129         0.9559
  68   0.0000       0.057267         1.5583
  69   0.0000       0.098871         2.6904
  70   0.0000       0.121388         3.3031
  71   0.0000       0.123730         3.3669

MULLIKEN ATOMIC CHARGES
-----------------------
   0 S :    0.135081
   1 C :   -0.143457
   2 C :   -0.083656
   3 C :    0.028959
   4 C :   -0.165607
   5 H :    0.037958
   6 C :    0.049935
   7 H :    0.031667
   8 H :    0.030627
   9 C :   -0.062265
  10 H :    0.029864
  11 H :    0.026311
  12 C :   -0.072953
  13 H :    0.039087
  14 H :    0.036750
  15 H :    0.042841
  16 S :    0.104107
  17 C :   -0.089796
  18 C :   -0.009385
  19 C :   -0.071257
  20 C :   -0.181024
  21 H :    0.016366
  22 C :    0.093446
  23 H :    0.019658
  24 H :    0.010744
  25 C :   -0.063639
  26 H :    0.012134
  27 H :    0.011408
  28 C :   -0.047356
  29 H :    0.028016
  30 H :    0.031091
  31 H :    0.051911
  32 H :    0.066928
  33 H :    0.055506
Sum of atomic charges:    0.0000000

LOEWDIN ATOMIC CHARGES
----------------------
   0 S :    0.412097
   1 C :   -0.206196
   2 C :   -0.059878
   3 C :   -0.053163
   4 C :   -0.198558
   5 H :    0.041650
   6 C :   -0.038420
   7 H :    0.037117
   8 H :    0.032024
   9 C :   -0.044846
  10 H :    0.026772
  11 H :    0.023716
  12 C :   -0.072342
  13 H :    0.026476
  14 H :    0.025501
  15 H :    0.034336
  16 S :    0.412689
  17 C :   -0.180959
  18 C :   -0.068127
  19 C :   -0.053909
  20 C :   -0.226128
  21 H :    0.029504
  22 C :   -0.032784
  23 H :    0.032332
  24 H :    0.023920
  25 C :   -0.046881
  26 H :    0.018337
  27 H :    0.022085
  28 C :   -0.067237
  29 H :    0.026793
  30 H :    0.028631
  31 H :    0.028143
  32 H :    0.036863
  33 H :    0.030442

  Mayer bond orders larger than 0.100000
B(  0-S ,  1-C ) :   1.1182 B(  0-S ,  4-C ) :   1.1719 B(  1-C ,  2-C ) :   1.6267
B(  1-C , 32-H ) :   0.9530 B(  2-C ,  3-C ) :   1.2262 B(  2-C ,  6-C ) :   1.0307
B(  3-C ,  4-C ) :   1.5681 B(  3-C ,  5-H ) :   0.9890 B(  4-C , 20-C ) :   1.0271
B(  6-C ,  7-H ) :   0.9384 B(  6-C ,  8-H ) :   0.9458 B(  6-C ,  9-C ) :   1.0658
B(  9-C , 10-H ) :   0.9563 B(  9-C , 11-H ) :   0.9525 B(  9-C , 12-C ) :   1.0767
B( 12-C , 13-H ) :   0.9734 B( 12-C , 14-H ) :   0.9750 B( 12-C , 15-H ) :   0.9753
B( 16-S , 17-C ) :   1.1454 B( 16-S , 20-C ) :   1.1655 B( 17-C , 18-C ) :   1.5905
B( 17-C , 20-C ) :   0.1007 B( 17-C , 33-H ) :   0.9736 B( 18-C , 19-C ) :   1.2616
B( 18-C , 21-H ) :   0.9845 B( 19-C , 20-C ) :   1.5505 B( 19-C , 22-C ) :   1.0487
B( 22-C , 23-H ) :   0.9286 B( 22-C , 24-H ) :   0.9316 B( 22-C , 25-C ) :   1.0974
B( 25-C , 26-H ) :   0.9520 B( 25-C , 27-H ) :   0.9470 B( 25-C , 28-C ) :   1.0694
B( 28-C , 29-H ) :   0.9726 B( 28-C , 30-H ) :   0.9709 B( 28-C , 31-H ) :   0.9758

Dispersion correction           -0.015310758
FINAL SINGLE POINT ENERGY     -1339.871020484251

DIPOLE MOMENT
-------------
                                X             Y             Z
Electronic contribution:     12.76649      19.16963      -7.36255
Nuclear contribution   :    -12.83393     -19.81808       7.41732
                        -----------------------------------------
Total Dipole Moment    :     -0.06744      -0.64846       0.05478
                        -----------------------------------------
Magnitude (a.u.)       :      0.65425
Magnitude (Debye)      :      1.66298

Rotational constants in cm-1:     0.022058     0.008304     0.007367
Rotational constants in MHz :   661.279757   248.957887   220.857848

                             ****ORCA TERMINATED NORMALLY****
TOTAL RUN TIME: 0 days 0 hours 0 minutes 36 seconds 299 msec
