                         Program Version 4.2.1 -  RELEASE  -
|  1> ! wB97X-D3 SP def2-SVP
|  2> %pal
|  3> nprocs 16
|  4> end
|  5>
|  6> * xyz 0 1
|  7> S 	 -10.7471 	 -6.94714 	 84.2914
|  8> C 	 -10.4712 	 -7.02096 	 86.039
|  9> C 	 -11.3482 	 -6.23136 	 86.8017
| 10> C 	 -12.3501 	 -5.64462 	 85.8993
| 11> C 	 -12.1191 	 -5.84889 	 84.5321
| 12> H 	 -13.2146 	 -4.99354 	 86.0894
| 13> C 	 -11.561 	 -6.13488 	 88.3252
| 14> H 	 -11.0979 	 -5.16203 	 88.408
| 15> H 	 -10.9118 	 -6.74693 	 88.9824
| 16> C 	 -13.0022 	 -6.28171 	 88.8651
| 17> H 	 -13.0298 	 -6.02834 	 89.8997
| 18> H 	 -13.6543 	 -5.43033 	 88.4525
| 19> C 	 -13.5718 	 -7.66008 	 88.4799
| 20> H 	 -12.8358 	 -8.39316 	 88.6272
| 21> H 	 -14.3606 	 -7.82859 	 89.2412
| 22> H 	 -13.9397 	 -7.78416 	 87.4667
| 23> S 	 -11.8032 	 -4.79439 	 82.062
| 24> C 	 -13.1556 	 -4.10792 	 81.2101
| 25> C 	 -14.2929 	 -4.06257 	 81.9627
| 26> C 	 -14.0942 	 -4.66719 	 83.2982
| 27> C 	 -12.8302 	 -5.20693 	 83.4373
| 28> H 	 -15.2394 	 -3.64777 	 81.5258
| 29> C 	 -15.2775 	 -4.84787 	 84.2537
| 30> H 	 -16.1215 	 -4.41732 	 83.7959
| 31> H 	 -14.9538 	 -4.16928 	 85.0511
| 32> C 	 -15.5359 	 -6.34309 	 84.5502
| 33> H 	 -14.6242 	 -6.89379 	 84.7134
| 34> H 	 -16.0223 	 -6.85223 	 83.6703
| 35> C 	 -16.5025 	 -6.48282 	 85.7825
| 36> H 	 -16.1657 	 -6.04093 	 86.7123
| 37> H 	 -16.7193 	 -7.50519 	 86.0717
| 38> H 	 -17.567 	 -6.19045 	 85.4998
| 39> H 	 -9.73927 	 -7.60453 	 86.4912
| 40> H 	 -13.1008 	 -3.76104 	 80.2365
| 41> *
| 42>
| 43>                          ****END OF INPUT****

CARTESIAN COORDINATES (ANGSTROEM)
---------------------------------
  S    -10.747100   -6.947140   84.291400
  C    -10.471200   -7.020960   86.039000
  C    -11.348200   -6.231360   86.801700
  C    -12.350100   -5.644620   85.899300
  C    -12.119100   -5.848890   84.532100
  H    -13.214600   -4.993540   86.089400
  C    -11.561000   -6.134880   88.325200
  H    -11.097900   -5.162030   88.408000
  H    -10.911800   -6.746930   88.982400
  C    -13.002200   -6.281710   88.865100
  H    -13.029800   -6.028340   89.899700
  H    -13.654300   -5.430330   88.452500
  C    -13.571800   -7.660080   88.479900
  H    -12.835800   -8.393160   88.627200
  H    -14.360600   -7.828590   89.241200
  H    -13.939700   -7.784160   87.466700
  S    -11.803200   -4.794390   82.062000
  C    -13.155600   -4.107920   81.210100
  C    -14.292900   -4.062570   81.962700
  C    -14.094200   -4.667190   83.298200
  C    -12.830200   -5.206930   83.437300
  H    -15.239400   -3.647770   81.525800
  C    -15.277500   -4.847870   84.253700
  H    -16.121500   -4.417320   83.795900
  H    -14.953800   -4.169280   85.051100
  C    -15.535900   -6.343090   84.550200
  H    -14.624200   -6.893790   84.713400
  H    -16.022300   -6.852230   83.670300
  C    -16.502500   -6.482820   85.782500
  H    -16.165700   -6.040930   86.712300
  H    -16.719300   -7.505190   86.071700
  H    -17.567000   -6.190450   85.499800
  H     -9.739270   -7.604530   86.491200
  H    -13.100800   -3.761040   80.236500

 Total Charge           Charge          ....    0
 Multiplicity           Mult            ....    1
 Number of Electrons    NEL             ....  134
 Basis Dimension        Dim             ....  322

ORBITAL ENERGIES
----------------

  NO   OCC          E(Eh)            E(eV)
   0   2.0000     -88.969103     -2420.9724
   1   2.0000     -88.961545     -2420.7667
   2   2.0000     -10.332804      -281.1699
   3   2.0000     -10.326944      -281.0104
   4   2.0000     -10.315276      -280.6929
   5   2.0000     -10.314721      -280.6778
   6   2.0000     -10.309616      -280.5389
   7   2.0000     -10.306739      -280.4606
   8   2.0000     -10.299491      -280.2634
   9   2.0000     -10.299446      -280.2622
  10   2.0000     -10.298702      -280.2419
  11   2.0000     -10.296394      -280.1791
  12   2.0000     -10.293706      -280.1060
  13   2.0000     -10.293146      -280.0907
  14   2.0000     -10.282044      -279.7887
  15   2.0000     -10.276629      -279.6413
  16   2.0000      -8.082786      -219.9438
  17   2.0000      -8.076647      -219.7767
  18   2.0000      -6.041419      -164.3954
  19   2.0000      -6.037511      -164.2890
  20   2.0000      -6.035302      -164.2289
  21   2.0000      -6.033406      -164.1773
  22   2.0000      -6.031149      -164.1159
  23   2.0000      -6.027183      -164.0080
  24   2.0000      -1.001824       -27.2610
  25   2.0000      -0.975597       -26.5474
  26   2.0000      -0.910116       -24.7655
  27   2.0000      -0.905828       -24.6488
  28   2.0000      -0.868727       -23.6393
  29   2.0000      -0.846316       -23.0294
  30   2.0000      -0.839168       -22.8349
  31   2.0000      -0.812993       -22.1227
  32   2.0000      -0.782987       -21.3062
  33   2.0000      -0.774409       -21.0727
  34   2.0000      -0.712181       -19.3794
  35   2.0000      -0.706595       -19.2274
  36   2.0000      -0.693109       -18.8605
  37   2.0000      -0.664766       -18.0892
  38   2.0000      -0.639394       -17.3988
  39   2.0000      -0.615646       -16.7526
  40   2.0000      -0.587829       -15.9956
  41   2.0000      -0.565283       -15.3821
  42   2.0000      -0.560606       -15.2549
  43   2.0000      -0.557287       -15.1646
  44   2.0000      -0.534752       -14.5513
  45   2.0000      -0.522560       -14.2196
  46   2.0000      -0.511773       -13.9261
  47   2.0000      -0.508472       -13.8362
  48   2.0000      -0.502580       -13.6759
  49   2.0000      -0.498548       -13.5662
  50   2.0000      -0.492490       -13.4013
  51   2.0000      -0.488234       -13.2855
  52   2.0000      -0.474135       -12.9019
  53   2.0000      -0.466945       -12.7062
  54   2.0000      -0.455369       -12.3912
  55   2.0000      -0.447145       -12.1674
  56   2.0000      -0.440310       -11.9814
  57   2.0000      -0.437160       -11.8957
  58   2.0000      -0.429800       -11.6954
  59   2.0000      -0.427983       -11.6460
  60   2.0000      -0.417852       -11.3703
  61   2.0000      -0.416324       -11.3288
  62   2.0000      -0.409808       -11.1514
  63   2.0000      -0.355248        -9.6668
  64   2.0000      -0.328040        -8.9264
  65   2.0000      -0.327023        -8.8987
  66   2.0000      -0.284884        -7.7521
  67   0.0000       0.024806         0.6750
  68   0.0000       0.079234         2.1561
  69   0.0000       0.103198         2.8082
  70   0.0000       0.114116         3.1053
  71   0.0000       0.125929         3.4267

MULLIKEN ATOMIC CHARGES
-----------------------
   0 S :    0.108891
   1 C :   -0.093917
   2 C :   -0.067889
   3 C :   -0.006787
   4 C :   -0.144486
   5 H :    0.002324
   6 C :    0.029149
   7 H :    0.039669
   8 H :    0.028089
   9 C :   -0.079700
  10 H :    0.027890
  11 H :    0.032082
  12 C :   -0.017319
  13 H :    0.016487
  14 H :    0.035348
  15 H :    0.051734
  16 S :    0.088829
  17 C :   -0.054507
  18 C :   -0.048374
  19 C :   -0.092991
  20 C :   -0.133696
  21 H :    0.037752
  22 C :    0.099335
  23 H :    0.002177
  24 H :    0.046167
  25 C :   -0.075405
  26 H :    0.049963
  27 H :    0.043026
  28 C :   -0.063097
  29 H :    0.034222
  30 H :    0.020590
  31 H :    0.033515
  32 H :    0.022014
  33 H :    0.028916
Sum of atomic charges:   -0.0000000

LOEWDIN ATOMIC CHARGES
----------------------
   0 S :    0.384766
   1 C :   -0.185294
   2 C :   -0.050464
   3 C :   -0.067269
   4 C :   -0.189951
   5 H :    0.030285
   6 C :   -0.041904
   7 H :    0.037601
   8 H :    0.030772
   9 C :   -0.042131
  10 H :    0.023006
  11 H :    0.028173
  12 C :   -0.058659
  13 H :    0.018541
  14 H :    0.032796
  15 H :    0.030970
  16 S :    0.394421
  17 C :   -0.175009
  18 C :   -0.076689
  19 C :   -0.055558
  20 C :   -0.192640
  21 H :    0.040869
  22 C :   -0.027483
  23 H :    0.023551
  24 H :    0.034652
  25 C :   -0.034631
  26 H :    0.022991
  27 H :    0.036931
  28 C :   -0.077094
  29 H :    0.021427
  30 H :    0.022443
  31 H :    0.031825
  32 H :    0.013777
  33 H :    0.014979

  Mayer bond orders larger than 0.100000
B(  0-S ,  1-C ) :   1.1240 B(  0-S ,  4-C ) :   1.1276 B(  1-C ,  2-C ) :   1.6282
B(  1-C , 32-H ) :   0.9736 B(  2-C ,  3-C ) :   1.2064 B(  2-C ,  6-C ) :   0.9916
B(  3-C ,  4-C ) :   1.6036 B(  3-C ,  5-H ) :   0.9791 B(  4-C , 20-C ) :   1.0693
B(  6-C ,  7-H ) :   0.9317 B(  6-C ,  8-H ) :   0.9518 B(  6-C ,  9-C ) :   1.0784
B(  9-C , 10-H ) :   0.9559 B(  9-C , 11-H ) :   0.9470 B(  9-C , 12-C ) :   1.0616
B( 12-C , 13-H ) :   0.9760 B( 12-C , 14-H ) :   0.9743 B( 12-C , 15-H ) :   0.9709
B( 16-S , 17-C ) :   1.1405 B( 16-S , 20-C ) :   1.1215 B( 17-C , 18-C ) :   1.6494
B( 17-C , 33-H ) :   0.9731 B( 18-C , 19-C ) :   1.2086 B( 18-C , 21-H ) :   0.9802
B( 19-C , 20-C ) :   1.6245 B( 19-C , 22-C ) :   1.0218 B( 22-C , 23-H ) :   0.9296
B( 22-C , 24-H ) :   0.9326 B( 22-C , 25-C ) :   1.0514 B( 25-C , 26-H ) :   0.9648
B( 25-C , 27-H ) :   0.9513 B( 25-C , 28-C ) :   1.0767 B( 28-C , 29-H ) :   0.9779
B( 28-C , 30-H ) :   0.9720 B( 28-C , 31-H ) :   0.9733

Dispersion correction           -0.016209154
FINAL SINGLE POINT ENERGY     -1339.862836641786

DIPOLE MOMENT
-------------
                                X             Y             Z
Electronic contribution:     20.47043       4.68503     -22.90016
Nuclear contribution   :    -21.01046      -4.61835      23.41076
                        -----------------------------------------
Total Dipole Moment    :     -0.54003       0.06669       0.51061
                        -----------------------------------------
Magnitude (a.u.)       :      0.74619
Magnitude (Debye)      :      1.89666

Rotational constants in cm-1:     0.018827     0.010535     0.007452
Rotational constants in MHz :   564.429425   315.823609   223.394066

                             ****ORCA TERMINATED NORMALLY****
TOTAL RUN TIME: 0 days 0 hours 0 minutes 37 seconds 172 msec
