                         Program Version 4.2.1 -  RELEASE  -
|  1> ! wB97X-D3 SP def2-SVP
|  2> %pal
|  3> nprocs 16
|  4> end
|  5>
|  6> * xyz 0 1
|  7> S 	 11.0677 	 -13.1226 	 92.6566
|  8> C 	 11.456 	 -11.4579 	 93.1979
|  9> C 	 10.5658 	 -10.4134 	 92.7744
| 10> C 	 9.63254 	 -11.0127 	 91.8037
| 11> C 	 9.77508 	 -12.3619 	 91.6947
| 12> H 	 8.88599 	 -10.4294 	 91.182
| 13> C 	 10.7477 	 -8.87265 	 93.016
| 14> H 	 11.2105 	 -8.55351 	 92.1249
| 15> H 	 11.429 	 -8.79948 	 93.8946
| 16> C 	 9.49094 	 -7.99688 	 93.3452
| 17> H 	 9.81891 	 -7.02135 	 93.6377
| 18> H 	 8.93053 	 -7.90868 	 92.4736
| 19> C 	 8.55084 	 -8.5259 	 94.3869
| 20> H 	 9.06794 	 -8.87286 	 95.2254
| 21> H 	 7.87989 	 -7.77563 	 94.7244
| 22> H 	 8.01559 	 -9.38737 	 94.0186
| 23> S 	 9.33433 	 -14.555 	 90.0666
| 24> C 	 7.78499 	 -14.8394 	 89.4714
| 25> C 	 6.80624 	 -14.0161 	 90.0544
| 26> C 	 7.41449 	 -13.0466 	 90.8638
| 27> C 	 8.82317 	 -13.2064 	 90.9953
| 28> H 	 5.73528 	 -14.2746 	 89.9209
| 29> C 	 6.54702 	 -11.9477 	 91.5136
| 30> H 	 5.72068 	 -11.816 	 90.7935
| 31> H 	 7.0942 	 -10.9648 	 91.6168
| 32> C 	 5.87372 	 -12.2596 	 92.8453
| 33> H 	 6.50953 	 -12.5536 	 93.6838
| 34> H 	 5.33708 	 -13.2272 	 92.6516
| 35> C 	 4.81064 	 -11.1617 	 93.2366
| 36> H 	 4.32207 	 -11.5954 	 94.1531
| 37> H 	 4.10919 	 -10.9691 	 92.502
| 38> H 	 5.21204 	 -10.2016 	 93.5595
| 39> H 	 12.1869 	 -11.3472 	 93.9123
| 40> H 	 7.48481 	 -15.5192 	 88.6364
| 41> *
| 42>
| 43>                          ****END OF INPUT****

CARTESIAN COORDINATES (ANGSTROEM)
---------------------------------
  S     11.067700  -13.122600   92.656600
  C     11.456000  -11.457900   93.197900
  C     10.565800  -10.413400   92.774400
  C      9.632540  -11.012700   91.803700
  C      9.775080  -12.361900   91.694700
  H      8.885990  -10.429400   91.182000
  C     10.747700   -8.872650   93.016000
  H     11.210500   -8.553510   92.124900
  H     11.429000   -8.799480   93.894600
  C      9.490940   -7.996880   93.345200
  H      9.818910   -7.021350   93.637700
  H      8.930530   -7.908680   92.473600
  C      8.550840   -8.525900   94.386900
  H      9.067940   -8.872860   95.225400
  H      7.879890   -7.775630   94.724400
  H      8.015590   -9.387370   94.018600
  S      9.334330  -14.555000   90.066600
  C      7.784990  -14.839400   89.471400
  C      6.806240  -14.016100   90.054400
  C      7.414490  -13.046600   90.863800
  C      8.823170  -13.206400   90.995300
  H      5.735280  -14.274600   89.920900
  C      6.547020  -11.947700   91.513600
  H      5.720680  -11.816000   90.793500
  H      7.094200  -10.964800   91.616800
  C      5.873720  -12.259600   92.845300
  H      6.509530  -12.553600   93.683800
  H      5.337080  -13.227200   92.651600
  C      4.810640  -11.161700   93.236600
  H      4.322070  -11.595400   94.153100
  H      4.109190  -10.969100   92.502000
  H      5.212040  -10.201600   93.559500
  H     12.186900  -11.347200   93.912300
  H      7.484810  -15.519200   88.636400

 Total Charge           Charge          ....    0
 Multiplicity           Mult            ....    1
 Number of Electrons    NEL             ....  134
 Basis Dimension        Dim             ....  322

ORBITAL ENERGIES
----------------

  NO   OCC          E(Eh)            E(eV)
   0   2.0000     -88.969842     -2420.9925
   1   2.0000     -88.969531     -2420.9840
   2   2.0000     -10.328861      -281.0626
   3   2.0000     -10.321911      -280.8735
   4   2.0000     -10.316226      -280.7188
   5   2.0000     -10.315860      -280.7088
   6   2.0000     -10.315845      -280.7084
   7   2.0000     -10.303816      -280.3811
   8   2.0000     -10.301042      -280.3056
   9   2.0000     -10.299377      -280.2603
  10   2.0000     -10.294662      -280.1320
  11   2.0000     -10.293754      -280.1073
  12   2.0000     -10.289370      -279.9880
  13   2.0000     -10.281827      -279.7827
  14   2.0000     -10.278425      -279.6902
  15   2.0000     -10.265765      -279.3457
  16   2.0000      -8.085951      -220.0299
  17   2.0000      -8.083241      -219.9562
  18   2.0000      -6.044107      -164.4685
  19   2.0000      -6.041668      -164.4021
  20   2.0000      -6.040104      -164.3596
  21   2.0000      -6.038335      -164.3114
  22   2.0000      -6.037188      -164.2802
  23   2.0000      -6.033724      -164.1860
  24   2.0000      -1.009161       -27.4607
  25   2.0000      -0.976093       -26.5608
  26   2.0000      -0.910125       -24.7657
  27   2.0000      -0.904017       -24.5995
  28   2.0000      -0.866211       -23.5708
  29   2.0000      -0.852852       -23.2073
  30   2.0000      -0.845847       -23.0167
  31   2.0000      -0.810174       -22.0460
  32   2.0000      -0.784823       -21.3561
  33   2.0000      -0.769783       -20.9469
  34   2.0000      -0.708454       -19.2780
  35   2.0000      -0.700070       -19.0499
  36   2.0000      -0.688548       -18.7363
  37   2.0000      -0.658049       -17.9064
  38   2.0000      -0.634871       -17.2757
  39   2.0000      -0.620969       -16.8974
  40   2.0000      -0.591265       -16.0892
  41   2.0000      -0.567197       -15.4342
  42   2.0000      -0.557738       -15.1768
  43   2.0000      -0.555983       -15.1291
  44   2.0000      -0.546214       -14.8632
  45   2.0000      -0.524449       -14.2710
  46   2.0000      -0.515384       -14.0243
  47   2.0000      -0.503568       -13.7028
  48   2.0000      -0.496769       -13.5178
  49   2.0000      -0.491018       -13.3613
  50   2.0000      -0.488010       -13.2794
  51   2.0000      -0.482536       -13.1305
  52   2.0000      -0.474060       -12.8998
  53   2.0000      -0.464585       -12.6420
  54   2.0000      -0.458293       -12.4708
  55   2.0000      -0.452217       -12.3055
  56   2.0000      -0.448340       -12.2000
  57   2.0000      -0.442584       -12.0433
  58   2.0000      -0.438223       -11.9246
  59   2.0000      -0.426801       -11.6139
  60   2.0000      -0.421493       -11.4694
  61   2.0000      -0.415263       -11.2999
  62   2.0000      -0.405086       -11.0230
  63   2.0000      -0.349375        -9.5070
  64   2.0000      -0.334856        -9.1119
  65   2.0000      -0.330572        -8.9953
  66   2.0000      -0.279258        -7.5990
  67   0.0000       0.026624         0.7245
  68   0.0000       0.070119         1.9080
  69   0.0000       0.096517         2.6264
  70   0.0000       0.113720         3.0945
  71   0.0000       0.126409         3.4398

MULLIKEN ATOMIC CHARGES
-----------------------
   0 S :    0.095718
   1 C :   -0.084888
   2 C :   -0.109253
   3 C :   -0.044412
   4 C :   -0.096584
   5 H :    0.054828
   6 C :    0.060068
   7 H :    0.044876
   8 H :    0.031363
   9 C :   -0.051970
  10 H :    0.025625
  11 H :    0.012707
  12 C :   -0.017013
  13 H :    0.010001
  14 H :    0.028114
  15 H :    0.032681
  16 S :    0.137811
  17 C :   -0.117331
  18 C :   -0.067731
  19 C :   -0.030832
  20 C :   -0.157165
  21 H :    0.040422
  22 C :    0.046905
  23 H :    0.020643
  24 H :    0.018094
  25 C :   -0.080484
  26 H :    0.038932
  27 H :    0.018357
  28 C :   -0.037545
  29 H :    0.038950
  30 H :    0.020151
  31 H :    0.031124
  32 H :    0.015103
  33 H :    0.072737
Sum of atomic charges:   -0.0000000

LOEWDIN ATOMIC CHARGES
----------------------
   0 S :    0.367109
   1 C :   -0.172860
   2 C :   -0.049281
   3 C :   -0.073499
   4 C :   -0.176739
   5 H :    0.043576
   6 C :   -0.021278
   7 H :    0.031386
   8 H :    0.034000
   9 C :   -0.033353
  10 H :    0.024656
  11 H :    0.014096
  12 C :   -0.055815
  13 H :    0.017740
  14 H :    0.025188
  15 H :    0.026140
  16 S :    0.459061
  17 C :   -0.219950
  18 C :   -0.082030
  19 C :   -0.055926
  20 C :   -0.224626
  21 H :    0.041246
  22 C :   -0.039164
  23 H :    0.031617
  24 H :    0.026765
  25 C :   -0.042776
  26 H :    0.026235
  27 H :    0.025570
  28 C :   -0.061076
  29 H :    0.035967
  30 H :    0.012700
  31 H :    0.023288
  32 H :    0.001462
  33 H :    0.040573

  Mayer bond orders larger than 0.100000
B(  0-S ,  1-C ) :   1.1184 B(  0-S ,  4-C ) :   1.1230 B(  1-C ,  2-C ) :   1.6476
B(  1-C , 32-H ) :   0.9748 B(  2-C ,  3-C ) :   1.1807 B(  2-C ,  6-C ) :   1.0078
B(  3-C ,  4-C ) :   1.6459 B(  3-C ,  5-H ) :   0.9709 B(  4-C , 20-C ) :   1.0458
B(  6-C ,  7-H ) :   0.9478 B(  6-C ,  8-H ) :   0.9441 B(  6-C ,  9-C ) :   1.0701
B(  9-C , 10-H ) :   0.9568 B(  9-C , 11-H ) :   0.9537 B(  9-C , 12-C ) :   1.0918
B( 12-C , 13-H ) :   0.9726 B( 12-C , 14-H ) :   0.9717 B( 12-C , 15-H ) :   0.9677
B( 16-S , 17-C ) :   1.2059 B( 16-S , 20-C ) :   1.1612 B( 17-C , 18-C ) :   1.5477
B( 17-C , 20-C ) :   0.1064 B( 17-C , 33-H ) :   0.9595 B( 18-C , 19-C ) :   1.3126
B( 18-C , 21-H ) :   0.9847 B( 19-C , 20-C ) :   1.5277 B( 19-C , 22-C ) :   1.0295
B( 22-C , 23-H ) :   0.9332 B( 22-C , 24-H ) :   0.9355 B( 22-C , 25-C ) :   1.0682
B( 25-C , 26-H ) :   0.9570 B( 25-C , 27-H ) :   0.9516 B( 25-C , 28-C ) :   1.0704
B( 28-C , 29-H ) :   0.9751 B( 28-C , 30-H ) :   0.9759 B( 28-C , 31-H ) :   0.9773

Dispersion correction           -0.014982594
FINAL SINGLE POINT ENERGY     -1339.856833310069

DIPOLE MOMENT
-------------
                                X             Y             Z
Electronic contribution:     18.61440     -23.53565     -12.79176
Nuclear contribution   :    -19.07608      24.04769      12.88412
                        -----------------------------------------
Total Dipole Moment    :     -0.46168       0.51204       0.09236
                        -----------------------------------------
Magnitude (a.u.)       :      0.69560
Magnitude (Debye)      :      1.76808

Rotational constants in cm-1:     0.016677     0.010468     0.007116
Rotational constants in MHz :   499.972985   313.828540   213.335663

                             ****ORCA TERMINATED NORMALLY****
TOTAL RUN TIME: 0 days 0 hours 0 minutes 35 seconds 105 msec
