                         Program Version 4.2.1 -  RELEASE  -
|  1> ! wB97X-D3 SP def2-SVP
|  2> %pal
|  3> nprocs 16
|  4> end
|  5>
|  6> * xyz 0 1
|  7> S 	 9.08064 	 -14.3171 	 60.7919
|  8> C 	 9.58003 	 -12.8057 	 61.4252
|  9> C 	 8.96735 	 -12.4208 	 62.6415
| 10> C 	 7.88282 	 -13.2607 	 62.9515
| 11> C 	 7.94392 	 -14.4671 	 62.2461
| 12> H 	 7.20876 	 -13.0853 	 63.7802
| 13> C 	 9.28767 	 -11.1294 	 63.4355
| 14> H 	 8.44586 	 -10.5668 	 63.6324
| 15> H 	 9.86233 	 -10.4749 	 62.7798
| 16> C 	 10.0007 	 -11.3889 	 64.7721
| 17> H 	 10.6222 	 -12.275 	 64.5405
| 18> H 	 10.6035 	 -10.4357 	 64.9413
| 19> C 	 9.15216 	 -11.8987 	 66.0342
| 20> H 	 8.6749 	 -12.8742 	 65.8461
| 21> H 	 9.77377 	 -12.093 	 66.8873
| 22> H 	 8.44554 	 -11.1878 	 66.4832
| 23> S 	 7.91219 	 -17.2436 	 61.8439
| 24> C 	 6.41384 	 -18.0563 	 62.1295
| 25> C 	 5.52883 	 -17.2378 	 62.7989
| 26> C 	 5.85898 	 -15.8583 	 62.8047
| 27> C 	 7.18888 	 -15.6526 	 62.4275
| 28> H 	 4.54049 	 -17.5956 	 62.9891
| 29> C 	 4.79484 	 -14.8073 	 63.0917
| 30> H 	 4.128 	 -15.171 	 62.3214
| 31> H 	 5.098 	 -13.8296 	 62.8387
| 32> C 	 4.24705 	 -14.8557 	 64.5028
| 33> H 	 4.88445 	 -14.3284 	 65.1633
| 34> H 	 4.1518 	 -15.8433 	 64.8325
| 35> C 	 2.91401 	 -14.0138 	 64.5488
| 36> H 	 3.14876 	 -12.9279 	 64.5321
| 37> H 	 2.37556 	 -14.1854 	 65.4221
| 38> H 	 2.32389 	 -14.1484 	 63.6645
| 39> H 	 10.4518 	 -12.3391 	 60.9784
| 40> H 	 6.24369 	 -19.12 	 62.1278
| 41> *
| 42>
| 43>                          ****END OF INPUT****

CARTESIAN COORDINATES (ANGSTROEM)
---------------------------------
  S      9.080640  -14.317100   60.791900
  C      9.580030  -12.805700   61.425200
  C      8.967350  -12.420800   62.641500
  C      7.882820  -13.260700   62.951500
  C      7.943920  -14.467100   62.246100
  H      7.208760  -13.085300   63.780200
  C      9.287670  -11.129400   63.435500
  H      8.445860  -10.566800   63.632400
  H      9.862330  -10.474900   62.779800
  C     10.000700  -11.388900   64.772100
  H     10.622200  -12.275000   64.540500
  H     10.603500  -10.435700   64.941300
  C      9.152160  -11.898700   66.034200
  H      8.674900  -12.874200   65.846100
  H      9.773770  -12.093000   66.887300
  H      8.445540  -11.187800   66.483200
  S      7.912190  -17.243600   61.843900
  C      6.413840  -18.056300   62.129500
  C      5.528830  -17.237800   62.798900
  C      5.858980  -15.858300   62.804700
  C      7.188880  -15.652600   62.427500
  H      4.540490  -17.595600   62.989100
  C      4.794840  -14.807300   63.091700
  H      4.128000  -15.171000   62.321400
  H      5.098000  -13.829600   62.838700
  C      4.247050  -14.855700   64.502800
  H      4.884450  -14.328400   65.163300
  H      4.151800  -15.843300   64.832500
  C      2.914010  -14.013800   64.548800
  H      3.148760  -12.927900   64.532100
  H      2.375560  -14.185400   65.422100
  H      2.323890  -14.148400   63.664500
  H     10.451800  -12.339100   60.978400
  H      6.243690  -19.120000   62.127800

 Total Charge           Charge          ....    0
 Multiplicity           Mult            ....    1
 Number of Electrons    NEL             ....  134
 Basis Dimension        Dim             ....  322

ORBITAL ENERGIES
----------------

  NO   OCC          E(Eh)            E(eV)
   0   2.0000     -88.967766     -2420.9360
   1   2.0000     -88.964594     -2420.8497
   2   2.0000     -10.334183      -281.2074
   3   2.0000     -10.327958      -281.0380
   4   2.0000     -10.316405      -280.7236
   5   2.0000     -10.313329      -280.6399
   6   2.0000     -10.303609      -280.3754
   7   2.0000     -10.303300      -280.3670
   8   2.0000     -10.298150      -280.2269
   9   2.0000     -10.297053      -280.1971
  10   2.0000     -10.289372      -279.9880
  11   2.0000     -10.289040      -279.9790
  12   2.0000     -10.288120      -279.9540
  13   2.0000     -10.284351      -279.8514
  14   2.0000     -10.284296      -279.8499
  15   2.0000     -10.276485      -279.6374
  16   2.0000      -8.081702      -219.9143
  17   2.0000      -8.078419      -219.8249
  18   2.0000      -6.040064      -164.3585
  19   2.0000      -6.037060      -164.2768
  20   2.0000      -6.036522      -164.2621
  21   2.0000      -6.033132      -164.1699
  22   2.0000      -6.032457      -164.1515
  23   2.0000      -6.029010      -164.0577
  24   2.0000      -0.999672       -27.2025
  25   2.0000      -0.978415       -26.6240
  26   2.0000      -0.915672       -24.9167
  27   2.0000      -0.902819       -24.5669
  28   2.0000      -0.869524       -23.6609
  29   2.0000      -0.851561       -23.1722
  30   2.0000      -0.844817       -22.9886
  31   2.0000      -0.810146       -22.0452
  32   2.0000      -0.787643       -21.4329
  33   2.0000      -0.770246       -20.9594
  34   2.0000      -0.715893       -19.4804
  35   2.0000      -0.701792       -19.0967
  36   2.0000      -0.694935       -18.9101
  37   2.0000      -0.663239       -18.0477
  38   2.0000      -0.638902       -17.3854
  39   2.0000      -0.622933       -16.9509
  40   2.0000      -0.601228       -16.3603
  41   2.0000      -0.567343       -15.4382
  42   2.0000      -0.566229       -15.4079
  43   2.0000      -0.540710       -14.7135
  44   2.0000      -0.537313       -14.6210
  45   2.0000      -0.529922       -14.4199
  46   2.0000      -0.510709       -13.8971
  47   2.0000      -0.508815       -13.8456
  48   2.0000      -0.502240       -13.6666
  49   2.0000      -0.496530       -13.5113
  50   2.0000      -0.492232       -13.3943
  51   2.0000      -0.483703       -13.1622
  52   2.0000      -0.472966       -12.8701
  53   2.0000      -0.463788       -12.6203
  54   2.0000      -0.460804       -12.5391
  55   2.0000      -0.451941       -12.2979
  56   2.0000      -0.448040       -12.1918
  57   2.0000      -0.442761       -12.0481
  58   2.0000      -0.436863       -11.8877
  59   2.0000      -0.430269       -11.7082
  60   2.0000      -0.421889       -11.4802
  61   2.0000      -0.411433       -11.1956
  62   2.0000      -0.405736       -11.0406
  63   2.0000      -0.357732        -9.7344
  64   2.0000      -0.334045        -9.0898
  65   2.0000      -0.329637        -8.9699
  66   2.0000      -0.273160        -7.4331
  67   0.0000       0.015102         0.4110
  68   0.0000       0.066003         1.7960
  69   0.0000       0.096633         2.6295
  70   0.0000       0.117891         3.2080
  71   0.0000       0.125707         3.4207

MULLIKEN ATOMIC CHARGES
-----------------------
   0 S :    0.105273
   1 C :   -0.118378
   2 C :   -0.111906
   3 C :    0.015203
   4 C :   -0.145104
   5 H :    0.020418
   6 C :    0.113284
   7 H :    0.005804
   8 H :    0.015936
   9 C :   -0.102709
  10 H :    0.044115
  11 H :    0.049263
  12 C :   -0.067204
  13 H :    0.041641
  14 H :    0.028328
  15 H :    0.031576
  16 S :    0.087670
  17 C :   -0.074451
  18 C :   -0.038355
  19 C :   -0.071025
  20 C :   -0.132863
  21 H :    0.011631
  22 C :    0.076890
  23 H :    0.037914
  24 H :    0.006784
  25 C :   -0.032072
  26 H :    0.021796
  27 H :    0.021761
  28 C :   -0.031444
  29 H :    0.026621
  30 H :    0.026364
  31 H :    0.023453
  32 H :    0.052614
  33 H :    0.061172
Sum of atomic charges:   -0.0000000

LOEWDIN ATOMIC CHARGES
----------------------
   0 S :    0.383513
   1 C :   -0.208781
   2 C :   -0.061047
   3 C :   -0.058234
   4 C :   -0.158067
   5 H :    0.031760
   6 C :   -0.028152
   7 H :    0.017741
   8 H :    0.031838
   9 C :   -0.043825
  10 H :    0.031210
  11 H :    0.034597
  12 C :   -0.077054
  13 H :    0.029130
  14 H :    0.026949
  15 H :    0.023343
  16 S :    0.370185
  17 C :   -0.184856
  18 C :   -0.077022
  19 C :   -0.047503
  20 C :   -0.178905
  21 H :    0.024166
  22 C :   -0.020958
  23 H :    0.038986
  24 H :    0.021419
  25 C :   -0.022907
  26 H :    0.022496
  27 H :    0.015898
  28 C :   -0.057273
  29 H :    0.029757
  30 H :    0.016335
  31 H :    0.020355
  32 H :    0.023085
  33 H :    0.031822

  Mayer bond orders larger than 0.100000
B(  0-S ,  1-C ) :   1.1512 B(  0-S ,  4-C ) :   1.1219 B(  1-C ,  2-C ) :   1.5924
B(  1-C ,  4-C ) :   0.1088 B(  1-C , 32-H ) :   0.9608 B(  2-C ,  3-C ) :   1.2609
B(  2-C ,  6-C ) :   1.0302 B(  3-C ,  4-C ) :   1.5469 B(  3-C ,  5-H ) :   0.9825
B(  4-C , 20-C ) :   1.1379 B(  6-C ,  7-H ) :   0.9407 B(  6-C ,  8-H ) :   0.9409
B(  6-C ,  9-C ) :   1.0462 B(  9-C , 10-H ) :   0.9606 B(  9-C , 11-H ) :   0.9590
B(  9-C , 12-C ) :   1.0660 B( 12-C , 13-H ) :   0.9728 B( 12-C , 14-H ) :   0.9729
B( 12-C , 15-H ) :   0.9769 B( 16-S , 17-C ) :   1.1515 B( 16-S , 20-C ) :   1.1009
B( 17-C , 18-C ) :   1.6317 B( 17-C , 33-H ) :   0.9597 B( 18-C , 19-C ) :   1.2461
B( 18-C , 21-H ) :   0.9781 B( 19-C , 20-C ) :   1.5814 B( 19-C , 22-C ) :   1.0128
B( 22-C , 23-H ) :   0.9353 B( 22-C , 24-H ) :   0.9352 B( 22-C , 25-C ) :   1.0690
B( 25-C , 26-H ) :   0.9531 B( 25-C , 27-H ) :   0.9622 B( 25-C , 28-C ) :   1.0731
B( 28-C , 29-H ) :   0.9749 B( 28-C , 30-H ) :   0.9757 B( 28-C , 31-H ) :   0.9798

Dispersion correction           -0.014079564
FINAL SINGLE POINT ENERGY     -1339.848941625501

DIPOLE MOMENT
-------------
                                X             Y             Z
Electronic contribution:     11.87931     -17.19902     -21.00752
Nuclear contribution   :    -12.32319      17.55604      21.47081
                        -----------------------------------------
Total Dipole Moment    :     -0.44387       0.35702       0.46329
                        -----------------------------------------
Magnitude (a.u.)       :      0.73425
Magnitude (Debye)      :      1.86631

Rotational constants in cm-1:     0.015473     0.009754     0.006874
Rotational constants in MHz :   463.861846   292.402827   206.075621

                             ****ORCA TERMINATED NORMALLY****
TOTAL RUN TIME: 0 days 0 hours 0 minutes 29 seconds 679 msec
