                         Program Version 4.2.1 -  RELEASE  -
|  1> ! wB97X-D3 SP def2-SVP
|  2> %pal
|  3> nprocs 16
|  4> end
|  5>
|  6> * xyz 0 1
|  7> S 	 67.1876 	 -2.87136 	 87.8994
|  8> C 	 65.6166 	 -2.47797 	 88.7215
|  9> C 	 65.7251 	 -2.57073 	 90.1111
| 10> C 	 67.0983 	 -2.76097 	 90.5015
| 11> C 	 67.9864 	 -2.92157 	 89.4637
| 12> H 	 67.3089 	 -2.70661 	 91.5769
| 13> C 	 64.6784 	 -2.4429 	 91.1653
| 14> H 	 65.0119 	 -2.88261 	 92.1527
| 15> H 	 63.8405 	 -3.1038 	 90.7347
| 16> C 	 64.1893 	 -0.973664 	 91.3239
| 17> H 	 64.9818 	 -0.38977 	 91.702
| 18> H 	 63.9544 	 -0.531889 	 90.3056
| 19> C 	 62.935 	 -0.812664 	 92.198
| 20> H 	 62.3279 	 -0.0316187 	 91.7946
| 21> H 	 62.3953 	 -1.74218 	 92.2948
| 22> H 	 63.4144 	 -0.49335 	 93.1567
| 23> S 	 69.9521 	 -4.61053 	 90.2788
| 24> C 	 71.6394 	 -4.25719 	 90.0356
| 25> C 	 71.7941 	 -2.96086 	 89.6534
| 26> C 	 70.532 	 -2.33388 	 89.2697
| 27> C 	 69.4396 	 -3.17769 	 89.4895
| 28> H 	 72.8284 	 -2.62086 	 89.6829
| 29> C 	 70.4501 	 -0.910661 	 88.86
| 30> H 	 69.7182 	 -0.744109 	 88.0145
| 31> H 	 71.3858 	 -0.467028 	 88.4954
| 32> C 	 70.0687 	 0.0981167 	 89.9785
| 33> H 	 70.8161 	 0.170456 	 90.7405
| 34> H 	 69.1665 	 -0.242376 	 90.5235
| 35> C 	 70.0687 	 1.48958 	 89.3612
| 36> H 	 69.2495 	 1.50654 	 88.6142
| 37> H 	 70.9919 	 1.65005 	 88.8224
| 38> H 	 69.9211 	 2.28596 	 90.1194
| 39> H 	 64.6741 	 -2.35995 	 88.1398
| 40> H 	 72.5283 	 -4.6868 	 90.3671
| 41> *
| 42>
| 43>                          ****END OF INPUT****

CARTESIAN COORDINATES (ANGSTROEM)
---------------------------------
  S     67.187600   -2.871360   87.899400
  C     65.616600   -2.477970   88.721500
  C     65.725100   -2.570730   90.111100
  C     67.098300   -2.760970   90.501500
  C     67.986400   -2.921570   89.463700
  H     67.308900   -2.706610   91.576900
  C     64.678400   -2.442900   91.165300
  H     65.011900   -2.882610   92.152700
  H     63.840500   -3.103800   90.734700
  C     64.189300   -0.973664   91.323900
  H     64.981800   -0.389770   91.702000
  H     63.954400   -0.531889   90.305600
  C     62.935000   -0.812664   92.198000
  H     62.327900   -0.031619   91.794600
  H     62.395300   -1.742180   92.294800
  H     63.414400   -0.493350   93.156700
  S     69.952100   -4.610530   90.278800
  C     71.639400   -4.257190   90.035600
  C     71.794100   -2.960860   89.653400
  C     70.532000   -2.333880   89.269700
  C     69.439600   -3.177690   89.489500
  H     72.828400   -2.620860   89.682900
  C     70.450100   -0.910661   88.860000
  H     69.718200   -0.744109   88.014500
  H     71.385800   -0.467028   88.495400
  C     70.068700    0.098117   89.978500
  H     70.816100    0.170456   90.740500
  H     69.166500   -0.242376   90.523500
  C     70.068700    1.489580   89.361200
  H     69.249500    1.506540   88.614200
  H     70.991900    1.650050   88.822400
  H     69.921100    2.285960   90.119400
  H     64.674100   -2.359950   88.139800
  H     72.528300   -4.686800   90.367100

 Total Charge           Charge          ....    0
 Multiplicity           Mult            ....    1
 Number of Electrons    NEL             ....  134
 Basis Dimension        Dim             ....  322

ORBITAL ENERGIES
----------------

  NO   OCC          E(Eh)            E(eV)
   0   2.0000     -88.967883     -2420.9392
   1   2.0000     -88.964230     -2420.8398
   2   2.0000     -10.333855      -281.1985
   3   2.0000     -10.325311      -280.9660
   4   2.0000     -10.323096      -280.9057
   5   2.0000     -10.307028      -280.4685
   6   2.0000     -10.306593      -280.4566
   7   2.0000     -10.305720      -280.4329
   8   2.0000     -10.303831      -280.3815
   9   2.0000     -10.296673      -280.1867
  10   2.0000     -10.292454      -280.0719
  11   2.0000     -10.290133      -280.0087
  12   2.0000     -10.288908      -279.9754
  13   2.0000     -10.279577      -279.7215
  14   2.0000     -10.278529      -279.6930
  15   2.0000     -10.277307      -279.6597
  16   2.0000      -8.081342      -219.9045
  17   2.0000      -8.079514      -219.8547
  18   2.0000      -6.039979      -164.3562
  19   2.0000      -6.038096      -164.3050
  20   2.0000      -6.036103      -164.2507
  21   2.0000      -6.033945      -164.1920
  22   2.0000      -6.031966      -164.1381
  23   2.0000      -6.030139      -164.0884
  24   2.0000      -1.006520       -27.3888
  25   2.0000      -0.980952       -26.6931
  26   2.0000      -0.912243       -24.8234
  27   2.0000      -0.908817       -24.7302
  28   2.0000      -0.870218       -23.6798
  29   2.0000      -0.850625       -23.1467
  30   2.0000      -0.845485       -23.0068
  31   2.0000      -0.815817       -22.1995
  32   2.0000      -0.779625       -21.2147
  33   2.0000      -0.762441       -20.7471
  34   2.0000      -0.705110       -19.1870
  35   2.0000      -0.699270       -19.0281
  36   2.0000      -0.690717       -18.7954
  37   2.0000      -0.657791       -17.8994
  38   2.0000      -0.633991       -17.2518
  39   2.0000      -0.624175       -16.9847
  40   2.0000      -0.595200       -16.1962
  41   2.0000      -0.573977       -15.6187
  42   2.0000      -0.564061       -15.3489
  43   2.0000      -0.558358       -15.1937
  44   2.0000      -0.531730       -14.4691
  45   2.0000      -0.519688       -14.1414
  46   2.0000      -0.513294       -13.9674
  47   2.0000      -0.509584       -13.8665
  48   2.0000      -0.505967       -13.7681
  49   2.0000      -0.504576       -13.7302
  50   2.0000      -0.488600       -13.2955
  51   2.0000      -0.473736       -12.8910
  52   2.0000      -0.467535       -12.7223
  53   2.0000      -0.463896       -12.6232
  54   2.0000      -0.455782       -12.4025
  55   2.0000      -0.447410       -12.1746
  56   2.0000      -0.442650       -12.0451
  57   2.0000      -0.438584       -11.9345
  58   2.0000      -0.433081       -11.7847
  59   2.0000      -0.423337       -11.5196
  60   2.0000      -0.420720       -11.4484
  61   2.0000      -0.414993       -11.2925
  62   2.0000      -0.407260       -11.0821
  63   2.0000      -0.336804        -9.1649
  64   2.0000      -0.332594        -9.0503
  65   2.0000      -0.322461        -8.7746
  66   2.0000      -0.301571        -8.2062
  67   0.0000       0.036756         1.0002
  68   0.0000       0.059337         1.6146
  69   0.0000       0.101721         2.7680
  70   0.0000       0.112446         3.0598
  71   0.0000       0.131944         3.5904

MULLIKEN ATOMIC CHARGES
-----------------------
   0 S :    0.106109
   1 C :   -0.152540
   2 C :   -0.087499
   3 C :    0.037761
   4 C :   -0.151126
   5 H :    0.016947
   6 C :    0.014938
   7 H :    0.042318
   8 H :    0.047742
   9 C :   -0.102380
  10 H :    0.022175
  11 H :    0.033258
  12 C :   -0.018805
  13 H :    0.036729
  14 H :    0.036645
  15 H :    0.037552
  16 S :    0.117504
  17 C :   -0.048337
  18 C :   -0.068351
  19 C :    0.016694
  20 C :   -0.147445
  21 H :    0.024500
  22 C :    0.017576
  23 H :    0.032611
  24 H :    0.009901
  25 C :   -0.066676
  26 H :    0.012110
  27 H :    0.036182
  28 C :   -0.043579
  29 H :    0.030210
  30 H :    0.025340
  31 H :    0.041490
  32 H :    0.062710
  33 H :    0.027734
Sum of atomic charges:   -0.0000000

LOEWDIN ATOMIC CHARGES
----------------------
   0 S :    0.385267
   1 C :   -0.187996
   2 C :   -0.062399
   3 C :   -0.067269
   4 C :   -0.190065
   5 H :    0.033957
   6 C :   -0.040998
   7 H :    0.035727
   8 H :    0.042994
   9 C :   -0.040610
  10 H :    0.016507
  11 H :    0.027489
  12 C :   -0.064153
  13 H :    0.025183
  14 H :    0.023916
  15 H :    0.034698
  16 S :    0.430239
  17 C :   -0.188629
  18 C :   -0.068739
  19 C :   -0.053163
  20 C :   -0.218147
  21 H :    0.035169
  22 C :   -0.041556
  23 H :    0.034522
  24 H :    0.027849
  25 C :   -0.039380
  26 H :    0.016077
  27 H :    0.024963
  28 C :   -0.063452
  29 H :    0.025842
  30 H :    0.022349
  31 H :    0.028579
  32 H :    0.032534
  33 H :    0.022696

  Mayer bond orders larger than 0.100000
B(  0-S ,  1-C ) :   1.1233 B(  0-S ,  4-C ) :   1.1544 B(  1-C ,  2-C ) :   1.6204
B(  1-C ,  4-C ) :   0.1001 B(  1-C , 32-H ) :   0.9643 B(  2-C ,  3-C ) :   1.2383
B(  2-C ,  6-C ) :   1.0195 B(  3-C ,  4-C ) :   1.5874 B(  3-C ,  5-H ) :   0.9918
B(  4-C , 20-C ) :   0.9967 B(  6-C ,  7-H ) :   0.9446 B(  6-C ,  8-H ) :   0.9346
B(  6-C ,  9-C ) :   1.0582 B(  9-C , 10-H ) :   0.9636 B(  9-C , 11-H ) :   0.9638
B(  9-C , 12-C ) :   1.0572 B( 12-C , 13-H ) :   0.9784 B( 12-C , 14-H ) :   0.9787
B( 12-C , 15-H ) :   0.9809 B( 16-S , 17-C ) :   1.1475 B( 16-S , 20-C ) :   1.1510
B( 17-C , 18-C ) :   1.6487 B( 17-C , 33-H ) :   0.9657 B( 18-C , 19-C ) :   1.2250
B( 18-C , 21-H ) :   0.9897 B( 19-C , 20-C ) :   1.5787 B( 19-C , 22-C ) :   1.0640
B( 22-C , 23-H ) :   0.9339 B( 22-C , 24-H ) :   0.9352 B( 22-C , 25-C ) :   1.0548
B( 25-C , 26-H ) :   0.9527 B( 25-C , 27-H ) :   0.9567 B( 25-C , 28-C ) :   1.0748
B( 28-C , 29-H ) :   0.9764 B( 28-C , 30-H ) :   0.9698 B( 28-C , 31-H ) :   0.9734

Dispersion correction           -0.014159143
FINAL SINGLE POINT ENERGY     -1339.865314904704

DIPOLE MOMENT
-------------
                                X             Y             Z
Electronic contribution:     10.83237     -22.52803      -9.70655
Nuclear contribution   :    -10.92360      23.00499      10.17062
                        -----------------------------------------
Total Dipole Moment    :     -0.09123       0.47696       0.46408
                        -----------------------------------------
Magnitude (a.u.)       :      0.67170
Magnitude (Debye)      :      1.70731

Rotational constants in cm-1:     0.018863     0.008029     0.006892
Rotational constants in MHz :   565.493398   240.713399   206.609294

                             ****ORCA TERMINATED NORMALLY****
TOTAL RUN TIME: 0 days 0 hours 0 minutes 29 seconds 527 msec
