                         Program Version 4.2.1 -  RELEASE  -
|  1> ! wB97X-D3 SP def2-SVP
|  2> %pal
|  3> nprocs 16
|  4> end
|  5>
|  6> * xyz 0 1
|  7> S 	 -107.379 	 40.5673 	 129.542
|  8> C 	 -106.438 	 40.5621 	 131.025
|  9> C 	 -107.254 	 41.0171 	 132.067
| 10> C 	 -108.571 	 41.2181 	 131.69
| 11> C 	 -108.831 	 40.9154 	 130.408
| 12> H 	 -109.303 	 41.6843 	 132.375
| 13> C 	 -106.712 	 41.3098 	 133.447
| 14> H 	 -106.979 	 42.251 	 133.92
| 15> H 	 -105.634 	 41.4846 	 133.415
| 16> C 	 -106.923 	 40.1198 	 134.369
| 17> H 	 -106.558 	 40.3035 	 135.388
| 18> H 	 -108.024 	 39.9532 	 134.469
| 19> C 	 -106.348 	 38.7751 	 133.972
| 20> H 	 -106.581 	 37.9856 	 134.673
| 21> H 	 -106.751 	 38.4448 	 133.045
| 22> H 	 -105.302 	 38.9106 	 133.822
| 23> S 	 -110.032 	 40.9261 	 128.006
| 24> C 	 -111.764 	 40.9389 	 127.894
| 25> C 	 -112.355 	 41.1239 	 129.103
| 26> C 	 -111.386 	 41.1329 	 130.179
| 27> C 	 -110.07 	 41.0057 	 129.727
| 28> H 	 -113.456 	 41.083 	 129.037
| 29> C 	 -111.968 	 41.2051 	 131.618
| 30> H 	 -111.416 	 40.6897 	 132.38
| 31> H 	 -112.933 	 40.67 	 131.659
| 32> C 	 -112.297 	 42.6146 	 132.196
| 33> H 	 -112.942 	 43.1244 	 131.489
| 34> H 	 -111.363 	 43.2517 	 132.031
| 35> C 	 -112.829 	 42.5747 	 133.625
| 36> H 	 -113.027 	 43.5966 	 133.934
| 37> H 	 -112.054 	 42.1654 	 134.285
| 38> H 	 -113.746 	 41.9473 	 133.783
| 39> H 	 -105.391 	 40.3036 	 131.023
| 40> H 	 -112.45 	 40.624 	 127.115
| 41> *
| 42>
| 43>                          ****END OF INPUT****

CARTESIAN COORDINATES (ANGSTROEM)
---------------------------------
  S    -107.379000   40.567300  129.542000
  C    -106.438000   40.562100  131.025000
  C    -107.254000   41.017100  132.067000
  C    -108.571000   41.218100  131.690000
  C    -108.831000   40.915400  130.408000
  H    -109.303000   41.684300  132.375000
  C    -106.712000   41.309800  133.447000
  H    -106.979000   42.251000  133.920000
  H    -105.634000   41.484600  133.415000
  C    -106.923000   40.119800  134.369000
  H    -106.558000   40.303500  135.388000
  H    -108.024000   39.953200  134.469000
  C    -106.348000   38.775100  133.972000
  H    -106.581000   37.985600  134.673000
  H    -106.751000   38.444800  133.045000
  H    -105.302000   38.910600  133.822000
  S    -110.032000   40.926100  128.006000
  C    -111.764000   40.938900  127.894000
  C    -112.355000   41.123900  129.103000
  C    -111.386000   41.132900  130.179000
  C    -110.070000   41.005700  129.727000
  H    -113.456000   41.083000  129.037000
  C    -111.968000   41.205100  131.618000
  H    -111.416000   40.689700  132.380000
  H    -112.933000   40.670000  131.659000
  C    -112.297000   42.614600  132.196000
  H    -112.942000   43.124400  131.489000
  H    -111.363000   43.251700  132.031000
  C    -112.829000   42.574700  133.625000
  H    -113.027000   43.596600  133.934000
  H    -112.054000   42.165400  134.285000
  H    -113.746000   41.947300  133.783000
  H    -105.391000   40.303600  131.023000
  H    -112.450000   40.624000  127.115000

 Total Charge           Charge          ....    0
 Multiplicity           Mult            ....    1
 Number of Electrons    NEL             ....  134
 Basis Dimension        Dim             ....  322

ORBITAL ENERGIES
----------------

  NO   OCC          E(Eh)            E(eV)
   0   2.0000     -88.966433     -2420.8997
   1   2.0000     -88.966063     -2420.8897
   2   2.0000     -10.327598      -281.0282
   3   2.0000     -10.323802      -280.9249
   4   2.0000     -10.316575      -280.7283
   5   2.0000     -10.311667      -280.5947
   6   2.0000     -10.310888      -280.5735
   7   2.0000     -10.300564      -280.2926
   8   2.0000     -10.293966      -280.1131
   9   2.0000     -10.293578      -280.1025
  10   2.0000     -10.291461      -280.0449
  11   2.0000     -10.291022      -280.0330
  12   2.0000     -10.287961      -279.9497
  13   2.0000     -10.286666      -279.9144
  14   2.0000     -10.283711      -279.8340
  15   2.0000     -10.265621      -279.3418
  16   2.0000      -8.081766      -219.9160
  17   2.0000      -8.081676      -219.9136
  18   2.0000      -6.040326      -164.3656
  19   2.0000      -6.040256      -164.3637
  20   2.0000      -6.036287      -164.2557
  21   2.0000      -6.036120      -164.2512
  22   2.0000      -6.032398      -164.1499
  23   2.0000      -6.032198      -164.1444
  24   2.0000      -1.019628       -27.7455
  25   2.0000      -0.991218       -26.9724
  26   2.0000      -0.916978       -24.9523
  27   2.0000      -0.904585       -24.6150
  28   2.0000      -0.876716       -23.8567
  29   2.0000      -0.856709       -23.3122
  30   2.0000      -0.844672       -22.9847
  31   2.0000      -0.820027       -22.3141
  32   2.0000      -0.787460       -21.4279
  33   2.0000      -0.774639       -21.0790
  34   2.0000      -0.712850       -19.3976
  35   2.0000      -0.695071       -18.9138
  36   2.0000      -0.692440       -18.8422
  37   2.0000      -0.662437       -18.0258
  38   2.0000      -0.639135       -17.3918
  39   2.0000      -0.631070       -17.1723
  40   2.0000      -0.597637       -16.2625
  41   2.0000      -0.574823       -15.6417
  42   2.0000      -0.556505       -15.1433
  43   2.0000      -0.548570       -14.9273
  44   2.0000      -0.546655       -14.8752
  45   2.0000      -0.526055       -14.3147
  46   2.0000      -0.519140       -14.1265
  47   2.0000      -0.512616       -13.9490
  48   2.0000      -0.510134       -13.8815
  49   2.0000      -0.498161       -13.5557
  50   2.0000      -0.495978       -13.4962
  51   2.0000      -0.481185       -13.0937
  52   2.0000      -0.469963       -12.7884
  53   2.0000      -0.468050       -12.7363
  54   2.0000      -0.458928       -12.4881
  55   2.0000      -0.454543       -12.3687
  56   2.0000      -0.448685       -12.2093
  57   2.0000      -0.439059       -11.9474
  58   2.0000      -0.435883       -11.8610
  59   2.0000      -0.422063       -11.4849
  60   2.0000      -0.413242       -11.2449
  61   2.0000      -0.409182       -11.1344
  62   2.0000      -0.406625       -11.0648
  63   2.0000      -0.365967        -9.9585
  64   2.0000      -0.341012        -9.2794
  65   2.0000      -0.327714        -8.9176
  66   2.0000      -0.280829        -7.6417
  67   0.0000       0.015953         0.4341
  68   0.0000       0.084162         2.2902
  69   0.0000       0.097911         2.6643
  70   0.0000       0.119560         3.2534
  71   0.0000       0.132988         3.6188

MULLIKEN ATOMIC CHARGES
-----------------------
   0 S :    0.097880
   1 C :   -0.127912
   2 C :   -0.068495
   3 C :   -0.042852
   4 C :   -0.071363
   5 H :    0.018019
   6 C :    0.087020
   7 H :    0.028301
   8 H :    0.009592
   9 C :   -0.101915
  10 H :    0.026772
  11 H :    0.022169
  12 C :   -0.020108
  13 H :    0.035627
  14 H :    0.027437
  15 H :    0.014072
  16 S :    0.095989
  17 C :   -0.079873
  18 C :   -0.056088
  19 C :   -0.043300
  20 C :   -0.089942
  21 H :    0.032126
  22 C :    0.031904
  23 H :    0.011067
  24 H :    0.017503
  25 C :   -0.089021
  26 H :    0.017395
  27 H :    0.030522
  28 C :   -0.036261
  29 H :    0.040577
  30 H :    0.032480
  31 H :    0.043565
  32 H :    0.052509
  33 H :    0.054605
Sum of atomic charges:    0.0000000

LOEWDIN ATOMIC CHARGES
----------------------
   0 S :    0.409651
   1 C :   -0.189711
   2 C :   -0.057601
   3 C :   -0.070359
   4 C :   -0.191533
   5 H :    0.040130
   6 C :   -0.035540
   7 H :    0.034054
   8 H :    0.028507
   9 C :   -0.044893
  10 H :    0.022056
  11 H :    0.022068
  12 C :   -0.060291
  13 H :    0.029150
  14 H :    0.020152
  15 H :    0.017609
  16 S :    0.412966
  17 C :   -0.197488
  18 C :   -0.073260
  19 C :   -0.055316
  20 C :   -0.195988
  21 H :    0.040699
  22 C :   -0.037823
  23 H :    0.018688
  24 H :    0.030503
  25 C :   -0.050076
  26 H :    0.019101
  27 H :    0.028390
  28 C :   -0.067177
  29 H :    0.029940
  30 H :    0.026882
  31 H :    0.032692
  32 H :    0.027213
  33 H :    0.036606

  Mayer bond orders larger than 0.100000
B(  0-S ,  1-C ) :   1.1395 B(  0-S ,  4-C ) :   1.1503 B(  1-C ,  2-C ) :   1.5603
B(  1-C ,  4-C ) :   0.1056 B(  1-C , 32-H ) :   0.9780 B(  2-C ,  3-C ) :   1.2842
B(  2-C ,  6-C ) :   1.0234 B(  3-C ,  4-C ) :   1.5397 B(  3-C ,  5-H ) :   0.9941
B(  4-C , 20-C ) :   1.1194 B(  6-C ,  7-H ) :   0.9431 B(  6-C ,  8-H ) :   0.9375
B(  6-C ,  9-C ) :   1.0683 B(  9-C , 10-H ) :   0.9559 B(  9-C , 11-H ) :   0.9562
B(  9-C , 12-C ) :   1.0859 B( 12-C , 13-H ) :   0.9713 B( 12-C , 14-H ) :   0.9687
B( 12-C , 15-H ) :   0.9732 B( 16-S , 17-C ) :   1.1376 B( 16-S , 20-C ) :   1.1242
B( 17-C , 18-C ) :   1.6667 B( 17-C , 33-H ) :   0.9589 B( 18-C , 19-C ) :   1.2186
B( 18-C , 21-H ) :   0.9834 B( 19-C , 20-C ) :   1.5909 B( 19-C , 22-C ) :   1.0365
B( 22-C , 23-H ) :   0.9434 B( 22-C , 24-H ) :   0.9353 B( 22-C , 25-C ) :   1.0556
B( 25-C , 26-H ) :   0.9517 B( 25-C , 27-H ) :   0.9518 B( 25-C , 28-C ) :   1.0735
B( 28-C , 29-H ) :   0.9720 B( 28-C , 30-H ) :   0.9729 B( 28-C , 31-H ) :   0.9731

Dispersion correction           -0.014348739
FINAL SINGLE POINT ENERGY     -1339.874710743310

DIPOLE MOMENT
-------------
                                X             Y             Z
Electronic contribution:      5.11037      -1.04354     -29.20947
Nuclear contribution   :     -5.40043       1.10390      29.78878
                        -----------------------------------------
Total Dipole Moment    :     -0.29006       0.06036       0.57931
                        -----------------------------------------
Magnitude (a.u.)       :      0.65068
Magnitude (Debye)      :      1.65389

Rotational constants in cm-1:     0.017139     0.009857     0.006717
Rotational constants in MHz :   513.820560   295.517003   201.379014

                             ****ORCA TERMINATED NORMALLY****
TOTAL RUN TIME: 0 days 0 hours 0 minutes 33 seconds 154 msec
