                         Program Version 4.2.1 -  RELEASE  -
|  1> ! wB97X-D3 SP def2-SVP
|  2> %pal
|  3> nprocs 16
|  4> end
|  5>
|  6> * xyz 0 1
|  7> S 	 17.9755 	 3.97574 	 85.2175
|  8> C 	 18.8302 	 5.28745 	 85.9258
|  9> C 	 18.1233 	 6.08046 	 86.8182
| 10> C 	 16.9223 	 5.44661 	 87.1152
| 11> C 	 16.5588 	 4.43043 	 86.2382
| 12> H 	 16.2904 	 5.67311 	 87.968
| 13> C 	 18.6081 	 7.27992 	 87.5497
| 14> H 	 18.4912 	 6.96944 	 88.6031
| 15> H 	 17.7679 	 8.01243 	 87.396
| 16> C 	 19.9109 	 7.87996 	 87.0574
| 17> H 	 20.7552 	 7.30846 	 87.444
| 18> H 	 19.8041 	 7.92828 	 86.0077
| 19> C 	 20.1861 	 9.34612 	 87.4767
| 20> H 	 20.7369 	 9.45552 	 88.3902
| 21> H 	 20.6125 	 9.75893 	 86.6077
| 22> H 	 19.2968 	 9.90897 	 87.6035
| 23> S 	 15.1287 	 2.04568 	 85.7584
| 24> C 	 13.383 	 2.0747 	 85.9593
| 25> C 	 12.9158 	 3.31525 	 86.2413
| 26> C 	 13.9716 	 4.30839 	 86.3548
| 27> C 	 15.2455 	 3.80287 	 86.1939
| 28> H 	 11.8298 	 3.32929 	 86.1968
| 29> C 	 13.6081 	 5.7846 	 86.5186
| 30> H 	 14.4182 	 6.28439 	 87.0407
| 31> H 	 12.72 	 6.01748 	 87.0566
| 32> C 	 13.4949 	 6.55361 	 85.2276
| 33> H 	 12.7695 	 6.00917 	 84.6179
| 34> H 	 14.3642 	 6.49505 	 84.5394
| 35> C 	 13.1583 	 8.06328 	 85.4321
| 36> H 	 13.1665 	 8.72372 	 84.5489
| 37> H 	 13.8625 	 8.43769 	 86.1784
| 38> H 	 12.1754 	 8.15255 	 85.8534
| 39> H 	 19.7666 	 5.65773 	 85.5625
| 40> H 	 12.7246 	 1.2972 	 85.6751
| 41> *
| 42>
| 43>                          ****END OF INPUT****

CARTESIAN COORDINATES (ANGSTROEM)
---------------------------------
  S     17.975500    3.975740   85.217500
  C     18.830200    5.287450   85.925800
  C     18.123300    6.080460   86.818200
  C     16.922300    5.446610   87.115200
  C     16.558800    4.430430   86.238200
  H     16.290400    5.673110   87.968000
  C     18.608100    7.279920   87.549700
  H     18.491200    6.969440   88.603100
  H     17.767900    8.012430   87.396000
  C     19.910900    7.879960   87.057400
  H     20.755200    7.308460   87.444000
  H     19.804100    7.928280   86.007700
  C     20.186100    9.346120   87.476700
  H     20.736900    9.455520   88.390200
  H     20.612500    9.758930   86.607700
  H     19.296800    9.908970   87.603500
  S     15.128700    2.045680   85.758400
  C     13.383000    2.074700   85.959300
  C     12.915800    3.315250   86.241300
  C     13.971600    4.308390   86.354800
  C     15.245500    3.802870   86.193900
  H     11.829800    3.329290   86.196800
  C     13.608100    5.784600   86.518600
  H     14.418200    6.284390   87.040700
  H     12.720000    6.017480   87.056600
  C     13.494900    6.553610   85.227600
  H     12.769500    6.009170   84.617900
  H     14.364200    6.495050   84.539400
  C     13.158300    8.063280   85.432100
  H     13.166500    8.723720   84.548900
  H     13.862500    8.437690   86.178400
  H     12.175400    8.152550   85.853400
  H     19.766600    5.657730   85.562500
  H     12.724600    1.297200   85.675100

 Total Charge           Charge          ....    0
 Multiplicity           Mult            ....    1
 Number of Electrons    NEL             ....  134
 Basis Dimension        Dim             ....  322

ORBITAL ENERGIES
----------------

  NO   OCC          E(Eh)            E(eV)
   0   2.0000     -88.970398     -2421.0076
   1   2.0000     -88.960788     -2420.7461
   2   2.0000     -10.333405      -281.1863
   3   2.0000     -10.333145      -281.1792
   4   2.0000     -10.312505      -280.6175
   5   2.0000     -10.310952      -280.5753
   6   2.0000     -10.307503      -280.4814
   7   2.0000     -10.297041      -280.1967
   8   2.0000     -10.295081      -280.1434
   9   2.0000     -10.293887      -280.1109
  10   2.0000     -10.291367      -280.0423
  11   2.0000     -10.288723      -279.9704
  12   2.0000     -10.285992      -279.8961
  13   2.0000     -10.282362      -279.7973
  14   2.0000     -10.278993      -279.7056
  15   2.0000     -10.272129      -279.5188
  16   2.0000      -8.084527      -219.9912
  17   2.0000      -8.074936      -219.7302
  18   2.0000      -6.043082      -164.4406
  19   2.0000      -6.039269      -164.3369
  20   2.0000      -6.035130      -164.2242
  21   2.0000      -6.033592      -164.1824
  22   2.0000      -6.029690      -164.0762
  23   2.0000      -6.025421      -163.9600
  24   2.0000      -1.003885       -27.3171
  25   2.0000      -0.982993       -26.7486
  26   2.0000      -0.918746       -25.0004
  27   2.0000      -0.908715       -24.7274
  28   2.0000      -0.871160       -23.7055
  29   2.0000      -0.861330       -23.4380
  30   2.0000      -0.841304       -22.8930
  31   2.0000      -0.817288       -22.2395
  32   2.0000      -0.784694       -21.3526
  33   2.0000      -0.772358       -21.0169
  34   2.0000      -0.720299       -19.6003
  35   2.0000      -0.702690       -19.1212
  36   2.0000      -0.691460       -18.8156
  37   2.0000      -0.660047       -17.9608
  38   2.0000      -0.634938       -17.2775
  39   2.0000      -0.616405       -16.7732
  40   2.0000      -0.596547       -16.2329
  41   2.0000      -0.587694       -15.9920
  42   2.0000      -0.569936       -15.5087
  43   2.0000      -0.560691       -15.2572
  44   2.0000      -0.531959       -14.4753
  45   2.0000      -0.521720       -14.1967
  46   2.0000      -0.518877       -14.1194
  47   2.0000      -0.515923       -14.0390
  48   2.0000      -0.508672       -13.8417
  49   2.0000      -0.496221       -13.5029
  50   2.0000      -0.484081       -13.1725
  51   2.0000      -0.482197       -13.1212
  52   2.0000      -0.475578       -12.9411
  53   2.0000      -0.463656       -12.6167
  54   2.0000      -0.459848       -12.5131
  55   2.0000      -0.448414       -12.2020
  56   2.0000      -0.443897       -12.0791
  57   2.0000      -0.438772       -11.9396
  58   2.0000      -0.433414       -11.7938
  59   2.0000      -0.431786       -11.7495
  60   2.0000      -0.424028       -11.5384
  61   2.0000      -0.417179       -11.3520
  62   2.0000      -0.406629       -11.0649
  63   2.0000      -0.356187        -9.6923
  64   2.0000      -0.332033        -9.0351
  65   2.0000      -0.327580        -8.9139
  66   2.0000      -0.282490        -7.6869
  67   0.0000       0.019977         0.5436
  68   0.0000       0.078438         2.1344
  69   0.0000       0.101021         2.7489
  70   0.0000       0.117727         3.2035
  71   0.0000       0.132098         3.5946

MULLIKEN ATOMIC CHARGES
-----------------------
   0 S :    0.124966
   1 C :   -0.099493
   2 C :   -0.115481
   3 C :   -0.015992
   4 C :   -0.127287
   5 H :    0.031616
   6 C :    0.053674
   7 H :    0.043469
   8 H :    0.029943
   9 C :   -0.087363
  10 H :    0.046794
  11 H :    0.030917
  12 C :    0.006208
  13 H :    0.038537
  14 H :    0.020281
  15 H :    0.006930
  16 S :    0.074419
  17 C :   -0.078032
  18 C :   -0.035219
  19 C :   -0.035464
  20 C :   -0.135263
  21 H :    0.023490
  22 C :    0.099480
  23 H :   -0.008146
  24 H :    0.013602
  25 C :   -0.084589
  26 H :    0.012228
  27 H :    0.031380
  28 C :   -0.037932
  29 H :    0.043849
  30 H :    0.025809
  31 H :    0.021398
  32 H :    0.035697
  33 H :    0.045572
Sum of atomic charges:    0.0000000

LOEWDIN ATOMIC CHARGES
----------------------
   0 S :    0.398251
   1 C :   -0.207742
   2 C :   -0.068446
   3 C :   -0.055985
   4 C :   -0.177107
   5 H :    0.033397
   6 C :   -0.038537
   7 H :    0.039069
   8 H :    0.037806
   9 C :   -0.036919
  10 H :    0.032399
  11 H :    0.023976
  12 C :   -0.054173
  13 H :    0.024931
  14 H :    0.025066
  15 H :    0.019131
  16 S :    0.359436
  17 C :   -0.170228
  18 C :   -0.075460
  19 C :   -0.048666
  20 C :   -0.171153
  21 H :    0.038065
  22 C :   -0.030731
  23 H :    0.022999
  24 H :    0.026520
  25 C :   -0.043763
  26 H :    0.017672
  27 H :    0.026664
  28 C :   -0.065219
  29 H :    0.030964
  30 H :    0.024664
  31 H :    0.019786
  32 H :    0.019117
  33 H :    0.024217

  Mayer bond orders larger than 0.100000
B(  0-S ,  1-C ) :   1.1354 B(  0-S ,  4-C ) :   1.1256 B(  1-C ,  2-C ) :   1.6241
B(  1-C , 32-H ) :   0.9505 B(  2-C ,  3-C ) :   1.2525 B(  2-C ,  6-C ) :   1.0074
B(  3-C ,  4-C ) :   1.5774 B(  3-C ,  5-H ) :   0.9803 B(  4-C , 20-C ) :   1.0926
B(  6-C ,  7-H ) :   0.9337 B(  6-C ,  8-H ) :   0.9295 B(  6-C ,  9-C ) :   1.0830
B(  9-C , 10-H ) :   0.9496 B(  9-C , 11-H ) :   0.9551 B(  9-C , 12-C ) :   1.0852
B( 12-C , 13-H ) :   0.9767 B( 12-C , 14-H ) :   0.9774 B( 12-C , 15-H ) :   0.9717
B( 16-S , 17-C ) :   1.1351 B( 16-S , 20-C ) :   1.0997 B( 17-C , 18-C ) :   1.6742
B( 17-C , 33-H ) :   0.9646 B( 18-C , 19-C ) :   1.1805 B( 18-C , 21-H ) :   0.9916
B( 19-C , 20-C ) :   1.6309 B( 19-C , 22-C ) :   1.0484 B( 22-C , 23-H ) :   0.9248
B( 22-C , 24-H ) :   0.9384 B( 22-C , 25-C ) :   1.0572 B( 25-C , 26-H ) :   0.9539
B( 25-C , 27-H ) :   0.9563 B( 25-C , 28-C ) :   1.0678 B( 28-C , 29-H ) :   0.9758
B( 28-C , 30-H ) :   0.9754 B( 28-C , 31-H ) :   0.9749

Dispersion correction           -0.013763568
FINAL SINGLE POINT ENERGY     -1339.861437213090

DIPOLE MOMENT
-------------
                                X             Y             Z
Electronic contribution:     -0.11627     -30.95337      -5.22471
Nuclear contribution   :     -0.05913      31.72523       5.39140
                        -----------------------------------------
Total Dipole Moment    :     -0.17540       0.77187       0.16669
                        -----------------------------------------
Magnitude (a.u.)       :      0.80891
Magnitude (Debye)      :      2.05608

Rotational constants in cm-1:     0.019609     0.008204     0.006235
Rotational constants in MHz :   587.859873   245.944873   186.931495

                             ****ORCA TERMINATED NORMALLY****
TOTAL RUN TIME: 0 days 0 hours 0 minutes 35 seconds 296 msec
