                         Program Version 4.2.1 -  RELEASE  -
|  1> ! wB97X-D3 SP def2-SVP
|  2> %pal
|  3> nprocs 16
|  4> end
|  5>
|  6> * xyz 0 1
|  7> S 	 -72.6955 	 38.6608 	 121.57
|  8> C 	 -71.1191 	 38.5258 	 122.354
|  9> C 	 -70.3608 	 37.6936 	 121.58
| 10> C 	 -71.1338 	 37.0112 	 120.603
| 11> C 	 -72.4533 	 37.4627 	 120.363
| 12> H 	 -70.7388 	 36.2252 	 120.016
| 13> C 	 -69.0034 	 37.188 	 122.021
| 14> H 	 -68.3806 	 38.0484 	 122.361
| 15> H 	 -68.6756 	 36.674 	 121.099
| 16> C 	 -68.9 	 36.0757 	 123.138
| 17> H 	 -67.8356 	 35.9668 	 123.371
| 18> H 	 -69.4704 	 36.391 	 123.923
| 19> C 	 -69.6188 	 34.7614 	 122.676
| 20> H 	 -70.5498 	 35.0449 	 122.16
| 21> H 	 -69.081 	 34.2656 	 121.89
| 22> H 	 -69.6844 	 34.0133 	 123.414
| 23> S 	 -74.9531 	 38.0605 	 119.347
| 24> C 	 -75.6253 	 36.9929 	 118.138
| 25> C 	 -74.9327 	 35.7706 	 118.102
| 26> C 	 -73.7259 	 35.8138 	 118.844
| 27> C 	 -73.5717 	 36.9698 	 119.615
| 28> H 	 -75.1946 	 34.9974 	 117.393
| 29> C 	 -72.9471 	 34.5993 	 119.009
| 30> H 	 -71.8722 	 34.878 	 118.904
| 31> H 	 -73.2192 	 33.9137 	 118.23
| 32> C 	 -73.3832 	 33.7899 	 120.283
| 33> H 	 -74.498 	 33.8129 	 120.135
| 34> H 	 -73.15 	 34.3436 	 121.203
| 35> C 	 -72.8828 	 32.3155 	 120.519
| 36> H 	 -73.2931 	 31.6262 	 119.802
| 37> H 	 -73.0841 	 32.0066 	 121.567
| 38> H 	 -71.8389 	 32.2322 	 120.312
| 39> H 	 -70.7122 	 38.996 	 123.266
| 40> H 	 -76.632 	 37.1995 	 117.661
| 41> *
| 42>
| 43>                          ****END OF INPUT****

CARTESIAN COORDINATES (ANGSTROEM)
---------------------------------
  S    -72.695500   38.660800  121.570000
  C    -71.119100   38.525800  122.354000
  C    -70.360800   37.693600  121.580000
  C    -71.133800   37.011200  120.603000
  C    -72.453300   37.462700  120.363000
  H    -70.738800   36.225200  120.016000
  C    -69.003400   37.188000  122.021000
  H    -68.380600   38.048400  122.361000
  H    -68.675600   36.674000  121.099000
  C    -68.900000   36.075700  123.138000
  H    -67.835600   35.966800  123.371000
  H    -69.470400   36.391000  123.923000
  C    -69.618800   34.761400  122.676000
  H    -70.549800   35.044900  122.160000
  H    -69.081000   34.265600  121.890000
  H    -69.684400   34.013300  123.414000
  S    -74.953100   38.060500  119.347000
  C    -75.625300   36.992900  118.138000
  C    -74.932700   35.770600  118.102000
  C    -73.725900   35.813800  118.844000
  C    -73.571700   36.969800  119.615000
  H    -75.194600   34.997400  117.393000
  C    -72.947100   34.599300  119.009000
  H    -71.872200   34.878000  118.904000
  H    -73.219200   33.913700  118.230000
  C    -73.383200   33.789900  120.283000
  H    -74.498000   33.812900  120.135000
  H    -73.150000   34.343600  121.203000
  C    -72.882800   32.315500  120.519000
  H    -73.293100   31.626200  119.802000
  H    -73.084100   32.006600  121.567000
  H    -71.838900   32.232200  120.312000
  H    -70.712200   38.996000  123.266000
  H    -76.632000   37.199500  117.661000

 Total Charge           Charge          ....    0
 Multiplicity           Mult            ....    1
 Number of Electrons    NEL             ....  134
 Basis Dimension        Dim             ....  322

ORBITAL ENERGIES
----------------

  NO   OCC          E(Eh)            E(eV)
   0   2.0000     -88.970635     -2421.0140
   1   2.0000     -88.963810     -2420.8283
   2   2.0000     -10.334694      -281.2213
   3   2.0000     -10.333571      -281.1908
   4   2.0000     -10.329761      -281.0871
   5   2.0000     -10.317249      -280.7466
   6   2.0000     -10.302789      -280.3531
   7   2.0000     -10.299477      -280.2630
   8   2.0000     -10.297397      -280.2064
   9   2.0000     -10.296379      -280.1787
  10   2.0000     -10.294887      -280.1381
  11   2.0000     -10.294361      -280.1238
  12   2.0000     -10.292429      -280.0712
  13   2.0000     -10.286128      -279.8998
  14   2.0000     -10.281127      -279.7637
  15   2.0000     -10.272644      -279.5328
  16   2.0000      -8.084951      -220.0027
  17   2.0000      -8.078952      -219.8394
  18   2.0000      -6.043496      -164.4519
  19   2.0000      -6.039470      -164.3423
  20   2.0000      -6.037514      -164.2891
  21   2.0000      -6.035739      -164.2408
  22   2.0000      -6.033220      -164.1723
  23   2.0000      -6.029763      -164.0782
  24   2.0000      -1.012581       -27.5537
  25   2.0000      -0.988535       -26.8994
  26   2.0000      -0.913349       -24.8535
  27   2.0000      -0.909724       -24.7548
  28   2.0000      -0.872690       -23.7471
  29   2.0000      -0.851334       -23.1660
  30   2.0000      -0.839352       -22.8399
  31   2.0000      -0.815252       -22.1841
  32   2.0000      -0.785553       -21.3760
  33   2.0000      -0.774075       -21.0636
  34   2.0000      -0.710455       -19.3325
  35   2.0000      -0.708945       -19.2914
  36   2.0000      -0.694415       -18.8960
  37   2.0000      -0.670562       -18.2469
  38   2.0000      -0.635899       -17.3037
  39   2.0000      -0.620303       -16.8793
  40   2.0000      -0.592562       -16.1244
  41   2.0000      -0.574926       -15.6445
  42   2.0000      -0.567766       -15.4497
  43   2.0000      -0.550969       -14.9926
  44   2.0000      -0.542627       -14.7656
  45   2.0000      -0.526453       -14.3255
  46   2.0000      -0.515811       -14.0359
  47   2.0000      -0.512665       -13.9503
  48   2.0000      -0.511190       -13.9102
  49   2.0000      -0.505820       -13.7641
  50   2.0000      -0.494295       -13.4505
  51   2.0000      -0.482330       -13.1249
  52   2.0000      -0.474515       -12.9122
  53   2.0000      -0.463500       -12.6125
  54   2.0000      -0.454656       -12.3718
  55   2.0000      -0.448539       -12.2054
  56   2.0000      -0.441890       -12.0244
  57   2.0000      -0.437629       -11.9085
  58   2.0000      -0.430543       -11.7157
  59   2.0000      -0.428483       -11.6596
  60   2.0000      -0.421637       -11.4733
  61   2.0000      -0.419455       -11.4139
  62   2.0000      -0.400860       -10.9080
  63   2.0000      -0.363729        -9.8976
  64   2.0000      -0.336692        -9.1618
  65   2.0000      -0.326907        -8.8956
  66   2.0000      -0.280103        -7.6220
  67   0.0000       0.010505         0.2859
  68   0.0000       0.075110         2.0438
  69   0.0000       0.098329         2.6757
  70   0.0000       0.110027         2.9940
  71   0.0000       0.126727         3.4484

MULLIKEN ATOMIC CHARGES
-----------------------
   0 S :    0.076526
   1 C :   -0.114081
   2 C :   -0.073536
   3 C :   -0.031385
   4 C :   -0.073939
   5 H :   -0.013585
   6 C :   -0.009053
   7 H :    0.042190
   8 H :    0.027128
   9 C :   -0.000329
  10 H :    0.042489
  11 H :    0.006449
  12 C :   -0.062667
  13 H :    0.042995
  14 H :    0.009146
  15 H :    0.029054
  16 S :    0.104412
  17 C :   -0.111901
  18 C :   -0.029178
  19 C :   -0.088784
  20 C :   -0.098686
  21 H :    0.027013
  22 C :    0.061678
  23 H :    0.038962
  24 H :    0.004430
  25 C :   -0.109798
  26 H :    0.036200
  27 H :    0.044993
  28 C :   -0.021184
  29 H :    0.023906
  30 H :    0.050142
  31 H :    0.021192
  32 H :    0.062016
  33 H :    0.087186
Sum of atomic charges:   -0.0000000

LOEWDIN ATOMIC CHARGES
----------------------
   0 S :    0.412927
   1 C :   -0.192733
   2 C :   -0.078188
   3 C :   -0.076635
   4 C :   -0.194554
   5 H :    0.014206
   6 C :   -0.035181
   7 H :    0.035352
   8 H :    0.030954
   9 C :   -0.021694
  10 H :    0.028162
  11 H :    0.008661
  12 C :   -0.066234
  13 H :    0.032261
  14 H :    0.018580
  15 H :    0.019508
  16 S :    0.402110
  17 C :   -0.187442
  18 C :   -0.072842
  19 C :   -0.057003
  20 C :   -0.189865
  21 H :    0.033735
  22 C :   -0.037927
  23 H :    0.031124
  24 H :    0.026837
  25 C :   -0.037776
  26 H :    0.031199
  27 H :    0.024648
  28 C :   -0.066467
  29 H :    0.021392
  30 H :    0.036371
  31 H :    0.021406
  32 H :    0.041316
  33 H :    0.043793

  Mayer bond orders larger than 0.100000
B(  0-S ,  1-C ) :   1.1497 B(  0-S ,  4-C ) :   1.1519 B(  1-C ,  2-C ) :   1.5660
B(  1-C ,  4-C ) :   0.1024 B(  1-C , 32-H ) :   0.9676 B(  2-C ,  3-C ) :   1.2792
B(  2-C ,  6-C ) :   1.0430 B(  3-C ,  4-C ) :   1.5216 B(  3-C ,  5-H ) :   0.9860
B(  4-C , 20-C ) :   1.0952 B(  6-C ,  7-H ) :   0.9407 B(  6-C ,  8-H ) :   0.9444
B(  6-C ,  9-C ) :   1.0591 B(  9-C , 10-H ) :   0.9575 B(  9-C , 11-H ) :   0.9549
B(  9-C , 12-C ) :   1.0689 B( 12-C , 13-H ) :   0.9725 B( 12-C , 14-H ) :   0.9727
B( 12-C , 15-H ) :   0.9746 B( 16-S , 17-C ) :   1.1740 B( 16-S , 20-C ) :   1.1236
B( 17-C , 18-C ) :   1.5696 B( 17-C , 20-C ) :   0.1048 B( 17-C , 33-H ) :   0.9572
B( 18-C , 19-C ) :   1.2720 B( 18-C , 21-H ) :   0.9851 B( 19-C , 20-C ) :   1.5429
B( 19-C , 22-C ) :   1.0885 B( 22-C , 23-H ) :   0.9218 B( 22-C , 24-H ) :   0.9240
B( 22-C , 25-C ) :   1.0392 B( 25-C , 26-H ) :   0.9537 B( 25-C , 27-H ) :   0.9605
B( 25-C , 28-C ) :   1.0729 B( 28-C , 29-H ) :   0.9741 B( 28-C , 30-H ) :   0.9754
B( 28-C , 31-H ) :   0.9745

Dispersion correction           -0.015369380
FINAL SINGLE POINT ENERGY     -1339.853107930903

DIPOLE MOMENT
-------------
                                X             Y             Z
Electronic contribution:    -16.11335      25.51401      -6.68878
Nuclear contribution   :     16.34647     -26.20708       6.69191
                        -----------------------------------------
Total Dipole Moment    :      0.23311      -0.69307       0.00312
                        -----------------------------------------
Magnitude (a.u.)       :      0.73123
Magnitude (Debye)      :      1.85865

Rotational constants in cm-1:     0.018324     0.010384     0.007116
Rotational constants in MHz :   549.343635   311.304369   213.319151

                             ****ORCA TERMINATED NORMALLY****
TOTAL RUN TIME: 0 days 0 hours 0 minutes 36 seconds 276 msec
