                         Program Version 4.2.1 -  RELEASE  -
|  1> ! wB97X-D3 SP def2-SVP
|  2> %pal
|  3> nprocs 16
|  4> end
|  5>
|  6> * xyz 0 1
|  7> S 	 -79.9542 	 44.7406 	 126.967
|  8> C 	 -81.6628 	 44.4585 	 126.895
|  9> C 	 -82.2246 	 44.2234 	 128.193
| 10> C 	 -81.2071 	 44.4695 	 129.208
| 11> C 	 -79.9617 	 44.686 	 128.763
| 12> H 	 -81.291 	 44.2911 	 130.287
| 13> C 	 -83.712 	 43.9242 	 128.422
| 14> H 	 -84.1393 	 43.7662 	 127.488
| 15> H 	 -84.0717 	 44.891 	 128.803
| 16> C 	 -84.1818 	 42.9086 	 129.523
| 17> H 	 -83.7201 	 43.2993 	 130.49
| 18> H 	 -85.2432 	 42.7729 	 129.571
| 19> C 	 -83.5888 	 41.5049 	 129.451
| 20> H 	 -83.9633 	 41.0692 	 128.495
| 21> H 	 -82.449 	 41.5388 	 129.503
| 22> H 	 -83.8248 	 40.9155 	 130.332
| 23> S 	 -78.0167 	 46.2714 	 130.102
| 24> C 	 -76.7977 	 45.4776 	 131.036
| 25> C 	 -77.0935 	 44.1297 	 131.02
| 26> C 	 -78.1828 	 43.6861 	 130.335
| 27> C 	 -78.808 	 44.7341 	 129.635
| 28> H 	 -76.5321 	 43.5076 	 131.639
| 29> C 	 -78.5581 	 42.1946 	 130.319
| 30> H 	 -79.5807 	 42.0345 	 130.175
| 31> H 	 -78.4463 	 41.7864 	 131.336
| 32> C 	 -77.7301 	 41.2616 	 129.474
| 33> H 	 -76.7678 	 41.5379 	 129.85
| 34> H 	 -77.833 	 41.5366 	 128.427
| 35> C 	 -78.0582 	 39.7391 	 129.533
| 36> H 	 -77.9735 	 39.3775 	 130.594
| 37> H 	 -77.2864 	 39.1398 	 129.087
| 38> H 	 -79.0026 	 39.4656 	 129.044
| 39> H 	 -82.2588 	 44.4155 	 125.992
| 40> H 	 -76.0944 	 45.8782 	 131.724
| 41> *
| 42>
| 43>                          ****END OF INPUT****

CARTESIAN COORDINATES (ANGSTROEM)
---------------------------------
  S    -79.954200   44.740600  126.967000
  C    -81.662800   44.458500  126.895000
  C    -82.224600   44.223400  128.193000
  C    -81.207100   44.469500  129.208000
  C    -79.961700   44.686000  128.763000
  H    -81.291000   44.291100  130.287000
  C    -83.712000   43.924200  128.422000
  H    -84.139300   43.766200  127.488000
  H    -84.071700   44.891000  128.803000
  C    -84.181800   42.908600  129.523000
  H    -83.720100   43.299300  130.490000
  H    -85.243200   42.772900  129.571000
  C    -83.588800   41.504900  129.451000
  H    -83.963300   41.069200  128.495000
  H    -82.449000   41.538800  129.503000
  H    -83.824800   40.915500  130.332000
  S    -78.016700   46.271400  130.102000
  C    -76.797700   45.477600  131.036000
  C    -77.093500   44.129700  131.020000
  C    -78.182800   43.686100  130.335000
  C    -78.808000   44.734100  129.635000
  H    -76.532100   43.507600  131.639000
  C    -78.558100   42.194600  130.319000
  H    -79.580700   42.034500  130.175000
  H    -78.446300   41.786400  131.336000
  C    -77.730100   41.261600  129.474000
  H    -76.767800   41.537900  129.850000
  H    -77.833000   41.536600  128.427000
  C    -78.058200   39.739100  129.533000
  H    -77.973500   39.377500  130.594000
  H    -77.286400   39.139800  129.087000
  H    -79.002600   39.465600  129.044000
  H    -82.258800   44.415500  125.992000
  H    -76.094400   45.878200  131.724000

 Total Charge           Charge          ....    0
 Multiplicity           Mult            ....    1
 Number of Electrons    NEL             ....  134
 Basis Dimension        Dim             ....  322

ORBITAL ENERGIES
----------------

  NO   OCC          E(Eh)            E(eV)
   0   2.0000     -88.968307     -2420.9507
   1   2.0000     -88.966488     -2420.9012
   2   2.0000     -10.330712      -281.1130
   3   2.0000     -10.326215      -280.9906
   4   2.0000     -10.319985      -280.8211
   5   2.0000     -10.315750      -280.7058
   6   2.0000     -10.312251      -280.6106
   7   2.0000     -10.302433      -280.3435
   8   2.0000     -10.295205      -280.1468
   9   2.0000     -10.294980      -280.1406
  10   2.0000     -10.294852      -280.1372
  11   2.0000     -10.285803      -279.8909
  12   2.0000     -10.283633      -279.8319
  13   2.0000     -10.282595      -279.8036
  14   2.0000     -10.281749      -279.7806
  15   2.0000     -10.281296      -279.7683
  16   2.0000      -8.082430      -219.9341
  17   2.0000      -8.080607      -219.8845
  18   2.0000      -6.040846      -164.3798
  19   2.0000      -6.039181      -164.3345
  20   2.0000      -6.036793      -164.2695
  21   2.0000      -6.035249      -164.2275
  22   2.0000      -6.033537      -164.1809
  23   2.0000      -6.031276      -164.1194
  24   2.0000      -1.005923       -27.3726
  25   2.0000      -0.983186       -26.7539
  26   2.0000      -0.910913       -24.7872
  27   2.0000      -0.906644       -24.6710
  28   2.0000      -0.873519       -23.7697
  29   2.0000      -0.851306       -23.1652
  30   2.0000      -0.845156       -22.9979
  31   2.0000      -0.816726       -22.2243
  32   2.0000      -0.787015       -21.4158
  33   2.0000      -0.772072       -21.0092
  34   2.0000      -0.708960       -19.2918
  35   2.0000      -0.697353       -18.9759
  36   2.0000      -0.689187       -18.7537
  37   2.0000      -0.660561       -17.9748
  38   2.0000      -0.641553       -17.4575
  39   2.0000      -0.619755       -16.8644
  40   2.0000      -0.603277       -16.4160
  41   2.0000      -0.570086       -15.5128
  42   2.0000      -0.566897       -15.4261
  43   2.0000      -0.553385       -15.0584
  44   2.0000      -0.542198       -14.7540
  45   2.0000      -0.523583       -14.2474
  46   2.0000      -0.522072       -14.2063
  47   2.0000      -0.509714       -13.8700
  48   2.0000      -0.506704       -13.7881
  49   2.0000      -0.504172       -13.7192
  50   2.0000      -0.489544       -13.3212
  51   2.0000      -0.479098       -13.0369
  52   2.0000      -0.470196       -12.7947
  53   2.0000      -0.465803       -12.6752
  54   2.0000      -0.464035       -12.6270
  55   2.0000      -0.448106       -12.1936
  56   2.0000      -0.441424       -12.0118
  57   2.0000      -0.433216       -11.7884
  58   2.0000      -0.427956       -11.6453
  59   2.0000      -0.424754       -11.5581
  60   2.0000      -0.420415       -11.4401
  61   2.0000      -0.412008       -11.2113
  62   2.0000      -0.410146       -11.1606
  63   2.0000      -0.340883        -9.2759
  64   2.0000      -0.335925        -9.1410
  65   2.0000      -0.319763        -8.7012
  66   2.0000      -0.303674        -8.2634
  67   0.0000       0.035821         0.9747
  68   0.0000       0.052623         1.4319
  69   0.0000       0.114277         3.1096
  70   0.0000       0.121089         3.2950
  71   0.0000       0.128294         3.4911

MULLIKEN ATOMIC CHARGES
-----------------------
   0 S :    0.117696
   1 C :   -0.119441
   2 C :   -0.130089
   3 C :    0.041778
   4 C :   -0.164749
   5 H :    0.025702
   6 C :    0.110572
   7 H :    0.000567
   8 H :    0.046396
   9 C :   -0.089520
  10 H :    0.031299
  11 H :    0.040562
  12 C :   -0.083794
  13 H :    0.038766
  14 H :    0.043823
  15 H :    0.037066
  16 S :    0.116388
  17 C :   -0.067286
  18 C :   -0.042324
  19 C :    0.018420
  20 C :   -0.210851
  21 H :   -0.010798
  22 C :    0.104897
  23 H :   -0.009500
  24 H :    0.007251
  25 C :   -0.053282
  26 H :    0.011751
  27 H :    0.031330
  28 C :   -0.052161
  29 H :    0.025904
  30 H :    0.030698
  31 H :    0.048663
  32 H :    0.053000
  33 H :    0.051266
Sum of atomic charges:   -0.0000000

LOEWDIN ATOMIC CHARGES
----------------------
   0 S :    0.393069
   1 C :   -0.202130
   2 C :   -0.058469
   3 C :   -0.059470
   4 C :   -0.191388
   5 H :    0.035971
   6 C :   -0.028349
   7 H :    0.017065
   8 H :    0.043169
   9 C :   -0.042870
  10 H :    0.029454
  11 H :    0.025401
  12 C :   -0.075946
  13 H :    0.026067
  14 H :    0.029868
  15 H :    0.024612
  16 S :    0.414004
  17 C :   -0.188180
  18 C :   -0.073287
  19 C :   -0.048432
  20 C :   -0.190422
  21 H :    0.018290
  22 C :   -0.028145
  23 H :    0.015099
  24 H :    0.031111
  25 C :   -0.036729
  26 H :    0.019591
  27 H :    0.024926
  28 C :   -0.068255
  29 H :    0.027922
  30 H :    0.026688
  31 H :    0.030499
  32 H :    0.028582
  33 H :    0.030685

  Mayer bond orders larger than 0.100000
B(  0-S ,  1-C ) :   1.1514 B(  0-S ,  4-C ) :   1.1095 B(  1-C ,  2-C ) :   1.6063
B(  1-C , 32-H ) :   0.9656 B(  2-C ,  3-C ) :   1.2057 B(  2-C ,  6-C ) :   1.0215
B(  3-C ,  4-C ) :   1.6405 B(  3-C ,  5-H ) :   0.9814 B(  4-C , 20-C ) :   1.0492
B(  6-C ,  7-H ) :   0.9404 B(  6-C ,  8-H ) :   0.9380 B(  6-C ,  9-C ) :   1.0605
B(  9-C , 10-H ) :   0.9547 B(  9-C , 11-H ) :   0.9590 B(  9-C , 12-C ) :   1.0807
B( 12-C , 13-H ) :   0.9758 B( 12-C , 14-H ) :   0.9722 B( 12-C , 15-H ) :   0.9731
B( 16-S , 17-C ) :   1.1720 B( 16-S , 20-C ) :   1.1610 B( 17-C , 18-C ) :   1.5578
B( 17-C , 20-C ) :   0.1174 B( 17-C , 33-H ) :   0.9700 B( 18-C , 19-C ) :   1.3147
B( 18-C , 21-H ) :   0.9893 B( 19-C , 20-C ) :   1.5271 B( 19-C , 22-C ) :   1.0411
B( 22-C , 23-H ) :   0.9244 B( 22-C , 24-H ) :   0.9283 B( 22-C , 25-C ) :   1.0611
B( 25-C , 26-H ) :   0.9561 B( 25-C , 27-H ) :   0.9538 B( 25-C , 28-C ) :   1.0837
B( 28-C , 29-H ) :   0.9722 B( 28-C , 30-H ) :   0.9730 B( 28-C , 31-H ) :   0.9750

Dispersion correction           -0.014591208
FINAL SINGLE POINT ENERGY     -1339.859354801123

DIPOLE MOMENT
-------------
                                X             Y             Z
Electronic contribution:     11.78219      25.87507      -6.38189
Nuclear contribution   :    -12.12454     -26.42205       6.77838
                        -----------------------------------------
Total Dipole Moment    :     -0.34235      -0.54698       0.39649
                        -----------------------------------------
Magnitude (a.u.)       :      0.75736
Magnitude (Debye)      :      1.92505

Rotational constants in cm-1:     0.015950     0.009440     0.007412
Rotational constants in MHz :   478.161137   283.006602   222.205161

                             ****ORCA TERMINATED NORMALLY****
TOTAL RUN TIME: 0 days 0 hours 0 minutes 34 seconds 332 msec
