                         Program Version 4.2.1 -  RELEASE  -
|  1> ! wB97X-D3 SP def2-SVP
|  2> %pal
|  3> nprocs 16
|  4> end
|  5>
|  6> * xyz 0 1
|  7> S 	 -37.9328 	 32.4453 	 76.4505
|  8> C 	 -38.4669 	 33.5619 	 77.6591
|  9> C 	 -37.8235 	 33.4321 	 78.8299
| 10> C 	 -36.9548 	 32.29 	 78.7944
| 11> C 	 -36.9652 	 31.5922 	 77.6267
| 12> H 	 -36.3275 	 31.9541 	 79.6166
| 13> C 	 -37.9228 	 34.2559 	 80.0773
| 14> H 	 -38.3509 	 35.2198 	 79.8874
| 15> H 	 -36.9097 	 34.3642 	 80.4515
| 16> C 	 -38.7075 	 33.4946 	 81.1175
| 17> H 	 -38.1238 	 32.5578 	 81.3334
| 18> H 	 -38.765 	 34.121 	 82.0119
| 19> C 	 -40.2108 	 33.2012 	 80.6181
| 20> H 	 -40.9194 	 34.1204 	 80.6291
| 21> H 	 -40.2256 	 32.7101 	 79.6477
| 22> H 	 -40.6755 	 32.5474 	 81.3178
| 23> S 	 -34.8538 	 30.4746 	 76.1586
| 24> C 	 -34.4457 	 28.8447 	 76.647
| 25> C 	 -35.2993 	 28.2555 	 77.5189
| 26> C 	 -36.2928 	 29.1982 	 77.9384
| 27> C 	 -36.1699 	 30.4306 	 77.3578
| 28> H 	 -35.2025 	 27.1729 	 77.8073
| 29> C 	 -37.4266 	 28.7034 	 78.7776
| 30> H 	 -37.4754 	 29.4496 	 79.6207
| 31> H 	 -37.1552 	 27.7578 	 79.1848
| 32> C 	 -38.9153 	 28.5571 	 78.2099
| 33> H 	 -39.2022 	 29.5329 	 78.1389
| 34> H 	 -39.5815 	 28.0936 	 78.8702
| 35> C 	 -38.9643 	 27.8524 	 76.8932
| 36> H 	 -38.0923 	 28.079 	 76.3167
| 37> H 	 -39.7915 	 27.9565 	 76.2659
| 38> H 	 -38.9052 	 26.7345 	 77.1248
| 39> H 	 -39.3247 	 34.0925 	 77.5552
| 40> H 	 -33.536 	 28.3302 	 76.1921
| 41> *
| 42>
| 43>                          ****END OF INPUT****

CARTESIAN COORDINATES (ANGSTROEM)
---------------------------------
  S    -37.932800   32.445300   76.450500
  C    -38.466900   33.561900   77.659100
  C    -37.823500   33.432100   78.829900
  C    -36.954800   32.290000   78.794400
  C    -36.965200   31.592200   77.626700
  H    -36.327500   31.954100   79.616600
  C    -37.922800   34.255900   80.077300
  H    -38.350900   35.219800   79.887400
  H    -36.909700   34.364200   80.451500
  C    -38.707500   33.494600   81.117500
  H    -38.123800   32.557800   81.333400
  H    -38.765000   34.121000   82.011900
  C    -40.210800   33.201200   80.618100
  H    -40.919400   34.120400   80.629100
  H    -40.225600   32.710100   79.647700
  H    -40.675500   32.547400   81.317800
  S    -34.853800   30.474600   76.158600
  C    -34.445700   28.844700   76.647000
  C    -35.299300   28.255500   77.518900
  C    -36.292800   29.198200   77.938400
  C    -36.169900   30.430600   77.357800
  H    -35.202500   27.172900   77.807300
  C    -37.426600   28.703400   78.777600
  H    -37.475400   29.449600   79.620700
  H    -37.155200   27.757800   79.184800
  C    -38.915300   28.557100   78.209900
  H    -39.202200   29.532900   78.138900
  H    -39.581500   28.093600   78.870200
  C    -38.964300   27.852400   76.893200
  H    -38.092300   28.079000   76.316700
  H    -39.791500   27.956500   76.265900
  H    -38.905200   26.734500   77.124800
  H    -39.324700   34.092500   77.555200
  H    -33.536000   28.330200   76.192100

 Total Charge           Charge          ....    0
 Multiplicity           Mult            ....    1
 Number of Electrons    NEL             ....  134
 Basis Dimension        Dim             ....  322

ORBITAL ENERGIES
----------------

  NO   OCC          E(Eh)            E(eV)
   0   2.0000     -88.966753     -2420.9084
   1   2.0000     -88.962197     -2420.7845
   2   2.0000     -10.323176      -280.9079
   3   2.0000     -10.322764      -280.8967
   4   2.0000     -10.320847      -280.8445
   5   2.0000     -10.300715      -280.2967
   6   2.0000     -10.300488      -280.2905
   7   2.0000     -10.295934      -280.1666
   8   2.0000     -10.295733      -280.1611
   9   2.0000     -10.294562      -280.1293
  10   2.0000     -10.289953      -280.0038
  11   2.0000     -10.289721      -279.9976
  12   2.0000     -10.287686      -279.9422
  13   2.0000     -10.284955      -279.8679
  14   2.0000     -10.271866      -279.5117
  15   2.0000     -10.264965      -279.3239
  16   2.0000      -8.081358      -219.9049
  17   2.0000      -8.077776      -219.8074
  18   2.0000      -6.039807      -164.3515
  19   2.0000      -6.036242      -164.2545
  20   2.0000      -6.036103      -164.2507
  21   2.0000      -6.032280      -164.1467
  22   2.0000      -6.031977      -164.1385
  23   2.0000      -6.028418      -164.0416
  24   2.0000      -1.012301       -27.5461
  25   2.0000      -0.989601       -26.9284
  26   2.0000      -0.917238       -24.9593
  27   2.0000      -0.905447       -24.6385
  28   2.0000      -0.873125       -23.7589
  29   2.0000      -0.853431       -23.2230
  30   2.0000      -0.840121       -22.8609
  31   2.0000      -0.813394       -22.1336
  32   2.0000      -0.785800       -21.3827
  33   2.0000      -0.774859       -21.0850
  34   2.0000      -0.715849       -19.4792
  35   2.0000      -0.698447       -19.0057
  36   2.0000      -0.691377       -18.8133
  37   2.0000      -0.659057       -17.9339
  38   2.0000      -0.646010       -17.5788
  39   2.0000      -0.622843       -16.9484
  40   2.0000      -0.585750       -15.9391
  41   2.0000      -0.572072       -15.5669
  42   2.0000      -0.559957       -15.2372
  43   2.0000      -0.551430       -15.0052
  44   2.0000      -0.547653       -14.9024
  45   2.0000      -0.541014       -14.7217
  46   2.0000      -0.516563       -14.0564
  47   2.0000      -0.509859       -13.8740
  48   2.0000      -0.495935       -13.4951
  49   2.0000      -0.492192       -13.3932
  50   2.0000      -0.487122       -13.2553
  51   2.0000      -0.480555       -13.0766
  52   2.0000      -0.473304       -12.8792
  53   2.0000      -0.466303       -12.6887
  54   2.0000      -0.460073       -12.5192
  55   2.0000      -0.449068       -12.2198
  56   2.0000      -0.439701       -11.9649
  57   2.0000      -0.434512       -11.8237
  58   2.0000      -0.433613       -11.7992
  59   2.0000      -0.429931       -11.6990
  60   2.0000      -0.424235       -11.5440
  61   2.0000      -0.417111       -11.3502
  62   2.0000      -0.407919       -11.1001
  63   2.0000      -0.345681        -9.4065
  64   2.0000      -0.332371        -9.0443
  65   2.0000      -0.329339        -8.9618
  66   2.0000      -0.296198        -8.0600
  67   0.0000       0.038196         1.0394
  68   0.0000       0.060440         1.6447
  69   0.0000       0.111636         3.0378
  70   0.0000       0.119654         3.2560
  71   0.0000       0.126813         3.4508

MULLIKEN ATOMIC CHARGES
-----------------------
   0 S :    0.103616
   1 C :   -0.087024
   2 C :   -0.095148
   3 C :    0.017984
   4 C :   -0.173914
   5 H :    0.015336
   6 C :    0.123118
   7 H :    0.014864
   8 H :    0.029732
   9 C :   -0.096676
  10 H :    0.040678
  11 H :    0.036222
  12 C :   -0.084430
  13 H :    0.041970
  14 H :    0.051539
  15 H :    0.027895
  16 S :    0.112535
  17 C :   -0.118537
  18 C :   -0.037145
  19 C :   -0.065617
  20 C :   -0.152042
  21 H :    0.044551
  22 C :    0.061318
  23 H :    0.028356
  24 H :    0.005044
  25 C :    0.018719
  26 H :    0.005137
  27 H :    0.016512
  28 C :   -0.048654
  29 H :    0.033987
  30 H :    0.024664
  31 H :    0.019546
  32 H :    0.009936
  33 H :    0.075928
Sum of atomic charges:   -0.0000000

LOEWDIN ATOMIC CHARGES
----------------------
   0 S :    0.402788
   1 C :   -0.184749
   2 C :   -0.058993
   3 C :   -0.058331
   4 C :   -0.195366
   5 H :    0.030900
   6 C :   -0.028425
   7 H :    0.025528
   8 H :    0.035010
   9 C :   -0.035434
  10 H :    0.028309
  11 H :    0.023975
  12 C :   -0.074141
  13 H :    0.035105
  14 H :    0.025034
  15 H :    0.019935
  16 S :    0.387774
  17 C :   -0.183988
  18 C :   -0.081406
  19 C :   -0.057863
  20 C :   -0.193344
  21 H :    0.046504
  22 C :   -0.026468
  23 H :    0.037431
  24 H :    0.018855
  25 C :   -0.022627
  26 H :    0.009898
  27 H :    0.019764
  28 C :   -0.063517
  29 H :    0.024179
  30 H :    0.017105
  31 H :    0.029875
  32 H :    0.007140
  33 H :    0.039543

  Mayer bond orders larger than 0.100000
B(  0-S ,  1-C ) :   1.1292 B(  0-S ,  4-C ) :   1.1324 B(  1-C ,  2-C ) :   1.6408
B(  1-C , 32-H ) :   0.9741 B(  2-C ,  3-C ) :   1.2063 B(  2-C ,  6-C ) :   1.0261
B(  3-C ,  4-C ) :   1.6191 B(  3-C ,  5-H ) :   0.9899 B(  4-C , 20-C ) :   1.0418
B(  6-C ,  7-H ) :   0.9381 B(  6-C ,  8-H ) :   0.9339 B(  6-C ,  9-C ) :   1.0758
B(  9-C , 10-H ) :   0.9573 B(  9-C , 11-H ) :   0.9573 B(  9-C , 12-C ) :   1.0594
B( 12-C , 13-H ) :   0.9752 B( 12-C , 14-H ) :   0.9747 B( 12-C , 15-H ) :   0.9757
B( 16-S , 17-C ) :   1.1519 B( 16-S , 20-C ) :   1.1134 B( 17-C , 18-C ) :   1.6438
B( 17-C , 33-H ) :   0.9530 B( 18-C , 19-C ) :   1.2095 B( 18-C , 21-H ) :   0.9823
B( 19-C , 20-C ) :   1.6302 B( 19-C , 22-C ) :   1.0530 B( 22-C , 23-H ) :   0.9239
B( 22-C , 24-H ) :   0.9371 B( 22-C , 25-C ) :   1.0591 B( 25-C , 26-H ) :   0.9517
B( 25-C , 27-H ) :   0.9571 B( 25-C , 28-C ) :   1.0806 B( 28-C , 29-H ) :   0.9757
B( 28-C , 30-H ) :   0.9746 B( 28-C , 31-H ) :   0.9753

Dispersion correction           -0.016120649
FINAL SINGLE POINT ENERGY     -1339.864192237264

DIPOLE MOMENT
-------------
                                X             Y             Z
Electronic contribution:     16.79521       4.39398     -17.55846
Nuclear contribution   :    -16.99032      -4.53245      18.15129
                        -----------------------------------------
Total Dipole Moment    :     -0.19511      -0.13847       0.59283
                        -----------------------------------------
Magnitude (a.u.)       :      0.63929
Magnitude (Debye)      :      1.62494

Rotational constants in cm-1:     0.020705     0.009324     0.008056
Rotational constants in MHz :   620.714001   279.533741   241.515019

                             ****ORCA TERMINATED NORMALLY****
TOTAL RUN TIME: 0 days 0 hours 0 minutes 33 seconds 68 msec
