                         Program Version 4.2.1 -  RELEASE  -
|  1> ! wB97X-D3 SP def2-SVP
|  2> %pal
|  3> nprocs 16
|  4> end
|  5>
|  6> * xyz 0 1
|  7> S 	 -9.36168 	 51.398 	 44.1242
|  8> C 	 -11.063 	 51.5149 	 44.5615
|  9> C 	 -11.642 	 50.211 	 44.4588
| 10> C 	 -10.6977 	 49.1362 	 44.2204
| 11> C 	 -9.43106 	 49.6499 	 44.1085
| 12> H 	 -10.8707 	 48.1036 	 44.1701
| 13> C 	 -13.1124 	 49.8912 	 44.6601
| 14> H 	 -13.5738 	 50.0772 	 43.6677
| 15> H 	 -13.5709 	 50.6242 	 45.3108
| 16> C 	 -13.4958 	 48.5059 	 45.1517
| 17> H 	 -14.6282 	 48.4354 	 45.0734
| 18> H 	 -13.0979 	 47.7751 	 44.5822
| 19> C 	 -13.011 	 48.3386 	 46.6
| 20> H 	 -13.7323 	 48.6275 	 47.3978
| 21> H 	 -12.783 	 47.3468 	 46.7271
| 22> H 	 -12.0898 	 48.905 	 46.8085
| 23> S 	 -7.12423 	 49.1394 	 42.5916
| 24> C 	 -6.10031 	 47.8991 	 43.109
| 25> C 	 -6.43827 	 47.3205 	 44.3171
| 26> C 	 -7.70077 	 47.8631 	 44.7886
| 27> C 	 -8.28005 	 48.8095 	 43.8776
| 28> H 	 -5.84283 	 46.5407 	 44.7046
| 29> C 	 -8.19421 	 47.3998 	 46.1855
| 30> H 	 -8.04505 	 46.2853 	 46.1704
| 31> H 	 -9.289 	 47.4164 	 46.1683
| 32> C 	 -7.56448 	 48.1693 	 47.3364
| 33> H 	 -8.16685 	 49.0712 	 47.261
| 34> H 	 -6.48174 	 48.3637 	 47.1837
| 35> C 	 -7.90284 	 47.5891 	 48.765
| 36> H 	 -8.94296 	 47.495 	 48.7728
| 37> H 	 -7.60232 	 48.2885 	 49.5309
| 38> H 	 -7.38131 	 46.6848 	 49.1492
| 39> H 	 -11.5505 	 52.3825 	 45.0239
| 40> H 	 -5.10701 	 47.7721 	 42.6441
| 41> *
| 42>
| 43>                          ****END OF INPUT****

CARTESIAN COORDINATES (ANGSTROEM)
---------------------------------
  S     -9.361680   51.398000   44.124200
  C    -11.063000   51.514900   44.561500
  C    -11.642000   50.211000   44.458800
  C    -10.697700   49.136200   44.220400
  C     -9.431060   49.649900   44.108500
  H    -10.870700   48.103600   44.170100
  C    -13.112400   49.891200   44.660100
  H    -13.573800   50.077200   43.667700
  H    -13.570900   50.624200   45.310800
  C    -13.495800   48.505900   45.151700
  H    -14.628200   48.435400   45.073400
  H    -13.097900   47.775100   44.582200
  C    -13.011000   48.338600   46.600000
  H    -13.732300   48.627500   47.397800
  H    -12.783000   47.346800   46.727100
  H    -12.089800   48.905000   46.808500
  S     -7.124230   49.139400   42.591600
  C     -6.100310   47.899100   43.109000
  C     -6.438270   47.320500   44.317100
  C     -7.700770   47.863100   44.788600
  C     -8.280050   48.809500   43.877600
  H     -5.842830   46.540700   44.704600
  C     -8.194210   47.399800   46.185500
  H     -8.045050   46.285300   46.170400
  H     -9.289000   47.416400   46.168300
  C     -7.564480   48.169300   47.336400
  H     -8.166850   49.071200   47.261000
  H     -6.481740   48.363700   47.183700
  C     -7.902840   47.589100   48.765000
  H     -8.942960   47.495000   48.772800
  H     -7.602320   48.288500   49.530900
  H     -7.381310   46.684800   49.149200
  H    -11.550500   52.382500   45.023900
  H     -5.107010   47.772100   42.644100

 Total Charge           Charge          ....    0
 Multiplicity           Mult            ....    1
 Number of Electrons    NEL             ....  134
 Basis Dimension        Dim             ....  322

ORBITAL ENERGIES
----------------

  NO   OCC          E(Eh)            E(eV)
   0   2.0000     -88.968158     -2420.9467
   1   2.0000     -88.966631     -2420.9051
   2   2.0000     -10.327935      -281.0374
   3   2.0000     -10.327627      -281.0290
   4   2.0000     -10.319190      -280.7994
   5   2.0000     -10.313609      -280.6476
   6   2.0000     -10.311391      -280.5872
   7   2.0000     -10.309238      -280.5286
   8   2.0000     -10.294943      -280.1396
   9   2.0000     -10.291713      -280.0518
  10   2.0000     -10.291299      -280.0405
  11   2.0000     -10.290493      -280.0186
  12   2.0000     -10.288499      -279.9643
  13   2.0000     -10.284238      -279.8484
  14   2.0000     -10.276617      -279.6410
  15   2.0000     -10.272057      -279.5169
  16   2.0000      -8.082448      -219.9346
  17   2.0000      -8.082285      -219.9301
  18   2.0000      -6.041025      -164.3847
  19   2.0000      -6.040608      -164.3733
  20   2.0000      -6.037045      -164.2763
  21   2.0000      -6.036668      -164.2661
  22   2.0000      -6.033195      -164.1716
  23   2.0000      -6.033141      -164.1701
  24   2.0000      -1.004635       -27.3375
  25   2.0000      -0.981297       -26.7025
  26   2.0000      -0.915190       -24.9036
  27   2.0000      -0.904684       -24.6177
  28   2.0000      -0.869121       -23.6500
  29   2.0000      -0.849123       -23.1058
  30   2.0000      -0.843506       -22.9530
  31   2.0000      -0.813085       -22.1252
  32   2.0000      -0.784133       -21.3373
  33   2.0000      -0.768833       -20.9210
  34   2.0000      -0.711220       -19.3533
  35   2.0000      -0.698946       -19.0193
  36   2.0000      -0.689059       -18.7503
  37   2.0000      -0.656240       -17.8572
  38   2.0000      -0.640344       -17.4246
  39   2.0000      -0.626172       -17.0390
  40   2.0000      -0.595719       -16.2103
  41   2.0000      -0.567291       -15.4368
  42   2.0000      -0.557986       -15.1836
  43   2.0000      -0.556158       -15.1338
  44   2.0000      -0.533974       -14.5302
  45   2.0000      -0.523394       -14.2423
  46   2.0000      -0.519074       -14.1247
  47   2.0000      -0.511176       -13.9098
  48   2.0000      -0.505514       -13.7557
  49   2.0000      -0.500201       -13.6112
  50   2.0000      -0.491760       -13.3815
  51   2.0000      -0.481046       -13.0899
  52   2.0000      -0.465869       -12.6769
  53   2.0000      -0.462441       -12.5837
  54   2.0000      -0.457692       -12.4544
  55   2.0000      -0.454732       -12.3739
  56   2.0000      -0.448628       -12.2078
  57   2.0000      -0.435723       -11.8566
  58   2.0000      -0.433655       -11.8004
  59   2.0000      -0.427617       -11.6361
  60   2.0000      -0.415736       -11.3127
  61   2.0000      -0.414616       -11.2823
  62   2.0000      -0.409147       -11.1335
  63   2.0000      -0.345334        -9.3970
  64   2.0000      -0.330120        -8.9830
  65   2.0000      -0.326810        -8.8930
  66   2.0000      -0.287738        -7.8297
  67   0.0000       0.031946         0.8693
  68   0.0000       0.060723         1.6523
  69   0.0000       0.114083         3.1044
  70   0.0000       0.118845         3.2339
  71   0.0000       0.129153         3.5144

MULLIKEN ATOMIC CHARGES
-----------------------
   0 S :    0.116385
   1 C :   -0.139528
   2 C :   -0.101204
   3 C :    0.031108
   4 C :   -0.130042
   5 H :    0.003316
   6 C :    0.051848
   7 H :    0.044195
   8 H :    0.016168
   9 C :   -0.046998
  10 H :    0.042618
  11 H :    0.007681
  12 C :   -0.049405
  13 H :    0.038790
  14 H :    0.009306
  15 H :    0.041652
  16 S :    0.117591
  17 C :   -0.102758
  18 C :   -0.015223
  19 C :   -0.078961
  20 C :   -0.169068
  21 H :    0.010790
  22 C :    0.058427
  23 H :    0.025534
  24 H :    0.008965
  25 C :   -0.064172
  26 H :    0.038298
  27 H :    0.047161
  28 C :   -0.034374
  29 H :    0.021545
  30 H :    0.028008
  31 H :    0.037430
  32 H :    0.066232
  33 H :    0.068685
Sum of atomic charges:    0.0000000

LOEWDIN ATOMIC CHARGES
----------------------
   0 S :    0.401767
   1 C :   -0.216030
   2 C :   -0.049346
   3 C :   -0.059620
   4 C :   -0.187047
   5 H :    0.025803
   6 C :   -0.039190
   7 H :    0.038254
   8 H :    0.027131
   9 C :   -0.033910
  10 H :    0.038342
  11 H :    0.004823
  12 C :   -0.064275
  13 H :    0.031763
  14 H :    0.012330
  15 H :    0.029560
  16 S :    0.428400
  17 C :   -0.205309
  18 C :   -0.071853
  19 C :   -0.042738
  20 C :   -0.213199
  21 H :    0.027414
  22 C :   -0.041317
  23 H :    0.030035
  24 H :    0.024592
  25 C :   -0.036870
  26 H :    0.034681
  27 H :    0.029177
  28 C :   -0.065601
  29 H :    0.017715
  30 H :    0.026334
  31 H :    0.028605
  32 H :    0.036059
  33 H :    0.033520

  Mayer bond orders larger than 0.100000
B(  0-S ,  1-C ) :   1.1218 B(  0-S ,  4-C ) :   1.1531 B(  1-C ,  2-C ) :   1.5980
B(  1-C , 32-H ) :   0.9693 B(  2-C ,  3-C ) :   1.2190 B(  2-C ,  6-C ) :   1.0210
B(  3-C ,  4-C ) :   1.5706 B(  3-C ,  5-H ) :   1.0002 B(  4-C , 20-C ) :   1.0609
B(  6-C ,  7-H ) :   0.9273 B(  6-C ,  8-H ) :   0.9440 B(  6-C ,  9-C ) :   1.0934
B(  9-C , 10-H ) :   0.9511 B(  9-C , 11-H ) :   0.9524 B(  9-C , 12-C ) :   1.0681
B( 12-C , 13-H ) :   0.9738 B( 12-C , 14-H ) :   0.9764 B( 12-C , 15-H ) :   0.9776
B( 16-S , 17-C ) :   1.1869 B( 16-S , 20-C ) :   1.1376 B( 17-C , 18-C ) :   1.5907
B( 17-C , 33-H ) :   0.9577 B( 18-C , 19-C ) :   1.2571 B( 18-C , 21-H ) :   0.9996
B( 19-C , 20-C ) :   1.5596 B( 19-C , 22-C ) :   1.0353 B( 22-C , 23-H ) :   0.9385
B( 22-C , 24-H ) :   0.9319 B( 22-C , 25-C ) :   1.0449 B( 25-C , 26-H ) :   0.9514
B( 25-C , 27-H ) :   0.9635 B( 25-C , 28-C ) :   1.0745 B( 28-C , 29-H ) :   0.9743
B( 28-C , 30-H ) :   0.9751 B( 28-C , 31-H ) :   0.9772

Dispersion correction           -0.014949344
FINAL SINGLE POINT ENERGY     -1339.858580622177

DIPOLE MOMENT
-------------
                                X             Y             Z
Electronic contribution:     14.17462      12.48286     -22.66247
Nuclear contribution   :    -14.40370     -12.82781      23.15388
                        -----------------------------------------
Total Dipole Moment    :     -0.22908      -0.34495       0.49141
                        -----------------------------------------
Magnitude (a.u.)       :      0.64261
Magnitude (Debye)      :      1.63339

Rotational constants in cm-1:     0.016428     0.010035     0.007535
Rotational constants in MHz :   492.492146   300.841054   225.883896

                             ****ORCA TERMINATED NORMALLY****
TOTAL RUN TIME: 0 days 0 hours 0 minutes 33 seconds 613 msec
