                         Program Version 4.2.1 -  RELEASE  -
|  1> ! wB97X-D3 SP def2-SVP
|  2> %pal
|  3> nprocs 16
|  4> end
|  5>
|  6> * xyz 0 1
|  7> S 	 -18.9141 	 -5.42302 	 81.5701
|  8> C 	 -20.0522 	 -6.25158 	 80.4947
|  9> C 	 -21.3628 	 -6.21485 	 81.0185
| 10> C 	 -21.407 	 -5.66529 	 82.3301
| 11> C 	 -20.1394 	 -5.3102 	 82.8238
| 12> H 	 -22.2648 	 -5.48799 	 82.999
| 13> C 	 -22.5805 	 -6.74096 	 80.2571
| 14> H 	 -22.4977 	 -7.66078 	 79.7559
| 15> H 	 -22.7311 	 -6.04581 	 79.4932
| 16> C 	 -23.999 	 -6.56612 	 80.834
| 17> H 	 -23.861 	 -6.80689 	 81.8319
| 18> H 	 -24.3065 	 -5.56959 	 80.5145
| 19> C 	 -25.0241 	 -7.58297 	 80.1209
| 20> H 	 -26.0626 	 -7.27515 	 80.3423
| 21> H 	 -25.1151 	 -7.48002 	 79.0391
| 22> H 	 -24.8522 	 -8.62995 	 80.4056
| 23> S 	 -20.8064 	 -3.40984 	 84.6918
| 24> C 	 -19.8861 	 -3.45416 	 86.1414
| 25> C 	 -19.0584 	 -4.53139 	 86.3036
| 26> C 	 -19.0542 	 -5.31539 	 85.0949
| 27> C 	 -19.8365 	 -4.71441 	 84.1276
| 28> H 	 -18.5991 	 -4.84678 	 87.2698
| 29> C 	 -18.161 	 -6.56822 	 84.8714
| 30> H 	 -18.7327 	 -7.1592 	 84.1447
| 31> H 	 -18.0375 	 -7.10818 	 85.7656
| 32> C 	 -16.8771 	 -6.20667 	 84.3147
| 33> H 	 -16.5406 	 -5.38529 	 85.0355
| 34> H 	 -16.7198 	 -5.85882 	 83.3703
| 35> C 	 -15.8965 	 -7.35556 	 84.4091
| 36> H 	 -16.415 	 -8.15086 	 83.8847
| 37> H 	 -15.7582 	 -7.60647 	 85.4529
| 38> H 	 -14.975 	 -7.21638 	 83.8456
| 39> H 	 -19.9354 	 -6.74586 	 79.547
| 40> H 	 -20.2274 	 -2.80665 	 87.0418
| 41> *
| 42>
| 43>                          ****END OF INPUT****

CARTESIAN COORDINATES (ANGSTROEM)
---------------------------------
  S    -18.914100   -5.423020   81.570100
  C    -20.052200   -6.251580   80.494700
  C    -21.362800   -6.214850   81.018500
  C    -21.407000   -5.665290   82.330100
  C    -20.139400   -5.310200   82.823800
  H    -22.264800   -5.487990   82.999000
  C    -22.580500   -6.740960   80.257100
  H    -22.497700   -7.660780   79.755900
  H    -22.731100   -6.045810   79.493200
  C    -23.999000   -6.566120   80.834000
  H    -23.861000   -6.806890   81.831900
  H    -24.306500   -5.569590   80.514500
  C    -25.024100   -7.582970   80.120900
  H    -26.062600   -7.275150   80.342300
  H    -25.115100   -7.480020   79.039100
  H    -24.852200   -8.629950   80.405600
  S    -20.806400   -3.409840   84.691800
  C    -19.886100   -3.454160   86.141400
  C    -19.058400   -4.531390   86.303600
  C    -19.054200   -5.315390   85.094900
  C    -19.836500   -4.714410   84.127600
  H    -18.599100   -4.846780   87.269800
  C    -18.161000   -6.568220   84.871400
  H    -18.732700   -7.159200   84.144700
  H    -18.037500   -7.108180   85.765600
  C    -16.877100   -6.206670   84.314700
  H    -16.540600   -5.385290   85.035500
  H    -16.719800   -5.858820   83.370300
  C    -15.896500   -7.355560   84.409100
  H    -16.415000   -8.150860   83.884700
  H    -15.758200   -7.606470   85.452900
  H    -14.975000   -7.216380   83.845600
  H    -19.935400   -6.745860   79.547000
  H    -20.227400   -2.806650   87.041800

 Total Charge           Charge          ....    0
 Multiplicity           Mult            ....    1
 Number of Electrons    NEL             ....  134
 Basis Dimension        Dim             ....  322

ORBITAL ENERGIES
----------------

  NO   OCC          E(Eh)            E(eV)
   0   2.0000     -88.970958     -2421.0228
   1   2.0000     -88.970049     -2420.9981
   2   2.0000     -10.328636      -281.0565
   3   2.0000     -10.320218      -280.8274
   4   2.0000     -10.319283      -280.8020
   5   2.0000     -10.312234      -280.6102
   6   2.0000     -10.305484      -280.4265
   7   2.0000     -10.302832      -280.3543
   8   2.0000     -10.298235      -280.2292
   9   2.0000     -10.296365      -280.1783
  10   2.0000     -10.289159      -279.9823
  11   2.0000     -10.287177      -279.9283
  12   2.0000     -10.284943      -279.8675
  13   2.0000     -10.278372      -279.6887
  14   2.0000     -10.268869      -279.4301
  15   2.0000     -10.268522      -279.4207
  16   2.0000      -8.085820      -220.0263
  17   2.0000      -8.084064      -219.9786
  18   2.0000      -6.044072      -164.4676
  19   2.0000      -6.042631      -164.4283
  20   2.0000      -6.040518      -164.3709
  21   2.0000      -6.038714      -164.3218
  22   2.0000      -6.036452      -164.2602
  23   2.0000      -6.034963      -164.2197
  24   2.0000      -1.010375       -27.4937
  25   2.0000      -0.981204       -26.6999
  26   2.0000      -0.925035       -25.1715
  27   2.0000      -0.911225       -24.7957
  28   2.0000      -0.865309       -23.5463
  29   2.0000      -0.855450       -23.2780
  30   2.0000      -0.841593       -22.9009
  31   2.0000      -0.810064       -22.0430
  32   2.0000      -0.785377       -21.3712
  33   2.0000      -0.771313       -20.9885
  34   2.0000      -0.707989       -19.2654
  35   2.0000      -0.693148       -18.8615
  36   2.0000      -0.685002       -18.6398
  37   2.0000      -0.663733       -18.0611
  38   2.0000      -0.631716       -17.1899
  39   2.0000      -0.616066       -16.7640
  40   2.0000      -0.601788       -16.3755
  41   2.0000      -0.584737       -15.9115
  42   2.0000      -0.580876       -15.8064
  43   2.0000      -0.559111       -15.2142
  44   2.0000      -0.527390       -14.3510
  45   2.0000      -0.519822       -14.1451
  46   2.0000      -0.512565       -13.9476
  47   2.0000      -0.506784       -13.7903
  48   2.0000      -0.505839       -13.7646
  49   2.0000      -0.494068       -13.4443
  50   2.0000      -0.485257       -13.2045
  51   2.0000      -0.474819       -12.9205
  52   2.0000      -0.473080       -12.8732
  53   2.0000      -0.467846       -12.7307
  54   2.0000      -0.460731       -12.5371
  55   2.0000      -0.459587       -12.5060
  56   2.0000      -0.446517       -12.1503
  57   2.0000      -0.442021       -12.0280
  58   2.0000      -0.431691       -11.7469
  59   2.0000      -0.425541       -11.5796
  60   2.0000      -0.416800       -11.3417
  61   2.0000      -0.407751       -11.0955
  62   2.0000      -0.399782       -10.8786
  63   2.0000      -0.338825        -9.2199
  64   2.0000      -0.335699        -9.1348
  65   2.0000      -0.327913        -8.9230
  66   2.0000      -0.292067        -7.9476
  67   0.0000       0.030563         0.8317
  68   0.0000       0.067016         1.8236
  69   0.0000       0.103586         2.8187
  70   0.0000       0.114985         3.1289
  71   0.0000       0.137657         3.7458

MULLIKEN ATOMIC CHARGES
-----------------------
   0 S :    0.123355
   1 C :   -0.111332
   2 C :   -0.073053
   3 C :   -0.008131
   4 C :   -0.182941
   5 H :    0.027529
   6 C :    0.072927
   7 H :    0.021017
   8 H :    0.012496
   9 C :   -0.064909
  10 H :    0.032223
  11 H :    0.039283
  12 C :   -0.083031
  13 H :    0.029488
  14 H :    0.027105
  15 H :    0.049703
  16 S :    0.132584
  17 C :   -0.116242
  18 C :   -0.034435
  19 C :   -0.071964
  20 C :   -0.157595
  21 H :    0.037550
  22 C :    0.128680
  23 H :    0.032892
  24 H :    0.005971
  25 C :   -0.064744
  26 H :    0.022089
  27 H :    0.008908
  28 C :   -0.026371
  29 H :    0.016251
  30 H :    0.026699
  31 H :    0.032934
  32 H :    0.034615
  33 H :    0.080448
Sum of atomic charges:    0.0000000

LOEWDIN ATOMIC CHARGES
----------------------
   0 S :    0.418744
   1 C :   -0.206176
   2 C :   -0.053554
   3 C :   -0.079428
   4 C :   -0.187974
   5 H :    0.033389
   6 C :   -0.040502
   7 H :    0.022736
   8 H :    0.031822
   9 C :   -0.020734
  10 H :    0.012792
  11 H :    0.028404
  12 C :   -0.071533
  13 H :    0.028852
  14 H :    0.024208
  15 H :    0.027823
  16 S :    0.435503
  17 C :   -0.206160
  18 C :   -0.078749
  19 C :   -0.039851
  20 C :   -0.222991
  21 H :    0.041378
  22 C :   -0.023253
  23 H :    0.031136
  24 H :    0.025649
  25 C :   -0.045126
  26 H :    0.027835
  27 H :    0.003371
  28 C :   -0.057387
  29 H :    0.023702
  30 H :    0.020316
  31 H :    0.025854
  32 H :    0.027751
  33 H :    0.042154

  Mayer bond orders larger than 0.100000
B(  0-S ,  1-C ) :   1.1322 B(  0-S ,  4-C ) :   1.1676 B(  1-C ,  2-C ) :   1.6085
B(  1-C ,  4-C ) :   0.1088 B(  1-C , 32-H ) :   0.9710 B(  2-C ,  3-C ) :   1.2564
B(  2-C ,  6-C ) :   0.9969 B(  3-C ,  4-C ) :   1.5638 B(  3-C ,  5-H ) :   0.9829
B(  4-C , 20-C ) :   1.0143 B(  6-C ,  7-H ) :   0.9510 B(  6-C ,  8-H ) :   0.9335
B(  6-C ,  9-C ) :   1.0490 B(  9-C , 10-H ) :   0.9553 B(  9-C , 11-H ) :   0.9702
B(  9-C , 12-C ) :   1.0838 B( 12-C , 13-H ) :   0.9736 B( 12-C , 14-H ) :   0.9744
B( 12-C , 15-H ) :   0.9786 B( 16-S , 17-C ) :   1.1662 B( 16-S , 20-C ) :   1.1447
B( 17-C , 18-C ) :   1.6158 B( 17-C , 33-H ) :   0.9496 B( 18-C , 19-C ) :   1.2495
B( 18-C , 21-H ) :   0.9835 B( 19-C , 20-C ) :   1.5946 B( 19-C , 22-C ) :   1.0404
B( 22-C , 23-H ) :   0.9085 B( 22-C , 24-H ) :   0.9313 B( 22-C , 25-C ) :   1.0777
B( 25-C , 26-H ) :   0.9529 B( 25-C , 27-H ) :   0.9482 B( 25-C , 28-C ) :   1.0861
B( 28-C , 29-H ) :   0.9681 B( 28-C , 30-H ) :   0.9767 B( 28-C , 31-H ) :   0.9743

Dispersion correction           -0.014082844
FINAL SINGLE POINT ENERGY     -1339.830302741055

DIPOLE MOMENT
-------------
                                X             Y             Z
Electronic contribution:      4.23948      16.37867       5.24589
Nuclear contribution   :     -4.56135     -16.70995      -5.20210
                        -----------------------------------------
Total Dipole Moment    :     -0.32188      -0.33127       0.04380
                        -----------------------------------------
Magnitude (a.u.)       :      0.46397
Magnitude (Debye)      :      1.17931

Rotational constants in cm-1:     0.019726     0.008100     0.006489
Rotational constants in MHz :   591.365147   242.833055   194.548713

                             ****ORCA TERMINATED NORMALLY****
TOTAL RUN TIME: 0 days 0 hours 0 minutes 31 seconds 222 msec
