                         Program Version 4.2.1 -  RELEASE  -
|  1> ! wB97X-D3 SP def2-SVP
|  2> %pal
|  3> nprocs 16
|  4> end
|  5>
|  6> * xyz 0 1
|  7> S 	 -48.1891 	 29.3984 	 90.246
|  8> C 	 -49.7557 	 29.0806 	 90.9223
|  9> C 	 -50.7397 	 29.934 	 90.4763
| 10> C 	 -50.2378 	 30.8266 	 89.5551
| 11> C 	 -48.8494 	 30.763 	 89.4094
| 12> H 	 -50.9397 	 31.4549 	 89.026
| 13> C 	 -52.1217 	 30.0196 	 90.9024
| 14> H 	 -52.4427 	 31.0432 	 90.8455
| 15> H 	 -52.2291 	 29.7051 	 91.9418
| 16> C 	 -53.1219 	 29.1786 	 90.1498
| 17> H 	 -52.989 	 29.1427 	 89.1314
| 18> H 	 -52.9193 	 28.1874 	 90.6157
| 19> C 	 -54.5324 	 29.6581 	 90.3069
| 20> H 	 -55.0996 	 29.0329 	 89.5507
| 21> H 	 -54.804 	 29.4006 	 91.3342
| 22> H 	 -54.7803 	 30.6614 	 90.1021
| 23> S 	 -47.4622 	 30.6461 	 87.0413
| 24> C 	 -46.7594 	 32.0443 	 86.3932
| 25> C 	 -46.8445 	 33.1161 	 87.2826
| 26> C 	 -47.667 	 32.8565 	 88.4197
| 27> C 	 -48.0171 	 31.5196 	 88.4356
| 28> H 	 -46.4261 	 34.0323 	 86.8913
| 29> C 	 -48.033 	 33.9032 	 89.4827
| 30> H 	 -47.0724 	 34.1857 	 89.8819
| 31> H 	 -48.5658 	 33.3201 	 90.2741
| 32> C 	 -48.7116 	 35.2619 	 88.9668
| 33> H 	 -49.36 	 35.1097 	 88.1175
| 34> H 	 -47.9208 	 35.8935 	 88.4172
| 35> C 	 -49.317 	 36.0196 	 90.1872
| 36> H 	 -49.9424 	 35.341 	 90.8106
| 37> H 	 -49.9137 	 36.87 	 89.8819
| 38> H 	 -48.5373 	 36.3985 	 90.7997
| 39> H 	 -49.8456 	 28.1708 	 91.5678
| 40> H 	 -46.2867 	 32.1274 	 85.4294
| 41> *
| 42>
| 43>                          ****END OF INPUT****

CARTESIAN COORDINATES (ANGSTROEM)
---------------------------------
  S    -48.189100   29.398400   90.246000
  C    -49.755700   29.080600   90.922300
  C    -50.739700   29.934000   90.476300
  C    -50.237800   30.826600   89.555100
  C    -48.849400   30.763000   89.409400
  H    -50.939700   31.454900   89.026000
  C    -52.121700   30.019600   90.902400
  H    -52.442700   31.043200   90.845500
  H    -52.229100   29.705100   91.941800
  C    -53.121900   29.178600   90.149800
  H    -52.989000   29.142700   89.131400
  H    -52.919300   28.187400   90.615700
  C    -54.532400   29.658100   90.306900
  H    -55.099600   29.032900   89.550700
  H    -54.804000   29.400600   91.334200
  H    -54.780300   30.661400   90.102100
  S    -47.462200   30.646100   87.041300
  C    -46.759400   32.044300   86.393200
  C    -46.844500   33.116100   87.282600
  C    -47.667000   32.856500   88.419700
  C    -48.017100   31.519600   88.435600
  H    -46.426100   34.032300   86.891300
  C    -48.033000   33.903200   89.482700
  H    -47.072400   34.185700   89.881900
  H    -48.565800   33.320100   90.274100
  C    -48.711600   35.261900   88.966800
  H    -49.360000   35.109700   88.117500
  H    -47.920800   35.893500   88.417200
  C    -49.317000   36.019600   90.187200
  H    -49.942400   35.341000   90.810600
  H    -49.913700   36.870000   89.881900
  H    -48.537300   36.398500   90.799700
  H    -49.845600   28.170800   91.567800
  H    -46.286700   32.127400   85.429400

 Total Charge           Charge          ....    0
 Multiplicity           Mult            ....    1
 Number of Electrons    NEL             ....  134
 Basis Dimension        Dim             ....  322

ORBITAL ENERGIES
----------------

  NO   OCC          E(Eh)            E(eV)
   0   2.0000     -88.966373     -2420.8981
   1   2.0000     -88.962104     -2420.7819
   2   2.0000     -10.326155      -280.9889
   3   2.0000     -10.319322      -280.8030
   4   2.0000     -10.312295      -280.6118
   5   2.0000     -10.309790      -280.5436
   6   2.0000     -10.301839      -280.3273
   7   2.0000     -10.298872      -280.2465
   8   2.0000     -10.295830      -280.1638
   9   2.0000     -10.288732      -279.9706
  10   2.0000     -10.288603      -279.9671
  11   2.0000     -10.287561      -279.9388
  12   2.0000     -10.280524      -279.7473
  13   2.0000     -10.280432      -279.7448
  14   2.0000     -10.277142      -279.6553
  15   2.0000     -10.276261      -279.6313
  16   2.0000      -8.081723      -219.9149
  17   2.0000      -8.078177      -219.8184
  18   2.0000      -6.039931      -164.3549
  19   2.0000      -6.036456      -164.2603
  20   2.0000      -6.036154      -164.2521
  21   2.0000      -6.032776      -164.1602
  22   2.0000      -6.032464      -164.1517
  23   2.0000      -6.029143      -164.0613
  24   2.0000      -1.010202       -27.4890
  25   2.0000      -0.990495       -26.9527
  26   2.0000      -0.925898       -25.1950
  27   2.0000      -0.897104       -24.4114
  28   2.0000      -0.869533       -23.6612
  29   2.0000      -0.854632       -23.2557
  30   2.0000      -0.847949       -23.0739
  31   2.0000      -0.810420       -22.0526
  32   2.0000      -0.782842       -21.3022
  33   2.0000      -0.769270       -20.9329
  34   2.0000      -0.705336       -19.1932
  35   2.0000      -0.701193       -19.0804
  36   2.0000      -0.694014       -18.8851
  37   2.0000      -0.654612       -17.8129
  38   2.0000      -0.639113       -17.3911
  39   2.0000      -0.631236       -17.1768
  40   2.0000      -0.590030       -16.0555
  41   2.0000      -0.574031       -15.6202
  42   2.0000      -0.567314       -15.4374
  43   2.0000      -0.551880       -15.0174
  44   2.0000      -0.530431       -14.4337
  45   2.0000      -0.524836       -14.2815
  46   2.0000      -0.520709       -14.1692
  47   2.0000      -0.511909       -13.9297
  48   2.0000      -0.501106       -13.6358
  49   2.0000      -0.497997       -13.5512
  50   2.0000      -0.482468       -13.1286
  51   2.0000      -0.479086       -13.0366
  52   2.0000      -0.472177       -12.8486
  53   2.0000      -0.466166       -12.6850
  54   2.0000      -0.458745       -12.4831
  55   2.0000      -0.453887       -12.3509
  56   2.0000      -0.442812       -12.0495
  57   2.0000      -0.437834       -11.9141
  58   2.0000      -0.433040       -11.7836
  59   2.0000      -0.428587       -11.6624
  60   2.0000      -0.422349       -11.4927
  61   2.0000      -0.414516       -11.2796
  62   2.0000      -0.413898       -11.2627
  63   2.0000      -0.337209        -9.1759
  64   2.0000      -0.327182        -8.9031
  65   2.0000      -0.325282        -8.8514
  66   2.0000      -0.296523        -8.0688
  67   0.0000       0.044417         1.2086
  68   0.0000       0.063335         1.7234
  69   0.0000       0.117334         3.1928
  70   0.0000       0.127709         3.4751
  71   0.0000       0.130695         3.5564

MULLIKEN ATOMIC CHARGES
-----------------------
   0 S :    0.119492
   1 C :   -0.163203
   2 C :   -0.040514
   3 C :    0.042843
   4 C :   -0.179380
   5 H :    0.005833
   6 C :    0.063840
   7 H :    0.008428
   8 H :    0.020496
   9 C :   -0.057260
  10 H :    0.008057
  11 H :    0.030712
  12 C :   -0.039822
  13 H :    0.038356
  14 H :    0.026959
  15 H :    0.030099
  16 S :    0.129037
  17 C :   -0.105117
  18 C :   -0.045794
  19 C :   -0.013788
  20 C :   -0.182013
  21 H :    0.012090
  22 C :    0.067046
  23 H :    0.032625
  24 H :    0.042332
  25 C :   -0.102561
  26 H :    0.031878
  27 H :    0.033526
  28 C :   -0.029171
  29 H :    0.039346
  30 H :    0.034735
  31 H :    0.027709
  32 H :    0.059933
  33 H :    0.053252
Sum of atomic charges:   -0.0000000

LOEWDIN ATOMIC CHARGES
----------------------
   0 S :    0.426078
   1 C :   -0.206085
   2 C :   -0.071415
   3 C :   -0.053103
   4 C :   -0.206915
   5 H :    0.031842
   6 C :   -0.033449
   7 H :    0.024559
   8 H :    0.033378
   9 C :   -0.036019
  10 H :    0.009807
  11 H :    0.031623
  12 C :   -0.059986
  13 H :    0.036333
  14 H :    0.025343
  15 H :    0.017617
  16 S :    0.434592
  17 C :   -0.203503
  18 C :   -0.078372
  19 C :   -0.054506
  20 C :   -0.215651
  21 H :    0.027664
  22 C :   -0.030289
  23 H :    0.032982
  24 H :    0.035638
  25 C :   -0.042732
  26 H :    0.018851
  27 H :    0.030684
  28 C :   -0.062341
  29 H :    0.030451
  30 H :    0.025705
  31 H :    0.022650
  32 H :    0.030525
  33 H :    0.028045

  Mayer bond orders larger than 0.100000
B(  0-S ,  1-C ) :   1.1588 B(  0-S ,  4-C ) :   1.1832 B(  1-C ,  2-C ) :   1.5600
B(  1-C ,  4-C ) :   0.1018 B(  1-C , 32-H ) :   0.9640 B(  2-C ,  3-C ) :   1.3021
B(  2-C ,  6-C ) :   1.0355 B(  3-C ,  4-C ) :   1.5272 B(  3-C ,  5-H ) :   0.9965
B(  4-C , 20-C ) :   0.9887 B(  6-C ,  7-H ) :   0.9403 B(  6-C ,  8-H ) :   0.9341
B(  6-C ,  9-C ) :   1.0549 B(  9-C , 10-H ) :   0.9628 B(  9-C , 11-H ) :   0.9559
B(  9-C , 12-C ) :   1.0819 B( 12-C , 13-H ) :   0.9759 B( 12-C , 14-H ) :   0.9737
B( 12-C , 15-H ) :   0.9760 B( 16-S , 17-C ) :   1.1739 B( 16-S , 20-C ) :   1.1638
B( 17-C , 18-C ) :   1.6060 B( 17-C , 33-H ) :   0.9680 B( 18-C , 19-C ) :   1.2285
B( 18-C , 21-H ) :   0.9915 B( 19-C , 20-C ) :   1.6059 B( 19-C , 22-C ) :   1.0391
B( 22-C , 23-H ) :   0.9324 B( 22-C , 24-H ) :   0.9406 B( 22-C , 25-C ) :   1.0328
B( 25-C , 26-H ) :   0.9691 B( 25-C , 27-H ) :   0.9518 B( 25-C , 28-C ) :   1.0714
B( 28-C , 29-H ) :   0.9787 B( 28-C , 30-H ) :   0.9755 B( 28-C , 31-H ) :   0.9752

Dispersion correction           -0.013467686
FINAL SINGLE POINT ENERGY     -1339.866096072662

DIPOLE MOMENT
-------------
                                X             Y             Z
Electronic contribution:     22.09278     -14.89618      -8.56416
Nuclear contribution   :    -22.53624      15.26802       8.59285
                        -----------------------------------------
Total Dipole Moment    :     -0.44346       0.37183       0.02869
                        -----------------------------------------
Magnitude (a.u.)       :      0.57943
Magnitude (Debye)      :      1.47280

Rotational constants in cm-1:     0.016638     0.008306     0.006561
Rotational constants in MHz :   498.784178   249.004068   196.704642

                             ****ORCA TERMINATED NORMALLY****
TOTAL RUN TIME: 0 days 0 hours 0 minutes 28 seconds 785 msec
