                         Program Version 4.2.1 -  RELEASE  -
|  1> ! wB97X-D3 SP def2-SVP
|  2> %pal
|  3> nprocs 16
|  4> end
|  5>
|  6> * xyz 0 1
|  7> S 	 13.7777 	 23.9723 	 65.7668
|  8> C 	 13.2746 	 24.9465 	 64.4769
|  9> C 	 12.6578 	 26.1349 	 64.866
| 10> C 	 12.4967 	 26.1991 	 66.2807
| 11> C 	 13.092 	 25.1069 	 66.8864
| 12> H 	 11.977 	 26.9256 	 66.8559
| 13> C 	 12.2413 	 27.2804 	 63.9418
| 14> H 	 11.2429 	 27.2247 	 63.5097
| 15> H 	 12.8192 	 27.15 	 63.0133
| 16> C 	 12.5771 	 28.7232 	 64.4936
| 17> H 	 12.067 	 29.4337 	 63.8503
| 18> H 	 12.073 	 28.937 	 65.4141
| 19> C 	 14.0444 	 29.1217 	 64.4156
| 20> H 	 14.1118 	 30.2057 	 64.523
| 21> H 	 14.6643 	 28.7116 	 65.2598
| 22> H 	 14.469 	 28.8664 	 63.4838
| 23> S 	 11.8668 	 23.5435 	 68.8105
| 24> C 	 12.4849 	 23.6215 	 70.4959
| 25> C 	 13.5866 	 24.5118 	 70.6298
| 26> C 	 13.9113 	 25.1254 	 69.3299
| 27> C 	 13.1046 	 24.7097 	 68.266
| 28> H 	 13.9192 	 24.8616 	 71.5885
| 29> C 	 15.0707 	 26.0988 	 69.1954
| 30> H 	 15.2255 	 26.5003 	 68.1806
| 31> H 	 15.9985 	 25.4862 	 69.2964
| 32> C 	 15.0594 	 27.2289 	 70.2417
| 33> H 	 16.1108 	 27.5918 	 70.2856
| 34> H 	 15.1287 	 26.8397 	 71.2418
| 35> C 	 13.9566 	 28.3125 	 70.0336
| 36> H 	 13.9951 	 28.6717 	 69.0354
| 37> H 	 14.2505 	 29.1483 	 70.5461
| 38> H 	 12.9815 	 28.0737 	 70.4113
| 39> H 	 13.6504 	 24.8228 	 63.4196
| 40> H 	 12.0104 	 23.3515 	 71.4057
| 41> *
| 42>
| 43>                          ****END OF INPUT****

CARTESIAN COORDINATES (ANGSTROEM)
---------------------------------
  S     13.777700   23.972300   65.766800
  C     13.274600   24.946500   64.476900
  C     12.657800   26.134900   64.866000
  C     12.496700   26.199100   66.280700
  C     13.092000   25.106900   66.886400
  H     11.977000   26.925600   66.855900
  C     12.241300   27.280400   63.941800
  H     11.242900   27.224700   63.509700
  H     12.819200   27.150000   63.013300
  C     12.577100   28.723200   64.493600
  H     12.067000   29.433700   63.850300
  H     12.073000   28.937000   65.414100
  C     14.044400   29.121700   64.415600
  H     14.111800   30.205700   64.523000
  H     14.664300   28.711600   65.259800
  H     14.469000   28.866400   63.483800
  S     11.866800   23.543500   68.810500
  C     12.484900   23.621500   70.495900
  C     13.586600   24.511800   70.629800
  C     13.911300   25.125400   69.329900
  C     13.104600   24.709700   68.266000
  H     13.919200   24.861600   71.588500
  C     15.070700   26.098800   69.195400
  H     15.225500   26.500300   68.180600
  H     15.998500   25.486200   69.296400
  C     15.059400   27.228900   70.241700
  H     16.110800   27.591800   70.285600
  H     15.128700   26.839700   71.241800
  C     13.956600   28.312500   70.033600
  H     13.995100   28.671700   69.035400
  H     14.250500   29.148300   70.546100
  H     12.981500   28.073700   70.411300
  H     13.650400   24.822800   63.419600
  H     12.010400   23.351500   71.405700

 Total Charge           Charge          ....    0
 Multiplicity           Mult            ....    1
 Number of Electrons    NEL             ....  134
 Basis Dimension        Dim             ....  322

ORBITAL ENERGIES
----------------

  NO   OCC          E(Eh)            E(eV)
   0   2.0000     -88.966483     -2420.9011
   1   2.0000     -88.965267     -2420.8680
   2   2.0000     -10.323018      -280.9036
   3   2.0000     -10.322168      -280.8805
   4   2.0000     -10.321150      -280.8528
   5   2.0000     -10.311303      -280.5848
   6   2.0000     -10.306601      -280.4569
   7   2.0000     -10.300922      -280.3023
   8   2.0000     -10.299508      -280.2638
   9   2.0000     -10.295655      -280.1590
  10   2.0000     -10.292793      -280.0811
  11   2.0000     -10.291379      -280.0426
  12   2.0000     -10.288945      -279.9764
  13   2.0000     -10.287619      -279.9403
  14   2.0000     -10.277783      -279.6727
  15   2.0000     -10.269606      -279.4502
  16   2.0000      -8.082489      -219.9357
  17   2.0000      -8.078415      -219.8249
  18   2.0000      -6.040766      -164.3776
  19   2.0000      -6.037219      -164.2811
  20   2.0000      -6.036778      -164.2691
  21   2.0000      -6.033458      -164.1787
  22   2.0000      -6.033109      -164.1693
  23   2.0000      -6.028989      -164.0571
  24   2.0000      -1.006847       -27.3977
  25   2.0000      -0.971607       -26.4388
  26   2.0000      -0.906298       -24.6616
  27   2.0000      -0.901432       -24.5292
  28   2.0000      -0.866256       -23.5720
  29   2.0000      -0.851910       -23.1816
  30   2.0000      -0.841109       -22.8877
  31   2.0000      -0.812538       -22.1103
  32   2.0000      -0.785451       -21.3732
  33   2.0000      -0.770415       -20.9641
  34   2.0000      -0.713726       -19.4215
  35   2.0000      -0.702264       -19.1096
  36   2.0000      -0.687850       -18.7174
  37   2.0000      -0.653696       -17.7880
  38   2.0000      -0.644572       -17.5397
  39   2.0000      -0.621661       -16.9163
  40   2.0000      -0.590149       -16.0588
  41   2.0000      -0.562766       -15.3136
  42   2.0000      -0.551288       -15.0013
  43   2.0000      -0.549706       -14.9583
  44   2.0000      -0.537164       -14.6170
  45   2.0000      -0.532579       -14.4922
  46   2.0000      -0.519883       -14.1467
  47   2.0000      -0.507748       -13.8165
  48   2.0000      -0.493290       -13.4231
  49   2.0000      -0.491088       -13.3632
  50   2.0000      -0.487596       -13.2682
  51   2.0000      -0.479813       -13.0564
  52   2.0000      -0.469077       -12.7642
  53   2.0000      -0.462455       -12.5840
  54   2.0000      -0.457005       -12.4357
  55   2.0000      -0.448509       -12.2045
  56   2.0000      -0.446033       -12.1372
  57   2.0000      -0.437360       -11.9012
  58   2.0000      -0.435197       -11.8423
  59   2.0000      -0.429342       -11.6830
  60   2.0000      -0.421914       -11.4809
  61   2.0000      -0.413272       -11.2457
  62   2.0000      -0.406469       -11.0606
  63   2.0000      -0.339703        -9.2438
  64   2.0000      -0.324564        -8.8318
  65   2.0000      -0.319347        -8.6899
  66   2.0000      -0.301824        -8.2130
  67   0.0000       0.046372         1.2619
  68   0.0000       0.049213         1.3392
  69   0.0000       0.113765         3.0957
  70   0.0000       0.120797         3.2870
  71   0.0000       0.122461         3.3323

MULLIKEN ATOMIC CHARGES
-----------------------
   0 S :    0.139084
   1 C :   -0.128434
   2 C :   -0.088623
   3 C :    0.073129
   4 C :   -0.214358
   5 H :    0.004190
   6 C :    0.060658
   7 H :    0.041777
   8 H :    0.005138
   9 C :   -0.082509
  10 H :    0.016121
  11 H :    0.024639
  12 C :   -0.032450
  13 H :    0.029321
  14 H :    0.044370
  15 H :    0.022796
  16 S :    0.108495
  17 C :   -0.078398
  18 C :   -0.041372
  19 C :   -0.012549
  20 C :   -0.171432
  21 H :    0.024889
  22 C :    0.044870
  23 H :    0.028819
  24 H :    0.037250
  25 C :   -0.098937
  26 H :    0.015364
  27 H :    0.009828
  28 C :    0.042052
  29 H :    0.017504
  30 H :    0.002191
  31 H :    0.041547
  32 H :    0.064593
  33 H :    0.050436
Sum of atomic charges:   -0.0000000

LOEWDIN ATOMIC CHARGES
----------------------
   0 S :    0.446780
   1 C :   -0.228162
   2 C :   -0.067152
   3 C :   -0.046688
   4 C :   -0.204351
   5 H :    0.030215
   6 C :   -0.034858
   7 H :    0.033585
   8 H :    0.028869
   9 C :   -0.042651
  10 H :    0.025654
  11 H :    0.019060
  12 C :   -0.061116
  13 H :    0.027722
  14 H :    0.030788
  15 H :    0.019030
  16 S :    0.375831
  17 C :   -0.171358
  18 C :   -0.065434
  19 C :   -0.048408
  20 C :   -0.207654
  21 H :    0.027543
  22 C :   -0.039072
  23 H :    0.030125
  24 H :    0.039211
  25 C :   -0.047621
  26 H :    0.029866
  27 H :    0.017941
  28 C :   -0.052631
  29 H :    0.025460
  30 H :    0.018739
  31 H :    0.028814
  32 H :    0.037049
  33 H :    0.024877

  Mayer bond orders larger than 0.100000
B(  0-S ,  1-C ) :   1.1620 B(  0-S ,  4-C ) :   1.1793 B(  1-C ,  2-C ) :   1.6101
B(  1-C , 32-H ) :   0.9526 B(  2-C ,  3-C ) :   1.2411 B(  2-C ,  6-C ) :   1.0122
B(  3-C ,  4-C ) :   1.5781 B(  3-C ,  5-H ) :   1.0027 B(  4-C , 20-C ) :   1.0141
B(  6-C ,  7-H ) :   0.9399 B(  6-C ,  8-H ) :   0.9402 B(  6-C ,  9-C ) :   1.0762
B(  9-C , 10-H ) :   0.9515 B(  9-C , 11-H ) :   0.9548 B(  9-C , 12-C ) :   1.0770
B( 12-C , 13-H ) :   0.9747 B( 12-C , 14-H ) :   0.9756 B( 12-C , 15-H ) :   0.9731
B( 16-S , 17-C ) :   1.1428 B( 16-S , 20-C ) :   1.1117 B( 17-C , 18-C ) :   1.6458
B( 17-C , 33-H ) :   0.9641 B( 18-C , 19-C ) :   1.2092 B( 18-C , 21-H ) :   0.9803
B( 19-C , 20-C ) :   1.6308 B( 19-C , 22-C ) :   1.0408 B( 22-C , 23-H ) :   0.9396
B( 22-C , 24-H ) :   0.9322 B( 22-C , 25-C ) :   1.0822 B( 25-C , 26-H ) :   0.9497
B( 25-C , 27-H ) :   0.9505 B( 25-C , 28-C ) :   1.0568 B( 28-C , 29-H ) :   0.9720
B( 28-C , 30-H ) :   0.9666 B( 28-C , 31-H ) :   0.9759

Dispersion correction           -0.014946141
FINAL SINGLE POINT ENERGY     -1339.863174642529

DIPOLE MOMENT
-------------
                                X             Y             Z
Electronic contribution:     -7.15205     -28.00973       1.16883
Nuclear contribution   :      7.33984      28.86066      -1.11166
                        -----------------------------------------
Total Dipole Moment    :      0.18779       0.85093       0.05717
                        -----------------------------------------
Magnitude (a.u.)       :      0.87328
Magnitude (Debye)      :      2.21970

Rotational constants in cm-1:     0.018110     0.009721     0.007315
Rotational constants in MHz :   542.937457   291.439215   219.313085

                             ****ORCA TERMINATED NORMALLY****
TOTAL RUN TIME: 0 days 0 hours 0 minutes 33 seconds 655 msec
