                         Program Version 4.2.1 -  RELEASE  -
|  1> ! wB97X-D3 SP def2-SVP
|  2> %pal
|  3> nprocs 16
|  4> end
|  5>
|  6> * xyz 0 1
|  7> S 	 17.241 	 18.4551 	 39.6686
|  8> C 	 18.1279 	 18.3535 	 38.1904
|  9> C 	 17.3921 	 18.1663 	 37.04
| 10> C 	 16.0084 	 18.1393 	 37.4794
| 11> C 	 15.7134 	 18.3574 	 38.8052
| 12> H 	 15.2373 	 17.8442 	 36.8895
| 13> C 	 17.8645 	 18.0545 	 35.6288
| 14> H 	 17.5033 	 17.0916 	 35.18
| 15> H 	 18.9591 	 17.9761 	 35.5787
| 16> C 	 17.333 	 19.2128 	 34.7347
| 17> H 	 17.6527 	 19.0313 	 33.6488
| 18> H 	 16.2568 	 19.1823 	 34.6707
| 19> C 	 17.8465 	 20.6011 	 35.1401
| 20> H 	 18.9333 	 20.7159 	 34.9486
| 21> H 	 17.4275 	 21.3369 	 34.5714
| 22> H 	 17.5638 	 20.9029 	 36.0996
| 23> S 	 14.3434 	 17.8963 	 41.0898
| 24> C 	 12.6918 	 18.4223 	 41.158
| 25> C 	 12.1784 	 18.8275 	 39.9418
| 26> C 	 13.2176 	 18.9756 	 38.968
| 27> C 	 14.443 	 18.4733 	 39.4578
| 28> H 	 11.149 	 19.1057 	 39.9494
| 29> C 	 12.8393 	 19.3266 	 37.5601
| 30> H 	 12.6066 	 18.3045 	 37.1751
| 31> H 	 13.7004 	 19.8092 	 37.0418
| 32> C 	 11.5678 	 20.2415 	 37.4053
| 33> H 	 10.7505 	 19.683 	 37.7662
| 34> H 	 11.4452 	 20.3717 	 36.2935
| 35> C 	 11.6389 	 21.6264 	 37.9759
| 36> H 	 12.4918 	 22.1287 	 37.6453
| 37> H 	 11.69 	 21.6879 	 39.0223
| 38> H 	 10.822 	 22.3116 	 37.5748
| 39> H 	 19.2426 	 18.3333 	 38.2493
| 40> H 	 12.0025 	 18.3749 	 42.0529
| 41> *
| 42>
| 43>                          ****END OF INPUT****

CARTESIAN COORDINATES (ANGSTROEM)
---------------------------------
  S     17.241000   18.455100   39.668600
  C     18.127900   18.353500   38.190400
  C     17.392100   18.166300   37.040000
  C     16.008400   18.139300   37.479400
  C     15.713400   18.357400   38.805200
  H     15.237300   17.844200   36.889500
  C     17.864500   18.054500   35.628800
  H     17.503300   17.091600   35.180000
  H     18.959100   17.976100   35.578700
  C     17.333000   19.212800   34.734700
  H     17.652700   19.031300   33.648800
  H     16.256800   19.182300   34.670700
  C     17.846500   20.601100   35.140100
  H     18.933300   20.715900   34.948600
  H     17.427500   21.336900   34.571400
  H     17.563800   20.902900   36.099600
  S     14.343400   17.896300   41.089800
  C     12.691800   18.422300   41.158000
  C     12.178400   18.827500   39.941800
  C     13.217600   18.975600   38.968000
  C     14.443000   18.473300   39.457800
  H     11.149000   19.105700   39.949400
  C     12.839300   19.326600   37.560100
  H     12.606600   18.304500   37.175100
  H     13.700400   19.809200   37.041800
  C     11.567800   20.241500   37.405300
  H     10.750500   19.683000   37.766200
  H     11.445200   20.371700   36.293500
  C     11.638900   21.626400   37.975900
  H     12.491800   22.128700   37.645300
  H     11.690000   21.687900   39.022300
  H     10.822000   22.311600   37.574800
  H     19.242600   18.333300   38.249300
  H     12.002500   18.374900   42.052900

 Total Charge           Charge          ....    0
 Multiplicity           Mult            ....    1
 Number of Electrons    NEL             ....  134
 Basis Dimension        Dim             ....  322

ORBITAL ENERGIES
----------------

  NO   OCC          E(Eh)            E(eV)
   0   2.0000     -88.968952     -2420.9683
   1   2.0000     -88.960698     -2420.7437
   2   2.0000     -10.324630      -280.9475
   3   2.0000     -10.324106      -280.9332
   4   2.0000     -10.318710      -280.7864
   5   2.0000     -10.313812      -280.6531
   6   2.0000     -10.306464      -280.4531
   7   2.0000     -10.301859      -280.3278
   8   2.0000     -10.300203      -280.2828
   9   2.0000     -10.299596      -280.2663
  10   2.0000     -10.294122      -280.1173
  11   2.0000     -10.291041      -280.0335
  12   2.0000     -10.289494      -279.9914
  13   2.0000     -10.283893      -279.8390
  14   2.0000     -10.271985      -279.5149
  15   2.0000     -10.264842      -279.3206
  16   2.0000      -8.084107      -219.9797
  17   2.0000      -8.076202      -219.7646
  18   2.0000      -6.042510      -164.4251
  19   2.0000      -6.038722      -164.3220
  20   2.0000      -6.034800      -164.2152
  21   2.0000      -6.034739      -164.2136
  22   2.0000      -6.030716      -164.1041
  23   2.0000      -6.026777      -163.9970
  24   2.0000      -1.009331       -27.4653
  25   2.0000      -0.985167       -26.8078
  26   2.0000      -0.913250       -24.8508
  27   2.0000      -0.909399       -24.7460
  28   2.0000      -0.870656       -23.6917
  29   2.0000      -0.856149       -23.2970
  30   2.0000      -0.844339       -22.9756
  31   2.0000      -0.815795       -22.1989
  32   2.0000      -0.788733       -21.4625
  33   2.0000      -0.774366       -21.0716
  34   2.0000      -0.714687       -19.4476
  35   2.0000      -0.699043       -19.0219
  36   2.0000      -0.688803       -18.7433
  37   2.0000      -0.659341       -17.9416
  38   2.0000      -0.639309       -17.3965
  39   2.0000      -0.625196       -17.0124
  40   2.0000      -0.593520       -16.1505
  41   2.0000      -0.565547       -15.3893
  42   2.0000      -0.556542       -15.1443
  43   2.0000      -0.550619       -14.9831
  44   2.0000      -0.544195       -14.8083
  45   2.0000      -0.540293       -14.7021
  46   2.0000      -0.520108       -14.1529
  47   2.0000      -0.507123       -13.7995
  48   2.0000      -0.499229       -13.5847
  49   2.0000      -0.497183       -13.5290
  50   2.0000      -0.492819       -13.4103
  51   2.0000      -0.476177       -12.9574
  52   2.0000      -0.470980       -12.8160
  53   2.0000      -0.461943       -12.5701
  54   2.0000      -0.458214       -12.4686
  55   2.0000      -0.453319       -12.3354
  56   2.0000      -0.449535       -12.2325
  57   2.0000      -0.437897       -11.9158
  58   2.0000      -0.436268       -11.8715
  59   2.0000      -0.428022       -11.6471
  60   2.0000      -0.421142       -11.4599
  61   2.0000      -0.418953       -11.4003
  62   2.0000      -0.413977       -11.2649
  63   2.0000      -0.355328        -9.6690
  64   2.0000      -0.332448        -9.0464
  65   2.0000      -0.325873        -8.8675
  66   2.0000      -0.280563        -7.6345
  67   0.0000       0.026030         0.7083
  68   0.0000       0.083489         2.2719
  69   0.0000       0.100583         2.7370
  70   0.0000       0.121227         3.2988
  71   0.0000       0.130537         3.5521

MULLIKEN ATOMIC CHARGES
-----------------------
   0 S :    0.095968
   1 C :   -0.145166
   2 C :   -0.058160
   3 C :    0.007488
   4 C :   -0.123848
   5 H :   -0.032072
   6 C :    0.083446
   7 H :    0.039793
   8 H :    0.022210
   9 C :   -0.113088
  10 H :    0.034585
  11 H :    0.028901
  12 C :    0.010010
  13 H :    0.030227
  14 H :    0.000061
  15 H :    0.027361
  16 S :    0.119296
  17 C :   -0.108208
  18 C :   -0.046417
  19 C :   -0.045735
  20 C :   -0.135786
  21 H :    0.018818
  22 C :    0.005966
  23 H :    0.064193
  24 H :    0.043379
  25 C :   -0.063610
  26 H :    0.021449
  27 H :    0.035838
  28 C :   -0.018103
  29 H :    0.008651
  30 H :    0.026175
  31 H :    0.039007
  32 H :    0.058271
  33 H :    0.069099
Sum of atomic charges:   -0.0000000

LOEWDIN ATOMIC CHARGES
----------------------
   0 S :    0.395336
   1 C :   -0.199063
   2 C :   -0.065022
   3 C :   -0.056973
   4 C :   -0.190680
   5 H :    0.008479
   6 C :   -0.032941
   7 H :    0.039491
   8 H :    0.031532
   9 C :   -0.039671
  10 H :    0.030999
  11 H :    0.019225
  12 C :   -0.059186
  13 H :    0.031356
  14 H :    0.015386
  15 H :    0.020927
  16 S :    0.419011
  17 C :   -0.195082
  18 C :   -0.075545
  19 C :   -0.052841
  20 C :   -0.208741
  21 H :    0.030323
  22 C :   -0.037260
  23 H :    0.046161
  24 H :    0.033895
  25 C :   -0.039779
  26 H :    0.013737
  27 H :    0.034570
  28 C :   -0.064496
  29 H :    0.019673
  30 H :    0.018040
  31 H :    0.038315
  32 H :    0.030804
  33 H :    0.040016

  Mayer bond orders larger than 0.100000
B(  0-S ,  1-C ) :   1.1536 B(  0-S ,  4-C ) :   1.1190 B(  1-C ,  2-C ) :   1.6127
B(  1-C , 32-H ) :   0.9560 B(  2-C ,  3-C ) :   1.2100 B(  2-C ,  6-C ) :   1.0383
B(  3-C ,  4-C ) :   1.5908 B(  3-C ,  5-H ) :   1.0077 B(  4-C , 20-C ) :   1.0912
B(  6-C ,  7-H ) :   0.9336 B(  6-C ,  8-H ) :   0.9414 B(  6-C ,  9-C ) :   1.0637
B(  9-C , 10-H ) :   0.9558 B(  9-C , 11-H ) :   0.9581 B(  9-C , 12-C ) :   1.0790
B( 12-C , 13-H ) :   0.9734 B( 12-C , 14-H ) :   0.9655 B( 12-C , 15-H ) :   0.9722
B( 16-S , 17-C ) :   1.1566 B( 16-S , 20-C ) :   1.1384 B( 17-C , 18-C ) :   1.6311
B( 17-C , 33-H ) :   0.9558 B( 18-C , 19-C ) :   1.2240 B( 18-C , 21-H ) :   0.9851
B( 19-C , 20-C ) :   1.5690 B( 19-C , 22-C ) :   1.0394 B( 22-C , 23-H ) :   0.9331
B( 22-C , 24-H ) :   0.9294 B( 22-C , 25-C ) :   1.0771 B( 25-C , 26-H ) :   0.9470
B( 25-C , 27-H ) :   0.9534 B( 25-C , 28-C ) :   1.0837 B( 28-C , 29-H ) :   0.9676
B( 28-C , 30-H ) :   0.9728 B( 28-C , 31-H ) :   0.9716

Dispersion correction           -0.014449091
FINAL SINGLE POINT ENERGY     -1339.871596798693

DIPOLE MOMENT
-------------
                                X             Y             Z
Electronic contribution:      6.15466     -13.44573      24.81754
Nuclear contribution   :     -6.51554      13.58376     -25.45758
                        -----------------------------------------
Total Dipole Moment    :     -0.36088       0.13803      -0.64004
                        -----------------------------------------
Magnitude (a.u.)       :      0.74762
Magnitude (Debye)      :      1.90030

Rotational constants in cm-1:     0.018060     0.009517     0.006779
Rotational constants in MHz :   541.437415   285.300504   203.234268

                             ****ORCA TERMINATED NORMALLY****
TOTAL RUN TIME: 0 days 0 hours 0 minutes 36 seconds 256 msec
