                         Program Version 4.2.1 -  RELEASE  -
|  1> ! wB97X-D3 SP def2-SVP
|  2> %pal
|  3> nprocs 16
|  4> end
|  5>
|  6> * xyz 0 1
|  7> S 	 -8.10611 	 -8.15625 	 87.1432
|  8> C 	 -8.18537 	 -9.88731 	 86.6538
|  9> C 	 -6.95411 	 -10.4343 	 86.28
| 10> C 	 -5.90672 	 -9.4726 	 86.5554
| 11> C 	 -6.3458 	 -8.27291 	 86.9858
| 12> H 	 -4.8398 	 -9.71658 	 86.4779
| 13> C 	 -6.67666 	 -11.74 	 85.6843
| 14> H 	 -7.38389 	 -11.8234 	 84.8793
| 15> H 	 -6.99818 	 -12.4527 	 86.455
| 16> C 	 -5.24869 	 -11.9878 	 85.1931
| 17> H 	 -4.89077 	 -11.1671 	 84.5501
| 18> H 	 -4.52276 	 -11.9582 	 85.9637
| 19> C 	 -5.26518 	 -13.2423 	 84.3635
| 20> H 	 -4.24997 	 -13.4909 	 83.8771
| 21> H 	 -5.57005 	 -14.0818 	 84.9686
| 22> H 	 -6.02013 	 -13.3117 	 83.538
| 23> S 	 -6.22861 	 -6.17375 	 88.7743
| 24> C 	 -4.87364 	 -5.00536 	 88.7541
| 25> C 	 -3.945 	 -5.43488 	 87.9106
| 26> C 	 -4.27356 	 -6.59526 	 87.1639
| 27> C 	 -5.5026 	 -7.17127 	 87.5018
| 28> H 	 -2.98926 	 -4.94851 	 87.7226
| 29> C 	 -3.24843 	 -7.13564 	 86.128
| 30> H 	 -2.90192 	 -6.22984 	 85.5304
| 31> H 	 -3.82226 	 -7.66942 	 85.3483
| 32> C 	 -2.0926 	 -7.99764 	 86.6648
| 33> H 	 -2.40433 	 -8.86602 	 87.2221
| 34> H 	 -1.4509 	 -7.49181 	 87.3468
| 35> C 	 -1.18014 	 -8.56932 	 85.5606
| 36> H 	 -0.54794 	 -7.92212 	 84.9633
| 37> H 	 -1.83326 	 -9.12936 	 84.8978
| 38> H 	 -0.693551 	 -9.32909 	 86.0865
| 39> H 	 -9.10049 	 -10.4652 	 86.5201
| 40> H 	 -4.73368 	 -4.13377 	 89.3383
| 41> *
| 42>
| 43>                          ****END OF INPUT****

CARTESIAN COORDINATES (ANGSTROEM)
---------------------------------
  S     -8.106110   -8.156250   87.143200
  C     -8.185370   -9.887310   86.653800
  C     -6.954110  -10.434300   86.280000
  C     -5.906720   -9.472600   86.555400
  C     -6.345800   -8.272910   86.985800
  H     -4.839800   -9.716580   86.477900
  C     -6.676660  -11.740000   85.684300
  H     -7.383890  -11.823400   84.879300
  H     -6.998180  -12.452700   86.455000
  C     -5.248690  -11.987800   85.193100
  H     -4.890770  -11.167100   84.550100
  H     -4.522760  -11.958200   85.963700
  C     -5.265180  -13.242300   84.363500
  H     -4.249970  -13.490900   83.877100
  H     -5.570050  -14.081800   84.968600
  H     -6.020130  -13.311700   83.538000
  S     -6.228610   -6.173750   88.774300
  C     -4.873640   -5.005360   88.754100
  C     -3.945000   -5.434880   87.910600
  C     -4.273560   -6.595260   87.163900
  C     -5.502600   -7.171270   87.501800
  H     -2.989260   -4.948510   87.722600
  C     -3.248430   -7.135640   86.128000
  H     -2.901920   -6.229840   85.530400
  H     -3.822260   -7.669420   85.348300
  C     -2.092600   -7.997640   86.664800
  H     -2.404330   -8.866020   87.222100
  H     -1.450900   -7.491810   87.346800
  C     -1.180140   -8.569320   85.560600
  H     -0.547940   -7.922120   84.963300
  H     -1.833260   -9.129360   84.897800
  H     -0.693551   -9.329090   86.086500
  H     -9.100490  -10.465200   86.520100
  H     -4.733680   -4.133770   89.338300

 Total Charge           Charge          ....    0
 Multiplicity           Mult            ....    1
 Number of Electrons    NEL             ....  134
 Basis Dimension        Dim             ....  322

ORBITAL ENERGIES
----------------

  NO   OCC          E(Eh)            E(eV)
   0   2.0000     -88.970361     -2421.0066
   1   2.0000     -88.960844     -2420.7476
   2   2.0000     -10.331189      -281.1260
   3   2.0000     -10.331073      -281.1228
   4   2.0000     -10.316325      -280.7215
   5   2.0000     -10.310947      -280.5751
   6   2.0000     -10.302388      -280.3422
   7   2.0000     -10.301037      -280.3055
   8   2.0000     -10.299483      -280.2632
   9   2.0000     -10.292885      -280.0836
  10   2.0000     -10.292686      -280.0782
  11   2.0000     -10.292040      -280.0606
  12   2.0000     -10.288416      -279.9620
  13   2.0000     -10.286823      -279.9187
  14   2.0000     -10.285417      -279.8804
  15   2.0000     -10.274065      -279.5715
  16   2.0000      -8.083604      -219.9660
  17   2.0000      -8.074771      -219.7257
  18   2.0000      -6.042326      -164.4201
  19   2.0000      -6.038595      -164.3185
  20   2.0000      -6.033948      -164.1921
  21   2.0000      -6.033550      -164.1812
  22   2.0000      -6.029325      -164.0663
  23   2.0000      -6.025350      -163.9581
  24   2.0000      -1.002088       -27.2682
  25   2.0000      -0.980296       -26.6752
  26   2.0000      -0.924236       -25.1498
  27   2.0000      -0.905284       -24.6340
  28   2.0000      -0.871963       -23.7273
  29   2.0000      -0.851833       -23.1795
  30   2.0000      -0.844931       -22.9917
  31   2.0000      -0.821229       -22.3468
  32   2.0000      -0.778604       -21.1869
  33   2.0000      -0.769669       -20.9437
  34   2.0000      -0.721838       -19.6422
  35   2.0000      -0.703058       -19.1312
  36   2.0000      -0.694033       -18.8856
  37   2.0000      -0.659103       -17.9351
  38   2.0000      -0.639981       -17.4148
  39   2.0000      -0.620472       -16.8839
  40   2.0000      -0.594870       -16.1872
  41   2.0000      -0.576738       -15.6938
  42   2.0000      -0.566738       -15.4217
  43   2.0000      -0.563178       -15.3249
  44   2.0000      -0.535747       -14.5784
  45   2.0000      -0.526389       -14.3238
  46   2.0000      -0.511313       -13.9135
  47   2.0000      -0.508909       -13.8481
  48   2.0000      -0.507849       -13.8193
  49   2.0000      -0.494109       -13.4454
  50   2.0000      -0.491841       -13.3837
  51   2.0000      -0.481988       -13.1156
  52   2.0000      -0.477191       -12.9850
  53   2.0000      -0.464683       -12.6447
  54   2.0000      -0.459283       -12.4977
  55   2.0000      -0.450291       -12.2530
  56   2.0000      -0.445613       -12.1257
  57   2.0000      -0.441432       -12.0120
  58   2.0000      -0.435934       -11.8624
  59   2.0000      -0.430890       -11.7251
  60   2.0000      -0.420829       -11.4514
  61   2.0000      -0.418324       -11.3832
  62   2.0000      -0.406782       -11.0691
  63   2.0000      -0.355873        -9.6838
  64   2.0000      -0.331403        -9.0179
  65   2.0000      -0.327066        -8.8999
  66   2.0000      -0.286238        -7.7889
  67   0.0000       0.024483         0.6662
  68   0.0000       0.079175         2.1545
  69   0.0000       0.095594         2.6012
  70   0.0000       0.118418         3.2223
  71   0.0000       0.125448         3.4136

MULLIKEN ATOMIC CHARGES
-----------------------
   0 S :    0.110288
   1 C :   -0.133690
   2 C :   -0.100525
   3 C :   -0.026963
   4 C :   -0.075755
   5 H :    0.013170
   6 C :    0.067567
   7 H :    0.030327
   8 H :    0.046541
   9 C :   -0.057887
  10 H :    0.032314
  11 H :    0.029676
  12 C :   -0.055491
  13 H :    0.045417
  14 H :    0.021231
  15 H :    0.034568
  16 S :    0.067777
  17 C :   -0.059408
  18 C :   -0.012126
  19 C :   -0.066955
  20 C :   -0.133442
  21 H :    0.016017
  22 C :    0.024777
  23 H :    0.033739
  24 H :    0.020748
  25 C :   -0.046869
  26 H :    0.021897
  27 H :    0.017388
  28 C :   -0.014955
  29 H :    0.044872
  30 H :    0.008787
  31 H :    0.014897
  32 H :    0.040425
  33 H :    0.041641
Sum of atomic charges:    0.0000000

LOEWDIN ATOMIC CHARGES
----------------------
   0 S :    0.376896
   1 C :   -0.190802
   2 C :   -0.054547
   3 C :   -0.067549
   4 C :   -0.178357
   5 H :    0.033485
   6 C :   -0.035243
   7 H :    0.036405
   8 H :    0.043657
   9 C :   -0.042125
  10 H :    0.029094
  11 H :    0.020872
  12 C :   -0.071517
  13 H :    0.034192
  14 H :    0.021707
  15 H :    0.030155
  16 S :    0.369823
  17 C :   -0.166370
  18 C :   -0.073272
  19 C :   -0.066488
  20 C :   -0.179551
  21 H :    0.033217
  22 C :   -0.040751
  23 H :    0.037451
  24 H :    0.027726
  25 C :   -0.035947
  26 H :    0.024168
  27 H :    0.019327
  28 C :   -0.057166
  29 H :    0.024669
  30 H :    0.021477
  31 H :    0.021601
  32 H :    0.025823
  33 H :    0.027938

  Mayer bond orders larger than 0.100000
B(  0-S ,  1-C ) :   1.1075 B(  0-S ,  4-C ) :   1.1216 B(  1-C ,  2-C ) :   1.6494
B(  1-C , 32-H ) :   0.9682 B(  2-C ,  3-C ) :   1.2205 B(  2-C ,  6-C ) :   1.0014
B(  3-C ,  4-C ) :   1.6034 B(  3-C ,  5-H ) :   0.9840 B(  4-C , 20-C ) :   1.0396
B(  6-C ,  7-H ) :   0.9361 B(  6-C ,  8-H ) :   0.9185 B(  6-C ,  9-C ) :   1.0922
B(  9-C , 10-H ) :   0.9497 B(  9-C , 11-H ) :   0.9411 B(  9-C , 12-C ) :   1.0820
B( 12-C , 13-H ) :   0.9718 B( 12-C , 14-H ) :   0.9703 B( 12-C , 15-H ) :   0.9740
B( 16-S , 17-C ) :   1.1200 B( 16-S , 20-C ) :   1.1219 B( 17-C , 18-C ) :   1.6269
B( 17-C , 33-H ) :   0.9705 B( 18-C , 19-C ) :   1.2556 B( 18-C , 21-H ) :   0.9836
B( 19-C , 20-C ) :   1.6054 B( 19-C , 22-C ) :   1.0363 B( 22-C , 23-H ) :   0.9381
B( 22-C , 24-H ) :   0.9366 B( 22-C , 25-C ) :   1.0581 B( 25-C , 26-H ) :   0.9552
B( 25-C , 27-H ) :   0.9533 B( 25-C , 28-C ) :   1.0793 B( 28-C , 29-H ) :   0.9786
B( 28-C , 30-H ) :   0.9724 B( 28-C , 31-H ) :   0.9737

Dispersion correction           -0.013929492
FINAL SINGLE POINT ENERGY     -1339.869916984855

DIPOLE MOMENT
-------------
                                X             Y             Z
Electronic contribution:    -21.72599      20.55877      16.16654
Nuclear contribution   :     22.31893     -21.08670     -16.54127
                        -----------------------------------------
Total Dipole Moment    :      0.59295      -0.52793      -0.37474
                        -----------------------------------------
Magnitude (a.u.)       :      0.87791
Magnitude (Debye)      :      2.23148

Rotational constants in cm-1:     0.016310     0.009930     0.006352
Rotational constants in MHz :   488.970199   297.706701   190.424333

                             ****ORCA TERMINATED NORMALLY****
TOTAL RUN TIME: 0 days 0 hours 0 minutes 32 seconds 344 msec
