                         Program Version 4.2.1 -  RELEASE  -
|  1> ! wB97X-D3 SP def2-SVP
|  2> %pal
|  3> nprocs 16
|  4> end
|  5>
|  6> * xyz 0 1
|  7> S 	 43.0726 	 21.444 	 44.7505
|  8> C 	 41.8504 	 20.3362 	 44.2534
|  9> C 	 40.6217 	 21.0177 	 44.0117
| 10> C 	 40.6265 	 22.3437 	 44.5299
| 11> C 	 41.8651 	 22.7366 	 45.0221
| 12> H 	 39.7797 	 23.0473 	 44.5306
| 13> C 	 39.3251 	 20.3645 	 43.6129
| 14> H 	 39.5402 	 19.4083 	 43.2455
| 15> H 	 38.8709 	 20.9148 	 42.7768
| 16> C 	 38.2628 	 20.279 	 44.7704
| 17> H 	 38.0394 	 21.2892 	 44.9976
| 18> H 	 37.3363 	 19.8602 	 44.4265
| 19> C 	 38.7113 	 19.5278 	 45.9856
| 20> H 	 37.8757 	 19.2956 	 46.5674
| 21> H 	 39.1484 	 18.5544 	 45.6926
| 22> H 	 39.4142 	 20.2008 	 46.5337
| 23> S 	 42.9114 	 25.1414 	 44.239
| 24> C 	 43.144 	 26.4382 	 45.4159
| 25> C 	 42.5921 	 26.089 	 46.6472
| 26> C 	 42.1468 	 24.6974 	 46.6867
| 27> C 	 42.2027 	 24.075 	 45.4483
| 28> H 	 42.2888 	 26.794 	 47.4657
| 29> C 	 41.5662 	 24.056 	 47.9127
| 30> H 	 41.8781 	 24.6108 	 48.8363
| 31> H 	 42.0088 	 23.0404 	 48.0872
| 32> C 	 40.0123 	 23.9133 	 47.8391
| 33> H 	 39.7023 	 23.6047 	 46.8902
| 34> H 	 39.5385 	 24.8462 	 48.1516
| 35> C 	 39.4602 	 22.7672 	 48.7401
| 36> H 	 40.0002 	 21.7908 	 48.5734
| 37> H 	 38.3938 	 22.4971 	 48.5862
| 38> H 	 39.4986 	 23.1274 	 49.7648
| 39> H 	 41.978 	 19.2735 	 44.0082
| 40> H 	 43.373 	 27.458 	 45.1643
| 41> *
| 42>
| 43>                          ****END OF INPUT****

CARTESIAN COORDINATES (ANGSTROEM)
---------------------------------
  S     43.072600   21.444000   44.750500
  C     41.850400   20.336200   44.253400
  C     40.621700   21.017700   44.011700
  C     40.626500   22.343700   44.529900
  C     41.865100   22.736600   45.022100
  H     39.779700   23.047300   44.530600
  C     39.325100   20.364500   43.612900
  H     39.540200   19.408300   43.245500
  H     38.870900   20.914800   42.776800
  C     38.262800   20.279000   44.770400
  H     38.039400   21.289200   44.997600
  H     37.336300   19.860200   44.426500
  C     38.711300   19.527800   45.985600
  H     37.875700   19.295600   46.567400
  H     39.148400   18.554400   45.692600
  H     39.414200   20.200800   46.533700
  S     42.911400   25.141400   44.239000
  C     43.144000   26.438200   45.415900
  C     42.592100   26.089000   46.647200
  C     42.146800   24.697400   46.686700
  C     42.202700   24.075000   45.448300
  H     42.288800   26.794000   47.465700
  C     41.566200   24.056000   47.912700
  H     41.878100   24.610800   48.836300
  H     42.008800   23.040400   48.087200
  C     40.012300   23.913300   47.839100
  H     39.702300   23.604700   46.890200
  H     39.538500   24.846200   48.151600
  C     39.460200   22.767200   48.740100
  H     40.000200   21.790800   48.573400
  H     38.393800   22.497100   48.586200
  H     39.498600   23.127400   49.764800
  H     41.978000   19.273500   44.008200
  H     43.373000   27.458000   45.164300

 Total Charge           Charge          ....    0
 Multiplicity           Mult            ....    1
 Number of Electrons    NEL             ....  134
 Basis Dimension        Dim             ....  322

ORBITAL ENERGIES
----------------

  NO   OCC          E(Eh)            E(eV)
   0   2.0000     -88.970512     -2421.0107
   1   2.0000     -88.964869     -2420.8572
   2   2.0000     -10.331123      -281.1242
   3   2.0000     -10.324298      -280.9384
   4   2.0000     -10.321245      -280.8554
   5   2.0000     -10.321000      -280.8487
   6   2.0000     -10.304798      -280.4078
   7   2.0000     -10.303487      -280.3721
   8   2.0000     -10.302431      -280.3434
   9   2.0000     -10.299425      -280.2616
  10   2.0000     -10.296636      -280.1857
  11   2.0000     -10.288198      -279.9561
  12   2.0000     -10.283884      -279.8387
  13   2.0000     -10.281091      -279.7627
  14   2.0000     -10.280268      -279.7403
  15   2.0000     -10.273148      -279.5466
  16   2.0000      -8.084722      -219.9965
  17   2.0000      -8.079186      -219.8458
  18   2.0000      -6.043208      -164.4441
  19   2.0000      -6.039248      -164.3363
  20   2.0000      -6.037821      -164.2975
  21   2.0000      -6.035565      -164.2361
  22   2.0000      -6.033678      -164.1847
  23   2.0000      -6.029899      -164.0819
  24   2.0000      -1.002860       -27.2892
  25   2.0000      -0.979493       -26.6534
  26   2.0000      -0.912280       -24.8244
  27   2.0000      -0.903025       -24.5726
  28   2.0000      -0.869052       -23.6481
  29   2.0000      -0.851053       -23.1583
  30   2.0000      -0.844869       -22.9901
  31   2.0000      -0.813546       -22.1377
  32   2.0000      -0.779131       -21.2012
  33   2.0000      -0.765523       -20.8309
  34   2.0000      -0.707828       -19.2610
  35   2.0000      -0.697781       -18.9876
  36   2.0000      -0.689287       -18.7565
  37   2.0000      -0.661855       -18.0100
  38   2.0000      -0.640877       -17.4392
  39   2.0000      -0.619369       -16.8539
  40   2.0000      -0.592779       -16.1303
  41   2.0000      -0.567568       -15.4443
  42   2.0000      -0.566220       -15.4076
  43   2.0000      -0.549560       -14.9543
  44   2.0000      -0.546582       -14.8733
  45   2.0000      -0.517996       -14.0954
  46   2.0000      -0.516888       -14.0653
  47   2.0000      -0.506450       -13.7812
  48   2.0000      -0.505235       -13.7482
  49   2.0000      -0.495472       -13.4825
  50   2.0000      -0.486680       -13.2432
  51   2.0000      -0.481876       -13.1125
  52   2.0000      -0.475362       -12.9353
  53   2.0000      -0.466699       -12.6995
  54   2.0000      -0.454706       -12.3732
  55   2.0000      -0.447110       -12.1665
  56   2.0000      -0.439960       -11.9719
  57   2.0000      -0.435736       -11.8570
  58   2.0000      -0.427181       -11.6242
  59   2.0000      -0.425552       -11.5799
  60   2.0000      -0.424303       -11.5459
  61   2.0000      -0.417148       -11.3512
  62   2.0000      -0.415737       -11.3128
  63   2.0000      -0.339431        -9.2364
  64   2.0000      -0.327246        -8.9048
  65   2.0000      -0.319670        -8.6987
  66   2.0000      -0.306130        -8.3302
  67   0.0000       0.040387         1.0990
  68   0.0000       0.043541         1.1848
  69   0.0000       0.110721         3.0129
  70   0.0000       0.114791         3.1236
  71   0.0000       0.119143         3.2421

MULLIKEN ATOMIC CHARGES
-----------------------
   0 S :    0.133813
   1 C :   -0.118694
   2 C :   -0.105402
   3 C :    0.024701
   4 C :   -0.170948
   5 H :    0.040979
   6 C :    0.088088
   7 H :   -0.004886
   8 H :    0.033573
   9 C :   -0.068968
  10 H :    0.009545
  11 H :    0.018359
  12 C :   -0.025671
  13 H :    0.021206
  14 H :    0.025762
  15 H :    0.050941
  16 S :    0.109961
  17 C :   -0.083184
  18 C :   -0.047595
  19 C :   -0.031094
  20 C :   -0.196456
  21 H :    0.044689
  22 C :    0.040841
  23 H :    0.025805
  24 H :    0.036986
  25 C :   -0.020172
  26 H :    0.003546
  27 H :    0.031391
  28 C :   -0.105230
  29 H :    0.051223
  30 H :    0.034543
  31 H :    0.031230
  32 H :    0.061094
  33 H :    0.060026
Sum of atomic charges:   -0.0000000

LOEWDIN ATOMIC CHARGES
----------------------
   0 S :    0.413282
   1 C :   -0.207315
   2 C :   -0.066689
   3 C :   -0.054472
   4 C :   -0.195592
   5 H :    0.037383
   6 C :   -0.027505
   7 H :    0.015453
   8 H :    0.035333
   9 C :   -0.034554
  10 H :    0.014195
  11 H :    0.019812
  12 C :   -0.060190
  13 H :    0.018745
  14 H :    0.026848
  15 H :    0.033448
  16 S :    0.399491
  17 C :   -0.181467
  18 C :   -0.075541
  19 C :   -0.053258
  20 C :   -0.204729
  21 H :    0.041289
  22 C :   -0.037548
  23 H :    0.033034
  24 H :    0.037639
  25 C :   -0.029735
  26 H :    0.011288
  27 H :    0.025309
  28 C :   -0.074407
  29 H :    0.029555
  30 H :    0.026737
  31 H :    0.021390
  32 H :    0.034592
  33 H :    0.028176

  Mayer bond orders larger than 0.100000
B(  0-S ,  1-C ) :   1.1624 B(  0-S ,  4-C ) :   1.1403 B(  1-C ,  2-C ) :   1.5694
B(  1-C ,  4-C ) :   0.1062 B(  1-C , 32-H ) :   0.9631 B(  2-C ,  3-C ) :   1.2466
B(  2-C ,  6-C ) :   1.0485 B(  3-C ,  4-C ) :   1.5735 B(  3-C ,  5-H ) :   0.9796
B(  4-C , 20-C ) :   1.0434 B(  6-C ,  7-H ) :   0.9386 B(  6-C ,  8-H ) :   0.9359
B(  6-C ,  9-C ) :   1.0671 B(  9-C , 10-H ) :   0.9535 B(  9-C , 11-H ) :   0.9552
B(  9-C , 12-C ) :   1.0826 B( 12-C , 13-H ) :   0.9713 B( 12-C , 14-H ) :   0.9737
B( 12-C , 15-H ) :   0.9703 B( 16-S , 17-C ) :   1.1526 B( 16-S , 20-C ) :   1.1370
B( 17-C , 18-C ) :   1.6158 B( 17-C , 33-H ) :   0.9652 B( 18-C , 19-C ) :   1.2449
B( 18-C , 21-H ) :   0.9719 B( 19-C , 20-C ) :   1.6096 B( 19-C , 22-C ) :   1.0606
B( 22-C , 23-H ) :   0.9340 B( 22-C , 24-H ) :   0.9336 B( 22-C , 25-C ) :   1.0503
B( 25-C , 26-H ) :   0.9616 B( 25-C , 27-H ) :   0.9556 B( 25-C , 28-C ) :   1.0755
B( 28-C , 29-H ) :   0.9718 B( 28-C , 30-H ) :   0.9761 B( 28-C , 31-H ) :   0.9769

Dispersion correction           -0.016276838
FINAL SINGLE POINT ENERGY     -1339.879671555003

DIPOLE MOMENT
-------------
                                X             Y             Z
Electronic contribution:     23.53335      11.03208     -14.37180
Nuclear contribution   :    -24.22728     -11.08985      14.57772
                        -----------------------------------------
Total Dipole Moment    :     -0.69393      -0.05778       0.20592
                        -----------------------------------------
Magnitude (a.u.)       :      0.72614
Magnitude (Debye)      :      1.84571

Rotational constants in cm-1:     0.019160     0.010122     0.007752
Rotational constants in MHz :   574.393777   303.458662   232.394204

                             ****ORCA TERMINATED NORMALLY****
TOTAL RUN TIME: 0 days 0 hours 0 minutes 39 seconds 294 msec
