                         Program Version 4.2.1 -  RELEASE  -
|  1> ! wB97X-D3 SP def2-SVP
|  2> %pal
|  3> nprocs 16
|  4> end
|  5>
|  6> * xyz 0 1
|  7> S 	 -75.5575 	 49.8697 	 137.48
|  8> C 	 -76.4246 	 48.4062 	 138.106
|  9> C 	 -77.7805 	 48.5599 	 137.851
| 10> C 	 -78.1042 	 49.7569 	 137.226
| 11> C 	 -77 	 50.6073 	 136.937
| 12> H 	 -79.0097 	 50.1528 	 137
| 13> C 	 -78.7846 	 47.4743 	 138.269
| 14> H 	 -79.3096 	 47.5821 	 139.215
| 15> H 	 -78.1569 	 46.6497 	 138.381
| 16> C 	 -79.7284 	 47.1741 	 137.126
| 17> H 	 -80.2036 	 48.0382 	 136.695
| 18> H 	 -79.247 	 46.6181 	 136.294
| 19> C 	 -80.9127 	 46.236 	 137.589
| 20> H 	 -81.5035 	 46.6554 	 138.372
| 21> H 	 -81.6425 	 45.9621 	 136.766
| 22> H 	 -80.4974 	 45.3029 	 138.058
| 23> S 	 -78.0806 	 52.0844 	 134.847
| 24> C 	 -77.906 	 53.8264 	 134.822
| 25> C 	 -77.0014 	 54.1478 	 135.787
| 26> C 	 -76.64 	 53.1629 	 136.701
| 27> C 	 -77.1521 	 51.9386 	 136.325
| 28> H 	 -76.7809 	 55.1903 	 135.804
| 29> C 	 -75.6122 	 53.443 	 137.811
| 30> H 	 -74.5919 	 53.3256 	 137.418
| 31> H 	 -75.7632 	 52.6087 	 138.48
| 32> C 	 -75.7767 	 54.7769 	 138.658
| 33> H 	 -75.7252 	 55.6469 	 138.078
| 34> H 	 -74.9415 	 54.8077 	 139.299
| 35> C 	 -77.0175 	 54.8107 	 139.504
| 36> H 	 -77.1513 	 55.7092 	 140.192
| 37> H 	 -77.0593 	 53.9492 	 140.192
| 38> H 	 -77.8975 	 54.674 	 138.901
| 39> H 	 -75.9541 	 47.6551 	 138.582
| 40> H 	 -78.3435 	 54.4618 	 134.067
| 41> *
| 42>
| 43>                          ****END OF INPUT****

CARTESIAN COORDINATES (ANGSTROEM)
---------------------------------
  S    -75.557500   49.869700  137.480000
  C    -76.424600   48.406200  138.106000
  C    -77.780500   48.559900  137.851000
  C    -78.104200   49.756900  137.226000
  C    -77.000000   50.607300  136.937000
  H    -79.009700   50.152800  137.000000
  C    -78.784600   47.474300  138.269000
  H    -79.309600   47.582100  139.215000
  H    -78.156900   46.649700  138.381000
  C    -79.728400   47.174100  137.126000
  H    -80.203600   48.038200  136.695000
  H    -79.247000   46.618100  136.294000
  C    -80.912700   46.236000  137.589000
  H    -81.503500   46.655400  138.372000
  H    -81.642500   45.962100  136.766000
  H    -80.497400   45.302900  138.058000
  S    -78.080600   52.084400  134.847000
  C    -77.906000   53.826400  134.822000
  C    -77.001400   54.147800  135.787000
  C    -76.640000   53.162900  136.701000
  C    -77.152100   51.938600  136.325000
  H    -76.780900   55.190300  135.804000
  C    -75.612200   53.443000  137.811000
  H    -74.591900   53.325600  137.418000
  H    -75.763200   52.608700  138.480000
  C    -75.776700   54.776900  138.658000
  H    -75.725200   55.646900  138.078000
  H    -74.941500   54.807700  139.299000
  C    -77.017500   54.810700  139.504000
  H    -77.151300   55.709200  140.192000
  H    -77.059300   53.949200  140.192000
  H    -77.897500   54.674000  138.901000
  H    -75.954100   47.655100  138.582000
  H    -78.343500   54.461800  134.067000

 Total Charge           Charge          ....    0
 Multiplicity           Mult            ....    1
 Number of Electrons    NEL             ....  134
 Basis Dimension        Dim             ....  322

ORBITAL ENERGIES
----------------

  NO   OCC          E(Eh)            E(eV)
   0   2.0000     -88.970180     -2421.0017
   1   2.0000     -88.964117     -2420.8367
   2   2.0000     -10.332009      -281.1482
   3   2.0000     -10.328934      -281.0646
   4   2.0000     -10.315174      -280.6902
   5   2.0000     -10.313233      -280.6373
   6   2.0000     -10.302987      -280.3585
   7   2.0000     -10.300118      -280.2805
   8   2.0000     -10.295401      -280.1521
   9   2.0000     -10.288781      -279.9720
  10   2.0000     -10.287330      -279.9325
  11   2.0000     -10.285091      -279.8716
  12   2.0000     -10.285055      -279.8706
  13   2.0000     -10.282483      -279.8006
  14   2.0000     -10.280767      -279.7539
  15   2.0000     -10.275923      -279.6221
  16   2.0000      -8.084054      -219.9783
  17   2.0000      -8.078903      -219.8381
  18   2.0000      -6.042446      -164.4233
  19   2.0000      -6.038473      -164.3152
  20   2.0000      -6.037374      -164.2853
  21   2.0000      -6.035201      -164.2262
  22   2.0000      -6.033361      -164.1761
  23   2.0000      -6.029727      -164.0772
  24   2.0000      -1.009193       -27.4615
  25   2.0000      -0.987364       -26.8675
  26   2.0000      -0.913685       -24.8626
  27   2.0000      -0.904967       -24.6254
  28   2.0000      -0.869364       -23.6566
  29   2.0000      -0.851932       -23.1822
  30   2.0000      -0.843797       -22.9609
  31   2.0000      -0.816372       -22.2146
  32   2.0000      -0.781697       -21.2711
  33   2.0000      -0.773813       -21.0565
  34   2.0000      -0.714215       -19.4348
  35   2.0000      -0.704675       -19.1752
  36   2.0000      -0.694574       -18.9003
  37   2.0000      -0.666920       -18.1478
  38   2.0000      -0.644417       -17.5355
  39   2.0000      -0.618737       -16.8367
  40   2.0000      -0.599743       -16.3198
  41   2.0000      -0.574983       -15.6461
  42   2.0000      -0.563654       -15.3378
  43   2.0000      -0.549924       -14.9642
  44   2.0000      -0.540758       -14.7148
  45   2.0000      -0.530301       -14.4302
  46   2.0000      -0.526751       -14.3336
  47   2.0000      -0.509431       -13.8623
  48   2.0000      -0.507817       -13.8184
  49   2.0000      -0.497515       -13.5381
  50   2.0000      -0.492217       -13.3939
  51   2.0000      -0.480707       -13.0807
  52   2.0000      -0.468160       -12.7393
  53   2.0000      -0.461784       -12.5658
  54   2.0000      -0.454733       -12.3739
  55   2.0000      -0.445094       -12.1116
  56   2.0000      -0.443097       -12.0573
  57   2.0000      -0.438679       -11.9371
  58   2.0000      -0.435125       -11.8403
  59   2.0000      -0.424414       -11.5489
  60   2.0000      -0.422240       -11.4897
  61   2.0000      -0.415432       -11.3045
  62   2.0000      -0.411433       -11.1957
  63   2.0000      -0.345666        -9.4061
  64   2.0000      -0.336020        -9.1436
  65   2.0000      -0.332012        -9.0345
  66   2.0000      -0.293335        -7.9820
  67   0.0000       0.024387         0.6636
  68   0.0000       0.074276         2.0211
  69   0.0000       0.116887         3.1806
  70   0.0000       0.119852         3.2613
  71   0.0000       0.130472         3.5503

MULLIKEN ATOMIC CHARGES
-----------------------
   0 S :    0.107501
   1 C :   -0.101042
   2 C :   -0.050224
   3 C :    0.047522
   4 C :   -0.154842
   5 H :   -0.034469
   6 C :    0.141806
   7 H :    0.043647
   8 H :   -0.005054
   9 C :   -0.107716
  10 H :    0.037208
  11 H :    0.042401
  12 C :   -0.085502
  13 H :    0.022815
  14 H :    0.047029
  15 H :    0.028367
  16 S :    0.103906
  17 C :   -0.110666
  18 C :   -0.022043
  19 C :   -0.026255
  20 C :   -0.163496
  21 H :    0.007876
  22 C :    0.052328
  23 H :    0.052729
  24 H :    0.015173
  25 C :   -0.012392
  26 H :    0.018579
  27 H :    0.016164
  28 C :   -0.077974
  29 H :    0.045401
  30 H :    0.023011
  31 H :    0.032803
  32 H :    0.004404
  33 H :    0.061006
Sum of atomic charges:   -0.0000000

LOEWDIN ATOMIC CHARGES
----------------------
   0 S :    0.413942
   1 C :   -0.164645
   2 C :   -0.051433
   3 C :   -0.057082
   4 C :   -0.202335
   5 H :    0.008928
   6 C :   -0.022088
   7 H :    0.033785
   8 H :    0.024211
   9 C :   -0.038270
  10 H :    0.019886
  11 H :    0.032045
  12 C :   -0.075361
  13 H :    0.014961
  14 H :    0.032486
  15 H :    0.025411
  16 S :    0.407375
  17 C :   -0.182088
  18 C :   -0.072126
  19 C :   -0.066318
  20 C :   -0.193016
  21 H :    0.026804
  22 C :   -0.025260
  23 H :    0.037734
  24 H :    0.022371
  25 C :   -0.032137
  26 H :    0.014649
  27 H :    0.022040
  28 C :   -0.071421
  29 H :    0.034276
  30 H :    0.025365
  31 H :    0.022567
  32 H :    0.003212
  33 H :    0.031534

  Mayer bond orders larger than 0.100000
B(  0-S ,  1-C ) :   1.1399 B(  0-S ,  4-C ) :   1.1781 B(  1-C ,  2-C ) :   1.5642
B(  1-C ,  4-C ) :   0.1072 B(  1-C , 32-H ) :   0.9904 B(  2-C ,  3-C ) :   1.2701
B(  2-C ,  6-C ) :   1.0026 B(  3-C ,  4-C ) :   1.5133 B(  3-C ,  5-H ) :   1.0139
B(  4-C , 20-C ) :   1.0249 B(  6-C ,  7-H ) :   0.9460 B(  6-C ,  8-H ) :   0.9276
B(  6-C ,  9-C ) :   1.0592 B(  9-C , 10-H ) :   0.9619 B(  9-C , 11-H ) :   0.9569
B(  9-C , 12-C ) :   1.0745 B( 12-C , 13-H ) :   0.9779 B( 12-C , 14-H ) :   0.9758
B( 12-C , 15-H ) :   0.9745 B( 16-S , 17-C ) :   1.1485 B( 16-S , 20-C ) :   1.1625
B( 17-C , 18-C ) :   1.5987 B( 17-C , 20-C ) :   0.1022 B( 17-C , 33-H ) :   0.9712
B( 18-C , 19-C ) :   1.2438 B( 18-C , 21-H ) :   0.9923 B( 19-C , 20-C ) :   1.5690
B( 19-C , 22-C ) :   1.0252 B( 22-C , 23-H ) :   0.9434 B( 22-C , 24-H ) :   0.9276
B( 22-C , 25-C ) :   1.0701 B( 25-C , 26-H ) :   0.9569 B( 25-C , 27-H ) :   0.9513
B( 25-C , 28-C ) :   1.0761 B( 28-C , 29-H ) :   0.9738 B( 28-C , 30-H ) :   0.9722
B( 28-C , 31-H ) :   0.9762

Dispersion correction           -0.013855485
FINAL SINGLE POINT ENERGY     -1339.867018778466

DIPOLE MOMENT
-------------
                                X             Y             Z
Electronic contribution:      9.83421       2.87896     -13.31750
Nuclear contribution   :     -9.93617      -2.77907      13.59718
                        -----------------------------------------
Total Dipole Moment    :     -0.10197       0.09989       0.27968
                        -----------------------------------------
Magnitude (a.u.)       :      0.31400
Magnitude (Debye)      :      0.79812

Rotational constants in cm-1:     0.021009     0.007445     0.006533
Rotational constants in MHz :   629.829945   223.182518   195.864949

                             ****ORCA TERMINATED NORMALLY****
TOTAL RUN TIME: 0 days 0 hours 0 minutes 34 seconds 57 msec
