                         Program Version 4.2.1 -  RELEASE  -
|  1> ! wB97X-D3 SP def2-SVP
|  2> %pal
|  3> nprocs 16
|  4> end
|  5>
|  6> * xyz 0 1
|  7> S 	 32.5187 	 12.2305 	 69.9383
|  8> C 	 31.07 	 12.9541 	 70.6949
|  9> C 	 31.4302 	 14.1003 	 71.4443
| 10> C 	 32.8575 	 14.2124 	 71.5523
| 11> C 	 33.561 	 13.3159 	 70.7849
| 12> H 	 33.4105 	 14.938 	 72.123
| 13> C 	 30.4868 	 15.0268 	 72.2438
| 14> H 	 30.6676 	 14.7852 	 73.3431
| 15> H 	 29.4543 	 14.7982 	 71.9608
| 16> C 	 30.764 	 16.5538 	 72.2096
| 17> H 	 31.7511 	 16.8356 	 72.5755
| 18> H 	 30.7536 	 16.8787 	 71.1944
| 19> C 	 29.7543 	 17.3638 	 72.95
| 20> H 	 29.6842 	 17.0138 	 73.9537
| 21> H 	 30.117 	 18.3949 	 72.9578
| 22> H 	 28.6894 	 17.4443 	 72.6294
| 23> S 	 35.5346 	 14.7714 	 69.5129
| 24> C 	 37.1973 	 14.3172 	 69.6373
| 25> C 	 37.2438 	 13.1753 	 70.391
| 26> C 	 36.0383 	 12.5076 	 70.7015
| 27> C 	 34.9986 	 13.4068 	 70.5617
| 28> H 	 38.2767 	 12.8565 	 70.5832
| 29> C 	 36.0619 	 11.1898 	 71.3963
| 30> H 	 35.2916 	 11.1984 	 72.1875
| 31> H 	 37.017 	 11.1109 	 71.9737
| 32> C 	 36.1036 	 9.93401 	 70.4046
| 33> H 	 37.0656 	 10.1529 	 69.824
| 34> H 	 35.2707 	 10.0381 	 69.6808
| 35> C 	 36.22 	 8.47423 	 71.0147
| 36> H 	 35.324 	 8.09225 	 71.6444
| 37> H 	 37.0169 	 8.35002 	 71.7551
| 38> H 	 36.3359 	 7.83676 	 70.172
| 39> H 	 30.0758 	 12.6619 	 70.613
| 40> H 	 38.0884 	 14.8602 	 69.5736
| 41> *
| 42>
| 43>                          ****END OF INPUT****

CARTESIAN COORDINATES (ANGSTROEM)
---------------------------------
  S     32.518700   12.230500   69.938300
  C     31.070000   12.954100   70.694900
  C     31.430200   14.100300   71.444300
  C     32.857500   14.212400   71.552300
  C     33.561000   13.315900   70.784900
  H     33.410500   14.938000   72.123000
  C     30.486800   15.026800   72.243800
  H     30.667600   14.785200   73.343100
  H     29.454300   14.798200   71.960800
  C     30.764000   16.553800   72.209600
  H     31.751100   16.835600   72.575500
  H     30.753600   16.878700   71.194400
  C     29.754300   17.363800   72.950000
  H     29.684200   17.013800   73.953700
  H     30.117000   18.394900   72.957800
  H     28.689400   17.444300   72.629400
  S     35.534600   14.771400   69.512900
  C     37.197300   14.317200   69.637300
  C     37.243800   13.175300   70.391000
  C     36.038300   12.507600   70.701500
  C     34.998600   13.406800   70.561700
  H     38.276700   12.856500   70.583200
  C     36.061900   11.189800   71.396300
  H     35.291600   11.198400   72.187500
  H     37.017000   11.110900   71.973700
  C     36.103600    9.934010   70.404600
  H     37.065600   10.152900   69.824000
  H     35.270700   10.038100   69.680800
  C     36.220000    8.474230   71.014700
  H     35.324000    8.092250   71.644400
  H     37.016900    8.350020   71.755100
  H     36.335900    7.836760   70.172000
  H     30.075800   12.661900   70.613000
  H     38.088400   14.860200   69.573600

 Total Charge           Charge          ....    0
 Multiplicity           Mult            ....    1
 Number of Electrons    NEL             ....  134
 Basis Dimension        Dim             ....  322

ORBITAL ENERGIES
----------------

  NO   OCC          E(Eh)            E(eV)
   0   2.0000     -88.969735     -2420.9896
   1   2.0000     -88.962298     -2420.7872
   2   2.0000     -10.330306      -281.1019
   3   2.0000     -10.325359      -280.9673
   4   2.0000     -10.317307      -280.7482
   5   2.0000     -10.308464      -280.5076
   6   2.0000     -10.306383      -280.4509
   7   2.0000     -10.303534      -280.3734
   8   2.0000     -10.303235      -280.3653
   9   2.0000     -10.302549      -280.3466
  10   2.0000     -10.297026      -280.1963
  11   2.0000     -10.292035      -280.0605
  12   2.0000     -10.288649      -279.9684
  13   2.0000     -10.287786      -279.9449
  14   2.0000     -10.284709      -279.8612
  15   2.0000     -10.276077      -279.6263
  16   2.0000      -8.083774      -219.9707
  17   2.0000      -8.076522      -219.7733
  18   2.0000      -6.042393      -164.4219
  19   2.0000      -6.038310      -164.3108
  20   2.0000      -6.035207      -164.2263
  21   2.0000      -6.034528      -164.2079
  22   2.0000      -6.031036      -164.1128
  23   2.0000      -6.027155      -164.0072
  24   2.0000      -1.006546       -27.3895
  25   2.0000      -0.983165       -26.7533
  26   2.0000      -0.911685       -24.8082
  27   2.0000      -0.898313       -24.4443
  28   2.0000      -0.871158       -23.7054
  29   2.0000      -0.849351       -23.1120
  30   2.0000      -0.844644       -22.9839
  31   2.0000      -0.812646       -22.1132
  32   2.0000      -0.782162       -21.2837
  33   2.0000      -0.773243       -21.0410
  34   2.0000      -0.711301       -19.3555
  35   2.0000      -0.698128       -18.9970
  36   2.0000      -0.693633       -18.8747
  37   2.0000      -0.660488       -17.9728
  38   2.0000      -0.637983       -17.3604
  39   2.0000      -0.616163       -16.7667
  40   2.0000      -0.589909       -16.0522
  41   2.0000      -0.572130       -15.5684
  42   2.0000      -0.565586       -15.3904
  43   2.0000      -0.550175       -14.9710
  44   2.0000      -0.530240       -14.4286
  45   2.0000      -0.522972       -14.2308
  46   2.0000      -0.512926       -13.9574
  47   2.0000      -0.511269       -13.9123
  48   2.0000      -0.506843       -13.7919
  49   2.0000      -0.503737       -13.7074
  50   2.0000      -0.493306       -13.4235
  51   2.0000      -0.474644       -12.9157
  52   2.0000      -0.473877       -12.8948
  53   2.0000      -0.464939       -12.6516
  54   2.0000      -0.455574       -12.3968
  55   2.0000      -0.446052       -12.1377
  56   2.0000      -0.441051       -12.0016
  57   2.0000      -0.435433       -11.8487
  58   2.0000      -0.429815       -11.6959
  59   2.0000      -0.424882       -11.5616
  60   2.0000      -0.418167       -11.3789
  61   2.0000      -0.415688       -11.3115
  62   2.0000      -0.411048       -11.1852
  63   2.0000      -0.333941        -9.0870
  64   2.0000      -0.328724        -8.9450
  65   2.0000      -0.325666        -8.8618
  66   2.0000      -0.305546        -8.3143
  67   0.0000       0.029431         0.8009
  68   0.0000       0.062174         1.6918
  69   0.0000       0.108755         2.9594
  70   0.0000       0.112047         3.0490
  71   0.0000       0.125888         3.4256

MULLIKEN ATOMIC CHARGES
-----------------------
   0 S :    0.125709
   1 C :   -0.096859
   2 C :   -0.068577
   3 C :    0.016348
   4 C :   -0.141622
   5 H :    0.010110
   6 C :    0.041527
   7 H :    0.048258
   8 H :    0.024130
   9 C :   -0.063133
  10 H :    0.030695
  11 H :    0.023460
  12 C :   -0.050032
  13 H :    0.014801
  14 H :    0.033481
  15 H :    0.036738
  16 S :    0.101021
  17 C :   -0.050445
  18 C :   -0.078609
  19 C :    0.007055
  20 C :   -0.177721
  21 H :    0.018959
  22 C :    0.028243
  23 H :    0.037086
  24 H :    0.026098
  25 C :   -0.109559
  26 H :    0.040301
  27 H :    0.042859
  28 C :   -0.051695
  29 H :    0.044443
  30 H :    0.032730
  31 H :    0.042539
  32 H :    0.020833
  33 H :    0.040830
Sum of atomic charges:   -0.0000000

LOEWDIN ATOMIC CHARGES
----------------------
   0 S :    0.409245
   1 C :   -0.181867
   2 C :   -0.055136
   3 C :   -0.059421
   4 C :   -0.212367
   5 H :    0.029315
   6 C :   -0.033271
   7 H :    0.041735
   8 H :    0.028675
   9 C :   -0.042057
  10 H :    0.026722
  11 H :    0.021387
  12 C :   -0.067845
  13 H :    0.018058
  14 H :    0.031178
  15 H :    0.029242
  16 S :    0.395238
  17 C :   -0.197389
  18 C :   -0.071894
  19 C :   -0.058912
  20 C :   -0.175357
  21 H :    0.029599
  22 C :   -0.040253
  23 H :    0.030750
  24 H :    0.034212
  25 C :   -0.040465
  26 H :    0.033231
  27 H :    0.023811
  28 C :   -0.073442
  29 H :    0.036116
  30 H :    0.024947
  31 H :    0.025266
  32 H :    0.015079
  33 H :    0.025871

  Mayer bond orders larger than 0.100000
B(  0-S ,  1-C ) :   1.1339 B(  0-S ,  4-C ) :   1.1433 B(  1-C ,  2-C ) :   1.6052
B(  1-C , 32-H ) :   0.9768 B(  2-C ,  3-C ) :   1.2234 B(  2-C ,  6-C ) :   1.0298
B(  3-C ,  4-C ) :   1.5796 B(  3-C ,  5-H ) :   0.9972 B(  4-C , 20-C ) :   1.0422
B(  6-C ,  7-H ) :   0.9395 B(  6-C ,  8-H ) :   0.9467 B(  6-C ,  9-C ) :   1.0587
B(  9-C , 10-H ) :   0.9489 B(  9-C , 11-H ) :   0.9544 B(  9-C , 12-C ) :   1.0948
B( 12-C , 13-H ) :   0.9708 B( 12-C , 14-H ) :   0.9718 B( 12-C , 15-H ) :   0.9743
B( 16-S , 17-C ) :   1.1400 B( 16-S , 20-C ) :   1.1378 B( 17-C , 18-C ) :   1.6580
B( 17-C , 20-C ) :   0.1022 B( 17-C , 33-H ) :   0.9607 B( 18-C , 19-C ) :   1.2145
B( 18-C , 21-H ) :   0.9771 B( 19-C , 20-C ) :   1.5786 B( 19-C , 22-C ) :   1.0540
B( 22-C , 23-H ) :   0.9431 B( 22-C , 24-H ) :   0.9431 B( 22-C , 25-C ) :   1.0277
B( 25-C , 26-H ) :   0.9574 B( 25-C , 27-H ) :   0.9617 B( 25-C , 28-C ) :   1.0657
B( 28-C , 29-H ) :   0.9758 B( 28-C , 30-H ) :   0.9750 B( 28-C , 31-H ) :   0.9759

Dispersion correction           -0.013594677
FINAL SINGLE POINT ENERGY     -1339.857048723605

DIPOLE MOMENT
-------------
                                X             Y             Z
Electronic contribution:      5.07447       2.18469     -12.83693
Nuclear contribution   :     -5.04108      -2.14952      13.31439
                        -----------------------------------------
Total Dipole Moment    :      0.03338       0.03518       0.47746
                        -----------------------------------------
Magnitude (a.u.)       :      0.47991
Magnitude (Debye)      :      1.21984

Rotational constants in cm-1:     0.021246     0.007317     0.006031
Rotational constants in MHz :   636.936409   219.359642   180.795251

                             ****ORCA TERMINATED NORMALLY****
TOTAL RUN TIME: 0 days 0 hours 0 minutes 26 seconds 931 msec
