                         Program Version 4.2.1 -  RELEASE  -
|  1> ! wB97X-D3 SP def2-SVP
|  2> %pal
|  3> nprocs 16
|  4> end
|  5>
|  6> * xyz 0 1
|  7> S 	 -38.7622 	 44.25 	 95.4193
|  8> C 	 -39.1628 	 44.3244 	 97.1371
|  9> C 	 -38.2611 	 43.6485 	 97.8964
| 10> C 	 -37.2643 	 43.0223 	 97.0633
| 11> C 	 -37.4855 	 43.1208 	 95.6819
| 12> H 	 -36.4882 	 42.4866 	 97.4713
| 13> C 	 -38.0406 	 43.8974 	 99.3908
| 14> H 	 -37.9838 	 44.9555 	 99.5291
| 15> H 	 -37.0202 	 43.5612 	 99.57
| 16> C 	 -39.1498 	 43.2129 	 100.232
| 17> H 	 -40.1721 	 43.521 	 99.8429
| 18> H 	 -39.1548 	 42.1548 	 100.175
| 19> C 	 -38.9688 	 43.6642 	 101.725
| 20> H 	 -38.8504 	 44.736 	 101.828
| 21> H 	 -39.8523 	 43.4007 	 102.333
| 22> H 	 -38.0033 	 43.2859 	 102.097
| 23> S 	 -36.1549 	 43.7096 	 93.3381
| 24> C 	 -35.3239 	 42.4264 	 92.523
| 25> C 	 -35.4506 	 41.2417 	 93.2316
| 26> C 	 -36.288 	 41.3174 	 94.3662
| 27> C 	 -36.6817 	 42.5992 	 94.6334
| 28> H 	 -34.9373 	 40.36 	 92.7867
| 29> C 	 -36.4959 	 40.0717 	 95.2454
| 30> H 	 -37.2194 	 40.3072 	 95.9685
| 31> H 	 -35.5485 	 39.8979 	 95.7219
| 32> C 	 -36.957 	 38.8203 	 94.4435
| 33> H 	 -36.2097 	 38.5912 	 93.6664
| 34> H 	 -37.8983 	 39.0771 	 93.8738
| 35> C 	 -37.1098 	 37.6399 	 95.3834
| 36> H 	 -37.2447 	 36.7697 	 94.8072
| 37> H 	 -37.9992 	 37.824 	 95.9253
| 38> H 	 -36.3004 	 37.4469 	 96.043
| 39> H 	 -39.8452 	 44.9785 	 97.6098
| 40> H 	 -34.7185 	 42.6103 	 91.5938
| 41> *
| 42>
| 43>                          ****END OF INPUT****

CARTESIAN COORDINATES (ANGSTROEM)
---------------------------------
  S    -38.762200   44.250000   95.419300
  C    -39.162800   44.324400   97.137100
  C    -38.261100   43.648500   97.896400
  C    -37.264300   43.022300   97.063300
  C    -37.485500   43.120800   95.681900
  H    -36.488200   42.486600   97.471300
  C    -38.040600   43.897400   99.390800
  H    -37.983800   44.955500   99.529100
  H    -37.020200   43.561200   99.570000
  C    -39.149800   43.212900  100.232000
  H    -40.172100   43.521000   99.842900
  H    -39.154800   42.154800  100.175000
  C    -38.968800   43.664200  101.725000
  H    -38.850400   44.736000  101.828000
  H    -39.852300   43.400700  102.333000
  H    -38.003300   43.285900  102.097000
  S    -36.154900   43.709600   93.338100
  C    -35.323900   42.426400   92.523000
  C    -35.450600   41.241700   93.231600
  C    -36.288000   41.317400   94.366200
  C    -36.681700   42.599200   94.633400
  H    -34.937300   40.360000   92.786700
  C    -36.495900   40.071700   95.245400
  H    -37.219400   40.307200   95.968500
  H    -35.548500   39.897900   95.721900
  C    -36.957000   38.820300   94.443500
  H    -36.209700   38.591200   93.666400
  H    -37.898300   39.077100   93.873800
  C    -37.109800   37.639900   95.383400
  H    -37.244700   36.769700   94.807200
  H    -37.999200   37.824000   95.925300
  H    -36.300400   37.446900   96.043000
  H    -39.845200   44.978500   97.609800
  H    -34.718500   42.610300   91.593800

 Total Charge           Charge          ....    0
 Multiplicity           Mult            ....    1
 Number of Electrons    NEL             ....  134
 Basis Dimension        Dim             ....  322

ORBITAL ENERGIES
----------------

  NO   OCC          E(Eh)            E(eV)
   0   2.0000     -88.964977     -2420.8601
   1   2.0000     -88.962398     -2420.7899
   2   2.0000     -10.325907      -280.9822
   3   2.0000     -10.323323      -280.9119
   4   2.0000     -10.320632      -280.8387
   5   2.0000     -10.306856      -280.4638
   6   2.0000     -10.300759      -280.2979
   7   2.0000     -10.294558      -280.1292
   8   2.0000     -10.294364      -280.1239
   9   2.0000     -10.293897      -280.1112
  10   2.0000     -10.293722      -280.1064
  11   2.0000     -10.289953      -280.0039
  12   2.0000     -10.288120      -279.9540
  13   2.0000     -10.286810      -279.9183
  14   2.0000     -10.282023      -279.7881
  15   2.0000     -10.266949      -279.3779
  16   2.0000      -8.079805      -219.8627
  17   2.0000      -8.077317      -219.7950
  18   2.0000      -6.038360      -164.3121
  19   2.0000      -6.035799      -164.2424
  20   2.0000      -6.034300      -164.2017
  21   2.0000      -6.031810      -164.1339
  22   2.0000      -6.030497      -164.0982
  23   2.0000      -6.028076      -164.0323
  24   2.0000      -1.008282       -27.4367
  25   2.0000      -0.984180       -26.7809
  26   2.0000      -0.910801       -24.7842
  27   2.0000      -0.908747       -24.7283
  28   2.0000      -0.870585       -23.6898
  29   2.0000      -0.854708       -23.2578
  30   2.0000      -0.841939       -22.9103
  31   2.0000      -0.809989       -22.0409
  32   2.0000      -0.783949       -21.3323
  33   2.0000      -0.773188       -21.0395
  34   2.0000      -0.708924       -19.2908
  35   2.0000      -0.706183       -19.2162
  36   2.0000      -0.698651       -19.0113
  37   2.0000      -0.656059       -17.8523
  38   2.0000      -0.639049       -17.3894
  39   2.0000      -0.620218       -16.8770
  40   2.0000      -0.596149       -16.2220
  41   2.0000      -0.568879       -15.4800
  42   2.0000      -0.566891       -15.4259
  43   2.0000      -0.554419       -15.0865
  44   2.0000      -0.530106       -14.4249
  45   2.0000      -0.527569       -14.3559
  46   2.0000      -0.519368       -14.1327
  47   2.0000      -0.514040       -13.9877
  48   2.0000      -0.504908       -13.7392
  49   2.0000      -0.500434       -13.6175
  50   2.0000      -0.494278       -13.4500
  51   2.0000      -0.475910       -12.9502
  52   2.0000      -0.473420       -12.8824
  53   2.0000      -0.467389       -12.7183
  54   2.0000      -0.457597       -12.4519
  55   2.0000      -0.454664       -12.3720
  56   2.0000      -0.445705       -12.1282
  57   2.0000      -0.437338       -11.9006
  58   2.0000      -0.433882       -11.8065
  59   2.0000      -0.426143       -11.5960
  60   2.0000      -0.422474       -11.4961
  61   2.0000      -0.414565       -11.2809
  62   2.0000      -0.412050       -11.2125
  63   2.0000      -0.347152        -9.4465
  64   2.0000      -0.331805        -9.0289
  65   2.0000      -0.327998        -8.9253
  66   2.0000      -0.289615        -7.8808
  67   0.0000       0.028586         0.7779
  68   0.0000       0.072317         1.9678
  69   0.0000       0.108825         2.9613
  70   0.0000       0.124662         3.3922
  71   0.0000       0.131377         3.5749

MULLIKEN ATOMIC CHARGES
-----------------------
   0 S :    0.111205
   1 C :   -0.093304
   2 C :   -0.096362
   3 C :    0.048588
   4 C :   -0.155455
   5 H :   -0.023782
   6 C :    0.060499
   7 H :    0.032334
   8 H :    0.016754
   9 C :   -0.080041
  10 H :    0.036448
  11 H :    0.031375
  12 C :   -0.043941
  13 H :    0.020406
  14 H :    0.044355
  15 H :    0.030255
  16 S :    0.097077
  17 C :   -0.119928
  18 C :   -0.054723
  19 C :   -0.024792
  20 C :   -0.156830
  21 H :    0.035816
  22 C :    0.107949
  23 H :    0.011831
  24 H :    0.033858
  25 C :   -0.145106
  26 H :    0.027936
  27 H :    0.046221
  28 C :    0.029182
  29 H :    0.018837
  30 H :    0.022110
  31 H :    0.022309
  32 H :    0.028776
  33 H :    0.080145
Sum of atomic charges:    0.0000000

LOEWDIN ATOMIC CHARGES
----------------------
   0 S :    0.412202
   1 C :   -0.187744
   2 C :   -0.065505
   3 C :   -0.054092
   4 C :   -0.202339
   5 H :    0.011961
   6 C :   -0.023346
   7 H :    0.029531
   8 H :    0.029196
   9 C :   -0.033760
  10 H :    0.028945
  11 H :    0.020704
  12 C :   -0.070643
  13 H :    0.020639
  14 H :    0.028488
  15 H :    0.026756
  16 S :    0.390579
  17 C :   -0.193488
  18 C :   -0.082057
  19 C :   -0.052426
  20 C :   -0.191889
  21 H :    0.037488
  22 C :   -0.019057
  23 H :    0.020789
  24 H :    0.031344
  25 C :   -0.039559
  26 H :    0.018361
  27 H :    0.033959
  28 C :   -0.054871
  29 H :    0.022133
  30 H :    0.023968
  31 H :    0.022236
  32 H :    0.019935
  33 H :    0.041561

  Mayer bond orders larger than 0.100000
B(  0-S ,  1-C ) :   1.1372 B(  0-S ,  4-C ) :   1.1496 B(  1-C ,  2-C ) :   1.6171
B(  1-C , 32-H ) :   0.9661 B(  2-C ,  3-C ) :   1.2632 B(  2-C ,  6-C ) :   1.0054
B(  3-C ,  4-C ) :   1.5342 B(  3-C ,  5-H ) :   1.0042 B(  4-C , 20-C ) :   1.0816
B(  6-C ,  7-H ) :   0.9513 B(  6-C ,  8-H ) :   0.9475 B(  6-C ,  9-C ) :   1.0419
B(  9-C , 10-H ) :   0.9628 B(  9-C , 11-H ) :   0.9599 B(  9-C , 12-C ) :   1.0710
B( 12-C , 13-H ) :   0.9771 B( 12-C , 14-H ) :   0.9757 B( 12-C , 15-H ) :   0.9736
B( 16-S , 17-C ) :   1.1591 B( 16-S , 20-C ) :   1.1229 B( 17-C , 18-C ) :   1.6117
B( 17-C , 20-C ) :   0.1005 B( 17-C , 33-H ) :   0.9607 B( 18-C , 19-C ) :   1.2252
B( 18-C , 21-H ) :   0.9841 B( 19-C , 20-C ) :   1.6082 B( 19-C , 22-C ) :   1.0369
B( 22-C , 23-H ) :   0.9294 B( 22-C , 24-H ) :   0.9363 B( 22-C , 25-C ) :   1.0606
B( 25-C , 26-H ) :   0.9563 B( 25-C , 27-H ) :   0.9566 B( 25-C , 28-C ) :   1.0864
B( 28-C , 29-H ) :   0.9702 B( 28-C , 30-H ) :   0.9722 B( 28-C , 31-H ) :   0.9720

Dispersion correction           -0.013283510
FINAL SINGLE POINT ENERGY     -1339.877907956353

DIPOLE MOMENT
-------------
                                X             Y             Z
Electronic contribution:      2.73095      17.78989     -22.51888
Nuclear contribution   :     -2.47463     -18.19409      22.96535
                        -----------------------------------------
Total Dipole Moment    :      0.25631      -0.40420       0.44647
                        -----------------------------------------
Magnitude (a.u.)       :      0.65453
Magnitude (Debye)      :      1.66368

Rotational constants in cm-1:     0.018316     0.007768     0.005942
Rotational constants in MHz :   549.101639   232.879982   178.139090

                             ****ORCA TERMINATED NORMALLY****
TOTAL RUN TIME: 0 days 0 hours 0 minutes 29 seconds 56 msec
