                         Program Version 4.2.1 -  RELEASE  -
|  1> ! wB97X-D3 SP def2-SVP
|  2> %pal
|  3> nprocs 16
|  4> end
|  5>
|  6> * xyz 0 1
|  7> S 	 -93.5843 	 58.2996 	 129.823
|  8> C 	 -92.8446 	 59.9076 	 129.894
|  9> C 	 -93.7776 	 60.8771 	 130.339
| 10> C 	 -95.0712 	 60.3511 	 130.568
| 11> C 	 -95.1342 	 58.9828 	 130.315
| 12> H 	 -95.8994 	 60.8876 	 130.972
| 13> C 	 -93.4097 	 62.3267 	 130.631
| 14> H 	 -92.4418 	 62.4068 	 131.083
| 15> H 	 -94.1568 	 62.8776 	 131.241
| 16> C 	 -93.5064 	 63.1938 	 129.362
| 17> H 	 -92.9338 	 62.6651 	 128.63
| 18> H 	 -94.546 	 63.2103 	 129.026
| 19> C 	 -92.8932 	 64.684 	 129.621
| 20> H 	 -92.7684 	 65.2406 	 128.657
| 21> H 	 -93.2407 	 65.3465 	 130.458
| 22> H 	 -91.8944 	 64.5624 	 129.925
| 23> S 	 -95.9207 	 56.4608 	 131.079
| 24> C 	 -97.6331 	 56.1002 	 131.207
| 25> C 	 -98.4657 	 57.1672 	 131.003
| 26> C 	 -97.7384 	 58.3195 	 130.626
| 27> C 	 -96.3382 	 58.1302 	 130.514
| 28> H 	 -99.5701 	 57.1234 	 131.047
| 29> C 	 -98.4937 	 59.6407 	 130.447
| 30> H 	 -99.3813 	 59.5557 	 129.865
| 31> H 	 -97.8227 	 60.2371 	 129.905
| 32> C 	 -98.7589 	 60.6597 	 131.668
| 33> H 	 -97.9197 	 60.8327 	 132.279
| 34> H 	 -99.4269 	 60.073 	 132.395
| 35> C 	 -99.5673 	 61.916 	 131.307
| 36> H 	 -100.547 	 61.5735 	 130.861
| 37> H 	 -99.036 	 62.4047 	 130.465
| 38> H 	 -99.7838 	 62.636 	 132.135
| 39> H 	 -91.8359 	 60.1149 	 129.585
| 40> H 	 -97.9113 	 55.0916 	 131.334
| 41> *
| 42>
| 43>                          ****END OF INPUT****

CARTESIAN COORDINATES (ANGSTROEM)
---------------------------------
  S    -93.584300   58.299600  129.823000
  C    -92.844600   59.907600  129.894000
  C    -93.777600   60.877100  130.339000
  C    -95.071200   60.351100  130.568000
  C    -95.134200   58.982800  130.315000
  H    -95.899400   60.887600  130.972000
  C    -93.409700   62.326700  130.631000
  H    -92.441800   62.406800  131.083000
  H    -94.156800   62.877600  131.241000
  C    -93.506400   63.193800  129.362000
  H    -92.933800   62.665100  128.630000
  H    -94.546000   63.210300  129.026000
  C    -92.893200   64.684000  129.621000
  H    -92.768400   65.240600  128.657000
  H    -93.240700   65.346500  130.458000
  H    -91.894400   64.562400  129.925000
  S    -95.920700   56.460800  131.079000
  C    -97.633100   56.100200  131.207000
  C    -98.465700   57.167200  131.003000
  C    -97.738400   58.319500  130.626000
  C    -96.338200   58.130200  130.514000
  H    -99.570100   57.123400  131.047000
  C    -98.493700   59.640700  130.447000
  H    -99.381300   59.555700  129.865000
  H    -97.822700   60.237100  129.905000
  C    -98.758900   60.659700  131.668000
  H    -97.919700   60.832700  132.279000
  H    -99.426900   60.073000  132.395000
  C    -99.567300   61.916000  131.307000
  H    -100.547000   61.573500  130.861000
  H    -99.036000   62.404700  130.465000
  H    -99.783800   62.636000  132.135000
  H    -91.835900   60.114900  129.585000
  H    -97.911300   55.091600  131.334000

 Total Charge           Charge          ....    0
 Multiplicity           Mult            ....    1
 Number of Electrons    NEL             ....  134
 Basis Dimension        Dim             ....  322

ORBITAL ENERGIES
----------------

  NO   OCC          E(Eh)            E(eV)
   0   2.0000     -88.974202     -2421.1111
   1   2.0000     -88.965548     -2420.8756
   2   2.0000     -10.338645      -281.3288
   3   2.0000     -10.337969      -281.3104
   4   2.0000     -10.320603      -280.8379
   5   2.0000     -10.315654      -280.7032
   6   2.0000     -10.311491      -280.5899
   7   2.0000     -10.307791      -280.4892
   8   2.0000     -10.296713      -280.1878
   9   2.0000     -10.296158      -280.1727
  10   2.0000     -10.295333      -280.1503
  11   2.0000     -10.293096      -280.0894
  12   2.0000     -10.293057      -280.0883
  13   2.0000     -10.292677      -280.0780
  14   2.0000     -10.292585      -280.0755
  15   2.0000     -10.287239      -279.9300
  16   2.0000      -8.087916      -220.0834
  17   2.0000      -8.079715      -219.8602
  18   2.0000      -6.046476      -164.5330
  19   2.0000      -6.042615      -164.4279
  20   2.0000      -6.038641      -164.3198
  21   2.0000      -6.038193      -164.3076
  22   2.0000      -6.034455      -164.2059
  23   2.0000      -6.030399      -164.0955
  24   2.0000      -1.001294       -27.2466
  25   2.0000      -0.979909       -26.6647
  26   2.0000      -0.908663       -24.7260
  27   2.0000      -0.901539       -24.5321
  28   2.0000      -0.862700       -23.4753
  29   2.0000      -0.854043       -23.2397
  30   2.0000      -0.845178       -22.9985
  31   2.0000      -0.810930       -22.0665
  32   2.0000      -0.781957       -21.2781
  33   2.0000      -0.770138       -20.9565
  34   2.0000      -0.705307       -19.1924
  35   2.0000      -0.704020       -19.1574
  36   2.0000      -0.695582       -18.9277
  37   2.0000      -0.666460       -18.1353
  38   2.0000      -0.643306       -17.5052
  39   2.0000      -0.622941       -16.9511
  40   2.0000      -0.600130       -16.3304
  41   2.0000      -0.572770       -15.5859
  42   2.0000      -0.563370       -15.3301
  43   2.0000      -0.552264       -15.0279
  44   2.0000      -0.524007       -14.2590
  45   2.0000      -0.517798       -14.0900
  46   2.0000      -0.515686       -14.0325
  47   2.0000      -0.509435       -13.8624
  48   2.0000      -0.504965       -13.7408
  49   2.0000      -0.498348       -13.5607
  50   2.0000      -0.490541       -13.3483
  51   2.0000      -0.474182       -12.9032
  52   2.0000      -0.471120       -12.8198
  53   2.0000      -0.464643       -12.6436
  54   2.0000      -0.461140       -12.5482
  55   2.0000      -0.458297       -12.4709
  56   2.0000      -0.450576       -12.2608
  57   2.0000      -0.439975       -11.9723
  58   2.0000      -0.436467       -11.8769
  59   2.0000      -0.428851       -11.6696
  60   2.0000      -0.423741       -11.5306
  61   2.0000      -0.415095       -11.2953
  62   2.0000      -0.401935       -10.9372
  63   2.0000      -0.355301        -9.6682
  64   2.0000      -0.337403        -9.1812
  65   2.0000      -0.331969        -9.0333
  66   2.0000      -0.282108        -7.6766
  67   0.0000       0.014929         0.4063
  68   0.0000       0.070388         1.9154
  69   0.0000       0.093210         2.5364
  70   0.0000       0.122394         3.3305
  71   0.0000       0.125581         3.4172

MULLIKEN ATOMIC CHARGES
-----------------------
   0 S :    0.116437
   1 C :   -0.121823
   2 C :   -0.070141
   3 C :    0.019843
   4 C :   -0.106197
   5 H :   -0.009105
   6 C :    0.045515
   7 H :    0.027930
   8 H :    0.028743
   9 C :   -0.066412
  10 H :    0.020539
  11 H :    0.035203
  12 C :   -0.066368
  13 H :    0.046324
  14 H :    0.044813
  15 H :    0.008392
  16 S :    0.069555
  17 C :   -0.072752
  18 C :   -0.011667
  19 C :   -0.060575
  20 C :   -0.117608
  21 H :    0.032809
  22 C :    0.072017
  23 H :    0.018901
  24 H :   -0.000649
  25 C :   -0.083860
  26 H :    0.028069
  27 H :    0.022708
  28 C :   -0.074242
  29 H :    0.037151
  30 H :    0.032626
  31 H :    0.060048
  32 H :    0.048329
  33 H :    0.045445
Sum of atomic charges:   -0.0000000

LOEWDIN ATOMIC CHARGES
----------------------
   0 S :    0.400026
   1 C :   -0.194902
   2 C :   -0.053253
   3 C :   -0.062853
   4 C :   -0.183870
   5 H :    0.028535
   6 C :   -0.033940
   7 H :    0.025529
   8 H :    0.034381
   9 C :   -0.027049
  10 H :    0.016784
  11 H :    0.023510
  12 C :   -0.083039
  13 H :    0.033872
  14 H :    0.033399
  15 H :    0.016201
  16 S :    0.373577
  17 C :   -0.165671
  18 C :   -0.071356
  19 C :   -0.055606
  20 C :   -0.169206
  21 H :    0.041846
  22 C :   -0.028024
  23 H :    0.026366
  24 H :    0.019089
  25 C :   -0.042822
  26 H :    0.013031
  27 H :    0.025154
  28 C :   -0.074025
  29 H :    0.031276
  30 H :    0.024318
  31 H :    0.036625
  32 H :    0.025278
  33 H :    0.016817

  Mayer bond orders larger than 0.100000
B(  0-S ,  1-C ) :   1.1315 B(  0-S ,  4-C ) :   1.1599 B(  1-C ,  2-C ) :   1.5784
B(  1-C ,  4-C ) :   0.1035 B(  1-C , 32-H ) :   0.9724 B(  2-C ,  3-C ) :   1.2697
B(  2-C ,  6-C ) :   1.0256 B(  3-C ,  4-C ) :   1.5381 B(  3-C ,  5-H ) :   0.9956
B(  4-C , 20-C ) :   1.0479 B(  6-C ,  7-H ) :   0.9483 B(  6-C ,  8-H ) :   0.9504
B(  6-C ,  9-C ) :   1.0452 B(  9-C , 10-H ) :   0.9614 B(  9-C , 11-H ) :   0.9628
B(  9-C , 12-C ) :   1.0555 B( 12-C , 13-H ) :   0.9772 B( 12-C , 14-H ) :   0.9777
B( 12-C , 15-H ) :   0.9722 B( 16-S , 17-C ) :   1.1575 B( 16-S , 20-C ) :   1.1252
B( 17-C , 18-C ) :   1.5944 B( 17-C , 20-C ) :   0.1007 B( 17-C , 33-H ) :   0.9717
B( 18-C , 19-C ) :   1.2495 B( 18-C , 21-H ) :   0.9889 B( 19-C , 20-C ) :   1.5915
B( 19-C , 22-C ) :   1.0490 B( 22-C , 23-H ) :   0.9399 B( 22-C , 24-H ) :   0.9317
B( 22-C , 25-C ) :   1.0387 B( 25-C , 26-H ) :   0.9571 B( 25-C , 27-H ) :   0.9545
B( 25-C , 28-C ) :   1.0660 B( 28-C , 29-H ) :   0.9739 B( 28-C , 30-H ) :   0.9767
B( 28-C , 31-H ) :   0.9725

Dispersion correction           -0.013659053
FINAL SINGLE POINT ENERGY     -1339.855753630956

DIPOLE MOMENT
-------------
                                X             Y             Z
Electronic contribution:      8.21003     -32.42437      -0.45355
Nuclear contribution   :     -8.45707      32.98134       0.55996
                        -----------------------------------------
Total Dipole Moment    :     -0.24704       0.55696       0.10641
                        -----------------------------------------
Magnitude (a.u.)       :      0.61852
Magnitude (Debye)      :      1.57214

Rotational constants in cm-1:     0.017102     0.008797     0.005992
Rotational constants in MHz :   512.700416   263.718468   179.645512

                             ****ORCA TERMINATED NORMALLY****
TOTAL RUN TIME: 0 days 0 hours 0 minutes 36 seconds 229 msec
