                         Program Version 4.2.1 -  RELEASE  -
|  1> ! wB97X-D3 SP def2-SVP
|  2> %pal
|  3> nprocs 16
|  4> end
|  5>
|  6> * xyz 0 1
|  7> S 	 -7.81396 	 42.2582 	 33.3975
|  8> C 	 -7.36965 	 40.5987 	 32.7753
|  9> C 	 -6.31516 	 40.0913 	 33.4945
| 10> C 	 -5.8243 	 41.0355 	 34.4493
| 11> C 	 -6.35738 	 42.3265 	 34.386
| 12> H 	 -5.03308 	 40.8083 	 35.2073
| 13> C 	 -5.89221 	 38.608 	 33.4761
| 14> H 	 -5.76911 	 38.2775 	 32.4489
| 15> H 	 -6.64936 	 37.941 	 33.816
| 16> C 	 -4.58362 	 38.3174 	 34.2491
| 17> H 	 -3.7268 	 39.0429 	 34.0687
| 18> H 	 -4.77362 	 38.3416 	 35.3902
| 19> C 	 -4.05573 	 37.015 	 33.8182
| 20> H 	 -4.59191 	 36.1296 	 33.8603
| 21> H 	 -3.81211 	 37.08 	 32.7279
| 22> H 	 -3.12872 	 36.7713 	 34.4569
| 23> S 	 -7.13755 	 44.4995 	 35.8442
| 24> C 	 -5.96745 	 45.5195 	 36.6195
| 25> C 	 -4.72009 	 45.0395 	 36.3813
| 26> C 	 -4.69096 	 43.9545 	 35.4621
| 27> C 	 -5.95853 	 43.4751 	 35.1453
| 28> H 	 -3.88208 	 45.5837 	 36.7407
| 29> C 	 -3.32078 	 43.3844 	 35.0424
| 30> H 	 -3.24661 	 42.3411 	 35.5654
| 31> H 	 -2.53566 	 43.9698 	 35.5219
| 32> C 	 -3.06088 	 43.3044 	 33.5699
| 33> H 	 -3.10579 	 44.2668 	 33.0603
| 34> H 	 -3.78348 	 42.6737 	 33.0479
| 35> C 	 -1.66182 	 42.6714 	 33.3137
| 36> H 	 -1.52121 	 41.653 	 33.7242
| 37> H 	 -1.00829 	 43.2932 	 33.8902
| 38> H 	 -1.45897 	 42.66 	 32.2305
| 39> H 	 -7.91716 	 40.0326 	 32.0385
| 40> H 	 -6.22126 	 46.3193 	 37.2323
| 41> *
| 42>
| 43>                          ****END OF INPUT****

CARTESIAN COORDINATES (ANGSTROEM)
---------------------------------
  S     -7.813960   42.258200   33.397500
  C     -7.369650   40.598700   32.775300
  C     -6.315160   40.091300   33.494500
  C     -5.824300   41.035500   34.449300
  C     -6.357380   42.326500   34.386000
  H     -5.033080   40.808300   35.207300
  C     -5.892210   38.608000   33.476100
  H     -5.769110   38.277500   32.448900
  H     -6.649360   37.941000   33.816000
  C     -4.583620   38.317400   34.249100
  H     -3.726800   39.042900   34.068700
  H     -4.773620   38.341600   35.390200
  C     -4.055730   37.015000   33.818200
  H     -4.591910   36.129600   33.860300
  H     -3.812110   37.080000   32.727900
  H     -3.128720   36.771300   34.456900
  S     -7.137550   44.499500   35.844200
  C     -5.967450   45.519500   36.619500
  C     -4.720090   45.039500   36.381300
  C     -4.690960   43.954500   35.462100
  C     -5.958530   43.475100   35.145300
  H     -3.882080   45.583700   36.740700
  C     -3.320780   43.384400   35.042400
  H     -3.246610   42.341100   35.565400
  H     -2.535660   43.969800   35.521900
  C     -3.060880   43.304400   33.569900
  H     -3.105790   44.266800   33.060300
  H     -3.783480   42.673700   33.047900
  C     -1.661820   42.671400   33.313700
  H     -1.521210   41.653000   33.724200
  H     -1.008290   43.293200   33.890200
  H     -1.458970   42.660000   32.230500
  H     -7.917160   40.032600   32.038500
  H     -6.221260   46.319300   37.232300

 Total Charge           Charge          ....    0
 Multiplicity           Mult            ....    1
 Number of Electrons    NEL             ....  134
 Basis Dimension        Dim             ....  322

ORBITAL ENERGIES
----------------

  NO   OCC          E(Eh)            E(eV)
   0   2.0000     -88.965641     -2420.8782
   1   2.0000     -88.963546     -2420.8212
   2   2.0000     -10.332510      -281.1619
   3   2.0000     -10.324368      -280.9403
   4   2.0000     -10.318467      -280.7798
   5   2.0000     -10.311121      -280.5799
   6   2.0000     -10.304165      -280.3906
   7   2.0000     -10.302726      -280.3514
   8   2.0000     -10.298717      -280.2423
   9   2.0000     -10.298258      -280.2298
  10   2.0000     -10.297617      -280.2124
  11   2.0000     -10.295963      -280.1674
  12   2.0000     -10.288402      -279.9617
  13   2.0000     -10.279904      -279.7304
  14   2.0000     -10.279305      -279.7141
  15   2.0000     -10.276605      -279.6406
  16   2.0000      -8.079528      -219.8551
  17   2.0000      -8.079047      -219.8420
  18   2.0000      -6.037906      -164.2998
  19   2.0000      -6.037763      -164.2959
  20   2.0000      -6.033869      -164.1899
  21   2.0000      -6.033760      -164.1870
  22   2.0000      -6.030446      -164.0968
  23   2.0000      -6.029524      -164.0717
  24   2.0000      -1.011400       -27.5216
  25   2.0000      -0.981590       -26.7104
  26   2.0000      -0.916978       -24.9522
  27   2.0000      -0.908449       -24.7202
  28   2.0000      -0.877976       -23.8909
  29   2.0000      -0.849530       -23.1169
  30   2.0000      -0.842405       -22.9230
  31   2.0000      -0.814188       -22.1552
  32   2.0000      -0.781077       -21.2542
  33   2.0000      -0.770409       -20.9639
  34   2.0000      -0.715610       -19.4727
  35   2.0000      -0.696742       -18.9593
  36   2.0000      -0.688773       -18.7425
  37   2.0000      -0.667296       -18.1580
  38   2.0000      -0.639581       -17.4039
  39   2.0000      -0.615809       -16.7570
  40   2.0000      -0.597772       -16.2662
  41   2.0000      -0.572729       -15.5848
  42   2.0000      -0.568969       -15.4824
  43   2.0000      -0.562148       -15.2968
  44   2.0000      -0.530804       -14.4439
  45   2.0000      -0.526751       -14.3336
  46   2.0000      -0.515453       -14.0262
  47   2.0000      -0.510134       -13.8815
  48   2.0000      -0.504478       -13.7276
  49   2.0000      -0.497736       -13.5441
  50   2.0000      -0.491966       -13.3871
  51   2.0000      -0.486289       -13.2326
  52   2.0000      -0.481264       -13.0959
  53   2.0000      -0.470164       -12.7938
  54   2.0000      -0.457287       -12.4434
  55   2.0000      -0.448314       -12.1992
  56   2.0000      -0.444795       -12.1035
  57   2.0000      -0.437371       -11.9015
  58   2.0000      -0.428025       -11.6472
  59   2.0000      -0.417066       -11.3489
  60   2.0000      -0.415641       -11.3102
  61   2.0000      -0.412557       -11.2263
  62   2.0000      -0.408154       -11.1064
  63   2.0000      -0.355138        -9.6638
  64   2.0000      -0.331130        -9.0105
  65   2.0000      -0.328372        -8.9355
  66   2.0000      -0.286042        -7.7836
  67   0.0000       0.019516         0.5311
  68   0.0000       0.075927         2.0661
  69   0.0000       0.099893         2.7182
  70   0.0000       0.118885         3.2350
  71   0.0000       0.131512         3.5786

MULLIKEN ATOMIC CHARGES
-----------------------
   0 S :    0.090911
   1 C :   -0.123253
   2 C :   -0.051063
   3 C :   -0.015130
   4 C :   -0.131430
   5 H :    0.031578
   6 C :    0.070643
   7 H :    0.018155
   8 H :    0.038362
   9 C :   -0.130392
  10 H :    0.051104
  11 H :    0.049987
  12 C :   -0.046119
  13 H :    0.014310
  14 H :    0.031631
  15 H :    0.037996
  16 S :    0.104068
  17 C :   -0.067504
  18 C :   -0.016186
  19 C :   -0.047446
  20 C :   -0.132787
  21 H :    0.009038
  22 C :    0.032651
  23 H :    0.043865
  24 H :    0.009167
  25 C :   -0.069193
  26 H :    0.033422
  27 H :    0.043009
  28 C :   -0.044330
  29 H :    0.028916
  30 H :    0.014066
  31 H :    0.043572
  32 H :    0.042731
  33 H :    0.035653
Sum of atomic charges:   -0.0000000

LOEWDIN ATOMIC CHARGES
----------------------
   0 S :    0.367471
   1 C :   -0.170355
   2 C :   -0.063797
   3 C :   -0.069092
   4 C :   -0.185663
   5 H :    0.035930
   6 C :   -0.027179
   7 H :    0.030246
   8 H :    0.033057
   9 C :   -0.056171
  10 H :    0.034660
  11 H :    0.031917
  12 C :   -0.072160
  13 H :    0.011136
  14 H :    0.030482
  15 H :    0.035950
  16 S :    0.427790
  17 C :   -0.174305
  18 C :   -0.069183
  19 C :   -0.056734
  20 C :   -0.214001
  21 H :    0.027687
  22 C :   -0.035408
  23 H :    0.039697
  24 H :    0.025433
  25 C :   -0.043606
  26 H :    0.027717
  27 H :    0.025492
  28 C :   -0.062778
  29 H :    0.024236
  30 H :    0.016993
  31 H :    0.029014
  32 H :    0.027190
  33 H :    0.018334

  Mayer bond orders larger than 0.100000
B(  0-S ,  1-C ) :   1.1167 B(  0-S ,  4-C ) :   1.1328 B(  1-C ,  2-C ) :   1.6262
B(  1-C ,  4-C ) :   0.1069 B(  1-C , 32-H ) :   0.9747 B(  2-C ,  3-C ) :   1.2507
B(  2-C ,  6-C ) :   1.0002 B(  3-C ,  4-C ) :   1.5492 B(  3-C ,  5-H ) :   0.9789
B(  4-C , 20-C ) :   1.0888 B(  6-C ,  7-H ) :   0.9435 B(  6-C ,  8-H ) :   0.9373
B(  6-C ,  9-C ) :   1.0699 B(  9-C , 10-H ) :   0.9557 B(  9-C , 11-H ) :   0.9431
B(  9-C , 12-C ) :   1.0855 B( 12-C , 13-H ) :   0.9746 B( 12-C , 14-H ) :   0.9700
B( 12-C , 15-H ) :   0.9692 B( 16-S , 17-C ) :   1.1644 B( 16-S , 20-C ) :   1.1486
B( 17-C , 18-C ) :   1.5843 B( 17-C , 33-H ) :   0.9785 B( 18-C , 19-C ) :   1.2728
B( 18-C , 21-H ) :   0.9939 B( 19-C , 20-C ) :   1.5587 B( 19-C , 22-C ) :   1.0320
B( 22-C , 23-H ) :   0.9346 B( 22-C , 24-H ) :   0.9342 B( 22-C , 25-C ) :   1.0679
B( 25-C , 26-H ) :   0.9519 B( 25-C , 27-H ) :   0.9520 B( 25-C , 28-C ) :   1.0791
B( 28-C , 29-H ) :   0.9753 B( 28-C , 30-H ) :   0.9745 B( 28-C , 31-H ) :   0.9747

Dispersion correction           -0.014358781
FINAL SINGLE POINT ENERGY     -1339.869614354406

DIPOLE MOMENT
-------------
                                X             Y             Z
Electronic contribution:    -25.61754      19.82917       5.17227
Nuclear contribution   :     26.15704     -20.25222      -5.06618
                        -----------------------------------------
Total Dipole Moment    :      0.53950      -0.42306       0.10608
                        -----------------------------------------
Magnitude (a.u.)       :      0.69375
Magnitude (Debye)      :      1.76337

Rotational constants in cm-1:     0.017774     0.009357     0.007039
Rotational constants in MHz :   532.840504   280.504218   211.032027

                             ****ORCA TERMINATED NORMALLY****
TOTAL RUN TIME: 0 days 0 hours 0 minutes 34 seconds 934 msec
