                         Program Version 4.2.1 -  RELEASE  -
|  1> ! wB97X-D3 SP def2-SVP
|  2> %pal
|  3> nprocs 16
|  4> end
|  5>
|  6> * xyz 0 1
|  7> S 	 -3.19322 	 -10.9698 	 70.9466
|  8> C 	 -4.32262 	 -12.2793 	 70.5249
|  9> C 	 -3.70042 	 -13.4893 	 70.4283
| 10> C 	 -2.32343 	 -13.3663 	 70.7649
| 11> C 	 -1.85472 	 -12.0674 	 71.0178
| 12> H 	 -1.57989 	 -14.2032 	 70.9118
| 13> C 	 -4.32102 	 -14.8034 	 70.1471
| 14> H 	 -5.38103 	 -14.7854 	 70.2765
| 15> H 	 -4.15896 	 -15.4754 	 70.9654
| 16> C 	 -3.77385 	 -15.4635 	 68.7721
| 17> H 	 -4.18651 	 -14.8712 	 67.9033
| 18> H 	 -2.72549 	 -15.501 	 68.6396
| 19> C 	 -4.34046 	 -16.8241 	 68.5609
| 20> H 	 -3.96832 	 -17.5624 	 69.3399
| 21> H 	 -5.41448 	 -16.7993 	 68.6541
| 22> H 	 -4.05955 	 -17.2758 	 67.5839
| 23> S 	 0.324436 	 -12.1232 	 72.6799
| 24> C 	 1.8063 	 -11.4739 	 72.1219
| 25> C 	 1.77152 	 -10.95 	 70.8822
| 26> C 	 0.504509 	 -11.1556 	 70.2823
| 27> C 	 -0.442963 	 -11.7039 	 71.1642
| 28> H 	 2.64605 	 -10.5426 	 70.3423
| 29> C 	 0.243217 	 -10.6508 	 68.8007
| 30> H 	 0.691837 	 -9.66878 	 68.6131
| 31> H 	 -0.84191 	 -10.4995 	 68.8656
| 32> C 	 0.504379 	 -11.637 	 67.5913
| 33> H 	 -0.0588211 	 -12.5113 	 67.9842
| 34> H 	 1.5342 	 -11.9299 	 67.5787
| 35> C 	 0.0222253 	 -11.1466 	 66.1997
| 36> H 	 0.000796153 	 -12.0635 	 65.5343
| 37> H 	 0.730039 	 -10.4451 	 65.7466
| 38> H 	 -0.979822 	 -10.7435 	 66.279
| 39> H 	 -5.3953 	 -12.1455 	 70.2159
| 40> H 	 2.58685 	 -11.167 	 72.8081
| 41> *
| 42>
| 43>                          ****END OF INPUT****

CARTESIAN COORDINATES (ANGSTROEM)
---------------------------------
  S     -3.193220  -10.969800   70.946600
  C     -4.322620  -12.279300   70.524900
  C     -3.700420  -13.489300   70.428300
  C     -2.323430  -13.366300   70.764900
  C     -1.854720  -12.067400   71.017800
  H     -1.579890  -14.203200   70.911800
  C     -4.321020  -14.803400   70.147100
  H     -5.381030  -14.785400   70.276500
  H     -4.158960  -15.475400   70.965400
  C     -3.773850  -15.463500   68.772100
  H     -4.186510  -14.871200   67.903300
  H     -2.725490  -15.501000   68.639600
  C     -4.340460  -16.824100   68.560900
  H     -3.968320  -17.562400   69.339900
  H     -5.414480  -16.799300   68.654100
  H     -4.059550  -17.275800   67.583900
  S      0.324436  -12.123200   72.679900
  C      1.806300  -11.473900   72.121900
  C      1.771520  -10.950000   70.882200
  C      0.504509  -11.155600   70.282300
  C     -0.442963  -11.703900   71.164200
  H      2.646050  -10.542600   70.342300
  C      0.243217  -10.650800   68.800700
  H      0.691837   -9.668780   68.613100
  H     -0.841910  -10.499500   68.865600
  C      0.504379  -11.637000   67.591300
  H     -0.058821  -12.511300   67.984200
  H      1.534200  -11.929900   67.578700
  C      0.022225  -11.146600   66.199700
  H      0.000796  -12.063500   65.534300
  H      0.730039  -10.445100   65.746600
  H     -0.979822  -10.743500   66.279000
  H     -5.395300  -12.145500   70.215900
  H      2.586850  -11.167000   72.808100

 Total Charge           Charge          ....    0
 Multiplicity           Mult            ....    1
 Number of Electrons    NEL             ....  134
 Basis Dimension        Dim             ....  322

ORBITAL ENERGIES
----------------

  NO   OCC          E(Eh)            E(eV)
   0   2.0000     -88.968952     -2420.9683
   1   2.0000     -88.965866     -2420.8843
   2   2.0000     -10.329696      -281.0853
   3   2.0000     -10.328949      -281.0650
   4   2.0000     -10.318615      -280.7838
   5   2.0000     -10.308921      -280.5200
   6   2.0000     -10.307380      -280.4781
   7   2.0000     -10.299120      -280.2533
   8   2.0000     -10.296769      -280.1893
   9   2.0000     -10.294711      -280.1333
  10   2.0000     -10.293160      -280.0911
  11   2.0000     -10.292499      -280.0731
  12   2.0000     -10.289591      -279.9940
  13   2.0000     -10.286764      -279.9171
  14   2.0000     -10.284428      -279.8535
  15   2.0000     -10.280997      -279.7601
  16   2.0000      -8.082977      -219.9490
  17   2.0000      -8.081467      -219.9079
  18   2.0000      -6.041555      -164.3991
  19   2.0000      -6.039847      -164.3526
  20   2.0000      -6.037490      -164.2885
  21   2.0000      -6.035810      -164.2427
  22   2.0000      -6.033786      -164.1877
  23   2.0000      -6.032364      -164.1490
  24   2.0000      -1.007994       -27.4289
  25   2.0000      -0.987866       -26.8812
  26   2.0000      -0.911815       -24.8118
  27   2.0000      -0.893604       -24.3162
  28   2.0000      -0.872666       -23.7465
  29   2.0000      -0.852225       -23.1902
  30   2.0000      -0.845542       -23.0084
  31   2.0000      -0.810375       -22.0514
  32   2.0000      -0.782623       -21.2963
  33   2.0000      -0.769404       -20.9365
  34   2.0000      -0.706295       -19.2193
  35   2.0000      -0.698831       -19.0162
  36   2.0000      -0.688333       -18.7305
  37   2.0000      -0.659559       -17.9475
  38   2.0000      -0.636865       -17.3300
  39   2.0000      -0.616124       -16.7656
  40   2.0000      -0.591290       -16.0898
  41   2.0000      -0.569859       -15.5067
  42   2.0000      -0.559790       -15.2327
  43   2.0000      -0.557558       -15.1719
  44   2.0000      -0.531751       -14.4697
  45   2.0000      -0.516824       -14.0635
  46   2.0000      -0.512083       -13.9345
  47   2.0000      -0.507045       -13.7974
  48   2.0000      -0.503023       -13.6880
  49   2.0000      -0.498227       -13.5574
  50   2.0000      -0.493428       -13.4269
  51   2.0000      -0.477406       -12.9909
  52   2.0000      -0.472322       -12.8525
  53   2.0000      -0.460145       -12.5212
  54   2.0000      -0.454693       -12.3728
  55   2.0000      -0.452528       -12.3139
  56   2.0000      -0.448896       -12.2151
  57   2.0000      -0.441646       -12.0178
  58   2.0000      -0.430174       -11.7056
  59   2.0000      -0.422309       -11.4916
  60   2.0000      -0.417810       -11.3692
  61   2.0000      -0.413779       -11.2595
  62   2.0000      -0.408415       -11.1135
  63   2.0000      -0.337177        -9.1751
  64   2.0000      -0.331800        -9.0287
  65   2.0000      -0.328795        -8.9470
  66   2.0000      -0.303224        -8.2511
  67   0.0000       0.042092         1.1454
  68   0.0000       0.055453         1.5089
  69   0.0000       0.115318         3.1380
  70   0.0000       0.122473         3.3327
  71   0.0000       0.125755         3.4220

MULLIKEN ATOMIC CHARGES
-----------------------
   0 S :    0.119457
   1 C :   -0.151471
   2 C :   -0.050452
   3 C :    0.017943
   4 C :   -0.168993
   5 H :    0.032216
   6 C :    0.078705
   7 H :    0.001699
   8 H :    0.020478
   9 C :   -0.066966
  10 H :    0.038016
  11 H :    0.033728
  12 C :   -0.068156
  13 H :    0.031464
  14 H :    0.027193
  15 H :    0.040715
  16 S :    0.118836
  17 C :   -0.075647
  18 C :   -0.047231
  19 C :   -0.032551
  20 C :   -0.202921
  21 H :    0.034275
  22 C :    0.043967
  23 H :    0.026407
  24 H :    0.016697
  25 C :   -0.072349
  26 H :    0.032637
  27 H :    0.022610
  28 C :   -0.053372
  29 H :    0.045266
  30 H :    0.041843
  31 H :    0.040361
  32 H :    0.064890
  33 H :    0.060705
Sum of atomic charges:   -0.0000000

LOEWDIN ATOMIC CHARGES
----------------------
   0 S :    0.407162
   1 C :   -0.197137
   2 C :   -0.070537
   3 C :   -0.063516
   4 C :   -0.215162
   5 H :    0.037794
   6 C :   -0.030111
   7 H :    0.028153
   8 H :    0.032673
   9 C :   -0.033808
  10 H :    0.033078
  11 H :    0.020065
  12 C :   -0.073340
  13 H :    0.026595
  14 H :    0.020697
  15 H :    0.029413
  16 S :    0.427839
  17 C :   -0.198445
  18 C :   -0.077419
  19 C :   -0.049578
  20 C :   -0.207261
  21 H :    0.040835
  22 C :   -0.034611
  23 H :    0.023952
  24 H :    0.025015
  25 C :   -0.042631
  26 H :    0.029254
  27 H :    0.016328
  28 C :   -0.066542
  29 H :    0.037073
  30 H :    0.026916
  31 H :    0.026340
  32 H :    0.040729
  33 H :    0.030186

  Mayer bond orders larger than 0.100000
B(  0-S ,  1-C ) :   1.1336 B(  0-S ,  4-C ) :   1.1500 B(  1-C ,  2-C ) :   1.6207
B(  1-C , 32-H ) :   0.9564 B(  2-C ,  3-C ) :   1.2379 B(  2-C ,  6-C ) :   1.0376
B(  3-C ,  4-C ) :   1.5847 B(  3-C ,  5-H ) :   0.9812 B(  4-C , 20-C ) :   1.0066
B(  6-C ,  7-H ) :   0.9356 B(  6-C ,  8-H ) :   0.9368 B(  6-C ,  9-C ) :   1.0304
B(  9-C , 10-H ) :   0.9553 B(  9-C , 11-H ) :   0.9631 B(  9-C , 12-C ) :   1.0925
B( 12-C , 13-H ) :   0.9720 B( 12-C , 14-H ) :   0.9731 B( 12-C , 15-H ) :   0.9725
B( 16-S , 17-C ) :   1.1670 B( 16-S , 20-C ) :   1.1595 B( 17-C , 18-C ) :   1.6136
B( 17-C , 33-H ) :   0.9553 B( 18-C , 19-C ) :   1.2618 B( 18-C , 21-H ) :   0.9852
B( 19-C , 20-C ) :   1.5970 B( 19-C , 22-C ) :   1.0221 B( 22-C , 23-H ) :   0.9477
B( 22-C , 24-H ) :   0.9348 B( 22-C , 25-C ) :   1.0497 B( 25-C , 26-H ) :   0.9562
B( 25-C , 27-H ) :   0.9597 B( 25-C , 28-C ) :   1.0761 B( 28-C , 29-H ) :   0.9742
B( 28-C , 30-H ) :   0.9757 B( 28-C , 31-H ) :   0.9758

Dispersion correction           -0.013969874
FINAL SINGLE POINT ENERGY     -1339.870335470386

DIPOLE MOMENT
-------------
                                X             Y             Z
Electronic contribution:      4.00543      13.72485      24.20454
Nuclear contribution   :     -4.00922     -14.02200     -24.64414
                        -----------------------------------------
Total Dipole Moment    :     -0.00379      -0.29715      -0.43960
                        -----------------------------------------
Magnitude (a.u.)       :      0.53062
Magnitude (Debye)      :      1.34873

Rotational constants in cm-1:     0.016052     0.008524     0.007171
Rotational constants in MHz :   481.218897   255.532263   214.993593

                             ****ORCA TERMINATED NORMALLY****
TOTAL RUN TIME: 0 days 0 hours 0 minutes 33 seconds 871 msec
