                         Program Version 4.2.1 -  RELEASE  -
|  1> ! wB97X-D3 SP def2-SVP
|  2> %pal
|  3> nprocs 16
|  4> end
|  5>
|  6> * xyz 0 1
|  7> S 	 -15.2834 	 38.7085 	 38.8128
|  8> C 	 -14.0363 	 39.9295 	 38.7009
|  9> C 	 -12.8278 	 39.3732 	 38.3447
| 10> C 	 -12.8714 	 37.9677 	 38.2493
| 11> C 	 -14.116 	 37.4516 	 38.3797
| 12> H 	 -12.037 	 37.3563 	 38.0825
| 13> C 	 -11.5242 	 40.1443 	 38.1011
| 14> H 	 -11.6746 	 40.9858 	 37.4194
| 15> H 	 -10.933 	 39.4512 	 37.5116
| 16> C 	 -10.8488 	 40.6999 	 39.3708
| 17> H 	 -11.4031 	 41.5252 	 39.8391
| 18> H 	 -10.7322 	 39.9072 	 40.1502
| 19> C 	 -9.29042 	 41.0301 	 39.2249
| 20> H 	 -8.6722 	 40.1997 	 38.8002
| 21> H 	 -9.0144 	 41.8522 	 38.64
| 22> H 	 -8.9158 	 41.2293 	 40.2141
| 23> S 	 -14.4796 	 34.93 	 39.5204
| 24> C 	 -14.5102 	 33.5787 	 38.4778
| 25> C 	 -14.5352 	 33.9462 	 37.1514
| 26> C 	 -14.3318 	 35.3475 	 36.8961
| 27> C 	 -14.363 	 36.0369 	 38.1226
| 28> H 	 -14.5502 	 33.1631 	 36.3939
| 29> C 	 -14.231 	 35.8619 	 35.4862
| 30> H 	 -13.3144 	 35.4677 	 34.9865
| 31> H 	 -14.0187 	 36.9182 	 35.7219
| 32> C 	 -15.5977 	 35.7856 	 34.7345
| 33> H 	 -16.0309 	 36.7779 	 34.5655
| 34> H 	 -16.3311 	 35.3046 	 35.293
| 35> C 	 -15.3646 	 34.991 	 33.4845
| 36> H 	 -14.8679 	 34.0975 	 33.8095
| 37> H 	 -14.9313 	 35.4702 	 32.5715
| 38> H 	 -16.31 	 34.6245 	 33.1236
| 39> H 	 -14.0977 	 41.0151 	 38.7856
| 40> H 	 -14.7212 	 32.5562 	 38.8746
| 41> *
| 42>
| 43>                          ****END OF INPUT****

CARTESIAN COORDINATES (ANGSTROEM)
---------------------------------
  S    -15.283400   38.708500   38.812800
  C    -14.036300   39.929500   38.700900
  C    -12.827800   39.373200   38.344700
  C    -12.871400   37.967700   38.249300
  C    -14.116000   37.451600   38.379700
  H    -12.037000   37.356300   38.082500
  C    -11.524200   40.144300   38.101100
  H    -11.674600   40.985800   37.419400
  H    -10.933000   39.451200   37.511600
  C    -10.848800   40.699900   39.370800
  H    -11.403100   41.525200   39.839100
  H    -10.732200   39.907200   40.150200
  C     -9.290420   41.030100   39.224900
  H     -8.672200   40.199700   38.800200
  H     -9.014400   41.852200   38.640000
  H     -8.915800   41.229300   40.214100
  S    -14.479600   34.930000   39.520400
  C    -14.510200   33.578700   38.477800
  C    -14.535200   33.946200   37.151400
  C    -14.331800   35.347500   36.896100
  C    -14.363000   36.036900   38.122600
  H    -14.550200   33.163100   36.393900
  C    -14.231000   35.861900   35.486200
  H    -13.314400   35.467700   34.986500
  H    -14.018700   36.918200   35.721900
  C    -15.597700   35.785600   34.734500
  H    -16.030900   36.777900   34.565500
  H    -16.331100   35.304600   35.293000
  C    -15.364600   34.991000   33.484500
  H    -14.867900   34.097500   33.809500
  H    -14.931300   35.470200   32.571500
  H    -16.310000   34.624500   33.123600
  H    -14.097700   41.015100   38.785600
  H    -14.721200   32.556200   38.874600

 Total Charge           Charge          ....    0
 Multiplicity           Mult            ....    1
 Number of Electrons    NEL             ....  134
 Basis Dimension        Dim             ....  322

ORBITAL ENERGIES
----------------

  NO   OCC          E(Eh)            E(eV)
   0   2.0000     -88.968233     -2420.9487
   1   2.0000     -88.962439     -2420.7910
   2   2.0000     -10.326803      -281.0066
   3   2.0000     -10.322898      -280.9003
   4   2.0000     -10.315628      -280.7025
   5   2.0000     -10.312449      -280.6160
   6   2.0000     -10.305361      -280.4231
   7   2.0000     -10.296796      -280.1901
   8   2.0000     -10.294451      -280.1262
   9   2.0000     -10.293666      -280.1049
  10   2.0000     -10.292318      -280.0682
  11   2.0000     -10.289798      -279.9996
  12   2.0000     -10.283498      -279.8282
  13   2.0000     -10.281370      -279.7703
  14   2.0000     -10.278070      -279.6805
  15   2.0000     -10.273704      -279.5617
  16   2.0000      -8.082327      -219.9313
  17   2.0000      -8.077657      -219.8042
  18   2.0000      -6.040976      -164.3833
  19   2.0000      -6.036889      -164.2721
  20   2.0000      -6.036074      -164.2499
  21   2.0000      -6.033014      -164.1666
  22   2.0000      -6.032105      -164.1419
  23   2.0000      -6.028493      -164.0436
  24   2.0000      -1.004828       -27.3428
  25   2.0000      -0.983659       -26.7667
  26   2.0000      -0.913001       -24.8440
  27   2.0000      -0.902288       -24.5525
  28   2.0000      -0.867837       -23.6151
  29   2.0000      -0.852127       -23.1876
  30   2.0000      -0.847273       -23.0555
  31   2.0000      -0.809937       -22.0395
  32   2.0000      -0.782399       -21.2902
  33   2.0000      -0.768925       -20.9235
  34   2.0000      -0.707904       -19.2630
  35   2.0000      -0.704481       -19.1699
  36   2.0000      -0.694055       -18.8862
  37   2.0000      -0.653884       -17.7931
  38   2.0000      -0.640910       -17.4400
  39   2.0000      -0.618612       -16.8333
  40   2.0000      -0.595886       -16.2149
  41   2.0000      -0.563948       -15.3458
  42   2.0000      -0.559089       -15.2136
  43   2.0000      -0.552520       -15.0348
  44   2.0000      -0.530899       -14.4465
  45   2.0000      -0.525956       -14.3120
  46   2.0000      -0.520614       -14.1666
  47   2.0000      -0.507234       -13.8025
  48   2.0000      -0.502975       -13.6866
  49   2.0000      -0.498273       -13.5587
  50   2.0000      -0.492635       -13.4053
  51   2.0000      -0.471556       -12.8317
  52   2.0000      -0.467610       -12.7243
  53   2.0000      -0.460712       -12.5366
  54   2.0000      -0.457255       -12.4425
  55   2.0000      -0.451268       -12.2796
  56   2.0000      -0.448008       -12.1909
  57   2.0000      -0.443124       -12.0580
  58   2.0000      -0.439100       -11.9485
  59   2.0000      -0.422121       -11.4865
  60   2.0000      -0.418646       -11.3919
  61   2.0000      -0.412336       -11.2202
  62   2.0000      -0.406832       -11.0705
  63   2.0000      -0.337916        -9.1952
  64   2.0000      -0.327244        -8.9048
  65   2.0000      -0.322297        -8.7701
  66   2.0000      -0.306130        -8.3302
  67   0.0000       0.044404         1.2083
  68   0.0000       0.057760         1.5717
  69   0.0000       0.121520         3.3067
  70   0.0000       0.124942         3.3998
  71   0.0000       0.125425         3.4130

MULLIKEN ATOMIC CHARGES
-----------------------
   0 S :    0.120405
   1 C :   -0.111815
   2 C :   -0.098203
   3 C :    0.056253
   4 C :   -0.164015
   5 H :   -0.004848
   6 C :    0.091504
   7 H :    0.029418
   8 H :    0.011147
   9 C :   -0.085913
  10 H :    0.039948
  11 H :    0.038090
  12 C :   -0.058046
  13 H :    0.034381
  14 H :    0.018237
  15 H :    0.029101
  16 S :    0.109406
  17 C :   -0.108340
  18 C :   -0.038198
  19 C :   -0.049062
  20 C :   -0.197835
  21 H :    0.017313
  22 C :    0.050816
  23 H :    0.056097
  24 H :    0.027783
  25 C :   -0.016015
  26 H :    0.034419
  27 H :    0.022541
  28 C :   -0.051275
  29 H :    0.021252
  30 H :    0.048914
  31 H :    0.009492
  32 H :    0.043176
  33 H :    0.073871
Sum of atomic charges:   -0.0000000

LOEWDIN ATOMIC CHARGES
----------------------
   0 S :    0.399963
   1 C :   -0.199443
   2 C :   -0.066279
   3 C :   -0.050009
   4 C :   -0.199545
   5 H :    0.025977
   6 C :   -0.033573
   7 H :    0.031870
   8 H :    0.028051
   9 C :   -0.039190
  10 H :    0.026542
  11 H :    0.031275
  12 C :   -0.067665
  13 H :    0.030327
  14 H :    0.010923
  15 H :    0.024675
  16 S :    0.405895
  17 C :   -0.203187
  18 C :   -0.081453
  19 C :   -0.046416
  20 C :   -0.196041
  21 H :    0.028036
  22 C :   -0.036442
  23 H :    0.040459
  24 H :    0.036746
  25 C :   -0.028466
  26 H :    0.029372
  27 H :    0.019665
  28 C :   -0.066073
  29 H :    0.021132
  30 H :    0.032226
  31 H :    0.020191
  32 H :    0.032883
  33 H :    0.037573

  Mayer bond orders larger than 0.100000
B(  0-S ,  1-C ) :   1.1341 B(  0-S ,  4-C ) :   1.1343 B(  1-C ,  2-C ) :   1.6265
B(  1-C , 32-H ) :   0.9648 B(  2-C ,  3-C ) :   1.2454 B(  2-C ,  6-C ) :   1.0175
B(  3-C ,  4-C ) :   1.5829 B(  3-C ,  5-H ) :   1.0048 B(  4-C , 20-C ) :   1.0195
B(  6-C ,  7-H ) :   0.9383 B(  6-C ,  8-H ) :   0.9433 B(  6-C ,  9-C ) :   1.0551
B(  9-C , 10-H ) :   0.9582 B(  9-C , 11-H ) :   0.9637 B(  9-C , 12-C ) :   1.0631
B( 12-C , 13-H ) :   0.9775 B( 12-C , 14-H ) :   0.9789 B( 12-C , 15-H ) :   0.9791
B( 16-S , 17-C ) :   1.1663 B( 16-S , 20-C ) :   1.1460 B( 17-C , 18-C ) :   1.6199
B( 17-C , 33-H ) :   0.9585 B( 18-C , 19-C ) :   1.2238 B( 18-C , 21-H ) :   0.9852
B( 19-C , 20-C ) :   1.6005 B( 19-C , 22-C ) :   1.0436 B( 22-C , 23-H ) :   0.9475
B( 22-C , 24-H ) :   0.9214 B( 22-C , 25-C ) :   1.0334 B( 25-C , 26-H ) :   0.9533
B( 25-C , 27-H ) :   0.9647 B( 25-C , 28-C ) :   1.0760 B( 28-C , 29-H ) :   0.9753
B( 28-C , 30-H ) :   0.9751 B( 28-C , 31-H ) :   0.9703

Dispersion correction           -0.014002423
FINAL SINGLE POINT ENERGY     -1339.865209150841

DIPOLE MOMENT
-------------
                                X             Y             Z
Electronic contribution:    -14.31695      -7.74363      15.48503
Nuclear contribution   :     14.67894       7.80406     -15.94926
                        -----------------------------------------
Total Dipole Moment    :      0.36200       0.06044      -0.46422
                        -----------------------------------------
Magnitude (a.u.)       :      0.59177
Magnitude (Debye)      :      1.50417

Rotational constants in cm-1:     0.019521     0.007132     0.006473
Rotational constants in MHz :   585.210554   213.821264   194.047889

                             ****ORCA TERMINATED NORMALLY****
TOTAL RUN TIME: 0 days 0 hours 0 minutes 33 seconds 912 msec
