                         Program Version 4.2.1 -  RELEASE  -
|  1> ! wB97X-D3 SP def2-SVP
|  2> %pal
|  3> nprocs 16
|  4> end
|  5>
|  6> * xyz 0 1
|  7> S 	 67.3278 	 23.9348 	 73.4587
|  8> C 	 68.327 	 23.0971 	 74.6123
|  9> C 	 69.0586 	 23.9528 	 75.401
| 10> C 	 68.8535 	 25.2901 	 75.0224
| 11> C 	 68.0412 	 25.4731 	 73.9388
| 12> H 	 69.232 	 26.0977 	 75.5447
| 13> C 	 69.9338 	 23.3562 	 76.479
| 14> H 	 70.5513 	 22.5527 	 76.157
| 15> H 	 69.2867 	 23.0302 	 77.2859
| 16> C 	 70.861 	 24.4103 	 77.1505
| 17> H 	 71.417 	 24.9199 	 76.3702
| 18> H 	 70.192 	 25.1321 	 77.6573
| 19> C 	 71.7462 	 23.7493 	 78.1611
| 20> H 	 72.3235 	 22.8512 	 77.8269
| 21> H 	 72.5759 	 24.3643 	 78.4413
| 22> H 	 71.1819 	 23.3938 	 79.0502
| 23> S 	 67.7423 	 26.7458 	 71.5954
| 24> C 	 67.2547 	 28.4729 	 71.6186
| 25> C 	 67.1681 	 28.9578 	 72.8553
| 26> C 	 67.3591 	 27.9658 	 73.8641
| 27> C 	 67.7452 	 26.7414 	 73.3402
| 28> H 	 66.6987 	 29.8904 	 73.0555
| 29> C 	 67.1722 	 28.1646 	 75.3356
| 30> H 	 68.0665 	 28.6223 	 75.8017
| 31> H 	 67.1836 	 27.2202 	 75.844
| 32> C 	 65.926 	 29.0234 	 75.7639
| 33> H 	 65.0302 	 28.5797 	 75.2769
| 34> H 	 65.9907 	 29.9315 	 75.1856
| 35> C 	 65.7897 	 29.2219 	 77.2536
| 36> H 	 65.9764 	 28.225 	 77.7199
| 37> H 	 64.7544 	 29.5667 	 77.3568
| 38> H 	 66.5478 	 29.892 	 77.6901
| 39> H 	 68.289 	 22.0643 	 74.5997
| 40> H 	 67.1149 	 29.079 	 70.765
| 41> *
| 42>
| 43>                          ****END OF INPUT****

CARTESIAN COORDINATES (ANGSTROEM)
---------------------------------
  S     67.327800   23.934800   73.458700
  C     68.327000   23.097100   74.612300
  C     69.058600   23.952800   75.401000
  C     68.853500   25.290100   75.022400
  C     68.041200   25.473100   73.938800
  H     69.232000   26.097700   75.544700
  C     69.933800   23.356200   76.479000
  H     70.551300   22.552700   76.157000
  H     69.286700   23.030200   77.285900
  C     70.861000   24.410300   77.150500
  H     71.417000   24.919900   76.370200
  H     70.192000   25.132100   77.657300
  C     71.746200   23.749300   78.161100
  H     72.323500   22.851200   77.826900
  H     72.575900   24.364300   78.441300
  H     71.181900   23.393800   79.050200
  S     67.742300   26.745800   71.595400
  C     67.254700   28.472900   71.618600
  C     67.168100   28.957800   72.855300
  C     67.359100   27.965800   73.864100
  C     67.745200   26.741400   73.340200
  H     66.698700   29.890400   73.055500
  C     67.172200   28.164600   75.335600
  H     68.066500   28.622300   75.801700
  H     67.183600   27.220200   75.844000
  C     65.926000   29.023400   75.763900
  H     65.030200   28.579700   75.276900
  H     65.990700   29.931500   75.185600
  C     65.789700   29.221900   77.253600
  H     65.976400   28.225000   77.719900
  H     64.754400   29.566700   77.356800
  H     66.547800   29.892000   77.690100
  H     68.289000   22.064300   74.599700
  H     67.114900   29.079000   70.765000

 Total Charge           Charge          ....    0
 Multiplicity           Mult            ....    1
 Number of Electrons    NEL             ....  134
 Basis Dimension        Dim             ....  322

ORBITAL ENERGIES
----------------

  NO   OCC          E(Eh)            E(eV)
   0   2.0000     -88.963903     -2420.8309
   1   2.0000     -88.961599     -2420.7682
   2   2.0000     -10.324019      -280.9308
   3   2.0000     -10.321155      -280.8529
   4   2.0000     -10.312340      -280.6130
   5   2.0000     -10.304931      -280.4114
   6   2.0000     -10.299780      -280.2713
   7   2.0000     -10.296700      -280.1874
   8   2.0000     -10.288599      -279.9670
   9   2.0000     -10.287656      -279.9413
  10   2.0000     -10.287492      -279.9369
  11   2.0000     -10.287231      -279.9298
  12   2.0000     -10.286567      -279.9117
  13   2.0000     -10.285780      -279.8903
  14   2.0000     -10.284553      -279.8569
  15   2.0000     -10.279849      -279.7289
  16   2.0000      -8.078812      -219.8356
  17   2.0000      -8.076170      -219.7637
  18   2.0000      -6.037200      -164.2806
  19   2.0000      -6.034756      -164.2141
  20   2.0000      -6.033302      -164.1745
  21   2.0000      -6.030826      -164.1071
  22   2.0000      -6.029692      -164.0763
  23   2.0000      -6.026735      -163.9958
  24   2.0000      -1.009758       -27.4769
  25   2.0000      -0.986058       -26.8320
  26   2.0000      -0.915580       -24.9142
  27   2.0000      -0.906358       -24.6632
  28   2.0000      -0.878198       -23.8970
  29   2.0000      -0.854641       -23.2560
  30   2.0000      -0.847027       -23.0488
  31   2.0000      -0.823579       -22.4107
  32   2.0000      -0.780766       -21.2457
  33   2.0000      -0.767598       -20.8874
  34   2.0000      -0.714781       -19.4502
  35   2.0000      -0.704767       -19.1777
  36   2.0000      -0.690655       -18.7937
  37   2.0000      -0.658081       -17.9073
  38   2.0000      -0.649691       -17.6790
  39   2.0000      -0.627351       -17.0711
  40   2.0000      -0.601794       -16.3757
  41   2.0000      -0.579861       -15.7788
  42   2.0000      -0.566196       -15.4070
  43   2.0000      -0.557722       -15.1764
  44   2.0000      -0.532827       -14.4990
  45   2.0000      -0.526246       -14.3199
  46   2.0000      -0.516737       -14.0611
  47   2.0000      -0.513652       -13.9772
  48   2.0000      -0.502942       -13.6857
  49   2.0000      -0.500430       -13.6174
  50   2.0000      -0.498935       -13.5767
  51   2.0000      -0.477497       -12.9934
  52   2.0000      -0.475653       -12.9432
  53   2.0000      -0.464674       -12.6444
  54   2.0000      -0.459709       -12.5093
  55   2.0000      -0.456648       -12.4260
  56   2.0000      -0.453594       -12.3429
  57   2.0000      -0.433239       -11.7890
  58   2.0000      -0.432858       -11.7787
  59   2.0000      -0.430430       -11.7126
  60   2.0000      -0.417812       -11.3692
  61   2.0000      -0.412027       -11.2118
  62   2.0000      -0.407095       -11.0776
  63   2.0000      -0.352933        -9.6038
  64   2.0000      -0.333460        -9.0739
  65   2.0000      -0.327956        -8.9241
  66   2.0000      -0.287561        -7.8249
  67   0.0000       0.028832         0.7845
  68   0.0000       0.076017         2.0685
  69   0.0000       0.111956         3.0465
  70   0.0000       0.123379         3.3573
  71   0.0000       0.131954         3.5906

MULLIKEN ATOMIC CHARGES
-----------------------
   0 S :    0.113475
   1 C :   -0.117709
   2 C :   -0.041412
   3 C :    0.019325
   4 C :   -0.117988
   5 H :   -0.023657
   6 C :    0.068942
   7 H :    0.030106
   8 H :    0.034883
   9 C :   -0.106910
  10 H :    0.036781
  11 H :    0.036541
  12 C :   -0.035194
  13 H :    0.023742
  14 H :    0.026622
  15 H :    0.035920
  16 S :    0.090273
  17 C :   -0.067654
  18 C :   -0.008271
  19 C :   -0.031732
  20 C :   -0.167769
  21 H :    0.014714
  22 C :    0.046002
  23 H :    0.030489
  24 H :    0.013939
  25 C :   -0.112032
  26 H :    0.032752
  27 H :    0.018208
  28 C :   -0.021754
  29 H :    0.033576
  30 H :    0.047188
  31 H :    0.040591
  32 H :    0.019200
  33 H :    0.038814
Sum of atomic charges:   -0.0000000

LOEWDIN ATOMIC CHARGES
----------------------
   0 S :    0.403196
   1 C :   -0.177781
   2 C :   -0.062711
   3 C :   -0.056468
   4 C :   -0.192151
   5 H :    0.018045
   6 C :   -0.024256
   7 H :    0.026878
   8 H :    0.034146
   9 C :   -0.044147
  10 H :    0.022780
  11 H :    0.027069
  12 C :   -0.072606
  13 H :    0.028196
  14 H :    0.024068
  15 H :    0.030016
  16 S :    0.383172
  17 C :   -0.155729
  18 C :   -0.068960
  19 C :   -0.054600
  20 C :   -0.192255
  21 H :    0.029409
  22 C :   -0.039458
  23 H :    0.031380
  24 H :    0.023925
  25 C :   -0.046114
  26 H :    0.027828
  27 H :    0.015905
  28 C :   -0.065146
  29 H :    0.031111
  30 H :    0.034656
  31 H :    0.028815
  32 H :    0.009472
  33 H :    0.022318

  Mayer bond orders larger than 0.100000
B(  0-S ,  1-C ) :   1.1489 B(  0-S ,  4-C ) :   1.1480 B(  1-C ,  2-C ) :   1.5827
B(  1-C ,  4-C ) :   0.1009 B(  1-C , 32-H ) :   0.9874 B(  2-C ,  3-C ) :   1.2662
B(  2-C ,  6-C ) :   1.0039 B(  3-C ,  4-C ) :   1.5284 B(  3-C ,  5-H ) :   1.0150
B(  4-C , 20-C ) :   1.0629 B(  6-C ,  7-H ) :   0.9489 B(  6-C ,  8-H ) :   0.9333
B(  6-C ,  9-C ) :   1.0850 B(  9-C , 10-H ) :   0.9571 B(  9-C , 11-H ) :   0.9470
B(  9-C , 12-C ) :   1.0946 B( 12-C , 13-H ) :   0.9704 B( 12-C , 14-H ) :   0.9698
B( 12-C , 15-H ) :   0.9711 B( 16-S , 17-C ) :   1.1279 B( 16-S , 20-C ) :   1.1263
B( 17-C , 18-C ) :   1.6622 B( 17-C , 33-H ) :   0.9669 B( 18-C , 19-C ) :   1.2181
B( 18-C , 21-H ) :   0.9817 B( 19-C , 20-C ) :   1.6093 B( 19-C , 22-C ) :   1.0587
B( 22-C , 23-H ) :   0.9276 B( 22-C , 24-H ) :   0.9244 B( 22-C , 25-C ) :   1.0492
B( 25-C , 26-H ) :   0.9596 B( 25-C , 27-H ) :   0.9504 B( 25-C , 28-C ) :   1.0789
B( 28-C , 29-H ) :   0.9734 B( 28-C , 30-H ) :   0.9722 B( 28-C , 31-H ) :   0.9725

Dispersion correction           -0.013500948
FINAL SINGLE POINT ENERGY     -1339.880735142765

DIPOLE MOMENT
-------------
                                X             Y             Z
Electronic contribution:     -6.64172      -6.01361     -28.33699
Nuclear contribution   :      6.74067       6.20422      28.98304
                        -----------------------------------------
Total Dipole Moment    :      0.09894       0.19061       0.64605
                        -----------------------------------------
Magnitude (a.u.)       :      0.68081
Magnitude (Debye)      :      1.73049

Rotational constants in cm-1:     0.016509     0.008640     0.006577
Rotational constants in MHz :   494.933166   259.016280   197.169938

                             ****ORCA TERMINATED NORMALLY****
TOTAL RUN TIME: 0 days 0 hours 0 minutes 31 seconds 311 msec
