                         Program Version 4.2.1 -  RELEASE  -
|  1> ! wB97X-D3 SP def2-SVP
|  2> %pal
|  3> nprocs 16
|  4> end
|  5>
|  6> * xyz 0 1
|  7> S 	 4.23489 	 -4.34962 	 71.0841
|  8> C 	 2.90677 	 -3.62721 	 70.3303
|  9> C 	 1.80827 	 -3.80066 	 71.1528
| 10> C 	 2.0652 	 -4.45509 	 72.3925
| 11> C 	 3.39041 	 -4.87855 	 72.5138
| 12> H 	 1.3174 	 -4.63492 	 73.1634
| 13> C 	 0.390945 	 -3.27527 	 70.8286
| 14> H 	 0.386484 	 -2.70643 	 69.9579
| 15> H 	 0.1729 	 -2.58731 	 71.6125
| 16> C 	 -0.655599 	 -4.40201 	 70.6384
| 17> H 	 -0.539352 	 -5.12044 	 71.3869
| 18> H 	 -1.60584 	 -4.0187 	 70.5859
| 19> C 	 -0.451289 	 -5.2387 	 69.417
| 20> H 	 -0.980743 	 -6.1363 	 69.6108
| 21> H 	 -0.823012 	 -4.58923 	 68.6359
| 22> H 	 0.556843 	 -5.52481 	 69.1545
| 23> S 	 3.59285 	 -6.64809 	 74.6271
| 24> C 	 4.85365 	 -6.5605 	 75.7833
| 25> C 	 5.59912 	 -5.41539 	 75.5237
| 26> C 	 5.34503 	 -4.74875 	 74.2794
| 27> C 	 4.15056 	 -5.21765 	 73.749
| 28> H 	 6.39803 	 -5.16372 	 76.1464
| 29> C 	 6.13951 	 -3.48603 	 73.8094
| 30> H 	 5.52082 	 -2.92653 	 73.071
| 31> H 	 7.0646 	 -3.84924 	 73.274
| 32> C 	 6.41921 	 -2.44133 	 74.9083
| 33> H 	 6.95819 	 -1.68417 	 74.4567
| 34> H 	 6.91048 	 -2.91039 	 75.7616
| 35> C 	 5.17933 	 -1.62073 	 75.2641
| 36> H 	 4.27585 	 -2.10458 	 75.4702
| 37> H 	 5.0611 	 -0.813577 	 74.5052
| 38> H 	 5.42893 	 -1.24231 	 76.2894
| 39> H 	 3.01554 	 -3.07552 	 69.4127
| 40> H 	 4.92597 	 -7.15026 	 76.7025
| 41> *
| 42>
| 43>                          ****END OF INPUT****

CARTESIAN COORDINATES (ANGSTROEM)
---------------------------------
  S      4.234890   -4.349620   71.084100
  C      2.906770   -3.627210   70.330300
  C      1.808270   -3.800660   71.152800
  C      2.065200   -4.455090   72.392500
  C      3.390410   -4.878550   72.513800
  H      1.317400   -4.634920   73.163400
  C      0.390945   -3.275270   70.828600
  H      0.386484   -2.706430   69.957900
  H      0.172900   -2.587310   71.612500
  C     -0.655599   -4.402010   70.638400
  H     -0.539352   -5.120440   71.386900
  H     -1.605840   -4.018700   70.585900
  C     -0.451289   -5.238700   69.417000
  H     -0.980743   -6.136300   69.610800
  H     -0.823012   -4.589230   68.635900
  H      0.556843   -5.524810   69.154500
  S      3.592850   -6.648090   74.627100
  C      4.853650   -6.560500   75.783300
  C      5.599120   -5.415390   75.523700
  C      5.345030   -4.748750   74.279400
  C      4.150560   -5.217650   73.749000
  H      6.398030   -5.163720   76.146400
  C      6.139510   -3.486030   73.809400
  H      5.520820   -2.926530   73.071000
  H      7.064600   -3.849240   73.274000
  C      6.419210   -2.441330   74.908300
  H      6.958190   -1.684170   74.456700
  H      6.910480   -2.910390   75.761600
  C      5.179330   -1.620730   75.264100
  H      4.275850   -2.104580   75.470200
  H      5.061100   -0.813577   74.505200
  H      5.428930   -1.242310   76.289400
  H      3.015540   -3.075520   69.412700
  H      4.925970   -7.150260   76.702500

 Total Charge           Charge          ....    0
 Multiplicity           Mult            ....    1
 Number of Electrons    NEL             ....  134
 Basis Dimension        Dim             ....  322

ORBITAL ENERGIES
----------------

  NO   OCC          E(Eh)            E(eV)
   0   2.0000     -88.963182     -2420.8112
   1   2.0000     -88.963061     -2420.8080
   2   2.0000     -10.331972      -281.1472
   3   2.0000     -10.331764      -281.1416
   4   2.0000     -10.317294      -280.7478
   5   2.0000     -10.312332      -280.6128
   6   2.0000     -10.306687      -280.4592
   7   2.0000     -10.301177      -280.3093
   8   2.0000     -10.297753      -280.2161
   9   2.0000     -10.297046      -280.1969
  10   2.0000     -10.289940      -280.0035
  11   2.0000     -10.282327      -279.7963
  12   2.0000     -10.280529      -279.7474
  13   2.0000     -10.274452      -279.5821
  14   2.0000     -10.268825      -279.4289
  15   2.0000     -10.263454      -279.2828
  16   2.0000      -8.078806      -219.8355
  17   2.0000      -8.078306      -219.8219
  18   2.0000      -6.037140      -164.2789
  19   2.0000      -6.036802      -164.2697
  20   2.0000      -6.032842      -164.1620
  21   2.0000      -6.032583      -164.1549
  22   2.0000      -6.029985      -164.0842
  23   2.0000      -6.029242      -164.0640
  24   2.0000      -1.009354       -27.4659
  25   2.0000      -0.989143       -26.9159
  26   2.0000      -0.914881       -24.8952
  27   2.0000      -0.908085       -24.7103
  28   2.0000      -0.869900       -23.6712
  29   2.0000      -0.852200       -23.1895
  30   2.0000      -0.846477       -23.0338
  31   2.0000      -0.814159       -22.1544
  32   2.0000      -0.781339       -21.2613
  33   2.0000      -0.773100       -21.0371
  34   2.0000      -0.704829       -19.1794
  35   2.0000      -0.697966       -18.9926
  36   2.0000      -0.686020       -18.6676
  37   2.0000      -0.661908       -18.0114
  38   2.0000      -0.643401       -17.5078
  39   2.0000      -0.622225       -16.9316
  40   2.0000      -0.601194       -16.3593
  41   2.0000      -0.575733       -15.6665
  42   2.0000      -0.557147       -15.1607
  43   2.0000      -0.554457       -15.0875
  44   2.0000      -0.551340       -15.0027
  45   2.0000      -0.541895       -14.7457
  46   2.0000      -0.521670       -14.1954
  47   2.0000      -0.515862       -14.0373
  48   2.0000      -0.505570       -13.7573
  49   2.0000      -0.493557       -13.4304
  50   2.0000      -0.488263       -13.2863
  51   2.0000      -0.481681       -13.1072
  52   2.0000      -0.470799       -12.8111
  53   2.0000      -0.464450       -12.6383
  54   2.0000      -0.464137       -12.6298
  55   2.0000      -0.447622       -12.1804
  56   2.0000      -0.441644       -12.0177
  57   2.0000      -0.431814       -11.7502
  58   2.0000      -0.427652       -11.6370
  59   2.0000      -0.417890       -11.3714
  60   2.0000      -0.414259       -11.2726
  61   2.0000      -0.412502       -11.2247
  62   2.0000      -0.405832       -11.0433
  63   2.0000      -0.352633        -9.5956
  64   2.0000      -0.330537        -8.9944
  65   2.0000      -0.325538        -8.8584
  66   2.0000      -0.294196        -8.0055
  67   0.0000       0.029829         0.8117
  68   0.0000       0.078222         2.1285
  69   0.0000       0.119314         3.2467
  70   0.0000       0.121581         3.3084
  71   0.0000       0.137565         3.7433

MULLIKEN ATOMIC CHARGES
-----------------------
   0 S :    0.096246
   1 C :   -0.117190
   2 C :   -0.128899
   3 C :    0.024832
   4 C :   -0.116862
   5 H :    0.024934
   6 C :    0.120663
   7 H :   -0.014155
   8 H :    0.025232
   9 C :   -0.024419
  10 H :    0.005765
  11 H :    0.013034
  12 C :   -0.042308
  13 H :    0.028172
  14 H :    0.019829
  15 H :    0.031614
  16 S :    0.100772
  17 C :   -0.087241
  18 C :   -0.034712
  19 C :   -0.040707
  20 C :   -0.162295
  21 H :   -0.004313
  22 C :    0.028617
  23 H :    0.029561
  24 H :    0.050545
  25 C :   -0.042092
  26 H :    0.016782
  27 H :    0.036702
  28 C :   -0.062502
  29 H :    0.028420
  30 H :    0.043082
  31 H :    0.028447
  32 H :    0.054506
  33 H :    0.069940
Sum of atomic charges:    0.0000000

LOEWDIN ATOMIC CHARGES
----------------------
   0 S :    0.449932
   1 C :   -0.216378
   2 C :   -0.066035
   3 C :   -0.063223
   4 C :   -0.202177
   5 H :    0.033843
   6 C :   -0.019733
   7 H :    0.015140
   8 H :    0.027785
   9 C :   -0.027295
  10 H :    0.013630
  11 H :    0.014712
  12 C :   -0.054432
  13 H :    0.024735
  14 H :    0.022025
  15 H :    0.023211
  16 S :    0.413736
  17 C :   -0.201440
  18 C :   -0.069403
  19 C :   -0.059037
  20 C :   -0.191594
  21 H :    0.016841
  22 C :   -0.036719
  23 H :    0.023900
  24 H :    0.036824
  25 C :   -0.036915
  26 H :    0.021978
  27 H :    0.020432
  28 C :   -0.062574
  29 H :    0.014493
  30 H :    0.030746
  31 H :    0.034803
  32 H :    0.031099
  33 H :    0.037088

  Mayer bond orders larger than 0.100000
B(  0-S ,  1-C ) :   1.1684 B(  0-S ,  4-C ) :   1.1794 B(  1-C ,  2-C ) :   1.5486
B(  1-C , 32-H ) :   0.9793 B(  2-C ,  3-C ) :   1.2980 B(  2-C ,  6-C ) :   1.0194
B(  3-C ,  4-C ) :   1.5193 B(  3-C ,  5-H ) :   0.9902 B(  4-C , 20-C ) :   0.9952
B(  6-C ,  7-H ) :   0.9412 B(  6-C ,  8-H ) :   0.9398 B(  6-C ,  9-C ) :   1.0685
B(  9-C , 10-H ) :   0.9647 B(  9-C , 11-H ) :   0.9580 B(  9-C , 12-C ) :   1.0676
B( 12-C , 13-H ) :   0.9756 B( 12-C , 14-H ) :   0.9794 B( 12-C , 15-H ) :   0.9775
B( 16-S , 17-C ) :   1.1629 B( 16-S , 20-C ) :   1.1554 B( 17-C , 18-C ) :   1.5970
B( 17-C , 20-C ) :   0.1000 B( 17-C , 33-H ) :   0.9644 B( 18-C , 19-C ) :   1.2488
B( 18-C , 21-H ) :   0.9911 B( 19-C , 20-C ) :   1.5926 B( 19-C , 22-C ) :   1.0176
B( 22-C , 23-H ) :   0.9399 B( 22-C , 24-H ) :   0.9344 B( 22-C , 25-C ) :   1.0793
B( 25-C , 26-H ) :   0.9512 B( 25-C , 27-H ) :   0.9604 B( 25-C , 28-C ) :   1.0658
B( 28-C , 29-H ) :   0.9801 B( 28-C , 30-H ) :   0.9782 B( 28-C , 31-H ) :   0.9715

Dispersion correction           -0.014549444
FINAL SINGLE POINT ENERGY     -1339.856666410388

DIPOLE MOMENT
-------------
                                X             Y             Z
Electronic contribution:      8.01895     -13.59643       2.54253
Nuclear contribution   :     -8.10236      14.11775      -2.41199
                        -----------------------------------------
Total Dipole Moment    :     -0.08341       0.52132       0.13054
                        -----------------------------------------
Magnitude (a.u.)       :      0.54385
Magnitude (Debye)      :      1.38237

Rotational constants in cm-1:     0.022027     0.008092     0.006912
Rotational constants in MHz :   660.339511   242.592325   207.205767

                             ****ORCA TERMINATED NORMALLY****
TOTAL RUN TIME: 0 days 0 hours 0 minutes 34 seconds 207 msec
