                         Program Version 4.2.1 -  RELEASE  -
|  1> ! wB97X-D3 SP def2-SVP
|  2> %pal
|  3> nprocs 16
|  4> end
|  5>
|  6> * xyz 0 1
|  7> S 	 1.06712 	 -10.0531 	 88.7854
|  8> C 	 -0.0413275 	 -10.0221 	 90.2201
|  9> C 	 -0.3142 	 -11.3204 	 90.6119
| 10> C 	 0.295661 	 -12.2723 	 89.769
| 11> C 	 1.12781 	 -11.7491 	 88.8003
| 12> H 	 0.121144 	 -13.32 	 89.7694
| 13> C 	 -1.23589 	 -11.6437 	 91.7649
| 14> H 	 -0.875676 	 -11.0143 	 92.6031
| 15> H 	 -1.11228 	 -12.7065 	 92.0155
| 16> C 	 -2.76315 	 -11.4273 	 91.5735
| 17> H 	 -2.90556 	 -10.3768 	 91.2791
| 18> H 	 -3.33643 	 -11.9922 	 90.7764
| 19> C 	 -3.57001 	 -11.6053 	 92.8308
| 20> H 	 -3.54905 	 -12.6008 	 93.2288
| 21> H 	 -3.26752 	 -10.8519 	 93.5353
| 22> H 	 -4.5714 	 -11.3236 	 92.5683
| 23> S 	 2.37173 	 -11.5356 	 86.4508
| 24> C 	 2.86221 	 -12.9429 	 85.5479
| 25> C 	 2.82609 	 -14.0594 	 86.3081
| 26> C 	 2.05676 	 -13.7932 	 87.5288
| 27> C 	 1.73249 	 -12.4915 	 87.7268
| 28> H 	 3.15232 	 -15.0012 	 85.9848
| 29> C 	 1.87358 	 -14.9133 	 88.5431
| 30> H 	 1.78939 	 -14.4559 	 89.4959
| 31> H 	 2.76708 	 -15.5986 	 88.7322
| 32> C 	 0.590809 	 -15.7615 	 88.3743
| 33> H 	 0.595972 	 -16.5561 	 87.644
| 34> H 	 -0.0888377 	 -15.0447 	 87.9773
| 35> C 	 0.0319225 	 -16.4419 	 89.6696
| 36> H 	 -1.09292 	 -16.6943 	 89.4579
| 37> H 	 0.122575 	 -15.8127 	 90.5175
| 38> H 	 0.525503 	 -17.3671 	 89.8798
| 39> H 	 -0.406003 	 -9.1678 	 90.8208
| 40> H 	 3.26655 	 -12.8477 	 84.6164
| 41> *
| 42>
| 43>                          ****END OF INPUT****

CARTESIAN COORDINATES (ANGSTROEM)
---------------------------------
  S      1.067120  -10.053100   88.785400
  C     -0.041327  -10.022100   90.220100
  C     -0.314200  -11.320400   90.611900
  C      0.295661  -12.272300   89.769000
  C      1.127810  -11.749100   88.800300
  H      0.121144  -13.320000   89.769400
  C     -1.235890  -11.643700   91.764900
  H     -0.875676  -11.014300   92.603100
  H     -1.112280  -12.706500   92.015500
  C     -2.763150  -11.427300   91.573500
  H     -2.905560  -10.376800   91.279100
  H     -3.336430  -11.992200   90.776400
  C     -3.570010  -11.605300   92.830800
  H     -3.549050  -12.600800   93.228800
  H     -3.267520  -10.851900   93.535300
  H     -4.571400  -11.323600   92.568300
  S      2.371730  -11.535600   86.450800
  C      2.862210  -12.942900   85.547900
  C      2.826090  -14.059400   86.308100
  C      2.056760  -13.793200   87.528800
  C      1.732490  -12.491500   87.726800
  H      3.152320  -15.001200   85.984800
  C      1.873580  -14.913300   88.543100
  H      1.789390  -14.455900   89.495900
  H      2.767080  -15.598600   88.732200
  C      0.590809  -15.761500   88.374300
  H      0.595972  -16.556100   87.644000
  H     -0.088838  -15.044700   87.977300
  C      0.031922  -16.441900   89.669600
  H     -1.092920  -16.694300   89.457900
  H      0.122575  -15.812700   90.517500
  H      0.525503  -17.367100   89.879800
  H     -0.406003   -9.167800   90.820800
  H      3.266550  -12.847700   84.616400

 Total Charge           Charge          ....    0
 Multiplicity           Mult            ....    1
 Number of Electrons    NEL             ....  134
 Basis Dimension        Dim             ....  322

ORBITAL ENERGIES
----------------

  NO   OCC          E(Eh)            E(eV)
   0   2.0000     -88.969932     -2420.9949
   1   2.0000     -88.960135     -2420.7283
   2   2.0000     -10.327089      -281.0144
   3   2.0000     -10.323623      -280.9201
   4   2.0000     -10.318869      -280.7907
   5   2.0000     -10.309936      -280.5476
   6   2.0000     -10.303550      -280.3739
   7   2.0000     -10.300595      -280.2934
   8   2.0000     -10.298316      -280.2314
   9   2.0000     -10.292721      -280.0792
  10   2.0000     -10.292365      -280.0695
  11   2.0000     -10.290591      -280.0212
  12   2.0000     -10.288176      -279.9555
  13   2.0000     -10.284682      -279.8604
  14   2.0000     -10.283736      -279.8347
  15   2.0000     -10.272054      -279.5168
  16   2.0000      -8.084408      -219.9879
  17   2.0000      -8.076538      -219.7738
  18   2.0000      -6.043064      -164.4401
  19   2.0000      -6.038958      -164.3284
  20   2.0000      -6.035135      -164.2244
  21   2.0000      -6.035016      -164.2211
  22   2.0000      -6.030972      -164.1111
  23   2.0000      -6.026952      -164.0017
  24   2.0000      -1.018573       -27.7168
  25   2.0000      -0.988853       -26.9081
  26   2.0000      -0.915389       -24.9090
  27   2.0000      -0.906677       -24.6719
  28   2.0000      -0.879404       -23.9298
  29   2.0000      -0.854608       -23.2551
  30   2.0000      -0.845383       -23.0040
  31   2.0000      -0.820341       -22.3226
  32   2.0000      -0.783827       -21.3290
  33   2.0000      -0.774862       -21.0851
  34   2.0000      -0.708878       -19.2895
  35   2.0000      -0.701509       -19.0890
  36   2.0000      -0.696667       -18.9573
  37   2.0000      -0.674450       -18.3527
  38   2.0000      -0.637310       -17.3421
  39   2.0000      -0.622915       -16.9504
  40   2.0000      -0.603102       -16.4113
  41   2.0000      -0.575942       -15.6722
  42   2.0000      -0.565839       -15.3973
  43   2.0000      -0.561024       -15.2662
  44   2.0000      -0.534039       -14.5320
  45   2.0000      -0.524473       -14.2716
  46   2.0000      -0.520862       -14.1734
  47   2.0000      -0.514167       -13.9912
  48   2.0000      -0.506315       -13.7775
  49   2.0000      -0.502275       -13.6676
  50   2.0000      -0.499640       -13.5959
  51   2.0000      -0.482422       -13.1274
  52   2.0000      -0.476671       -12.9709
  53   2.0000      -0.464890       -12.6503
  54   2.0000      -0.462337       -12.5808
  55   2.0000      -0.456809       -12.4304
  56   2.0000      -0.446026       -12.1370
  57   2.0000      -0.437743       -11.9116
  58   2.0000      -0.433216       -11.7884
  59   2.0000      -0.425515       -11.5789
  60   2.0000      -0.417583       -11.3630
  61   2.0000      -0.410383       -11.1671
  62   2.0000      -0.407726       -11.0948
  63   2.0000      -0.365720        -9.9517
  64   2.0000      -0.337644        -9.1878
  65   2.0000      -0.325497        -8.8572
  66   2.0000      -0.285604        -7.7717
  67   0.0000       0.020344         0.5536
  68   0.0000       0.079036         2.1507
  69   0.0000       0.094225         2.5640
  70   0.0000       0.119062         3.2398
  71   0.0000       0.129316         3.5189

MULLIKEN ATOMIC CHARGES
-----------------------
   0 S :    0.097453
   1 C :   -0.134049
   2 C :   -0.053345
   3 C :   -0.007329
   4 C :   -0.068630
   5 H :   -0.025157
   6 C :    0.062291
   7 H :    0.036612
   8 H :    0.021169
   9 C :   -0.102658
  10 H :    0.016319
  11 H :    0.040250
  12 C :   -0.015810
  13 H :    0.035975
  14 H :    0.019625
  15 H :    0.024198
  16 S :    0.070710
  17 C :   -0.040825
  18 C :    0.029473
  19 C :   -0.109294
  20 C :   -0.079098
  21 H :    0.001791
  22 C :    0.037476
  23 H :    0.000230
  24 H :    0.037915
  25 C :   -0.065384
  26 H :    0.024100
  27 H :    0.024234
  28 C :   -0.065621
  29 H :    0.049659
  30 H :    0.024567
  31 H :    0.034118
  32 H :    0.056364
  33 H :    0.022671
Sum of atomic charges:   -0.0000000

LOEWDIN ATOMIC CHARGES
----------------------
   0 S :    0.405165
   1 C :   -0.189837
   2 C :   -0.060297
   3 C :   -0.069350
   4 C :   -0.198444
   5 H :    0.023701
   6 C :   -0.033417
   7 H :    0.038736
   8 H :    0.029914
   9 C :   -0.046847
  10 H :    0.021278
  11 H :    0.031500
  12 C :   -0.060085
  13 H :    0.021644
  14 H :    0.021754
  15 H :    0.027201
  16 S :    0.403451
  17 C :   -0.157918
  18 C :   -0.051017
  19 C :   -0.059811
  20 C :   -0.194905
  21 H :    0.024888
  22 C :   -0.039204
  23 H :    0.019302
  24 H :    0.037151
  25 C :   -0.043240
  26 H :    0.021855
  27 H :    0.018937
  28 C :   -0.064337
  29 H :    0.042236
  30 H :    0.012582
  31 H :    0.021301
  32 H :    0.036977
  33 H :    0.009139

  Mayer bond orders larger than 0.100000
B(  0-S ,  1-C ) :   1.1167 B(  0-S ,  4-C ) :   1.1529 B(  1-C ,  2-C ) :   1.6019
B(  1-C , 32-H ) :   0.9644 B(  2-C ,  3-C ) :   1.2618 B(  2-C ,  6-C ) :   1.0223
B(  3-C ,  4-C ) :   1.5416 B(  3-C ,  5-H ) :   0.9990 B(  4-C , 20-C ) :   1.0798
B(  6-C ,  7-H ) :   0.9367 B(  6-C ,  8-H ) :   0.9417 B(  6-C ,  9-C ) :   1.0603
B(  9-C , 10-H ) :   0.9528 B(  9-C , 11-H ) :   0.9584 B(  9-C , 12-C ) :   1.0920
B( 12-C , 13-H ) :   0.9758 B( 12-C , 14-H ) :   0.9721 B( 12-C , 15-H ) :   0.9701
B( 16-S , 17-C ) :   1.1480 B( 16-S , 20-C ) :   1.1143 B( 17-C , 18-C ) :   1.6188
B( 17-C , 33-H ) :   0.9824 B( 18-C , 19-C ) :   1.2119 B( 18-C , 21-H ) :   1.0032
B( 19-C , 20-C ) :   1.6254 B( 19-C , 22-C ) :   1.0534 B( 22-C , 23-H ) :   0.9344
B( 22-C , 24-H ) :   0.9394 B( 22-C , 25-C ) :   1.0440 B( 25-C , 26-H ) :   0.9548
B( 25-C , 27-H ) :   0.9587 B( 25-C , 28-C ) :   1.0756 B( 28-C , 29-H ) :   0.9754
B( 28-C , 30-H ) :   0.9770 B( 28-C , 31-H ) :   0.9771

Dispersion correction           -0.013922690
FINAL SINGLE POINT ENERGY     -1339.863704432510

DIPOLE MOMENT
-------------
                                X             Y             Z
Electronic contribution:     19.34306      17.98559     -19.54911
Nuclear contribution   :    -19.64295     -18.48910      19.84942
                        -----------------------------------------
Total Dipole Moment    :     -0.29990      -0.50352       0.30032
                        -----------------------------------------
Magnitude (a.u.)       :      0.65853
Magnitude (Debye)      :      1.67384

Rotational constants in cm-1:     0.018995     0.008853     0.006282
Rotational constants in MHz :   569.446205   265.418006   188.318377

                             ****ORCA TERMINATED NORMALLY****
TOTAL RUN TIME: 0 days 0 hours 0 minutes 33 seconds 274 msec
