                         Program Version 4.2.1 -  RELEASE  -
|  1> ! wB97X-D3 SP def2-SVP
|  2> %pal
|  3> nprocs 16
|  4> end
|  5>
|  6> * xyz 0 1
|  7> S 	 -95.3692 	 48.5346 	 122.696
|  8> C 	 -93.9428 	 48.2628 	 123.596
|  9> C 	 -94.1549 	 47.7425 	 124.864
| 10> C 	 -95.5434 	 47.4025 	 124.995
| 11> C 	 -96.3394 	 47.6889 	 123.86
| 12> H 	 -96.0805 	 46.8681 	 125.751
| 13> C 	 -93.1028 	 47.539 	 125.898
| 14> H 	 -93.3492 	 47.9968 	 126.923
| 15> H 	 -92.1529 	 48.1079 	 125.593
| 16> C 	 -92.557 	 46.0673 	 126.047
| 17> H 	 -91.9661 	 45.8809 	 125.123
| 18> H 	 -91.9012 	 46.0693 	 126.919
| 19> C 	 -93.4737 	 44.8345 	 126.129
| 20> H 	 -94.1358 	 44.7271 	 125.226
| 21> H 	 -92.844 	 43.9551 	 126.198
| 22> H 	 -94.0701 	 44.8656 	 127.018
| 23> S 	 -98.6698 	 49.0892 	 123.343
| 24> C 	 -100.154 	 48.2205 	 123.317
| 25> C 	 -100.042 	 46.9227 	 123.828
| 26> C 	 -98.6894 	 46.5754 	 124.167
| 27> C 	 -97.7948 	 47.5632 	 123.75
| 28> H 	 -100.871 	 46.1543 	 123.886
| 29> C 	 -98.4045 	 45.1678 	 124.567
| 30> H 	 -99.2413 	 44.8214 	 125.136
| 31> H 	 -97.5934 	 45.1505 	 125.25
| 32> C 	 -98.0418 	 44.222 	 123.405
| 33> H 	 -97.0099 	 44.5138 	 122.987
| 34> H 	 -98.782 	 44.4432 	 122.67
| 35> C 	 -98.2057 	 42.7373 	 123.731
| 36> H 	 -99.2671 	 42.6908 	 124.043
| 37> H 	 -97.5552 	 42.457 	 124.544
| 38> H 	 -97.9125 	 42.0279 	 122.938
| 39> H 	 -92.9322 	 48.6386 	 123.308
| 40> H 	 -101.173 	 48.4891 	 122.904
| 41> *
| 42>
| 43>                          ****END OF INPUT****

CARTESIAN COORDINATES (ANGSTROEM)
---------------------------------
  S    -95.369200   48.534600  122.696000
  C    -93.942800   48.262800  123.596000
  C    -94.154900   47.742500  124.864000
  C    -95.543400   47.402500  124.995000
  C    -96.339400   47.688900  123.860000
  H    -96.080500   46.868100  125.751000
  C    -93.102800   47.539000  125.898000
  H    -93.349200   47.996800  126.923000
  H    -92.152900   48.107900  125.593000
  C    -92.557000   46.067300  126.047000
  H    -91.966100   45.880900  125.123000
  H    -91.901200   46.069300  126.919000
  C    -93.473700   44.834500  126.129000
  H    -94.135800   44.727100  125.226000
  H    -92.844000   43.955100  126.198000
  H    -94.070100   44.865600  127.018000
  S    -98.669800   49.089200  123.343000
  C    -100.154000   48.220500  123.317000
  C    -100.042000   46.922700  123.828000
  C    -98.689400   46.575400  124.167000
  C    -97.794800   47.563200  123.750000
  H    -100.871000   46.154300  123.886000
  C    -98.404500   45.167800  124.567000
  H    -99.241300   44.821400  125.136000
  H    -97.593400   45.150500  125.250000
  C    -98.041800   44.222000  123.405000
  H    -97.009900   44.513800  122.987000
  H    -98.782000   44.443200  122.670000
  C    -98.205700   42.737300  123.731000
  H    -99.267100   42.690800  124.043000
  H    -97.555200   42.457000  124.544000
  H    -97.912500   42.027900  122.938000
  H    -92.932200   48.638600  123.308000
  H    -101.173000   48.489100  122.904000

 Total Charge           Charge          ....    0
 Multiplicity           Mult            ....    1
 Number of Electrons    NEL             ....  134
 Basis Dimension        Dim             ....  322

ORBITAL ENERGIES
----------------

  NO   OCC          E(Eh)            E(eV)
   0   2.0000     -88.969628     -2420.9867
   1   2.0000     -88.968728     -2420.9622
   2   2.0000     -10.331955      -281.1468
   3   2.0000     -10.329516      -281.0804
   4   2.0000     -10.320874      -280.8452
   5   2.0000     -10.316174      -280.7174
   6   2.0000     -10.307171      -280.4724
   7   2.0000     -10.304933      -280.4115
   8   2.0000     -10.303153      -280.3630
   9   2.0000     -10.298484      -280.2360
  10   2.0000     -10.296657      -280.1863
  11   2.0000     -10.292341      -280.0688
  12   2.0000     -10.287462      -279.9361
  13   2.0000     -10.285792      -279.8906
  14   2.0000     -10.280861      -279.7564
  15   2.0000     -10.278750      -279.6990
  16   2.0000      -8.085033      -220.0049
  17   2.0000      -8.082989      -219.9493
  18   2.0000      -6.043395      -164.4491
  19   2.0000      -6.041635      -164.4013
  20   2.0000      -6.039366      -164.3395
  21   2.0000      -6.037692      -164.2940
  22   2.0000      -6.035996      -164.2478
  23   2.0000      -6.033502      -164.1799
  24   2.0000      -1.006925       -27.3998
  25   2.0000      -0.984410       -26.7872
  26   2.0000      -0.913509       -24.8578
  27   2.0000      -0.906464       -24.6661
  28   2.0000      -0.865589       -23.5539
  29   2.0000      -0.854187       -23.2436
  30   2.0000      -0.846718       -23.0404
  31   2.0000      -0.809941       -22.0396
  32   2.0000      -0.785767       -21.3818
  33   2.0000      -0.771542       -20.9947
  34   2.0000      -0.703777       -19.1507
  35   2.0000      -0.694237       -18.8912
  36   2.0000      -0.688373       -18.7316
  37   2.0000      -0.660404       -17.9705
  38   2.0000      -0.639579       -17.4038
  39   2.0000      -0.611472       -16.6390
  40   2.0000      -0.592724       -16.1288
  41   2.0000      -0.572645       -15.5825
  42   2.0000      -0.568765       -15.4769
  43   2.0000      -0.543400       -14.7867
  44   2.0000      -0.534100       -14.5336
  45   2.0000      -0.519921       -14.1478
  46   2.0000      -0.512711       -13.9516
  47   2.0000      -0.509221       -13.8566
  48   2.0000      -0.503206       -13.6929
  49   2.0000      -0.498921       -13.5763
  50   2.0000      -0.491051       -13.3622
  51   2.0000      -0.482993       -13.1429
  52   2.0000      -0.475076       -12.9275
  53   2.0000      -0.466119       -12.6837
  54   2.0000      -0.459402       -12.5010
  55   2.0000      -0.445645       -12.1266
  56   2.0000      -0.441108       -12.0032
  57   2.0000      -0.436367       -11.8742
  58   2.0000      -0.433445       -11.7946
  59   2.0000      -0.426874       -11.6158
  60   2.0000      -0.423252       -11.5173
  61   2.0000      -0.416297       -11.3280
  62   2.0000      -0.409788       -11.1509
  63   2.0000      -0.346393        -9.4258
  64   2.0000      -0.332773        -9.0552
  65   2.0000      -0.330014        -8.9801
  66   2.0000      -0.287633        -7.8269
  67   0.0000       0.023662         0.6439
  68   0.0000       0.068427         1.8620
  69   0.0000       0.104383         2.8404
  70   0.0000       0.116059         3.1581
  71   0.0000       0.127255         3.4628

MULLIKEN ATOMIC CHARGES
-----------------------
   0 S :    0.127045
   1 C :   -0.118973
   2 C :   -0.065776
   3 C :    0.040462
   4 C :   -0.187655
   5 H :    0.003138
   6 C :    0.011455
   7 H :    0.054053
   8 H :    0.033288
   9 C :   -0.092544
  10 H :    0.031044
  11 H :    0.033219
  12 C :   -0.050224
  13 H :    0.048997
  14 H :    0.033629
  15 H :    0.024086
  16 S :    0.110194
  17 C :   -0.090345
  18 C :   -0.074592
  19 C :   -0.046825
  20 C :   -0.146021
  21 H :    0.039443
  22 C :    0.085467
  23 H :    0.008447
  24 H :    0.000168
  25 C :   -0.070002
  26 H :    0.048593
  27 H :    0.018399
  28 C :   -0.045242
  29 H :    0.033902
  30 H :    0.024127
  31 H :    0.046383
  32 H :    0.058206
  33 H :    0.074453
Sum of atomic charges:    0.0000000

LOEWDIN ATOMIC CHARGES
----------------------
   0 S :    0.434580
   1 C :   -0.211914
   2 C :   -0.071772
   3 C :   -0.052749
   4 C :   -0.212456
   5 H :    0.025419
   6 C :   -0.045603
   7 H :    0.039921
   8 H :    0.040494
   9 C :   -0.043431
  10 H :    0.027288
  11 H :    0.024120
  12 C :   -0.069929
  13 H :    0.031473
  14 H :    0.028538
  15 H :    0.017192
  16 S :    0.397812
  17 C :   -0.209561
  18 C :   -0.079517
  19 C :   -0.055706
  20 C :   -0.179687
  21 H :    0.039379
  22 C :   -0.030659
  23 H :    0.026263
  24 H :    0.020922
  25 C :   -0.037745
  26 H :    0.033338
  27 H :    0.017762
  28 C :   -0.067465
  29 H :    0.030106
  30 H :    0.020370
  31 H :    0.032052
  32 H :    0.035554
  33 H :    0.045609

  Mayer bond orders larger than 0.100000
B(  0-S ,  1-C ) :   1.1650 B(  0-S ,  4-C ) :   1.1600 B(  1-C ,  2-C ) :   1.5917
B(  1-C , 32-H ) :   0.9561 B(  2-C ,  3-C ) :   1.2427 B(  2-C ,  6-C ) :   1.0317
B(  3-C ,  4-C ) :   1.5491 B(  3-C ,  5-H ) :   0.9961 B(  4-C , 20-C ) :   1.0542
B(  6-C ,  7-H ) :   0.9442 B(  6-C ,  8-H ) :   0.9406 B(  6-C ,  9-C ) :   1.0552
B(  9-C , 10-H ) :   0.9571 B(  9-C , 11-H ) :   0.9570 B(  9-C , 12-C ) :   1.0916
B( 12-C , 13-H ) :   0.9689 B( 12-C , 14-H ) :   0.9707 B( 12-C , 15-H ) :   0.9760
B( 16-S , 17-C ) :   1.1488 B( 16-S , 20-C ) :   1.1275 B( 17-C , 18-C ) :   1.6210
B( 17-C , 33-H ) :   0.9551 B( 18-C , 19-C ) :   1.2342 B( 18-C , 21-H ) :   0.9753
B( 19-C , 20-C ) :   1.5951 B( 19-C , 22-C ) :   1.0716 B( 22-C , 23-H ) :   0.9284
B( 22-C , 24-H ) :   0.9184 B( 22-C , 25-C ) :   1.0564 B( 25-C , 26-H ) :   0.9508
B( 25-C , 27-H ) :   0.9606 B( 25-C , 28-C ) :   1.0741 B( 28-C , 29-H ) :   0.9746
B( 28-C , 30-H ) :   0.9765 B( 28-C , 31-H ) :   0.9734

Dispersion correction           -0.014597238
FINAL SINGLE POINT ENERGY     -1339.872806903262

DIPOLE MOMENT
-------------
                                X             Y             Z
Electronic contribution:     -8.76374      26.19669     -11.52459
Nuclear contribution   :      8.92667     -26.71533      11.86347
                        -----------------------------------------
Total Dipole Moment    :      0.16293      -0.51864       0.33888
                        -----------------------------------------
Magnitude (a.u.)       :      0.64060
Magnitude (Debye)      :      1.62827

Rotational constants in cm-1:     0.016866     0.009864     0.006970
Rotational constants in MHz :   505.627422   295.701825   208.955746

                             ****ORCA TERMINATED NORMALLY****
TOTAL RUN TIME: 0 days 0 hours 0 minutes 34 seconds 143 msec
