                         Program Version 4.2.1 -  RELEASE  -
|  1> ! wB97X-D3 SP def2-SVP
|  2> %pal
|  3> nprocs 16
|  4> end
|  5>
|  6> * xyz 0 1
|  7> S 	 70.5368 	 30.4016 	 70.1148
|  8> C 	 70.0266 	 30.2201 	 68.4494
|  9> C 	 69.8921 	 28.8254 	 68.1304
| 10> C 	 70.0137 	 28.0376 	 69.3243
| 11> C 	 70.3518 	 28.7533 	 70.4033
| 12> H 	 70.0101 	 26.9515 	 69.4301
| 13> C 	 69.6281 	 28.2803 	 66.738
| 14> H 	 70.1982 	 27.391 	 66.5887
| 15> H 	 69.9119 	 29.015 	 65.9627
| 16> C 	 68.2182 	 27.8005 	 66.4149
| 17> H 	 67.4867 	 28.5261 	 66.4026
| 18> H 	 68.2106 	 27.4085 	 65.4552
| 19> C 	 67.692 	 26.7694 	 67.4049
| 20> H 	 68.4042 	 25.9603 	 67.5379
| 21> H 	 67.4999 	 27.1827 	 68.4407
| 22> H 	 66.7904 	 26.2743 	 67.0103
| 23> S 	 72.364 	 28.4156 	 72.2803
| 24> C 	 72.1486 	 27.3598 	 73.6787
| 25> C 	 70.8403 	 27.0029 	 73.748
| 26> C 	 70.0455 	 27.3745 	 72.6109
| 27> C 	 70.7099 	 28.2315 	 71.719
| 28> H 	 70.4435 	 26.4357 	 74.6215
| 29> C 	 68.6099 	 26.906 	 72.4478
| 30> H 	 68.1156 	 27.5212 	 71.6679
| 31> H 	 68.0163 	 27.0583 	 73.3196
| 32> C 	 68.2863 	 25.4787 	 72.0077
| 33> H 	 67.1801 	 25.3605 	 71.9145
| 34> H 	 68.3961 	 24.8633 	 72.9282
| 35> C 	 69.0463 	 24.9239 	 70.7748
| 36> H 	 69.0863 	 23.8675 	 70.7103
| 37> H 	 70.1086 	 25.2807 	 70.8564
| 38> H 	 68.5468 	 25.3749 	 69.8605
| 39> H 	 69.9704 	 31.0828 	 67.7198
| 40> H 	 72.8899 	 27.1775 	 74.4196
| 41> *
| 42>
| 43>                          ****END OF INPUT****

CARTESIAN COORDINATES (ANGSTROEM)
---------------------------------
  S     70.536800   30.401600   70.114800
  C     70.026600   30.220100   68.449400
  C     69.892100   28.825400   68.130400
  C     70.013700   28.037600   69.324300
  C     70.351800   28.753300   70.403300
  H     70.010100   26.951500   69.430100
  C     69.628100   28.280300   66.738000
  H     70.198200   27.391000   66.588700
  H     69.911900   29.015000   65.962700
  C     68.218200   27.800500   66.414900
  H     67.486700   28.526100   66.402600
  H     68.210600   27.408500   65.455200
  C     67.692000   26.769400   67.404900
  H     68.404200   25.960300   67.537900
  H     67.499900   27.182700   68.440700
  H     66.790400   26.274300   67.010300
  S     72.364000   28.415600   72.280300
  C     72.148600   27.359800   73.678700
  C     70.840300   27.002900   73.748000
  C     70.045500   27.374500   72.610900
  C     70.709900   28.231500   71.719000
  H     70.443500   26.435700   74.621500
  C     68.609900   26.906000   72.447800
  H     68.115600   27.521200   71.667900
  H     68.016300   27.058300   73.319600
  C     68.286300   25.478700   72.007700
  H     67.180100   25.360500   71.914500
  H     68.396100   24.863300   72.928200
  C     69.046300   24.923900   70.774800
  H     69.086300   23.867500   70.710300
  H     70.108600   25.280700   70.856400
  H     68.546800   25.374900   69.860500
  H     69.970400   31.082800   67.719800
  H     72.889900   27.177500   74.419600

 Total Charge           Charge          ....    0
 Multiplicity           Mult            ....    1
 Number of Electrons    NEL             ....  134
 Basis Dimension        Dim             ....  322

ORBITAL ENERGIES
----------------

  NO   OCC          E(Eh)            E(eV)
   0   2.0000     -88.966767     -2420.9088
   1   2.0000     -88.962675     -2420.7975
   2   2.0000     -10.329630      -281.0835
   3   2.0000     -10.323241      -280.9097
   4   2.0000     -10.320389      -280.8321
   5   2.0000     -10.316541      -280.7274
   6   2.0000     -10.310465      -280.5620
   7   2.0000     -10.306139      -280.4443
   8   2.0000     -10.296201      -280.1739
   9   2.0000     -10.292171      -280.0642
  10   2.0000     -10.290114      -280.0082
  11   2.0000     -10.289867      -280.0015
  12   2.0000     -10.287470      -279.9363
  13   2.0000     -10.283968      -279.8410
  14   2.0000     -10.279387      -279.7163
  15   2.0000     -10.273113      -279.5456
  16   2.0000      -8.082737      -219.9425
  17   2.0000      -8.077263      -219.7935
  18   2.0000      -6.041068      -164.3858
  19   2.0000      -6.037020      -164.2757
  20   2.0000      -6.035888      -164.2449
  21   2.0000      -6.033656      -164.1841
  22   2.0000      -6.031658      -164.1298
  23   2.0000      -6.028021      -164.0308
  24   2.0000      -1.013039       -27.5662
  25   2.0000      -0.985339       -26.8124
  26   2.0000      -0.918140       -24.9839
  27   2.0000      -0.904975       -24.6256
  28   2.0000      -0.870163       -23.6783
  29   2.0000      -0.850206       -23.1353
  30   2.0000      -0.840467       -22.8703
  31   2.0000      -0.818360       -22.2687
  32   2.0000      -0.784276       -21.3412
  33   2.0000      -0.776005       -21.1162
  34   2.0000      -0.708950       -19.2915
  35   2.0000      -0.700085       -19.0503
  36   2.0000      -0.690786       -18.7972
  37   2.0000      -0.654366       -17.8062
  38   2.0000      -0.645613       -17.5680
  39   2.0000      -0.616169       -16.7668
  40   2.0000      -0.593666       -16.1545
  41   2.0000      -0.578101       -15.7309
  42   2.0000      -0.555905       -15.1270
  43   2.0000      -0.548529       -14.9262
  44   2.0000      -0.547856       -14.9079
  45   2.0000      -0.540129       -14.6977
  46   2.0000      -0.518867       -14.1191
  47   2.0000      -0.513297       -13.9675
  48   2.0000      -0.503425       -13.6989
  49   2.0000      -0.493610       -13.4318
  50   2.0000      -0.490607       -13.3501
  51   2.0000      -0.478107       -13.0099
  52   2.0000      -0.469998       -12.7893
  53   2.0000      -0.465029       -12.6541
  54   2.0000      -0.460067       -12.5191
  55   2.0000      -0.444989       -12.1088
  56   2.0000      -0.441594       -12.0164
  57   2.0000      -0.438904       -11.9432
  58   2.0000      -0.435905       -11.8616
  59   2.0000      -0.432020       -11.7559
  60   2.0000      -0.419587       -11.4175
  61   2.0000      -0.414547       -11.2804
  62   2.0000      -0.399205       -10.8629
  63   2.0000      -0.347327        -9.4512
  64   2.0000      -0.331400        -9.0178
  65   2.0000      -0.325847        -8.8667
  66   2.0000      -0.298130        -8.1125
  67   0.0000       0.037097         1.0095
  68   0.0000       0.065474         1.7816
  69   0.0000       0.109491         2.9794
  70   0.0000       0.122968         3.3461
  71   0.0000       0.130456         3.5499

MULLIKEN ATOMIC CHARGES
-----------------------
   0 S :    0.123693
   1 C :   -0.146367
   2 C :   -0.096608
   3 C :    0.034992
   4 C :   -0.145968
   5 H :   -0.011054
   6 C :    0.076264
   7 H :    0.021889
   8 H :    0.027436
   9 C :    0.013926
  10 H :    0.004196
  11 H :    0.009331
  12 C :   -0.116271
  13 H :    0.025249
  14 H :    0.061484
  15 H :    0.034899
  16 S :    0.092200
  17 C :   -0.085954
  18 C :   -0.029155
  19 C :   -0.048631
  20 C :   -0.139203
  21 H :    0.034268
  22 C :    0.065305
  23 H :    0.026618
  24 H :    0.020270
  25 C :   -0.106029
  26 H :    0.030220
  27 H :    0.014764
  28 C :   -0.057086
  29 H :    0.033322
  30 H :    0.061661
  31 H :    0.043295
  32 H :    0.073829
  33 H :    0.053213
Sum of atomic charges:   -0.0000000

LOEWDIN ATOMIC CHARGES
----------------------
   0 S :    0.440125
   1 C :   -0.211962
   2 C :   -0.053016
   3 C :   -0.067197
   4 C :   -0.217883
   5 H :    0.034673
   6 C :   -0.028985
   7 H :    0.030178
   8 H :    0.035045
   9 C :   -0.029359
  10 H :    0.013747
  11 H :    0.018175
  12 C :   -0.070448
  13 H :    0.015229
  14 H :    0.031821
  15 H :    0.028845
  16 S :    0.394354
  17 C :   -0.175880
  18 C :   -0.074713
  19 C :   -0.062706
  20 C :   -0.195284
  21 H :    0.038868
  22 C :   -0.037835
  23 H :    0.032315
  24 H :    0.029879
  25 C :   -0.049992
  26 H :    0.028146
  27 H :    0.018327
  28 C :   -0.071105
  29 H :    0.021948
  30 H :    0.033797
  31 H :    0.033840
  32 H :    0.039606
  33 H :    0.027450

  Mayer bond orders larger than 0.100000
B(  0-S ,  1-C ) :   1.1537 B(  0-S ,  4-C ) :   1.1712 B(  1-C ,  2-C ) :   1.5798
B(  1-C , 32-H ) :   0.9637 B(  2-C ,  3-C ) :   1.2318 B(  2-C ,  6-C ) :   1.0383
B(  3-C ,  4-C ) :   1.5896 B(  3-C ,  5-H ) :   0.9836 B(  4-C , 20-C ) :   0.9876
B(  6-C ,  7-H ) :   0.9358 B(  6-C ,  8-H ) :   0.9388 B(  6-C ,  9-C ) :   1.0800
B(  9-C , 10-H ) :   0.9467 B(  9-C , 11-H ) :   0.9483 B(  9-C , 12-C ) :   1.0896
B( 12-C , 13-H ) :   0.9689 B( 12-C , 14-H ) :   0.9667 B( 12-C , 15-H ) :   0.9675
B( 16-S , 17-C ) :   1.1471 B( 16-S , 20-C ) :   1.1446 B( 17-C , 18-C ) :   1.6092
B( 17-C , 20-C ) :   0.1005 B( 17-C , 33-H ) :   0.9727 B( 18-C , 19-C ) :   1.2342
B( 18-C , 21-H ) :   0.9838 B( 19-C , 20-C ) :   1.5966 B( 19-C , 22-C ) :   1.0516
B( 22-C , 23-H ) :   0.9352 B( 22-C , 24-H ) :   0.9340 B( 22-C , 25-C ) :   1.0767
B( 25-C , 26-H ) :   0.9537 B( 25-C , 27-H ) :   0.9553 B( 25-C , 28-C ) :   1.0670
B( 28-C , 29-H ) :   0.9679 B( 28-C , 30-H ) :   0.9625 B( 28-C , 31-H ) :   0.9629

Dispersion correction           -0.016385952
FINAL SINGLE POINT ENERGY     -1339.879427906509

DIPOLE MOMENT
-------------
                                X             Y             Z
Electronic contribution:     18.64915      19.31481      12.59894
Nuclear contribution   :    -19.01618     -19.79170     -12.82496
                        -----------------------------------------
Total Dipole Moment    :     -0.36703      -0.47688      -0.22602
                        -----------------------------------------
Magnitude (a.u.)       :      0.64282
Magnitude (Debye)      :      1.63391

Rotational constants in cm-1:     0.019190     0.010531     0.007539
Rotational constants in MHz :   575.307764   315.720615   226.006189

                             ****ORCA TERMINATED NORMALLY****
TOTAL RUN TIME: 0 days 0 hours 0 minutes 31 seconds 247 msec
