                         Program Version 4.2.1 -  RELEASE  -
|  1> ! wB97X-D3 SP def2-SVP
|  2> %pal
|  3> nprocs 16
|  4> end
|  5>
|  6> * xyz 0 1
|  7> S 	 -3.4805 	 -18.7182 	 70.7057
|  8> C 	 -3.00236 	 -19.9922 	 69.5928
|  9> C 	 -3.20682 	 -19.554 	 68.261
| 10> C 	 -3.74167 	 -18.2833 	 68.2828
| 11> C 	 -3.95522 	 -17.695 	 69.5066
| 12> H 	 -3.99468 	 -17.6641 	 67.4005
| 13> C 	 -2.96076 	 -20.3376 	 66.9464
| 14> H 	 -2.57939 	 -21.2953 	 67.2939
| 15> H 	 -2.1361 	 -19.9278 	 66.2582
| 16> C 	 -4.20738 	 -20.6225 	 66.069
| 17> H 	 -4.00515 	 -21.4345 	 65.3779
| 18> H 	 -4.97198 	 -21.0922 	 66.6635
| 19> C 	 -4.78354 	 -19.4638 	 65.2561
| 20> H 	 -5.41467 	 -19.9456 	 64.4174
| 21> H 	 -5.43343 	 -18.9382 	 65.891
| 22> H 	 -3.91623 	 -18.8047 	 64.9422
| 23> S 	 -5.72829 	 -16.3898 	 71.0792
| 24> C 	 -6.14075 	 -14.7196 	 70.774
| 25> C 	 -5.14673 	 -14.1951 	 69.9247
| 26> C 	 -4.30186 	 -15.1483 	 69.3336
| 27> C 	 -4.51608 	 -16.4104 	 69.8436
| 28> H 	 -5.2629 	 -13.0865 	 69.8293
| 29> C 	 -3.29787 	 -14.7556 	 68.2828
| 30> H 	 -3.5839 	 -13.8081 	 67.8145
| 31> H 	 -3.22729 	 -15.5648 	 67.5562
| 32> C 	 -1.92947 	 -14.3963 	 68.9695
| 33> H 	 -1.48904 	 -15.3369 	 69.3131
| 34> H 	 -2.09653 	 -13.7325 	 69.8375
| 35> C 	 -0.971124 	 -13.6896 	 68.0478
| 36> H 	 -0.71032 	 -14.3459 	 67.1871
| 37> H 	 -0.0481376 	 -13.48 	 68.4773
| 38> H 	 -1.37786 	 -12.8164 	 67.5289
| 39> H 	 -2.8268 	 -20.9662 	 69.9526
| 40> H 	 -6.81753 	 -14.0727 	 71.292
| 41> *
| 42>
| 43>                          ****END OF INPUT****

CARTESIAN COORDINATES (ANGSTROEM)
---------------------------------
  S     -3.480500  -18.718200   70.705700
  C     -3.002360  -19.992200   69.592800
  C     -3.206820  -19.554000   68.261000
  C     -3.741670  -18.283300   68.282800
  C     -3.955220  -17.695000   69.506600
  H     -3.994680  -17.664100   67.400500
  C     -2.960760  -20.337600   66.946400
  H     -2.579390  -21.295300   67.293900
  H     -2.136100  -19.927800   66.258200
  C     -4.207380  -20.622500   66.069000
  H     -4.005150  -21.434500   65.377900
  H     -4.971980  -21.092200   66.663500
  C     -4.783540  -19.463800   65.256100
  H     -5.414670  -19.945600   64.417400
  H     -5.433430  -18.938200   65.891000
  H     -3.916230  -18.804700   64.942200
  S     -5.728290  -16.389800   71.079200
  C     -6.140750  -14.719600   70.774000
  C     -5.146730  -14.195100   69.924700
  C     -4.301860  -15.148300   69.333600
  C     -4.516080  -16.410400   69.843600
  H     -5.262900  -13.086500   69.829300
  C     -3.297870  -14.755600   68.282800
  H     -3.583900  -13.808100   67.814500
  H     -3.227290  -15.564800   67.556200
  C     -1.929470  -14.396300   68.969500
  H     -1.489040  -15.336900   69.313100
  H     -2.096530  -13.732500   69.837500
  C     -0.971124  -13.689600   68.047800
  H     -0.710320  -14.345900   67.187100
  H     -0.048138  -13.480000   68.477300
  H     -1.377860  -12.816400   67.528900
  H     -2.826800  -20.966200   69.952600
  H     -6.817530  -14.072700   71.292000

 Total Charge           Charge          ....    0
 Multiplicity           Mult            ....    1
 Number of Electrons    NEL             ....  134
 Basis Dimension        Dim             ....  322

ORBITAL ENERGIES
----------------

  NO   OCC          E(Eh)            E(eV)
   0   2.0000     -88.966330     -2420.8969
   1   2.0000     -88.966189     -2420.8931
   2   2.0000     -10.324403      -280.9413
   3   2.0000     -10.319854      -280.8175
   4   2.0000     -10.316996      -280.7397
   5   2.0000     -10.314127      -280.6617
   6   2.0000     -10.306063      -280.4422
   7   2.0000     -10.303343      -280.3682
   8   2.0000     -10.302245      -280.3384
   9   2.0000     -10.296983      -280.1951
  10   2.0000     -10.293377      -280.0970
  11   2.0000     -10.286471      -279.9091
  12   2.0000     -10.286239      -279.9028
  13   2.0000     -10.283685      -279.8333
  14   2.0000     -10.282556      -279.8026
  15   2.0000     -10.271137      -279.4918
  16   2.0000      -8.082929      -219.9477
  17   2.0000      -8.081253      -219.9021
  18   2.0000      -6.041103      -164.3868
  19   2.0000      -6.039736      -164.3496
  20   2.0000      -6.036946      -164.2736
  21   2.0000      -6.035602      -164.2371
  22   2.0000      -6.034107      -164.1964
  23   2.0000      -6.032161      -164.1434
  24   2.0000      -1.021770       -27.8038
  25   2.0000      -0.992442       -27.0057
  26   2.0000      -0.911142       -24.7934
  27   2.0000      -0.908512       -24.7219
  28   2.0000      -0.872753       -23.7488
  29   2.0000      -0.855458       -23.2782
  30   2.0000      -0.846013       -23.0212
  31   2.0000      -0.814587       -22.1660
  32   2.0000      -0.785132       -21.3645
  33   2.0000      -0.774338       -21.0708
  34   2.0000      -0.705414       -19.1953
  35   2.0000      -0.697573       -18.9819
  36   2.0000      -0.694331       -18.8937
  37   2.0000      -0.662229       -18.0202
  38   2.0000      -0.646334       -17.5876
  39   2.0000      -0.622314       -16.9340
  40   2.0000      -0.593322       -16.1451
  41   2.0000      -0.572721       -15.5845
  42   2.0000      -0.567287       -15.4367
  43   2.0000      -0.545738       -14.8503
  44   2.0000      -0.541453       -14.7337
  45   2.0000      -0.526525       -14.3275
  46   2.0000      -0.522087       -14.2067
  47   2.0000      -0.511951       -13.9309
  48   2.0000      -0.504584       -13.7304
  49   2.0000      -0.499034       -13.5794
  50   2.0000      -0.498041       -13.5524
  51   2.0000      -0.482658       -13.1338
  52   2.0000      -0.480049       -13.0628
  53   2.0000      -0.465625       -12.6703
  54   2.0000      -0.459181       -12.4949
  55   2.0000      -0.443318       -12.0633
  56   2.0000      -0.438077       -11.9207
  57   2.0000      -0.435881       -11.8609
  58   2.0000      -0.427988       -11.6461
  59   2.0000      -0.426649       -11.6097
  60   2.0000      -0.418741       -11.3945
  61   2.0000      -0.417256       -11.3541
  62   2.0000      -0.413034       -11.2392
  63   2.0000      -0.346997        -9.4423
  64   2.0000      -0.337087        -9.1726
  65   2.0000      -0.329665        -8.9706
  66   2.0000      -0.289973        -7.8906
  67   0.0000       0.028698         0.7809
  68   0.0000       0.069827         1.9001
  69   0.0000       0.110774         3.0143
  70   0.0000       0.122513         3.3337
  71   0.0000       0.138089         3.7576

MULLIKEN ATOMIC CHARGES
-----------------------
   0 S :    0.117352
   1 C :   -0.132040
   2 C :   -0.055156
   3 C :   -0.004254
   4 C :   -0.152240
   5 H :    0.014105
   6 C :    0.050652
   7 H :    0.012585
   8 H :    0.054571
   9 C :   -0.081932
  10 H :    0.022438
  11 H :    0.019446
  12 C :   -0.061308
  13 H :    0.050993
  14 H :    0.037919
  15 H :    0.042798
  16 S :    0.110883
  17 C :   -0.093449
  18 C :   -0.084115
  19 C :   -0.013518
  20 C :   -0.145704
  21 H :    0.035419
  22 C :    0.095833
  23 H :    0.014926
  24 H :    0.021376
  25 C :   -0.089521
  26 H :    0.036408
  27 H :    0.035608
  28 C :   -0.012779
  29 H :    0.015885
  30 H :    0.023183
  31 H :    0.024263
  32 H :    0.038370
  33 H :    0.051006
Sum of atomic charges:    0.0000000

LOEWDIN ATOMIC CHARGES
----------------------
   0 S :    0.460079
   1 C :   -0.198161
   2 C :   -0.058145
   3 C :   -0.082705
   4 C :   -0.229257
   5 H :    0.031785
   6 C :   -0.032734
   7 H :    0.029174
   8 H :    0.040778
   9 C :   -0.048680
  10 H :    0.023260
  11 H :    0.022735
  12 C :   -0.070356
  13 H :    0.041188
  14 H :    0.016005
  15 H :    0.030897
  16 S :    0.418528
  17 C :   -0.192125
  18 C :   -0.074609
  19 C :   -0.059073
  20 C :   -0.206222
  21 H :    0.039437
  22 C :   -0.023554
  23 H :    0.029602
  24 H :    0.027915
  25 C :   -0.035524
  26 H :    0.027112
  27 H :    0.027144
  28 C :   -0.068036
  29 H :    0.027782
  30 H :    0.017938
  31 H :    0.023746
  32 H :    0.016242
  33 H :    0.027832

  Mayer bond orders larger than 0.100000
B(  0-S ,  1-C ) :   1.1690 B(  0-S ,  4-C ) :   1.2022 B(  1-C ,  2-C ) :   1.5340
B(  1-C ,  4-C ) :   0.1161 B(  1-C , 32-H ) :   0.9786 B(  2-C ,  3-C ) :   1.3074
B(  2-C ,  6-C ) :   1.0143 B(  3-C ,  4-C ) :   1.5338 B(  3-C ,  5-H ) :   0.9839
B(  4-C , 20-C ) :   1.0172 B(  6-C ,  7-H ) :   0.9330 B(  6-C ,  8-H ) :   0.9444
B(  6-C ,  9-C ) :   1.0795 B(  9-C , 10-H ) :   0.9587 B(  9-C , 11-H ) :   0.9509
B(  9-C , 12-C ) :   1.0699 B( 12-C , 13-H ) :   0.9700 B( 12-C , 14-H ) :   0.9739
B( 12-C , 15-H ) :   0.9736 B( 16-S , 17-C ) :   1.1610 B( 16-S , 20-C ) :   1.1525
B( 17-C , 18-C ) :   1.6017 B( 17-C , 20-C ) :   0.1145 B( 17-C , 33-H ) :   0.9690
B( 18-C , 19-C ) :   1.2473 B( 18-C , 21-H ) :   0.9830 B( 19-C , 20-C ) :   1.5650
B( 19-C , 22-C ) :   1.0565 B( 22-C , 23-H ) :   0.9331 B( 22-C , 24-H ) :   0.9271
B( 22-C , 25-C ) :   1.0576 B( 25-C , 26-H ) :   0.9531 B( 25-C , 27-H ) :   0.9588
B( 25-C , 28-C ) :   1.0948 B( 28-C , 29-H ) :   0.9670 B( 28-C , 30-H ) :   0.9717
B( 28-C , 31-H ) :   0.9718

Dispersion correction           -0.014188413
FINAL SINGLE POINT ENERGY     -1339.868440099229

DIPOLE MOMENT
-------------
                                X             Y             Z
Electronic contribution:     -9.97303      -3.02729      23.98065
Nuclear contribution   :     10.08039       3.16716     -24.41933
                        -----------------------------------------
Total Dipole Moment    :      0.10736       0.13987      -0.43869
                        -----------------------------------------
Magnitude (a.u.)       :      0.47280
Magnitude (Debye)      :      1.20175

Rotational constants in cm-1:     0.016723     0.009129     0.007653
Rotational constants in MHz :   501.336031   273.681292   229.442498

                             ****ORCA TERMINATED NORMALLY****
TOTAL RUN TIME: 0 days 0 hours 0 minutes 33 seconds 867 msec
