                         Program Version 4.2.1 -  RELEASE  -
|  1> ! wB97X-D3 SP def2-SVP
|  2> %pal
|  3> nprocs 16
|  4> end
|  5>
|  6> * xyz 0 1
|  7> S 	 53.9516 	 -0.103585 	 83.3735
|  8> C 	 52.2006 	 0.163392 	 83.7973
|  9> C 	 51.4675 	 -0.982753 	 83.9017
| 10> C 	 52.3029 	 -2.09142 	 83.628
| 11> C 	 53.5657 	 -1.79997 	 83.2422
| 12> H 	 52.104 	 -3.15502 	 83.623
| 13> C 	 49.9908 	 -1.14245 	 84.3324
| 14> H 	 49.6998 	 -2.14022 	 84.038
| 15> H 	 49.5133 	 -0.483038 	 83.5948
| 16> C 	 49.615 	 -0.825355 	 85.7773
| 17> H 	 50.3245 	 -1.16219 	 86.447
| 18> H 	 49.5376 	 0.247964 	 85.9565
| 19> C 	 48.163 	 -1.417 	 86.0376
| 20> H 	 47.4224 	 -0.816231 	 85.5853
| 21> H 	 47.9623 	 -2.372 	 85.6009
| 22> H 	 48.0061 	 -1.5009 	 87.0689
| 23> S 	 56.1972 	 -2.72539 	 83.478
| 24> C 	 56.7908 	 -3.80599 	 82.2415
| 25> C 	 55.7979 	 -4.23527 	 81.4005
| 26> C 	 54.5874 	 -3.54946 	 81.6152
| 27> C 	 54.5844 	 -2.75436 	 82.768
| 28> H 	 56.0728 	 -4.80311 	 80.5116
| 29> C 	 53.4808 	 -3.65608 	 80.5747
| 30> H 	 52.6083 	 -3.20684 	 81.0393
| 31> H 	 53.3113 	 -4.73323 	 80.5299
| 32> C 	 53.9587 	 -3.12814 	 79.1523
| 33> H 	 54.8933 	 -3.50612 	 78.7885
| 34> H 	 54.064 	 -2.04573 	 79.2098
| 35> C 	 52.9468 	 -3.32774 	 78.067
| 36> H 	 53.1012 	 -4.29733 	 77.667
| 37> H 	 53.1629 	 -2.70669 	 77.1848
| 38> H 	 51.8795 	 -3.31617 	 78.3119
| 39> H 	 51.6922 	 1.10482 	 83.8316
| 40> H 	 57.8085 	 -4.12448 	 82.1446
| 41> *
| 42>
| 43>                          ****END OF INPUT****

CARTESIAN COORDINATES (ANGSTROEM)
---------------------------------
  S     53.951600   -0.103585   83.373500
  C     52.200600    0.163392   83.797300
  C     51.467500   -0.982753   83.901700
  C     52.302900   -2.091420   83.628000
  C     53.565700   -1.799970   83.242200
  H     52.104000   -3.155020   83.623000
  C     49.990800   -1.142450   84.332400
  H     49.699800   -2.140220   84.038000
  H     49.513300   -0.483038   83.594800
  C     49.615000   -0.825355   85.777300
  H     50.324500   -1.162190   86.447000
  H     49.537600    0.247964   85.956500
  C     48.163000   -1.417000   86.037600
  H     47.422400   -0.816231   85.585300
  H     47.962300   -2.372000   85.600900
  H     48.006100   -1.500900   87.068900
  S     56.197200   -2.725390   83.478000
  C     56.790800   -3.805990   82.241500
  C     55.797900   -4.235270   81.400500
  C     54.587400   -3.549460   81.615200
  C     54.584400   -2.754360   82.768000
  H     56.072800   -4.803110   80.511600
  C     53.480800   -3.656080   80.574700
  H     52.608300   -3.206840   81.039300
  H     53.311300   -4.733230   80.529900
  C     53.958700   -3.128140   79.152300
  H     54.893300   -3.506120   78.788500
  H     54.064000   -2.045730   79.209800
  C     52.946800   -3.327740   78.067000
  H     53.101200   -4.297330   77.667000
  H     53.162900   -2.706690   77.184800
  H     51.879500   -3.316170   78.311900
  H     51.692200    1.104820   83.831600
  H     57.808500   -4.124480   82.144600

 Total Charge           Charge          ....    0
 Multiplicity           Mult            ....    1
 Number of Electrons    NEL             ....  134
 Basis Dimension        Dim             ....  322

ORBITAL ENERGIES
----------------

  NO   OCC          E(Eh)            E(eV)
   0   2.0000     -88.966072     -2420.8899
   1   2.0000     -88.964188     -2420.8386
   2   2.0000     -10.323870      -280.9268
   3   2.0000     -10.323222      -280.9091
   4   2.0000     -10.314541      -280.6729
   5   2.0000     -10.312429      -280.6155
   6   2.0000     -10.300250      -280.2841
   7   2.0000     -10.299453      -280.2624
   8   2.0000     -10.295780      -280.1624
   9   2.0000     -10.293332      -280.0958
  10   2.0000     -10.288389      -279.9613
  11   2.0000     -10.287619      -279.9403
  12   2.0000     -10.286515      -279.9103
  13   2.0000     -10.285695      -279.8880
  14   2.0000     -10.272005      -279.5155
  15   2.0000     -10.270631      -279.4781
  16   2.0000      -8.079880      -219.8647
  17   2.0000      -8.078845      -219.8365
  18   2.0000      -6.038430      -164.3140
  19   2.0000      -6.037357      -164.2848
  20   2.0000      -6.034803      -164.2153
  21   2.0000      -6.033356      -164.1760
  22   2.0000      -6.030351      -164.0942
  23   2.0000      -6.029629      -164.0745
  24   2.0000      -1.004435       -27.3321
  25   2.0000      -0.982616       -26.7383
  26   2.0000      -0.909956       -24.7612
  27   2.0000      -0.905285       -24.6341
  28   2.0000      -0.867582       -23.6081
  29   2.0000      -0.855276       -23.2733
  30   2.0000      -0.844279       -22.9740
  31   2.0000      -0.814869       -22.1737
  32   2.0000      -0.784780       -21.3549
  33   2.0000      -0.770020       -20.9533
  34   2.0000      -0.717755       -19.5311
  35   2.0000      -0.704081       -19.1590
  36   2.0000      -0.696806       -18.9611
  37   2.0000      -0.656561       -17.8659
  38   2.0000      -0.642144       -17.4736
  39   2.0000      -0.612575       -16.6690
  40   2.0000      -0.591238       -16.0884
  41   2.0000      -0.568080       -15.4582
  42   2.0000      -0.561624       -15.2826
  43   2.0000      -0.558428       -15.1956
  44   2.0000      -0.532963       -14.5026
  45   2.0000      -0.528096       -14.3702
  46   2.0000      -0.519839       -14.1455
  47   2.0000      -0.513308       -13.9678
  48   2.0000      -0.498858       -13.5746
  49   2.0000      -0.493557       -13.4304
  50   2.0000      -0.488810       -13.3012
  51   2.0000      -0.477083       -12.9821
  52   2.0000      -0.467631       -12.7249
  53   2.0000      -0.464731       -12.6460
  54   2.0000      -0.461132       -12.5480
  55   2.0000      -0.449959       -12.2440
  56   2.0000      -0.447361       -12.1733
  57   2.0000      -0.443795       -12.0763
  58   2.0000      -0.440329       -11.9820
  59   2.0000      -0.426749       -11.6124
  60   2.0000      -0.419264       -11.4088
  61   2.0000      -0.416876       -11.3438
  62   2.0000      -0.411524       -11.1981
  63   2.0000      -0.340679        -9.2703
  64   2.0000      -0.335505        -9.1296
  65   2.0000      -0.328894        -8.9497
  66   2.0000      -0.291918        -7.9435
  67   0.0000       0.035066         0.9542
  68   0.0000       0.068152         1.8545
  69   0.0000       0.103379         2.8131
  70   0.0000       0.127220         3.4618
  71   0.0000       0.132846         3.6149

MULLIKEN ATOMIC CHARGES
-----------------------
   0 S :    0.108965
   1 C :   -0.121511
   2 C :   -0.086405
   3 C :    0.024348
   4 C :   -0.158820
   5 H :    0.005860
   6 C :    0.080735
   7 H :    0.010786
   8 H :    0.032979
   9 C :   -0.025514
  10 H :    0.024582
  11 H :    0.030996
  12 C :   -0.023730
  13 H :    0.020233
  14 H :    0.017157
  15 H :    0.025899
  16 S :    0.099083
  17 C :   -0.093171
  18 C :   -0.026135
  19 C :   -0.067430
  20 C :   -0.169932
  21 H :    0.026576
  22 C :    0.104342
  23 H :    0.020579
  24 H :    0.027791
  25 C :   -0.065817
  26 H :    0.023305
  27 H :    0.035412
  28 C :   -0.035590
  29 H :    0.006659
  30 H :    0.030552
  31 H :    0.035728
  32 H :    0.030805
  33 H :    0.050681
Sum of atomic charges:    0.0000000

LOEWDIN ATOMIC CHARGES
----------------------
   0 S :    0.375816
   1 C :   -0.173714
   2 C :   -0.061970
   3 C :   -0.070952
   4 C :   -0.189484
   5 H :    0.031731
   6 C :   -0.026325
   7 H :    0.026078
   8 H :    0.036971
   9 C :   -0.023991
  10 H :    0.016089
  11 H :    0.028666
  12 C :   -0.053184
  13 H :    0.021682
  14 H :    0.020896
  15 H :    0.019950
  16 S :    0.396638
  17 C :   -0.174545
  18 C :   -0.078243
  19 C :   -0.052521
  20 C :   -0.208466
  21 H :    0.034495
  22 C :   -0.024401
  23 H :    0.029466
  24 H :    0.031652
  25 C :   -0.034176
  26 H :    0.022644
  27 H :    0.028190
  28 C :   -0.070978
  29 H :    0.017191
  30 H :    0.030006
  31 H :    0.027354
  32 H :    0.021797
  33 H :    0.025640

  Mayer bond orders larger than 0.100000
B(  0-S ,  1-C ) :   1.1116 B(  0-S ,  4-C ) :   1.1289 B(  1-C ,  2-C ) :   1.6652
B(  1-C , 32-H ) :   0.9673 B(  2-C ,  3-C ) :   1.1953 B(  2-C ,  6-C ) :   0.9961
B(  3-C ,  4-C ) :   1.6358 B(  3-C ,  5-H ) :   0.9920 B(  4-C , 20-C ) :   1.0215
B(  6-C ,  7-H ) :   0.9481 B(  6-C ,  8-H ) :   0.9323 B(  6-C ,  9-C ) :   1.0613
B(  9-C , 10-H ) :   0.9647 B(  9-C , 11-H ) :   0.9526 B(  9-C , 12-C ) :   1.0719
B( 12-C , 13-H ) :   0.9768 B( 12-C , 14-H ) :   0.9789 B( 12-C , 15-H ) :   0.9771
B( 16-S , 17-C ) :   1.1626 B( 16-S , 20-C ) :   1.1276 B( 17-C , 18-C ) :   1.6168
B( 17-C , 33-H ) :   0.9660 B( 18-C , 19-C ) :   1.2487 B( 18-C , 21-H ) :   0.9831
B( 19-C , 20-C ) :   1.5991 B( 19-C , 22-C ) :   1.0348 B( 22-C , 23-H ) :   0.9293
B( 22-C , 24-H ) :   0.9348 B( 22-C , 25-C ) :   1.0510 B( 25-C , 26-H ) :   0.9575
B( 25-C , 27-H ) :   0.9596 B( 25-C , 28-C ) :   1.0892 B( 28-C , 29-H ) :   0.9718
B( 28-C , 30-H ) :   0.9723 B( 28-C , 31-H ) :   0.9738

Dispersion correction           -0.013539961
FINAL SINGLE POINT ENERGY     -1339.864382351816

DIPOLE MOMENT
-------------
                                X             Y             Z
Electronic contribution:     24.62406       4.76714       8.27526
Nuclear contribution   :    -25.13891      -4.98955      -8.64804
                        -----------------------------------------
Total Dipole Moment    :     -0.51485      -0.22241      -0.37279
                        -----------------------------------------
Magnitude (a.u.)       :      0.67343
Magnitude (Debye)      :      1.71172

Rotational constants in cm-1:     0.019033     0.007414     0.006222
Rotational constants in MHz :   570.595995   222.259486   186.538430

                             ****ORCA TERMINATED NORMALLY****
TOTAL RUN TIME: 0 days 0 hours 0 minutes 28 seconds 946 msec
