                         Program Version 4.2.1 -  RELEASE  -
|  1> ! wB97X-D3 SP def2-SVP
|  2> %pal
|  3> nprocs 16
|  4> end
|  5>
|  6> * xyz 0 1
|  7> S 	 -20.2086 	 52.0436 	 66.6899
|  8> C 	 -20.3651 	 50.3894 	 67.2167
|  9> C 	 -21.5483 	 49.9043 	 66.6842
| 10> C 	 -22.2618 	 50.8179 	 65.8595
| 11> C 	 -21.7048 	 52.0508 	 65.8089
| 12> H 	 -23.0601 	 50.5156 	 65.3057
| 13> C 	 -21.9462 	 48.4486 	 66.7042
| 14> H 	 -23.0546 	 48.4518 	 66.675
| 15> H 	 -21.6602 	 48.0447 	 67.6703
| 16> C 	 -21.2878 	 47.6659 	 65.5715
| 17> H 	 -20.2106 	 47.7027 	 65.7925
| 18> H 	 -21.6595 	 46.6629 	 65.6827
| 19> C 	 -21.6777 	 48.1885 	 64.1426
| 20> H 	 -21.1495 	 47.5525 	 63.4538
| 21> H 	 -22.7147 	 48.1099 	 63.9357
| 22> H 	 -21.2222 	 49.1979 	 63.9643
| 23> S 	 -21.4068 	 53.5021 	 63.5983
| 24> C 	 -22.3089 	 54.985 	 63.4026
| 25> C 	 -23.0477 	 55.2728 	 64.5078
| 26> C 	 -22.964 	 54.2737 	 65.492
| 27> C 	 -22.0517 	 53.2534 	 65.1691
| 28> H 	 -23.8412 	 56.0532 	 64.5243
| 29> C 	 -23.7392 	 54.3224 	 66.7542
| 30> H 	 -23.7565 	 53.3458 	 67.1259
| 31> H 	 -24.7816 	 54.5379 	 66.5769
| 32> C 	 -23.1048 	 55.2917 	 67.8273
| 33> H 	 -22.9972 	 56.364 	 67.4228
| 34> H 	 -22.1203 	 55.0154 	 68.017
| 35> C 	 -23.6422 	 55.3074 	 69.1873
| 36> H 	 -23.5799 	 54.3021 	 69.6422
| 37> H 	 -24.7181 	 55.5324 	 69.2465
| 38> H 	 -23.1012 	 55.9604 	 69.8664
| 39> H 	 -19.5535 	 49.7908 	 67.6723
| 40> H 	 -22.3089 	 55.565 	 62.4646
| 41> *
| 42>
| 43>                          ****END OF INPUT****

CARTESIAN COORDINATES (ANGSTROEM)
---------------------------------
  S    -20.208600   52.043600   66.689900
  C    -20.365100   50.389400   67.216700
  C    -21.548300   49.904300   66.684200
  C    -22.261800   50.817900   65.859500
  C    -21.704800   52.050800   65.808900
  H    -23.060100   50.515600   65.305700
  C    -21.946200   48.448600   66.704200
  H    -23.054600   48.451800   66.675000
  H    -21.660200   48.044700   67.670300
  C    -21.287800   47.665900   65.571500
  H    -20.210600   47.702700   65.792500
  H    -21.659500   46.662900   65.682700
  C    -21.677700   48.188500   64.142600
  H    -21.149500   47.552500   63.453800
  H    -22.714700   48.109900   63.935700
  H    -21.222200   49.197900   63.964300
  S    -21.406800   53.502100   63.598300
  C    -22.308900   54.985000   63.402600
  C    -23.047700   55.272800   64.507800
  C    -22.964000   54.273700   65.492000
  C    -22.051700   53.253400   65.169100
  H    -23.841200   56.053200   64.524300
  C    -23.739200   54.322400   66.754200
  H    -23.756500   53.345800   67.125900
  H    -24.781600   54.537900   66.576900
  C    -23.104800   55.291700   67.827300
  H    -22.997200   56.364000   67.422800
  H    -22.120300   55.015400   68.017000
  C    -23.642200   55.307400   69.187300
  H    -23.579900   54.302100   69.642200
  H    -24.718100   55.532400   69.246500
  H    -23.101200   55.960400   69.866400
  H    -19.553500   49.790800   67.672300
  H    -22.308900   55.565000   62.464600

 Total Charge           Charge          ....    0
 Multiplicity           Mult            ....    1
 Number of Electrons    NEL             ....  134
 Basis Dimension        Dim             ....  322

ORBITAL ENERGIES
----------------

  NO   OCC          E(Eh)            E(eV)
   0   2.0000     -88.964686     -2420.8522
   1   2.0000     -88.958784     -2420.6916
   2   2.0000     -10.321218      -280.8546
   3   2.0000     -10.317696      -280.7588
   4   2.0000     -10.317180      -280.7447
   5   2.0000     -10.314199      -280.6636
   6   2.0000     -10.298890      -280.2471
   7   2.0000     -10.294279      -280.1216
   8   2.0000     -10.291502      -280.0460
   9   2.0000     -10.288467      -279.9634
  10   2.0000     -10.287148      -279.9275
  11   2.0000     -10.284296      -279.8499
  12   2.0000     -10.282851      -279.8106
  13   2.0000     -10.279591      -279.7219
  14   2.0000     -10.278102      -279.6814
  15   2.0000     -10.271139      -279.4919
  16   2.0000      -8.080231      -219.8743
  17   2.0000      -8.074231      -219.7110
  18   2.0000      -6.038588      -164.3183
  19   2.0000      -6.034542      -164.2082
  20   2.0000      -6.032713      -164.1585
  21   2.0000      -6.031183      -164.1168
  22   2.0000      -6.028447      -164.0424
  23   2.0000      -6.025140      -163.9524
  24   2.0000      -1.015462       -27.6321
  25   2.0000      -0.989542       -26.9268
  26   2.0000      -0.913706       -24.8632
  27   2.0000      -0.909584       -24.7510
  28   2.0000      -0.874525       -23.7970
  29   2.0000      -0.857657       -23.3380
  30   2.0000      -0.843109       -22.9422
  31   2.0000      -0.819567       -22.3015
  32   2.0000      -0.785931       -21.3863
  33   2.0000      -0.767639       -20.8885
  34   2.0000      -0.704588       -19.1728
  35   2.0000      -0.700705       -19.0671
  36   2.0000      -0.694076       -18.8868
  37   2.0000      -0.661560       -18.0020
  38   2.0000      -0.646232       -17.5849
  39   2.0000      -0.620871       -16.8947
  40   2.0000      -0.599234       -16.3060
  41   2.0000      -0.574805       -15.6412
  42   2.0000      -0.558416       -15.1953
  43   2.0000      -0.547289       -14.8925
  44   2.0000      -0.541168       -14.7259
  45   2.0000      -0.527933       -14.3658
  46   2.0000      -0.519763       -14.1435
  47   2.0000      -0.515478       -14.0269
  48   2.0000      -0.511483       -13.9182
  49   2.0000      -0.505553       -13.7568
  50   2.0000      -0.488894       -13.3035
  51   2.0000      -0.478824       -13.0295
  52   2.0000      -0.475349       -12.9349
  53   2.0000      -0.463078       -12.6010
  54   2.0000      -0.457149       -12.4397
  55   2.0000      -0.449816       -12.2401
  56   2.0000      -0.442739       -12.0475
  57   2.0000      -0.433603       -11.7989
  58   2.0000      -0.429656       -11.6915
  59   2.0000      -0.426827       -11.6145
  60   2.0000      -0.424264       -11.5448
  61   2.0000      -0.407809       -11.0971
  62   2.0000      -0.405704       -11.0398
  63   2.0000      -0.339743        -9.2449
  64   2.0000      -0.328648        -8.9430
  65   2.0000      -0.317667        -8.6442
  66   2.0000      -0.309111        -8.4113
  67   0.0000       0.047490         1.2923
  68   0.0000       0.053339         1.4514
  69   0.0000       0.118276         3.2185
  70   0.0000       0.128970         3.5095
  71   0.0000       0.129832         3.5329

MULLIKEN ATOMIC CHARGES
-----------------------
   0 S :    0.102108
   1 C :   -0.131782
   2 C :   -0.131277
   3 C :    0.100783
   4 C :   -0.175234
   5 H :   -0.032764
   6 C :    0.047110
   7 H :    0.023971
   8 H :    0.019215
   9 C :   -0.050269
  10 H :    0.029300
  11 H :    0.029079
  12 C :   -0.056815
  13 H :    0.026928
  14 H :    0.033932
  15 H :    0.059536
  16 S :    0.123096
  17 C :   -0.104755
  18 C :   -0.027160
  19 C :   -0.034232
  20 C :   -0.177735
  21 H :    0.032904
  22 C :    0.131323
  23 H :   -0.000638
  24 H :    0.016773
  25 C :   -0.068262
  26 H :    0.030642
  27 H :    0.009229
  28 C :   -0.036896
  29 H :    0.023827
  30 H :    0.020107
  31 H :    0.035020
  32 H :    0.066039
  33 H :    0.066897
Sum of atomic charges:    0.0000000

LOEWDIN ATOMIC CHARGES
----------------------
   0 S :    0.414846
   1 C :   -0.209663
   2 C :   -0.066637
   3 C :   -0.048688
   4 C :   -0.202483
   5 H :    0.016045
   6 C :   -0.037616
   7 H :    0.028305
   8 H :    0.026884
   9 C :   -0.032431
  10 H :    0.026477
  11 H :    0.021349
  12 C :   -0.064042
  13 H :    0.025456
  14 H :    0.020452
  15 H :    0.036500
  16 S :    0.430784
  17 C :   -0.186252
  18 C :   -0.078359
  19 C :   -0.046805
  20 C :   -0.227677
  21 H :    0.040451
  22 C :   -0.024331
  23 H :    0.023588
  24 H :    0.028890
  25 C :   -0.042566
  26 H :    0.029298
  27 H :    0.018695
  28 C :   -0.068731
  29 H :    0.027088
  30 H :    0.019954
  31 H :    0.028878
  32 H :    0.037711
  33 H :    0.034630

  Mayer bond orders larger than 0.100000
B(  0-S ,  1-C ) :   1.1413 B(  0-S ,  4-C ) :   1.1700 B(  1-C ,  2-C ) :   1.5913
B(  1-C ,  4-C ) :   0.1029 B(  1-C , 32-H ) :   0.9691 B(  2-C ,  3-C ) :   1.2493
B(  2-C ,  6-C ) :   1.0269 B(  3-C ,  4-C ) :   1.5662 B(  3-C ,  5-H ) :   1.0215
B(  4-C , 20-C ) :   1.0024 B(  6-C ,  7-H ) :   0.9403 B(  6-C ,  8-H ) :   0.9387
B(  6-C ,  9-C ) :   1.0706 B(  9-C , 10-H ) :   0.9535 B(  9-C , 11-H ) :   0.9553
B(  9-C , 12-C ) :   1.0844 B( 12-C , 13-H ) :   0.9710 B( 12-C , 14-H ) :   0.9751
B( 12-C , 15-H ) :   0.9664 B( 16-S , 17-C ) :   1.1683 B( 16-S , 20-C ) :   1.1689
B( 17-C , 18-C ) :   1.5877 B( 17-C , 20-C ) :   0.1107 B( 17-C , 33-H ) :   0.9644
B( 18-C , 19-C ) :   1.2736 B( 18-C , 21-H ) :   0.9800 B( 19-C , 20-C ) :   1.5667
B( 19-C , 22-C ) :   1.0726 B( 22-C , 23-H ) :   0.9158 B( 22-C , 24-H ) :   0.9251
B( 22-C , 25-C ) :   1.0531 B( 25-C , 26-H ) :   0.9544 B( 25-C , 27-H ) :   0.9477
B( 25-C , 28-C ) :   1.1036 B( 28-C , 29-H ) :   0.9682 B( 28-C , 30-H ) :   0.9702
B( 28-C , 31-H ) :   0.9698

Dispersion correction           -0.015004139
FINAL SINGLE POINT ENERGY     -1339.878784437119

DIPOLE MOMENT
-------------
                                X             Y             Z
Electronic contribution:     10.16034       7.65704      -9.63828
Nuclear contribution   :    -10.52067      -7.99624       9.59999
                        -----------------------------------------
Total Dipole Moment    :     -0.36033      -0.33919      -0.03829
                        -----------------------------------------
Magnitude (a.u.)       :      0.49634
Magnitude (Debye)      :      1.26161

Rotational constants in cm-1:     0.019939     0.009012     0.007283
Rotational constants in MHz :   597.771103   270.187744   218.349488

                             ****ORCA TERMINATED NORMALLY****
TOTAL RUN TIME: 0 days 0 hours 0 minutes 34 seconds 318 msec
