                         Program Version 4.2.1 -  RELEASE  -
|  1> ! wB97X-D3 SP def2-SVP
|  2> %pal
|  3> nprocs 16
|  4> end
|  5>
|  6> * xyz 0 1
|  7> S 	 -58.5367 	 49.8641 	 135.196
|  8> C 	 -56.8682 	 50.1781 	 135.433
|  9> C 	 -56.5675 	 50.4859 	 136.759
| 10> C 	 -57.7511 	 50.4681 	 137.535
| 11> C 	 -58.9327 	 50.1443 	 136.862
| 12> H 	 -57.8317 	 50.7541 	 138.574
| 13> C 	 -55.1706 	 50.8248 	 137.307
| 14> H 	 -54.5527 	 50.2196 	 136.63
| 15> H 	 -55.0577 	 50.3992 	 138.33
| 16> C 	 -54.7531 	 52.3179 	 137.261
| 17> H 	 -55.335 	 52.827 	 138.11
| 18> H 	 -53.6327 	 52.4148 	 137.526
| 19> C 	 -54.939 	 53.0674 	 135.974
| 20> H 	 -55.9786 	 53.2804 	 136.13
| 21> H 	 -54.3705 	 53.9765 	 135.868
| 22> H 	 -54.8105 	 52.3886 	 135.149
| 23> S 	 -60.6879 	 48.2958 	 137.839
| 24> C 	 -61.9392 	 48.7658 	 138.964
| 25> C 	 -61.9807 	 50.1503 	 138.993
| 26> C 	 -60.9236 	 50.8109 	 138.316
| 27> C 	 -60.1984 	 49.9385 	 137.522
| 28> H 	 -62.7663 	 50.6729 	 139.47
| 29> C 	 -60.5731 	 52.3028 	 138.314
| 30> H 	 -60.7117 	 52.6682 	 137.283
| 31> H 	 -59.5147 	 52.2888 	 138.404
| 32> C 	 -61.2321 	 53.145 	 139.378
| 33> H 	 -61.0458 	 52.6652 	 140.34
| 34> H 	 -62.3687 	 53.0235 	 139.248
| 35> C 	 -60.8272 	 54.6148 	 139.39
| 36> H 	 -61.0524 	 55.0188 	 138.406
| 37> H 	 -59.8108 	 54.703 	 139.526
| 38> H 	 -61.3288 	 55.2166 	 140.095
| 39> H 	 -56.0905 	 50.0667 	 134.714
| 40> H 	 -62.7573 	 48.1158 	 139.328
| 41> *
| 42>
| 43>                          ****END OF INPUT****

CARTESIAN COORDINATES (ANGSTROEM)
---------------------------------
  S    -58.536700   49.864100  135.196000
  C    -56.868200   50.178100  135.433000
  C    -56.567500   50.485900  136.759000
  C    -57.751100   50.468100  137.535000
  C    -58.932700   50.144300  136.862000
  H    -57.831700   50.754100  138.574000
  C    -55.170600   50.824800  137.307000
  H    -54.552700   50.219600  136.630000
  H    -55.057700   50.399200  138.330000
  C    -54.753100   52.317900  137.261000
  H    -55.335000   52.827000  138.110000
  H    -53.632700   52.414800  137.526000
  C    -54.939000   53.067400  135.974000
  H    -55.978600   53.280400  136.130000
  H    -54.370500   53.976500  135.868000
  H    -54.810500   52.388600  135.149000
  S    -60.687900   48.295800  137.839000
  C    -61.939200   48.765800  138.964000
  C    -61.980700   50.150300  138.993000
  C    -60.923600   50.810900  138.316000
  C    -60.198400   49.938500  137.522000
  H    -62.766300   50.672900  139.470000
  C    -60.573100   52.302800  138.314000
  H    -60.711700   52.668200  137.283000
  H    -59.514700   52.288800  138.404000
  C    -61.232100   53.145000  139.378000
  H    -61.045800   52.665200  140.340000
  H    -62.368700   53.023500  139.248000
  C    -60.827200   54.614800  139.390000
  H    -61.052400   55.018800  138.406000
  H    -59.810800   54.703000  139.526000
  H    -61.328800   55.216600  140.095000
  H    -56.090500   50.066700  134.714000
  H    -62.757300   48.115800  139.328000

 Total Charge           Charge          ....    0
 Multiplicity           Mult            ....    1
 Number of Electrons    NEL             ....  134
 Basis Dimension        Dim             ....  322

ORBITAL ENERGIES
----------------

  NO   OCC          E(Eh)            E(eV)
   0   2.0000     -88.970859     -2421.0201
   1   2.0000     -88.962276     -2420.7866
   2   2.0000     -10.326632      -281.0019
   3   2.0000     -10.320957      -280.8475
   4   2.0000     -10.320000      -280.8215
   5   2.0000     -10.313650      -280.6487
   6   2.0000     -10.302056      -280.3332
   7   2.0000     -10.302032      -280.3325
   8   2.0000     -10.301598      -280.3207
   9   2.0000     -10.297933      -280.2210
  10   2.0000     -10.292387      -280.0701
  11   2.0000     -10.291463      -280.0450
  12   2.0000     -10.291266      -280.0396
  13   2.0000     -10.288517      -279.9648
  14   2.0000     -10.270849      -279.4840
  15   2.0000     -10.270288      -279.4687
  16   2.0000      -8.085989      -220.0310
  17   2.0000      -8.077266      -219.7936
  18   2.0000      -6.044388      -164.4762
  19   2.0000      -6.040225      -164.3629
  20   2.0000      -6.037061      -164.2768
  21   2.0000      -6.035735      -164.2407
  22   2.0000      -6.031594      -164.1280
  23   2.0000      -6.028164      -164.0347
  24   2.0000      -1.011252       -27.5176
  25   2.0000      -0.988430       -26.8966
  26   2.0000      -0.912272       -24.8242
  27   2.0000      -0.912041       -24.8179
  28   2.0000      -0.874062       -23.7844
  29   2.0000      -0.854505       -23.2523
  30   2.0000      -0.849468       -23.1152
  31   2.0000      -0.814186       -22.1551
  32   2.0000      -0.787536       -21.4299
  33   2.0000      -0.777335       -21.1524
  34   2.0000      -0.709067       -19.2947
  35   2.0000      -0.704479       -19.1699
  36   2.0000      -0.687173       -18.6989
  37   2.0000      -0.651216       -17.7205
  38   2.0000      -0.642685       -17.4884
  39   2.0000      -0.616956       -16.7882
  40   2.0000      -0.596120       -16.2213
  41   2.0000      -0.570786       -15.5319
  42   2.0000      -0.568337       -15.4652
  43   2.0000      -0.552450       -15.0329
  44   2.0000      -0.550385       -14.9767
  45   2.0000      -0.533725       -14.5234
  46   2.0000      -0.520729       -14.1698
  47   2.0000      -0.519179       -14.1276
  48   2.0000      -0.510834       -13.9005
  49   2.0000      -0.497513       -13.5380
  50   2.0000      -0.485960       -13.2236
  51   2.0000      -0.483023       -13.1437
  52   2.0000      -0.477912       -13.0046
  53   2.0000      -0.471231       -12.8228
  54   2.0000      -0.457847       -12.4587
  55   2.0000      -0.453638       -12.3441
  56   2.0000      -0.445664       -12.1271
  57   2.0000      -0.438164       -11.9230
  58   2.0000      -0.432957       -11.7814
  59   2.0000      -0.422594       -11.4994
  60   2.0000      -0.419728       -11.4214
  61   2.0000      -0.417133       -11.3508
  62   2.0000      -0.400458       -10.8970
  63   2.0000      -0.341181        -9.2840
  64   2.0000      -0.331442        -9.0190
  65   2.0000      -0.324242        -8.8231
  66   2.0000      -0.301178        -8.1955
  67   0.0000       0.033656         0.9158
  68   0.0000       0.060641         1.6501
  69   0.0000       0.119753         3.2587
  70   0.0000       0.129127         3.5137
  71   0.0000       0.131046         3.5659

MULLIKEN ATOMIC CHARGES
-----------------------
   0 S :    0.137202
   1 C :   -0.109688
   2 C :   -0.119137
   3 C :    0.039614
   4 C :   -0.201046
   5 H :    0.014598
   6 C :    0.078179
   7 H :    0.021972
   8 H :    0.043413
   9 C :   -0.132950
  10 H :    0.035419
  11 H :    0.039337
  12 C :   -0.008757
  13 H :    0.035772
  14 H :    0.042071
  15 H :    0.021338
  16 S :    0.107934
  17 C :   -0.098104
  18 C :   -0.037583
  19 C :   -0.075391
  20 C :   -0.138721
  21 H :    0.003116
  22 C :    0.114242
  23 H :    0.037862
  24 H :   -0.003622
  25 C :   -0.123334
  26 H :    0.026849
  27 H :    0.037115
  28 C :    0.042496
  29 H :    0.019467
  30 H :    0.011073
  31 H :    0.025748
  32 H :    0.038195
  33 H :    0.075323
Sum of atomic charges:    0.0000000

LOEWDIN ATOMIC CHARGES
----------------------
   0 S :    0.440472
   1 C :   -0.205315
   2 C :   -0.070732
   3 C :   -0.057756
   4 C :   -0.217267
   5 H :    0.027898
   6 C :   -0.032214
   7 H :    0.029853
   8 H :    0.039284
   9 C :   -0.049644
  10 H :    0.026093
  11 H :    0.027002
  12 C :   -0.065109
  13 H :    0.031358
  14 H :    0.028220
  15 H :    0.020973
  16 S :    0.417179
  17 C :   -0.194579
  18 C :   -0.073202
  19 C :   -0.049758
  20 C :   -0.209864
  21 H :    0.022651
  22 C :   -0.032695
  23 H :    0.038035
  24 H :    0.024701
  25 C :   -0.046524
  26 H :    0.022559
  27 H :    0.028525
  28 C :   -0.049730
  29 H :    0.028010
  30 H :    0.015726
  31 H :    0.023295
  32 H :    0.022176
  33 H :    0.040377

  Mayer bond orders larger than 0.100000
B(  0-S ,  1-C ) :   1.1745 B(  0-S ,  4-C ) :   1.1591 B(  1-C ,  2-C ) :   1.5689
B(  1-C ,  4-C ) :   0.1003 B(  1-C , 32-H ) :   0.9652 B(  2-C ,  3-C ) :   1.2914
B(  2-C ,  6-C ) :   1.0087 B(  3-C ,  4-C ) :   1.5402 B(  3-C ,  5-H ) :   0.9866
B(  4-C , 20-C ) :   1.0224 B(  6-C ,  7-H ) :   0.9357 B(  6-C ,  8-H ) :   0.9466
B(  6-C ,  9-C ) :   1.0664 B(  9-C , 10-H ) :   0.9641 B(  9-C , 11-H ) :   0.9560
B(  9-C , 12-C ) :   1.0567 B( 12-C , 13-H ) :   0.9734 B( 12-C , 14-H ) :   0.9733
B( 12-C , 15-H ) :   0.9752 B( 16-S , 17-C ) :   1.1707 B( 16-S , 20-C ) :   1.1604
B( 17-C , 18-C ) :   1.5730 B( 17-C , 20-C ) :   0.1088 B( 17-C , 33-H ) :   0.9599
B( 18-C , 19-C ) :   1.2755 B( 18-C , 21-H ) :   0.9924 B( 19-C , 20-C ) :   1.5773
B( 19-C , 22-C ) :   1.0227 B( 22-C , 23-H ) :   0.9265 B( 22-C , 24-H ) :   0.9156
B( 22-C , 25-C ) :   1.0759 B( 25-C , 26-H ) :   0.9545 B( 25-C , 27-H ) :   0.9484
B( 25-C , 28-C ) :   1.0848 B( 28-C , 29-H ) :   0.9706 B( 28-C , 30-H ) :   0.9721
B( 28-C , 31-H ) :   0.9715

Dispersion correction           -0.014398085
FINAL SINGLE POINT ENERGY     -1339.874188692398

DIPOLE MOMENT
-------------
                                X             Y             Z
Electronic contribution:    -11.06277     -25.02805      -8.62659
Nuclear contribution   :     11.27646      25.54876       8.94010
                        -----------------------------------------
Total Dipole Moment    :      0.21369       0.52072       0.31351
                        -----------------------------------------
Magnitude (a.u.)       :      0.64428
Magnitude (Debye)      :      1.63764

Rotational constants in cm-1:     0.017139     0.009161     0.006740
Rotational constants in MHz :   513.823780   274.640834   202.068621

                             ****ORCA TERMINATED NORMALLY****
TOTAL RUN TIME: 0 days 0 hours 0 minutes 34 seconds 706 msec
