                         Program Version 4.2.1 -  RELEASE  -
|  1> ! wB97X-D3 SP def2-SVP
|  2> %pal
|  3> nprocs 16
|  4> end
|  5>
|  6> * xyz 0 1
|  7> S 	 -45.7152 	 28.8436 	 90.2785
|  8> C 	 -45.3229 	 28.5759 	 92.0016
|  9> C 	 -46.0339 	 29.4953 	 92.7931
| 10> C 	 -46.9389 	 30.2592 	 92.0384
| 11> C 	 -46.8895 	 30.0974 	 90.6417
| 12> H 	 -47.681 	 30.8971 	 92.5259
| 13> C 	 -46.0776 	 29.5543 	 94.2863
| 14> H 	 -47.0713 	 30.02 	 94.6426
| 15> H 	 -45.2383 	 30.1772 	 94.5569
| 16> C 	 -46.0281 	 28.2557 	 95.0237
| 17> H 	 -46.9576 	 27.6858 	 94.8338
| 18> H 	 -45.1445 	 27.7785 	 94.6661
| 19> C 	 -45.91 	 28.4797 	 96.4932
| 20> H 	 -45.2628 	 29.3529 	 96.5458
| 21> H 	 -46.8166 	 28.8647 	 97.0146
| 22> H 	 -45.6316 	 27.6101 	 96.9745
| 23> S 	 -48.8616 	 29.9599 	 88.7684
| 24> C 	 -49.1456 	 31.3096 	 87.7436
| 25> C 	 -48.2709 	 32.3756 	 88.0083
| 26> C 	 -47.3196 	 32.0838 	 89.0352
| 27> C 	 -47.5714 	 30.8137 	 89.5439
| 28> H 	 -48.3085 	 33.3329 	 87.4796
| 29> C 	 -46.1136 	 32.9952 	 89.4213
| 30> H 	 -45.35 	 32.7727 	 88.6663
| 31> H 	 -45.6528 	 32.6613 	 90.3
| 32> C 	 -46.4452 	 34.5712 	 89.5517
| 33> H 	 -47.221 	 34.6525 	 90.2206
| 34> H 	 -46.7076 	 34.9873 	 88.6582
| 35> C 	 -45.2205 	 35.3614 	 90.1184
| 36> H 	 -45.1467 	 35.0909 	 91.1819
| 37> H 	 -45.4744 	 36.4162 	 90.1026
| 38> H 	 -44.2917 	 35.2793 	 89.5519
| 39> H 	 -44.7187 	 27.7883 	 92.4574
| 40> H 	 -49.9287 	 31.412 	 86.9778
| 41> *
| 42>
| 43>                          ****END OF INPUT****

CARTESIAN COORDINATES (ANGSTROEM)
---------------------------------
  S    -45.715200   28.843600   90.278500
  C    -45.322900   28.575900   92.001600
  C    -46.033900   29.495300   92.793100
  C    -46.938900   30.259200   92.038400
  C    -46.889500   30.097400   90.641700
  H    -47.681000   30.897100   92.525900
  C    -46.077600   29.554300   94.286300
  H    -47.071300   30.020000   94.642600
  H    -45.238300   30.177200   94.556900
  C    -46.028100   28.255700   95.023700
  H    -46.957600   27.685800   94.833800
  H    -45.144500   27.778500   94.666100
  C    -45.910000   28.479700   96.493200
  H    -45.262800   29.352900   96.545800
  H    -46.816600   28.864700   97.014600
  H    -45.631600   27.610100   96.974500
  S    -48.861600   29.959900   88.768400
  C    -49.145600   31.309600   87.743600
  C    -48.270900   32.375600   88.008300
  C    -47.319600   32.083800   89.035200
  C    -47.571400   30.813700   89.543900
  H    -48.308500   33.332900   87.479600
  C    -46.113600   32.995200   89.421300
  H    -45.350000   32.772700   88.666300
  H    -45.652800   32.661300   90.300000
  C    -46.445200   34.571200   89.551700
  H    -47.221000   34.652500   90.220600
  H    -46.707600   34.987300   88.658200
  C    -45.220500   35.361400   90.118400
  H    -45.146700   35.090900   91.181900
  H    -45.474400   36.416200   90.102600
  H    -44.291700   35.279300   89.551900
  H    -44.718700   27.788300   92.457400
  H    -49.928700   31.412000   86.977800

 Total Charge           Charge          ....    0
 Multiplicity           Mult            ....    1
 Number of Electrons    NEL             ....  134
 Basis Dimension        Dim             ....  322

ORBITAL ENERGIES
----------------

  NO   OCC          E(Eh)            E(eV)
   0   2.0000     -88.969029     -2420.9703
   1   2.0000     -88.965421     -2420.8722
   2   2.0000     -10.329731      -281.0863
   3   2.0000     -10.322980      -280.9026
   4   2.0000     -10.318139      -280.7708
   5   2.0000     -10.317855      -280.7631
   6   2.0000     -10.306197      -280.4459
   7   2.0000     -10.296801      -280.1902
   8   2.0000     -10.295141      -280.1450
   9   2.0000     -10.293990      -280.1137
  10   2.0000     -10.292162      -280.0640
  11   2.0000     -10.291699      -280.0514
  12   2.0000     -10.281897      -279.7846
  13   2.0000     -10.280444      -279.7451
  14   2.0000     -10.280023      -279.7336
  15   2.0000     -10.271613      -279.5048
  16   2.0000      -8.084345      -219.9862
  17   2.0000      -8.079110      -219.8438
  18   2.0000      -6.042658      -164.4291
  19   2.0000      -6.038736      -164.3224
  20   2.0000      -6.037619      -164.2920
  21   2.0000      -6.035310      -164.2291
  22   2.0000      -6.033604      -164.1827
  23   2.0000      -6.030075      -164.0867
  24   2.0000      -1.003638       -27.3104
  25   2.0000      -0.980609       -26.6837
  26   2.0000      -0.924351       -25.1529
  27   2.0000      -0.899272       -24.4704
  28   2.0000      -0.866969       -23.5914
  29   2.0000      -0.852335       -23.1932
  30   2.0000      -0.844868       -22.9900
  31   2.0000      -0.807867       -21.9832
  32   2.0000      -0.781766       -21.2729
  33   2.0000      -0.768364       -20.9082
  34   2.0000      -0.711507       -19.3611
  35   2.0000      -0.705274       -19.1915
  36   2.0000      -0.690311       -18.7843
  37   2.0000      -0.654586       -17.8122
  38   2.0000      -0.633343       -17.2341
  39   2.0000      -0.616367       -16.7722
  40   2.0000      -0.594771       -16.1845
  41   2.0000      -0.583458       -15.8767
  42   2.0000      -0.570429       -15.5222
  43   2.0000      -0.567127       -15.4323
  44   2.0000      -0.533227       -14.5098
  45   2.0000      -0.519001       -14.1227
  46   2.0000      -0.513747       -13.9798
  47   2.0000      -0.510600       -13.8941
  48   2.0000      -0.501677       -13.6513
  49   2.0000      -0.497153       -13.5282
  50   2.0000      -0.487295       -13.2600
  51   2.0000      -0.476965       -12.9789
  52   2.0000      -0.474754       -12.9187
  53   2.0000      -0.461179       -12.5493
  54   2.0000      -0.453745       -12.3470
  55   2.0000      -0.450822       -12.2675
  56   2.0000      -0.448634       -12.2079
  57   2.0000      -0.439862       -11.9692
  58   2.0000      -0.433590       -11.7986
  59   2.0000      -0.431565       -11.7435
  60   2.0000      -0.419876       -11.4254
  61   2.0000      -0.417105       -11.3500
  62   2.0000      -0.412909       -11.2358
  63   2.0000      -0.335398        -9.1266
  64   2.0000      -0.328228        -8.9315
  65   2.0000      -0.320596        -8.7239
  66   2.0000      -0.303561        -8.2603
  67   0.0000       0.040651         1.1062
  68   0.0000       0.057270         1.5584
  69   0.0000       0.117826         3.2062
  70   0.0000       0.126371         3.4387
  71   0.0000       0.129319         3.5189

MULLIKEN ATOMIC CHARGES
-----------------------
   0 S :    0.111677
   1 C :   -0.132107
   2 C :   -0.072602
   3 C :    0.033714
   4 C :   -0.174961
   5 H :    0.012078
   6 C :    0.008794
   7 H :    0.036868
   8 H :    0.039128
   9 C :   -0.077719
  10 H :    0.041578
  11 H :    0.018146
  12 C :   -0.002490
  13 H :    0.011181
  14 H :    0.026367
  15 H :    0.025349
  16 S :    0.142518
  17 C :   -0.091757
  18 C :   -0.062055
  19 C :   -0.001144
  20 C :   -0.211447
  21 H :    0.022876
  22 C :    0.092798
  23 H :    0.040909
  24 H :    0.008254
  25 C :   -0.037787
  26 H :    0.019257
  27 H :    0.014385
  28 C :   -0.066296
  29 H :    0.038296
  30 H :    0.028597
  31 H :    0.042729
  32 H :    0.053102
  33 H :    0.061764
Sum of atomic charges:    0.0000000

LOEWDIN ATOMIC CHARGES
----------------------
   0 S :    0.399019
   1 C :   -0.199172
   2 C :   -0.068657
   3 C :   -0.064964
   4 C :   -0.200993
   5 H :    0.031696
   6 C :   -0.037790
   7 H :    0.037871
   8 H :    0.031919
   9 C :   -0.041402
  10 H :    0.030894
  11 H :    0.017383
  12 C :   -0.058703
  13 H :    0.025271
  14 H :    0.028918
  15 H :    0.017020
  16 S :    0.440499
  17 C :   -0.202549
  18 C :   -0.075846
  19 C :   -0.046871
  20 C :   -0.223233
  21 H :    0.031857
  22 C :   -0.019275
  23 H :    0.037799
  24 H :    0.021116
  25 C :   -0.016472
  26 H :    0.016447
  27 H :    0.007787
  28 C :   -0.064175
  29 H :    0.028559
  30 H :    0.025528
  31 H :    0.026438
  32 H :    0.030280
  33 H :    0.033801

  Mayer bond orders larger than 0.100000
B(  0-S ,  1-C ) :   1.1435 B(  0-S ,  4-C ) :   1.1674 B(  1-C ,  2-C ) :   1.5739
B(  1-C ,  4-C ) :   0.1144 B(  1-C , 32-H ) :   0.9665 B(  2-C ,  3-C ) :   1.2889
B(  2-C ,  6-C ) :   1.0095 B(  3-C ,  4-C ) :   1.5517 B(  3-C ,  5-H ) :   0.9962
B(  4-C , 20-C ) :   0.9891 B(  6-C ,  7-H ) :   0.9560 B(  6-C ,  8-H ) :   0.9172
B(  6-C ,  9-C ) :   1.0904 B(  9-C , 10-H ) :   0.9545 B(  9-C , 11-H ) :   0.9437
B(  9-C , 12-C ) :   1.0948 B( 12-C , 13-H ) :   0.9696 B( 12-C , 14-H ) :   0.9705
B( 12-C , 15-H ) :   0.9703 B( 16-S , 17-C ) :   1.1673 B( 16-S , 20-C ) :   1.1712
B( 17-C , 18-C ) :   1.5910 B( 17-C , 33-H ) :   0.9648 B( 18-C , 19-C ) :   1.2586
B( 18-C , 21-H ) :   0.9856 B( 19-C , 20-C ) :   1.5869 B( 19-C , 22-C ) :   1.0316
B( 22-C , 23-H ) :   0.9362 B( 22-C , 24-H ) :   0.9342 B( 22-C , 25-C ) :   1.0479
B( 25-C , 26-H ) :   0.9624 B( 25-C , 27-H ) :   0.9579 B( 25-C , 28-C ) :   1.0912
B( 28-C , 29-H ) :   0.9772 B( 28-C , 30-H ) :   0.9748 B( 28-C , 31-H ) :   0.9772

Dispersion correction           -0.013294887
FINAL SINGLE POINT ENERGY     -1339.864594457879

DIPOLE MOMENT
-------------
                                X             Y             Z
Electronic contribution:     -9.08216     -13.97122     -20.75297
Nuclear contribution   :      9.11622      14.43777      21.11700
                        -----------------------------------------
Total Dipole Moment    :      0.03406       0.46655       0.36403
                        -----------------------------------------
Magnitude (a.u.)       :      0.59275
Magnitude (Debye)      :      1.50664

Rotational constants in cm-1:     0.018410     0.007424     0.006024
Rotational constants in MHz :   551.930392   222.576771   180.582764

                             ****ORCA TERMINATED NORMALLY****
TOTAL RUN TIME: 0 days 0 hours 0 minutes 28 seconds 336 msec
