                         Program Version 4.2.1 -  RELEASE  -
|  1> ! wB97X-D3 SP def2-SVP
|  2> %pal
|  3> nprocs 16
|  4> end
|  5>
|  6> * xyz 0 1
|  7> S 	 -44.8413 	 26.3442 	 82.0542
|  8> C 	 -45.5825 	 25.0508 	 81.1328
|  9> C 	 -44.7436 	 23.9752 	 80.9131
| 10> C 	 -43.4412 	 24.1494 	 81.4935
| 11> C 	 -43.256 	 25.4628 	 82.0006
| 12> H 	 -42.5855 	 23.4425 	 81.366
| 13> C 	 -45.0847 	 22.7921 	 79.956
| 14> H 	 -44.0968 	 22.3009 	 79.5806
| 15> H 	 -45.7036 	 23.3514 	 79.1636
| 16> C 	 -45.9153 	 21.7523 	 80.5968
| 17> H 	 -46.2552 	 20.9713 	 79.9325
| 18> H 	 -45.1946 	 21.1919 	 81.2468
| 19> C 	 -47.1384 	 22.2527 	 81.4191
| 20> H 	 -46.6882 	 22.7562 	 82.3659
| 21> H 	 -47.7169 	 23.0502 	 80.9483
| 22> H 	 -47.7396 	 21.4516 	 81.7168
| 23> S 	 -40.9603 	 24.7465 	 83.4055
| 24> C 	 -39.9073 	 26.0543 	 83.9104
| 25> C 	 -40.4187 	 27.2782 	 83.5238
| 26> C 	 -41.5812 	 27.2108 	 82.7016
| 27> C 	 -42.0574 	 25.9388 	 82.5938
| 28> H 	 -40.1002 	 28.2816 	 83.75
| 29> C 	 -42.241 	 28.3626 	 82.1131
| 30> H 	 -42.9736 	 28.7612 	 82.7831
| 31> H 	 -42.8922 	 27.9756 	 81.279
| 32> C 	 -41.3441 	 29.5214 	 81.6073
| 33> H 	 -40.8978 	 30.121 	 82.3845
| 34> H 	 -41.9448 	 30.2905 	 81.0466
| 35> C 	 -40.2075 	 29.17 	 80.5906
| 36> H 	 -39.3923 	 28.7423 	 81.2438
| 37> H 	 -39.7892 	 30.0524 	 80.0678
| 38> H 	 -40.4766 	 28.3792 	 79.8458
| 39> H 	 -46.5833 	 25.0583 	 80.7217
| 40> H 	 -38.9451 	 25.9259 	 84.2769
| 41> *
| 42>
| 43>                          ****END OF INPUT****

CARTESIAN COORDINATES (ANGSTROEM)
---------------------------------
  S    -44.841300   26.344200   82.054200
  C    -45.582500   25.050800   81.132800
  C    -44.743600   23.975200   80.913100
  C    -43.441200   24.149400   81.493500
  C    -43.256000   25.462800   82.000600
  H    -42.585500   23.442500   81.366000
  C    -45.084700   22.792100   79.956000
  H    -44.096800   22.300900   79.580600
  H    -45.703600   23.351400   79.163600
  C    -45.915300   21.752300   80.596800
  H    -46.255200   20.971300   79.932500
  H    -45.194600   21.191900   81.246800
  C    -47.138400   22.252700   81.419100
  H    -46.688200   22.756200   82.365900
  H    -47.716900   23.050200   80.948300
  H    -47.739600   21.451600   81.716800
  S    -40.960300   24.746500   83.405500
  C    -39.907300   26.054300   83.910400
  C    -40.418700   27.278200   83.523800
  C    -41.581200   27.210800   82.701600
  C    -42.057400   25.938800   82.593800
  H    -40.100200   28.281600   83.750000
  C    -42.241000   28.362600   82.113100
  H    -42.973600   28.761200   82.783100
  H    -42.892200   27.975600   81.279000
  C    -41.344100   29.521400   81.607300
  H    -40.897800   30.121000   82.384500
  H    -41.944800   30.290500   81.046600
  C    -40.207500   29.170000   80.590600
  H    -39.392300   28.742300   81.243800
  H    -39.789200   30.052400   80.067800
  H    -40.476600   28.379200   79.845800
  H    -46.583300   25.058300   80.721700
  H    -38.945100   25.925900   84.276900

 Total Charge           Charge          ....    0
 Multiplicity           Mult            ....    1
 Number of Electrons    NEL             ....  134
 Basis Dimension        Dim             ....  322

ORBITAL ENERGIES
----------------

  NO   OCC          E(Eh)            E(eV)
   0   2.0000     -88.974029     -2421.1064
   1   2.0000     -88.965696     -2420.8797
   2   2.0000     -10.335587      -281.2456
   3   2.0000     -10.323020      -280.9036
   4   2.0000     -10.317542      -280.7546
   5   2.0000     -10.314701      -280.6773
   6   2.0000     -10.306805      -280.4624
   7   2.0000     -10.303999      -280.3861
   8   2.0000     -10.303340      -280.3681
   9   2.0000     -10.294134      -280.1176
  10   2.0000     -10.293236      -280.0932
  11   2.0000     -10.292710      -280.0789
  12   2.0000     -10.290979      -280.0318
  13   2.0000     -10.285881      -279.8931
  14   2.0000     -10.283842      -279.8376
  15   2.0000     -10.279849      -279.7289
  16   2.0000      -8.086897      -220.0557
  17   2.0000      -8.079456      -219.8532
  18   2.0000      -6.045581      -164.5086
  19   2.0000      -6.041719      -164.4035
  20   2.0000      -6.038123      -164.3057
  21   2.0000      -6.037533      -164.2896
  22   2.0000      -6.034240      -164.2000
  23   2.0000      -6.029975      -164.0840
  24   2.0000      -1.003686       -27.3117
  25   2.0000      -0.978844       -26.6357
  26   2.0000      -0.913124       -24.8474
  27   2.0000      -0.908917       -24.7329
  28   2.0000      -0.871245       -23.7078
  29   2.0000      -0.849554       -23.1175
  30   2.0000      -0.840749       -22.8779
  31   2.0000      -0.806058       -21.9340
  32   2.0000      -0.783823       -21.3289
  33   2.0000      -0.776410       -21.1272
  34   2.0000      -0.711775       -19.3684
  35   2.0000      -0.702062       -19.1041
  36   2.0000      -0.687943       -18.7199
  37   2.0000      -0.667084       -18.1523
  38   2.0000      -0.632739       -17.2177
  39   2.0000      -0.606216       -16.4960
  40   2.0000      -0.600430       -16.3385
  41   2.0000      -0.561672       -15.2839
  42   2.0000      -0.555733       -15.1223
  43   2.0000      -0.550339       -14.9755
  44   2.0000      -0.546150       -14.8615
  45   2.0000      -0.535335       -14.5672
  46   2.0000      -0.520646       -14.1675
  47   2.0000      -0.514173       -13.9914
  48   2.0000      -0.501682       -13.6515
  49   2.0000      -0.491607       -13.3773
  50   2.0000      -0.486933       -13.2501
  51   2.0000      -0.485137       -13.2013
  52   2.0000      -0.467463       -12.7203
  53   2.0000      -0.460881       -12.5412
  54   2.0000      -0.456627       -12.4254
  55   2.0000      -0.451292       -12.2803
  56   2.0000      -0.444827       -12.1044
  57   2.0000      -0.439419       -11.9572
  58   2.0000      -0.430504       -11.7146
  59   2.0000      -0.426595       -11.6082
  60   2.0000      -0.419807       -11.4235
  61   2.0000      -0.406269       -11.0551
  62   2.0000      -0.402173       -10.9437
  63   2.0000      -0.354215        -9.6387
  64   2.0000      -0.332763        -9.0549
  65   2.0000      -0.330550        -8.9947
  66   2.0000      -0.280803        -7.6410
  67   0.0000       0.012924         0.3517
  68   0.0000       0.077965         2.1215
  69   0.0000       0.096101         2.6150
  70   0.0000       0.104587         2.8460
  71   0.0000       0.127314         3.4644

MULLIKEN ATOMIC CHARGES
-----------------------
   0 S :    0.107445
   1 C :   -0.115707
   2 C :   -0.095970
   3 C :   -0.015726
   4 C :   -0.159114
   5 H :    0.040187
   6 C :    0.021947
   7 H :    0.051508
   8 H :    0.045589
   9 C :   -0.066595
  10 H :    0.029244
  11 H :    0.023639
  12 C :   -0.066095
  13 H :    0.057846
  14 H :    0.027574
  15 H :    0.031654
  16 S :    0.091557
  17 C :   -0.054157
  18 C :    0.001087
  19 C :   -0.076189
  20 C :   -0.117811
  21 H :    0.006541
  22 C :    0.063306
  23 H :    0.041721
  24 H :    0.042774
  25 C :   -0.104484
  26 H :    0.027905
  27 H :    0.033464
  28 C :   -0.085106
  29 H :    0.032903
  30 H :    0.044610
  31 H :    0.048512
  32 H :    0.044023
  33 H :    0.041918
Sum of atomic charges:   -0.0000000

LOEWDIN ATOMIC CHARGES
----------------------
   0 S :    0.396228
   1 C :   -0.200158
   2 C :   -0.063555
   3 C :   -0.068204
   4 C :   -0.170032
   5 H :    0.036589
   6 C :   -0.036820
   7 H :    0.044236
   8 H :    0.038551
   9 C :   -0.052966
  10 H :    0.020734
  11 H :    0.028374
  12 C :   -0.067390
  13 H :    0.040846
  14 H :    0.019669
  15 H :    0.017769
  16 S :    0.378544
  17 C :   -0.167847
  18 C :   -0.061730
  19 C :   -0.062578
  20 C :   -0.177092
  21 H :    0.028027
  22 C :   -0.045224
  23 H :    0.034018
  24 H :    0.034119
  25 C :   -0.047583
  26 H :    0.018600
  27 H :    0.030950
  28 C :   -0.076875
  29 H :    0.027135
  30 H :    0.028924
  31 H :    0.030761
  32 H :    0.025513
  33 H :    0.018463

  Mayer bond orders larger than 0.100000
B(  0-S ,  1-C ) :   1.1285 B(  0-S ,  4-C ) :   1.1192 B(  1-C ,  2-C ) :   1.6217
B(  1-C , 32-H ) :   0.9592 B(  2-C ,  3-C ) :   1.2606 B(  2-C ,  6-C ) :   0.9917
B(  3-C ,  4-C ) :   1.5405 B(  3-C ,  5-H ) :   0.9768 B(  4-C , 20-C ) :   1.1383
B(  6-C ,  7-H ) :   0.9491 B(  6-C ,  8-H ) :   0.9441 B(  6-C ,  9-C ) :   1.0761
B(  9-C , 10-H ) :   0.9575 B(  9-C , 11-H ) :   0.9490 B(  9-C , 12-C ) :   1.0780
B( 12-C , 13-H ) :   0.9659 B( 12-C , 14-H ) :   0.9758 B( 12-C , 15-H ) :   0.9728
B( 16-S , 17-C ) :   1.1430 B( 16-S , 20-C ) :   1.1006 B( 17-C , 18-C ) :   1.5889
B( 17-C , 33-H ) :   0.9752 B( 18-C , 19-C ) :   1.2500 B( 18-C , 21-H ) :   0.9811
B( 19-C , 20-C ) :   1.5825 B( 19-C , 22-C ) :   1.0588 B( 22-C , 23-H ) :   0.9232
B( 22-C , 24-H ) :   0.9190 B( 22-C , 25-C ) :   1.0677 B( 25-C , 26-H ) :   0.9541
B( 25-C , 27-H ) :   0.9579 B( 25-C , 28-C ) :   1.0682 B( 28-C , 29-H ) :   0.9726
B( 28-C , 30-H ) :   0.9761 B( 28-C , 31-H ) :   0.9766

Dispersion correction           -0.014579117
FINAL SINGLE POINT ENERGY     -1339.864471640317

DIPOLE MOMENT
-------------
                                X             Y             Z
Electronic contribution:      4.86398      -0.84748      10.82618
Nuclear contribution   :     -4.89276       0.91247     -11.09369
                        -----------------------------------------
Total Dipole Moment    :     -0.02878       0.06500      -0.26750
                        -----------------------------------------
Magnitude (a.u.)       :      0.27679
Magnitude (Debye)      :      0.70353

Rotational constants in cm-1:     0.025238     0.007495     0.006460
Rotational constants in MHz :   756.626179   224.699537   193.662212

                             ****ORCA TERMINATED NORMALLY****
TOTAL RUN TIME: 0 days 0 hours 0 minutes 31 seconds 401 msec
