                         Program Version 4.2.1 -  RELEASE  -
|  1> ! wB97X-D3 SP def2-SVP
|  2> %pal
|  3> nprocs 16
|  4> end
|  5>
|  6> * xyz 0 1
|  7> S 	 -41.7304 	 33.2138 	 81.2348
|  8> C 	 -41.6403 	 34.0906 	 79.704
|  9> C 	 -40.6968 	 33.5631 	 78.869
| 10> C 	 -40.0316 	 32.3925 	 79.4178
| 11> C 	 -40.4468 	 32.0473 	 80.6846
| 12> H 	 -39.3151 	 31.7867 	 78.9358
| 13> C 	 -40.4583 	 34.1359 	 77.476
| 14> H 	 -39.4224 	 34.486 	 77.518
| 15> H 	 -40.9251 	 35.1073 	 77.3963
| 16> C 	 -40.7404 	 33.2137 	 76.3194
| 17> H 	 -40.2633 	 32.2781 	 76.5613
| 18> H 	 -41.7797 	 32.9586 	 76.2853
| 19> C 	 -40.3284 	 33.7983 	 75.0092
| 20> H 	 -40.4536 	 33.0247 	 74.3065
| 21> H 	 -40.9704 	 34.6295 	 74.7841
| 22> H 	 -39.307 	 34.1684 	 75.0253
| 23> S 	 -39.1615 	 31.2152 	 83.0531
| 24> C 	 -39.0859 	 29.4792 	 83.3733
| 25> C 	 -39.8182 	 28.7847 	 82.4308
| 26> C 	 -40.3809 	 29.5968 	 81.3867
| 27> C 	 -40.0734 	 30.9026 	 81.5321
| 28> H 	 -39.8729 	 27.7158 	 82.4907
| 29> C 	 -41.2503 	 28.9868 	 80.32
| 30> H 	 -41.4542 	 29.7835 	 79.5469
| 31> H 	 -42.2299 	 28.7122 	 80.6712
| 32> C 	 -40.6794 	 27.7173 	 79.6397
| 33> H 	 -41.4309 	 27.2953 	 78.9341
| 34> H 	 -40.613 	 26.9468 	 80.4104
| 35> C 	 -39.3621 	 27.9999 	 78.9346
| 36> H 	 -38.8921 	 28.7899 	 79.5673
| 37> H 	 -39.6301 	 28.3816 	 77.9197
| 38> H 	 -38.7166 	 27.1582 	 78.8063
| 39> H 	 -42.3559 	 34.8379 	 79.3236
| 40> H 	 -38.7248 	 28.9927 	 84.2116
| 41> *
| 42>
| 43>                          ****END OF INPUT****

CARTESIAN COORDINATES (ANGSTROEM)
---------------------------------
  S    -41.730400   33.213800   81.234800
  C    -41.640300   34.090600   79.704000
  C    -40.696800   33.563100   78.869000
  C    -40.031600   32.392500   79.417800
  C    -40.446800   32.047300   80.684600
  H    -39.315100   31.786700   78.935800
  C    -40.458300   34.135900   77.476000
  H    -39.422400   34.486000   77.518000
  H    -40.925100   35.107300   77.396300
  C    -40.740400   33.213700   76.319400
  H    -40.263300   32.278100   76.561300
  H    -41.779700   32.958600   76.285300
  C    -40.328400   33.798300   75.009200
  H    -40.453600   33.024700   74.306500
  H    -40.970400   34.629500   74.784100
  H    -39.307000   34.168400   75.025300
  S    -39.161500   31.215200   83.053100
  C    -39.085900   29.479200   83.373300
  C    -39.818200   28.784700   82.430800
  C    -40.380900   29.596800   81.386700
  C    -40.073400   30.902600   81.532100
  H    -39.872900   27.715800   82.490700
  C    -41.250300   28.986800   80.320000
  H    -41.454200   29.783500   79.546900
  H    -42.229900   28.712200   80.671200
  C    -40.679400   27.717300   79.639700
  H    -41.430900   27.295300   78.934100
  H    -40.613000   26.946800   80.410400
  C    -39.362100   27.999900   78.934600
  H    -38.892100   28.789900   79.567300
  H    -39.630100   28.381600   77.919700
  H    -38.716600   27.158200   78.806300
  H    -42.355900   34.837900   79.323600
  H    -38.724800   28.992700   84.211600

 Total Charge           Charge          ....    0
 Multiplicity           Mult            ....    1
 Number of Electrons    NEL             ....  134
 Basis Dimension        Dim             ....  322

ORBITAL ENERGIES
----------------

  NO   OCC          E(Eh)            E(eV)
   0   2.0000     -88.966171     -2420.8926
   1   2.0000     -88.961856     -2420.7752
   2   2.0000     -10.335363      -281.2395
   3   2.0000     -10.329567      -281.0818
   4   2.0000     -10.317073      -280.7418
   5   2.0000     -10.314473      -280.6711
   6   2.0000     -10.303398      -280.3697
   7   2.0000     -10.300642      -280.2947
   8   2.0000     -10.297652      -280.2133
   9   2.0000     -10.293559      -280.1020
  10   2.0000     -10.292225      -280.0657
  11   2.0000     -10.288092      -279.9532
  12   2.0000     -10.287912      -279.9483
  13   2.0000     -10.279361      -279.7156
  14   2.0000     -10.277538      -279.6660
  15   2.0000     -10.271781      -279.5094
  16   2.0000      -8.079997      -219.8679
  17   2.0000      -8.075507      -219.7457
  18   2.0000      -6.038674      -164.3207
  19   2.0000      -6.034732      -164.2134
  20   2.0000      -6.034147      -164.1975
  21   2.0000      -6.030514      -164.0986
  22   2.0000      -6.030272      -164.0920
  23   2.0000      -6.026070      -163.9777
  24   2.0000      -1.000480       -27.2244
  25   2.0000      -0.978490       -26.6261
  26   2.0000      -0.917985       -24.9796
  27   2.0000      -0.909913       -24.7600
  28   2.0000      -0.872472       -23.7412
  29   2.0000      -0.847874       -23.0718
  30   2.0000      -0.843078       -22.9413
  31   2.0000      -0.820234       -22.3197
  32   2.0000      -0.782694       -21.2982
  33   2.0000      -0.772893       -21.0315
  34   2.0000      -0.713007       -19.4019
  35   2.0000      -0.698102       -18.9963
  36   2.0000      -0.696599       -18.9554
  37   2.0000      -0.659538       -17.9469
  38   2.0000      -0.643273       -17.5043
  39   2.0000      -0.618358       -16.8264
  40   2.0000      -0.598865       -16.2959
  41   2.0000      -0.569927       -15.5085
  42   2.0000      -0.563770       -15.3410
  43   2.0000      -0.560018       -15.2389
  44   2.0000      -0.541515       -14.7354
  45   2.0000      -0.537243       -14.6191
  46   2.0000      -0.522606       -14.2208
  47   2.0000      -0.508284       -13.8311
  48   2.0000      -0.503155       -13.6915
  49   2.0000      -0.500542       -13.6204
  50   2.0000      -0.485986       -13.2244
  51   2.0000      -0.480321       -13.0702
  52   2.0000      -0.471878       -12.8405
  53   2.0000      -0.462136       -12.5753
  54   2.0000      -0.454995       -12.3811
  55   2.0000      -0.451527       -12.2867
  56   2.0000      -0.442228       -12.0336
  57   2.0000      -0.441621       -12.0171
  58   2.0000      -0.437128       -11.8948
  59   2.0000      -0.423346       -11.5198
  60   2.0000      -0.422181       -11.4881
  61   2.0000      -0.412392       -11.2218
  62   2.0000      -0.409196       -11.1348
  63   2.0000      -0.338476        -9.2104
  64   2.0000      -0.333184        -9.0664
  65   2.0000      -0.327145        -8.9021
  66   2.0000      -0.306204        -8.3322
  67   0.0000       0.039645         1.0788
  68   0.0000       0.054593         1.4855
  69   0.0000       0.115394         3.1400
  70   0.0000       0.119882         3.2622
  71   0.0000       0.128339         3.4923

MULLIKEN ATOMIC CHARGES
-----------------------
   0 S :    0.089778
   1 C :   -0.119576
   2 C :   -0.110023
   3 C :    0.069806
   4 C :   -0.170555
   5 H :   -0.000482
   6 C :    0.068887
   7 H :    0.025004
   8 H :   -0.001548
   9 C :   -0.058161
  10 H :    0.015246
  11 H :    0.020320
  12 C :    0.008147
  13 H :    0.025830
  14 H :    0.025396
  15 H :    0.026641
  16 S :    0.103489
  17 C :   -0.049577
  18 C :   -0.040958
  19 C :   -0.009761
  20 C :   -0.182465
  21 H :    0.013848
  22 C :    0.068063
  23 H :    0.033285
  24 H :    0.035222
  25 C :   -0.101708
  26 H :    0.031770
  27 H :    0.022140
  28 C :   -0.048679
  29 H :    0.051702
  30 H :    0.034001
  31 H :    0.034335
  32 H :    0.059633
  33 H :    0.030954
Sum of atomic charges:    0.0000000

LOEWDIN ATOMIC CHARGES
----------------------
   0 S :    0.360569
   1 C :   -0.193558
   2 C :   -0.064806
   3 C :   -0.050887
   4 C :   -0.167035
   5 H :    0.025601
   6 C :   -0.034717
   7 H :    0.033630
   8 H :    0.024370
   9 C :   -0.039748
  10 H :    0.020449
  11 H :    0.024247
  12 C :   -0.051969
  13 H :    0.023121
  14 H :    0.025091
  15 H :    0.025602
  16 S :    0.378026
  17 C :   -0.161266
  18 C :   -0.065761
  19 C :   -0.057508
  20 C :   -0.186927
  21 H :    0.026939
  22 C :   -0.031180
  23 H :    0.035404
  24 H :    0.033113
  25 C :   -0.045500
  26 H :    0.026820
  27 H :    0.016055
  28 C :   -0.068957
  29 H :    0.032753
  30 H :    0.030642
  31 H :    0.021641
  32 H :    0.037498
  33 H :    0.018247

  Mayer bond orders larger than 0.100000
B(  0-S ,  1-C ) :   1.1187 B(  0-S ,  4-C ) :   1.1229 B(  1-C ,  2-C ) :   1.6688
B(  1-C , 32-H ) :   0.9577 B(  2-C ,  3-C ) :   1.1875 B(  2-C ,  6-C ) :   1.0228
B(  3-C ,  4-C ) :   1.6295 B(  3-C ,  5-H ) :   1.0030 B(  4-C , 20-C ) :   1.0123
B(  6-C ,  7-H ) :   0.9317 B(  6-C ,  8-H ) :   0.9369 B(  6-C ,  9-C ) :   1.0593
B(  9-C , 10-H ) :   0.9536 B(  9-C , 11-H ) :   0.9488 B(  9-C , 12-C ) :   1.0912
B( 12-C , 13-H ) :   0.9708 B( 12-C , 14-H ) :   0.9723 B( 12-C , 15-H ) :   0.9739
B( 16-S , 17-C ) :   1.1367 B( 16-S , 20-C ) :   1.1180 B( 17-C , 18-C ) :   1.6528
B( 17-C , 33-H ) :   0.9718 B( 18-C , 19-C ) :   1.1926 B( 18-C , 21-H ) :   0.9894
B( 19-C , 20-C ) :   1.6449 B( 19-C , 22-C ) :   1.0430 B( 22-C , 23-H ) :   0.9330
B( 22-C , 24-H ) :   0.9321 B( 22-C , 25-C ) :   1.0715 B( 25-C , 26-H ) :   0.9566
B( 25-C , 27-H ) :   0.9548 B( 25-C , 28-C ) :   1.0610 B( 28-C , 29-H ) :   0.9767
B( 28-C , 30-H ) :   0.9744 B( 28-C , 31-H ) :   0.9746

Dispersion correction           -0.014593258
FINAL SINGLE POINT ENERGY     -1339.886817283953

DIPOLE MOMENT
-------------
                                X             Y             Z
Electronic contribution:     -0.53721       7.89554      28.52071
Nuclear contribution   :      0.44431      -8.31438     -29.17297
                        -----------------------------------------
Total Dipole Moment    :     -0.09289      -0.41885      -0.65226
                        -----------------------------------------
Magnitude (a.u.)       :      0.78071
Magnitude (Debye)      :      1.98441

Rotational constants in cm-1:     0.018899     0.008574     0.006625
Rotational constants in MHz :   566.564920   257.046289   198.608643

                             ****ORCA TERMINATED NORMALLY****
TOTAL RUN TIME: 0 days 0 hours 0 minutes 30 seconds 205 msec
