                         Program Version 4.2.1 -  RELEASE  -
|  1> ! wB97X-D3 SP def2-SVP
|  2> %pal
|  3> nprocs 16
|  4> end
|  5>
|  6> * xyz 0 1
|  7> S 	 -3.23571 	 -13.5071 	 83.1943
|  8> C 	 -1.95075 	 -14.219 	 82.2105
|  9> C 	 -0.775794 	 -14.3155 	 82.9402
| 10> C 	 -0.862469 	 -13.8117 	 84.2788
| 11> C 	 -2.16859 	 -13.4404 	 84.6215
| 12> H 	 -0.0762183 	 -13.8243 	 85.0261
| 13> C 	 0.527663 	 -14.8829 	 82.4724
| 14> H 	 1.35863 	 -14.2289 	 82.8645
| 15> H 	 0.533329 	 -14.9441 	 81.3822
| 16> C 	 0.877583 	 -16.2754 	 83.032
| 17> H 	 0.702545 	 -16.2913 	 84.1329
| 18> H 	 0.163335 	 -17.012 	 82.6819
| 19> C 	 2.26158 	 -16.7859 	 82.7626
| 20> H 	 2.45414 	 -17.5801 	 83.4481
| 21> H 	 2.19566 	 -17.2301 	 81.7591
| 22> H 	 2.89551 	 -16.0284 	 82.7708
| 23> S 	 -3.89308 	 -14.0302 	 86.7081
| 24> C 	 -3.43106 	 -13.5239 	 88.3152
| 25> C 	 -2.41025 	 -12.5888 	 88.3011
| 26> C 	 -1.81044 	 -12.4648 	 86.9892
| 27> C 	 -2.57475 	 -13.088 	 85.982
| 28> H 	 -1.89753 	 -12.1979 	 89.1344
| 29> C 	 -0.51559 	 -11.5671 	 86.7696
| 30> H 	 0.333118 	 -12.1155 	 86.4272
| 31> H 	 -0.243756 	 -11.2121 	 87.7518
| 32> C 	 -0.771249 	 -10.2155 	 86.0844
| 33> H 	 -1.25558 	 -10.4725 	 85.1583
| 34> H 	 0.248912 	 -9.75636 	 85.8515
| 35> C 	 -1.70358 	 -9.3144 	 86.9634
| 36> H 	 -2.71671 	 -9.76529 	 87.1188
| 37> H 	 -1.7551 	 -8.29791 	 86.5528
| 38> H 	 -1.21315 	 -9.12641 	 87.8986
| 39> H 	 -2.14662 	 -14.6198 	 81.2581
| 40> H 	 -3.77118 	 -13.994 	 89.193
| 41> *
| 42>
| 43>                          ****END OF INPUT****

CARTESIAN COORDINATES (ANGSTROEM)
---------------------------------
  S     -3.235710  -13.507100   83.194300
  C     -1.950750  -14.219000   82.210500
  C     -0.775794  -14.315500   82.940200
  C     -0.862469  -13.811700   84.278800
  C     -2.168590  -13.440400   84.621500
  H     -0.076218  -13.824300   85.026100
  C      0.527663  -14.882900   82.472400
  H      1.358630  -14.228900   82.864500
  H      0.533329  -14.944100   81.382200
  C      0.877583  -16.275400   83.032000
  H      0.702545  -16.291300   84.132900
  H      0.163335  -17.012000   82.681900
  C      2.261580  -16.785900   82.762600
  H      2.454140  -17.580100   83.448100
  H      2.195660  -17.230100   81.759100
  H      2.895510  -16.028400   82.770800
  S     -3.893080  -14.030200   86.708100
  C     -3.431060  -13.523900   88.315200
  C     -2.410250  -12.588800   88.301100
  C     -1.810440  -12.464800   86.989200
  C     -2.574750  -13.088000   85.982000
  H     -1.897530  -12.197900   89.134400
  C     -0.515590  -11.567100   86.769600
  H      0.333118  -12.115500   86.427200
  H     -0.243756  -11.212100   87.751800
  C     -0.771249  -10.215500   86.084400
  H     -1.255580  -10.472500   85.158300
  H      0.248912   -9.756360   85.851500
  C     -1.703580   -9.314400   86.963400
  H     -2.716710   -9.765290   87.118800
  H     -1.755100   -8.297910   86.552800
  H     -1.213150   -9.126410   87.898600
  H     -2.146620  -14.619800   81.258100
  H     -3.771180  -13.994000   89.193000

 Total Charge           Charge          ....    0
 Multiplicity           Mult            ....    1
 Number of Electrons    NEL             ....  134
 Basis Dimension        Dim             ....  322

ORBITAL ENERGIES
----------------

  NO   OCC          E(Eh)            E(eV)
   0   2.0000     -88.968729     -2420.9622
   1   2.0000     -88.966628     -2420.9050
   2   2.0000     -10.335321      -281.2384
   3   2.0000     -10.331200      -281.1262
   4   2.0000     -10.320265      -280.8287
   5   2.0000     -10.312969      -280.6301
   6   2.0000     -10.312323      -280.6126
   7   2.0000     -10.301924      -280.3296
   8   2.0000     -10.296308      -280.1768
   9   2.0000     -10.294806      -280.1359
  10   2.0000     -10.294569      -280.1295
  11   2.0000     -10.293417      -280.0981
  12   2.0000     -10.289786      -279.9993
  13   2.0000     -10.280661      -279.7510
  14   2.0000     -10.279066      -279.7076
  15   2.0000     -10.264484      -279.3108
  16   2.0000      -8.083190      -219.9548
  17   2.0000      -8.080460      -219.8805
  18   2.0000      -6.041732      -164.4039
  19   2.0000      -6.039133      -164.3332
  20   2.0000      -6.037674      -164.2934
  21   2.0000      -6.035095      -164.2233
  22   2.0000      -6.033980      -164.1929
  23   2.0000      -6.031125      -164.1152
  24   2.0000      -1.000303       -27.2196
  25   2.0000      -0.978756       -26.6333
  26   2.0000      -0.913801       -24.8658
  27   2.0000      -0.904241       -24.6057
  28   2.0000      -0.871022       -23.7017
  29   2.0000      -0.852400       -23.1950
  30   2.0000      -0.841970       -22.9112
  31   2.0000      -0.810776       -22.0623
  32   2.0000      -0.782998       -21.3064
  33   2.0000      -0.772620       -21.0240
  34   2.0000      -0.707872       -19.2622
  35   2.0000      -0.695531       -18.9264
  36   2.0000      -0.687237       -18.7007
  37   2.0000      -0.667441       -18.1620
  38   2.0000      -0.642749       -17.4901
  39   2.0000      -0.619016       -16.8443
  40   2.0000      -0.596817       -16.2402
  41   2.0000      -0.574817       -15.6416
  42   2.0000      -0.560804       -15.2602
  43   2.0000      -0.551309       -15.0019
  44   2.0000      -0.546372       -14.8675
  45   2.0000      -0.530707       -14.4413
  46   2.0000      -0.516223       -14.0471
  47   2.0000      -0.509960       -13.8767
  48   2.0000      -0.505297       -13.7498
  49   2.0000      -0.499574       -13.5941
  50   2.0000      -0.482638       -13.1332
  51   2.0000      -0.477480       -12.9929
  52   2.0000      -0.472633       -12.8610
  53   2.0000      -0.464675       -12.6445
  54   2.0000      -0.460225       -12.5234
  55   2.0000      -0.450583       -12.2610
  56   2.0000      -0.445370       -12.1191
  57   2.0000      -0.436115       -11.8673
  58   2.0000      -0.433697       -11.8015
  59   2.0000      -0.421215       -11.4618
  60   2.0000      -0.419379       -11.4119
  61   2.0000      -0.411629       -11.2010
  62   2.0000      -0.410180       -11.1616
  63   2.0000      -0.351008        -9.5514
  64   2.0000      -0.333943        -9.0870
  65   2.0000      -0.327965        -8.9244
  66   2.0000      -0.286869        -7.8061
  67   0.0000       0.023906         0.6505
  68   0.0000       0.064276         1.7490
  69   0.0000       0.109064         2.9678
  70   0.0000       0.114184         3.1071
  71   0.0000       0.131004         3.5648

MULLIKEN ATOMIC CHARGES
-----------------------
   0 S :    0.096511
   1 C :   -0.112636
   2 C :   -0.054466
   3 C :    0.013413
   4 C :   -0.135538
   5 H :    0.014338
   6 C :    0.055342
   7 H :    0.031671
   8 H :    0.021587
   9 C :   -0.132563
  10 H :    0.021828
  11 H :    0.018973
  12 C :    0.054510
  13 H :    0.032321
  14 H :    0.024718
  15 H :   -0.005230
  16 S :    0.105528
  17 C :   -0.079803
  18 C :    0.019319
  19 C :   -0.119900
  20 C :   -0.119540
  21 H :    0.007200
  22 C :    0.077564
  23 H :    0.028895
  24 H :   -0.006750
  25 C :   -0.071684
  26 H :    0.037429
  27 H :    0.040801
  28 C :   -0.067585
  29 H :    0.067205
  30 H :    0.036372
  31 H :    0.015295
  32 H :    0.033839
  33 H :    0.051036
Sum of atomic charges:    0.0000000

LOEWDIN ATOMIC CHARGES
----------------------
   0 S :    0.379774
   1 C :   -0.188271
   2 C :   -0.058277
   3 C :   -0.059579
   4 C :   -0.180108
   5 H :    0.030092
   6 C :   -0.034204
   7 H :    0.036346
   8 H :    0.027833
   9 C :   -0.045710
  10 H :    0.021089
  11 H :    0.019960
  12 C :   -0.045222
  13 H :    0.029616
  14 H :    0.031133
  15 H :    0.001616
  16 S :    0.405374
  17 C :   -0.172070
  18 C :   -0.065927
  19 C :   -0.046100
  20 C :   -0.200580
  21 H :    0.024396
  22 C :   -0.029348
  23 H :    0.022171
  24 H :    0.022310
  25 C :   -0.036939
  26 H :    0.020484
  27 H :    0.032392
  28 C :   -0.069217
  29 H :    0.038057
  30 H :    0.029246
  31 H :    0.017819
  32 H :    0.019073
  33 H :    0.022770

  Mayer bond orders larger than 0.100000
B(  0-S ,  1-C ) :   1.1161 B(  0-S ,  4-C ) :   1.1438 B(  1-C ,  2-C ) :   1.6127
B(  1-C , 32-H ) :   0.9769 B(  2-C ,  3-C ) :   1.2319 B(  2-C ,  6-C ) :   1.0431
B(  3-C ,  4-C ) :   1.5737 B(  3-C ,  5-H ) :   0.9869 B(  4-C , 20-C ) :   1.0446
B(  6-C ,  7-H ) :   0.9338 B(  6-C ,  8-H ) :   0.9405 B(  6-C ,  9-C ) :   1.0637
B(  9-C , 10-H ) :   0.9587 B(  9-C , 11-H ) :   0.9529 B(  9-C , 12-C ) :   1.0804
B( 12-C , 13-H ) :   0.9713 B( 12-C , 14-H ) :   0.9734 B( 12-C , 15-H ) :   0.9725
B( 16-S , 17-C ) :   1.1715 B( 16-S , 20-C ) :   1.1319 B( 17-C , 18-C ) :   1.5825
B( 17-C , 33-H ) :   0.9723 B( 18-C , 19-C ) :   1.2684 B( 18-C , 21-H ) :   0.9863
B( 19-C , 20-C ) :   1.5842 B( 19-C , 22-C ) :   1.0197 B( 22-C , 23-H ) :   0.9441
B( 22-C , 24-H ) :   0.9354 B( 22-C , 25-C ) :   1.0569 B( 25-C , 26-H ) :   0.9603
B( 25-C , 27-H ) :   0.9553 B( 25-C , 28-C ) :   1.0690 B( 28-C , 29-H ) :   0.9727
B( 28-C , 30-H ) :   0.9743 B( 28-C , 31-H ) :   0.9738

Dispersion correction           -0.014441718
FINAL SINGLE POINT ENERGY     -1339.863453282343

DIPOLE MOMENT
-------------
                                X             Y             Z
Electronic contribution:    -23.55357      -3.03340       1.09306
Nuclear contribution   :     24.27457       2.89532      -0.82064
                        -----------------------------------------
Total Dipole Moment    :      0.72100      -0.13808       0.27242
                        -----------------------------------------
Magnitude (a.u.)       :      0.78302
Magnitude (Debye)      :      1.99028

Rotational constants in cm-1:     0.018463     0.007984     0.007363
Rotational constants in MHz :   553.497151   239.361540   220.725099

                             ****ORCA TERMINATED NORMALLY****
TOTAL RUN TIME: 0 days 0 hours 0 minutes 33 seconds 798 msec
