                         Program Version 4.2.1 -  RELEASE  -
|  1> ! wB97X-D3 SP def2-SVP
|  2> %pal
|  3> nprocs 16
|  4> end
|  5>
|  6> * xyz 0 1
|  7> S 	 38.3584 	 26.5961 	 96.0274
|  8> C 	 38.535 	 27.2851 	 94.4341
|  9> C 	 39.7221 	 27.0142 	 93.8891
| 10> C 	 40.4414 	 26.0715 	 94.6954
| 11> C 	 39.7562 	 25.5129 	 95.8243
| 12> H 	 41.4447 	 25.6976 	 94.4442
| 13> C 	 40.2638 	 27.641 	 92.6346
| 14> H 	 41.265 	 28.0616 	 92.8836
| 15> H 	 39.7027 	 28.4975 	 92.2469
| 16> C 	 40.4918 	 26.7275 	 91.4649
| 17> H 	 39.4582 	 26.3235 	 91.3999
| 18> H 	 40.7287 	 27.37 	 90.6121
| 19> C 	 41.3857 	 25.541 	 91.6759
| 20> H 	 42.3584 	 25.7787 	 92.0767
| 21> H 	 40.9327 	 24.7572 	 92.2996
| 22> H 	 41.6347 	 24.9556 	 90.7345
| 23> S 	 39.866 	 24.8865 	 98.4909
| 24> C 	 39.8075 	 23.2369 	 98.9428
| 25> C 	 40.2941 	 22.4131 	 97.8406
| 26> C 	 40.4966 	 23.19 	 96.6264
| 27> C 	 40.0712 	 24.4796 	 96.7761
| 28> H 	 40.4791 	 21.3789 	 97.9647
| 29> C 	 40.8424 	 22.6006 	 95.2775
| 30> H 	 41.3603 	 21.6495 	 95.4583
| 31> H 	 41.46 	 23.3315 	 94.7777
| 32> C 	 39.5785 	 22.3859 	 94.4341
| 33> H 	 39.7046 	 21.9895 	 93.4379
| 34> H 	 39.1921 	 23.3729 	 94.1896
| 35> C 	 38.4228 	 21.5163 	 95.0159
| 36> H 	 37.5308 	 21.4918 	 94.3355
| 37> H 	 38.2247 	 21.9389 	 96.0145
| 38> H 	 38.6538 	 20.4901 	 95.2757
| 39> H 	 37.8074 	 28.0004 	 94.127
| 40> H 	 39.6155 	 22.865 	 99.9299
| 41> *
| 42>
| 43>                          ****END OF INPUT****

CARTESIAN COORDINATES (ANGSTROEM)
---------------------------------
  S     38.358400   26.596100   96.027400
  C     38.535000   27.285100   94.434100
  C     39.722100   27.014200   93.889100
  C     40.441400   26.071500   94.695400
  C     39.756200   25.512900   95.824300
  H     41.444700   25.697600   94.444200
  C     40.263800   27.641000   92.634600
  H     41.265000   28.061600   92.883600
  H     39.702700   28.497500   92.246900
  C     40.491800   26.727500   91.464900
  H     39.458200   26.323500   91.399900
  H     40.728700   27.370000   90.612100
  C     41.385700   25.541000   91.675900
  H     42.358400   25.778700   92.076700
  H     40.932700   24.757200   92.299600
  H     41.634700   24.955600   90.734500
  S     39.866000   24.886500   98.490900
  C     39.807500   23.236900   98.942800
  C     40.294100   22.413100   97.840600
  C     40.496600   23.190000   96.626400
  C     40.071200   24.479600   96.776100
  H     40.479100   21.378900   97.964700
  C     40.842400   22.600600   95.277500
  H     41.360300   21.649500   95.458300
  H     41.460000   23.331500   94.777700
  C     39.578500   22.385900   94.434100
  H     39.704600   21.989500   93.437900
  H     39.192100   23.372900   94.189600
  C     38.422800   21.516300   95.015900
  H     37.530800   21.491800   94.335500
  H     38.224700   21.938900   96.014500
  H     38.653800   20.490100   95.275700
  H     37.807400   28.000400   94.127000
  H     39.615500   22.865000   99.929900

 Total Charge           Charge          ....    0
 Multiplicity           Mult            ....    1
 Number of Electrons    NEL             ....  134
 Basis Dimension        Dim             ....  322

ORBITAL ENERGIES
----------------

  NO   OCC          E(Eh)            E(eV)
   0   2.0000     -88.967744     -2420.9354
   1   2.0000     -88.961071     -2420.7538
   2   2.0000     -10.338431      -281.3230
   3   2.0000     -10.326825      -281.0072
   4   2.0000     -10.324585      -280.9462
   5   2.0000     -10.310505      -280.5631
   6   2.0000     -10.306851      -280.4637
   7   2.0000     -10.303806      -280.3808
   8   2.0000     -10.303316      -280.3675
   9   2.0000     -10.300540      -280.2919
  10   2.0000     -10.295245      -280.1479
  11   2.0000     -10.294012      -280.1143
  12   2.0000     -10.286975      -279.9228
  13   2.0000     -10.282181      -279.7924
  14   2.0000     -10.281825      -279.7827
  15   2.0000     -10.275083      -279.5992
  16   2.0000      -8.082748      -219.9428
  17   2.0000      -8.075881      -219.7559
  18   2.0000      -6.041217      -164.3899
  19   2.0000      -6.037274      -164.2826
  20   2.0000      -6.034395      -164.2042
  21   2.0000      -6.033466      -164.1790
  22   2.0000      -6.030463      -164.0972
  23   2.0000      -6.026512      -163.9897
  24   2.0000      -1.007436       -27.4137
  25   2.0000      -0.986286       -26.8382
  26   2.0000      -0.920781       -25.0557
  27   2.0000      -0.910202       -24.7678
  28   2.0000      -0.871885       -23.7252
  29   2.0000      -0.845989       -23.0205
  30   2.0000      -0.837386       -22.7864
  31   2.0000      -0.812126       -22.0991
  32   2.0000      -0.789486       -21.4830
  33   2.0000      -0.778774       -21.1915
  34   2.0000      -0.709847       -19.3159
  35   2.0000      -0.696797       -18.9608
  36   2.0000      -0.691311       -18.8115
  37   2.0000      -0.670418       -18.2430
  38   2.0000      -0.644725       -17.5439
  39   2.0000      -0.617814       -16.8116
  40   2.0000      -0.588753       -16.0208
  41   2.0000      -0.580559       -15.7978
  42   2.0000      -0.561762       -15.2863
  43   2.0000      -0.550584       -14.9822
  44   2.0000      -0.544210       -14.8087
  45   2.0000      -0.538380       -14.6501
  46   2.0000      -0.517890       -14.0925
  47   2.0000      -0.509467       -13.8633
  48   2.0000      -0.508219       -13.8294
  49   2.0000      -0.501081       -13.6351
  50   2.0000      -0.490182       -13.3385
  51   2.0000      -0.478665       -13.0251
  52   2.0000      -0.474055       -12.8997
  53   2.0000      -0.464450       -12.6383
  54   2.0000      -0.462689       -12.5904
  55   2.0000      -0.447579       -12.1793
  56   2.0000      -0.443647       -12.0722
  57   2.0000      -0.437697       -11.9103
  58   2.0000      -0.431317       -11.7367
  59   2.0000      -0.423478       -11.5234
  60   2.0000      -0.423019       -11.5109
  61   2.0000      -0.406907       -11.0725
  62   2.0000      -0.400149       -10.8886
  63   2.0000      -0.349988        -9.5237
  64   2.0000      -0.328124        -8.9287
  65   2.0000      -0.326485        -8.8841
  66   2.0000      -0.287214        -7.8155
  67   0.0000       0.014138         0.3847
  68   0.0000       0.066356         1.8056
  69   0.0000       0.095125         2.5885
  70   0.0000       0.119289         3.2460
  71   0.0000       0.133113         3.6222

MULLIKEN ATOMIC CHARGES
-----------------------
   0 S :    0.092802
   1 C :   -0.129152
   2 C :   -0.052590
   3 C :    0.019506
   4 C :   -0.160178
   5 H :    0.018120
   6 C :    0.058661
   7 H :    0.026906
   8 H :    0.023701
   9 C :   -0.055177
  10 H :    0.023855
  11 H :    0.038393
  12 C :   -0.072124
  13 H :    0.024055
  14 H :    0.042392
  15 H :    0.038184
  16 S :    0.122830
  17 C :   -0.090471
  18 C :   -0.049464
  19 C :   -0.050669
  20 C :   -0.170819
  21 H :    0.010832
  22 C :    0.126167
  23 H :    0.026878
  24 H :    0.021209
  25 C :   -0.081122
  26 H :    0.020001
  27 H :    0.037720
  28 C :   -0.069259
  29 H :    0.046189
  30 H :    0.040719
  31 H :    0.019816
  32 H :    0.042536
  33 H :    0.059554
Sum of atomic charges:    0.0000000

LOEWDIN ATOMIC CHARGES
----------------------
   0 S :    0.391732
   1 C :   -0.179489
   2 C :   -0.073661
   3 C :   -0.060735
   4 C :   -0.187192
   5 H :    0.027040
   6 C :   -0.033134
   7 H :    0.031157
   8 H :    0.033240
   9 C :   -0.046564
  10 H :    0.031129
  11 H :    0.027878
  12 C :   -0.076519
  13 H :    0.017006
  14 H :    0.029611
  15 H :    0.036238
  16 S :    0.417587
  17 C :   -0.192854
  18 C :   -0.065378
  19 C :   -0.051364
  20 C :   -0.196547
  21 H :    0.022401
  22 C :   -0.023327
  23 H :    0.032308
  24 H :    0.030846
  25 C :   -0.043224
  26 H :    0.019543
  27 H :    0.025763
  28 C :   -0.072353
  29 H :    0.033987
  30 H :    0.027307
  31 H :    0.017787
  32 H :    0.023324
  33 H :    0.026460

  Mayer bond orders larger than 0.100000
B(  0-S ,  1-C ) :   1.1441 B(  0-S ,  4-C ) :   1.1406 B(  1-C ,  2-C ) :   1.6070
B(  1-C ,  4-C ) :   0.1022 B(  1-C , 32-H ) :   0.9747 B(  2-C ,  3-C ) :   1.2438
B(  2-C ,  6-C ) :   1.0197 B(  3-C ,  4-C ) :   1.5290 B(  3-C ,  5-H ) :   0.9857
B(  4-C , 20-C ) :   1.0939 B(  6-C ,  7-H ) :   0.9340 B(  6-C ,  8-H ) :   0.9445
B(  6-C ,  9-C ) :   1.0712 B(  9-C , 10-H ) :   0.9479 B(  9-C , 11-H ) :   0.9560
B(  9-C , 12-C ) :   1.0932 B( 12-C , 13-H ) :   0.9712 B( 12-C , 14-H ) :   0.9643
B( 12-C , 15-H ) :   0.9664 B( 16-S , 17-C ) :   1.1732 B( 16-S , 20-C ) :   1.1403
B( 17-C , 18-C ) :   1.5615 B( 17-C , 20-C ) :   0.1035 B( 17-C , 33-H ) :   0.9747
B( 18-C , 19-C ) :   1.2368 B( 18-C , 21-H ) :   0.9968 B( 19-C , 20-C ) :   1.5695
B( 19-C , 22-C ) :   1.0531 B( 22-C , 23-H ) :   0.9320 B( 22-C , 24-H ) :   0.9287
B( 22-C , 25-C ) :   1.0698 B( 25-C , 26-H ) :   0.9564 B( 25-C , 27-H ) :   0.9503
B( 25-C , 28-C ) :   1.0722 B( 28-C , 29-H ) :   0.9731 B( 28-C , 30-H ) :   0.9714
B( 28-C , 31-H ) :   0.9758

Dispersion correction           -0.016312766
FINAL SINGLE POINT ENERGY     -1339.860882743544

DIPOLE MOMENT
-------------
                                X             Y             Z
Electronic contribution:     -4.89267      10.04367      24.47271
Nuclear contribution   :      5.14115     -10.18679     -24.97435
                        -----------------------------------------
Total Dipole Moment    :      0.24848      -0.14312      -0.50164
                        -----------------------------------------
Magnitude (a.u.)       :      0.57782
Magnitude (Debye)      :      1.46869

Rotational constants in cm-1:     0.020484     0.009883     0.007784
Rotational constants in MHz :   614.098929   296.275049   233.346635

                             ****ORCA TERMINATED NORMALLY****
TOTAL RUN TIME: 0 days 0 hours 0 minutes 35 seconds 541 msec
