                         Program Version 4.2.1 -  RELEASE  -
|  1> ! wB97X-D3 SP def2-SVP
|  2> %pal
|  3> nprocs 16
|  4> end
|  5>
|  6> * xyz 0 1
|  7> S 	 -28.4197 	 55.6091 	 112.027
|  8> C 	 -26.8993 	 56.5468 	 112.165
|  9> C 	 -26.4458 	 57.1309 	 110.964
| 10> C 	 -27.4948 	 56.9961 	 109.996
| 11> C 	 -28.6242 	 56.2544 	 110.425
| 12> H 	 -27.5256 	 57.4428 	 109.013
| 13> C 	 -25.1181 	 57.8232 	 110.626
| 14> H 	 -24.8488 	 57.7246 	 109.524
| 15> H 	 -24.315 	 57.2188 	 110.965
| 16> C 	 -25.1437 	 59.2791 	 111.109
| 17> H 	 -26.2269 	 59.6228 	 111.16
| 18> H 	 -24.9243 	 59.2711 	 112.113
| 19> C 	 -24.1976 	 60.3002 	 110.34
| 20> H 	 -23.1711 	 60.2279 	 110.512
| 21> H 	 -24.2975 	 60.0811 	 109.258
| 22> H 	 -24.4539 	 61.3542 	 110.555
| 23> S 	 -31.2905 	 56.8421 	 110.048
| 24> C 	 -32.1624 	 55.9921 	 108.874
| 25> C 	 -31.3999 	 55.2618 	 108.047
| 26> C 	 -30.0309 	 55.3026 	 108.405
| 27> C 	 -29.831 	 55.9697 	 109.6
| 28> H 	 -31.9307 	 54.7764 	 107.236
| 29> C 	 -29.0326 	 54.4839 	 107.687
| 30> H 	 -29.5509 	 53.5279 	 107.559
| 31> H 	 -28.1731 	 54.3278 	 108.314
| 32> C 	 -28.6511 	 54.943 	 106.289
| 33> H 	 -27.7132 	 54.5079 	 106.027
| 34> H 	 -28.2804 	 55.9421 	 106.382
| 35> C 	 -29.5881 	 54.6332 	 105.169
| 36> H 	 -30.6128 	 54.9663 	 105.277
| 37> H 	 -29.5999 	 53.5342 	 105.093
| 38> H 	 -29.093 	 54.9638 	 104.3
| 39> H 	 -26.3033 	 56.601 	 113.024
| 40> H 	 -33.1903 	 56.0891 	 108.685
| 41> *
| 42>
| 43>                          ****END OF INPUT****

CARTESIAN COORDINATES (ANGSTROEM)
---------------------------------
  S    -28.419700   55.609100  112.027000
  C    -26.899300   56.546800  112.165000
  C    -26.445800   57.130900  110.964000
  C    -27.494800   56.996100  109.996000
  C    -28.624200   56.254400  110.425000
  H    -27.525600   57.442800  109.013000
  C    -25.118100   57.823200  110.626000
  H    -24.848800   57.724600  109.524000
  H    -24.315000   57.218800  110.965000
  C    -25.143700   59.279100  111.109000
  H    -26.226900   59.622800  111.160000
  H    -24.924300   59.271100  112.113000
  C    -24.197600   60.300200  110.340000
  H    -23.171100   60.227900  110.512000
  H    -24.297500   60.081100  109.258000
  H    -24.453900   61.354200  110.555000
  S    -31.290500   56.842100  110.048000
  C    -32.162400   55.992100  108.874000
  C    -31.399900   55.261800  108.047000
  C    -30.030900   55.302600  108.405000
  C    -29.831000   55.969700  109.600000
  H    -31.930700   54.776400  107.236000
  C    -29.032600   54.483900  107.687000
  H    -29.550900   53.527900  107.559000
  H    -28.173100   54.327800  108.314000
  C    -28.651100   54.943000  106.289000
  H    -27.713200   54.507900  106.027000
  H    -28.280400   55.942100  106.382000
  C    -29.588100   54.633200  105.169000
  H    -30.612800   54.966300  105.277000
  H    -29.599900   53.534200  105.093000
  H    -29.093000   54.963800  104.300000
  H    -26.303300   56.601000  113.024000
  H    -33.190300   56.089100  108.685000

 Total Charge           Charge          ....    0
 Multiplicity           Mult            ....    1
 Number of Electrons    NEL             ....  134
 Basis Dimension        Dim             ....  322

ORBITAL ENERGIES
----------------

  NO   OCC          E(Eh)            E(eV)
   0   2.0000     -88.971788     -2421.0454
   1   2.0000     -88.958239     -2420.6767
   2   2.0000     -10.329482      -281.0795
   3   2.0000     -10.321296      -280.8568
   4   2.0000     -10.315987      -280.7123
   5   2.0000     -10.307970      -280.4941
   6   2.0000     -10.301339      -280.3137
   7   2.0000     -10.299779      -280.2712
   8   2.0000     -10.297253      -280.2025
   9   2.0000     -10.294837      -280.1368
  10   2.0000     -10.290189      -280.0103
  11   2.0000     -10.282591      -279.8035
  12   2.0000     -10.282390      -279.7981
  13   2.0000     -10.279906      -279.7305
  14   2.0000     -10.275224      -279.6031
  15   2.0000     -10.274021      -279.5703
  16   2.0000      -8.085553      -220.0191
  17   2.0000      -8.074409      -219.7158
  18   2.0000      -6.044000      -164.4656
  19   2.0000      -6.040316      -164.3654
  20   2.0000      -6.036321      -164.2567
  21   2.0000      -6.032710      -164.1584
  22   2.0000      -6.028821      -164.0526
  23   2.0000      -6.025195      -163.9539
  24   2.0000      -1.007328       -27.4108
  25   2.0000      -0.981248       -26.7011
  26   2.0000      -0.917812       -24.9749
  27   2.0000      -0.907625       -24.6977
  28   2.0000      -0.863214       -23.4892
  29   2.0000      -0.856144       -23.2969
  30   2.0000      -0.844072       -22.9684
  31   2.0000      -0.810712       -22.0606
  32   2.0000      -0.787967       -21.4417
  33   2.0000      -0.776165       -21.1205
  34   2.0000      -0.712631       -19.3917
  35   2.0000      -0.708763       -19.2864
  36   2.0000      -0.692679       -18.8487
  37   2.0000      -0.657633       -17.8951
  38   2.0000      -0.642028       -17.4705
  39   2.0000      -0.615772       -16.7560
  40   2.0000      -0.594206       -16.1692
  41   2.0000      -0.571422       -15.5492
  42   2.0000      -0.556901       -15.1541
  43   2.0000      -0.553880       -15.0718
  44   2.0000      -0.548516       -14.9259
  45   2.0000      -0.522538       -14.2190
  46   2.0000      -0.519495       -14.1362
  47   2.0000      -0.510130       -13.8813
  48   2.0000      -0.496796       -13.5185
  49   2.0000      -0.494399       -13.4533
  50   2.0000      -0.491382       -13.3712
  51   2.0000      -0.480490       -13.0748
  52   2.0000      -0.473108       -12.8739
  53   2.0000      -0.464056       -12.6276
  54   2.0000      -0.454218       -12.3599
  55   2.0000      -0.449982       -12.2446
  56   2.0000      -0.446658       -12.1542
  57   2.0000      -0.442782       -12.0487
  58   2.0000      -0.435979       -11.8636
  59   2.0000      -0.434405       -11.8208
  60   2.0000      -0.425305       -11.5731
  61   2.0000      -0.411373       -11.1940
  62   2.0000      -0.406167       -11.0524
  63   2.0000      -0.336070        -9.1449
  64   2.0000      -0.327903        -8.9227
  65   2.0000      -0.322525        -8.7764
  66   2.0000      -0.300841        -8.1863
  67   0.0000       0.036970         1.0060
  68   0.0000       0.066321         1.8047
  69   0.0000       0.103157         2.8070
  70   0.0000       0.123330         3.3560
  71   0.0000       0.133888         3.6433

MULLIKEN ATOMIC CHARGES
-----------------------
   0 S :    0.132660
   1 C :   -0.099757
   2 C :   -0.105467
   3 C :    0.043936
   4 C :   -0.183332
   5 H :    0.009985
   6 C :    0.066144
   7 H :    0.027981
   8 H :    0.022288
   9 C :   -0.057360
  10 H :    0.051077
  11 H :    0.010826
  12 C :   -0.047801
  13 H :    0.023091
  14 H :    0.031991
  15 H :    0.043061
  16 S :    0.112916
  17 C :   -0.054249
  18 C :   -0.061244
  19 C :    0.016443
  20 C :   -0.195406
  21 H :    0.015355
  22 C :    0.064640
  23 H :    0.018198
  24 H :    0.019791
  25 C :   -0.044781
  26 H :    0.005094
  27 H :    0.004028
  28 C :   -0.003575
  29 H :    0.038053
  30 H :    0.021826
  31 H :    0.024148
  32 H :    0.021562
  33 H :    0.027878
Sum of atomic charges:   -0.0000000

LOEWDIN ATOMIC CHARGES
----------------------
   0 S :    0.407787
   1 C :   -0.180818
   2 C :   -0.054433
   3 C :   -0.057064
   4 C :   -0.210192
   5 H :    0.028734
   6 C :   -0.034202
   7 H :    0.037387
   8 H :    0.026174
   9 C :   -0.038268
  10 H :    0.038663
  11 H :    0.012873
  12 C :   -0.065878
  13 H :    0.015890
  14 H :    0.027668
  15 H :    0.032608
  16 S :    0.419933
  17 C :   -0.187079
  18 C :   -0.081602
  19 C :   -0.049346
  20 C :   -0.206220
  21 H :    0.033163
  22 C :   -0.030346
  23 H :    0.032416
  24 H :    0.029893
  25 C :   -0.042677
  26 H :    0.024430
  27 H :    0.018109
  28 C :   -0.056158
  29 H :    0.021860
  30 H :    0.029367
  31 H :    0.025634
  32 H :    0.012282
  33 H :    0.019411

  Mayer bond orders larger than 0.100000
B(  0-S ,  1-C ) :   1.1445 B(  0-S ,  4-C ) :   1.1576 B(  1-C ,  2-C ) :   1.6052
B(  1-C ,  4-C ) :   0.1019 B(  1-C , 32-H ) :   0.9727 B(  2-C ,  3-C ) :   1.2435
B(  2-C ,  6-C ) :   1.0176 B(  3-C ,  4-C ) :   1.5757 B(  3-C ,  5-H ) :   0.9940
B(  4-C , 20-C ) :   1.0066 B(  6-C ,  7-H ) :   0.9518 B(  6-C ,  8-H ) :   0.9377
B(  6-C ,  9-C ) :   1.0312 B(  9-C , 10-H ) :   0.9647 B(  9-C , 11-H ) :   0.9541
B(  9-C , 12-C ) :   1.0627 B( 12-C , 13-H ) :   0.9779 B( 12-C , 14-H ) :   0.9801
B( 12-C , 15-H ) :   0.9775 B( 16-S , 17-C ) :   1.1647 B( 16-S , 20-C ) :   1.1445
B( 17-C , 18-C ) :   1.6410 B( 17-C , 33-H ) :   0.9648 B( 18-C , 19-C ) :   1.2038
B( 18-C , 21-H ) :   0.9920 B( 19-C , 20-C ) :   1.6066 B( 19-C , 22-C ) :   1.0568
B( 22-C , 23-H ) :   0.9373 B( 22-C , 24-H ) :   0.9266 B( 22-C , 25-C ) :   1.0788
B( 25-C , 26-H ) :   0.9450 B( 25-C , 27-H ) :   0.9460 B( 25-C , 28-C ) :   1.0815
B( 28-C , 29-H ) :   0.9744 B( 28-C , 30-H ) :   0.9692 B( 28-C , 31-H ) :   0.9663

Dispersion correction           -0.014058726
FINAL SINGLE POINT ENERGY     -1339.854661458010

DIPOLE MOMENT
-------------
                                X             Y             Z
Electronic contribution:    -18.24552      -5.73573      17.49273
Nuclear contribution   :     18.73674       5.77399     -17.97694
                        -----------------------------------------
Total Dipole Moment    :      0.49122       0.03826      -0.48422
                        -----------------------------------------
Magnitude (a.u.)       :      0.69082
Magnitude (Debye)      :      1.75592

Rotational constants in cm-1:     0.018748     0.007640     0.006433
Rotational constants in MHz :   562.052444   229.030452   192.859561

                             ****ORCA TERMINATED NORMALLY****
TOTAL RUN TIME: 0 days 0 hours 0 minutes 29 seconds 192 msec
