                         Program Version 4.2.1 -  RELEASE  -
|  1> ! wB97X-D3 SP def2-SVP
|  2> %pal
|  3> nprocs 16
|  4> end
|  5>
|  6> * xyz 0 1
|  7> S 	 -32.3586 	 68.5465 	 109.502
|  8> C 	 -33.0887 	 69.2831 	 108.158
|  9> C 	 -32.9416 	 68.5403 	 106.978
| 10> C 	 -31.9542 	 67.5076 	 107.182
| 11> C 	 -31.4432 	 67.4267 	 108.46
| 12> H 	 -31.5602 	 66.8637 	 106.404
| 13> C 	 -33.5587 	 68.6373 	 105.666
| 14> H 	 -32.6417 	 68.6109 	 105.06
| 15> H 	 -33.8785 	 69.673 	 105.475
| 16> C 	 -34.5667 	 67.4872 	 105.297
| 17> H 	 -34.6294 	 67.7225 	 104.247
| 18> H 	 -34.0949 	 66.458 	 105.258
| 19> C 	 -35.8336 	 67.4802 	 106.058
| 20> H 	 -36.5678 	 66.8828 	 105.57
| 21> H 	 -35.7691 	 67.0352 	 107.087
| 22> H 	 -36.2372 	 68.5427 	 106.247
| 23> S 	 -29.0338 	 67.3997 	 109.813
| 24> C 	 -28.2582 	 65.915 	 110.128
| 25> C 	 -28.9755 	 64.8381 	 109.614
| 26> C 	 -30.1269 	 65.2298 	 108.917
| 27> C 	 -30.3428 	 66.5784 	 108.971
| 28> H 	 -28.728 	 63.8201 	 109.744
| 29> C 	 -31.1756 	 64.2771 	 108.31
| 30> H 	 -31.6894 	 64.7351 	 107.46
| 31> H 	 -31.8355 	 64.0751 	 109.149
| 32> C 	 -30.5795 	 62.8743 	 107.798
| 33> H 	 -31.4887 	 62.1582 	 107.803
| 34> H 	 -29.7893 	 62.4154 	 108.59
| 35> C 	 -29.9603 	 62.8848 	 106.377
| 36> H 	 -30.6771 	 62.9916 	 105.572
| 37> H 	 -29.5136 	 61.9611 	 106.163
| 38> H 	 -29.1427 	 63.634 	 106.252
| 39> H 	 -33.8509 	 70.0016 	 108.213
| 40> H 	 -27.386 	 65.8059 	 110.704
| 41> *
| 42>
| 43>                          ****END OF INPUT****

CARTESIAN COORDINATES (ANGSTROEM)
---------------------------------
  S    -32.358600   68.546500  109.502000
  C    -33.088700   69.283100  108.158000
  C    -32.941600   68.540300  106.978000
  C    -31.954200   67.507600  107.182000
  C    -31.443200   67.426700  108.460000
  H    -31.560200   66.863700  106.404000
  C    -33.558700   68.637300  105.666000
  H    -32.641700   68.610900  105.060000
  H    -33.878500   69.673000  105.475000
  C    -34.566700   67.487200  105.297000
  H    -34.629400   67.722500  104.247000
  H    -34.094900   66.458000  105.258000
  C    -35.833600   67.480200  106.058000
  H    -36.567800   66.882800  105.570000
  H    -35.769100   67.035200  107.087000
  H    -36.237200   68.542700  106.247000
  S    -29.033800   67.399700  109.813000
  C    -28.258200   65.915000  110.128000
  C    -28.975500   64.838100  109.614000
  C    -30.126900   65.229800  108.917000
  C    -30.342800   66.578400  108.971000
  H    -28.728000   63.820100  109.744000
  C    -31.175600   64.277100  108.310000
  H    -31.689400   64.735100  107.460000
  H    -31.835500   64.075100  109.149000
  C    -30.579500   62.874300  107.798000
  H    -31.488700   62.158200  107.803000
  H    -29.789300   62.415400  108.590000
  C    -29.960300   62.884800  106.377000
  H    -30.677100   62.991600  105.572000
  H    -29.513600   61.961100  106.163000
  H    -29.142700   63.634000  106.252000
  H    -33.850900   70.001600  108.213000
  H    -27.386000   65.805900  110.704000

 Total Charge           Charge          ....    0
 Multiplicity           Mult            ....    1
 Number of Electrons    NEL             ....  134
 Basis Dimension        Dim             ....  322

ORBITAL ENERGIES
----------------

  NO   OCC          E(Eh)            E(eV)
   0   2.0000     -88.964283     -2420.8412
   1   2.0000     -88.961936     -2420.7773
   2   2.0000     -10.328147      -281.0432
   3   2.0000     -10.320885      -280.8456
   4   2.0000     -10.312552      -280.6188
   5   2.0000     -10.311816      -280.5988
   6   2.0000     -10.304711      -280.4055
   7   2.0000     -10.298102      -280.2256
   8   2.0000     -10.297679      -280.2141
   9   2.0000     -10.295326      -280.1501
  10   2.0000     -10.294958      -280.1400
  11   2.0000     -10.292398      -280.0704
  12   2.0000     -10.289187      -279.9830
  13   2.0000     -10.287576      -279.9392
  14   2.0000     -10.284020      -279.8424
  15   2.0000     -10.278808      -279.7006
  16   2.0000      -8.079652      -219.8585
  17   2.0000      -8.077078      -219.7885
  18   2.0000      -6.037967      -164.3014
  19   2.0000      -6.035582      -164.2365
  20   2.0000      -6.033968      -164.1926
  21   2.0000      -6.031602      -164.1282
  22   2.0000      -6.030683      -164.1032
  23   2.0000      -6.027752      -164.0235
  24   2.0000      -1.006624       -27.3916
  25   2.0000      -0.986706       -26.8496
  26   2.0000      -0.915320       -24.9071
  27   2.0000      -0.897896       -24.4330
  28   2.0000      -0.866361       -23.5749
  29   2.0000      -0.853771       -23.2323
  30   2.0000      -0.847778       -23.0692
  31   2.0000      -0.813014       -22.1232
  32   2.0000      -0.784535       -21.3483
  33   2.0000      -0.773001       -21.0344
  34   2.0000      -0.706832       -19.2339
  35   2.0000      -0.696136       -18.9428
  36   2.0000      -0.695075       -18.9140
  37   2.0000      -0.656574       -17.8663
  38   2.0000      -0.639124       -17.3914
  39   2.0000      -0.618881       -16.8406
  40   2.0000      -0.597699       -16.2642
  41   2.0000      -0.566884       -15.4257
  42   2.0000      -0.555701       -15.1214
  43   2.0000      -0.552028       -15.0215
  44   2.0000      -0.532314       -14.4850
  45   2.0000      -0.529648       -14.4125
  46   2.0000      -0.520526       -14.1642
  47   2.0000      -0.513105       -13.9623
  48   2.0000      -0.499366       -13.5884
  49   2.0000      -0.492636       -13.4053
  50   2.0000      -0.492205       -13.3936
  51   2.0000      -0.483051       -13.1445
  52   2.0000      -0.471295       -12.8246
  53   2.0000      -0.468870       -12.7586
  54   2.0000      -0.458866       -12.4864
  55   2.0000      -0.447859       -12.1869
  56   2.0000      -0.443362       -12.0645
  57   2.0000      -0.440399       -11.9839
  58   2.0000      -0.440059       -11.9746
  59   2.0000      -0.424215       -11.5435
  60   2.0000      -0.417610       -11.3637
  61   2.0000      -0.409134       -11.1331
  62   2.0000      -0.407094       -11.0776
  63   2.0000      -0.344284        -9.3684
  64   2.0000      -0.333644        -9.0789
  65   2.0000      -0.318207        -8.6589
  66   2.0000      -0.290992        -7.9183
  67   0.0000       0.034163         0.9296
  68   0.0000       0.071925         1.9572
  69   0.0000       0.112499         3.0613
  70   0.0000       0.125218         3.4074
  71   0.0000       0.130969         3.5639

MULLIKEN ATOMIC CHARGES
-----------------------
   0 S :    0.110452
   1 C :   -0.077972
   2 C :   -0.107859
   3 C :    0.020399
   4 C :   -0.159451
   5 H :    0.011203
   6 C :    0.021658
   7 H :    0.029800
   8 H :    0.021440
   9 C :   -0.046654
  10 H :    0.027957
  11 H :    0.035229
  12 C :   -0.047207
  13 H :    0.032668
  14 H :    0.047646
  15 H :    0.037092
  16 S :    0.126003
  17 C :   -0.065440
  18 C :   -0.030848
  19 C :   -0.025371
  20 C :   -0.183133
  21 H :   -0.007739
  22 C :    0.092906
  23 H :    0.027117
  24 H :    0.050393
  25 C :   -0.168334
  26 H :    0.044969
  27 H :    0.050725
  28 C :   -0.022381
  29 H :    0.027473
  30 H :    0.019901
  31 H :    0.043284
  32 H :    0.024220
  33 H :    0.039853
Sum of atomic charges:   -0.0000000

LOEWDIN ATOMIC CHARGES
----------------------
   0 S :    0.407003
   1 C :   -0.211906
   2 C :   -0.066963
   3 C :   -0.061638
   4 C :   -0.186094
   5 H :    0.027650
   6 C :   -0.043534
   7 H :    0.039992
   8 H :    0.032290
   9 C :   -0.042491
  10 H :    0.026091
  11 H :    0.032968
  12 C :   -0.072831
  13 H :    0.024245
  14 H :    0.035632
  15 H :    0.034187
  16 S :    0.430345
  17 C :   -0.187615
  18 C :   -0.071270
  19 C :   -0.058962
  20 C :   -0.204978
  21 H :    0.021033
  22 C :   -0.025105
  23 H :    0.030243
  24 H :    0.039143
  25 C :   -0.053724
  26 H :    0.031907
  27 H :    0.033730
  28 C :   -0.072049
  29 H :    0.024110
  30 H :    0.020686
  31 H :    0.032095
  32 H :    0.015547
  33 H :    0.020260

  Mayer bond orders larger than 0.100000
B(  0-S ,  1-C ) :   1.1439 B(  0-S ,  4-C ) :   1.1453 B(  1-C ,  2-C ) :   1.5972
B(  1-C , 32-H ) :   0.9679 B(  2-C ,  3-C ) :   1.2315 B(  2-C ,  6-C ) :   1.0263
B(  3-C ,  4-C ) :   1.5942 B(  3-C ,  5-H ) :   0.9870 B(  4-C , 20-C ) :   1.0226
B(  6-C ,  7-H ) :   0.9343 B(  6-C ,  8-H ) :   0.9399 B(  6-C ,  9-C ) :   1.0596
B(  9-C , 10-H ) :   0.9533 B(  9-C , 11-H ) :   0.9501 B(  9-C , 12-C ) :   1.0752
B( 12-C , 13-H ) :   0.9697 B( 12-C , 14-H ) :   0.9696 B( 12-C , 15-H ) :   0.9733
B( 16-S , 17-C ) :   1.1838 B( 16-S , 20-C ) :   1.1539 B( 17-C , 18-C ) :   1.5603
B( 17-C , 20-C ) :   0.1031 B( 17-C , 33-H ) :   0.9737 B( 18-C , 19-C ) :   1.2772
B( 18-C , 21-H ) :   0.9954 B( 19-C , 20-C ) :   1.5918 B( 19-C , 22-C ) :   1.0196
B( 22-C , 23-H ) :   0.9391 B( 22-C , 24-H ) :   0.9345 B( 22-C , 25-C ) :   1.0567
B( 25-C , 26-H ) :   0.9562 B( 25-C , 27-H ) :   0.9539 B( 25-C , 28-C ) :   1.0705
B( 28-C , 29-H ) :   0.9725 B( 28-C , 30-H ) :   0.9718 B( 28-C , 31-H ) :   0.9760

Dispersion correction           -0.014437484
FINAL SINGLE POINT ENERGY     -1339.865770880636

DIPOLE MOMENT
-------------
                                X             Y             Z
Electronic contribution:     12.62592      16.11459      19.95085
Nuclear contribution   :    -12.91587     -16.63567     -20.48020
                        -----------------------------------------
Total Dipole Moment    :     -0.28995      -0.52108      -0.52935
                        -----------------------------------------
Magnitude (a.u.)       :      0.79738
Magnitude (Debye)      :      2.02677

Rotational constants in cm-1:     0.018067     0.009241     0.006691
Rotational constants in MHz :   541.646065   277.038747   200.576323

                             ****ORCA TERMINATED NORMALLY****
TOTAL RUN TIME: 0 days 0 hours 0 minutes 27 seconds 447 msec
