                         Program Version 4.2.1 -  RELEASE  -
|  1> ! wB97X-D3 SP def2-SVP
|  2> %pal
|  3> nprocs 16
|  4> end
|  5>
|  6> * xyz 0 1
|  7> S 	 -113.263 	 55.8364 	 111.512
|  8> C 	 -113.437 	 54.472 	 110.403
|  9> C 	 -113.262 	 53.2486 	 111.028
| 10> C 	 -112.92 	 53.5344 	 112.362
| 11> C 	 -112.899 	 54.8607 	 112.816
| 12> H 	 -112.661 	 52.853 	 113.195
| 13> C 	 -113.255 	 51.7979 	 110.461
| 14> H 	 -112.93 	 51.7425 	 109.413
| 15> H 	 -114.326 	 51.5248 	 110.398
| 16> C 	 -112.568 	 50.6404 	 111.16
| 17> H 	 -111.542 	 50.8644 	 111.222
| 18> H 	 -112.981 	 50.6511 	 112.127
| 19> C 	 -112.804 	 49.3142 	 110.451
| 20> H 	 -112.669 	 49.4098 	 109.386
| 21> H 	 -111.991 	 48.6074 	 110.841
| 22> H 	 -113.76 	 48.8483 	 110.589
| 23> S 	 -111.796 	 56.972 	 114.296
| 24> C 	 -111.928 	 57.0196 	 116.013
| 25> C 	 -112.715 	 55.9603 	 116.449
| 26> C 	 -113.142 	 55.0368 	 115.402
| 27> C 	 -112.594 	 55.3478 	 114.178
| 28> H 	 -112.901 	 55.8229 	 117.481
| 29> C 	 -114.15 	 53.9303 	 115.713
| 30> H 	 -114.509 	 53.457 	 114.844
| 31> H 	 -114.997 	 54.5509 	 116.011
| 32> C 	 -113.86 	 53.0658 	 116.925
| 33> H 	 -113.646 	 53.5818 	 117.83
| 34> H 	 -112.963 	 52.449 	 116.842
| 35> C 	 -115.037 	 52.1117 	 117.235
| 36> H 	 -115.194 	 51.2523 	 116.559
| 37> H 	 -115.998 	 52.6314 	 117.338
| 38> H 	 -114.735 	 51.6452 	 118.183
| 39> H 	 -113.563 	 54.5455 	 109.24
| 40> H 	 -111.413 	 57.7501 	 116.666
| 41> *
| 42>
| 43>                          ****END OF INPUT****

CARTESIAN COORDINATES (ANGSTROEM)
---------------------------------
  S    -113.263000   55.836400  111.512000
  C    -113.437000   54.472000  110.403000
  C    -113.262000   53.248600  111.028000
  C    -112.920000   53.534400  112.362000
  C    -112.899000   54.860700  112.816000
  H    -112.661000   52.853000  113.195000
  C    -113.255000   51.797900  110.461000
  H    -112.930000   51.742500  109.413000
  H    -114.326000   51.524800  110.398000
  C    -112.568000   50.640400  111.160000
  H    -111.542000   50.864400  111.222000
  H    -112.981000   50.651100  112.127000
  C    -112.804000   49.314200  110.451000
  H    -112.669000   49.409800  109.386000
  H    -111.991000   48.607400  110.841000
  H    -113.760000   48.848300  110.589000
  S    -111.796000   56.972000  114.296000
  C    -111.928000   57.019600  116.013000
  C    -112.715000   55.960300  116.449000
  C    -113.142000   55.036800  115.402000
  C    -112.594000   55.347800  114.178000
  H    -112.901000   55.822900  117.481000
  C    -114.150000   53.930300  115.713000
  H    -114.509000   53.457000  114.844000
  H    -114.997000   54.550900  116.011000
  C    -113.860000   53.065800  116.925000
  H    -113.646000   53.581800  117.830000
  H    -112.963000   52.449000  116.842000
  C    -115.037000   52.111700  117.235000
  H    -115.194000   51.252300  116.559000
  H    -115.998000   52.631400  117.338000
  H    -114.735000   51.645200  118.183000
  H    -113.563000   54.545500  109.240000
  H    -111.413000   57.750100  116.666000

 Total Charge           Charge          ....    0
 Multiplicity           Mult            ....    1
 Number of Electrons    NEL             ....  134
 Basis Dimension        Dim             ....  322

ORBITAL ENERGIES
----------------

  NO   OCC          E(Eh)            E(eV)
   0   2.0000     -88.967511     -2420.9290
   1   2.0000     -88.961995     -2420.7790
   2   2.0000     -10.332703      -281.1672
   3   2.0000     -10.324245      -280.9370
   4   2.0000     -10.324216      -280.9362
   5   2.0000     -10.321125      -280.8521
   6   2.0000     -10.310365      -280.5593
   7   2.0000     -10.306583      -280.4564
   8   2.0000     -10.297222      -280.2017
   9   2.0000     -10.295165      -280.1457
  10   2.0000     -10.290929      -280.0304
  11   2.0000     -10.289183      -279.9829
  12   2.0000     -10.288564      -279.9661
  13   2.0000     -10.284230      -279.8481
  14   2.0000     -10.282797      -279.8091
  15   2.0000     -10.279943      -279.7315
  16   2.0000      -8.083017      -219.9501
  17   2.0000      -8.076646      -219.7767
  18   2.0000      -6.041467      -164.3967
  19   2.0000      -6.037263      -164.2823
  20   2.0000      -6.035312      -164.2292
  21   2.0000      -6.033914      -164.1911
  22   2.0000      -6.031202      -164.1174
  23   2.0000      -6.027200      -164.0084
  24   2.0000      -1.009528       -27.4706
  25   2.0000      -0.984642       -26.7935
  26   2.0000      -0.917076       -24.9549
  27   2.0000      -0.913232       -24.8503
  28   2.0000      -0.872456       -23.7407
  29   2.0000      -0.854339       -23.2477
  30   2.0000      -0.839953       -22.8563
  31   2.0000      -0.806920       -21.9574
  32   2.0000      -0.785334       -21.3700
  33   2.0000      -0.777732       -21.1632
  34   2.0000      -0.712188       -19.3796
  35   2.0000      -0.706924       -19.2364
  36   2.0000      -0.688647       -18.7390
  37   2.0000      -0.659456       -17.9447
  38   2.0000      -0.638598       -17.3771
  39   2.0000      -0.614426       -16.7194
  40   2.0000      -0.599647       -16.3172
  41   2.0000      -0.577129       -15.7045
  42   2.0000      -0.568087       -15.4584
  43   2.0000      -0.562377       -15.3030
  44   2.0000      -0.537920       -14.6375
  45   2.0000      -0.525563       -14.3013
  46   2.0000      -0.509986       -13.8774
  47   2.0000      -0.506600       -13.7853
  48   2.0000      -0.503731       -13.7072
  49   2.0000      -0.495538       -13.4843
  50   2.0000      -0.489711       -13.3257
  51   2.0000      -0.482939       -13.1415
  52   2.0000      -0.475495       -12.9389
  53   2.0000      -0.466290       -12.6884
  54   2.0000      -0.463222       -12.6049
  55   2.0000      -0.454842       -12.3769
  56   2.0000      -0.444500       -12.0955
  57   2.0000      -0.437451       -11.9036
  58   2.0000      -0.431884       -11.7522
  59   2.0000      -0.426163       -11.5965
  60   2.0000      -0.423221       -11.5164
  61   2.0000      -0.419993       -11.4286
  62   2.0000      -0.406482       -11.0609
  63   2.0000      -0.352306        -9.5867
  64   2.0000      -0.332635        -9.0515
  65   2.0000      -0.325277        -8.8512
  66   2.0000      -0.289130        -7.8676
  67   0.0000       0.030065         0.8181
  68   0.0000       0.072523         1.9734
  69   0.0000       0.109873         2.9898
  70   0.0000       0.126672         3.4469
  71   0.0000       0.133827         3.6416

MULLIKEN ATOMIC CHARGES
-----------------------
   0 S :    0.125910
   1 C :   -0.187244
   2 C :   -0.005347
   3 C :   -0.041961
   4 C :   -0.154006
   5 H :    0.012906
   6 C :    0.007849
   7 H :    0.020831
   8 H :    0.037568
   9 C :   -0.020984
  10 H :    0.027411
  11 H :    0.022520
  12 C :   -0.059119
  13 H :    0.026228
  14 H :    0.046254
  15 H :    0.036312
  16 S :    0.075014
  17 C :   -0.090287
  18 C :   -0.030954
  19 C :   -0.036941
  20 C :   -0.146320
  21 H :    0.007412
  22 C :    0.113628
  23 H :    0.011565
  24 H :    0.029671
  25 C :   -0.065474
  26 H :    0.020675
  27 H :    0.026524
  28 C :   -0.069410
  29 H :    0.038166
  30 H :    0.035644
  31 H :    0.029348
  32 H :    0.078839
  33 H :    0.077770
Sum of atomic charges:   -0.0000000

LOEWDIN ATOMIC CHARGES
----------------------
   0 S :    0.442504
   1 C :   -0.216817
   2 C :   -0.065041
   3 C :   -0.084969
   4 C :   -0.228576
   5 H :    0.028736
   6 C :   -0.034190
   7 H :    0.027399
   8 H :    0.036830
   9 C :   -0.035471
  10 H :    0.021384
  11 H :    0.019189
  12 C :   -0.061094
  13 H :    0.022352
  14 H :    0.040315
  15 H :    0.023540
  16 S :    0.378473
  17 C :   -0.186283
  18 C :   -0.073480
  19 C :   -0.043216
  20 C :   -0.182347
  21 H :    0.021339
  22 C :   -0.028590
  23 H :    0.024619
  24 H :    0.042671
  25 C :   -0.038683
  26 H :    0.020867
  27 H :    0.025734
  28 C :   -0.066815
  29 H :    0.025825
  30 H :    0.024366
  31 H :    0.028555
  32 H :    0.049411
  33 H :    0.041461

  Mayer bond orders larger than 0.100000
B(  0-S ,  1-C ) :   1.1583 B(  0-S ,  4-C ) :   1.1736 B(  1-C ,  2-C ) :   1.5817
B(  1-C , 32-H ) :   0.9531 B(  2-C ,  3-C ) :   1.2732 B(  2-C ,  6-C ) :   0.9902
B(  3-C ,  4-C ) :   1.5482 B(  3-C ,  5-H ) :   0.9888 B(  4-C , 20-C ) :   1.0399
B(  6-C ,  7-H ) :   0.9463 B(  6-C ,  8-H ) :   0.9374 B(  6-C ,  9-C ) :   1.0810
B(  9-C , 10-H ) :   0.9566 B(  9-C , 11-H ) :   0.9398 B(  9-C , 12-C ) :   1.0858
B( 12-C , 13-H ) :   0.9745 B( 12-C , 14-H ) :   0.9729 B( 12-C , 15-H ) :   0.9755
B( 16-S , 17-C ) :   1.1611 B( 16-S , 20-C ) :   1.1055 B( 17-C , 18-C ) :   1.6134
B( 17-C , 33-H ) :   0.9636 B( 18-C , 19-C ) :   1.2191 B( 18-C , 21-H ) :   0.9942
B( 19-C , 20-C ) :   1.6124 B( 19-C , 22-C ) :   1.0336 B( 22-C , 23-H ) :   0.9400
B( 22-C , 24-H ) :   0.9217 B( 22-C , 25-C ) :   1.0576 B( 25-C , 26-H ) :   0.9522
B( 25-C , 27-H ) :   0.9532 B( 25-C , 28-C ) :   1.0848 B( 28-C , 29-H ) :   0.9772
B( 28-C , 30-H ) :   0.9759 B( 28-C , 31-H ) :   0.9745

Dispersion correction           -0.013120324
FINAL SINGLE POINT ENERGY     -1339.862397587040

DIPOLE MOMENT
-------------
                                X             Y             Z
Electronic contribution:      7.41302      31.21645      -5.43321
Nuclear contribution   :     -7.62094     -31.88088       5.81028
                        -----------------------------------------
Total Dipole Moment    :     -0.20792      -0.66443       0.37707
                        -----------------------------------------
Magnitude (a.u.)       :      0.79176
Magnitude (Debye)      :      2.01248

Rotational constants in cm-1:     0.015856     0.008783     0.006141
Rotational constants in MHz :   475.364053   263.304764   184.101501

                             ****ORCA TERMINATED NORMALLY****
TOTAL RUN TIME: 0 days 0 hours 0 minutes 33 seconds 360 msec
