                         Program Version 4.2.1 -  RELEASE  -
|  1> ! wB97X-D3 SP def2-SVP
|  2> %pal
|  3> nprocs 16
|  4> end
|  5>
|  6> * xyz 0 1
|  7> S 	 -17.2419 	 52.7399 	 59.6392
|  8> C 	 -16.7629 	 51.0881 	 59.3845
|  9> C 	 -15.788 	 50.698 	 60.2856
| 10> C 	 -15.4232 	 51.7199 	 61.2062
| 11> C 	 -16.1834 	 52.858 	 61.038
| 12> H 	 -14.7109 	 51.5312 	 62.0427
| 13> C 	 -15.1718 	 49.3108 	 60.5153
| 14> H 	 -15.4566 	 48.817 	 59.6028
| 15> H 	 -15.5284 	 48.7786 	 61.3756
| 16> C 	 -13.6632 	 49.3568 	 60.7188
| 17> H 	 -13.2103 	 50.1711 	 60.2266
| 18> H 	 -13.4761 	 49.5894 	 61.7529
| 19> C 	 -12.9891 	 48.097 	 60.1998
| 20> H 	 -13.0441 	 48.1307 	 59.1224
| 21> H 	 -11.9932 	 48.0822 	 60.5305
| 22> H 	 -13.5928 	 47.1975 	 60.4442
| 23> S 	 -14.9797 	 55.3156 	 61.3593
| 24> C 	 -15.1995 	 56.1665 	 62.8602
| 25> C 	 -15.9356 	 55.4179 	 63.751
| 26> C 	 -16.4403 	 54.1991 	 63.2132
| 27> C 	 -16.0422 	 54.0132 	 61.8508
| 28> H 	 -16.0644 	 55.8353 	 64.7051
| 29> C 	 -17.2669 	 53.2986 	 64.0275
| 30> H 	 -17.938 	 52.5686 	 63.5088
| 31> H 	 -18.0067 	 53.8922 	 64.5328
| 32> C 	 -16.6243 	 52.4014 	 65.1283
| 33> H 	 -16.0499 	 51.5576 	 64.6739
| 34> H 	 -17.4358 	 51.9457 	 65.6402
| 35> C 	 -15.7152 	 53.1024 	 66.0886
| 36> H 	 -16.1685 	 54.0514 	 66.4308
| 37> H 	 -14.7476 	 53.3575 	 65.6453
| 38> H 	 -15.4908 	 52.554 	 66.9786
| 39> H 	 -17.2064 	 50.4202 	 58.6618
| 40> H 	 -14.7721 	 57.1161 	 63.086
| 41> *
| 42>
| 43>                          ****END OF INPUT****

CARTESIAN COORDINATES (ANGSTROEM)
---------------------------------
  S    -17.241900   52.739900   59.639200
  C    -16.762900   51.088100   59.384500
  C    -15.788000   50.698000   60.285600
  C    -15.423200   51.719900   61.206200
  C    -16.183400   52.858000   61.038000
  H    -14.710900   51.531200   62.042700
  C    -15.171800   49.310800   60.515300
  H    -15.456600   48.817000   59.602800
  H    -15.528400   48.778600   61.375600
  C    -13.663200   49.356800   60.718800
  H    -13.210300   50.171100   60.226600
  H    -13.476100   49.589400   61.752900
  C    -12.989100   48.097000   60.199800
  H    -13.044100   48.130700   59.122400
  H    -11.993200   48.082200   60.530500
  H    -13.592800   47.197500   60.444200
  S    -14.979700   55.315600   61.359300
  C    -15.199500   56.166500   62.860200
  C    -15.935600   55.417900   63.751000
  C    -16.440300   54.199100   63.213200
  C    -16.042200   54.013200   61.850800
  H    -16.064400   55.835300   64.705100
  C    -17.266900   53.298600   64.027500
  H    -17.938000   52.568600   63.508800
  H    -18.006700   53.892200   64.532800
  C    -16.624300   52.401400   65.128300
  H    -16.049900   51.557600   64.673900
  H    -17.435800   51.945700   65.640200
  C    -15.715200   53.102400   66.088600
  H    -16.168500   54.051400   66.430800
  H    -14.747600   53.357500   65.645300
  H    -15.490800   52.554000   66.978600
  H    -17.206400   50.420200   58.661800
  H    -14.772100   57.116100   63.086000

 Total Charge           Charge          ....    0
 Multiplicity           Mult            ....    1
 Number of Electrons    NEL             ....  134
 Basis Dimension        Dim             ....  322

ORBITAL ENERGIES
----------------

  NO   OCC          E(Eh)            E(eV)
   0   2.0000     -88.967767     -2420.9360
   1   2.0000     -88.963862     -2420.8298
   2   2.0000     -10.323924      -280.9283
   3   2.0000     -10.323138      -280.9069
   4   2.0000     -10.313559      -280.6462
   5   2.0000     -10.312368      -280.6138
   6   2.0000     -10.304760      -280.4068
   7   2.0000     -10.296965      -280.1947
   8   2.0000     -10.292893      -280.0839
   9   2.0000     -10.287575      -279.9392
  10   2.0000     -10.287523      -279.9377
  11   2.0000     -10.287122      -279.9268
  12   2.0000     -10.283951      -279.8405
  13   2.0000     -10.276528      -279.6385
  14   2.0000     -10.274645      -279.5873
  15   2.0000     -10.272001      -279.5154
  16   2.0000      -8.082382      -219.9328
  17   2.0000      -8.078692      -219.8324
  18   2.0000      -6.040837      -164.3795
  19   2.0000      -6.037065      -164.2769
  20   2.0000      -6.036922      -164.2730
  21   2.0000      -6.033196      -164.1716
  22   2.0000      -6.033110      -164.1693
  23   2.0000      -6.029676      -164.0758
  24   2.0000      -1.005753       -27.3679
  25   2.0000      -0.982859       -26.7449
  26   2.0000      -0.916663       -24.9437
  27   2.0000      -0.910330       -24.7713
  28   2.0000      -0.873670       -23.7738
  29   2.0000      -0.850655       -23.1475
  30   2.0000      -0.849237       -23.1089
  31   2.0000      -0.813225       -22.1290
  32   2.0000      -0.784497       -21.3472
  33   2.0000      -0.772040       -21.0083
  34   2.0000      -0.716439       -19.4953
  35   2.0000      -0.699950       -19.0466
  36   2.0000      -0.688708       -18.7407
  37   2.0000      -0.658612       -17.9217
  38   2.0000      -0.639948       -17.4139
  39   2.0000      -0.621150       -16.9023
  40   2.0000      -0.596768       -16.2389
  41   2.0000      -0.579214       -15.7612
  42   2.0000      -0.563738       -15.3401
  43   2.0000      -0.552906       -15.0453
  44   2.0000      -0.541934       -14.7468
  45   2.0000      -0.533222       -14.5097
  46   2.0000      -0.517219       -14.0742
  47   2.0000      -0.508387       -13.8339
  48   2.0000      -0.502115       -13.6632
  49   2.0000      -0.498185       -13.5563
  50   2.0000      -0.491507       -13.3746
  51   2.0000      -0.482411       -13.1271
  52   2.0000      -0.475315       -12.9340
  53   2.0000      -0.471710       -12.8359
  54   2.0000      -0.458595       -12.4790
  55   2.0000      -0.448737       -12.2108
  56   2.0000      -0.438995       -11.9457
  57   2.0000      -0.436962       -11.8903
  58   2.0000      -0.431121       -11.7314
  59   2.0000      -0.427852       -11.6425
  60   2.0000      -0.419908       -11.4263
  61   2.0000      -0.415218       -11.2986
  62   2.0000      -0.409827       -11.1519
  63   2.0000      -0.338434        -9.2092
  64   2.0000      -0.327341        -8.9074
  65   2.0000      -0.317484        -8.6392
  66   2.0000      -0.304656        -8.2901
  67   0.0000       0.041452         1.1280
  68   0.0000       0.055353         1.5062
  69   0.0000       0.114971         3.1285
  70   0.0000       0.125113         3.4045
  71   0.0000       0.128619         3.4999

MULLIKEN ATOMIC CHARGES
-----------------------
   0 S :    0.126357
   1 C :   -0.126724
   2 C :   -0.099546
   3 C :    0.028482
   4 C :   -0.177141
   5 H :    0.034930
   6 C :    0.089045
   7 H :    0.006158
   8 H :    0.043973
   9 C :   -0.097844
  10 H :    0.019509
  11 H :    0.021872
  12 C :   -0.013655
  13 H :    0.028299
  14 H :    0.030704
  15 H :    0.030399
  16 S :    0.116043
  17 C :   -0.087150
  18 C :   -0.026608
  19 C :    0.021521
  20 C :   -0.167371
  21 H :   -0.000909
  22 C :    0.036538
  23 H :    0.031616
  24 H :    0.018072
  25 C :   -0.055146
  26 H :    0.025024
  27 H :    0.019423
  28 C :   -0.046428
  29 H :    0.017190
  30 H :    0.037726
  31 H :    0.026189
  32 H :    0.042639
  33 H :    0.046812
Sum of atomic charges:   -0.0000000

LOEWDIN ATOMIC CHARGES
----------------------
   0 S :    0.413396
   1 C :   -0.203418
   2 C :   -0.064677
   3 C :   -0.054339
   4 C :   -0.202885
   5 H :    0.040353
   6 C :   -0.024996
   7 H :    0.023401
   8 H :    0.032827
   9 C :   -0.041470
  10 H :    0.018436
  11 H :    0.017524
  12 C :   -0.053328
  13 H :    0.026052
  14 H :    0.020464
  15 H :    0.027429
  16 S :    0.416157
  17 C :   -0.183838
  18 C :   -0.066196
  19 C :   -0.049639
  20 C :   -0.207795
  21 H :    0.023615
  22 C :   -0.040765
  23 H :    0.040079
  24 H :    0.029865
  25 C :   -0.035631
  26 H :    0.024254
  27 H :    0.020607
  28 C :   -0.070101
  29 H :    0.021819
  30 H :    0.027455
  31 H :    0.023150
  32 H :    0.027404
  33 H :    0.024791

  Mayer bond orders larger than 0.100000
B(  0-S ,  1-C ) :   1.1370 B(  0-S ,  4-C ) :   1.1470 B(  1-C ,  2-C ) :   1.6264
B(  1-C , 32-H ) :   0.9666 B(  2-C ,  3-C ) :   1.2418 B(  2-C ,  6-C ) :   1.0160
B(  3-C ,  4-C ) :   1.5780 B(  3-C ,  5-H ) :   0.9876 B(  4-C , 20-C ) :   1.0453
B(  6-C ,  7-H ) :   0.9439 B(  6-C ,  8-H ) :   0.9404 B(  6-C ,  9-C ) :   1.0549
B(  9-C , 10-H ) :   0.9628 B(  9-C , 11-H ) :   0.9498 B(  9-C , 12-C ) :   1.0833
B( 12-C , 13-H ) :   0.9748 B( 12-C , 14-H ) :   0.9723 B( 12-C , 15-H ) :   0.9748
B( 16-S , 17-C ) :   1.1655 B( 16-S , 20-C ) :   1.1581 B( 17-C , 18-C ) :   1.5955
B( 17-C , 20-C ) :   0.1031 B( 17-C , 33-H ) :   0.9697 B( 18-C , 19-C ) :   1.2439
B( 18-C , 21-H ) :   0.9999 B( 19-C , 20-C ) :   1.5504 B( 19-C , 22-C ) :   1.0573
B( 22-C , 23-H ) :   0.9321 B( 22-C , 24-H ) :   0.9311 B( 22-C , 25-C ) :   1.0810
B( 25-C , 26-H ) :   0.9513 B( 25-C , 27-H ) :   0.9518 B( 25-C , 28-C ) :   1.0948
B( 28-C , 29-H ) :   0.9702 B( 28-C , 30-H ) :   0.9678 B( 28-C , 31-H ) :   0.9696

Dispersion correction           -0.014586069
FINAL SINGLE POINT ENERGY     -1339.878831678676

DIPOLE MOMENT
-------------
                                X             Y             Z
Electronic contribution:     -7.88919      20.47297     -15.48821
Nuclear contribution   :      8.02298     -20.92004      16.00501
                        -----------------------------------------
Total Dipole Moment    :      0.13378      -0.44707       0.51680
                        -----------------------------------------
Magnitude (a.u.)       :      0.69631
Magnitude (Debye)      :      1.76988

Rotational constants in cm-1:     0.017735     0.008633     0.007297
Rotational constants in MHz :   531.670227   258.823983   218.759977

                             ****ORCA TERMINATED NORMALLY****
TOTAL RUN TIME: 0 days 0 hours 0 minutes 31 seconds 717 msec
