                         Program Version 4.2.1 -  RELEASE  -
|  1> ! wB97X-D3 SP def2-SVP
|  2> %pal
|  3> nprocs 16
|  4> end
|  5>
|  6> * xyz 0 1
|  7> S 	 11.4725 	 12.3931 	 82.3339
|  8> C 	 11.8249 	 12.098 	 80.6513
|  9> C 	 11.292 	 10.8839 	 80.1941
| 10> C 	 10.4714 	 10.2547 	 81.1887
| 11> C 	 10.5381 	 10.8843 	 82.466
| 12> H 	 9.80857 	 9.39723 	 80.9358
| 13> C 	 11.4076 	 10.353 	 78.7922
| 14> H 	 10.5299 	 9.85313 	 78.5927
| 15> H 	 12.1189 	 9.55725 	 78.7917
| 16> C 	 11.6375 	 11.2688 	 77.5803
| 17> H 	 12.5478 	 11.7752 	 77.6737
| 18> H 	 11.9335 	 10.7028 	 76.6483
| 19> C 	 10.4783 	 12.1982 	 77.2414
| 20> H 	 9.54198 	 11.6352 	 77.3503
| 21> H 	 10.5427 	 13.0552 	 77.8699
| 22> H 	 10.5268 	 12.6804 	 76.2428
| 23> S 	 8.90841 	 11.8702 	 84.4973
| 24> C 	 8.24143 	 10.6853 	 85.5513
| 25> C 	 8.78075 	 9.40839 	 85.3899
| 26> C 	 9.56029 	 9.3093 	 84.2081
| 27> C 	 9.81896 	 10.5533 	 83.652
| 28> H 	 8.48873 	 8.60151 	 86.0599
| 29> C 	 10.1034 	 7.92295 	 83.8017
| 30> H 	 11.1691 	 8.15101 	 83.8533
| 31> H 	 9.85616 	 7.8502 	 82.7447
| 32> C 	 10.0045 	 6.66845 	 84.6735
| 33> H 	 10.2528 	 7.03104 	 85.7151
| 34> H 	 10.8755 	 6.05037 	 84.3741
| 35> C 	 8.61001 	 5.94133 	 84.7197
| 36> H 	 8.35721 	 5.71357 	 83.7128
| 37> H 	 7.80101 	 6.53287 	 85.0832
| 38> H 	 8.6359 	 4.99741 	 85.3375
| 39> H 	 12.3614 	 12.7196 	 79.9442
| 40> H 	 7.54312 	 10.9217 	 86.2997
| 41> *
| 42>
| 43>                          ****END OF INPUT****

CARTESIAN COORDINATES (ANGSTROEM)
---------------------------------
  S     11.472500   12.393100   82.333900
  C     11.824900   12.098000   80.651300
  C     11.292000   10.883900   80.194100
  C     10.471400   10.254700   81.188700
  C     10.538100   10.884300   82.466000
  H      9.808570    9.397230   80.935800
  C     11.407600   10.353000   78.792200
  H     10.529900    9.853130   78.592700
  H     12.118900    9.557250   78.791700
  C     11.637500   11.268800   77.580300
  H     12.547800   11.775200   77.673700
  H     11.933500   10.702800   76.648300
  C     10.478300   12.198200   77.241400
  H      9.541980   11.635200   77.350300
  H     10.542700   13.055200   77.869900
  H     10.526800   12.680400   76.242800
  S      8.908410   11.870200   84.497300
  C      8.241430   10.685300   85.551300
  C      8.780750    9.408390   85.389900
  C      9.560290    9.309300   84.208100
  C      9.818960   10.553300   83.652000
  H      8.488730    8.601510   86.059900
  C     10.103400    7.922950   83.801700
  H     11.169100    8.151010   83.853300
  H      9.856160    7.850200   82.744700
  C     10.004500    6.668450   84.673500
  H     10.252800    7.031040   85.715100
  H     10.875500    6.050370   84.374100
  C      8.610010    5.941330   84.719700
  H      8.357210    5.713570   83.712800
  H      7.801010    6.532870   85.083200
  H      8.635900    4.997410   85.337500
  H     12.361400   12.719600   79.944200
  H      7.543120   10.921700   86.299700

 Total Charge           Charge          ....    0
 Multiplicity           Mult            ....    1
 Number of Electrons    NEL             ....  134
 Basis Dimension        Dim             ....  322

ORBITAL ENERGIES
----------------

  NO   OCC          E(Eh)            E(eV)
   0   2.0000     -88.967844     -2420.9381
   1   2.0000     -88.967293     -2420.9231
   2   2.0000     -10.332596      -281.1642
   3   2.0000     -10.325323      -280.9663
   4   2.0000     -10.313968      -280.6573
   5   2.0000     -10.311887      -280.6007
   6   2.0000     -10.306543      -280.4553
   7   2.0000     -10.303121      -280.3622
   8   2.0000     -10.301045      -280.3057
   9   2.0000     -10.300111      -280.2803
  10   2.0000     -10.294298      -280.1221
  11   2.0000     -10.292372      -280.0697
  12   2.0000     -10.286190      -279.9015
  13   2.0000     -10.284303      -279.8501
  14   2.0000     -10.282941      -279.8130
  15   2.0000     -10.276226      -279.6303
  16   2.0000      -8.081784      -219.9165
  17   2.0000      -8.081693      -219.9141
  18   2.0000      -6.040390      -164.3674
  19   2.0000      -6.040104      -164.3596
  20   2.0000      -6.036406      -164.2589
  21   2.0000      -6.036360      -164.2577
  22   2.0000      -6.032537      -164.1537
  23   2.0000      -6.032424      -164.1506
  24   2.0000      -1.000949       -27.2372
  25   2.0000      -0.977650       -26.6032
  26   2.0000      -0.913565       -24.8594
  27   2.0000      -0.907603       -24.6971
  28   2.0000      -0.867204       -23.5978
  29   2.0000      -0.852508       -23.1979
  30   2.0000      -0.844222       -22.9724
  31   2.0000      -0.806948       -21.9582
  32   2.0000      -0.790962       -21.5232
  33   2.0000      -0.776195       -21.1213
  34   2.0000      -0.711834       -19.3700
  35   2.0000      -0.709844       -19.3158
  36   2.0000      -0.696828       -18.9617
  37   2.0000      -0.658260       -17.9122
  38   2.0000      -0.629834       -17.1386
  39   2.0000      -0.610411       -16.6101
  40   2.0000      -0.594604       -16.1800
  41   2.0000      -0.573519       -15.6063
  42   2.0000      -0.560405       -15.2494
  43   2.0000      -0.550116       -14.9694
  44   2.0000      -0.537043       -14.6137
  45   2.0000      -0.531447       -14.4614
  46   2.0000      -0.520324       -14.1587
  47   2.0000      -0.510735       -13.8978
  48   2.0000      -0.504187       -13.7196
  49   2.0000      -0.497405       -13.5351
  50   2.0000      -0.492387       -13.3985
  51   2.0000      -0.478711       -13.0264
  52   2.0000      -0.475754       -12.9459
  53   2.0000      -0.464686       -12.6447
  54   2.0000      -0.459061       -12.4917
  55   2.0000      -0.449581       -12.2337
  56   2.0000      -0.444627       -12.0989
  57   2.0000      -0.440405       -11.9840
  58   2.0000      -0.434085       -11.8120
  59   2.0000      -0.428686       -11.6651
  60   2.0000      -0.423684       -11.5290
  61   2.0000      -0.413039       -11.2394
  62   2.0000      -0.408897       -11.1266
  63   2.0000      -0.348420        -9.4810
  64   2.0000      -0.332247        -9.0409
  65   2.0000      -0.327713        -8.9175
  66   2.0000      -0.277771        -7.5585
  67   0.0000       0.022706         0.6179
  68   0.0000       0.067540         1.8378
  69   0.0000       0.108123         2.9422
  70   0.0000       0.124826         3.3967
  71   0.0000       0.130552         3.5525

MULLIKEN ATOMIC CHARGES
-----------------------
   0 S :    0.109944
   1 C :   -0.112209
   2 C :   -0.110291
   3 C :   -0.008326
   4 C :   -0.155882
   5 H :    0.035450
   6 C :    0.119710
   7 H :   -0.006796
   8 H :    0.029056
   9 C :   -0.085886
  10 H :    0.006143
  11 H :    0.024560
  12 C :   -0.033767
  13 H :    0.038248
  14 H :    0.024804
  15 H :    0.033928
  16 S :    0.115734
  17 C :   -0.070765
  18 C :   -0.054736
  19 C :   -0.047839
  20 C :   -0.149913
  21 H :    0.024073
  22 C :    0.055758
  23 H :    0.046016
  24 H :    0.027517
  25 C :   -0.082444
  26 H :    0.033376
  27 H :    0.047510
  28 C :   -0.030912
  29 H :    0.021857
  30 H :    0.027462
  31 H :    0.047471
  32 H :    0.043071
  33 H :    0.038077
Sum of atomic charges:   -0.0000000

LOEWDIN ATOMIC CHARGES
----------------------
   0 S :    0.398912
   1 C :   -0.209403
   2 C :   -0.059372
   3 C :   -0.068377
   4 C :   -0.185511
   5 H :    0.035711
   6 C :   -0.027493
   7 H :    0.020023
   8 H :    0.035438
   9 C :   -0.047059
  10 H :    0.011677
  11 H :    0.033666
  12 C :   -0.064714
  13 H :    0.028760
  14 H :    0.021205
  15 H :    0.031326
  16 S :    0.397351
  17 C :   -0.177730
  18 C :   -0.078543
  19 C :   -0.041864
  20 C :   -0.198987
  21 H :    0.031929
  22 C :   -0.039558
  23 H :    0.046780
  24 H :    0.028550
  25 C :   -0.043201
  26 H :    0.029718
  27 H :    0.036486
  28 C :   -0.066646
  29 H :    0.020565
  30 H :    0.020424
  31 H :    0.035132
  32 H :    0.027481
  33 H :    0.017326

  Mayer bond orders larger than 0.100000
B(  0-S ,  1-C ) :   1.1309 B(  0-S ,  4-C ) :   1.1448 B(  1-C ,  2-C ) :   1.6103
B(  1-C , 32-H ) :   0.9601 B(  2-C ,  3-C ) :   1.2726 B(  2-C ,  6-C ) :   1.0092
B(  3-C ,  4-C ) :   1.5362 B(  3-C ,  5-H ) :   0.9762 B(  4-C , 20-C ) :   1.1033
B(  6-C ,  7-H ) :   0.9362 B(  6-C ,  8-H ) :   0.9212 B(  6-C ,  9-C ) :   1.0859
B(  9-C , 10-H ) :   0.9489 B(  9-C , 11-H ) :   0.9492 B(  9-C , 12-C ) :   1.0718
B( 12-C , 13-H ) :   0.9772 B( 12-C , 14-H ) :   0.9753 B( 12-C , 15-H ) :   0.9733
B( 16-S , 17-C ) :   1.1739 B( 16-S , 20-C ) :   1.1110 B( 17-C , 18-C ) :   1.5967
B( 17-C , 20-C ) :   0.1019 B( 17-C , 33-H ) :   0.9692 B( 18-C , 19-C ) :   1.2477
B( 18-C , 21-H ) :   0.9809 B( 19-C , 20-C ) :   1.6031 B( 19-C , 22-C ) :   1.0012
B( 22-C , 23-H ) :   0.9304 B( 22-C , 24-H ) :   0.9287 B( 22-C , 25-C ) :   1.0815
B( 25-C , 26-H ) :   0.9466 B( 25-C , 27-H ) :   0.9545 B( 25-C , 28-C ) :   1.0615
B( 28-C , 29-H ) :   0.9750 B( 28-C , 30-H ) :   0.9762 B( 28-C , 31-H ) :   0.9752

Dispersion correction           -0.013881424
FINAL SINGLE POINT ENERGY     -1339.861921259594

DIPOLE MOMENT
-------------
                                X             Y             Z
Electronic contribution:      0.45998      18.51587      15.24105
Nuclear contribution   :     -0.55047     -19.16089     -15.51933
                        -----------------------------------------
Total Dipole Moment    :     -0.09049      -0.64502      -0.27829
                        -----------------------------------------
Magnitude (a.u.)       :      0.70829
Magnitude (Debye)      :      1.80034

Rotational constants in cm-1:     0.021098     0.007345     0.005974
Rotational constants in MHz :   632.499607   220.202901   179.110860

                             ****ORCA TERMINATED NORMALLY****
TOTAL RUN TIME: 0 days 0 hours 0 minutes 33 seconds 739 msec
