                         Program Version 4.2.1 -  RELEASE  -
|  1> ! wB97X-D3 SP def2-SVP
|  2> %pal
|  3> nprocs 16
|  4> end
|  5>
|  6> * xyz 0 1
|  7> S 	 -40.7928 	 14.7117 	 79.0642
|  8> C 	 -39.361 	 14.667 	 78.0495
|  9> C 	 -39.5996 	 14.3013 	 76.7666
| 10> C 	 -41.0256 	 14.2007 	 76.5523
| 11> C 	 -41.7893 	 14.3716 	 77.6505
| 12> H 	 -41.467 	 13.9025 	 75.6632
| 13> C 	 -38.6293 	 14.1211 	 75.6787
| 14> H 	 -39.1235 	 13.853 	 74.7281
| 15> H 	 -37.9585 	 13.2582 	 75.7739
| 16> C 	 -37.756 	 15.3415 	 75.3741
| 17> H 	 -37.1757 	 15.6435 	 76.2561
| 18> H 	 -37.1138 	 15.0658 	 74.5613
| 19> C 	 -38.4076 	 16.6258 	 74.9674
| 20> H 	 -39.0216 	 16.47 	 74.0356
| 21> H 	 -38.9923 	 16.9238 	 75.8169
| 22> H 	 -37.61 	 17.3195 	 74.7316
| 23> S 	 -43.9808 	 15.5684 	 78.6485
| 24> C 	 -45.6082 	 15.2392 	 78.1696
| 25> C 	 -45.632 	 14.1489 	 77.2816
| 26> C 	 -44.291 	 13.6087 	 77.0725
| 27> C 	 -43.2521 	 14.2978 	 77.7547
| 28> H 	 -46.5397 	 13.7582 	 76.9281
| 29> C 	 -44.0339 	 12.4868 	 76.0555
| 30> H 	 -44.2362 	 11.4774 	 76.5708
| 31> H 	 -43.0142 	 12.4754 	 75.7292
| 32> C 	 -45.0521 	 12.4954 	 74.8467
| 33> H 	 -46.085 	 12.3678 	 75.2312
| 34> H 	 -44.8052 	 11.6704 	 74.0741
| 35> C 	 -44.9014 	 13.8258 	 74.0735
| 36> H 	 -45.1636 	 13.6619 	 73.0303
| 37> H 	 -43.9323 	 14.2849 	 74.1319
| 38> H 	 -45.6741 	 14.4017 	 74.4334
| 39> H 	 -38.4164 	 14.9942 	 78.4401
| 40> H 	 -46.4768 	 15.8348 	 78.3112
| 41> *
| 42>
| 43>                          ****END OF INPUT****

CARTESIAN COORDINATES (ANGSTROEM)
---------------------------------
  S    -40.792800   14.711700   79.064200
  C    -39.361000   14.667000   78.049500
  C    -39.599600   14.301300   76.766600
  C    -41.025600   14.200700   76.552300
  C    -41.789300   14.371600   77.650500
  H    -41.467000   13.902500   75.663200
  C    -38.629300   14.121100   75.678700
  H    -39.123500   13.853000   74.728100
  H    -37.958500   13.258200   75.773900
  C    -37.756000   15.341500   75.374100
  H    -37.175700   15.643500   76.256100
  H    -37.113800   15.065800   74.561300
  C    -38.407600   16.625800   74.967400
  H    -39.021600   16.470000   74.035600
  H    -38.992300   16.923800   75.816900
  H    -37.610000   17.319500   74.731600
  S    -43.980800   15.568400   78.648500
  C    -45.608200   15.239200   78.169600
  C    -45.632000   14.148900   77.281600
  C    -44.291000   13.608700   77.072500
  C    -43.252100   14.297800   77.754700
  H    -46.539700   13.758200   76.928100
  C    -44.033900   12.486800   76.055500
  H    -44.236200   11.477400   76.570800
  H    -43.014200   12.475400   75.729200
  C    -45.052100   12.495400   74.846700
  H    -46.085000   12.367800   75.231200
  H    -44.805200   11.670400   74.074100
  C    -44.901400   13.825800   74.073500
  H    -45.163600   13.661900   73.030300
  H    -43.932300   14.284900   74.131900
  H    -45.674100   14.401700   74.433400
  H    -38.416400   14.994200   78.440100
  H    -46.476800   15.834800   78.311200

 Total Charge           Charge          ....    0
 Multiplicity           Mult            ....    1
 Number of Electrons    NEL             ....  134
 Basis Dimension        Dim             ....  322

ORBITAL ENERGIES
----------------

  NO   OCC          E(Eh)            E(eV)
   0   2.0000     -88.966155     -2420.8922
   1   2.0000     -88.965829     -2420.8833
   2   2.0000     -10.331454      -281.1332
   3   2.0000     -10.329821      -281.0887
   4   2.0000     -10.319530      -280.8087
   5   2.0000     -10.313186      -280.6361
   6   2.0000     -10.312566      -280.6192
   7   2.0000     -10.299953      -280.2760
   8   2.0000     -10.298888      -280.2470
   9   2.0000     -10.297976      -280.2222
  10   2.0000     -10.297746      -280.2159
  11   2.0000     -10.292322      -280.0683
  12   2.0000     -10.287814      -279.9457
  13   2.0000     -10.280844      -279.7560
  14   2.0000     -10.272828      -279.5379
  15   2.0000     -10.265661      -279.3428
  16   2.0000      -8.081344      -219.9045
  17   2.0000      -8.080960      -219.8941
  18   2.0000      -6.039825      -164.3520
  19   2.0000      -6.039587      -164.3455
  20   2.0000      -6.035606      -164.2372
  21   2.0000      -6.035399      -164.2316
  22   2.0000      -6.032408      -164.1502
  23   2.0000      -6.031451      -164.1241
  24   2.0000      -1.010546       -27.4984
  25   2.0000      -0.987484       -26.8708
  26   2.0000      -0.919806       -25.0292
  27   2.0000      -0.903879       -24.5958
  28   2.0000      -0.873677       -23.7739
  29   2.0000      -0.854167       -23.2431
  30   2.0000      -0.841283       -22.8925
  31   2.0000      -0.821470       -22.3533
  32   2.0000      -0.786748       -21.4085
  33   2.0000      -0.773148       -21.0384
  34   2.0000      -0.705408       -19.1951
  35   2.0000      -0.699790       -19.0423
  36   2.0000      -0.690094       -18.7784
  37   2.0000      -0.659631       -17.9495
  38   2.0000      -0.645337       -17.5605
  39   2.0000      -0.620854       -16.8943
  40   2.0000      -0.597169       -16.2498
  41   2.0000      -0.588188       -16.0054
  42   2.0000      -0.554432       -15.0869
  43   2.0000      -0.551266       -15.0007
  44   2.0000      -0.547012       -14.8850
  45   2.0000      -0.536872       -14.6090
  46   2.0000      -0.526391       -14.3238
  47   2.0000      -0.513266       -13.9667
  48   2.0000      -0.506649       -13.7866
  49   2.0000      -0.502041       -13.6612
  50   2.0000      -0.498709       -13.5706
  51   2.0000      -0.476931       -12.9780
  52   2.0000      -0.472337       -12.8529
  53   2.0000      -0.467166       -12.7122
  54   2.0000      -0.463253       -12.6057
  55   2.0000      -0.447312       -12.1720
  56   2.0000      -0.440716       -11.9925
  57   2.0000      -0.438751       -11.9390
  58   2.0000      -0.432493       -11.7687
  59   2.0000      -0.424949       -11.5634
  60   2.0000      -0.416472       -11.3328
  61   2.0000      -0.410237       -11.1631
  62   2.0000      -0.406654       -11.0656
  63   2.0000      -0.355426        -9.6716
  64   2.0000      -0.332938        -9.0597
  65   2.0000      -0.325246        -8.8504
  66   2.0000      -0.292187        -7.9508
  67   0.0000       0.027634         0.7520
  68   0.0000       0.072515         1.9732
  69   0.0000       0.104310         2.8384
  70   0.0000       0.112954         3.0736
  71   0.0000       0.134335         3.6555

MULLIKEN ATOMIC CHARGES
-----------------------
   0 S :    0.105663
   1 C :   -0.134220
   2 C :   -0.051937
   3 C :    0.027030
   4 C :   -0.109986
   5 H :   -0.029330
   6 C :    0.090731
   7 H :    0.008817
   8 H :    0.039835
   9 C :   -0.113014
  10 H :    0.026599
  11 H :    0.021796
  12 C :   -0.041910
  13 H :    0.029771
  14 H :    0.042604
  15 H :    0.036758
  16 S :    0.104616
  17 C :   -0.071412
  18 C :   -0.030082
  19 C :   -0.065248
  20 C :   -0.119601
  21 H :    0.004430
  22 C :    0.053513
  23 H :    0.051317
  24 H :    0.017528
  25 C :   -0.152793
  26 H :    0.041210
  27 H :    0.046725
  28 C :   -0.000704
  29 H :    0.023068
  30 H :    0.040874
  31 H :    0.010864
  32 H :    0.042612
  33 H :    0.053874
Sum of atomic charges:    0.0000000

LOEWDIN ATOMIC CHARGES
----------------------
   0 S :    0.390743
   1 C :   -0.182632
   2 C :   -0.061983
   3 C :   -0.055434
   4 C :   -0.180984
   5 H :    0.015152
   6 C :   -0.037686
   7 H :    0.031063
   8 H :    0.038943
   9 C :   -0.043005
  10 H :    0.022187
  11 H :    0.020020
  12 C :   -0.062049
  13 H :    0.026125
  14 H :    0.024208
  15 H :    0.027971
  16 S :    0.439231
  17 C :   -0.189607
  18 C :   -0.065140
  19 C :   -0.054177
  20 C :   -0.215060
  21 H :    0.021856
  22 C :   -0.036424
  23 H :    0.042546
  24 H :    0.020189
  25 C :   -0.044902
  26 H :    0.022620
  27 H :    0.032179
  28 C :   -0.062483
  29 H :    0.025462
  30 H :    0.024918
  31 H :    0.015297
  32 H :    0.022208
  33 H :    0.028645

  Mayer bond orders larger than 0.100000
B(  0-S ,  1-C ) :   1.1272 B(  0-S ,  4-C ) :   1.1333 B(  1-C ,  2-C ) :   1.6304
B(  1-C , 32-H ) :   0.9702 B(  2-C ,  3-C ) :   1.2097 B(  2-C ,  6-C ) :   1.0291
B(  3-C ,  4-C ) :   1.6203 B(  3-C ,  5-H ) :   1.0023 B(  4-C , 20-C ) :   1.0141
B(  6-C ,  7-H ) :   0.9351 B(  6-C ,  8-H ) :   0.9292 B(  6-C ,  9-C ) :   1.0806
B(  9-C , 10-H ) :   0.9570 B(  9-C , 11-H ) :   0.9546 B(  9-C , 12-C ) :   1.0836
B( 12-C , 13-H ) :   0.9731 B( 12-C , 14-H ) :   0.9740 B( 12-C , 15-H ) :   0.9718
B( 16-S , 17-C ) :   1.1852 B( 16-S , 20-C ) :   1.1585 B( 17-C , 18-C ) :   1.5688
B( 17-C , 33-H ) :   0.9696 B( 18-C , 19-C ) :   1.2751 B( 18-C , 21-H ) :   0.9946
B( 19-C , 20-C ) :   1.5571 B( 19-C , 22-C ) :   1.0279 B( 22-C , 23-H ) :   0.9323
B( 22-C , 24-H ) :   0.9515 B( 22-C , 25-C ) :   1.0702 B( 25-C , 26-H ) :   0.9552
B( 25-C , 27-H ) :   0.9638 B( 25-C , 28-C ) :   1.0594 B( 28-C , 29-H ) :   0.9751
B( 28-C , 30-H ) :   0.9790 B( 28-C , 31-H ) :   0.9708

Dispersion correction           -0.014626692
FINAL SINGLE POINT ENERGY     -1339.868479015535

DIPOLE MOMENT
-------------
                                X             Y             Z
Electronic contribution:     -5.53320       3.17970      25.18144
Nuclear contribution   :      5.55035      -3.32267     -25.86897
                        -----------------------------------------
Total Dipole Moment    :      0.01715      -0.14297      -0.68753
                        -----------------------------------------
Magnitude (a.u.)       :      0.70245
Magnitude (Debye)      :      1.78548

Rotational constants in cm-1:     0.020006     0.008616     0.006923
Rotational constants in MHz :   599.777788   258.294768   207.537038

                             ****ORCA TERMINATED NORMALLY****
TOTAL RUN TIME: 0 days 0 hours 0 minutes 31 seconds 58 msec
