                         Program Version 4.2.1 -  RELEASE  -
|  1> ! wB97X-D3 SP def2-SVP
|  2> %pal
|  3> nprocs 16
|  4> end
|  5>
|  6> * xyz 0 1
|  7> S 	 -100.266 	 53.3115 	 116.57
|  8> C 	 -98.5607 	 53.342 	 116.559
|  9> C 	 -98.1002 	 53.6879 	 117.821
| 10> C 	 -99.1386 	 53.57 	 118.786
| 11> C 	 -100.347 	 53.2151 	 118.295
| 12> H 	 -98.9998 	 53.7789 	 119.88
| 13> C 	 -96.6474 	 53.9747 	 118.271
| 14> H 	 -96.0182 	 53.9181 	 117.414
| 15> H 	 -96.3606 	 53.2093 	 119.032
| 16> C 	 -96.5045 	 55.2758 	 119.007
| 17> H 	 -97.0168 	 55.2336 	 119.995
| 18> H 	 -95.441 	 55.4818 	 119.122
| 19> C 	 -97.0614 	 56.4865 	 118.218
| 20> H 	 -96.9803 	 57.3074 	 118.931
| 21> H 	 -96.4348 	 56.7395 	 117.372
| 22> H 	 -98.0512 	 56.3316 	 117.84
| 23> S 	 -101.728 	 51.5085 	 119.974
| 24> C 	 -103.21 	 52.1142 	 120.691
| 25> C 	 -103.293 	 53.4884 	 120.495
| 26> C 	 -102.497 	 53.9506 	 119.45
| 27> C 	 -101.519 	 53.0476 	 119.151
| 28> H 	 -104.02 	 54.1424 	 120.933
| 29> C 	 -102.503 	 55.3975 	 118.931
| 30> H 	 -103.522 	 55.788 	 118.886
| 31> H 	 -102.242 	 55.4045 	 117.918
| 32> C 	 -101.687 	 56.3653 	 119.701
| 33> H 	 -100.639 	 56.136 	 119.538
| 34> H 	 -101.741 	 56.2497 	 120.738
| 35> C 	 -102.104 	 57.8526 	 119.562
| 36> H 	 -103.184 	 57.9265 	 119.463
| 37> H 	 -101.663 	 58.1313 	 118.608
| 38> H 	 -101.617 	 58.6427 	 120.209
| 39> H 	 -97.8661 	 53.215 	 115.726
| 40> H 	 -103.802 	 51.7119 	 121.548
| 41> *
| 42>
| 43>                          ****END OF INPUT****

CARTESIAN COORDINATES (ANGSTROEM)
---------------------------------
  S    -100.266000   53.311500  116.570000
  C    -98.560700   53.342000  116.559000
  C    -98.100200   53.687900  117.821000
  C    -99.138600   53.570000  118.786000
  C    -100.347000   53.215100  118.295000
  H    -98.999800   53.778900  119.880000
  C    -96.647400   53.974700  118.271000
  H    -96.018200   53.918100  117.414000
  H    -96.360600   53.209300  119.032000
  C    -96.504500   55.275800  119.007000
  H    -97.016800   55.233600  119.995000
  H    -95.441000   55.481800  119.122000
  C    -97.061400   56.486500  118.218000
  H    -96.980300   57.307400  118.931000
  H    -96.434800   56.739500  117.372000
  H    -98.051200   56.331600  117.840000
  S    -101.728000   51.508500  119.974000
  C    -103.210000   52.114200  120.691000
  C    -103.293000   53.488400  120.495000
  C    -102.497000   53.950600  119.450000
  C    -101.519000   53.047600  119.151000
  H    -104.020000   54.142400  120.933000
  C    -102.503000   55.397500  118.931000
  H    -103.522000   55.788000  118.886000
  H    -102.242000   55.404500  117.918000
  C    -101.687000   56.365300  119.701000
  H    -100.639000   56.136000  119.538000
  H    -101.741000   56.249700  120.738000
  C    -102.104000   57.852600  119.562000
  H    -103.184000   57.926500  119.463000
  H    -101.663000   58.131300  118.608000
  H    -101.617000   58.642700  120.209000
  H    -97.866100   53.215000  115.726000
  H    -103.802000   51.711900  121.548000

 Total Charge           Charge          ....    0
 Multiplicity           Mult            ....    1
 Number of Electrons    NEL             ....  134
 Basis Dimension        Dim             ....  322

ORBITAL ENERGIES
----------------

  NO   OCC          E(Eh)            E(eV)
   0   2.0000     -88.969446     -2420.9817
   1   2.0000     -88.965847     -2420.8838
   2   2.0000     -10.323585      -280.9190
   3   2.0000     -10.322292      -280.8838
   4   2.0000     -10.319165      -280.7988
   5   2.0000     -10.314126      -280.6616
   6   2.0000     -10.299420      -280.2615
   7   2.0000     -10.296541      -280.1831
   8   2.0000     -10.291919      -280.0573
   9   2.0000     -10.291156      -280.0366
  10   2.0000     -10.289755      -279.9985
  11   2.0000     -10.287898      -279.9479
  12   2.0000     -10.285786      -279.8905
  13   2.0000     -10.281628      -279.7773
  14   2.0000     -10.275463      -279.6096
  15   2.0000     -10.271377      -279.4984
  16   2.0000      -8.083728      -219.9694
  17   2.0000      -8.081426      -219.9068
  18   2.0000      -6.042293      -164.4192
  19   2.0000      -6.039954      -164.3555
  20   2.0000      -6.038353      -164.3119
  21   2.0000      -6.035934      -164.2461
  22   2.0000      -6.034379      -164.2038
  23   2.0000      -6.031989      -164.1388
  24   2.0000      -1.015425       -27.6311
  25   2.0000      -0.992966       -27.0200
  26   2.0000      -0.915113       -24.9015
  27   2.0000      -0.914440       -24.8832
  28   2.0000      -0.871887       -23.7252
  29   2.0000      -0.852478       -23.1971
  30   2.0000      -0.844149       -22.9705
  31   2.0000      -0.812890       -22.1199
  32   2.0000      -0.785587       -21.3769
  33   2.0000      -0.776285       -21.1238
  34   2.0000      -0.707478       -19.2514
  35   2.0000      -0.700102       -19.0508
  36   2.0000      -0.689750       -18.7691
  37   2.0000      -0.666372       -18.1329
  38   2.0000      -0.635402       -17.2902
  39   2.0000      -0.622299       -16.9336
  40   2.0000      -0.600513       -16.3408
  41   2.0000      -0.568512       -15.4700
  42   2.0000      -0.565705       -15.3936
  43   2.0000      -0.551120       -14.9967
  44   2.0000      -0.548040       -14.9129
  45   2.0000      -0.527097       -14.3430
  46   2.0000      -0.518440       -14.1075
  47   2.0000      -0.510350       -13.8873
  48   2.0000      -0.505584       -13.7576
  49   2.0000      -0.500905       -13.6303
  50   2.0000      -0.484506       -13.1841
  51   2.0000      -0.482435       -13.1277
  52   2.0000      -0.471416       -12.8279
  53   2.0000      -0.467457       -12.7202
  54   2.0000      -0.457964       -12.4618
  55   2.0000      -0.455847       -12.4042
  56   2.0000      -0.446761       -12.1570
  57   2.0000      -0.440365       -11.9829
  58   2.0000      -0.430183       -11.7059
  59   2.0000      -0.428068       -11.6483
  60   2.0000      -0.421078       -11.4581
  61   2.0000      -0.415102       -11.2955
  62   2.0000      -0.398989       -10.8570
  63   2.0000      -0.337977        -9.1968
  64   2.0000      -0.333791        -9.0829
  65   2.0000      -0.323454        -8.8016
  66   2.0000      -0.305214        -8.3053
  67   0.0000       0.043552         1.1851
  68   0.0000       0.049854         1.3566
  69   0.0000       0.107474         2.9245
  70   0.0000       0.121797         3.3143
  71   0.0000       0.126843         3.4516

MULLIKEN ATOMIC CHARGES
-----------------------
   0 S :    0.127300
   1 C :   -0.122772
   2 C :   -0.118807
   3 C :    0.003550
   4 C :   -0.147089
   5 H :    0.033464
   6 C :    0.114786
   7 H :    0.004417
   8 H :    0.044804
   9 C :   -0.115544
  10 H :    0.039455
  11 H :    0.034997
  12 C :   -0.046680
  13 H :    0.030156
  14 H :    0.022941
  15 H :    0.047400
  16 S :    0.126787
  17 C :   -0.089795
  18 C :   -0.045764
  19 C :   -0.041197
  20 C :   -0.197185
  21 H :    0.011644
  22 C :    0.134088
  23 H :    0.004035
  24 H :   -0.000422
  25 C :   -0.041300
  26 H :    0.019094
  27 H :    0.005251
  28 C :   -0.065073
  29 H :    0.036368
  30 H :    0.018836
  31 H :    0.048147
  32 H :    0.050044
  33 H :    0.074061
Sum of atomic charges:    0.0000000

LOEWDIN ATOMIC CHARGES
----------------------
   0 S :    0.428683
   1 C :   -0.212159
   2 C :   -0.068971
   3 C :   -0.067862
   4 C :   -0.209259
   5 H :    0.037603
   6 C :   -0.029055
   7 H :    0.021232
   8 H :    0.039447
   9 C :   -0.043940
  10 H :    0.025649
  11 H :    0.028283
  12 C :   -0.062524
  13 H :    0.026577
  14 H :    0.022330
  15 H :    0.021283
  16 S :    0.413049
  17 C :   -0.201586
  18 C :   -0.062426
  19 C :   -0.055050
  20 C :   -0.190562
  21 H :    0.027138
  22 C :   -0.022664
  23 H :    0.028224
  24 H :    0.020603
  25 C :   -0.043616
  26 H :    0.024828
  27 H :    0.015198
  28 C :   -0.071027
  29 H :    0.024426
  30 H :    0.023518
  31 H :    0.036706
  32 H :    0.034400
  33 H :    0.041523

  Mayer bond orders larger than 0.100000
B(  0-S ,  1-C ) :   1.1538 B(  0-S ,  4-C ) :   1.1398 B(  1-C ,  2-C ) :   1.5936
B(  1-C , 32-H ) :   0.9674 B(  2-C ,  3-C ) :   1.2411 B(  2-C ,  6-C ) :   1.0223
B(  3-C ,  4-C ) :   1.5904 B(  3-C ,  5-H ) :   0.9844 B(  4-C , 20-C ) :   1.0171
B(  6-C ,  7-H ) :   0.9361 B(  6-C ,  8-H ) :   0.9441 B(  6-C ,  9-C ) :   1.0785
B(  9-C , 10-H ) :   0.9545 B(  9-C , 11-H ) :   0.9544 B(  9-C , 12-C ) :   1.0771
B( 12-C , 13-H ) :   0.9758 B( 12-C , 14-H ) :   0.9750 B( 12-C , 15-H ) :   0.9718
B( 16-S , 17-C ) :   1.1441 B( 16-S , 20-C ) :   1.1560 B( 17-C , 18-C ) :   1.6126
B( 17-C , 20-C ) :   0.1073 B( 17-C , 33-H ) :   0.9572 B( 18-C , 19-C ) :   1.2643
B( 18-C , 21-H ) :   0.9780 B( 19-C , 20-C ) :   1.6032 B( 19-C , 22-C ) :   1.0563
B( 22-C , 23-H ) :   0.9262 B( 22-C , 24-H ) :   0.9136 B( 22-C , 25-C ) :   1.0654
B( 25-C , 26-H ) :   0.9471 B( 25-C , 27-H ) :   0.9560 B( 25-C , 28-C ) :   1.0620
B( 28-C , 29-H ) :   0.9742 B( 28-C , 30-H ) :   0.9765 B( 28-C , 31-H ) :   0.9748

Dispersion correction           -0.015719644
FINAL SINGLE POINT ENERGY     -1339.857049476997

DIPOLE MOMENT
-------------
                                X             Y             Z
Electronic contribution:    -10.38440     -25.53627      -4.74884
Nuclear contribution   :     10.74599      26.09237       5.04008
                        -----------------------------------------
Total Dipole Moment    :      0.36159       0.55611       0.29124
                        -----------------------------------------
Magnitude (a.u.)       :      0.72444
Magnitude (Debye)      :      1.84139

Rotational constants in cm-1:     0.017375     0.010103     0.007954
Rotational constants in MHz :   520.893640   302.884961   238.455008

                             ****ORCA TERMINATED NORMALLY****
TOTAL RUN TIME: 0 days 0 hours 0 minutes 37 seconds 381 msec
