                         Program Version 4.2.1 -  RELEASE  -
|  1> ! wB97X-D3 SP def2-SVP
|  2> %pal
|  3> nprocs 16
|  4> end
|  5>
|  6> * xyz 0 1
|  7> S 	 -74.1562 	 47.0776 	 119.479
|  8> C 	 -75.6717 	 46.2887 	 119.606
|  9> C 	 -76.1547 	 46.1628 	 120.941
| 10> C 	 -75.2008 	 46.7946 	 121.854
| 11> C 	 -74.0376 	 47.3021 	 121.27
| 12> H 	 -75.2728 	 46.7362 	 122.951
| 13> C 	 -77.3221 	 45.211 	 121.373
| 14> H 	 -78.0965 	 45.3028 	 120.585
| 15> H 	 -77.8905 	 45.3488 	 122.353
| 16> C 	 -76.8275 	 43.7521 	 121.425
| 17> H 	 -76.0133 	 43.6383 	 122.078
| 18> H 	 -77.5298 	 43.2166 	 122.057
| 19> C 	 -76.516 	 43.1097 	 120.056
| 20> H 	 -75.8065 	 43.7276 	 119.524
| 21> H 	 -76.3199 	 42.0105 	 120.07
| 22> H 	 -77.4002 	 43.1313 	 119.489
| 23> S 	 -72.2859 	 46.9473 	 123.331
| 24> C 	 -71.336 	 48.2798 	 123.886
| 25> C 	 -71.4532 	 49.3114 	 122.995
| 26> C 	 -72.4399 	 49.1418 	 121.98
| 27> C 	 -73.0294 	 47.9321 	 122.085
| 28> H 	 -70.815 	 50.1902 	 123.158
| 29> C 	 -72.657 	 50.0959 	 120.888
| 30> H 	 -73.1029 	 49.6252 	 120.054
| 31> H 	 -71.6323 	 50.3361 	 120.652
| 32> C 	 -73.2845 	 51.3642 	 121.38
| 33> H 	 -72.8194 	 51.9312 	 122.194
| 34> H 	 -74.2248 	 51.0992 	 121.744
| 35> C 	 -73.3809 	 52.4423 	 120.314
| 36> H 	 -73.9804 	 53.2924 	 120.669
| 37> H 	 -73.7273 	 52.0554 	 119.309
| 38> H 	 -72.3963 	 52.905 	 120.1
| 39> H 	 -76.1696 	 45.8505 	 118.716
| 40> H 	 -70.5569 	 48.1026 	 124.591
| 41> *
| 42>
| 43>                          ****END OF INPUT****

CARTESIAN COORDINATES (ANGSTROEM)
---------------------------------
  S    -74.156200   47.077600  119.479000
  C    -75.671700   46.288700  119.606000
  C    -76.154700   46.162800  120.941000
  C    -75.200800   46.794600  121.854000
  C    -74.037600   47.302100  121.270000
  H    -75.272800   46.736200  122.951000
  C    -77.322100   45.211000  121.373000
  H    -78.096500   45.302800  120.585000
  H    -77.890500   45.348800  122.353000
  C    -76.827500   43.752100  121.425000
  H    -76.013300   43.638300  122.078000
  H    -77.529800   43.216600  122.057000
  C    -76.516000   43.109700  120.056000
  H    -75.806500   43.727600  119.524000
  H    -76.319900   42.010500  120.070000
  H    -77.400200   43.131300  119.489000
  S    -72.285900   46.947300  123.331000
  C    -71.336000   48.279800  123.886000
  C    -71.453200   49.311400  122.995000
  C    -72.439900   49.141800  121.980000
  C    -73.029400   47.932100  122.085000
  H    -70.815000   50.190200  123.158000
  C    -72.657000   50.095900  120.888000
  H    -73.102900   49.625200  120.054000
  H    -71.632300   50.336100  120.652000
  C    -73.284500   51.364200  121.380000
  H    -72.819400   51.931200  122.194000
  H    -74.224800   51.099200  121.744000
  C    -73.380900   52.442300  120.314000
  H    -73.980400   53.292400  120.669000
  H    -73.727300   52.055400  119.309000
  H    -72.396300   52.905000  120.100000
  H    -76.169600   45.850500  118.716000
  H    -70.556900   48.102600  124.591000

 Total Charge           Charge          ....    0
 Multiplicity           Mult            ....    1
 Number of Electrons    NEL             ....  134
 Basis Dimension        Dim             ....  322

ORBITAL ENERGIES
----------------

  NO   OCC          E(Eh)            E(eV)
   0   2.0000     -88.973639     -2421.0958
   1   2.0000     -88.959533     -2420.7120
   2   2.0000     -10.331831      -281.1434
   3   2.0000     -10.323327      -280.9120
   4   2.0000     -10.318545      -280.7819
   5   2.0000     -10.314144      -280.6621
   6   2.0000     -10.311963      -280.6028
   7   2.0000     -10.306840      -280.4634
   8   2.0000     -10.299784      -280.2714
   9   2.0000     -10.293619      -280.1036
  10   2.0000     -10.293048      -280.0881
  11   2.0000     -10.281204      -279.7658
  12   2.0000     -10.280844      -279.7560
  13   2.0000     -10.279565      -279.7212
  14   2.0000     -10.276752      -279.6446
  15   2.0000     -10.273992      -279.5695
  16   2.0000      -8.087230      -220.0647
  17   2.0000      -8.075067      -219.7338
  18   2.0000      -6.045815      -164.5150
  19   2.0000      -6.041864      -164.4075
  20   2.0000      -6.038019      -164.3028
  21   2.0000      -6.033501      -164.1799
  22   2.0000      -6.029549      -164.0724
  23   2.0000      -6.025762      -163.9693
  24   2.0000      -1.009663       -27.4743
  25   2.0000      -0.981379       -26.7047
  26   2.0000      -0.921899       -25.0861
  27   2.0000      -0.906596       -24.6697
  28   2.0000      -0.873612       -23.7722
  29   2.0000      -0.854775       -23.2596
  30   2.0000      -0.841033       -22.8857
  31   2.0000      -0.807820       -21.9819
  32   2.0000      -0.783563       -21.3218
  33   2.0000      -0.775252       -21.0957
  34   2.0000      -0.707891       -19.2627
  35   2.0000      -0.702985       -19.1292
  36   2.0000      -0.692558       -18.8455
  37   2.0000      -0.667894       -18.1743
  38   2.0000      -0.637913       -17.3585
  39   2.0000      -0.615070       -16.7369
  40   2.0000      -0.600688       -16.3455
  41   2.0000      -0.570364       -15.5204
  42   2.0000      -0.566983       -15.4284
  43   2.0000      -0.541775       -14.7424
  44   2.0000      -0.537389       -14.6231
  45   2.0000      -0.531162       -14.4537
  46   2.0000      -0.519047       -14.1240
  47   2.0000      -0.513587       -13.9754
  48   2.0000      -0.508496       -13.8369
  49   2.0000      -0.491378       -13.3711
  50   2.0000      -0.484834       -13.1930
  51   2.0000      -0.481856       -13.1120
  52   2.0000      -0.476112       -12.9557
  53   2.0000      -0.462188       -12.5768
  54   2.0000      -0.458265       -12.4700
  55   2.0000      -0.447281       -12.1711
  56   2.0000      -0.442884       -12.0515
  57   2.0000      -0.442218       -12.0334
  58   2.0000      -0.434268       -11.8170
  59   2.0000      -0.424995       -11.5647
  60   2.0000      -0.417852       -11.3703
  61   2.0000      -0.412683       -11.2297
  62   2.0000      -0.410334       -11.1658
  63   2.0000      -0.348170        -9.4742
  64   2.0000      -0.329649        -8.9702
  65   2.0000      -0.324834        -8.8392
  66   2.0000      -0.294147        -8.0041
  67   0.0000       0.033340         0.9072
  68   0.0000       0.065416         1.7801
  69   0.0000       0.103172         2.8075
  70   0.0000       0.115423         3.1408
  71   0.0000       0.127160         3.4602

MULLIKEN ATOMIC CHARGES
-----------------------
   0 S :    0.123699
   1 C :   -0.155081
   2 C :   -0.056067
   3 C :   -0.000016
   4 C :   -0.144600
   5 H :    0.029971
   6 C :    0.002468
   7 H :    0.032259
   8 H :    0.048664
   9 C :   -0.035536
  10 H :    0.011169
  11 H :    0.011444
  12 C :   -0.034462
  13 H :    0.040971
  14 H :    0.042389
  15 H :    0.004265
  16 S :    0.095514
  17 C :   -0.083532
  18 C :   -0.052759
  19 C :   -0.035910
  20 C :   -0.183367
  21 H :    0.023411
  22 C :    0.157601
  23 H :    0.001613
  24 H :    0.014050
  25 C :   -0.068400
  26 H :    0.030239
  27 H :    0.015204
  28 C :   -0.058911
  29 H :    0.036455
  30 H :    0.033653
  31 H :    0.024311
  32 H :    0.073669
  33 H :    0.055624
Sum of atomic charges:   -0.0000000

LOEWDIN ATOMIC CHARGES
----------------------
   0 S :    0.404825
   1 C :   -0.215608
   2 C :   -0.061558
   3 C :   -0.056495
   4 C :   -0.190611
   5 H :    0.032693
   6 C :   -0.035395
   7 H :    0.030447
   8 H :    0.042736
   9 C :   -0.041894
  10 H :    0.017791
  11 H :    0.022538
  12 C :   -0.066549
  13 H :    0.025198
  14 H :    0.035605
  15 H :    0.015196
  16 S :    0.407842
  17 C :   -0.186727
  18 C :   -0.069824
  19 C :   -0.056702
  20 C :   -0.195028
  21 H :    0.032709
  22 C :   -0.021961
  23 H :    0.017901
  24 H :    0.035636
  25 C :   -0.038061
  26 H :    0.030938
  27 H :    0.017267
  28 C :   -0.070253
  29 H :    0.027652
  30 H :    0.026433
  31 H :    0.023245
  32 H :    0.034707
  33 H :    0.025307

  Mayer bond orders larger than 0.100000
B(  0-S ,  1-C ) :   1.1627 B(  0-S ,  4-C ) :   1.1118 B(  1-C ,  2-C ) :   1.5817
B(  1-C , 32-H ) :   0.9538 B(  2-C ,  3-C ) :   1.2512 B(  2-C ,  6-C ) :   1.0209
B(  3-C ,  4-C ) :   1.5723 B(  3-C ,  5-H ) :   0.9849 B(  4-C , 20-C ) :   1.0640
B(  6-C ,  7-H ) :   0.9463 B(  6-C ,  8-H ) :   0.9524 B(  6-C ,  9-C ) :   1.0612
B(  9-C , 10-H ) :   0.9519 B(  9-C , 11-H ) :   0.9533 B(  9-C , 12-C ) :   1.0695
B( 12-C , 13-H ) :   0.9703 B( 12-C , 14-H ) :   0.9707 B( 12-C , 15-H ) :   0.9737
B( 16-S , 17-C ) :   1.1527 B( 16-S , 20-C ) :   1.1382 B( 17-C , 18-C ) :   1.6144
B( 17-C , 33-H ) :   0.9712 B( 18-C , 19-C ) :   1.2215 B( 18-C , 21-H ) :   0.9863
B( 19-C , 20-C ) :   1.6022 B( 19-C , 22-C ) :   1.0498 B( 22-C , 23-H ) :   0.9231
B( 22-C , 24-H ) :   0.9193 B( 22-C , 25-C ) :   1.0576 B( 25-C , 26-H ) :   0.9561
B( 25-C , 27-H ) :   0.9527 B( 25-C , 28-C ) :   1.0876 B( 28-C , 29-H ) :   0.9734
B( 28-C , 30-H ) :   0.9717 B( 28-C , 31-H ) :   0.9742

Dispersion correction           -0.014315128
FINAL SINGLE POINT ENERGY     -1339.863809361434

DIPOLE MOMENT
-------------
                                X             Y             Z
Electronic contribution:     10.86138      -3.37486       4.72059
Nuclear contribution   :    -10.96029       3.40905      -4.65784
                        -----------------------------------------
Total Dipole Moment    :     -0.09891       0.03418       0.06275
                        -----------------------------------------
Magnitude (a.u.)       :      0.12202
Magnitude (Debye)      :      0.31015

Rotational constants in cm-1:     0.021854     0.007982     0.006506
Rotational constants in MHz :   655.167250   239.305397   195.044322

                             ****ORCA TERMINATED NORMALLY****
TOTAL RUN TIME: 0 days 0 hours 0 minutes 35 seconds 379 msec
