                         Program Version 4.2.1 -  RELEASE  -
|  1> ! wB97X-D3 SP def2-SVP
|  2> %pal
|  3> nprocs 16
|  4> end
|  5>
|  6> * xyz 0 1
|  7> S 	 -21.9754 	 -1.34666 	 78.3731
|  8> C 	 -20.5459 	 -2.28474 	 78.3472
|  9> C 	 -20.3469 	 -2.73765 	 77.0702
| 10> C 	 -21.4399 	 -2.48913 	 76.1901
| 11> C 	 -22.5202 	 -1.93778 	 76.8357
| 12> H 	 -21.5079 	 -2.87232 	 75.1058
| 13> C 	 -19.1588 	 -3.48479 	 76.6642
| 14> H 	 -18.8555 	 -4.01482 	 77.5254
| 15> H 	 -18.4301 	 -2.73261 	 76.5186
| 16> C 	 -19.2097 	 -4.44184 	 75.5168
| 17> H 	 -19.1733 	 -3.88203 	 74.6051
| 18> H 	 -18.2067 	 -4.91828 	 75.3652
| 19> C 	 -20.2158 	 -5.54515 	 75.4836
| 20> H 	 -21.1961 	 -5.06906 	 75.5676
| 21> H 	 -20.2311 	 -6.01486 	 74.499
| 22> H 	 -20.1425 	 -6.20269 	 76.3252
| 23> S 	 -23.9814 	 0.227269 	 76.163
| 24> C 	 -25.4019 	 0.0613375 	 75.1737
| 25> C 	 -25.6322 	 -1.26772 	 74.8266
| 26> C 	 -24.705 	 -2.16536 	 75.4677
| 27> C 	 -23.8105 	 -1.53679 	 76.3008
| 28> H 	 -26.5055 	 -1.43737 	 74.1912
| 29> C 	 -24.7889 	 -3.66531 	 75.1275
| 30> H 	 -23.7913 	 -3.80789 	 74.7152
| 31> H 	 -25.4413 	 -3.83046 	 74.2205
| 32> C 	 -25.1666 	 -4.52777 	 76.3292
| 33> H 	 -26.0297 	 -4.13996 	 76.86
| 34> H 	 -24.4078 	 -4.4791 	 77.0841
| 35> C 	 -25.5528 	 -5.9571 	 75.9884
| 36> H 	 -24.7506 	 -6.41461 	 75.5296
| 37> H 	 -26.4352 	 -5.94669 	 75.3093
| 38> H 	 -25.6541 	 -6.53963 	 76.9429
| 39> H 	 -19.8229 	 -2.36761 	 79.1588
| 40> H 	 -26.0175 	 0.939725 	 74.9143
| 41> *
| 42>
| 43>                          ****END OF INPUT****

CARTESIAN COORDINATES (ANGSTROEM)
---------------------------------
  S    -21.975400   -1.346660   78.373100
  C    -20.545900   -2.284740   78.347200
  C    -20.346900   -2.737650   77.070200
  C    -21.439900   -2.489130   76.190100
  C    -22.520200   -1.937780   76.835700
  H    -21.507900   -2.872320   75.105800
  C    -19.158800   -3.484790   76.664200
  H    -18.855500   -4.014820   77.525400
  H    -18.430100   -2.732610   76.518600
  C    -19.209700   -4.441840   75.516800
  H    -19.173300   -3.882030   74.605100
  H    -18.206700   -4.918280   75.365200
  C    -20.215800   -5.545150   75.483600
  H    -21.196100   -5.069060   75.567600
  H    -20.231100   -6.014860   74.499000
  H    -20.142500   -6.202690   76.325200
  S    -23.981400    0.227269   76.163000
  C    -25.401900    0.061338   75.173700
  C    -25.632200   -1.267720   74.826600
  C    -24.705000   -2.165360   75.467700
  C    -23.810500   -1.536790   76.300800
  H    -26.505500   -1.437370   74.191200
  C    -24.788900   -3.665310   75.127500
  H    -23.791300   -3.807890   74.715200
  H    -25.441300   -3.830460   74.220500
  C    -25.166600   -4.527770   76.329200
  H    -26.029700   -4.139960   76.860000
  H    -24.407800   -4.479100   77.084100
  C    -25.552800   -5.957100   75.988400
  H    -24.750600   -6.414610   75.529600
  H    -26.435200   -5.946690   75.309300
  H    -25.654100   -6.539630   76.942900
  H    -19.822900   -2.367610   79.158800
  H    -26.017500    0.939725   74.914300

 Total Charge           Charge          ....    0
 Multiplicity           Mult            ....    1
 Number of Electrons    NEL             ....  134
 Basis Dimension        Dim             ....  322

ORBITAL ENERGIES
----------------

  NO   OCC          E(Eh)            E(eV)
   0   2.0000     -88.961232     -2420.7582
   1   2.0000     -88.960019     -2420.7252
   2   2.0000     -10.326819      -281.0070
   3   2.0000     -10.324536      -280.9449
   4   2.0000     -10.319410      -280.8054
   5   2.0000     -10.307915      -280.4926
   6   2.0000     -10.307673      -280.4860
   7   2.0000     -10.297589      -280.2116
   8   2.0000     -10.296919      -280.1934
   9   2.0000     -10.296365      -280.1783
  10   2.0000     -10.293649      -280.1044
  11   2.0000     -10.281791      -279.7817
  12   2.0000     -10.279136      -279.7095
  13   2.0000     -10.277467      -279.6641
  14   2.0000     -10.274296      -279.5778
  15   2.0000     -10.274205      -279.5753
  16   2.0000      -8.076143      -219.7630
  17   2.0000      -8.076033      -219.7600
  18   2.0000      -6.034639      -164.2109
  19   2.0000      -6.034431      -164.2052
  20   2.0000      -6.030645      -164.1022
  21   2.0000      -6.030387      -164.0952
  22   2.0000      -6.026862      -163.9993
  23   2.0000      -6.026800      -163.9976
  24   2.0000      -1.012981       -27.5646
  25   2.0000      -0.986846       -26.8534
  26   2.0000      -0.924013       -25.1437
  27   2.0000      -0.907929       -24.7060
  28   2.0000      -0.873926       -23.7807
  29   2.0000      -0.852685       -23.2027
  30   2.0000      -0.846301       -23.0290
  31   2.0000      -0.819006       -22.2863
  32   2.0000      -0.786315       -21.3967
  33   2.0000      -0.773395       -21.0451
  34   2.0000      -0.712605       -19.3910
  35   2.0000      -0.701094       -19.0777
  36   2.0000      -0.689175       -18.7534
  37   2.0000      -0.660074       -17.9615
  38   2.0000      -0.636453       -17.3188
  39   2.0000      -0.623732       -16.9726
  40   2.0000      -0.589173       -16.0322
  41   2.0000      -0.573014       -15.5925
  42   2.0000      -0.566804       -15.4235
  43   2.0000      -0.560392       -15.2490
  44   2.0000      -0.534567       -14.5463
  45   2.0000      -0.529538       -14.4095
  46   2.0000      -0.524460       -14.2713
  47   2.0000      -0.510631       -13.8950
  48   2.0000      -0.505316       -13.7503
  49   2.0000      -0.501647       -13.6505
  50   2.0000      -0.497420       -13.5355
  51   2.0000      -0.489787       -13.3278
  52   2.0000      -0.479523       -13.0485
  53   2.0000      -0.462290       -12.5795
  54   2.0000      -0.459283       -12.4977
  55   2.0000      -0.448347       -12.2001
  56   2.0000      -0.443393       -12.0653
  57   2.0000      -0.436401       -11.8751
  58   2.0000      -0.433806       -11.8045
  59   2.0000      -0.426095       -11.5946
  60   2.0000      -0.417054       -11.3486
  61   2.0000      -0.406634       -11.0651
  62   2.0000      -0.400909       -10.9093
  63   2.0000      -0.344987        -9.3876
  64   2.0000      -0.328804        -8.9472
  65   2.0000      -0.323493        -8.8027
  66   2.0000      -0.294356        -8.0098
  67   0.0000       0.031410         0.8547
  68   0.0000       0.064122         1.7448
  69   0.0000       0.108361         2.9486
  70   0.0000       0.125882         3.4254
  71   0.0000       0.132790         3.6134

MULLIKEN ATOMIC CHARGES
-----------------------
   0 S :    0.101941
   1 C :   -0.115090
   2 C :   -0.137146
   3 C :    0.016159
   4 C :   -0.173207
   5 H :    0.050825
   6 C :    0.134919
   7 H :    0.005806
   8 H :    0.029590
   9 C :   -0.098302
  10 H :    0.008292
  11 H :    0.017350
  12 C :   -0.000945
  13 H :    0.012120
  14 H :    0.036394
  15 H :    0.031425
  16 S :    0.090850
  17 C :   -0.112379
  18 C :   -0.042972
  19 C :   -0.071646
  20 C :   -0.111581
  21 H :    0.027899
  22 C :    0.085174
  23 H :    0.019086
  24 H :    0.021437
  25 C :   -0.063637
  26 H :    0.027160
  27 H :    0.028752
  28 C :   -0.025059
  29 H :    0.007293
  30 H :    0.040833
  31 H :    0.038939
  32 H :    0.048474
  33 H :    0.071244
Sum of atomic charges:   -0.0000000

LOEWDIN ATOMIC CHARGES
----------------------
   0 S :    0.422165
   1 C :   -0.211675
   2 C :   -0.067037
   3 C :   -0.074363
   4 C :   -0.202264
   5 H :    0.045060
   6 C :   -0.033451
   7 H :    0.027936
   8 H :    0.037664
   9 C :   -0.054091
  10 H :    0.019248
  11 H :    0.031288
  12 C :   -0.061109
  13 H :    0.022116
  14 H :    0.032759
  15 H :    0.024063
  16 S :    0.398154
  17 C :   -0.185493
  18 C :   -0.080218
  19 C :   -0.047997
  20 C :   -0.200016
  21 H :    0.036087
  22 C :   -0.031095
  23 H :    0.029359
  24 H :    0.033424
  25 C :   -0.041642
  26 H :    0.026512
  27 H :    0.024089
  28 C :   -0.061672
  29 H :    0.010331
  30 H :    0.029784
  31 H :    0.035922
  32 H :    0.032237
  33 H :    0.033925

  Mayer bond orders larger than 0.100000
B(  0-S ,  1-C ) :   1.1379 B(  0-S ,  4-C ) :   1.1702 B(  1-C ,  2-C ) :   1.5959
B(  1-C ,  4-C ) :   0.1027 B(  1-C , 32-H ) :   0.9742 B(  2-C ,  3-C ) :   1.2551
B(  2-C ,  6-C ) :   1.0123 B(  3-C ,  4-C ) :   1.5513 B(  3-C ,  5-H ) :   0.9701
B(  4-C , 20-C ) :   1.0133 B(  6-C ,  7-H ) :   0.9330 B(  6-C ,  8-H ) :   0.9145
B(  6-C ,  9-C ) :   1.0989 B(  9-C , 10-H ) :   0.9385 B(  9-C , 11-H ) :   0.9414
B(  9-C , 12-C ) :   1.0871 B( 12-C , 13-H ) :   0.9689 B( 12-C , 14-H ) :   0.9674
B( 12-C , 15-H ) :   0.9711 B( 16-S , 17-C ) :   1.1717 B( 16-S , 20-C ) :   1.1296
B( 17-C , 18-C ) :   1.6021 B( 17-C , 33-H ) :   0.9634 B( 18-C , 19-C ) :   1.2276
B( 18-C , 21-H ) :   0.9949 B( 19-C , 20-C ) :   1.6336 B( 19-C , 22-C ) :   1.0205
B( 22-C , 23-H ) :   0.9240 B( 22-C , 24-H ) :   0.9424 B( 22-C , 25-C ) :   1.0559
B( 25-C , 26-H ) :   0.9579 B( 25-C , 27-H ) :   0.9507 B( 25-C , 28-C ) :   1.0937
B( 28-C , 29-H ) :   0.9726 B( 28-C , 30-H ) :   0.9750 B( 28-C , 31-H ) :   0.9712

Dispersion correction           -0.014842515
FINAL SINGLE POINT ENERGY     -1339.863433723067

DIPOLE MOMENT
-------------
                                X             Y             Z
Electronic contribution:     -3.32544      27.38542       9.25425
Nuclear contribution   :      3.51852     -27.84718      -9.70519
                        -----------------------------------------
Total Dipole Moment    :      0.19309      -0.46176      -0.45094
                        -----------------------------------------
Magnitude (a.u.)       :      0.67368
Magnitude (Debye)      :      1.71236

Rotational constants in cm-1:     0.016280     0.010520     0.007625
Rotational constants in MHz :   488.076487   315.389519   228.594448

                             ****ORCA TERMINATED NORMALLY****
TOTAL RUN TIME: 0 days 0 hours 0 minutes 35 seconds 533 msec
