                         Program Version 4.2.1 -  RELEASE  -
|  1> ! wB97X-D3 SP def2-SVP
|  2> %pal
|  3> nprocs 16
|  4> end
|  5>
|  6> * xyz 0 1
|  7> S 	 4.43263 	 -11.869 	 64.4445
|  8> C 	 4.62622 	 -11.9792 	 66.1231
|  9> C 	 5.4471 	 -13.0069 	 66.511
| 10> C 	 5.85566 	 -13.795 	 65.3732
| 11> C 	 5.29931 	 -13.3489 	 64.1817
| 12> H 	 6.52179 	 -14.7219 	 65.4139
| 13> C 	 5.85985 	 -13.2805 	 67.9773
| 14> H 	 5.3565 	 -14.1478 	 68.3436
| 15> H 	 5.50289 	 -12.4945 	 68.5732
| 16> C 	 7.32651 	 -13.3006 	 68.3294
| 17> H 	 7.65302 	 -12.3821 	 67.9999
| 18> H 	 7.35987 	 -13.4012 	 69.426
| 19> C 	 8.01599 	 -14.562 	 67.8115
| 20> H 	 8.94959 	 -14.7562 	 68.3299
| 21> H 	 7.46556 	 -15.5157 	 68.0334
| 22> H 	 8.30542 	 -14.5815 	 66.7609
| 23> S 	 7.14651 	 -14.2216 	 62.3208
| 24> C 	 6.57335 	 -15.0176 	 60.8879
| 25> C 	 5.21393 	 -14.7885 	 60.7061
| 26> C 	 4.5711 	 -14.2072 	 61.8428
| 27> C 	 5.46386 	 -13.9247 	 62.8603
| 28> H 	 4.80282 	 -15.0614 	 59.7432
| 29> C 	 3.08967 	 -13.8602 	 61.864
| 30> H 	 2.92745 	 -13.3505 	 60.9322
| 31> H 	 2.95294 	 -13.1623 	 62.6814
| 32> C 	 2.09238 	 -14.9865 	 62.0676
| 33> H 	 2.23987 	 -15.5408 	 63.0128
| 34> H 	 2.48541 	 -15.7841 	 61.4039
| 35> C 	 0.68137 	 -14.6541 	 61.9002
| 36> H 	 0.352325 	 -13.9288 	 62.667
| 37> H 	 0.179438 	 -15.6201 	 61.8675
| 38> H 	 0.509228 	 -14.1125 	 60.996
| 39> H 	 4.12781 	 -11.1946 	 66.734
| 40> H 	 7.27472 	 -15.3819 	 60.1772
| 41> *
| 42>
| 43>                          ****END OF INPUT****

CARTESIAN COORDINATES (ANGSTROEM)
---------------------------------
  S      4.432630  -11.869000   64.444500
  C      4.626220  -11.979200   66.123100
  C      5.447100  -13.006900   66.511000
  C      5.855660  -13.795000   65.373200
  C      5.299310  -13.348900   64.181700
  H      6.521790  -14.721900   65.413900
  C      5.859850  -13.280500   67.977300
  H      5.356500  -14.147800   68.343600
  H      5.502890  -12.494500   68.573200
  C      7.326510  -13.300600   68.329400
  H      7.653020  -12.382100   67.999900
  H      7.359870  -13.401200   69.426000
  C      8.015990  -14.562000   67.811500
  H      8.949590  -14.756200   68.329900
  H      7.465560  -15.515700   68.033400
  H      8.305420  -14.581500   66.760900
  S      7.146510  -14.221600   62.320800
  C      6.573350  -15.017600   60.887900
  C      5.213930  -14.788500   60.706100
  C      4.571100  -14.207200   61.842800
  C      5.463860  -13.924700   62.860300
  H      4.802820  -15.061400   59.743200
  C      3.089670  -13.860200   61.864000
  H      2.927450  -13.350500   60.932200
  H      2.952940  -13.162300   62.681400
  C      2.092380  -14.986500   62.067600
  H      2.239870  -15.540800   63.012800
  H      2.485410  -15.784100   61.403900
  C      0.681370  -14.654100   61.900200
  H      0.352325  -13.928800   62.667000
  H      0.179438  -15.620100   61.867500
  H      0.509228  -14.112500   60.996000
  H      4.127810  -11.194600   66.734000
  H      7.274720  -15.381900   60.177200

 Total Charge           Charge          ....    0
 Multiplicity           Mult            ....    1
 Number of Electrons    NEL             ....  134
 Basis Dimension        Dim             ....  322

ORBITAL ENERGIES
----------------

  NO   OCC          E(Eh)            E(eV)
   0   2.0000     -88.964746     -2420.8538
   1   2.0000     -88.961805     -2420.7738
   2   2.0000     -10.326047      -280.9860
   3   2.0000     -10.325806      -280.9795
   4   2.0000     -10.314553      -280.6733
   5   2.0000     -10.312048      -280.6051
   6   2.0000     -10.303384      -280.3693
   7   2.0000     -10.302771      -280.3527
   8   2.0000     -10.300139      -280.2810
   9   2.0000     -10.294800      -280.1358
  10   2.0000     -10.283445      -279.8268
  11   2.0000     -10.281857      -279.7835
  12   2.0000     -10.281418      -279.7716
  13   2.0000     -10.277606      -279.6679
  14   2.0000     -10.277235      -279.6578
  15   2.0000     -10.271438      -279.5001
  16   2.0000      -8.080664      -219.8860
  17   2.0000      -8.076353      -219.7687
  18   2.0000      -6.038972      -164.3288
  19   2.0000      -6.034976      -164.2200
  20   2.0000      -6.034770      -164.2145
  21   2.0000      -6.031588      -164.1278
  22   2.0000      -6.030988      -164.1115
  23   2.0000      -6.027125      -164.0064
  24   2.0000      -1.008768       -27.4500
  25   2.0000      -0.985004       -26.8033
  26   2.0000      -0.916285       -24.9334
  27   2.0000      -0.913681       -24.8625
  28   2.0000      -0.870477       -23.6869
  29   2.0000      -0.855825       -23.2882
  30   2.0000      -0.844338       -22.9756
  31   2.0000      -0.811629       -22.0856
  32   2.0000      -0.787322       -21.4241
  33   2.0000      -0.774417       -21.0730
  34   2.0000      -0.704924       -19.1820
  35   2.0000      -0.698074       -18.9956
  36   2.0000      -0.688464       -18.7341
  37   2.0000      -0.664381       -18.0787
  38   2.0000      -0.640146       -17.4193
  39   2.0000      -0.616786       -16.7836
  40   2.0000      -0.597591       -16.2613
  41   2.0000      -0.577600       -15.7173
  42   2.0000      -0.561684       -15.2842
  43   2.0000      -0.548134       -14.9155
  44   2.0000      -0.537394       -14.6232
  45   2.0000      -0.533749       -14.5241
  46   2.0000      -0.518705       -14.1147
  47   2.0000      -0.510795       -13.8994
  48   2.0000      -0.506552       -13.7840
  49   2.0000      -0.497026       -13.5248
  50   2.0000      -0.490078       -13.3357
  51   2.0000      -0.487185       -13.2570
  52   2.0000      -0.469897       -12.7865
  53   2.0000      -0.467863       -12.7312
  54   2.0000      -0.460920       -12.5423
  55   2.0000      -0.448254       -12.1976
  56   2.0000      -0.443168       -12.0592
  57   2.0000      -0.438538       -11.9332
  58   2.0000      -0.432712       -11.7747
  59   2.0000      -0.421129       -11.4595
  60   2.0000      -0.418701       -11.3934
  61   2.0000      -0.415821       -11.3151
  62   2.0000      -0.397127       -10.8064
  63   2.0000      -0.343960        -9.3596
  64   2.0000      -0.330763        -9.0005
  65   2.0000      -0.328477        -8.9383
  66   2.0000      -0.292799        -7.9675
  67   0.0000       0.030121         0.8196
  68   0.0000       0.075906         2.0655
  69   0.0000       0.102019         2.7761
  70   0.0000       0.125545         3.4163
  71   0.0000       0.131742         3.5849

MULLIKEN ATOMIC CHARGES
-----------------------
   0 S :    0.124083
   1 C :   -0.158023
   2 C :   -0.082361
   3 C :   -0.004962
   4 C :   -0.162650
   5 H :    0.045183
   6 C :    0.096824
   7 H :    0.023881
   8 H :   -0.006317
   9 C :   -0.017781
  10 H :    0.016430
  11 H :    0.032447
  12 C :   -0.079036
  13 H :    0.022045
  14 H :    0.029872
  15 H :    0.042267
  16 S :    0.097270
  17 C :   -0.092438
  18 C :   -0.040141
  19 C :   -0.029356
  20 C :   -0.155683
  21 H :    0.019327
  22 C :    0.099363
  23 H :    0.021971
  24 H :    0.002734
  25 C :   -0.097781
  26 H :    0.024327
  27 H :    0.010816
  28 C :    0.011867
  29 H :    0.034656
  30 H :    0.043358
  31 H :    0.011112
  32 H :    0.064810
  33 H :    0.051887
Sum of atomic charges:    0.0000000

LOEWDIN ATOMIC CHARGES
----------------------
   0 S :    0.444532
   1 C :   -0.216774
   2 C :   -0.065951
   3 C :   -0.069476
   4 C :   -0.206576
   5 H :    0.044578
   6 C :   -0.024333
   7 H :    0.024915
   8 H :    0.022394
   9 C :   -0.027206
  10 H :    0.016755
  11 H :    0.033216
  12 C :   -0.076774
  13 H :    0.023931
  14 H :    0.030994
  15 H :    0.023904
  16 S :    0.392999
  17 C :   -0.181182
  18 C :   -0.071208
  19 C :   -0.053320
  20 C :   -0.185599
  21 H :    0.031294
  22 C :   -0.030763
  23 H :    0.030481
  24 H :    0.012165
  25 C :   -0.054133
  26 H :    0.028746
  27 H :    0.021768
  28 C :   -0.061983
  29 H :    0.031922
  30 H :    0.035741
  31 H :    0.019396
  32 H :    0.033903
  33 H :    0.021642

  Mayer bond orders larger than 0.100000
B(  0-S ,  1-C ) :   1.1647 B(  0-S ,  4-C ) :   1.1634 B(  1-C ,  2-C ) :   1.5971
B(  1-C , 32-H ) :   0.9632 B(  2-C ,  3-C ) :   1.2511 B(  2-C ,  6-C ) :   1.0153
B(  3-C ,  4-C ) :   1.5569 B(  3-C ,  5-H ) :   0.9795 B(  4-C , 20-C ) :   1.0472
B(  6-C ,  7-H ) :   0.9369 B(  6-C ,  8-H ) :   0.9353 B(  6-C ,  9-C ) :   1.0800
B(  9-C , 10-H ) :   0.9563 B(  9-C , 11-H ) :   0.9520 B(  9-C , 12-C ) :   1.0797
B( 12-C , 13-H ) :   0.9703 B( 12-C , 14-H ) :   0.9729 B( 12-C , 15-H ) :   0.9707
B( 16-S , 17-C ) :   1.1612 B( 16-S , 20-C ) :   1.1360 B( 17-C , 18-C ) :   1.5982
B( 17-C , 20-C ) :   0.1008 B( 17-C , 33-H ) :   0.9725 B( 18-C , 19-C ) :   1.2233
B( 18-C , 21-H ) :   0.9941 B( 19-C , 20-C ) :   1.5937 B( 19-C , 22-C ) :   1.0396
B( 22-C , 23-H ) :   0.9295 B( 22-C , 24-H ) :   0.9197 B( 22-C , 25-C ) :   1.0716
B( 25-C , 26-H ) :   0.9439 B( 25-C , 27-H ) :   0.9523 B( 25-C , 28-C ) :   1.0925
B( 28-C , 29-H ) :   0.9684 B( 28-C , 30-H ) :   0.9678 B( 28-C , 31-H ) :   0.9691

Dispersion correction           -0.014021161
FINAL SINGLE POINT ENERGY     -1339.877190449511

DIPOLE MOMENT
-------------
                                X             Y             Z
Electronic contribution:      7.79144       7.85575     -10.20582
Nuclear contribution   :     -7.92318      -7.94032      10.38793
                        -----------------------------------------
Total Dipole Moment    :     -0.13174      -0.08457       0.18212
                        -----------------------------------------
Magnitude (a.u.)       :      0.24016
Magnitude (Debye)      :      0.61043

Rotational constants in cm-1:     0.019288     0.008480     0.006726
Rotational constants in MHz :   578.238061   254.229698   201.636559

                             ****ORCA TERMINATED NORMALLY****
TOTAL RUN TIME: 0 days 0 hours 0 minutes 28 seconds 186 msec
