                         Program Version 4.2.1 -  RELEASE  -
|  1> ! wB97X-D3 SP def2-SVP
|  2> %pal
|  3> nprocs 16
|  4> end
|  5>
|  6> * xyz 0 1
|  7> S 	 9.19277 	 -12.9817 	 102.098
|  8> C 	 9.53109 	 -12.177 	 103.648
|  9> C 	 8.34873 	 -11.7218 	 104.239
| 10> C 	 7.15179 	 -11.9923 	 103.445
| 11> C 	 7.43801 	 -12.6073 	 102.26
| 12> H 	 6.20434 	 -11.6362 	 103.67
| 13> C 	 8.32116 	 -10.9943 	 105.598
| 14> H 	 7.41015 	 -10.4859 	 105.737
| 15> H 	 9.09461 	 -10.3002 	 105.621
| 16> C 	 8.55663 	 -11.9492 	 106.743
| 17> H 	 8.46605 	 -11.2581 	 107.519
| 18> H 	 7.71478 	 -12.6413 	 106.781
| 19> C 	 9.91514 	 -12.6932 	 106.679
| 20> H 	 10.7254 	 -12.0392 	 106.255
| 21> H 	 10.1239 	 -13.0345 	 107.662
| 22> H 	 9.85593 	 -13.5925 	 106.066
| 23> S 	 6.72786 	 -11.9209 	 99.6641
| 24> C 	 5.23916 	 -12.5655 	 99.0561
| 25> C 	 4.64986 	 -13.5515 	 99.8594
| 26> C 	 5.37158 	 -13.6281 	 101.155
| 27> C 	 6.45354 	 -12.7713 	 101.224
| 28> H 	 3.74089 	 -14.0608 	 99.5015
| 29> C 	 4.87794 	 -14.5254 	 102.294
| 30> H 	 3.78675 	 -14.3203 	 102.278
| 31> H 	 5.09677 	 -14.3056 	 103.35
| 32> C 	 5.23544 	 -16.0244 	 102.2
| 33> H 	 6.28987 	 -16.0713 	 102.127
| 34> H 	 4.68095 	 -16.4526 	 101.392
| 35> C 	 4.82804 	 -16.8341 	 103.454
| 36> H 	 3.73779 	 -16.8829 	 103.633
| 37> H 	 5.42303 	 -16.4912 	 104.295
| 38> H 	 5.19205 	 -17.8921 	 103.306
| 39> H 	 10.4471 	 -12.0539 	 104.191
| 40> H 	 4.83526 	 -12.2595 	 98.1257
| 41> *
| 42>
| 43>                          ****END OF INPUT****

CARTESIAN COORDINATES (ANGSTROEM)
---------------------------------
  S      9.192770  -12.981700  102.098000
  C      9.531090  -12.177000  103.648000
  C      8.348730  -11.721800  104.239000
  C      7.151790  -11.992300  103.445000
  C      7.438010  -12.607300  102.260000
  H      6.204340  -11.636200  103.670000
  C      8.321160  -10.994300  105.598000
  H      7.410150  -10.485900  105.737000
  H      9.094610  -10.300200  105.621000
  C      8.556630  -11.949200  106.743000
  H      8.466050  -11.258100  107.519000
  H      7.714780  -12.641300  106.781000
  C      9.915140  -12.693200  106.679000
  H     10.725400  -12.039200  106.255000
  H     10.123900  -13.034500  107.662000
  H      9.855930  -13.592500  106.066000
  S      6.727860  -11.920900   99.664100
  C      5.239160  -12.565500   99.056100
  C      4.649860  -13.551500   99.859400
  C      5.371580  -13.628100  101.155000
  C      6.453540  -12.771300  101.224000
  H      3.740890  -14.060800   99.501500
  C      4.877940  -14.525400  102.294000
  H      3.786750  -14.320300  102.278000
  H      5.096770  -14.305600  103.350000
  C      5.235440  -16.024400  102.200000
  H      6.289870  -16.071300  102.127000
  H      4.680950  -16.452600  101.392000
  C      4.828040  -16.834100  103.454000
  H      3.737790  -16.882900  103.633000
  H      5.423030  -16.491200  104.295000
  H      5.192050  -17.892100  103.306000
  H     10.447100  -12.053900  104.191000
  H      4.835260  -12.259500   98.125700

 Total Charge           Charge          ....    0
 Multiplicity           Mult            ....    1
 Number of Electrons    NEL             ....  134
 Basis Dimension        Dim             ....  322

ORBITAL ENERGIES
----------------

  NO   OCC          E(Eh)            E(eV)
   0   2.0000     -88.967405     -2420.9262
   1   2.0000     -88.963745     -2420.8266
   2   2.0000     -10.327601      -281.0283
   3   2.0000     -10.325536      -280.9721
   4   2.0000     -10.318052      -280.7685
   5   2.0000     -10.313015      -280.6314
   6   2.0000     -10.312609      -280.6204
   7   2.0000     -10.304083      -280.3884
   8   2.0000     -10.300457      -280.2897
   9   2.0000     -10.292162      -280.0640
  10   2.0000     -10.289458      -279.9904
  11   2.0000     -10.282103      -279.7902
  12   2.0000     -10.281334      -279.7693
  13   2.0000     -10.280345      -279.7424
  14   2.0000     -10.280172      -279.7377
  15   2.0000     -10.280115      -279.7362
  16   2.0000      -8.080458      -219.8804
  17   2.0000      -8.078377      -219.8238
  18   2.0000      -6.039267      -164.3368
  19   2.0000      -6.036870      -164.2716
  20   2.0000      -6.035263      -164.2279
  21   2.0000      -6.033050      -164.1676
  22   2.0000      -6.030942      -164.1103
  23   2.0000      -6.029008      -164.0577
  24   2.0000      -0.997013       -27.1301
  25   2.0000      -0.972520       -26.4636
  26   2.0000      -0.916749       -24.9460
  27   2.0000      -0.904982       -24.6258
  28   2.0000      -0.866857       -23.5884
  29   2.0000      -0.846743       -23.0410
  30   2.0000      -0.840287       -22.8654
  31   2.0000      -0.809353       -22.0236
  32   2.0000      -0.787461       -21.4279
  33   2.0000      -0.772775       -21.0283
  34   2.0000      -0.706809       -19.2333
  35   2.0000      -0.694892       -18.9090
  36   2.0000      -0.691060       -18.8047
  37   2.0000      -0.659006       -17.9325
  38   2.0000      -0.640747       -17.4356
  39   2.0000      -0.618334       -16.8257
  40   2.0000      -0.596733       -16.2379
  41   2.0000      -0.572611       -15.5815
  42   2.0000      -0.570861       -15.5339
  43   2.0000      -0.558060       -15.1856
  44   2.0000      -0.538197       -14.6451
  45   2.0000      -0.524074       -14.2608
  46   2.0000      -0.517739       -14.0884
  47   2.0000      -0.506120       -13.7722
  48   2.0000      -0.501598       -13.6492
  49   2.0000      -0.493901       -13.4397
  50   2.0000      -0.487089       -13.2544
  51   2.0000      -0.475079       -12.9276
  52   2.0000      -0.466652       -12.6982
  53   2.0000      -0.462293       -12.5796
  54   2.0000      -0.459371       -12.5001
  55   2.0000      -0.451585       -12.2883
  56   2.0000      -0.448469       -12.2035
  57   2.0000      -0.436342       -11.8735
  58   2.0000      -0.432509       -11.7692
  59   2.0000      -0.428048       -11.6478
  60   2.0000      -0.420941       -11.4544
  61   2.0000      -0.410323       -11.1655
  62   2.0000      -0.408788       -11.1237
  63   2.0000      -0.342512        -9.3202
  64   2.0000      -0.329374        -8.9627
  65   2.0000      -0.323146        -8.7933
  66   2.0000      -0.294808        -8.0221
  67   0.0000       0.036782         1.0009
  68   0.0000       0.058555         1.5934
  69   0.0000       0.116326         3.1654
  70   0.0000       0.118067         3.2128
  71   0.0000       0.125104         3.4043

MULLIKEN ATOMIC CHARGES
-----------------------
   0 S :    0.109853
   1 C :   -0.103049
   2 C :   -0.126714
   3 C :    0.068041
   4 C :   -0.139765
   5 H :   -0.009844
   6 C :    0.096313
   7 H :    0.005633
   8 H :    0.010513
   9 C :   -0.036050
  10 H :    0.014021
  11 H :    0.024884
  12 C :   -0.059168
  13 H :    0.035713
  14 H :    0.029921
  15 H :    0.049091
  16 S :    0.105936
  17 C :   -0.084848
  18 C :   -0.036688
  19 C :   -0.006916
  20 C :   -0.177998
  21 H :    0.036255
  22 C :    0.027745
  23 H :    0.025463
  24 H :    0.014904
  25 C :   -0.039979
  26 H :    0.032322
  27 H :    0.023831
  28 C :   -0.082843
  29 H :    0.044224
  30 H :    0.033792
  31 H :    0.038853
  32 H :    0.030465
  33 H :    0.046089
Sum of atomic charges:   -0.0000000

LOEWDIN ATOMIC CHARGES
----------------------
   0 S :    0.369465
   1 C :   -0.194249
   2 C :   -0.052676
   3 C :   -0.046978
   4 C :   -0.179541
   5 H :    0.021102
   6 C :   -0.021370
   7 H :    0.023151
   8 H :    0.019849
   9 C :   -0.029540
  10 H :    0.015668
  11 H :    0.024611
  12 C :   -0.062767
  13 H :    0.026452
  14 H :    0.022965
  15 H :    0.030426
  16 S :    0.388504
  17 C :   -0.175696
  18 C :   -0.073803
  19 C :   -0.043202
  20 C :   -0.188843
  21 H :    0.038526
  22 C :   -0.042778
  23 H :    0.032143
  24 H :    0.028852
  25 C :   -0.030474
  26 H :    0.024445
  27 H :    0.019306
  28 C :   -0.070916
  29 H :    0.027002
  30 H :    0.022723
  31 H :    0.033462
  32 H :    0.024424
  33 H :    0.019755

  Mayer bond orders larger than 0.100000
B(  0-S ,  1-C ) :   1.1064 B(  0-S ,  4-C ) :   1.1165 B(  1-C ,  2-C ) :   1.6503
B(  1-C , 32-H ) :   0.9630 B(  2-C ,  3-C ) :   1.2127 B(  2-C ,  6-C ) :   1.0198
B(  3-C ,  4-C ) :   1.6051 B(  3-C ,  5-H ) :   1.0004 B(  4-C , 20-C ) :   1.0606
B(  6-C ,  7-H ) :   0.9403 B(  6-C ,  8-H ) :   0.9403 B(  6-C ,  9-C ) :   1.0803
B(  9-C , 10-H ) :   0.9594 B(  9-C , 11-H ) :   0.9514 B(  9-C , 12-C ) :   1.0758
B( 12-C , 13-H ) :   0.9733 B( 12-C , 14-H ) :   0.9693 B( 12-C , 15-H ) :   0.9681
B( 16-S , 17-C ) :   1.1608 B( 16-S , 20-C ) :   1.1053 B( 17-C , 18-C ) :   1.6374
B( 17-C , 33-H ) :   0.9700 B( 18-C , 19-C ) :   1.1892 B( 18-C , 21-H ) :   0.9862
B( 19-C , 20-C ) :   1.6455 B( 19-C , 22-C ) :   1.0275 B( 22-C , 23-H ) :   0.9349
B( 22-C , 24-H ) :   0.9460 B( 22-C , 25-C ) :   1.0614 B( 25-C , 26-H ) :   0.9553
B( 25-C , 27-H ) :   0.9552 B( 25-C , 28-C ) :   1.0951 B( 28-C , 29-H ) :   0.9759
B( 28-C , 30-H ) :   0.9719 B( 28-C , 31-H ) :   0.9734

Dispersion correction           -0.014210134
FINAL SINGLE POINT ENERGY     -1339.863191519117

DIPOLE MOMENT
-------------
                                X             Y             Z
Electronic contribution:      4.85897      10.93547     -24.07165
Nuclear contribution   :     -5.27635     -11.00530      24.61252
                        -----------------------------------------
Total Dipole Moment    :     -0.41739      -0.06983       0.54087
                        -----------------------------------------
Magnitude (a.u.)       :      0.68675
Magnitude (Debye)      :      1.74558

Rotational constants in cm-1:     0.018481     0.008660     0.006798
Rotational constants in MHz :   554.046189   259.618489   203.798477

                             ****ORCA TERMINATED NORMALLY****
TOTAL RUN TIME: 0 days 0 hours 0 minutes 31 seconds 691 msec
