                         Program Version 4.2.1 -  RELEASE  -
|  1> ! wB97X-D3 SP def2-SVP
|  2> %pal
|  3> nprocs 16
|  4> end
|  5>
|  6> * xyz 0 1
|  7> S 	 50.4151 	 6.48232 	 82.794
|  8> C 	 51.9214 	 6.37227 	 81.9055
|  9> C 	 52.2935 	 5.11168 	 81.5018
| 10> C 	 51.3551 	 4.16061 	 81.9833
| 11> C 	 50.2382 	 4.69276 	 82.6119
| 12> H 	 51.3856 	 3.02667 	 81.9078
| 13> C 	 53.5015 	 4.67851 	 80.8035
| 14> H 	 53.9751 	 5.56209 	 80.3533
| 15> H 	 53.3202 	 4.02803 	 79.949
| 16> C 	 54.4824 	 3.98108 	 81.7684
| 17> H 	 54.9495 	 4.72057 	 82.4075
| 18> H 	 53.9042 	 3.33597 	 82.4658
| 19> C 	 55.5806 	 3.20917 	 80.9535
| 20> H 	 56.2004 	 3.96917 	 80.4178
| 21> H 	 56.2341 	 2.74066 	 81.6001
| 22> H 	 55.1598 	 2.4184 	 80.3416
| 23> S 	 47.6411 	 4.94261 	 83.638
| 24> C 	 46.7961 	 3.5814 	 84.3289
| 25> C 	 47.5182 	 2.45849 	 84.0135
| 26> C 	 48.855 	 2.69395 	 83.4599
| 27> C 	 49.1149 	 4.00649 	 83.2588
| 28> H 	 47.06 	 1.48764 	 84.1327
| 29> C 	 49.7494 	 1.55346 	 83.1597
| 30> H 	 49.4462 	 0.816985 	 83.8805
| 31> H 	 50.8018 	 1.78793 	 83.4035
| 32> C 	 49.6193 	 0.833238 	 81.8809
| 33> H 	 49.9411 	 1.47151 	 81.1161
| 34> H 	 48.5085 	 0.644618 	 81.7123
| 35> C 	 50.4881 	 -0.424896 	 81.8504
| 36> H 	 50.4737 	 -0.849696 	 80.889
| 37> H 	 50.1745 	 -1.20371 	 82.5914
| 38> H 	 51.5479 	 -0.153111 	 82.0472
| 39> H 	 52.5685 	 7.24027 	 81.7586
| 40> H 	 45.7533 	 3.48264 	 84.5996
| 41> *
| 42>
| 43>                          ****END OF INPUT****

CARTESIAN COORDINATES (ANGSTROEM)
---------------------------------
  S     50.415100    6.482320   82.794000
  C     51.921400    6.372270   81.905500
  C     52.293500    5.111680   81.501800
  C     51.355100    4.160610   81.983300
  C     50.238200    4.692760   82.611900
  H     51.385600    3.026670   81.907800
  C     53.501500    4.678510   80.803500
  H     53.975100    5.562090   80.353300
  H     53.320200    4.028030   79.949000
  C     54.482400    3.981080   81.768400
  H     54.949500    4.720570   82.407500
  H     53.904200    3.335970   82.465800
  C     55.580600    3.209170   80.953500
  H     56.200400    3.969170   80.417800
  H     56.234100    2.740660   81.600100
  H     55.159800    2.418400   80.341600
  S     47.641100    4.942610   83.638000
  C     46.796100    3.581400   84.328900
  C     47.518200    2.458490   84.013500
  C     48.855000    2.693950   83.459900
  C     49.114900    4.006490   83.258800
  H     47.060000    1.487640   84.132700
  C     49.749400    1.553460   83.159700
  H     49.446200    0.816985   83.880500
  H     50.801800    1.787930   83.403500
  C     49.619300    0.833238   81.880900
  H     49.941100    1.471510   81.116100
  H     48.508500    0.644618   81.712300
  C     50.488100   -0.424896   81.850400
  H     50.473700   -0.849696   80.889000
  H     50.174500   -1.203710   82.591400
  H     51.547900   -0.153111   82.047200
  H     52.568500    7.240270   81.758600
  H     45.753300    3.482640   84.599600

 Total Charge           Charge          ....    0
 Multiplicity           Mult            ....    1
 Number of Electrons    NEL             ....  134
 Basis Dimension        Dim             ....  322

ORBITAL ENERGIES
----------------

  NO   OCC          E(Eh)            E(eV)
   0   2.0000     -88.968646     -2420.9599
   1   2.0000     -88.961343     -2420.7612
   2   2.0000     -10.336433      -281.2686
   3   2.0000     -10.329521      -281.0805
   4   2.0000     -10.316872      -280.7364
   5   2.0000     -10.315887      -280.7095
   6   2.0000     -10.300551      -280.2922
   7   2.0000     -10.300008      -280.2775
   8   2.0000     -10.299293      -280.2580
   9   2.0000     -10.295048      -280.1425
  10   2.0000     -10.292241      -280.0661
  11   2.0000     -10.290803      -280.0270
  12   2.0000     -10.285714      -279.8885
  13   2.0000     -10.284444      -279.8540
  14   2.0000     -10.283544      -279.8295
  15   2.0000     -10.279863      -279.7293
  16   2.0000      -8.082384      -219.9329
  17   2.0000      -8.075821      -219.7543
  18   2.0000      -6.040967      -164.3831
  19   2.0000      -6.037251      -164.2820
  20   2.0000      -6.034671      -164.2117
  21   2.0000      -6.032903      -164.1636
  22   2.0000      -6.030454      -164.0970
  23   2.0000      -6.026128      -163.9793
  24   2.0000      -1.005332       -27.3565
  25   2.0000      -0.984425       -26.7876
  26   2.0000      -0.924468       -25.1561
  27   2.0000      -0.915296       -24.9065
  28   2.0000      -0.871216       -23.7070
  29   2.0000      -0.854590       -23.2546
  30   2.0000      -0.844264       -22.9736
  31   2.0000      -0.816759       -22.2251
  32   2.0000      -0.783671       -21.3248
  33   2.0000      -0.776065       -21.1178
  34   2.0000      -0.711349       -19.3568
  35   2.0000      -0.703695       -19.1485
  36   2.0000      -0.695803       -18.9338
  37   2.0000      -0.667661       -18.1680
  38   2.0000      -0.640625       -17.4323
  39   2.0000      -0.622330       -16.9345
  40   2.0000      -0.599652       -16.3174
  41   2.0000      -0.577151       -15.7051
  42   2.0000      -0.571890       -15.5619
  43   2.0000      -0.558256       -15.1909
  44   2.0000      -0.529959       -14.4209
  45   2.0000      -0.521624       -14.1941
  46   2.0000      -0.519345       -14.1321
  47   2.0000      -0.515612       -14.0305
  48   2.0000      -0.505403       -13.7527
  49   2.0000      -0.498957       -13.5773
  50   2.0000      -0.489843       -13.3293
  51   2.0000      -0.488256       -13.2861
  52   2.0000      -0.470331       -12.7984
  53   2.0000      -0.465709       -12.6726
  54   2.0000      -0.461940       -12.5700
  55   2.0000      -0.451840       -12.2952
  56   2.0000      -0.444556       -12.0970
  57   2.0000      -0.441076       -12.0023
  58   2.0000      -0.437356       -11.9011
  59   2.0000      -0.429901       -11.6982
  60   2.0000      -0.425042       -11.5660
  61   2.0000      -0.420600       -11.4451
  62   2.0000      -0.408923       -11.1274
  63   2.0000      -0.365394        -9.9429
  64   2.0000      -0.333780        -9.0826
  65   2.0000      -0.322896        -8.7865
  66   2.0000      -0.285159        -7.7596
  67   0.0000       0.020174         0.5490
  68   0.0000       0.081783         2.2254
  69   0.0000       0.092271         2.5108
  70   0.0000       0.116240         3.1630
  71   0.0000       0.123269         3.3543

MULLIKEN ATOMIC CHARGES
-----------------------
   0 S :    0.102737
   1 C :   -0.121403
   2 C :   -0.052009
   3 C :   -0.047305
   4 C :   -0.118745
   5 H :    0.026573
   6 C :    0.082294
   7 H :    0.014596
   8 H :    0.028546
   9 C :   -0.108285
  10 H :    0.027878
  11 H :    0.033342
  12 C :   -0.015570
  13 H :    0.038971
  14 H :    0.013904
  15 H :    0.036845
  16 S :    0.071403
  17 C :   -0.067260
  18 C :   -0.046078
  19 C :   -0.072422
  20 C :   -0.069588
  21 H :    0.016509
  22 C :    0.015937
  23 H :    0.003549
  24 H :    0.029486
  25 C :   -0.044635
  26 H :    0.010922
  27 H :    0.033241
  28 C :   -0.030272
  29 H :    0.028235
  30 H :    0.040588
  31 H :    0.026606
  32 H :    0.046625
  33 H :    0.064783
Sum of atomic charges:   -0.0000000

LOEWDIN ATOMIC CHARGES
----------------------
   0 S :    0.379051
   1 C :   -0.188905
   2 C :   -0.067513
   3 C :   -0.067588
   4 C :   -0.166704
   5 H :    0.041002
   6 C :   -0.034969
   7 H :    0.031182
   8 H :    0.031675
   9 C :   -0.033433
  10 H :    0.024011
  11 H :    0.023381
  12 C :   -0.060495
  13 H :    0.033540
  14 H :    0.014661
  15 H :    0.025660
  16 S :    0.377707
  17 C :   -0.189355
  18 C :   -0.067373
  19 C :   -0.063591
  20 C :   -0.175660
  21 H :    0.027286
  22 C :   -0.045635
  23 H :    0.029904
  24 H :    0.029550
  25 C :   -0.039717
  26 H :    0.012387
  27 H :    0.033613
  28 C :   -0.059653
  29 H :    0.020644
  30 H :    0.030581
  31 H :    0.028383
  32 H :    0.028360
  33 H :    0.038014

  Mayer bond orders larger than 0.100000
B(  0-S ,  1-C ) :   1.1326 B(  0-S ,  4-C ) :   1.1216 B(  1-C ,  2-C ) :   1.6327
B(  1-C , 32-H ) :   0.9580 B(  2-C ,  3-C ) :   1.2149 B(  2-C ,  6-C ) :   1.0468
B(  3-C ,  4-C ) :   1.6181 B(  3-C ,  5-H ) :   0.9636 B(  4-C , 20-C ) :   1.0730
B(  6-C ,  7-H ) :   0.9275 B(  6-C ,  8-H ) :   0.9410 B(  6-C ,  9-C ) :   1.0424
B(  9-C , 10-H ) :   0.9535 B(  9-C , 11-H ) :   0.9648 B(  9-C , 12-C ) :   1.0762
B( 12-C , 13-H ) :   0.9729 B( 12-C , 14-H ) :   0.9730 B( 12-C , 15-H ) :   0.9765
B( 16-S , 17-C ) :   1.1308 B( 16-S , 20-C ) :   1.1046 B( 17-C , 18-C ) :   1.6452
B( 17-C , 33-H ) :   0.9629 B( 18-C , 19-C ) :   1.2184 B( 18-C , 21-H ) :   0.9837
B( 19-C , 20-C ) :   1.6398 B( 19-C , 22-C ) :   1.0499 B( 22-C , 23-H ) :   0.9183
B( 22-C , 24-H ) :   0.9271 B( 22-C , 25-C ) :   1.0764 B( 25-C , 26-H ) :   0.9453
B( 25-C , 27-H ) :   0.9439 B( 25-C , 28-C ) :   1.0854 B( 28-C , 29-H ) :   0.9726
B( 28-C , 30-H ) :   0.9745 B( 28-C , 31-H ) :   0.9696

Dispersion correction           -0.014034372
FINAL SINGLE POINT ENERGY     -1339.877505209788

DIPOLE MOMENT
-------------
                                X             Y             Z
Electronic contribution:    -21.83529      23.33080       9.83972
Nuclear contribution   :     22.28600     -24.05334     -10.10477
                        -----------------------------------------
Total Dipole Moment    :      0.45071      -0.72254      -0.26505
                        -----------------------------------------
Magnitude (a.u.)       :      0.89188
Magnitude (Debye)      :      2.26698

Rotational constants in cm-1:     0.017414     0.009629     0.006421
Rotational constants in MHz :   522.050840   288.668715   192.505981

                             ****ORCA TERMINATED NORMALLY****
TOTAL RUN TIME: 0 days 0 hours 0 minutes 29 seconds 170 msec
