                         Program Version 4.2.1 -  RELEASE  -
|  1> ! wB97X-D3 SP def2-SVP
|  2> %pal
|  3> nprocs 16
|  4> end
|  5>
|  6> * xyz 0 1
|  7> S 	 -90.8242 	 40.9226 	 116.029
|  8> C 	 -89.7457 	 39.5248 	 115.942
|  9> C 	 -88.8292 	 39.7343 	 114.941
| 10> C 	 -89.0007 	 40.9809 	 114.242
| 11> C 	 -89.9945 	 41.7735 	 114.767
| 12> H 	 -88.3797 	 41.3208 	 113.389
| 13> C 	 -87.797 	 38.7573 	 114.528
| 14> H 	 -88.1098 	 37.6893 	 114.482
| 15> H 	 -87.1471 	 38.7045 	 115.428
| 16> C 	 -87.0143 	 38.9977 	 113.249
| 17> H 	 -86.6438 	 40.012 	 113.283
| 18> H 	 -86.0974 	 38.3809 	 113.267
| 19> C 	 -87.604 	 38.4904 	 111.927
| 20> H 	 -86.9273 	 38.5572 	 111.116
| 21> H 	 -87.7644 	 37.4653 	 112.075
| 22> H 	 -88.4764 	 38.9919 	 111.726
| 23> S 	 -91.2097 	 43.4258 	 113.072
| 24> C 	 -91.2734 	 45.0798 	 113.385
| 25> C 	 -90.6275 	 45.3739 	 114.54
| 26> C 	 -90.1402 	 44.2683 	 115.309
| 27> C 	 -90.2837 	 43.1495 	 114.504
| 28> H 	 -90.5007 	 46.4766 	 114.77
| 29> C 	 -89.6525 	 44.2975 	 116.714
| 30> H 	 -88.5407 	 44.3189 	 116.777
| 31> H 	 -89.9052 	 43.2741 	 117.221
| 32> C 	 -90.0786 	 45.3963 	 117.695
| 33> H 	 -91.2212 	 45.4321 	 117.768
| 34> H 	 -89.5388 	 46.289 	 117.468
| 35> C 	 -89.5206 	 45.1264 	 119.102
| 36> H 	 -89.7268 	 44.1877 	 119.634
| 37> H 	 -89.7378 	 46.0169 	 119.745
| 38> H 	 -88.5155 	 45.1932 	 119.015
| 39> H 	 -89.7609 	 38.6659 	 116.535
| 40> H 	 -91.7023 	 45.7229 	 112.649
| 41> *
| 42>
| 43>                          ****END OF INPUT****

CARTESIAN COORDINATES (ANGSTROEM)
---------------------------------
  S    -90.824200   40.922600  116.029000
  C    -89.745700   39.524800  115.942000
  C    -88.829200   39.734300  114.941000
  C    -89.000700   40.980900  114.242000
  C    -89.994500   41.773500  114.767000
  H    -88.379700   41.320800  113.389000
  C    -87.797000   38.757300  114.528000
  H    -88.109800   37.689300  114.482000
  H    -87.147100   38.704500  115.428000
  C    -87.014300   38.997700  113.249000
  H    -86.643800   40.012000  113.283000
  H    -86.097400   38.380900  113.267000
  C    -87.604000   38.490400  111.927000
  H    -86.927300   38.557200  111.116000
  H    -87.764400   37.465300  112.075000
  H    -88.476400   38.991900  111.726000
  S    -91.209700   43.425800  113.072000
  C    -91.273400   45.079800  113.385000
  C    -90.627500   45.373900  114.540000
  C    -90.140200   44.268300  115.309000
  C    -90.283700   43.149500  114.504000
  H    -90.500700   46.476600  114.770000
  C    -89.652500   44.297500  116.714000
  H    -88.540700   44.318900  116.777000
  H    -89.905200   43.274100  117.221000
  C    -90.078600   45.396300  117.695000
  H    -91.221200   45.432100  117.768000
  H    -89.538800   46.289000  117.468000
  C    -89.520600   45.126400  119.102000
  H    -89.726800   44.187700  119.634000
  H    -89.737800   46.016900  119.745000
  H    -88.515500   45.193200  119.015000
  H    -89.760900   38.665900  116.535000
  H    -91.702300   45.722900  112.649000

 Total Charge           Charge          ....    0
 Multiplicity           Mult            ....    1
 Number of Electrons    NEL             ....  134
 Basis Dimension        Dim             ....  322

ORBITAL ENERGIES
----------------

  NO   OCC          E(Eh)            E(eV)
   0   2.0000     -88.962934     -2420.8045
   1   2.0000     -88.960794     -2420.7463
   2   2.0000     -10.321758      -280.8693
   3   2.0000     -10.318225      -280.7732
   4   2.0000     -10.306803      -280.4624
   5   2.0000     -10.306005      -280.4407
   6   2.0000     -10.305447      -280.4255
   7   2.0000     -10.297648      -280.2133
   8   2.0000     -10.297381      -280.2060
   9   2.0000     -10.293874      -280.1105
  10   2.0000     -10.292935      -280.0850
  11   2.0000     -10.291443      -280.0444
  12   2.0000     -10.291017      -280.0328
  13   2.0000     -10.283951      -279.8405
  14   2.0000     -10.271815      -279.5103
  15   2.0000     -10.264628      -279.3147
  16   2.0000      -8.077591      -219.8024
  17   2.0000      -8.077212      -219.7921
  18   2.0000      -6.035808      -164.2427
  19   2.0000      -6.035796      -164.2424
  20   2.0000      -6.031798      -164.1336
  21   2.0000      -6.031573      -164.1274
  22   2.0000      -6.028539      -164.0449
  23   2.0000      -6.028121      -164.0335
  24   2.0000      -1.015238       -27.6260
  25   2.0000      -0.988298       -26.8930
  26   2.0000      -0.916113       -24.9287
  27   2.0000      -0.912106       -24.8197
  28   2.0000      -0.875543       -23.8247
  29   2.0000      -0.857457       -23.3326
  30   2.0000      -0.845177       -22.9984
  31   2.0000      -0.815055       -22.1788
  32   2.0000      -0.786404       -21.3991
  33   2.0000      -0.776465       -21.1287
  34   2.0000      -0.711654       -19.3651
  35   2.0000      -0.699657       -19.0386
  36   2.0000      -0.691105       -18.8059
  37   2.0000      -0.652944       -17.7675
  38   2.0000      -0.634437       -17.2639
  39   2.0000      -0.624832       -17.0025
  40   2.0000      -0.604531       -16.4501
  41   2.0000      -0.577448       -15.7132
  42   2.0000      -0.568812       -15.4782
  43   2.0000      -0.554074       -15.0771
  44   2.0000      -0.542841       -14.7715
  45   2.0000      -0.527211       -14.3461
  46   2.0000      -0.515569       -14.0293
  47   2.0000      -0.512105       -13.9351
  48   2.0000      -0.506111       -13.7720
  49   2.0000      -0.502948       -13.6859
  50   2.0000      -0.484834       -13.1930
  51   2.0000      -0.480366       -13.0714
  52   2.0000      -0.474305       -12.9065
  53   2.0000      -0.468247       -12.7417
  54   2.0000      -0.462365       -12.5816
  55   2.0000      -0.451211       -12.2781
  56   2.0000      -0.443242       -12.0612
  57   2.0000      -0.434377       -11.8200
  58   2.0000      -0.428616       -11.6632
  59   2.0000      -0.424756       -11.5582
  60   2.0000      -0.422604       -11.4996
  61   2.0000      -0.414520       -11.2797
  62   2.0000      -0.405126       -11.0240
  63   2.0000      -0.333392        -9.0721
  64   2.0000      -0.328859        -8.9487
  65   2.0000      -0.321187        -8.7399
  66   2.0000      -0.302315        -8.2264
  67   0.0000       0.040792         1.1100
  68   0.0000       0.066597         1.8122
  69   0.0000       0.118463         3.2235
  70   0.0000       0.129073         3.5123
  71   0.0000       0.133447         3.6313

MULLIKEN ATOMIC CHARGES
-----------------------
   0 S :    0.113621
   1 C :   -0.109194
   2 C :   -0.060418
   3 C :    0.021220
   4 C :   -0.157975
   5 H :    0.028433
   6 C :    0.026533
   7 H :    0.025121
   8 H :    0.039062
   9 C :   -0.106594
  10 H :    0.024956
  11 H :    0.020483
  12 C :    0.042340
  13 H :    0.026261
  14 H :    0.010212
  15 H :    0.016125
  16 S :    0.122553
  17 C :   -0.087016
  18 C :   -0.067656
  19 C :    0.047796
  20 C :   -0.196688
  21 H :    0.036650
  22 C :   -0.005433
  23 H :    0.034894
  24 H :    0.039748
  25 C :   -0.068078
  26 H :    0.054064
  27 H :    0.026157
  28 C :   -0.037404
  29 H :    0.042024
  30 H :    0.034351
  31 H :   -0.005923
  32 H :    0.019089
  33 H :    0.050686
Sum of atomic charges:    0.0000000

LOEWDIN ATOMIC CHARGES
----------------------
   0 S :    0.415499
   1 C :   -0.189675
   2 C :   -0.062203
   3 C :   -0.070085
   4 C :   -0.204189
   5 H :    0.038029
   6 C :   -0.046226
   7 H :    0.033750
   8 H :    0.042813
   9 C :   -0.046754
  10 H :    0.017679
  11 H :    0.030731
  12 C :   -0.042943
  13 H :    0.025084
  14 H :    0.021493
  15 H :    0.012416
  16 S :    0.445775
  17 C :   -0.205494
  18 C :   -0.079917
  19 C :   -0.053253
  20 C :   -0.210461
  21 H :    0.039766
  22 C :   -0.051735
  23 H :    0.037374
  24 H :    0.035258
  25 C :   -0.038556
  26 H :    0.034137
  27 H :    0.024193
  28 C :   -0.063987
  29 H :    0.026748
  30 H :    0.034535
  31 H :    0.007649
  32 H :    0.018035
  33 H :    0.024514

  Mayer bond orders larger than 0.100000
B(  0-S ,  1-C ) :   1.1228 B(  0-S ,  4-C ) :   1.1620 B(  1-C ,  2-C ) :   1.6124
B(  1-C , 32-H ) :   0.9855 B(  2-C ,  3-C ) :   1.2481 B(  2-C ,  6-C ) :   1.0088
B(  3-C ,  4-C ) :   1.5776 B(  3-C ,  5-H ) :   0.9818 B(  4-C , 20-C ) :   1.0014
B(  6-C ,  7-H ) :   0.9412 B(  6-C ,  8-H ) :   0.9238 B(  6-C ,  9-C ) :   1.0999
B(  9-C , 10-H ) :   0.9454 B(  9-C , 11-H ) :   0.9502 B(  9-C , 12-C ) :   1.0727
B( 12-C , 13-H ) :   0.9735 B( 12-C , 14-H ) :   0.9676 B( 12-C , 15-H ) :   0.9777
B( 16-S , 17-C ) :   1.1658 B( 16-S , 20-C ) :   1.1842 B( 17-C , 18-C ) :   1.6036
B( 17-C , 33-H ) :   0.9726 B( 18-C , 19-C ) :   1.2276 B( 18-C , 21-H ) :   0.9801
B( 19-C , 20-C ) :   1.5761 B( 19-C , 22-C ) :   1.0500 B( 22-C , 23-H ) :   0.9205
B( 22-C , 24-H ) :   0.9281 B( 22-C , 25-C ) :   1.0812 B( 25-C , 26-H ) :   0.9578
B( 25-C , 27-H ) :   0.9438 B( 25-C , 28-C ) :   1.0817 B( 28-C , 29-H ) :   0.9752
B( 28-C , 30-H ) :   0.9716 B( 28-C , 31-H ) :   0.9698

Dispersion correction           -0.013719218
FINAL SINGLE POINT ENERGY     -1339.857068497006

DIPOLE MOMENT
-------------
                                X             Y             Z
Electronic contribution:    -15.63547       2.54566      -6.72461
Nuclear contribution   :     16.17379      -2.53385       6.80643
                        -----------------------------------------
Total Dipole Moment    :      0.53832       0.01181       0.08182
                        -----------------------------------------
Magnitude (a.u.)       :      0.54463
Magnitude (Debye)      :      1.38433

Rotational constants in cm-1:     0.019469     0.008228     0.006718
Rotational constants in MHz :   583.654750   246.662046   201.390398

                             ****ORCA TERMINATED NORMALLY****
TOTAL RUN TIME: 0 days 0 hours 0 minutes 31 seconds 760 msec
