                         Program Version 4.2.1 -  RELEASE  -
|  1> ! wB97X-D3 SP def2-SVP
|  2> %pal
|  3> nprocs 16
|  4> end
|  5>
|  6> * xyz 0 1
|  7> S 	 -19.0141 	 -7.5736 	 84.494
|  8> C 	 -17.4342 	 -8.32805 	 84.5089
|  9> C 	 -16.7287 	 -8.01636 	 85.7301
| 10> C 	 -17.7208 	 -7.55635 	 86.7639
| 11> C 	 -18.9844 	 -7.28227 	 86.2376
| 12> H 	 -17.4994 	 -7.23302 	 87.7035
| 13> C 	 -15.3003 	 -8.47732 	 85.9668
| 14> H 	 -14.6609 	 -7.65833 	 86.2065
| 15> H 	 -14.9353 	 -8.78719 	 84.967
| 16> C 	 -14.972 	 -9.57653 	 87.1113
| 17> H 	 -13.9215 	 -9.63015 	 87.2141
| 18> H 	 -15.4025 	 -9.27944 	 88.0617
| 19> C 	 -15.5663 	 -10.9504 	 86.8478
| 20> H 	 -15.2241 	 -11.4707 	 85.9741
| 21> H 	 -15.444 	 -11.6619 	 87.649
| 22> H 	 -16.6696 	 -10.8205 	 86.797
| 23> S 	 -21.7648 	 -7.46242 	 86.6812
| 24> C 	 -22.4869 	 -6.35446 	 87.7661
| 25> C 	 -21.5695 	 -5.49678 	 88.3521
| 26> C 	 -20.217 	 -5.75594 	 88.0263
| 27> C 	 -20.1402 	 -6.65452 	 86.9226
| 28> H 	 -21.9752 	 -4.7656 	 89.0951
| 29> C 	 -19.0606 	 -5.07533 	 88.697
| 30> H 	 -19.2729 	 -4.02306 	 88.7091
| 31> H 	 -18.2646 	 -5.17689 	 88.0109
| 32> C 	 -18.7955 	 -5.55484 	 90.1138
| 33> H 	 -18.5366 	 -6.56082 	 90.002
| 34> H 	 -19.7929 	 -5.58681 	 90.6327
| 35> C 	 -17.8004 	 -4.62148 	 90.9488
| 36> H 	 -16.8172 	 -4.59888 	 90.479
| 37> H 	 -17.6333 	 -5.04035 	 91.9831
| 38> H 	 -18.153 	 -3.57454 	 91.1096
| 39> H 	 -16.8887 	 -8.80863 	 83.6769
| 40> H 	 -23.4931 	 -6.28449 	 87.9298
| 41> *
| 42>
| 43>                          ****END OF INPUT****

CARTESIAN COORDINATES (ANGSTROEM)
---------------------------------
  S    -19.014100   -7.573600   84.494000
  C    -17.434200   -8.328050   84.508900
  C    -16.728700   -8.016360   85.730100
  C    -17.720800   -7.556350   86.763900
  C    -18.984400   -7.282270   86.237600
  H    -17.499400   -7.233020   87.703500
  C    -15.300300   -8.477320   85.966800
  H    -14.660900   -7.658330   86.206500
  H    -14.935300   -8.787190   84.967000
  C    -14.972000   -9.576530   87.111300
  H    -13.921500   -9.630150   87.214100
  H    -15.402500   -9.279440   88.061700
  C    -15.566300  -10.950400   86.847800
  H    -15.224100  -11.470700   85.974100
  H    -15.444000  -11.661900   87.649000
  H    -16.669600  -10.820500   86.797000
  S    -21.764800   -7.462420   86.681200
  C    -22.486900   -6.354460   87.766100
  C    -21.569500   -5.496780   88.352100
  C    -20.217000   -5.755940   88.026300
  C    -20.140200   -6.654520   86.922600
  H    -21.975200   -4.765600   89.095100
  C    -19.060600   -5.075330   88.697000
  H    -19.272900   -4.023060   88.709100
  H    -18.264600   -5.176890   88.010900
  C    -18.795500   -5.554840   90.113800
  H    -18.536600   -6.560820   90.002000
  H    -19.792900   -5.586810   90.632700
  C    -17.800400   -4.621480   90.948800
  H    -16.817200   -4.598880   90.479000
  H    -17.633300   -5.040350   91.983100
  H    -18.153000   -3.574540   91.109600
  H    -16.888700   -8.808630   83.676900
  H    -23.493100   -6.284490   87.929800

 Total Charge           Charge          ....    0
 Multiplicity           Mult            ....    1
 Number of Electrons    NEL             ....  134
 Basis Dimension        Dim             ....  322

ORBITAL ENERGIES
----------------

  NO   OCC          E(Eh)            E(eV)
   0   2.0000     -88.967788     -2420.9366
   1   2.0000     -88.967428     -2420.9268
   2   2.0000     -10.337024      -281.2847
   3   2.0000     -10.335757      -281.2502
   4   2.0000     -10.322912      -280.9007
   5   2.0000     -10.315946      -280.7112
   6   2.0000     -10.311793      -280.5981
   7   2.0000     -10.311126      -280.5800
   8   2.0000     -10.298826      -280.2453
   9   2.0000     -10.297385      -280.2061
  10   2.0000     -10.296364      -280.1783
  11   2.0000     -10.294464      -280.1266
  12   2.0000     -10.294252      -280.1208
  13   2.0000     -10.289735      -279.9979
  14   2.0000     -10.286187      -279.9014
  15   2.0000     -10.270613      -279.4776
  16   2.0000      -8.081912      -219.9200
  17   2.0000      -8.081634      -219.9125
  18   2.0000      -6.040533      -164.3713
  19   2.0000      -6.040030      -164.3576
  20   2.0000      -6.036554      -164.2630
  21   2.0000      -6.036285      -164.2557
  22   2.0000      -6.032521      -164.1532
  23   2.0000      -6.032474      -164.1519
  24   2.0000      -0.997986       -27.1566
  25   2.0000      -0.975489       -26.5444
  26   2.0000      -0.914182       -24.8762
  27   2.0000      -0.900906       -24.5149
  28   2.0000      -0.863330       -23.4924
  29   2.0000      -0.848878       -23.0992
  30   2.0000      -0.841588       -22.9008
  31   2.0000      -0.812952       -22.1216
  32   2.0000      -0.786302       -21.3964
  33   2.0000      -0.769679       -20.9440
  34   2.0000      -0.713644       -19.4192
  35   2.0000      -0.705710       -19.2033
  36   2.0000      -0.692751       -18.8507
  37   2.0000      -0.657705       -17.8971
  38   2.0000      -0.639917       -17.4130
  39   2.0000      -0.618775       -16.8377
  40   2.0000      -0.597549       -16.2601
  41   2.0000      -0.567413       -15.4401
  42   2.0000      -0.563103       -15.3228
  43   2.0000      -0.544574       -14.8186
  44   2.0000      -0.538867       -14.6633
  45   2.0000      -0.523057       -14.2331
  46   2.0000      -0.519034       -14.1236
  47   2.0000      -0.513534       -13.9740
  48   2.0000      -0.500605       -13.6221
  49   2.0000      -0.497279       -13.5316
  50   2.0000      -0.489025       -13.3070
  51   2.0000      -0.476029       -12.9534
  52   2.0000      -0.465338       -12.6625
  53   2.0000      -0.464190       -12.6312
  54   2.0000      -0.459538       -12.5047
  55   2.0000      -0.449933       -12.2433
  56   2.0000      -0.443052       -12.0561
  57   2.0000      -0.442118       -12.0306
  58   2.0000      -0.433552       -11.7975
  59   2.0000      -0.426944       -11.6177
  60   2.0000      -0.425968       -11.5912
  61   2.0000      -0.420416       -11.4401
  62   2.0000      -0.417671       -11.3654
  63   2.0000      -0.346200        -9.4206
  64   2.0000      -0.333104        -9.0642
  65   2.0000      -0.323532        -8.8037
  66   2.0000      -0.288264        -7.8441
  67   0.0000       0.020803         0.5661
  68   0.0000       0.068119         1.8536
  69   0.0000       0.099293         2.7019
  70   0.0000       0.108772         2.9598
  71   0.0000       0.130893         3.5618

MULLIKEN ATOMIC CHARGES
-----------------------
   0 S :    0.116362
   1 C :   -0.121598
   2 C :   -0.119739
   3 C :    0.068207
   4 C :   -0.145390
   5 H :   -0.033082
   6 C :    0.052278
   7 H :    0.028307
   8 H :    0.014830
   9 C :   -0.041971
  10 H :    0.023678
  11 H :    0.027813
  12 C :   -0.062358
  13 H :    0.024271
  14 H :    0.025886
  15 H :    0.040870
  16 S :    0.102212
  17 C :   -0.050597
  18 C :   -0.053155
  19 C :   -0.059785
  20 C :   -0.139929
  21 H :    0.033816
  22 C :    0.097444
  23 H :    0.014719
  24 H :    0.011291
  25 C :   -0.058953
  26 H :    0.016172
  27 H :    0.034636
  28 C :   -0.068084
  29 H :    0.038227
  30 H :    0.045329
  31 H :    0.046569
  32 H :    0.067105
  33 H :    0.024615
Sum of atomic charges:    0.0000000

LOEWDIN ATOMIC CHARGES
----------------------
   0 S :    0.400215
   1 C :   -0.206955
   2 C :   -0.053544
   3 C :   -0.056784
   4 C :   -0.187345
   5 H :    0.008470
   6 C :   -0.035338
   7 H :    0.028810
   8 H :    0.031234
   9 C :   -0.028920
  10 H :    0.017815
  11 H :    0.025237
  12 C :   -0.071650
  13 H :    0.018534
  14 H :    0.023570
  15 H :    0.033185
  16 S :    0.397069
  17 C :   -0.177603
  18 C :   -0.079394
  19 C :   -0.041050
  20 C :   -0.184296
  21 H :    0.039261
  22 C :   -0.031584
  23 H :    0.029950
  24 H :    0.022661
  25 C :   -0.034004
  26 H :    0.015645
  27 H :    0.031484
  28 C :   -0.071394
  29 H :    0.024720
  30 H :    0.033643
  31 H :    0.031396
  32 H :    0.035786
  33 H :    0.011174

  Mayer bond orders larger than 0.100000
B(  0-S ,  1-C ) :   1.1405 B(  0-S ,  4-C ) :   1.1417 B(  1-C ,  2-C ) :   1.5923
B(  1-C , 32-H ) :   0.9613 B(  2-C ,  3-C ) :   1.2028 B(  2-C ,  6-C ) :   1.0531
B(  3-C ,  4-C ) :   1.5916 B(  3-C ,  5-H ) :   0.9960 B(  4-C , 20-C ) :   1.0383
B(  6-C ,  7-H ) :   0.9345 B(  6-C ,  8-H ) :   0.9431 B(  6-C ,  9-C ) :   1.0525
B(  9-C , 10-H ) :   0.9573 B(  9-C , 11-H ) :   0.9575 B(  9-C , 12-C ) :   1.0782
B( 12-C , 13-H ) :   0.9776 B( 12-C , 14-H ) :   0.9737 B( 12-C , 15-H ) :   0.9745
B( 16-S , 17-C ) :   1.1710 B( 16-S , 20-C ) :   1.1312 B( 17-C , 18-C ) :   1.6035
B( 17-C , 20-C ) :   0.1067 B( 17-C , 33-H ) :   0.9739 B( 18-C , 19-C ) :   1.2456
B( 18-C , 21-H ) :   0.9814 B( 19-C , 20-C ) :   1.5650 B( 19-C , 22-C ) :   1.0462
B( 22-C , 23-H ) :   0.9291 B( 22-C , 24-H ) :   0.9276 B( 22-C , 25-C ) :   1.0487
B( 25-C , 26-H ) :   0.9545 B( 25-C , 27-H ) :   0.9578 B( 25-C , 28-C ) :   1.0646
B( 28-C , 29-H ) :   0.9772 B( 28-C , 30-H ) :   0.9769 B( 28-C , 31-H ) :   0.9761

Dispersion correction           -0.014092399
FINAL SINGLE POINT ENERGY     -1339.856647226523

DIPOLE MOMENT
-------------
                                X             Y             Z
Electronic contribution:    -22.06029       0.90343     -18.31214
Nuclear contribution   :     22.48601      -0.68356      18.91416
                        -----------------------------------------
Total Dipole Moment    :      0.42572       0.21987       0.60203
                        -----------------------------------------
Magnitude (a.u.)       :      0.76943
Magnitude (Debye)      :      1.95572

Rotational constants in cm-1:     0.016308     0.009039     0.006617
Rotational constants in MHz :   488.896281   270.975446   198.380989

                             ****ORCA TERMINATED NORMALLY****
TOTAL RUN TIME: 0 days 0 hours 0 minutes 33 seconds 172 msec
