                         Program Version 4.2.1 -  RELEASE  -
|  1> ! wB97X-D3 SP def2-SVP
|  2> %pal
|  3> nprocs 16
|  4> end
|  5>
|  6> * xyz 0 1
|  7> S 	 -47.8889 	 64.2063 	 142.787
|  8> C 	 -46.353 	 63.4134 	 142.524
|  9> C 	 -45.6281 	 64.0943 	 141.54
| 10> C 	 -46.3809 	 65.1162 	 140.937
| 11> C 	 -47.6579 	 65.2913 	 141.469
| 12> H 	 -46.0526 	 65.7135 	 140.11
| 13> C 	 -44.222 	 63.8111 	 141.077
| 14> H 	 -43.9566 	 64.4898 	 140.227
| 15> H 	 -44.2271 	 62.8072 	 140.714
| 16> C 	 -42.9845 	 63.953 	 142.016
| 17> H 	 -42.7604 	 64.9719 	 142.292
| 18> H 	 -43.1946 	 63.2642 	 142.813
| 19> C 	 -41.8711 	 63.3474 	 141.175
| 20> H 	 -42.2265 	 62.4585 	 140.641
| 21> H 	 -41.5097 	 63.9932 	 140.401
| 22> H 	 -41.0817 	 63.0186 	 141.827
| 23> S 	 -49.9736 	 65.6625 	 140.068
| 24> C 	 -50.7522 	 67.2435 	 139.999
| 25> C 	 -49.9726 	 68.1847 	 140.604
| 26> C 	 -48.7632 	 67.6346 	 141.139
| 27> C 	 -48.6346 	 66.2683 	 140.962
| 28> H 	 -50.2434 	 69.1997 	 140.613
| 29> C 	 -47.8703 	 68.506 	 141.983
| 30> H 	 -48.4815 	 69.4139 	 142.192
| 31> H 	 -47.004 	 68.8043 	 141.379
| 32> C 	 -47.4302 	 67.8544 	 143.279
| 33> H 	 -46.5925 	 67.1089 	 143.062
| 34> H 	 -48.2451 	 67.2939 	 143.725
| 35> C 	 -46.9048 	 68.8013 	 144.37
| 36> H 	 -47.7545 	 68.9919 	 145.063
| 37> H 	 -46.5803 	 69.7203 	 143.99
| 38> H 	 -46.2703 	 68.3847 	 145.108
| 39> H 	 -45.9111 	 62.6945 	 143.16
| 40> H 	 -51.7535 	 67.3802 	 139.589
| 41> *
| 42>
| 43>                          ****END OF INPUT****

CARTESIAN COORDINATES (ANGSTROEM)
---------------------------------
  S    -47.888900   64.206300  142.787000
  C    -46.353000   63.413400  142.524000
  C    -45.628100   64.094300  141.540000
  C    -46.380900   65.116200  140.937000
  C    -47.657900   65.291300  141.469000
  H    -46.052600   65.713500  140.110000
  C    -44.222000   63.811100  141.077000
  H    -43.956600   64.489800  140.227000
  H    -44.227100   62.807200  140.714000
  C    -42.984500   63.953000  142.016000
  H    -42.760400   64.971900  142.292000
  H    -43.194600   63.264200  142.813000
  C    -41.871100   63.347400  141.175000
  H    -42.226500   62.458500  140.641000
  H    -41.509700   63.993200  140.401000
  H    -41.081700   63.018600  141.827000
  S    -49.973600   65.662500  140.068000
  C    -50.752200   67.243500  139.999000
  C    -49.972600   68.184700  140.604000
  C    -48.763200   67.634600  141.139000
  C    -48.634600   66.268300  140.962000
  H    -50.243400   69.199700  140.613000
  C    -47.870300   68.506000  141.983000
  H    -48.481500   69.413900  142.192000
  H    -47.004000   68.804300  141.379000
  C    -47.430200   67.854400  143.279000
  H    -46.592500   67.108900  143.062000
  H    -48.245100   67.293900  143.725000
  C    -46.904800   68.801300  144.370000
  H    -47.754500   68.991900  145.063000
  H    -46.580300   69.720300  143.990000
  H    -46.270300   68.384700  145.108000
  H    -45.911100   62.694500  143.160000
  H    -51.753500   67.380200  139.589000

 Total Charge           Charge          ....    0
 Multiplicity           Mult            ....    1
 Number of Electrons    NEL             ....  134
 Basis Dimension        Dim             ....  322

ORBITAL ENERGIES
----------------

  NO   OCC          E(Eh)            E(eV)
   0   2.0000     -88.969429     -2420.9813
   1   2.0000     -88.960376     -2420.7349
   2   2.0000     -10.326809      -281.0067
   3   2.0000     -10.321760      -280.8694
   4   2.0000     -10.316878      -280.7365
   5   2.0000     -10.312264      -280.6110
   6   2.0000     -10.299044      -280.2512
   7   2.0000     -10.297402      -280.2065
   8   2.0000     -10.289972      -280.0044
   9   2.0000     -10.289877      -280.0018
  10   2.0000     -10.289076      -279.9800
  11   2.0000     -10.287564      -279.9389
  12   2.0000     -10.286709      -279.9156
  13   2.0000     -10.280594      -279.7492
  14   2.0000     -10.274130      -279.5733
  15   2.0000     -10.266447      -279.3642
  16   2.0000      -8.083883      -219.9736
  17   2.0000      -8.075731      -219.7518
  18   2.0000      -6.042277      -164.4187
  19   2.0000      -6.038282      -164.3100
  20   2.0000      -6.034927      -164.2187
  21   2.0000      -6.034200      -164.1989
  22   2.0000      -6.030048      -164.0859
  23   2.0000      -6.026591      -163.9919
  24   2.0000      -1.008097       -27.4317
  25   2.0000      -0.986710       -26.8497
  26   2.0000      -0.916688       -24.9443
  27   2.0000      -0.906096       -24.6561
  28   2.0000      -0.871333       -23.7102
  29   2.0000      -0.852766       -23.2050
  30   2.0000      -0.846680       -23.0393
  31   2.0000      -0.814397       -22.1609
  32   2.0000      -0.777383       -21.1537
  33   2.0000      -0.768275       -20.9058
  34   2.0000      -0.708043       -19.2668
  35   2.0000      -0.705113       -19.1871
  36   2.0000      -0.686256       -18.6740
  37   2.0000      -0.663381       -18.0515
  38   2.0000      -0.643443       -17.5090
  39   2.0000      -0.617599       -16.8057
  40   2.0000      -0.595995       -16.2178
  41   2.0000      -0.581696       -15.8287
  42   2.0000      -0.570942       -15.5361
  43   2.0000      -0.558912       -15.2088
  44   2.0000      -0.530686       -14.4407
  45   2.0000      -0.521776       -14.1983
  46   2.0000      -0.515646       -14.0314
  47   2.0000      -0.510819       -13.9001
  48   2.0000      -0.507038       -13.7972
  49   2.0000      -0.500001       -13.6057
  50   2.0000      -0.488738       -13.2992
  51   2.0000      -0.483618       -13.1599
  52   2.0000      -0.472581       -12.8596
  53   2.0000      -0.464114       -12.6292
  54   2.0000      -0.458764       -12.4836
  55   2.0000      -0.449498       -12.2315
  56   2.0000      -0.445203       -12.1146
  57   2.0000      -0.443682       -12.0732
  58   2.0000      -0.434739       -11.8299
  59   2.0000      -0.421790       -11.4775
  60   2.0000      -0.416727       -11.3397
  61   2.0000      -0.412118       -11.2143
  62   2.0000      -0.398575       -10.8458
  63   2.0000      -0.338129        -9.2009
  64   2.0000      -0.328868        -8.9490
  65   2.0000      -0.321142        -8.7387
  66   2.0000      -0.304954        -8.2982
  67   0.0000       0.039162         1.0656
  68   0.0000       0.060508         1.6465
  69   0.0000       0.121000         3.2926
  70   0.0000       0.127088         3.4582
  71   0.0000       0.130506         3.5513

MULLIKEN ATOMIC CHARGES
-----------------------
   0 S :    0.135584
   1 C :   -0.109045
   2 C :   -0.044591
   3 C :    0.038825
   4 C :   -0.176350
   5 H :    0.003254
   6 C :   -0.010226
   7 H :    0.023218
   8 H :    0.031548
   9 C :   -0.029071
  10 H :    0.040709
  11 H :    0.020727
  12 C :   -0.039621
  13 H :    0.016921
  14 H :    0.029669
  15 H :    0.029891
  16 S :    0.106172
  17 C :   -0.101389
  18 C :   -0.011382
  19 C :   -0.044855
  20 C :   -0.183491
  21 H :    0.003861
  22 C :    0.098502
  23 H :    0.017139
  24 H :    0.038882
  25 C :   -0.123214
  26 H :    0.056699
  27 H :    0.027915
  28 C :   -0.000568
  29 H :    0.015472
  30 H :    0.020415
  31 H :    0.020287
  32 H :    0.034317
  33 H :    0.063795
Sum of atomic charges:    0.0000000

LOEWDIN ATOMIC CHARGES
----------------------
   0 S :    0.435553
   1 C :   -0.198776
   2 C :   -0.066432
   3 C :   -0.059680
   4 C :   -0.209949
   5 H :    0.028500
   6 C :   -0.035677
   7 H :    0.032047
   8 H :    0.028910
   9 C :   -0.027636
  10 H :    0.025936
  11 H :    0.020298
  12 C :   -0.061031
  13 H :    0.025123
  14 H :    0.022304
  15 H :    0.023284
  16 S :    0.413868
  17 C :   -0.176685
  18 C :   -0.068651
  19 C :   -0.056282
  20 C :   -0.214427
  21 H :    0.025467
  22 C :   -0.033089
  23 H :    0.031006
  24 H :    0.035894
  25 C :   -0.049312
  26 H :    0.033971
  27 H :    0.020382
  28 C :   -0.065730
  29 H :    0.030660
  30 H :    0.014938
  31 H :    0.023233
  32 H :    0.019941
  33 H :    0.032045

  Mayer bond orders larger than 0.100000
B(  0-S ,  1-C ) :   1.1530 B(  0-S ,  4-C ) :   1.1792 B(  1-C ,  2-C ) :   1.5609
B(  1-C ,  4-C ) :   0.1047 B(  1-C , 32-H ) :   0.9760 B(  2-C ,  3-C ) :   1.2889
B(  2-C ,  6-C ) :   1.0056 B(  3-C ,  4-C ) :   1.5400 B(  3-C ,  5-H ) :   0.9986
B(  4-C , 20-C ) :   1.0081 B(  6-C ,  7-H ) :   0.9524 B(  6-C ,  8-H ) :   0.9415
B(  6-C ,  9-C ) :   1.0686 B(  9-C , 10-H ) :   0.9576 B(  9-C , 11-H ) :   0.9532
B(  9-C , 12-C ) :   1.0812 B( 12-C , 13-H ) :   0.9718 B( 12-C , 14-H ) :   0.9750
B( 12-C , 15-H ) :   0.9714 B( 16-S , 17-C ) :   1.1621 B( 16-S , 20-C ) :   1.1555
B( 17-C , 18-C ) :   1.5965 B( 17-C , 33-H ) :   0.9674 B( 18-C , 19-C ) :   1.2547
B( 18-C , 21-H ) :   0.9989 B( 19-C , 20-C ) :   1.5993 B( 19-C , 22-C ) :   1.0354
B( 22-C , 23-H ) :   0.9403 B( 22-C , 24-H ) :   0.9136 B( 22-C , 25-C ) :   1.0715
B( 25-C , 26-H ) :   0.9451 B( 25-C , 27-H ) :   0.9678 B( 25-C , 28-C ) :   1.0795
B( 28-C , 29-H ) :   0.9717 B( 28-C , 30-H ) :   0.9765 B( 28-C , 31-H ) :   0.9721

Dispersion correction           -0.014435793
FINAL SINGLE POINT ENERGY     -1339.876037769337

DIPOLE MOMENT
-------------
                                X             Y             Z
Electronic contribution:    -25.15084      -6.25349      -7.17870
Nuclear contribution   :     25.63981       6.52915       7.26501
                        -----------------------------------------
Total Dipole Moment    :      0.48897       0.27566       0.08631
                        -----------------------------------------
Magnitude (a.u.)       :      0.56791
Magnitude (Debye)      :      1.44352

Rotational constants in cm-1:     0.020526     0.007960     0.006858
Rotational constants in MHz :   615.353166   238.620530   205.590341

                             ****ORCA TERMINATED NORMALLY****
TOTAL RUN TIME: 0 days 0 hours 0 minutes 35 seconds 751 msec
