                         Program Version 4.2.1 -  RELEASE  -
|  1> ! wB97X-D3 SP def2-SVP
|  2> %pal
|  3> nprocs 16
|  4> end
|  5>
|  6> * xyz 0 1
|  7> S 	 -61.5959 	 35.7543 	 132.463
|  8> C 	 -59.9524 	 35.1726 	 132.605
|  9> C 	 -59.1041 	 36.238 	 132.926
| 10> C 	 -59.8235 	 37.4834 	 133.119
| 11> C 	 -61.1621 	 37.3642 	 132.865
| 12> H 	 -59.2953 	 38.3236 	 133.525
| 13> C 	 -57.6109 	 36.0836 	 133.172
| 14> H 	 -57.148 	 37.0515 	 132.951
| 15> H 	 -57.1842 	 35.39 	 132.401
| 16> C 	 -57.0398 	 35.5032 	 134.52
| 17> H 	 -57.4862 	 36.0787 	 135.286
| 18> H 	 -57.2519 	 34.4353 	 134.56
| 19> C 	 -55.5545 	 35.7108 	 134.532
| 20> H 	 -55.0782 	 35.1076 	 133.774
| 21> H 	 -55.1262 	 36.7566 	 134.465
| 22> H 	 -55.193 	 35.319 	 135.45
| 23> S 	 -63.2902 	 38.1446 	 134.251
| 24> C 	 -64.1462 	 39.6837 	 133.91
| 25> C 	 -63.3734 	 40.3483 	 132.953
| 26> C 	 -62.249 	 39.6116 	 132.385
| 27> C 	 -62.1663 	 38.365 	 132.921
| 28> H 	 -63.8056 	 41.2817 	 132.574
| 29> C 	 -61.4641 	 40.0009 	 131.13
| 30> H 	 -60.4305 	 39.7033 	 131.234
| 31> H 	 -61.5188 	 41.0476 	 131.168
| 32> C 	 -62.1023 	 39.5558 	 129.786
| 33> H 	 -63.0475 	 40.0034 	 129.674
| 34> H 	 -62.2064 	 38.5425 	 129.673
| 35> C 	 -61.2376 	 39.9744 	 128.679
| 36> H 	 -60.181 	 39.8958 	 128.887
| 37> H 	 -61.1718 	 41.0373 	 128.349
| 38> H 	 -61.4126 	 39.4287 	 127.757
| 39> H 	 -59.4964 	 34.1523 	 132.554
| 40> H 	 -64.9773 	 40.2101 	 134.366
| 41> *
| 42>
| 43>                          ****END OF INPUT****

CARTESIAN COORDINATES (ANGSTROEM)
---------------------------------
  S    -61.595900   35.754300  132.463000
  C    -59.952400   35.172600  132.605000
  C    -59.104100   36.238000  132.926000
  C    -59.823500   37.483400  133.119000
  C    -61.162100   37.364200  132.865000
  H    -59.295300   38.323600  133.525000
  C    -57.610900   36.083600  133.172000
  H    -57.148000   37.051500  132.951000
  H    -57.184200   35.390000  132.401000
  C    -57.039800   35.503200  134.520000
  H    -57.486200   36.078700  135.286000
  H    -57.251900   34.435300  134.560000
  C    -55.554500   35.710800  134.532000
  H    -55.078200   35.107600  133.774000
  H    -55.126200   36.756600  134.465000
  H    -55.193000   35.319000  135.450000
  S    -63.290200   38.144600  134.251000
  C    -64.146200   39.683700  133.910000
  C    -63.373400   40.348300  132.953000
  C    -62.249000   39.611600  132.385000
  C    -62.166300   38.365000  132.921000
  H    -63.805600   41.281700  132.574000
  C    -61.464100   40.000900  131.130000
  H    -60.430500   39.703300  131.234000
  H    -61.518800   41.047600  131.168000
  C    -62.102300   39.555800  129.786000
  H    -63.047500   40.003400  129.674000
  H    -62.206400   38.542500  129.673000
  C    -61.237600   39.974400  128.679000
  H    -60.181000   39.895800  128.887000
  H    -61.171800   41.037300  128.349000
  H    -61.412600   39.428700  127.757000
  H    -59.496400   34.152300  132.554000
  H    -64.977300   40.210100  134.366000

 Total Charge           Charge          ....    0
 Multiplicity           Mult            ....    1
 Number of Electrons    NEL             ....  134
 Basis Dimension        Dim             ....  322

ORBITAL ENERGIES
----------------

  NO   OCC          E(Eh)            E(eV)
   0   2.0000     -88.968374     -2420.9525
   1   2.0000     -88.961916     -2420.7768
   2   2.0000     -10.324478      -280.9433
   3   2.0000     -10.322236      -280.8823
   4   2.0000     -10.319589      -280.8103
   5   2.0000     -10.316837      -280.7354
   6   2.0000     -10.302828      -280.3542
   7   2.0000     -10.301085      -280.3068
   8   2.0000     -10.298735      -280.2428
   9   2.0000     -10.294310      -280.1224
  10   2.0000     -10.293902      -280.1113
  11   2.0000     -10.287293      -279.9315
  12   2.0000     -10.287074      -279.9255
  13   2.0000     -10.277427      -279.6630
  14   2.0000     -10.272304      -279.5236
  15   2.0000     -10.268652      -279.4242
  16   2.0000      -8.083403      -219.9606
  17   2.0000      -8.075997      -219.7591
  18   2.0000      -6.041978      -164.4106
  19   2.0000      -6.037705      -164.2943
  20   2.0000      -6.034719      -164.2130
  21   2.0000      -6.034223      -164.1995
  22   2.0000      -6.030480      -164.0977
  23   2.0000      -6.026635      -163.9931
  24   2.0000      -1.011021       -27.5113
  25   2.0000      -0.979800       -26.6617
  26   2.0000      -0.914256       -24.8782
  27   2.0000      -0.911752       -24.8100
  28   2.0000      -0.874427       -23.7944
  29   2.0000      -0.854407       -23.2496
  30   2.0000      -0.846560       -23.0361
  31   2.0000      -0.814849       -22.1732
  32   2.0000      -0.778349       -21.1800
  33   2.0000      -0.769017       -20.9260
  34   2.0000      -0.711887       -19.3714
  35   2.0000      -0.703515       -19.1436
  36   2.0000      -0.701313       -19.0837
  37   2.0000      -0.661838       -18.0095
  38   2.0000      -0.635293       -17.2872
  39   2.0000      -0.622789       -16.9470
  40   2.0000      -0.588244       -16.0069
  41   2.0000      -0.573413       -15.6034
  42   2.0000      -0.570723       -15.5302
  43   2.0000      -0.563841       -15.3429
  44   2.0000      -0.528783       -14.3889
  45   2.0000      -0.525883       -14.3100
  46   2.0000      -0.521589       -14.1932
  47   2.0000      -0.511147       -13.9090
  48   2.0000      -0.505356       -13.7514
  49   2.0000      -0.500572       -13.6213
  50   2.0000      -0.493677       -13.4336
  51   2.0000      -0.480102       -13.0642
  52   2.0000      -0.468082       -12.7372
  53   2.0000      -0.461572       -12.5600
  54   2.0000      -0.457744       -12.4558
  55   2.0000      -0.449749       -12.2383
  56   2.0000      -0.444986       -12.1087
  57   2.0000      -0.433853       -11.8057
  58   2.0000      -0.431834       -11.7508
  59   2.0000      -0.424606       -11.5541
  60   2.0000      -0.420045       -11.4300
  61   2.0000      -0.417553       -11.3622
  62   2.0000      -0.410631       -11.1738
  63   2.0000      -0.342245        -9.3129
  64   2.0000      -0.329307        -8.9609
  65   2.0000      -0.324555        -8.8316
  66   2.0000      -0.300249        -8.1702
  67   0.0000       0.032447         0.8829
  68   0.0000       0.065860         1.7921
  69   0.0000       0.113614         3.0916
  70   0.0000       0.118015         3.2113
  71   0.0000       0.127251         3.4627

MULLIKEN ATOMIC CHARGES
-----------------------
   0 S :    0.128198
   1 C :   -0.116241
   2 C :   -0.113221
   3 C :    0.059968
   4 C :   -0.162035
   5 H :    0.009296
   6 C :   -0.007966
   7 H :    0.018493
   8 H :    0.025902
   9 C :   -0.014506
  10 H :    0.024387
  11 H :    0.032474
  12 C :   -0.051717
  13 H :    0.021502
  14 H :    0.042295
  15 H :    0.020657
  16 S :    0.095905
  17 C :   -0.082158
  18 C :   -0.070821
  19 C :   -0.032020
  20 C :   -0.142104
  21 H :    0.023289
  22 C :    0.073093
  23 H :    0.024201
  24 H :    0.006593
  25 C :    0.049610
  26 H :    0.013808
  27 H :    0.012404
  28 C :   -0.066153
  29 H :    0.009863
  30 H :    0.019112
  31 H :    0.028518
  32 H :    0.059147
  33 H :    0.060227
Sum of atomic charges:    0.0000000

LOEWDIN ATOMIC CHARGES
----------------------
   0 S :    0.431608
   1 C :   -0.213708
   2 C :   -0.066828
   3 C :   -0.058118
   4 C :   -0.212875
   5 H :    0.030695
   6 C :   -0.043638
   7 H :    0.027154
   8 H :    0.032744
   9 C :   -0.028132
  10 H :    0.019366
  11 H :    0.027983
  12 C :   -0.067229
  13 H :    0.022360
  14 H :    0.032856
  15 H :    0.021836
  16 S :    0.388020
  17 C :   -0.180974
  18 C :   -0.073563
  19 C :   -0.057929
  20 C :   -0.196843
  21 H :    0.029579
  22 C :   -0.017578
  23 H :    0.029066
  24 H :    0.023730
  25 C :   -0.022535
  26 H :    0.023864
  27 H :    0.019098
  28 C :   -0.073919
  29 H :    0.022279
  30 H :    0.026199
  31 H :    0.025701
  32 H :    0.042231
  33 H :    0.037500

  Mayer bond orders larger than 0.100000
B(  0-S ,  1-C ) :   1.1334 B(  0-S ,  4-C ) :   1.1642 B(  1-C ,  2-C ) :   1.6095
B(  1-C , 32-H ) :   0.9636 B(  2-C ,  3-C ) :   1.2521 B(  2-C ,  6-C ) :   1.0288
B(  3-C ,  4-C ) :   1.5570 B(  3-C ,  5-H ) :   1.0009 B(  4-C , 20-C ) :   1.0067
B(  6-C ,  7-H ) :   0.9455 B(  6-C ,  8-H ) :   0.9410 B(  6-C ,  9-C ) :   1.0601
B(  9-C , 10-H ) :   0.9559 B(  9-C , 11-H ) :   0.9511 B(  9-C , 12-C ) :   1.0898
B( 12-C , 13-H ) :   0.9722 B( 12-C , 14-H ) :   0.9740 B( 12-C , 15-H ) :   0.9696
B( 16-S , 17-C ) :   1.1248 B( 16-S , 20-C ) :   1.1405 B( 17-C , 18-C ) :   1.6509
B( 17-C , 20-C ) :   0.1002 B( 17-C , 33-H ) :   0.9667 B( 18-C , 19-C ) :   1.2030
B( 18-C , 21-H ) :   0.9795 B( 19-C , 20-C ) :   1.6224 B( 19-C , 22-C ) :   1.0562
B( 22-C , 23-H ) :   0.9310 B( 22-C , 24-H ) :   0.9279 B( 22-C , 25-C ) :   1.0756
B( 25-C , 26-H ) :   0.9466 B( 25-C , 27-H ) :   0.9517 B( 25-C , 28-C ) :   1.0862
B( 28-C , 29-H ) :   0.9681 B( 28-C , 30-H ) :   0.9701 B( 28-C , 31-H ) :   0.9730

Dispersion correction           -0.013704082
FINAL SINGLE POINT ENERGY     -1339.859123258050

DIPOLE MOMENT
-------------
                                X             Y             Z
Electronic contribution:    -22.72954      -4.83981       9.56115
Nuclear contribution   :     23.26218       5.11338      -9.67759
                        -----------------------------------------
Total Dipole Moment    :      0.53264       0.27357      -0.11644
                        -----------------------------------------
Magnitude (a.u.)       :      0.61001
Magnitude (Debye)      :      1.55052

Rotational constants in cm-1:     0.019045     0.007702     0.006620
Rotational constants in MHz :   570.940271   230.893718   198.476420

                             ****ORCA TERMINATED NORMALLY****
TOTAL RUN TIME: 0 days 0 hours 0 minutes 33 seconds 692 msec
