                         Program Version 4.2.1 -  RELEASE  -
|  1> ! wB97X-D3 SP def2-SVP
|  2> %pal
|  3> nprocs 16
|  4> end
|  5>
|  6> * xyz 0 1
|  7> S 	 -17.8516 	 57.7943 	 64.3048
|  8> C 	 -17.2238 	 56.2815 	 63.6517
|  9> C 	 -16.1334 	 56.5155 	 62.8398
| 10> C 	 -16.0028 	 57.9524 	 62.5562
| 11> C 	 -16.8448 	 58.7377 	 63.2729
| 12> H 	 -15.2911 	 58.4491 	 61.9014
| 13> C 	 -15.2899 	 55.3008 	 62.2593
| 14> H 	 -15.7883 	 55.047 	 61.3057
| 15> H 	 -15.3282 	 54.4634 	 62.9186
| 16> C 	 -13.801 	 55.4298 	 62.0113
| 17> H 	 -13.2874 	 55.5946 	 62.9635
| 18> H 	 -13.3614 	 54.5845 	 61.5068
| 19> C 	 -13.4157 	 56.4891 	 61.0048
| 20> H 	 -14.0374 	 56.4208 	 60.0916
| 21> H 	 -13.3123 	 57.4727 	 61.4745
| 22> H 	 -12.4365 	 56.2266 	 60.5295
| 23> S 	 -17.3311 	 61.3221 	 62.3534
| 24> C 	 -16.9081 	 62.7407 	 63.2679
| 25> C 	 -16.3324 	 62.3043 	 64.4448
| 26> C 	 -16.1974 	 60.8632 	 64.5654
| 27> C 	 -16.7783 	 60.1478 	 63.5137
| 28> H 	 -15.983 	 63.0064 	 65.1647
| 29> C 	 -15.5758 	 60.1802 	 65.7465
| 30> H 	 -14.5593 	 60.4457 	 65.7303
| 31> H 	 -15.654 	 59.1412 	 65.6741
| 32> C 	 -16.1318 	 60.651 	 67.0659
| 33> H 	 -16.0703 	 61.77 	 67.1987
| 34> H 	 -15.4793 	 60.1721 	 67.7988
| 35> C 	 -17.5655 	 60.149 	 67.1972
| 36> H 	 -18.0338 	 60.5695 	 68.1115
| 37> H 	 -17.7132 	 59.0565 	 67.3885
| 38> H 	 -18.1058 	 60.4512 	 66.3188
| 39> H 	 -17.5698 	 55.3193 	 64.0555
| 40> H 	 -16.9547 	 63.7345 	 62.9833
| 41> *
| 42>
| 43>                          ****END OF INPUT****

CARTESIAN COORDINATES (ANGSTROEM)
---------------------------------
  S    -17.851600   57.794300   64.304800
  C    -17.223800   56.281500   63.651700
  C    -16.133400   56.515500   62.839800
  C    -16.002800   57.952400   62.556200
  C    -16.844800   58.737700   63.272900
  H    -15.291100   58.449100   61.901400
  C    -15.289900   55.300800   62.259300
  H    -15.788300   55.047000   61.305700
  H    -15.328200   54.463400   62.918600
  C    -13.801000   55.429800   62.011300
  H    -13.287400   55.594600   62.963500
  H    -13.361400   54.584500   61.506800
  C    -13.415700   56.489100   61.004800
  H    -14.037400   56.420800   60.091600
  H    -13.312300   57.472700   61.474500
  H    -12.436500   56.226600   60.529500
  S    -17.331100   61.322100   62.353400
  C    -16.908100   62.740700   63.267900
  C    -16.332400   62.304300   64.444800
  C    -16.197400   60.863200   64.565400
  C    -16.778300   60.147800   63.513700
  H    -15.983000   63.006400   65.164700
  C    -15.575800   60.180200   65.746500
  H    -14.559300   60.445700   65.730300
  H    -15.654000   59.141200   65.674100
  C    -16.131800   60.651000   67.065900
  H    -16.070300   61.770000   67.198700
  H    -15.479300   60.172100   67.798800
  C    -17.565500   60.149000   67.197200
  H    -18.033800   60.569500   68.111500
  H    -17.713200   59.056500   67.388500
  H    -18.105800   60.451200   66.318800
  H    -17.569800   55.319300   64.055500
  H    -16.954700   63.734500   62.983300

 Total Charge           Charge          ....    0
 Multiplicity           Mult            ....    1
 Number of Electrons    NEL             ....  134
 Basis Dimension        Dim             ....  322

ORBITAL ENERGIES
----------------

  NO   OCC          E(Eh)            E(eV)
   0   2.0000     -88.963209     -2420.8120
   1   2.0000     -88.960519     -2420.7388
   2   2.0000     -10.324863      -280.9538
   3   2.0000     -10.322818      -280.8982
   4   2.0000     -10.318659      -280.7850
   5   2.0000     -10.314747      -280.6785
   6   2.0000     -10.314392      -280.6689
   7   2.0000     -10.301574      -280.3201
   8   2.0000     -10.299846      -280.2731
   9   2.0000     -10.298139      -280.2266
  10   2.0000     -10.292810      -280.0816
  11   2.0000     -10.284217      -279.8478
  12   2.0000     -10.283803      -279.8365
  13   2.0000     -10.279747      -279.7261
  14   2.0000     -10.272947      -279.5411
  15   2.0000     -10.270538      -279.4755
  16   2.0000      -8.078266      -219.8208
  17   2.0000      -8.075487      -219.7452
  18   2.0000      -6.036739      -164.2680
  19   2.0000      -6.034080      -164.1957
  20   2.0000      -6.032671      -164.1573
  21   2.0000      -6.029682      -164.0760
  22   2.0000      -6.029057      -164.0590
  23   2.0000      -6.026396      -163.9866
  24   2.0000      -1.010179       -27.4884
  25   2.0000      -0.984631       -26.7932
  26   2.0000      -0.915878       -24.9223
  27   2.0000      -0.913732       -24.8639
  28   2.0000      -0.877073       -23.8664
  29   2.0000      -0.842850       -22.9351
  30   2.0000      -0.837325       -22.7848
  31   2.0000      -0.820917       -22.3383
  32   2.0000      -0.786953       -21.4141
  33   2.0000      -0.773174       -21.0391
  34   2.0000      -0.707366       -19.2484
  35   2.0000      -0.697245       -18.9730
  36   2.0000      -0.688825       -18.7439
  37   2.0000      -0.656008       -17.8509
  38   2.0000      -0.644447       -17.5363
  39   2.0000      -0.616586       -16.7782
  40   2.0000      -0.602594       -16.3974
  41   2.0000      -0.579335       -15.7645
  42   2.0000      -0.562062       -15.2945
  43   2.0000      -0.557764       -15.1775
  44   2.0000      -0.541393       -14.7321
  45   2.0000      -0.538877       -14.6636
  46   2.0000      -0.524774       -14.2798
  47   2.0000      -0.512210       -13.9379
  48   2.0000      -0.506999       -13.7961
  49   2.0000      -0.497721       -13.5437
  50   2.0000      -0.488723       -13.2988
  51   2.0000      -0.487660       -13.2699
  52   2.0000      -0.469259       -12.7692
  53   2.0000      -0.465571       -12.6688
  54   2.0000      -0.463208       -12.6045
  55   2.0000      -0.438168       -11.9232
  56   2.0000      -0.436875       -11.8880
  57   2.0000      -0.435811       -11.8590
  58   2.0000      -0.428543       -11.6613
  59   2.0000      -0.420718       -11.4483
  60   2.0000      -0.418948       -11.4002
  61   2.0000      -0.411063       -11.1856
  62   2.0000      -0.402966       -10.9653
  63   2.0000      -0.338050        -9.1988
  64   2.0000      -0.329653        -8.9703
  65   2.0000      -0.323109        -8.7922
  66   2.0000      -0.307311        -8.3624
  67   0.0000       0.041981         1.1424
  68   0.0000       0.061328         1.6688
  69   0.0000       0.110013         2.9936
  70   0.0000       0.126999         3.4558
  71   0.0000       0.131111         3.5677

MULLIKEN ATOMIC CHARGES
-----------------------
   0 S :    0.104031
   1 C :   -0.130943
   2 C :   -0.081508
   3 C :    0.053315
   4 C :   -0.175743
   5 H :    0.014305
   6 C :    0.070324
   7 H :    0.044813
   8 H :    0.022388
   9 C :   -0.069038
  10 H :    0.034709
  11 H :    0.025562
  12 C :   -0.088000
  13 H :    0.031063
  14 H :    0.050401
  15 H :    0.026292
  16 S :    0.099887
  17 C :   -0.054633
  18 C :   -0.032085
  19 C :   -0.074266
  20 C :   -0.163002
  21 H :    0.008796
  22 C :    0.146430
  23 H :    0.013416
  24 H :    0.009803
  25 C :   -0.087251
  26 H :    0.038820
  27 H :    0.025607
  28 C :   -0.065427
  29 H :    0.028036
  30 H :    0.035092
  31 H :    0.043000
  32 H :    0.060835
  33 H :    0.034971
Sum of atomic charges:    0.0000000

LOEWDIN ATOMIC CHARGES
----------------------
   0 S :    0.419370
   1 C :   -0.191001
   2 C :   -0.057301
   3 C :   -0.057413
   4 C :   -0.204706
   5 H :    0.034223
   6 C :   -0.027131
   7 H :    0.035918
   8 H :    0.027810
   9 C :   -0.048026
  10 H :    0.026797
  11 H :    0.029577
  12 C :   -0.075377
  13 H :    0.028258
  14 H :    0.023699
  15 H :    0.028435
  16 S :    0.414096
  17 C :   -0.175413
  18 C :   -0.072563
  19 C :   -0.050742
  20 C :   -0.218887
  21 H :    0.023942
  22 C :   -0.027074
  23 H :    0.027613
  24 H :    0.019638
  25 C :   -0.039298
  26 H :    0.027088
  27 H :    0.024115
  28 C :   -0.073804
  29 H :    0.026219
  30 H :    0.028132
  31 H :    0.021213
  32 H :    0.031610
  33 H :    0.020985

  Mayer bond orders larger than 0.100000
B(  0-S ,  1-C ) :   1.1384 B(  0-S ,  4-C ) :   1.1524 B(  1-C ,  2-C ) :   1.6337
B(  1-C , 32-H ) :   0.9700 B(  2-C ,  3-C ) :   1.2024 B(  2-C ,  6-C ) :   0.9947
B(  3-C ,  4-C ) :   1.6233 B(  3-C ,  5-H ) :   0.9930 B(  4-C , 20-C ) :   1.0105
B(  6-C ,  7-H ) :   0.9424 B(  6-C ,  8-H ) :   0.9475 B(  6-C ,  9-C ) :   1.0848
B(  9-C , 10-H ) :   0.9559 B(  9-C , 11-H ) :   0.9551 B(  9-C , 12-C ) :   1.0796
B( 12-C , 13-H ) :   0.9713 B( 12-C , 14-H ) :   0.9699 B( 12-C , 15-H ) :   0.9744
B( 16-S , 17-C ) :   1.1676 B( 16-S , 20-C ) :   1.1378 B( 17-C , 18-C ) :   1.5839
B( 17-C , 33-H ) :   0.9800 B( 18-C , 19-C ) :   1.2461 B( 18-C , 21-H ) :   0.9934
B( 19-C , 20-C ) :   1.5694 B( 19-C , 22-C ) :   1.0552 B( 22-C , 23-H ) :   0.9141
B( 22-C , 24-H ) :   0.9282 B( 22-C , 25-C ) :   1.0814 B( 25-C , 26-H ) :   0.9542
B( 25-C , 27-H ) :   0.9513 B( 25-C , 28-C ) :   1.0717 B( 28-C , 29-H ) :   0.9722
B( 28-C , 30-H ) :   0.9713 B( 28-C , 31-H ) :   0.9752

Dispersion correction           -0.015377704
FINAL SINGLE POINT ENERGY     -1339.871559381872

DIPOLE MOMENT
-------------
                                X             Y             Z
Electronic contribution:    -14.32068       9.09016      -5.82062
Nuclear contribution   :     14.97521      -9.38539       6.00190
                        -----------------------------------------
Total Dipole Moment    :      0.65453      -0.29523       0.18128
                        -----------------------------------------
Magnitude (a.u.)       :      0.74056
Magnitude (Debye)      :      1.88237

Rotational constants in cm-1:     0.020315     0.008690     0.007610
Rotational constants in MHz :   609.026373   260.513057   228.138878

                             ****ORCA TERMINATED NORMALLY****
TOTAL RUN TIME: 0 days 0 hours 0 minutes 32 seconds 287 msec
