                         Program Version 4.2.1 -  RELEASE  -
|  1> ! wB97X-D3 SP def2-SVP
|  2> %pal
|  3> nprocs 16
|  4> end
|  5>
|  6> * xyz 0 1
|  7> S 	 32.9102 	 -0.95751 	 66.4856
|  8> C 	 32.2444 	 0.304525 	 67.4992
|  9> C 	 31.5256 	 -0.218355 	 68.5871
| 10> C 	 31.1341 	 -1.52856 	 68.2631
| 11> C 	 31.7643 	 -2.13921 	 67.1611
| 12> H 	 30.3556 	 -2.09311 	 68.7397
| 13> C 	 30.8482 	 0.575522 	 69.7158
| 14> H 	 29.8411 	 0.236435 	 69.8666
| 15> H 	 30.9547 	 1.60707 	 69.3993
| 16> C 	 31.5593 	 0.510948 	 71.0923
| 17> H 	 32.5975 	 0.806092 	 70.8261
| 18> H 	 31.2283 	 1.32644 	 71.7438
| 19> C 	 31.4091 	 -0.807104 	 71.8565
| 20> H 	 31.8914 	 -1.59068 	 71.3887
| 21> H 	 31.8709 	 -0.729696 	 72.8081
| 22> H 	 30.3244 	 -1.06694 	 71.9765
| 23> S 	 31.5721 	 -3.60226 	 64.9669
| 24> C 	 31.658 	 -5.33291 	 65.0347
| 25> C 	 31.6212 	 -5.75213 	 66.3499
| 26> C 	 31.6872 	 -4.74878 	 67.3554
| 27> C 	 31.6459 	 -3.47061 	 66.7031
| 28> H 	 31.5069 	 -6.80714 	 66.6594
| 29> C 	 31.6711 	 -4.91315 	 68.8705
| 30> H 	 32.3228 	 -4.13959 	 69.2805
| 31> H 	 32.1836 	 -5.86468 	 69.0435
| 32> C 	 30.247 	 -5.0294 	 69.5199
| 33> H 	 29.5262 	 -5.7976 	 69.1282
| 34> H 	 29.6898 	 -4.05951 	 69.4858
| 35> C 	 30.3258 	 -5.23513 	 70.9824
| 36> H 	 29.3056 	 -5.10194 	 71.3364
| 37> H 	 30.7674 	 -4.34062 	 71.415
| 38> H 	 30.7907 	 -6.10207 	 71.4202
| 39> H 	 32.5106 	 1.37574 	 67.5698
| 40> H 	 31.4869 	 -5.89393 	 64.1191
| 41> *
| 42>
| 43>                          ****END OF INPUT****

CARTESIAN COORDINATES (ANGSTROEM)
---------------------------------
  S     32.910200   -0.957510   66.485600
  C     32.244400    0.304525   67.499200
  C     31.525600   -0.218355   68.587100
  C     31.134100   -1.528560   68.263100
  C     31.764300   -2.139210   67.161100
  H     30.355600   -2.093110   68.739700
  C     30.848200    0.575522   69.715800
  H     29.841100    0.236435   69.866600
  H     30.954700    1.607070   69.399300
  C     31.559300    0.510948   71.092300
  H     32.597500    0.806092   70.826100
  H     31.228300    1.326440   71.743800
  C     31.409100   -0.807104   71.856500
  H     31.891400   -1.590680   71.388700
  H     31.870900   -0.729696   72.808100
  H     30.324400   -1.066940   71.976500
  S     31.572100   -3.602260   64.966900
  C     31.658000   -5.332910   65.034700
  C     31.621200   -5.752130   66.349900
  C     31.687200   -4.748780   67.355400
  C     31.645900   -3.470610   66.703100
  H     31.506900   -6.807140   66.659400
  C     31.671100   -4.913150   68.870500
  H     32.322800   -4.139590   69.280500
  H     32.183600   -5.864680   69.043500
  C     30.247000   -5.029400   69.519900
  H     29.526200   -5.797600   69.128200
  H     29.689800   -4.059510   69.485800
  C     30.325800   -5.235130   70.982400
  H     29.305600   -5.101940   71.336400
  H     30.767400   -4.340620   71.415000
  H     30.790700   -6.102070   71.420200
  H     32.510600    1.375740   67.569800
  H     31.486900   -5.893930   64.119100

 Total Charge           Charge          ....    0
 Multiplicity           Mult            ....    1
 Number of Electrons    NEL             ....  134
 Basis Dimension        Dim             ....  322

ORBITAL ENERGIES
----------------

  NO   OCC          E(Eh)            E(eV)
   0   2.0000     -88.968871     -2420.9661
   1   2.0000     -88.964075     -2420.8356
   2   2.0000     -10.325950      -280.9834
   3   2.0000     -10.324463      -280.9429
   4   2.0000     -10.317522      -280.7540
   5   2.0000     -10.317274      -280.7473
   6   2.0000     -10.308514      -280.5089
   7   2.0000     -10.300790      -280.2988
   8   2.0000     -10.300544      -280.2920
   9   2.0000     -10.297754      -280.2161
  10   2.0000     -10.296211      -280.1741
  11   2.0000     -10.293820      -280.1091
  12   2.0000     -10.290287      -280.0129
  13   2.0000     -10.289467      -279.9906
  14   2.0000     -10.274315      -279.5783
  15   2.0000     -10.272799      -279.5371
  16   2.0000      -8.082650      -219.9401
  17   2.0000      -8.079413      -219.8520
  18   2.0000      -6.041234      -164.3903
  19   2.0000      -6.037697      -164.2941
  20   2.0000      -6.037355      -164.2848
  21   2.0000      -6.033733      -164.1862
  22   2.0000      -6.033308      -164.1747
  23   2.0000      -6.030474      -164.0975
  24   2.0000      -1.005903       -27.3720
  25   2.0000      -0.981233       -26.7007
  26   2.0000      -0.913281       -24.8516
  27   2.0000      -0.910140       -24.7662
  28   2.0000      -0.870904       -23.6985
  29   2.0000      -0.860538       -23.4164
  30   2.0000      -0.845425       -23.0052
  31   2.0000      -0.811526       -22.0827
  32   2.0000      -0.787758       -21.4360
  33   2.0000      -0.771404       -20.9910
  34   2.0000      -0.703357       -19.1393
  35   2.0000      -0.699619       -19.0376
  36   2.0000      -0.694941       -18.9103
  37   2.0000      -0.661724       -18.0064
  38   2.0000      -0.634117       -17.2552
  39   2.0000      -0.613594       -16.6967
  40   2.0000      -0.596897       -16.2424
  41   2.0000      -0.576216       -15.6796
  42   2.0000      -0.568548       -15.4710
  43   2.0000      -0.548426       -14.9234
  44   2.0000      -0.542584       -14.7645
  45   2.0000      -0.532954       -14.5024
  46   2.0000      -0.516618       -14.0579
  47   2.0000      -0.512455       -13.9446
  48   2.0000      -0.507057       -13.7977
  49   2.0000      -0.498045       -13.5525
  50   2.0000      -0.491165       -13.3653
  51   2.0000      -0.480698       -13.0804
  52   2.0000      -0.468314       -12.7435
  53   2.0000      -0.463995       -12.6259
  54   2.0000      -0.462794       -12.5933
  55   2.0000      -0.448917       -12.2157
  56   2.0000      -0.441607       -12.0167
  57   2.0000      -0.436516       -11.8782
  58   2.0000      -0.431092       -11.7306
  59   2.0000      -0.426034       -11.5930
  60   2.0000      -0.423467       -11.5231
  61   2.0000      -0.418732       -11.3943
  62   2.0000      -0.416799       -11.3417
  63   2.0000      -0.344203        -9.3662
  64   2.0000      -0.333544        -9.0762
  65   2.0000      -0.327912        -8.9229
  66   2.0000      -0.283157        -7.7051
  67   0.0000       0.018536         0.5044
  68   0.0000       0.070275         1.9123
  69   0.0000       0.111672         3.0388
  70   0.0000       0.115580         3.1451
  71   0.0000       0.120766         3.2862

MULLIKEN ATOMIC CHARGES
-----------------------
   0 S :    0.125898
   1 C :   -0.120055
   2 C :   -0.087372
   3 C :    0.020649
   4 C :   -0.131543
   5 H :   -0.014334
   6 C :    0.071561
   7 H :    0.025488
   8 H :    0.018111
   9 C :   -0.092965
  10 H :    0.022824
  11 H :    0.032016
  12 C :   -0.015886
  13 H :    0.021574
  14 H :    0.028570
  15 H :    0.031635
  16 S :    0.106225
  17 C :   -0.091840
  18 C :   -0.037832
  19 C :   -0.026086
  20 C :   -0.203172
  21 H :    0.022027
  22 C :    0.077729
  23 H :    0.044329
  24 H :    0.019407
  25 C :   -0.086889
  26 H :    0.043029
  27 H :    0.027759
  28 C :   -0.028127
  29 H :    0.021284
  30 H :    0.012343
  31 H :    0.039167
  32 H :    0.056038
  33 H :    0.068440
Sum of atomic charges:   -0.0000000

LOEWDIN ATOMIC CHARGES
----------------------
   0 S :    0.399650
   1 C :   -0.203444
   2 C :   -0.066023
   3 C :   -0.061823
   4 C :   -0.199013
   5 H :    0.021638
   6 C :   -0.022690
   7 H :    0.025080
   8 H :    0.031727
   9 C :   -0.042612
  10 H :    0.025168
  11 H :    0.024013
  12 C :   -0.060751
  13 H :    0.013838
  14 H :    0.025727
  15 H :    0.030721
  16 S :    0.425339
  17 C :   -0.195928
  18 C :   -0.074652
  19 C :   -0.049701
  20 C :   -0.205073
  21 H :    0.033585
  22 C :   -0.031503
  23 H :    0.038514
  24 H :    0.032963
  25 C :   -0.043385
  26 H :    0.032220
  27 H :    0.028182
  28 C :   -0.069750
  29 H :    0.029349
  30 H :    0.023964
  31 H :    0.020190
  32 H :    0.033369
  33 H :    0.031114

  Mayer bond orders larger than 0.100000
B(  0-S ,  1-C ) :   1.1513 B(  0-S ,  4-C ) :   1.1264 B(  1-C ,  2-C ) :   1.5895
B(  1-C ,  4-C ) :   0.1052 B(  1-C , 32-H ) :   0.9552 B(  2-C ,  3-C ) :   1.2467
B(  2-C ,  6-C ) :   1.0302 B(  3-C ,  4-C ) :   1.5486 B(  3-C ,  5-H ) :   0.9993
B(  4-C , 20-C ) :   1.1119 B(  6-C ,  7-H ) :   0.9504 B(  6-C ,  8-H ) :   0.9368
B(  6-C ,  9-C ) :   1.0692 B(  9-C , 10-H ) :   0.9520 B(  9-C , 11-H ) :   0.9580
B(  9-C , 12-C ) :   1.0793 B( 12-C , 13-H ) :   0.9744 B( 12-C , 14-H ) :   0.9694
B( 12-C , 15-H ) :   0.9727 B( 16-S , 17-C ) :   1.1633 B( 16-S , 20-C ) :   1.1727
B( 17-C , 18-C ) :   1.5547 B( 17-C , 20-C ) :   0.1083 B( 17-C , 33-H ) :   0.9711
B( 18-C , 19-C ) :   1.2938 B( 18-C , 21-H ) :   0.9806 B( 19-C , 20-C ) :   1.4984
B( 19-C , 22-C ) :   1.0505 B( 22-C , 23-H ) :   0.9297 B( 22-C , 24-H ) :   0.9278
B( 22-C , 25-C ) :   1.0547 B( 25-C , 26-H ) :   0.9572 B( 25-C , 27-H ) :   0.9511
B( 25-C , 28-C ) :   1.0876 B( 28-C , 29-H ) :   0.9685 B( 28-C , 30-H ) :   0.9691
B( 28-C , 31-H ) :   0.9750

Dispersion correction           -0.015052674
FINAL SINGLE POINT ENERGY     -1339.865437759579

DIPOLE MOMENT
-------------
                                X             Y             Z
Electronic contribution:      8.42640       1.37656     -31.62278
Nuclear contribution   :     -8.72675      -1.53023      32.32032
                        -----------------------------------------
Total Dipole Moment    :     -0.30035      -0.15368       0.69754
                        -----------------------------------------
Magnitude (a.u.)       :      0.77485
Magnitude (Debye)      :      1.96951

Rotational constants in cm-1:     0.017154     0.010542     0.006880
Rotational constants in MHz :   514.268536   316.030924   206.253125

                             ****ORCA TERMINATED NORMALLY****
TOTAL RUN TIME: 0 days 0 hours 0 minutes 30 seconds 83 msec
