                         Program Version 4.2.1 -  RELEASE  -
|  1> ! wB97X-D3 SP def2-SVP
|  2> %pal
|  3> nprocs 16
|  4> end
|  5>
|  6> * xyz 0 1
|  7> S 	 -49.2887 	 64.2404 	 145.348
|  8> C 	 -48.2691 	 63.4551 	 144.202
|  9> C 	 -47.0684 	 64.1278 	 143.985
| 10> C 	 -47.1688 	 65.4512 	 144.509
| 11> C 	 -48.2697 	 65.6745 	 145.307
| 12> H 	 -46.4683 	 66.205 	 144.263
| 13> C 	 -45.8985 	 63.6603 	 143.195
| 14> H 	 -45.8066 	 64.3808 	 142.379
| 15> H 	 -46.1415 	 62.777 	 142.634
| 16> C 	 -44.6302 	 63.42 	 144.045
| 17> H 	 -44.8254 	 62.8074 	 144.915
| 18> H 	 -43.9429 	 62.729 	 143.489
| 19> C 	 -43.7454 	 64.681 	 144.305
| 20> H 	 -43.421 	 65.2016 	 143.403
| 21> H 	 -44.4005 	 65.3659 	 144.777
| 22> H 	 -42.8664 	 64.3216 	 144.946
| 23> S 	 -50.3709 	 67.4362 	 145.576
| 24> C 	 -50.0589 	 68.9537 	 146.449
| 25> C 	 -48.838 	 68.9919 	 147.074
| 26> C 	 -48.0534 	 67.8047 	 146.769
| 27> C 	 -48.7452 	 66.901 	 145.916
| 28> H 	 -48.6121 	 69.7756 	 147.727
| 29> C 	 -46.6338 	 67.7658 	 147.284
| 30> H 	 -46.4455 	 68.7465 	 147.55
| 31> H 	 -45.9609 	 67.6441 	 146.43
| 32> C 	 -46.4752 	 66.6792 	 148.385
| 33> H 	 -47.0489 	 65.6999 	 148.415
| 34> H 	 -46.7742 	 67.091 	 149.356
| 35> C 	 -45.0207 	 66.3276 	 148.522
| 36> H 	 -44.9313 	 65.7774 	 149.433
| 37> H 	 -44.4556 	 67.2082 	 148.598
| 38> H 	 -44.6523 	 65.6557 	 147.71
| 39> H 	 -48.3473 	 62.4674 	 143.853
| 40> H 	 -50.8448 	 69.6958 	 146.547
| 41> *
| 42>
| 43>                          ****END OF INPUT****

CARTESIAN COORDINATES (ANGSTROEM)
---------------------------------
  S    -49.288700   64.240400  145.348000
  C    -48.269100   63.455100  144.202000
  C    -47.068400   64.127800  143.985000
  C    -47.168800   65.451200  144.509000
  C    -48.269700   65.674500  145.307000
  H    -46.468300   66.205000  144.263000
  C    -45.898500   63.660300  143.195000
  H    -45.806600   64.380800  142.379000
  H    -46.141500   62.777000  142.634000
  C    -44.630200   63.420000  144.045000
  H    -44.825400   62.807400  144.915000
  H    -43.942900   62.729000  143.489000
  C    -43.745400   64.681000  144.305000
  H    -43.421000   65.201600  143.403000
  H    -44.400500   65.365900  144.777000
  H    -42.866400   64.321600  144.946000
  S    -50.370900   67.436200  145.576000
  C    -50.058900   68.953700  146.449000
  C    -48.838000   68.991900  147.074000
  C    -48.053400   67.804700  146.769000
  C    -48.745200   66.901000  145.916000
  H    -48.612100   69.775600  147.727000
  C    -46.633800   67.765800  147.284000
  H    -46.445500   68.746500  147.550000
  H    -45.960900   67.644100  146.430000
  C    -46.475200   66.679200  148.385000
  H    -47.048900   65.699900  148.415000
  H    -46.774200   67.091000  149.356000
  C    -45.020700   66.327600  148.522000
  H    -44.931300   65.777400  149.433000
  H    -44.455600   67.208200  148.598000
  H    -44.652300   65.655700  147.710000
  H    -48.347300   62.467400  143.853000
  H    -50.844800   69.695800  146.547000

 Total Charge           Charge          ....    0
 Multiplicity           Mult            ....    1
 Number of Electrons    NEL             ....  134
 Basis Dimension        Dim             ....  322

ORBITAL ENERGIES
----------------

  NO   OCC          E(Eh)            E(eV)
   0   2.0000     -88.964925     -2420.8587
   1   2.0000     -88.964871     -2420.8572
   2   2.0000     -10.326425      -280.9963
   3   2.0000     -10.325424      -280.9691
   4   2.0000     -10.317126      -280.7433
   5   2.0000     -10.306015      -280.4409
   6   2.0000     -10.305387      -280.4238
   7   2.0000     -10.296350      -280.1779
   8   2.0000     -10.292539      -280.0742
   9   2.0000     -10.291340      -280.0416
  10   2.0000     -10.291221      -280.0384
  11   2.0000     -10.288760      -279.9714
  12   2.0000     -10.288331      -279.9597
  13   2.0000     -10.286658      -279.9142
  14   2.0000     -10.284297      -279.8499
  15   2.0000     -10.266129      -279.3556
  16   2.0000      -8.079907      -219.8654
  17   2.0000      -8.079254      -219.8477
  18   2.0000      -6.038339      -164.3116
  19   2.0000      -6.037794      -164.2967
  20   2.0000      -6.034444      -164.2056
  21   2.0000      -6.033833      -164.1889
  22   2.0000      -6.030679      -164.1031
  23   2.0000      -6.029993      -164.0844
  24   2.0000      -1.003988       -27.3199
  25   2.0000      -0.979723       -26.6596
  26   2.0000      -0.912019       -24.8173
  27   2.0000      -0.908689       -24.7267
  28   2.0000      -0.867842       -23.6152
  29   2.0000      -0.852692       -23.2029
  30   2.0000      -0.845867       -23.0172
  31   2.0000      -0.817150       -22.2358
  32   2.0000      -0.784531       -21.3482
  33   2.0000      -0.766775       -20.8650
  34   2.0000      -0.705214       -19.1898
  35   2.0000      -0.702855       -19.1257
  36   2.0000      -0.691726       -18.8228
  37   2.0000      -0.664204       -18.0739
  38   2.0000      -0.640465       -17.4279
  39   2.0000      -0.623177       -16.9575
  40   2.0000      -0.594328       -16.1725
  41   2.0000      -0.569343       -15.4926
  42   2.0000      -0.558415       -15.1952
  43   2.0000      -0.548182       -14.9168
  44   2.0000      -0.540608       -14.7107
  45   2.0000      -0.532987       -14.5033
  46   2.0000      -0.516735       -14.0611
  47   2.0000      -0.509406       -13.8616
  48   2.0000      -0.499656       -13.5963
  49   2.0000      -0.498333       -13.5603
  50   2.0000      -0.493857       -13.4385
  51   2.0000      -0.487949       -13.2778
  52   2.0000      -0.471031       -12.8174
  53   2.0000      -0.465053       -12.6547
  54   2.0000      -0.458700       -12.4819
  55   2.0000      -0.447771       -12.1845
  56   2.0000      -0.447048       -12.1648
  57   2.0000      -0.443492       -12.0680
  58   2.0000      -0.435083       -11.8392
  59   2.0000      -0.419654       -11.4194
  60   2.0000      -0.418533       -11.3889
  61   2.0000      -0.406872       -11.0716
  62   2.0000      -0.406150       -11.0519
  63   2.0000      -0.347728        -9.4622
  64   2.0000      -0.329060        -8.9542
  65   2.0000      -0.324401        -8.8274
  66   2.0000      -0.286950        -7.8083
  67   0.0000       0.029207         0.7948
  68   0.0000       0.071599         1.9483
  69   0.0000       0.110293         3.0012
  70   0.0000       0.120508         3.2792
  71   0.0000       0.128556         3.4982

MULLIKEN ATOMIC CHARGES
-----------------------
   0 S :    0.111606
   1 C :   -0.088798
   2 C :   -0.116508
   3 C :    0.034020
   4 C :   -0.150182
   5 H :    0.001703
   6 C :    0.078309
   7 H :    0.031608
   8 H :    0.006227
   9 C :   -0.085310
  10 H :    0.034061
  11 H :    0.026012
  12 C :   -0.044381
  13 H :    0.033054
  14 H :    0.017101
  15 H :    0.055421
  16 S :    0.108890
  17 C :   -0.097779
  18 C :   -0.010310
  19 C :   -0.066890
  20 C :   -0.149159
  21 H :    0.004469
  22 C :    0.140536
  23 H :   -0.007103
  24 H :    0.024005
  25 C :   -0.091812
  26 H :    0.052776
  27 H :    0.018663
  28 C :   -0.027849
  29 H :    0.016131
  30 H :    0.017030
  31 H :    0.045676
  32 H :    0.023339
  33 H :    0.055447
Sum of atomic charges:    0.0000000

LOEWDIN ATOMIC CHARGES
----------------------
   0 S :    0.408283
   1 C :   -0.201108
   2 C :   -0.060526
   3 C :   -0.058685
   4 C :   -0.188368
   5 H :    0.022667
   6 C :   -0.035664
   7 H :    0.035979
   8 H :    0.029203
   9 C :   -0.041437
  10 H :    0.026359
  11 H :    0.026036
  12 C :   -0.065707
  13 H :    0.025757
  14 H :    0.012475
  15 H :    0.040109
  16 S :    0.397541
  17 C :   -0.170999
  18 C :   -0.067295
  19 C :   -0.042101
  20 C :   -0.212340
  21 H :    0.024888
  22 C :   -0.024339
  23 H :    0.022120
  24 H :    0.032152
  25 C :   -0.042099
  26 H :    0.038332
  27 H :    0.023709
  28 C :   -0.062183
  29 H :    0.021131
  30 H :    0.014890
  31 H :    0.029477
  32 H :    0.016359
  33 H :    0.025384

  Mayer bond orders larger than 0.100000
B(  0-S ,  1-C ) :   1.1431 B(  0-S ,  4-C ) :   1.1429 B(  1-C ,  2-C ) :   1.6168
B(  1-C , 32-H ) :   0.9639 B(  2-C ,  3-C ) :   1.2327 B(  2-C ,  6-C ) :   1.0358
B(  3-C ,  4-C ) :   1.5856 B(  3-C ,  5-H ) :   0.9915 B(  4-C , 20-C ) :   1.0510
B(  6-C ,  7-H ) :   0.9415 B(  6-C ,  8-H ) :   0.9326 B(  6-C ,  9-C ) :   1.0554
B(  9-C , 10-H ) :   0.9580 B(  9-C , 11-H ) :   0.9580 B(  9-C , 12-C ) :   1.0669
B( 12-C , 13-H ) :   0.9734 B( 12-C , 14-H ) :   0.9751 B( 12-C , 15-H ) :   0.9721
B( 16-S , 17-C ) :   1.1493 B( 16-S , 20-C ) :   1.1379 B( 17-C , 18-C ) :   1.6181
B( 17-C , 33-H ) :   0.9659 B( 18-C , 19-C ) :   1.2347 B( 18-C , 21-H ) :   0.9957
B( 19-C , 20-C ) :   1.5776 B( 19-C , 22-C ) :   1.0382 B( 22-C , 23-H ) :   0.9178
B( 22-C , 24-H ) :   0.9411 B( 22-C , 25-C ) :   1.0301 B( 25-C , 26-H ) :   0.9679
B( 25-C , 27-H ) :   0.9514 B( 25-C , 28-C ) :   1.0924 B( 28-C , 29-H ) :   0.9704
B( 28-C , 30-H ) :   0.9695 B( 28-C , 31-H ) :   0.9756

Dispersion correction           -0.015122183
FINAL SINGLE POINT ENERGY     -1339.864791527533

DIPOLE MOMENT
-------------
                                X             Y             Z
Electronic contribution:    -29.87448       3.19560      -4.17139
Nuclear contribution   :     30.52058      -3.08164       4.25011
                        -----------------------------------------
Total Dipole Moment    :      0.64611       0.11396       0.07872
                        -----------------------------------------
Magnitude (a.u.)       :      0.66079
Magnitude (Debye)      :      1.67959

Rotational constants in cm-1:     0.017775     0.010217     0.007457
Rotational constants in MHz :   532.880120   306.291662   223.569718

                             ****ORCA TERMINATED NORMALLY****
TOTAL RUN TIME: 0 days 0 hours 0 minutes 36 seconds 841 msec
