                         Program Version 4.2.1 -  RELEASE  -
|  1> ! wB97X-D3 SP def2-SVP
|  2> %pal
|  3> nprocs 16
|  4> end
|  5>
|  6> * xyz 0 1
|  7> S 	 59.7247 	 -4.45867 	 86.6863
|  8> C 	 58.0176 	 -4.71137 	 86.963
|  9> C 	 57.2987 	 -4.60083 	 85.7955
| 10> C 	 58.1486 	 -4.18404 	 84.7122
| 11> C 	 59.5161 	 -4.06314 	 85.0087
| 12> H 	 57.9208 	 -4.0059 	 83.6383
| 13> C 	 55.8172 	 -5.00509 	 85.5422
| 14> H 	 55.869 	 -5.83515 	 84.8445
| 15> H 	 55.4293 	 -4.23345 	 84.883
| 16> C 	 54.8363 	 -5.40572 	 86.6798
| 17> H 	 53.8567 	 -5.83277 	 86.383
| 18> H 	 55.404 	 -6.04338 	 87.345
| 19> C 	 54.4712 	 -4.20828 	 87.5713
| 20> H 	 55.4758 	 -3.66761 	 87.7957
| 21> H 	 53.7861 	 -3.46585 	 87.1256
| 22> H 	 53.9912 	 -4.43067 	 88.4357
| 23> S 	 61.7464 	 -4.94632 	 83.8653
| 24> C 	 62.9015 	 -3.90096 	 83.1753
| 25> C 	 62.3166 	 -2.67678 	 82.9997
| 26> C 	 60.9753 	 -2.50733 	 83.552
| 27> C 	 60.6518 	 -3.66726 	 84.1842
| 28> H 	 62.8632 	 -1.89268 	 82.4501
| 29> C 	 60.1296 	 -1.24626 	 83.5742
| 30> H 	 59.113 	 -1.39908 	 83.2411
| 31> H 	 60.5043 	 -0.610628 	 82.7789
| 32> C 	 60.1907 	 -0.654492 	 84.9954
| 33> H 	 61.1298 	 -0.900029 	 85.4709
| 34> H 	 59.4366 	 -1.05054 	 85.6461
| 35> C 	 59.7258 	 0.806379 	 85.1177
| 36> H 	 60.3425 	 1.51007 	 84.6035
| 37> H 	 59.6566 	 0.954187 	 86.1728
| 38> H 	 58.7367 	 0.94875 	 84.7874
| 39> H 	 57.5544 	 -4.95564 	 87.9045
| 40> H 	 63.8325 	 -4.28311 	 82.7774
| 41> *
| 42>
| 43>                          ****END OF INPUT****

CARTESIAN COORDINATES (ANGSTROEM)
---------------------------------
  S     59.724700   -4.458670   86.686300
  C     58.017600   -4.711370   86.963000
  C     57.298700   -4.600830   85.795500
  C     58.148600   -4.184040   84.712200
  C     59.516100   -4.063140   85.008700
  H     57.920800   -4.005900   83.638300
  C     55.817200   -5.005090   85.542200
  H     55.869000   -5.835150   84.844500
  H     55.429300   -4.233450   84.883000
  C     54.836300   -5.405720   86.679800
  H     53.856700   -5.832770   86.383000
  H     55.404000   -6.043380   87.345000
  C     54.471200   -4.208280   87.571300
  H     55.475800   -3.667610   87.795700
  H     53.786100   -3.465850   87.125600
  H     53.991200   -4.430670   88.435700
  S     61.746400   -4.946320   83.865300
  C     62.901500   -3.900960   83.175300
  C     62.316600   -2.676780   82.999700
  C     60.975300   -2.507330   83.552000
  C     60.651800   -3.667260   84.184200
  H     62.863200   -1.892680   82.450100
  C     60.129600   -1.246260   83.574200
  H     59.113000   -1.399080   83.241100
  H     60.504300   -0.610628   82.778900
  C     60.190700   -0.654492   84.995400
  H     61.129800   -0.900029   85.470900
  H     59.436600   -1.050540   85.646100
  C     59.725800    0.806379   85.117700
  H     60.342500    1.510070   84.603500
  H     59.656600    0.954187   86.172800
  H     58.736700    0.948750   84.787400
  H     57.554400   -4.955640   87.904500
  H     63.832500   -4.283110   82.777400

 Total Charge           Charge          ....    0
 Multiplicity           Mult            ....    1
 Number of Electrons    NEL             ....  134
 Basis Dimension        Dim             ....  322

ORBITAL ENERGIES
----------------

  NO   OCC          E(Eh)            E(eV)
   0   2.0000     -88.963805     -2420.8282
   1   2.0000     -88.958811     -2420.6923
   2   2.0000     -10.328636      -281.0565
   3   2.0000     -10.319095      -280.7969
   4   2.0000     -10.313650      -280.6487
   5   2.0000     -10.312744      -280.6240
   6   2.0000     -10.309101      -280.5249
   7   2.0000     -10.304112      -280.3891
   8   2.0000     -10.298850      -280.2460
   9   2.0000     -10.298601      -280.2392
  10   2.0000     -10.296847      -280.1915
  11   2.0000     -10.295675      -280.1596
  12   2.0000     -10.291760      -280.0530
  13   2.0000     -10.278777      -279.6997
  14   2.0000     -10.275877      -279.6208
  15   2.0000     -10.266225      -279.3582
  16   2.0000      -8.078700      -219.8326
  17   2.0000      -8.075653      -219.7497
  18   2.0000      -6.037221      -164.2811
  19   2.0000      -6.034015      -164.1939
  20   2.0000      -6.033055      -164.1678
  21   2.0000      -6.029861      -164.0809
  22   2.0000      -6.029542      -164.0722
  23   2.0000      -6.026426      -163.9874
  24   2.0000      -1.014121       -27.5956
  25   2.0000      -0.987829       -26.8802
  26   2.0000      -0.910838       -24.7852
  27   2.0000      -0.908252       -24.7148
  28   2.0000      -0.870273       -23.6813
  29   2.0000      -0.853465       -23.2240
  30   2.0000      -0.844739       -22.9865
  31   2.0000      -0.811052       -22.0699
  32   2.0000      -0.786418       -21.3995
  33   2.0000      -0.779454       -21.2100
  34   2.0000      -0.706469       -19.2240
  35   2.0000      -0.704472       -19.1697
  36   2.0000      -0.693195       -18.8628
  37   2.0000      -0.663634       -18.0584
  38   2.0000      -0.641230       -17.4488
  39   2.0000      -0.608031       -16.5454
  40   2.0000      -0.595400       -16.2016
  41   2.0000      -0.578188       -15.7333
  42   2.0000      -0.563065       -15.3218
  43   2.0000      -0.550942       -14.9919
  44   2.0000      -0.543240       -14.7823
  45   2.0000      -0.530014       -14.4224
  46   2.0000      -0.521633       -14.1944
  47   2.0000      -0.511070       -13.9069
  48   2.0000      -0.506530       -13.7834
  49   2.0000      -0.497571       -13.5396
  50   2.0000      -0.492903       -13.4126
  51   2.0000      -0.481555       -13.1038
  52   2.0000      -0.469860       -12.7856
  53   2.0000      -0.468448       -12.7471
  54   2.0000      -0.456867       -12.4320
  55   2.0000      -0.448934       -12.2161
  56   2.0000      -0.439397       -11.9566
  57   2.0000      -0.437037       -11.8924
  58   2.0000      -0.431585       -11.7440
  59   2.0000      -0.426462       -11.6046
  60   2.0000      -0.424810       -11.5597
  61   2.0000      -0.415016       -11.2932
  62   2.0000      -0.405724       -11.0403
  63   2.0000      -0.336718        -9.1626
  64   2.0000      -0.330707        -8.9990
  65   2.0000      -0.323270        -8.7966
  66   2.0000      -0.304605        -8.2887
  67   0.0000       0.040438         1.1004
  68   0.0000       0.067463         1.8358
  69   0.0000       0.117500         3.1973
  70   0.0000       0.123767         3.3679
  71   0.0000       0.132710         3.6112

MULLIKEN ATOMIC CHARGES
-----------------------
   0 S :    0.118888
   1 C :   -0.135347
   2 C :   -0.074758
   3 C :    0.024629
   4 C :   -0.176214
   5 H :    0.021639
   6 C :    0.060191
   7 H :    0.038718
   8 H :    0.023357
   9 C :   -0.043125
  10 H :    0.044675
  11 H :    0.029660
  12 C :   -0.072742
  13 H :    0.036589
  14 H :    0.028759
  15 H :    0.013394
  16 S :    0.114896
  17 C :   -0.083408
  18 C :   -0.059955
  19 C :   -0.035531
  20 C :   -0.202355
  21 H :    0.022618
  22 C :    0.138122
  23 H :    0.017016
  24 H :    0.011018
  25 C :   -0.099231
  26 H :    0.040868
  27 H :    0.033813
  28 C :   -0.000562
  29 H :    0.025658
  30 H :    0.022242
  31 H :    0.011036
  32 H :    0.045609
  33 H :    0.059835
Sum of atomic charges:   -0.0000000

LOEWDIN ATOMIC CHARGES
----------------------
   0 S :    0.416449
   1 C :   -0.205382
   2 C :   -0.061633
   3 C :   -0.071026
   4 C :   -0.205544
   5 H :    0.035787
   6 C :   -0.032581
   7 H :    0.037008
   8 H :    0.030561
   9 C :   -0.039166
  10 H :    0.034229
  11 H :    0.024354
  12 C :   -0.069734
  13 H :    0.033744
  14 H :    0.024895
  15 H :    0.006915
  16 S :    0.437121
  17 C :   -0.200202
  18 C :   -0.076185
  19 C :   -0.051932
  20 C :   -0.214693
  21 H :    0.031103
  22 C :   -0.027743
  23 H :    0.030486
  24 H :    0.028538
  25 C :   -0.036283
  26 H :    0.025637
  27 H :    0.030108
  28 C :   -0.053708
  29 H :    0.015848
  30 H :    0.026859
  31 H :    0.019102
  32 H :    0.025934
  33 H :    0.031135

  Mayer bond orders larger than 0.100000
B(  0-S ,  1-C ) :   1.1412 B(  0-S ,  4-C ) :   1.1581 B(  1-C ,  2-C ) :   1.6131
B(  1-C ,  4-C ) :   0.1003 B(  1-C , 32-H ) :   0.9647 B(  2-C ,  3-C ) :   1.2366
B(  2-C ,  6-C ) :   0.9906 B(  3-C ,  4-C ) :   1.5959 B(  3-C ,  5-H ) :   0.9882
B(  4-C , 20-C ) :   0.9996 B(  6-C ,  7-H ) :   0.9423 B(  6-C ,  8-H ) :   0.9404
B(  6-C ,  9-C ) :   1.0672 B(  9-C , 10-H ) :   0.9562 B(  9-C , 11-H ) :   0.9522
B(  9-C , 12-C ) :   1.0778 B( 12-C , 13-H ) :   0.9745 B( 12-C , 14-H ) :   0.9744
B( 12-C , 15-H ) :   0.9763 B( 16-S , 17-C ) :   1.1560 B( 16-S , 20-C ) :   1.1811
B( 17-C , 18-C ) :   1.5975 B( 17-C , 33-H ) :   0.9740 B( 18-C , 19-C ) :   1.2258
B( 18-C , 21-H ) :   0.9857 B( 19-C , 20-C ) :   1.5970 B( 19-C , 22-C ) :   1.0579
B( 22-C , 23-H ) :   0.9229 B( 22-C , 24-H ) :   0.9319 B( 22-C , 25-C ) :   1.0490
B( 25-C , 26-H ) :   0.9653 B( 25-C , 27-H ) :   0.9517 B( 25-C , 28-C ) :   1.0823
B( 28-C , 29-H ) :   0.9774 B( 28-C , 30-H ) :   0.9755 B( 28-C , 31-H ) :   0.9696

Dispersion correction           -0.014536011
FINAL SINGLE POINT ENERGY     -1339.864126715894

DIPOLE MOMENT
-------------
                                X             Y             Z
Electronic contribution:     21.17820     -14.62482      -4.60495
Nuclear contribution   :    -21.65189      14.86777       4.36890
                        -----------------------------------------
Total Dipole Moment    :     -0.47369       0.24295      -0.23605
                        -----------------------------------------
Magnitude (a.u.)       :      0.58235
Magnitude (Debye)      :      1.48021

Rotational constants in cm-1:     0.020956     0.008064     0.006617
Rotational constants in MHz :   628.252313   241.763155   198.366346

                             ****ORCA TERMINATED NORMALLY****
TOTAL RUN TIME: 0 days 0 hours 0 minutes 29 seconds 989 msec
