                         Program Version 4.2.1 -  RELEASE  -
|  1> ! wB97X-D3 SP def2-SVP
|  2> %pal
|  3> nprocs 16
|  4> end
|  5>
|  6> * xyz 0 1
|  7> S 	 -50.5537 	 24.9212 	 92.4061
|  8> C 	 -49.6112 	 23.5303 	 91.9164
|  9> C 	 -50.4412 	 22.5636 	 91.4043
| 10> C 	 -51.8193 	 22.8435 	 91.5463
| 11> C 	 -52.12 	 24.1447 	 92.0256
| 12> H 	 -52.5904 	 22.21 	 91.2157
| 13> C 	 -49.9356 	 21.2653 	 90.9084
| 14> H 	 -48.9726 	 21.41 	 90.3493
| 15> H 	 -50.6558 	 20.9392 	 90.1528
| 16> C 	 -49.6755 	 20.2601 	 92.0544
| 17> H 	 -48.9936 	 20.6436 	 92.7928
| 18> H 	 -50.5393 	 20.1112 	 92.6388
| 19> C 	 -49.3846 	 18.8628 	 91.5549
| 20> H 	 -49.097 	 18.1895 	 92.3994
| 21> H 	 -50.2876 	 18.4801 	 90.9694
| 22> H 	 -48.6242 	 18.93 	 90.8011
| 23> S 	 -53.5839 	 26.5158 	 91.8694
| 24> C 	 -55.2833 	 26.5863 	 92.2777
| 25> C 	 -55.7498 	 25.3131 	 92.529
| 26> C 	 -54.6964 	 24.3118 	 92.4519
| 27> C 	 -53.4364 	 24.8238 	 92.1712
| 28> H 	 -56.7922 	 25.2002 	 92.8546
| 29> C 	 -55.0032 	 22.8824 	 92.7227
| 30> H 	 -55.5822 	 22.7473 	 93.6216
| 31> H 	 -54.1367 	 22.4141 	 92.896
| 32> C 	 -55.8273 	 22.182 	 91.6574
| 33> H 	 -55.4455 	 22.486 	 90.6503
| 34> H 	 -56.8578 	 22.5139 	 91.6457
| 35> C 	 -55.9694 	 20.6828 	 91.6597
| 36> H 	 -56.7216 	 20.3659 	 90.9488
| 37> H 	 -56.1982 	 20.2496 	 92.6109
| 38> H 	 -55.1555 	 20.1446 	 91.2243
| 39> H 	 -48.523 	 23.4981 	 92.0046
| 40> H 	 -55.8689 	 27.4868 	 92.1853
| 41> *
| 42>
| 43>                          ****END OF INPUT****

CARTESIAN COORDINATES (ANGSTROEM)
---------------------------------
  S    -50.553700   24.921200   92.406100
  C    -49.611200   23.530300   91.916400
  C    -50.441200   22.563600   91.404300
  C    -51.819300   22.843500   91.546300
  C    -52.120000   24.144700   92.025600
  H    -52.590400   22.210000   91.215700
  C    -49.935600   21.265300   90.908400
  H    -48.972600   21.410000   90.349300
  H    -50.655800   20.939200   90.152800
  C    -49.675500   20.260100   92.054400
  H    -48.993600   20.643600   92.792800
  H    -50.539300   20.111200   92.638800
  C    -49.384600   18.862800   91.554900
  H    -49.097000   18.189500   92.399400
  H    -50.287600   18.480100   90.969400
  H    -48.624200   18.930000   90.801100
  S    -53.583900   26.515800   91.869400
  C    -55.283300   26.586300   92.277700
  C    -55.749800   25.313100   92.529000
  C    -54.696400   24.311800   92.451900
  C    -53.436400   24.823800   92.171200
  H    -56.792200   25.200200   92.854600
  C    -55.003200   22.882400   92.722700
  H    -55.582200   22.747300   93.621600
  H    -54.136700   22.414100   92.896000
  C    -55.827300   22.182000   91.657400
  H    -55.445500   22.486000   90.650300
  H    -56.857800   22.513900   91.645700
  C    -55.969400   20.682800   91.659700
  H    -56.721600   20.365900   90.948800
  H    -56.198200   20.249600   92.610900
  H    -55.155500   20.144600   91.224300
  H    -48.523000   23.498100   92.004600
  H    -55.868900   27.486800   92.185300

 Total Charge           Charge          ....    0
 Multiplicity           Mult            ....    1
 Number of Electrons    NEL             ....  134
 Basis Dimension        Dim             ....  322

ORBITAL ENERGIES
----------------

  NO   OCC          E(Eh)            E(eV)
   0   2.0000     -88.967004     -2420.9152
   1   2.0000     -88.963759     -2420.8269
   2   2.0000     -10.342964      -281.4464
   3   2.0000     -10.332926      -281.1732
   4   2.0000     -10.319276      -280.8018
   5   2.0000     -10.315807      -280.7074
   6   2.0000     -10.305243      -280.4199
   7   2.0000     -10.299197      -280.2554
   8   2.0000     -10.297616      -280.2124
   9   2.0000     -10.296018      -280.1689
  10   2.0000     -10.294291      -280.1219
  11   2.0000     -10.284488      -279.8551
  12   2.0000     -10.283132      -279.8182
  13   2.0000     -10.280201      -279.7385
  14   2.0000     -10.276550      -279.6391
  15   2.0000     -10.272087      -279.5177
  16   2.0000      -8.080956      -219.8940
  17   2.0000      -8.079146      -219.8447
  18   2.0000      -6.039570      -164.3451
  19   2.0000      -6.037672      -164.2934
  20   2.0000      -6.035401      -164.2316
  21   2.0000      -6.033509      -164.1801
  22   2.0000      -6.031820      -164.1342
  23   2.0000      -6.029884      -164.0815
  24   2.0000      -1.006111       -27.3777
  25   2.0000      -0.986355       -26.8401
  26   2.0000      -0.916331       -24.9346
  27   2.0000      -0.914862       -24.8947
  28   2.0000      -0.870741       -23.6941
  29   2.0000      -0.855965       -23.2920
  30   2.0000      -0.848455       -23.0876
  31   2.0000      -0.819932       -22.3115
  32   2.0000      -0.785735       -21.3809
  33   2.0000      -0.769563       -20.9409
  34   2.0000      -0.706159       -19.2156
  35   2.0000      -0.704421       -19.1683
  36   2.0000      -0.700720       -19.0676
  37   2.0000      -0.663698       -18.0601
  38   2.0000      -0.642402       -17.4806
  39   2.0000      -0.625547       -17.0220
  40   2.0000      -0.600774       -16.3479
  41   2.0000      -0.571669       -15.5559
  42   2.0000      -0.570060       -15.5121
  43   2.0000      -0.558635       -15.2012
  44   2.0000      -0.534150       -14.5350
  45   2.0000      -0.532108       -14.4794
  46   2.0000      -0.523323       -14.2403
  47   2.0000      -0.514154       -13.9908
  48   2.0000      -0.507852       -13.8193
  49   2.0000      -0.503153       -13.6915
  50   2.0000      -0.497418       -13.5354
  51   2.0000      -0.486143       -13.2286
  52   2.0000      -0.474750       -12.9186
  53   2.0000      -0.465517       -12.6674
  54   2.0000      -0.460409       -12.5284
  55   2.0000      -0.450653       -12.2629
  56   2.0000      -0.445634       -12.1263
  57   2.0000      -0.440741       -11.9932
  58   2.0000      -0.430057       -11.7025
  59   2.0000      -0.423333       -11.5195
  60   2.0000      -0.415743       -11.3129
  61   2.0000      -0.414036       -11.2665
  62   2.0000      -0.410669       -11.1749
  63   2.0000      -0.358964        -9.7679
  64   2.0000      -0.331811        -9.0290
  65   2.0000      -0.327482        -8.9112
  66   2.0000      -0.288460        -7.8494
  67   0.0000       0.022244         0.6053
  68   0.0000       0.078618         2.1393
  69   0.0000       0.112690         3.0665
  70   0.0000       0.123713         3.3664
  71   0.0000       0.129828         3.5328

MULLIKEN ATOMIC CHARGES
-----------------------
   0 S :    0.102299
   1 C :   -0.131294
   2 C :   -0.072945
   3 C :    0.035307
   4 C :   -0.140832
   5 H :   -0.008009
   6 C :    0.036524
   7 H :    0.032372
   8 H :    0.022982
   9 C :   -0.037852
  10 H :    0.020392
  11 H :    0.009328
  12 C :   -0.046314
  13 H :    0.051104
  14 H :    0.035113
  15 H :    0.016639
  16 S :    0.096638
  17 C :   -0.098295
  18 C :   -0.027426
  19 C :   -0.090470
  20 C :   -0.106149
  21 H :    0.033536
  22 C :    0.172018
  23 H :    0.013928
  24 H :   -0.027710
  25 C :   -0.107155
  26 H :    0.024832
  27 H :    0.022335
  28 C :   -0.010832
  29 H :    0.020882
  30 H :    0.024624
  31 H :    0.012248
  32 H :    0.059090
  33 H :    0.063089
Sum of atomic charges:   -0.0000000

LOEWDIN ATOMIC CHARGES
----------------------
   0 S :    0.395087
   1 C :   -0.194595
   2 C :   -0.069576
   3 C :   -0.060531
   4 C :   -0.174298
   5 H :    0.022372
   6 C :   -0.033241
   7 H :    0.035154
   8 H :    0.030492
   9 C :   -0.040902
  10 H :    0.023124
  11 H :    0.019247
  12 C :   -0.067055
  13 H :    0.033618
  14 H :    0.032622
  15 H :    0.015320
  16 S :    0.412896
  17 C :   -0.181300
  18 C :   -0.070847
  19 C :   -0.052386
  20 C :   -0.205398
  21 H :    0.037805
  22 C :   -0.026002
  23 H :    0.033039
  24 H :    0.009740
  25 C :   -0.043132
  26 H :    0.026024
  27 H :    0.022810
  28 C :   -0.065249
  29 H :    0.030664
  30 H :    0.020855
  31 H :    0.019179
  32 H :    0.033704
  33 H :    0.030760

  Mayer bond orders larger than 0.100000
B(  0-S ,  1-C ) :   1.1409 B(  0-S ,  4-C ) :   1.1611 B(  1-C ,  2-C ) :   1.5746
B(  1-C ,  4-C ) :   0.1074 B(  1-C , 32-H ) :   0.9711 B(  2-C ,  3-C ) :   1.2775
B(  2-C ,  6-C ) :   1.0404 B(  3-C ,  4-C ) :   1.5248 B(  3-C ,  5-H ) :   0.9970
B(  4-C , 20-C ) :   1.0505 B(  6-C ,  7-H ) :   0.9361 B(  6-C ,  8-H ) :   0.9397
B(  6-C ,  9-C ) :   1.0587 B(  9-C , 10-H ) :   0.9530 B(  9-C , 11-H ) :   0.9531
B(  9-C , 12-C ) :   1.0783 B( 12-C , 13-H ) :   0.9719 B( 12-C , 14-H ) :   0.9741
B( 12-C , 15-H ) :   0.9744 B( 16-S , 17-C ) :   1.1589 B( 16-S , 20-C ) :   1.1380
B( 17-C , 18-C ) :   1.6014 B( 17-C , 33-H ) :   0.9702 B( 18-C , 19-C ) :   1.2309
B( 18-C , 21-H ) :   0.9910 B( 19-C , 20-C ) :   1.5830 B( 19-C , 22-C ) :   1.0747
B( 22-C , 23-H ) :   0.9165 B( 22-C , 24-H ) :   0.9199 B( 22-C , 25-C ) :   1.0551
B( 25-C , 26-H ) :   0.9537 B( 25-C , 27-H ) :   0.9542 B( 25-C , 28-C ) :   1.0978
B( 28-C , 29-H ) :   0.9676 B( 28-C , 30-H ) :   0.9712 B( 28-C , 31-H ) :   0.9710

Dispersion correction           -0.013810417
FINAL SINGLE POINT ENERGY     -1339.878337448979

DIPOLE MOMENT
-------------
                                X             Y             Z
Electronic contribution:      3.67463      32.43729       3.15224
Nuclear contribution   :     -3.95132     -33.07508      -3.21276
                        -----------------------------------------
Total Dipole Moment    :     -0.27669      -0.63779      -0.06051
                        -----------------------------------------
Magnitude (a.u.)       :      0.69786
Magnitude (Debye)      :      1.77381

Rotational constants in cm-1:     0.017906     0.008894     0.006157
Rotational constants in MHz :   536.805371   266.634167   184.574542

                             ****ORCA TERMINATED NORMALLY****
TOTAL RUN TIME: 0 days 0 hours 0 minutes 29 seconds 731 msec
