                         Program Version 4.2.1 -  RELEASE  -
|  1> ! wB97X-D3 SP def2-SVP
|  2> %pal
|  3> nprocs 16
|  4> end
|  5>
|  6> * xyz 0 1
|  7> S 	 41.3966 	 25.5237 	 93.7441
|  8> C 	 42.4913 	 26.5589 	 94.5993
|  9> C 	 43.1399 	 25.8655 	 95.6166
| 10> C 	 42.5986 	 24.5813 	 95.8511
| 11> C 	 41.6153 	 24.2797 	 94.9479
| 12> H 	 42.7293 	 23.8904 	 96.6611
| 13> C 	 44.2829 	 26.466 	 96.4685
| 14> H 	 45.0687 	 25.652 	 96.5617
| 15> H 	 43.8283 	 26.7003 	 97.447
| 16> C 	 45.0132 	 27.711 	 95.9485
| 17> H 	 44.3609 	 28.537 	 95.9472
| 18> H 	 45.7758 	 27.988 	 96.6099
| 19> C 	 45.631 	 27.6985 	 94.5283
| 20> H 	 46.2367 	 26.8411 	 94.4802
| 21> H 	 44.8103 	 27.635 	 93.7843
| 22> H 	 46.1488 	 28.6522 	 94.1938
| 23> S 	 39.6653 	 22.8555 	 96.339
| 24> C 	 38.8015 	 21.5626 	 95.5027
| 25> C 	 39.3682 	 21.3715 	 94.2646
| 26> C 	 40.4574 	 22.1919 	 93.8825
| 27> C 	 40.7304 	 23.1112 	 94.9465
| 28> H 	 38.8481 	 20.6427 	 93.6594
| 29> C 	 41.2394 	 22.1038 	 92.5993
| 30> H 	 42.2183 	 22.5244 	 92.8929
| 31> H 	 40.7667 	 22.7707 	 91.8992
| 32> C 	 41.5113 	 20.7185 	 92.0162
| 33> H 	 42.167 	 20.7717 	 91.1528
| 34> H 	 40.5603 	 20.3794 	 91.6907
| 35> C 	 42.1064 	 19.7731 	 93.0225
| 36> H 	 42.32 	 18.7731 	 92.5719
| 37> H 	 41.4358 	 19.5929 	 93.8574
| 38> H 	 42.9987 	 20.2082 	 93.4801
| 39> H 	 42.8144 	 27.526 	 94.2537
| 40> H 	 38.0102 	 20.8764 	 95.9561
| 41> *
| 42>
| 43>                          ****END OF INPUT****

CARTESIAN COORDINATES (ANGSTROEM)
---------------------------------
  S     41.396600   25.523700   93.744100
  C     42.491300   26.558900   94.599300
  C     43.139900   25.865500   95.616600
  C     42.598600   24.581300   95.851100
  C     41.615300   24.279700   94.947900
  H     42.729300   23.890400   96.661100
  C     44.282900   26.466000   96.468500
  H     45.068700   25.652000   96.561700
  H     43.828300   26.700300   97.447000
  C     45.013200   27.711000   95.948500
  H     44.360900   28.537000   95.947200
  H     45.775800   27.988000   96.609900
  C     45.631000   27.698500   94.528300
  H     46.236700   26.841100   94.480200
  H     44.810300   27.635000   93.784300
  H     46.148800   28.652200   94.193800
  S     39.665300   22.855500   96.339000
  C     38.801500   21.562600   95.502700
  C     39.368200   21.371500   94.264600
  C     40.457400   22.191900   93.882500
  C     40.730400   23.111200   94.946500
  H     38.848100   20.642700   93.659400
  C     41.239400   22.103800   92.599300
  H     42.218300   22.524400   92.892900
  H     40.766700   22.770700   91.899200
  C     41.511300   20.718500   92.016200
  H     42.167000   20.771700   91.152800
  H     40.560300   20.379400   91.690700
  C     42.106400   19.773100   93.022500
  H     42.320000   18.773100   92.571900
  H     41.435800   19.592900   93.857400
  H     42.998700   20.208200   93.480100
  H     42.814400   27.526000   94.253700
  H     38.010200   20.876400   95.956100

 Total Charge           Charge          ....    0
 Multiplicity           Mult            ....    1
 Number of Electrons    NEL             ....  134
 Basis Dimension        Dim             ....  322

ORBITAL ENERGIES
----------------

  NO   OCC          E(Eh)            E(eV)
   0   2.0000     -88.966657     -2420.9058
   1   2.0000     -88.965883     -2420.8847
   2   2.0000     -10.329442      -281.0784
   3   2.0000     -10.325864      -280.9810
   4   2.0000     -10.321271      -280.8561
   5   2.0000     -10.311540      -280.5913
   6   2.0000     -10.306295      -280.4485
   7   2.0000     -10.303462      -280.3715
   8   2.0000     -10.302173      -280.3364
   9   2.0000     -10.291725      -280.0521
  10   2.0000     -10.291148      -280.0364
  11   2.0000     -10.288885      -279.9748
  12   2.0000     -10.280719      -279.7526
  13   2.0000     -10.280215      -279.7389
  14   2.0000     -10.279541      -279.7205
  15   2.0000     -10.273271      -279.5499
  16   2.0000      -8.080875      -219.8918
  17   2.0000      -8.080488      -219.8813
  18   2.0000      -6.039327      -164.3385
  19   2.0000      -6.038990      -164.3293
  20   2.0000      -6.035327      -164.2296
  21   2.0000      -6.035030      -164.2215
  22   2.0000      -6.031705      -164.1310
  23   2.0000      -6.031403      -164.1228
  24   2.0000      -1.006441       -27.3867
  25   2.0000      -0.981848       -26.7174
  26   2.0000      -0.913853       -24.8672
  27   2.0000      -0.908923       -24.7331
  28   2.0000      -0.865424       -23.5494
  29   2.0000      -0.854207       -23.2442
  30   2.0000      -0.845221       -22.9996
  31   2.0000      -0.811911       -22.0932
  32   2.0000      -0.784937       -21.3592
  33   2.0000      -0.771380       -20.9903
  34   2.0000      -0.705741       -19.2042
  35   2.0000      -0.704353       -19.1664
  36   2.0000      -0.692864       -18.8538
  37   2.0000      -0.653713       -17.7884
  38   2.0000      -0.639247       -17.3948
  39   2.0000      -0.606875       -16.5139
  40   2.0000      -0.591738       -16.1020
  41   2.0000      -0.576531       -15.6882
  42   2.0000      -0.560855       -15.2616
  43   2.0000      -0.555451       -15.1146
  44   2.0000      -0.544481       -14.8161
  45   2.0000      -0.532793       -14.4980
  46   2.0000      -0.522240       -14.2109
  47   2.0000      -0.515318       -14.0225
  48   2.0000      -0.500558       -13.6209
  49   2.0000      -0.492722       -13.4077
  50   2.0000      -0.486719       -13.2443
  51   2.0000      -0.479414       -13.0455
  52   2.0000      -0.469870       -12.7858
  53   2.0000      -0.466824       -12.7029
  54   2.0000      -0.459164       -12.4945
  55   2.0000      -0.446640       -12.1537
  56   2.0000      -0.441648       -12.0178
  57   2.0000      -0.436374       -11.8744
  58   2.0000      -0.435494       -11.8504
  59   2.0000      -0.423355       -11.5201
  60   2.0000      -0.419184       -11.4066
  61   2.0000      -0.415011       -11.2930
  62   2.0000      -0.413175       -11.2431
  63   2.0000      -0.340919        -9.2769
  64   2.0000      -0.334651        -9.1063
  65   2.0000      -0.326822        -8.8933
  66   2.0000      -0.292876        -7.9696
  67   0.0000       0.031921         0.8686
  68   0.0000       0.065786         1.7901
  69   0.0000       0.107304         2.9199
  70   0.0000       0.121028         3.2934
  71   0.0000       0.132600         3.6082

MULLIKEN ATOMIC CHARGES
-----------------------
   0 S :    0.124938
   1 C :   -0.118923
   2 C :   -0.090131
   3 C :    0.031256
   4 C :   -0.169608
   5 H :    0.010180
   6 C :    0.045969
   7 H :    0.043410
   8 H :    0.054048
   9 C :   -0.051208
  10 H :    0.009426
  11 H :    0.019319
  12 C :   -0.062136
  13 H :    0.028837
  14 H :    0.018396
  15 H :    0.046420
  16 S :    0.109537
  17 C :   -0.132321
  18 C :   -0.047975
  19 C :   -0.048183
  20 C :   -0.171959
  21 H :    0.016854
  22 C :    0.075315
  23 H :    0.032343
  24 H :    0.042858
  25 C :   -0.037911
  26 H :    0.033204
  27 H :    0.014588
  28 C :   -0.057049
  29 H :    0.039285
  30 H :    0.032102
  31 H :    0.028098
  32 H :    0.045910
  33 H :    0.085114
Sum of atomic charges:   -0.0000000

LOEWDIN ATOMIC CHARGES
----------------------
   0 S :    0.420062
   1 C :   -0.203728
   2 C :   -0.062597
   3 C :   -0.061679
   4 C :   -0.193421
   5 H :    0.033425
   6 C :   -0.030351
   7 H :    0.037414
   8 H :    0.041374
   9 C :   -0.043845
  10 H :    0.014970
  11 H :    0.021671
  12 C :   -0.064980
  13 H :    0.016866
  14 H :    0.021660
  15 H :    0.036228
  16 S :    0.395928
  17 C :   -0.201201
  18 C :   -0.079357
  19 C :   -0.056480
  20 C :   -0.197023
  21 H :    0.029230
  22 C :   -0.034283
  23 H :    0.033528
  24 H :    0.032613
  25 C :   -0.037558
  26 H :    0.028678
  27 H :    0.016173
  28 C :   -0.066217
  29 H :    0.030569
  30 H :    0.024884
  31 H :    0.026196
  32 H :    0.021977
  33 H :    0.049273

  Mayer bond orders larger than 0.100000
B(  0-S ,  1-C ) :   1.1416 B(  0-S ,  4-C ) :   1.1522 B(  1-C ,  2-C ) :   1.6167
B(  1-C , 32-H ) :   0.9596 B(  2-C ,  3-C ) :   1.2284 B(  2-C ,  6-C ) :   0.9969
B(  3-C ,  4-C ) :   1.5848 B(  3-C ,  5-H ) :   1.0024 B(  4-C , 20-C ) :   1.0284
B(  6-C ,  7-H ) :   0.9468 B(  6-C ,  8-H ) :   0.9383 B(  6-C ,  9-C ) :   1.0868
B(  9-C , 10-H ) :   0.9465 B(  9-C , 11-H ) :   0.9515 B(  9-C , 12-C ) :   1.0755
B( 12-C , 13-H ) :   0.9778 B( 12-C , 14-H ) :   0.9719 B( 12-C , 15-H ) :   0.9732
B( 16-S , 17-C ) :   1.1454 B( 16-S , 20-C ) :   1.1577 B( 17-C , 18-C ) :   1.6116
B( 17-C , 20-C ) :   0.1071 B( 17-C , 33-H ) :   0.9558 B( 18-C , 19-C ) :   1.2466
B( 18-C , 21-H ) :   0.9849 B( 19-C , 20-C ) :   1.5482 B( 19-C , 22-C ) :   1.0258
B( 22-C , 23-H ) :   0.9308 B( 22-C , 24-H ) :   0.9274 B( 22-C , 25-C ) :   1.0810
B( 25-C , 26-H ) :   0.9538 B( 25-C , 27-H ) :   0.9463 B( 25-C , 28-C ) :   1.0898
B( 28-C , 29-H ) :   0.9720 B( 28-C , 30-H ) :   0.9683 B( 28-C , 31-H ) :   0.9733

Dispersion correction           -0.014659009
FINAL SINGLE POINT ENERGY     -1339.881311384393

DIPOLE MOMENT
-------------
                                X             Y             Z
Electronic contribution:    -18.46329       0.89024       6.64703
Nuclear contribution   :     18.76097      -0.98274      -6.72440
                        -----------------------------------------
Total Dipole Moment    :      0.29768      -0.09250      -0.07737
                        -----------------------------------------
Magnitude (a.u.)       :      0.32118
Magnitude (Debye)      :      0.81638

Rotational constants in cm-1:     0.023839     0.007375     0.006478
Rotational constants in MHz :   714.667503   221.098970   194.206508

                             ****ORCA TERMINATED NORMALLY****
TOTAL RUN TIME: 0 days 0 hours 0 minutes 28 seconds 254 msec
