                         Program Version 4.2.1 -  RELEASE  -
|  1> ! wB97X-D3 SP def2-SVP
|  2> %pal
|  3> nprocs 16
|  4> end
|  5>
|  6> * xyz 0 1
|  7> S 	 -8.04697 	 50.4388 	 43.616
|  8> C 	 -9.42954 	 50.1884 	 44.6954
|  9> C 	 -9.93479 	 48.9876 	 44.3685
| 10> C 	 -9.34811 	 48.2564 	 43.2915
| 11> C 	 -8.2944 	 48.9421 	 42.7185
| 12> H 	 -9.66681 	 47.3799 	 42.9107
| 13> C 	 -11.1494 	 48.3782 	 45.0439
| 14> H 	 -12.1186 	 48.653 	 44.5685
| 15> H 	 -11.3228 	 48.8345 	 46.0072
| 16> C 	 -11.2403 	 46.8417 	 45.2113
| 17> H 	 -12.2581 	 46.4741 	 45.3453
| 18> H 	 -11.0328 	 46.4661 	 44.2044
| 19> C 	 -10.1692 	 46.2787 	 46.222
| 20> H 	 -10.4467 	 45.2834 	 46.4917
| 21> H 	 -9.11889 	 46.2664 	 45.7844
| 22> H 	 -10.1604 	 46.7601 	 47.2012
| 23> S 	 -7.57183 	 49.2453 	 40.062
| 24> C 	 -6.87006 	 47.9367 	 39.2085
| 25> C 	 -6.38713 	 47.0797 	 40.0945
| 26> C 	 -6.66059 	 47.3098 	 41.4822
| 27> C 	 -7.47311 	 48.4382 	 41.604
| 28> H 	 -5.83374 	 46.2623 	 39.757
| 29> C 	 -6.12689 	 46.4337 	 42.5478
| 30> H 	 -6.53551 	 46.7087 	 43.5303
| 31> H 	 -5.12487 	 46.6569 	 42.6907
| 32> C 	 -6.2679 	 44.9537 	 42.3157
| 33> H 	 -5.85858 	 44.7069 	 41.3523
| 34> H 	 -7.32069 	 44.5341 	 42.3312
| 35> C 	 -5.43583 	 44.0178 	 43.3063
| 36> H 	 -5.54503 	 44.2831 	 44.3546
| 37> H 	 -4.36046 	 44.0299 	 43.0382
| 38> H 	 -5.75832 	 42.9434 	 43.2346
| 39> H 	 -9.84915 	 50.8132 	 45.4833
| 40> H 	 -6.92676 	 47.7774 	 38.1144
| 41> *
| 42>
| 43>                          ****END OF INPUT****

CARTESIAN COORDINATES (ANGSTROEM)
---------------------------------
  S     -8.046970   50.438800   43.616000
  C     -9.429540   50.188400   44.695400
  C     -9.934790   48.987600   44.368500
  C     -9.348110   48.256400   43.291500
  C     -8.294400   48.942100   42.718500
  H     -9.666810   47.379900   42.910700
  C    -11.149400   48.378200   45.043900
  H    -12.118600   48.653000   44.568500
  H    -11.322800   48.834500   46.007200
  C    -11.240300   46.841700   45.211300
  H    -12.258100   46.474100   45.345300
  H    -11.032800   46.466100   44.204400
  C    -10.169200   46.278700   46.222000
  H    -10.446700   45.283400   46.491700
  H     -9.118890   46.266400   45.784400
  H    -10.160400   46.760100   47.201200
  S     -7.571830   49.245300   40.062000
  C     -6.870060   47.936700   39.208500
  C     -6.387130   47.079700   40.094500
  C     -6.660590   47.309800   41.482200
  C     -7.473110   48.438200   41.604000
  H     -5.833740   46.262300   39.757000
  C     -6.126890   46.433700   42.547800
  H     -6.535510   46.708700   43.530300
  H     -5.124870   46.656900   42.690700
  C     -6.267900   44.953700   42.315700
  H     -5.858580   44.706900   41.352300
  H     -7.320690   44.534100   42.331200
  C     -5.435830   44.017800   43.306300
  H     -5.545030   44.283100   44.354600
  H     -4.360460   44.029900   43.038200
  H     -5.758320   42.943400   43.234600
  H     -9.849150   50.813200   45.483300
  H     -6.926760   47.777400   38.114400

 Total Charge           Charge          ....    0
 Multiplicity           Mult            ....    1
 Number of Electrons    NEL             ....  134
 Basis Dimension        Dim             ....  322

ORBITAL ENERGIES
----------------

  NO   OCC          E(Eh)            E(eV)
   0   2.0000     -88.963865     -2420.8298
   1   2.0000     -88.959359     -2420.7072
   2   2.0000     -10.333514      -281.1892
   3   2.0000     -10.329177      -281.0712
   4   2.0000     -10.313825      -280.6535
   5   2.0000     -10.313178      -280.6358
   6   2.0000     -10.305285      -280.4211
   7   2.0000     -10.296050      -280.1698
   8   2.0000     -10.293303      -280.0950
   9   2.0000     -10.291232      -280.0387
  10   2.0000     -10.287496      -279.9370
  11   2.0000     -10.286820      -279.9186
  12   2.0000     -10.286565      -279.9117
  13   2.0000     -10.285621      -279.8860
  14   2.0000     -10.282647      -279.8050
  15   2.0000     -10.281091      -279.7627
  16   2.0000      -8.077967      -219.8126
  17   2.0000      -8.075574      -219.7475
  18   2.0000      -6.036642      -164.2654
  19   2.0000      -6.034109      -164.1965
  20   2.0000      -6.032469      -164.1518
  21   2.0000      -6.029842      -164.0803
  22   2.0000      -6.028642      -164.0477
  23   2.0000      -6.026211      -163.9815
  24   2.0000      -1.012066       -27.5397
  25   2.0000      -0.991138       -26.9702
  26   2.0000      -0.915020       -24.8990
  27   2.0000      -0.904518       -24.6132
  28   2.0000      -0.873930       -23.7808
  29   2.0000      -0.846079       -23.0230
  30   2.0000      -0.838054       -22.8046
  31   2.0000      -0.823269       -22.4023
  32   2.0000      -0.783357       -21.3162
  33   2.0000      -0.774750       -21.0820
  34   2.0000      -0.714257       -19.4359
  35   2.0000      -0.703630       -19.1467
  36   2.0000      -0.694529       -18.8991
  37   2.0000      -0.656353       -17.8603
  38   2.0000      -0.643451       -17.5092
  39   2.0000      -0.628929       -17.1140
  40   2.0000      -0.608490       -16.5578
  41   2.0000      -0.571419       -15.5491
  42   2.0000      -0.563256       -15.3270
  43   2.0000      -0.545063       -14.8319
  44   2.0000      -0.532016       -14.4769
  45   2.0000      -0.528078       -14.3697
  46   2.0000      -0.521961       -14.2033
  47   2.0000      -0.515074       -14.0159
  48   2.0000      -0.508585       -13.8393
  49   2.0000      -0.501992       -13.6599
  50   2.0000      -0.491911       -13.3856
  51   2.0000      -0.484399       -13.1812
  52   2.0000      -0.474409       -12.9093
  53   2.0000      -0.465716       -12.6728
  54   2.0000      -0.457862       -12.4591
  55   2.0000      -0.450735       -12.2651
  56   2.0000      -0.448240       -12.1972
  57   2.0000      -0.435703       -11.8561
  58   2.0000      -0.425188       -11.5700
  59   2.0000      -0.419035       -11.4025
  60   2.0000      -0.417399       -11.3580
  61   2.0000      -0.416270       -11.3273
  62   2.0000      -0.408753       -11.1227
  63   2.0000      -0.343436        -9.3454
  64   2.0000      -0.327348        -8.9076
  65   2.0000      -0.325774        -8.8648
  66   2.0000      -0.305992        -8.3265
  67   0.0000       0.039687         1.0799
  68   0.0000       0.059206         1.6111
  69   0.0000       0.118865         3.2345
  70   0.0000       0.124646         3.3918
  71   0.0000       0.132894         3.6162

MULLIKEN ATOMIC CHARGES
-----------------------
   0 S :    0.097723
   1 C :   -0.120472
   2 C :   -0.048883
   3 C :    0.079266
   4 C :   -0.136443
   5 H :   -0.039030
   6 C :    0.046842
   7 H :    0.037034
   8 H :    0.000087
   9 C :   -0.082692
  10 H :    0.027879
  11 H :    0.019859
  12 C :   -0.054036
  13 H :    0.021833
  14 H :    0.053302
  15 H :    0.031073
  16 S :    0.103288
  17 C :   -0.091795
  18 C :   -0.027355
  19 C :   -0.003149
  20 C :   -0.194869
  21 H :   -0.008218
  22 C :    0.151601
  23 H :    0.018438
  24 H :    0.013758
  25 C :   -0.118014
  26 H :    0.024721
  27 H :    0.043602
  28 C :   -0.085617
  29 H :    0.034558
  30 H :    0.038320
  31 H :    0.041200
  32 H :    0.052139
  33 H :    0.074050
Sum of atomic charges:    0.0000000

LOEWDIN ATOMIC CHARGES
----------------------
   0 S :    0.389139
   1 C :   -0.190767
   2 C :   -0.066761
   3 C :   -0.047878
   4 C :   -0.182296
   5 H :    0.011303
   6 C :   -0.039642
   7 H :    0.036350
   8 H :    0.019928
   9 C :   -0.043006
  10 H :    0.026400
  11 H :    0.021230
  12 C :   -0.071160
  13 H :    0.020440
  14 H :    0.036136
  15 H :    0.024935
  16 S :    0.417054
  17 C :   -0.192929
  18 C :   -0.073977
  19 C :   -0.045854
  20 C :   -0.200511
  21 H :    0.018803
  22 C :   -0.032461
  23 H :    0.035503
  24 H :    0.030680
  25 C :   -0.039889
  26 H :    0.018248
  27 H :    0.031180
  28 C :   -0.073360
  29 H :    0.020913
  30 H :    0.025668
  31 H :    0.032061
  32 H :    0.040425
  33 H :    0.044093

  Mayer bond orders larger than 0.100000
B(  0-S ,  1-C ) :   1.1099 B(  0-S ,  4-C ) :   1.1533 B(  1-C ,  2-C ) :   1.6383
B(  1-C , 32-H ) :   0.9706 B(  2-C ,  3-C ) :   1.2125 B(  2-C ,  6-C ) :   1.0157
B(  3-C ,  4-C ) :   1.5819 B(  3-C ,  5-H ) :   1.0198 B(  4-C , 20-C ) :   1.0099
B(  6-C ,  7-H ) :   0.9375 B(  6-C ,  8-H ) :   0.9424 B(  6-C ,  9-C ) :   1.0771
B(  9-C , 10-H ) :   0.9566 B(  9-C , 11-H ) :   0.9512 B(  9-C , 12-C ) :   1.0629
B( 12-C , 13-H ) :   0.9759 B( 12-C , 14-H ) :   0.9747 B( 12-C , 15-H ) :   0.9782
B( 16-S , 17-C ) :   1.1521 B( 16-S , 20-C ) :   1.1527 B( 17-C , 18-C ) :   1.6206
B( 17-C , 33-H ) :   0.9637 B( 18-C , 19-C ) :   1.2243 B( 18-C , 21-H ) :   0.9985
B( 19-C , 20-C ) :   1.5831 B( 19-C , 22-C ) :   1.0574 B( 22-C , 23-H ) :   0.9199
B( 22-C , 24-H ) :   0.9195 B( 22-C , 25-C ) :   1.0552 B( 25-C , 26-H ) :   0.9559
B( 25-C , 27-H ) :   0.9607 B( 25-C , 28-C ) :   1.0730 B( 28-C , 29-H ) :   0.9783
B( 28-C , 30-H ) :   0.9778 B( 28-C , 31-H ) :   0.9775

Dispersion correction           -0.014205084
FINAL SINGLE POINT ENERGY     -1339.862986252468

DIPOLE MOMENT
-------------
                                X             Y             Z
Electronic contribution:      2.98992      26.24642     -15.63672
Nuclear contribution   :     -3.14202     -27.00885      15.77467
                        -----------------------------------------
Total Dipole Moment    :     -0.15210      -0.76243       0.13795
                        -----------------------------------------
Magnitude (a.u.)       :      0.78960
Magnitude (Debye)      :      2.00700

Rotational constants in cm-1:     0.015544     0.009992     0.007027
Rotational constants in MHz :   466.001221   299.551072   210.662663

                             ****ORCA TERMINATED NORMALLY****
TOTAL RUN TIME: 0 days 0 hours 0 minutes 33 seconds 815 msec
