                         Program Version 4.2.1 -  RELEASE  -
|  1> ! wB97X-D3 SP def2-SVP
|  2> %pal
|  3> nprocs 16
|  4> end
|  5>
|  6> * xyz 0 1
|  7> S 	 52.4899 	 2.89388 	 83.3412
|  8> C 	 50.8726 	 2.73812 	 84.0801
|  9> C 	 50.5389 	 1.40104 	 84.0543
| 10> C 	 51.4451 	 0.56947 	 83.4127
| 11> C 	 52.5795 	 1.20649 	 82.9394
| 12> H 	 51.3981 	 -0.475553 	 83.2131
| 13> C 	 49.2317 	 0.870727 	 84.6655
| 14> H 	 48.4787 	 1.64742 	 84.462
| 15> H 	 49.333 	 0.759292 	 85.6891
| 16> C 	 48.7365 	 -0.451006 	 84.1379
| 17> H 	 48.4604 	 -0.282497 	 83.05
| 18> H 	 49.4702 	 -1.31777 	 84.1142
| 19> C 	 47.5802 	 -1.05692 	 85.0675
| 20> H 	 46.6503 	 -0.43171 	 85.1516
| 21> H 	 47.251 	 -2.09074 	 84.8082
| 22> H 	 48.0052 	 -1.10143 	 86.0427
| 23> S 	 55.0693 	 -0.191461 	 83.1243
| 24> C 	 55.9585 	 -0.587202 	 81.7185
| 25> C 	 55.2186 	 -0.218401 	 80.6027
| 26> C 	 54.0217 	 0.552536 	 80.8951
| 27> C 	 53.7308 	 0.610565 	 82.2233
| 28> H 	 55.614 	 -0.53653 	 79.6615
| 29> C 	 53.0907 	 0.94992 	 79.7759
| 30> H 	 52.1227 	 1.0815 	 80.1924
| 31> H 	 53.0076 	 0.133426 	 79.0763
| 32> C 	 53.5148 	 2.23017 	 79.0598
| 33> H 	 54.5101 	 2.00147 	 78.7256
| 34> H 	 53.6557 	 3.08178 	 79.7848
| 35> C 	 52.6209 	 2.67264 	 77.9165
| 36> H 	 51.5905 	 2.769 	 78.3038
| 37> H 	 52.4893 	 1.94276 	 77.0982
| 38> H 	 52.8765 	 3.61084 	 77.5065
| 39> H 	 50.1929 	 3.49615 	 84.3641
| 40> H 	 56.9497 	 -1.06768 	 81.8525
| 41> *
| 42>
| 43>                          ****END OF INPUT****

CARTESIAN COORDINATES (ANGSTROEM)
---------------------------------
  S     52.489900    2.893880   83.341200
  C     50.872600    2.738120   84.080100
  C     50.538900    1.401040   84.054300
  C     51.445100    0.569470   83.412700
  C     52.579500    1.206490   82.939400
  H     51.398100   -0.475553   83.213100
  C     49.231700    0.870727   84.665500
  H     48.478700    1.647420   84.462000
  H     49.333000    0.759292   85.689100
  C     48.736500   -0.451006   84.137900
  H     48.460400   -0.282497   83.050000
  H     49.470200   -1.317770   84.114200
  C     47.580200   -1.056920   85.067500
  H     46.650300   -0.431710   85.151600
  H     47.251000   -2.090740   84.808200
  H     48.005200   -1.101430   86.042700
  S     55.069300   -0.191461   83.124300
  C     55.958500   -0.587202   81.718500
  C     55.218600   -0.218401   80.602700
  C     54.021700    0.552536   80.895100
  C     53.730800    0.610565   82.223300
  H     55.614000   -0.536530   79.661500
  C     53.090700    0.949920   79.775900
  H     52.122700    1.081500   80.192400
  H     53.007600    0.133426   79.076300
  C     53.514800    2.230170   79.059800
  H     54.510100    2.001470   78.725600
  H     53.655700    3.081780   79.784800
  C     52.620900    2.672640   77.916500
  H     51.590500    2.769000   78.303800
  H     52.489300    1.942760   77.098200
  H     52.876500    3.610840   77.506500
  H     50.192900    3.496150   84.364100
  H     56.949700   -1.067680   81.852500

 Total Charge           Charge          ....    0
 Multiplicity           Mult            ....    1
 Number of Electrons    NEL             ....  134
 Basis Dimension        Dim             ....  322

ORBITAL ENERGIES
----------------

  NO   OCC          E(Eh)            E(eV)
   0   2.0000     -88.967527     -2420.9295
   1   2.0000     -88.959637     -2420.7148
   2   2.0000     -10.330753      -281.1141
   3   2.0000     -10.329670      -281.0846
   4   2.0000     -10.322172      -280.8806
   5   2.0000     -10.314889      -280.6824
   6   2.0000     -10.305583      -280.4292
   7   2.0000     -10.299559      -280.2653
   8   2.0000     -10.299393      -280.2607
   9   2.0000     -10.295538      -280.1558
  10   2.0000     -10.288860      -279.9741
  11   2.0000     -10.288647      -279.9683
  12   2.0000     -10.287527      -279.9378
  13   2.0000     -10.283575      -279.8303
  14   2.0000     -10.283047      -279.8159
  15   2.0000     -10.274418      -279.5811
  16   2.0000      -8.081551      -219.9102
  17   2.0000      -8.074858      -219.7281
  18   2.0000      -6.040015      -164.3572
  19   2.0000      -6.035997      -164.2478
  20   2.0000      -6.033342      -164.1756
  21   2.0000      -6.032537      -164.1537
  22   2.0000      -6.029145      -164.0614
  23   2.0000      -6.025750      -163.9690
  24   2.0000      -1.006067       -27.3765
  25   2.0000      -0.986891       -26.8547
  26   2.0000      -0.912110       -24.8198
  27   2.0000      -0.909879       -24.7591
  28   2.0000      -0.868580       -23.6353
  29   2.0000      -0.847943       -23.0737
  30   2.0000      -0.842296       -22.9200
  31   2.0000      -0.815039       -22.1783
  32   2.0000      -0.784206       -21.3393
  33   2.0000      -0.774939       -21.0872
  34   2.0000      -0.710147       -19.3241
  35   2.0000      -0.697595       -18.9825
  36   2.0000      -0.689994       -18.7757
  37   2.0000      -0.662252       -18.0208
  38   2.0000      -0.642850       -17.4928
  39   2.0000      -0.619565       -16.8592
  40   2.0000      -0.599733       -16.3196
  41   2.0000      -0.576281       -15.6814
  42   2.0000      -0.566782       -15.4229
  43   2.0000      -0.560222       -15.2444
  44   2.0000      -0.529183       -14.3998
  45   2.0000      -0.525168       -14.2905
  46   2.0000      -0.516326       -14.0500
  47   2.0000      -0.514076       -13.9887
  48   2.0000      -0.506819       -13.7912
  49   2.0000      -0.497811       -13.5461
  50   2.0000      -0.493428       -13.4268
  51   2.0000      -0.478462       -13.0196
  52   2.0000      -0.470688       -12.8081
  53   2.0000      -0.465207       -12.6589
  54   2.0000      -0.458368       -12.4728
  55   2.0000      -0.448689       -12.2095
  56   2.0000      -0.444980       -12.1085
  57   2.0000      -0.435507       -11.8507
  58   2.0000      -0.434528       -11.8241
  59   2.0000      -0.425337       -11.5740
  60   2.0000      -0.416465       -11.3326
  61   2.0000      -0.410568       -11.1721
  62   2.0000      -0.408631       -11.1194
  63   2.0000      -0.336886        -9.1671
  64   2.0000      -0.328842        -8.9483
  65   2.0000      -0.323354        -8.7989
  66   2.0000      -0.315001        -8.5716
  67   0.0000       0.040270         1.0958
  68   0.0000       0.053662         1.4602
  69   0.0000       0.116723         3.1762
  70   0.0000       0.126207         3.4343
  71   0.0000       0.131697         3.5837

MULLIKEN ATOMIC CHARGES
-----------------------
   0 S :    0.118302
   1 C :   -0.118945
   2 C :   -0.071094
   3 C :    0.048458
   4 C :   -0.181031
   5 H :   -0.001067
   6 C :    0.117282
   7 H :    0.030526
   8 H :    0.019902
   9 C :   -0.147417
  10 H :    0.042570
  11 H :    0.049448
  12 C :   -0.066152
  13 H :    0.039266
  14 H :    0.042916
  15 H :    0.026198
  16 S :    0.094972
  17 C :   -0.118645
  18 C :   -0.026880
  19 C :   -0.004336
  20 C :   -0.179077
  21 H :    0.014392
  22 C :    0.093243
  23 H :    0.010998
  24 H :    0.021878
  25 C :   -0.090129
  26 H :    0.013800
  27 H :    0.035741
  28 C :   -0.010678
  29 H :    0.021365
  30 H :    0.025679
  31 H :    0.028831
  32 H :    0.035465
  33 H :    0.084218
Sum of atomic charges:    0.0000000

LOEWDIN ATOMIC CHARGES
----------------------
   0 S :    0.410466
   1 C :   -0.185283
   2 C :   -0.062522
   3 C :   -0.063824
   4 C :   -0.196896
   5 H :    0.029944
   6 C :   -0.027689
   7 H :    0.036719
   8 H :    0.021494
   9 C :   -0.049937
  10 H :    0.028216
  11 H :    0.029593
  12 C :   -0.069845
  13 H :    0.027298
  14 H :    0.029988
  15 H :    0.019714
  16 S :    0.395436
  17 C :   -0.192897
  18 C :   -0.077709
  19 C :   -0.046038
  20 C :   -0.193325
  21 H :    0.026323
  22 C :   -0.023848
  23 H :    0.022706
  24 H :    0.030144
  25 C :   -0.041534
  26 H :    0.016784
  27 H :    0.031091
  28 C :   -0.065493
  29 H :    0.027946
  30 H :    0.025753
  31 H :    0.021307
  32 H :    0.025155
  33 H :    0.040764

  Mayer bond orders larger than 0.100000
B(  0-S ,  1-C ) :   1.1408 B(  0-S ,  4-C ) :   1.1715 B(  1-C ,  2-C ) :   1.5914
B(  1-C ,  4-C ) :   0.1115 B(  1-C , 32-H ) :   0.9792 B(  2-C ,  3-C ) :   1.2649
B(  2-C ,  6-C ) :   0.9945 B(  3-C ,  4-C ) :   1.5589 B(  3-C ,  5-H ) :   1.0003
B(  4-C , 20-C ) :   1.0070 B(  6-C ,  7-H ) :   0.9394 B(  6-C ,  8-H ) :   0.9350
B(  6-C ,  9-C ) :   1.0769 B(  9-C , 10-H ) :   0.9594 B(  9-C , 11-H ) :   0.9488
B(  9-C , 12-C ) :   1.0582 B( 12-C , 13-H ) :   0.9785 B( 12-C , 14-H ) :   0.9781
B( 12-C , 15-H ) :   0.9751 B( 16-S , 17-C ) :   1.1804 B( 16-S , 20-C ) :   1.1252
B( 17-C , 18-C ) :   1.5875 B( 17-C , 33-H ) :   0.9647 B( 18-C , 19-C ) :   1.2129
B( 18-C , 21-H ) :   0.9981 B( 19-C , 20-C ) :   1.6272 B( 19-C , 22-C ) :   1.0475
B( 22-C , 23-H ) :   0.9264 B( 22-C , 24-H ) :   0.9409 B( 22-C , 25-C ) :   1.0561
B( 25-C , 26-H ) :   0.9574 B( 25-C , 27-H ) :   0.9517 B( 25-C , 28-C ) :   1.0878
B( 28-C , 29-H ) :   0.9701 B( 28-C , 30-H ) :   0.9720 B( 28-C , 31-H ) :   0.9737

Dispersion correction           -0.013831482
FINAL SINGLE POINT ENERGY     -1339.879248925449

DIPOLE MOMENT
-------------
                                X             Y             Z
Electronic contribution:     20.44436       3.40687       9.71132
Nuclear contribution   :    -20.82966      -3.66711      -9.96842
                        -----------------------------------------
Total Dipole Moment    :     -0.38530      -0.26024      -0.25711
                        -----------------------------------------
Magnitude (a.u.)       :      0.53130
Magnitude (Debye)      :      1.35046

Rotational constants in cm-1:     0.017544     0.007750     0.006804
Rotational constants in MHz :   525.962446   232.335618   203.975581

                             ****ORCA TERMINATED NORMALLY****
TOTAL RUN TIME: 0 days 0 hours 0 minutes 28 seconds 719 msec
