                         Program Version 4.2.1 -  RELEASE  -
|  1> ! wB97X-D3 SP def2-SVP
|  2> %pal
|  3> nprocs 16
|  4> end
|  5>
|  6> * xyz 0 1
|  7> S 	 -13.5464 	 38.9001 	 38.0422
|  8> C 	 -12.7778 	 40.3341 	 37.3641
|  9> C 	 -11.5259 	 39.9554 	 36.968
| 10> C 	 -11.2023 	 38.5985 	 37.3433
| 11> C 	 -12.1908 	 37.917 	 37.8529
| 12> H 	 -10.1762 	 38.1625 	 37.1562
| 13> C 	 -10.5186 	 40.8457 	 36.2964
| 14> H 	 -9.45457 	 40.5005 	 36.4022
| 15> H 	 -10.4525 	 41.7243 	 36.8747
| 16> C 	 -10.7429 	 41.3552 	 34.8602
| 17> H 	 -11.8131 	 41.7136 	 34.8278
| 18> H 	 -10.0751 	 42.1727 	 34.6734
| 19> C 	 -10.6677 	 40.2713 	 33.7886
| 20> H 	 -9.75547 	 39.7367 	 33.6414
| 21> H 	 -11.3032 	 39.4589 	 34.1206
| 22> H 	 -11.0403 	 40.6383 	 32.8304
| 23> S 	 -11.9801 	 36 	 39.8871
| 24> C 	 -12.0209 	 34.3186 	 39.4461
| 25> C 	 -12.4063 	 34.1624 	 38.1464
| 26> C 	 -12.5577 	 35.3877 	 37.4261
| 27> C 	 -12.2411 	 36.494 	 38.2008
| 28> H 	 -12.5903 	 33.1403 	 37.749
| 29> C 	 -12.7843 	 35.3246 	 35.9256
| 30> H 	 -13.3405 	 36.1646 	 35.4816
| 31> H 	 -13.3686 	 34.4581 	 35.6672
| 32> C 	 -11.4306 	 35.0888 	 35.2579
| 33> H 	 -10.7664 	 34.6026 	 35.931
| 34> H 	 -11.001 	 36.0684 	 35.2142
| 35> C 	 -11.5465 	 34.5473 	 33.8123
| 36> H 	 -12.1373 	 35.2498 	 33.1344
| 37> H 	 -12.1123 	 33.6485 	 33.8874
| 38> H 	 -10.6721 	 34.4481 	 33.1511
| 39> H 	 -13.152 	 41.35 	 37.1891
| 40> H 	 -11.9876 	 33.3914 	 40.0539
| 41> *
| 42>
| 43>                          ****END OF INPUT****

CARTESIAN COORDINATES (ANGSTROEM)
---------------------------------
  S    -13.546400   38.900100   38.042200
  C    -12.777800   40.334100   37.364100
  C    -11.525900   39.955400   36.968000
  C    -11.202300   38.598500   37.343300
  C    -12.190800   37.917000   37.852900
  H    -10.176200   38.162500   37.156200
  C    -10.518600   40.845700   36.296400
  H     -9.454570   40.500500   36.402200
  H    -10.452500   41.724300   36.874700
  C    -10.742900   41.355200   34.860200
  H    -11.813100   41.713600   34.827800
  H    -10.075100   42.172700   34.673400
  C    -10.667700   40.271300   33.788600
  H     -9.755470   39.736700   33.641400
  H    -11.303200   39.458900   34.120600
  H    -11.040300   40.638300   32.830400
  S    -11.980100   36.000000   39.887100
  C    -12.020900   34.318600   39.446100
  C    -12.406300   34.162400   38.146400
  C    -12.557700   35.387700   37.426100
  C    -12.241100   36.494000   38.200800
  H    -12.590300   33.140300   37.749000
  C    -12.784300   35.324600   35.925600
  H    -13.340500   36.164600   35.481600
  H    -13.368600   34.458100   35.667200
  C    -11.430600   35.088800   35.257900
  H    -10.766400   34.602600   35.931000
  H    -11.001000   36.068400   35.214200
  C    -11.546500   34.547300   33.812300
  H    -12.137300   35.249800   33.134400
  H    -12.112300   33.648500   33.887400
  H    -10.672100   34.448100   33.151100
  H    -13.152000   41.350000   37.189100
  H    -11.987600   33.391400   40.053900

 Total Charge           Charge          ....    0
 Multiplicity           Mult            ....    1
 Number of Electrons    NEL             ....  134
 Basis Dimension        Dim             ....  322

ORBITAL ENERGIES
----------------

  NO   OCC          E(Eh)            E(eV)
   0   2.0000     -88.967415     -2420.9265
   1   2.0000     -88.962538     -2420.7937
   2   2.0000     -10.329386      -281.0769
   3   2.0000     -10.319072      -280.7962
   4   2.0000     -10.317772      -280.7609
   5   2.0000     -10.316168      -280.7172
   6   2.0000     -10.306700      -280.4596
   7   2.0000     -10.299655      -280.2679
   8   2.0000     -10.293137      -280.0905
   9   2.0000     -10.290516      -280.0192
  10   2.0000     -10.290343      -280.0145
  11   2.0000     -10.289780      -279.9992
  12   2.0000     -10.287954      -279.9495
  13   2.0000     -10.283164      -279.8191
  14   2.0000     -10.279692      -279.7246
  15   2.0000     -10.270878      -279.4848
  16   2.0000      -8.081743      -219.9154
  17   2.0000      -8.078458      -219.8260
  18   2.0000      -6.040402      -164.3677
  19   2.0000      -6.037058      -164.2767
  20   2.0000      -6.036335      -164.2570
  21   2.0000      -6.032706      -164.1583
  22   2.0000      -6.032325      -164.1479
  23   2.0000      -6.029073      -164.0594
  24   2.0000      -1.017576       -27.6896
  25   2.0000      -0.990833       -26.9619
  26   2.0000      -0.913959       -24.8701
  27   2.0000      -0.912437       -24.8287
  28   2.0000      -0.872252       -23.7352
  29   2.0000      -0.845839       -23.0164
  30   2.0000      -0.845227       -22.9998
  31   2.0000      -0.820916       -22.3383
  32   2.0000      -0.786457       -21.4006
  33   2.0000      -0.774147       -21.0656
  34   2.0000      -0.709384       -19.3033
  35   2.0000      -0.703451       -19.1419
  36   2.0000      -0.697457       -18.9788
  37   2.0000      -0.656658       -17.8686
  38   2.0000      -0.640541       -17.4300
  39   2.0000      -0.617345       -16.7988
  40   2.0000      -0.598704       -16.2916
  41   2.0000      -0.578856       -15.7515
  42   2.0000      -0.563514       -15.3340
  43   2.0000      -0.551381       -15.0038
  44   2.0000      -0.541319       -14.7300
  45   2.0000      -0.523403       -14.2425
  46   2.0000      -0.515855       -14.0371
  47   2.0000      -0.509786       -13.8720
  48   2.0000      -0.507959       -13.8223
  49   2.0000      -0.503496       -13.7008
  50   2.0000      -0.487793       -13.2735
  51   2.0000      -0.484477       -13.1833
  52   2.0000      -0.469609       -12.7787
  53   2.0000      -0.467934       -12.7331
  54   2.0000      -0.460969       -12.5436
  55   2.0000      -0.448714       -12.2101
  56   2.0000      -0.440534       -11.9875
  57   2.0000      -0.431201       -11.7336
  58   2.0000      -0.430381       -11.7113
  59   2.0000      -0.427127       -11.6227
  60   2.0000      -0.420810       -11.4508
  61   2.0000      -0.413592       -11.2544
  62   2.0000      -0.411316       -11.1925
  63   2.0000      -0.336701        -9.1621
  64   2.0000      -0.328675        -8.9437
  65   2.0000      -0.325449        -8.8559
  66   2.0000      -0.319575        -8.6961
  67   0.0000       0.050192         1.3658
  68   0.0000       0.056070         1.5257
  69   0.0000       0.115218         3.1352
  70   0.0000       0.121800         3.3143
  71   0.0000       0.130614         3.5542

MULLIKEN ATOMIC CHARGES
-----------------------
   0 S :    0.116252
   1 C :   -0.120209
   2 C :   -0.098755
   3 C :    0.021222
   4 C :   -0.134125
   5 H :    0.029785
   6 C :    0.044771
   7 H :    0.022936
   8 H :    0.015310
   9 C :   -0.063897
  10 H :    0.026724
  11 H :    0.030361
  12 C :   -0.034307
  13 H :    0.018123
  14 H :    0.022315
  15 H :    0.034344
  16 S :    0.119141
  17 C :   -0.083263
  18 C :   -0.074188
  19 C :   -0.002276
  20 C :   -0.202189
  21 H :    0.032609
  22 C :    0.074092
  23 H :    0.037952
  24 H :    0.006749
  25 C :   -0.041786
  26 H :    0.027458
  27 H :    0.013004
  28 C :   -0.056785
  29 H :    0.028240
  30 H :    0.027794
  31 H :    0.041672
  32 H :    0.054687
  33 H :    0.066238
Sum of atomic charges:   -0.0000000

LOEWDIN ATOMIC CHARGES
----------------------
   0 S :    0.427522
   1 C :   -0.195619
   2 C :   -0.067062
   3 C :   -0.070893
   4 C :   -0.220518
   5 H :    0.041737
   6 C :   -0.042940
   7 H :    0.033670
   8 H :    0.028360
   9 C :   -0.034955
  10 H :    0.029464
  11 H :    0.020783
  12 C :   -0.069831
  13 H :    0.018721
  14 H :    0.026763
  15 H :    0.026511
  16 S :    0.403190
  17 C :   -0.196100
  18 C :   -0.080732
  19 C :   -0.045369
  20 C :   -0.196661
  21 H :    0.037539
  22 C :   -0.025566
  23 H :    0.033352
  24 H :    0.023782
  25 C :   -0.038252
  26 H :    0.021602
  27 H :    0.021881
  28 C :   -0.073146
  29 H :    0.033380
  30 H :    0.017780
  31 H :    0.030029
  32 H :    0.038232
  33 H :    0.043346

  Mayer bond orders larger than 0.100000
B(  0-S ,  1-C ) :   1.1240 B(  0-S ,  4-C ) :   1.1601 B(  1-C ,  2-C ) :   1.6288
B(  1-C , 32-H ) :   0.9689 B(  2-C ,  3-C ) :   1.2225 B(  2-C ,  6-C ) :   1.0175
B(  3-C ,  4-C ) :   1.6299 B(  3-C ,  5-H ) :   0.9893 B(  4-C , 20-C ) :   0.9836
B(  6-C ,  7-H ) :   0.9449 B(  6-C ,  8-H ) :   0.9313 B(  6-C ,  9-C ) :   1.0810
B(  9-C , 10-H ) :   0.9541 B(  9-C , 11-H ) :   0.9554 B(  9-C , 12-C ) :   1.0740
B( 12-C , 13-H ) :   0.9751 B( 12-C , 14-H ) :   0.9733 B( 12-C , 15-H ) :   0.9752
B( 16-S , 17-C ) :   1.1477 B( 16-S , 20-C ) :   1.1377 B( 17-C , 18-C ) :   1.6444
B( 17-C , 33-H ) :   0.9570 B( 18-C , 19-C ) :   1.2302 B( 18-C , 21-H ) :   0.9790
B( 19-C , 20-C ) :   1.6140 B( 19-C , 22-C ) :   1.0583 B( 22-C , 23-H ) :   0.9322
B( 22-C , 24-H ) :   0.9363 B( 22-C , 25-C ) :   1.0476 B( 25-C , 26-H ) :   0.9616
B( 25-C , 27-H ) :   0.9464 B( 25-C , 28-C ) :   1.0631 B( 28-C , 29-H ) :   0.9711
B( 28-C , 30-H ) :   0.9799 B( 28-C , 31-H ) :   0.9753

Dispersion correction           -0.014785533
FINAL SINGLE POINT ENERGY     -1339.868943697480

DIPOLE MOMENT
-------------
                                X             Y             Z
Electronic contribution:     -9.74314      -2.00247      28.13285
Nuclear contribution   :     10.00147       1.95873     -28.67718
                        -----------------------------------------
Total Dipole Moment    :      0.25833      -0.04374      -0.54434
                        -----------------------------------------
Magnitude (a.u.)       :      0.60411
Magnitude (Debye)      :      1.53553

Rotational constants in cm-1:     0.017988     0.009491     0.007005
Rotational constants in MHz :   539.276000   284.518209   210.007820

                             ****ORCA TERMINATED NORMALLY****
TOTAL RUN TIME: 0 days 0 hours 0 minutes 33 seconds 745 msec
