                         Program Version 4.2.1 -  RELEASE  -
|  1> ! wB97X-D3 SP def2-SVP
|  2> %pal
|  3> nprocs 16
|  4> end
|  5>
|  6> * xyz 0 1
|  7> S 	 -68.2704 	 57.0696 	 120.015
|  8> C 	 -67.0709 	 57.7969 	 118.93
|  9> C 	 -66.5055 	 58.9668 	 119.423
| 10> C 	 -66.7767 	 59.0533 	 120.833
| 11> C 	 -67.6755 	 58.1099 	 121.282
| 12> H 	 -66.4853 	 59.8628 	 121.469
| 13> C 	 -65.7223 	 59.9671 	 118.598
| 14> H 	 -65.8261 	 60.8924 	 119.093
| 15> H 	 -66.3041 	 59.925 	 117.721
| 16> C 	 -64.199 	 59.5853 	 118.336
| 17> H 	 -63.7523 	 59.4505 	 119.334
| 18> H 	 -64.2798 	 58.6468 	 117.848
| 19> C 	 -63.3503 	 60.5244 	 117.542
| 20> H 	 -63.1144 	 61.4809 	 117.965
| 21> H 	 -62.4693 	 60.0439 	 117.083
| 22> H 	 -63.8755 	 60.6905 	 116.642
| 23> S 	 -70.0453 	 58.195 	 122.51
| 24> C 	 -70.1574 	 58.3633 	 124.237
| 25> C 	 -68.9332 	 58.5647 	 124.839
| 26> C 	 -67.8683 	 58.3065 	 123.902
| 27> C 	 -68.3239 	 58.1411 	 122.569
| 28> H 	 -68.8282 	 58.8312 	 125.875
| 29> C 	 -66.4288 	 58.4641 	 124.322
| 30> H 	 -66.3723 	 59.3039 	 125.051
| 31> H 	 -65.7298 	 58.831 	 123.603
| 32> C 	 -65.8257 	 57.1359 	 124.848
| 33> H 	 -66.155 	 56.2668 	 124.213
| 34> H 	 -66.1567 	 56.9416 	 125.847
| 35> C 	 -64.3082 	 57.2358 	 124.967
| 36> H 	 -63.882 	 57.089 	 123.982
| 37> H 	 -63.8136 	 56.7019 	 125.734
| 38> H 	 -63.9469 	 58.2059 	 125.331
| 39> H 	 -66.82 	 57.405 	 117.97
| 40> H 	 -71.1387 	 58.4531 	 124.705
| 41> *
| 42>
| 43>                          ****END OF INPUT****

CARTESIAN COORDINATES (ANGSTROEM)
---------------------------------
  S    -68.270400   57.069600  120.015000
  C    -67.070900   57.796900  118.930000
  C    -66.505500   58.966800  119.423000
  C    -66.776700   59.053300  120.833000
  C    -67.675500   58.109900  121.282000
  H    -66.485300   59.862800  121.469000
  C    -65.722300   59.967100  118.598000
  H    -65.826100   60.892400  119.093000
  H    -66.304100   59.925000  117.721000
  C    -64.199000   59.585300  118.336000
  H    -63.752300   59.450500  119.334000
  H    -64.279800   58.646800  117.848000
  C    -63.350300   60.524400  117.542000
  H    -63.114400   61.480900  117.965000
  H    -62.469300   60.043900  117.083000
  H    -63.875500   60.690500  116.642000
  S    -70.045300   58.195000  122.510000
  C    -70.157400   58.363300  124.237000
  C    -68.933200   58.564700  124.839000
  C    -67.868300   58.306500  123.902000
  C    -68.323900   58.141100  122.569000
  H    -68.828200   58.831200  125.875000
  C    -66.428800   58.464100  124.322000
  H    -66.372300   59.303900  125.051000
  H    -65.729800   58.831000  123.603000
  C    -65.825700   57.135900  124.848000
  H    -66.155000   56.266800  124.213000
  H    -66.156700   56.941600  125.847000
  C    -64.308200   57.235800  124.967000
  H    -63.882000   57.089000  123.982000
  H    -63.813600   56.701900  125.734000
  H    -63.946900   58.205900  125.331000
  H    -66.820000   57.405000  117.970000
  H    -71.138700   58.453100  124.705000

 Total Charge           Charge          ....    0
 Multiplicity           Mult            ....    1
 Number of Electrons    NEL             ....  134
 Basis Dimension        Dim             ....  322

ORBITAL ENERGIES
----------------

  NO   OCC          E(Eh)            E(eV)
   0   2.0000     -88.969198     -2420.9750
   1   2.0000     -88.962625     -2420.7961
   2   2.0000     -10.326094      -280.9873
   3   2.0000     -10.323242      -280.9097
   4   2.0000     -10.314189      -280.6633
   5   2.0000     -10.312862      -280.6272
   6   2.0000     -10.303539      -280.3736
   7   2.0000     -10.303071      -280.3608
   8   2.0000     -10.294695      -280.1329
   9   2.0000     -10.292281      -280.0672
  10   2.0000     -10.289515      -279.9919
  11   2.0000     -10.288938      -279.9762
  12   2.0000     -10.288334      -279.9598
  13   2.0000     -10.283131      -279.8182
  14   2.0000     -10.274040      -279.5709
  15   2.0000     -10.269341      -279.4430
  16   2.0000      -8.083615      -219.9664
  17   2.0000      -8.078305      -219.8219
  18   2.0000      -6.042134      -164.4148
  19   2.0000      -6.038379      -164.3126
  20   2.0000      -6.036687      -164.2666
  21   2.0000      -6.034183      -164.1985
  22   2.0000      -6.032686      -164.1577
  23   2.0000      -6.029148      -164.0615
  24   2.0000      -1.008330       -27.4381
  25   2.0000      -0.982092       -26.7241
  26   2.0000      -0.913173       -24.8487
  27   2.0000      -0.905837       -24.6491
  28   2.0000      -0.872493       -23.7417
  29   2.0000      -0.852859       -23.2075
  30   2.0000      -0.848378       -23.0855
  31   2.0000      -0.815827       -22.1998
  32   2.0000      -0.785032       -21.3618
  33   2.0000      -0.768078       -20.9005
  34   2.0000      -0.708791       -19.2872
  35   2.0000      -0.703697       -19.1486
  36   2.0000      -0.693004       -18.8576
  37   2.0000      -0.663715       -18.0606
  38   2.0000      -0.639288       -17.3959
  39   2.0000      -0.619115       -16.8470
  40   2.0000      -0.598938       -16.2979
  41   2.0000      -0.578664       -15.7462
  42   2.0000      -0.564415       -15.3585
  43   2.0000      -0.556393       -15.1402
  44   2.0000      -0.526524       -14.3274
  45   2.0000      -0.521242       -14.1837
  46   2.0000      -0.518062       -14.0972
  47   2.0000      -0.512158       -13.9365
  48   2.0000      -0.507903       -13.8207
  49   2.0000      -0.498206       -13.5569
  50   2.0000      -0.493981       -13.4419
  51   2.0000      -0.480274       -13.0689
  52   2.0000      -0.471816       -12.8388
  53   2.0000      -0.461565       -12.5598
  54   2.0000      -0.458626       -12.4798
  55   2.0000      -0.454335       -12.3631
  56   2.0000      -0.451248       -12.2791
  57   2.0000      -0.436994       -11.8912
  58   2.0000      -0.430822       -11.7233
  59   2.0000      -0.427828       -11.6418
  60   2.0000      -0.416728       -11.3398
  61   2.0000      -0.415937       -11.3182
  62   2.0000      -0.409736       -11.1495
  63   2.0000      -0.347868        -9.4660
  64   2.0000      -0.331177        -9.0118
  65   2.0000      -0.327377        -8.9084
  66   2.0000      -0.283481        -7.7139
  67   0.0000       0.029040         0.7902
  68   0.0000       0.066888         1.8201
  69   0.0000       0.099231         2.7002
  70   0.0000       0.122010         3.3201
  71   0.0000       0.132491         3.6053

MULLIKEN ATOMIC CHARGES
-----------------------
   0 S :    0.116515
   1 C :   -0.118300
   2 C :   -0.121913
   3 C :    0.032199
   4 C :   -0.133682
   5 H :    0.009432
   6 C :    0.113973
   7 H :    0.012117
   8 H :    0.019874
   9 C :   -0.071206
  10 H :    0.032579
  11 H :    0.015862
  12 C :    0.005848
  13 H :    0.034992
  14 H :    0.030669
  15 H :    0.001073
  16 S :    0.099636
  17 C :   -0.099868
  18 C :   -0.018673
  19 C :   -0.039423
  20 C :   -0.143852
  21 H :    0.021638
  22 C :    0.034812
  23 H :    0.023819
  24 H :    0.007499
  25 C :   -0.056915
  26 H :    0.051418
  27 H :    0.015850
  28 C :   -0.039204
  29 H :    0.040548
  30 H :    0.019331
  31 H :    0.007608
  32 H :    0.034436
  33 H :    0.061308
Sum of atomic charges:    0.0000000

LOEWDIN ATOMIC CHARGES
----------------------
   0 S :    0.399137
   1 C :   -0.188073
   2 C :   -0.052458
   3 C :   -0.056799
   4 C :   -0.197901
   5 H :    0.027803
   6 C :   -0.021546
   7 H :    0.024126
   8 H :    0.027504
   9 C :   -0.033084
  10 H :    0.025876
  11 H :    0.020874
  12 C :   -0.068384
  13 H :    0.023998
  14 H :    0.035701
  15 H :    0.021036
  16 S :    0.419413
  17 C :   -0.191186
  18 C :   -0.064529
  19 C :   -0.059374
  20 C :   -0.205998
  21 H :    0.032716
  22 C :   -0.036994
  23 H :    0.033804
  24 H :    0.021168
  25 C :   -0.036144
  26 H :    0.035042
  27 H :    0.017717
  28 C :   -0.072696
  29 H :    0.026587
  30 H :    0.021391
  31 H :    0.025395
  32 H :    0.018096
  33 H :    0.027781

  Mayer bond orders larger than 0.100000
B(  0-S ,  1-C ) :   1.1294 B(  0-S ,  4-C ) :   1.1435 B(  1-C ,  2-C ) :   1.6185
B(  1-C , 32-H ) :   0.9714 B(  2-C ,  3-C ) :   1.2346 B(  2-C ,  6-C ) :   1.0101
B(  3-C ,  4-C ) :   1.5756 B(  3-C ,  5-H ) :   0.9906 B(  4-C , 20-C ) :   1.0459
B(  6-C ,  7-H ) :   0.9371 B(  6-C ,  8-H ) :   0.9338 B(  6-C ,  9-C ) :   1.0589
B(  9-C , 10-H ) :   0.9595 B(  9-C , 11-H ) :   0.9538 B(  9-C , 12-C ) :   1.0964
B( 12-C , 13-H ) :   0.9748 B( 12-C , 14-H ) :   0.9668 B( 12-C , 15-H ) :   0.9631
B( 16-S , 17-C ) :   1.1630 B( 16-S , 20-C ) :   1.1577 B( 17-C , 18-C ) :   1.5893
B( 17-C , 33-H ) :   0.9680 B( 18-C , 19-C ) :   1.2515 B( 18-C , 21-H ) :   0.9936
B( 19-C , 20-C ) :   1.5700 B( 19-C , 22-C ) :   1.0454 B( 22-C , 23-H ) :   0.9326
B( 22-C , 24-H ) :   0.9486 B( 22-C , 25-C ) :   1.0452 B( 25-C , 26-H ) :   0.9631
B( 25-C , 27-H ) :   0.9554 B( 25-C , 28-C ) :   1.0797 B( 28-C , 29-H ) :   0.9766
B( 28-C , 30-H ) :   0.9733 B( 28-C , 31-H ) :   0.9653

Dispersion correction           -0.013495515
FINAL SINGLE POINT ENERGY     -1339.860551699764

DIPOLE MOMENT
-------------
                                X             Y             Z
Electronic contribution:    -28.56376      -7.55892      -0.25629
Nuclear contribution   :     29.05034       8.05041       0.25516
                        -----------------------------------------
Total Dipole Moment    :      0.48658       0.49149      -0.00112
                        -----------------------------------------
Magnitude (a.u.)       :      0.69161
Magnitude (Debye)      :      1.75793

Rotational constants in cm-1:     0.017892     0.008137     0.006312
Rotational constants in MHz :   536.394946   243.934399   189.230047

                             ****ORCA TERMINATED NORMALLY****
TOTAL RUN TIME: 0 days 0 hours 0 minutes 32 seconds 886 msec
