                         Program Version 4.2.1 -  RELEASE  -
|  1> ! wB97X-D3 SP def2-SVP
|  2> %pal
|  3> nprocs 16
|  4> end
|  5>
|  6> * xyz 0 1
|  7> S 	 -32.8133 	 69.336 	 145.942
|  8> C 	 -31.7929 	 68.5951 	 144.687
|  9> C 	 -31.1407 	 67.5119 	 145.19
| 10> C 	 -31.6051 	 67.1535 	 146.493
| 11> C 	 -32.5047 	 68.0397 	 147.022
| 12> H 	 -31.2719 	 66.3492 	 147.139
| 13> C 	 -30.2592 	 66.6006 	 144.405
| 14> H 	 -30.1577 	 65.6726 	 144.922
| 15> H 	 -29.1988 	 66.98 	 144.279
| 16> C 	 -30.8227 	 66.1005 	 143.039
| 17> H 	 -31.0256 	 67.0082 	 142.516
| 18> H 	 -30.1134 	 65.5316 	 142.353
| 19> C 	 -32.157 	 65.2723 	 143.128
| 20> H 	 -32.5268 	 65.0496 	 142.103
| 21> H 	 -32.0145 	 64.3958 	 143.741
| 22> H 	 -32.9976 	 65.7752 	 143.579
| 23> S 	 -34.1694 	 66.6085 	 148.666
| 24> C 	 -34.6787 	 67.156 	 150.2
| 25> C 	 -34.398 	 68.4937 	 150.327
| 26> C 	 -33.5083 	 68.9313 	 149.294
| 27> C 	 -33.1621 	 67.9818 	 148.335
| 28> H 	 -34.8147 	 69.0986 	 151.175
| 29> C 	 -32.9924 	 70.3433 	 149.296
| 30> H 	 -33.8268 	 70.9792 	 148.887
| 31> H 	 -32.215 	 70.3238 	 148.639
| 32> C 	 -32.4684 	 70.8649 	 150.615
| 33> H 	 -33.3547 	 71.1975 	 151.249
| 34> H 	 -32.0475 	 71.8477 	 150.457
| 35> C 	 -31.4525 	 70.0472 	 151.403
| 36> H 	 -31.6952 	 69.0122 	 151.699
| 37> H 	 -31.2686 	 70.5431 	 152.342
| 38> H 	 -30.4773 	 69.9817 	 150.915
| 39> H 	 -31.5556 	 68.9937 	 143.672
| 40> H 	 -35.4201 	 66.5505 	 150.812
| 41> *
| 42>
| 43>                          ****END OF INPUT****

CARTESIAN COORDINATES (ANGSTROEM)
---------------------------------
  S    -32.813300   69.336000  145.942000
  C    -31.792900   68.595100  144.687000
  C    -31.140700   67.511900  145.190000
  C    -31.605100   67.153500  146.493000
  C    -32.504700   68.039700  147.022000
  H    -31.271900   66.349200  147.139000
  C    -30.259200   66.600600  144.405000
  H    -30.157700   65.672600  144.922000
  H    -29.198800   66.980000  144.279000
  C    -30.822700   66.100500  143.039000
  H    -31.025600   67.008200  142.516000
  H    -30.113400   65.531600  142.353000
  C    -32.157000   65.272300  143.128000
  H    -32.526800   65.049600  142.103000
  H    -32.014500   64.395800  143.741000
  H    -32.997600   65.775200  143.579000
  S    -34.169400   66.608500  148.666000
  C    -34.678700   67.156000  150.200000
  C    -34.398000   68.493700  150.327000
  C    -33.508300   68.931300  149.294000
  C    -33.162100   67.981800  148.335000
  H    -34.814700   69.098600  151.175000
  C    -32.992400   70.343300  149.296000
  H    -33.826800   70.979200  148.887000
  H    -32.215000   70.323800  148.639000
  C    -32.468400   70.864900  150.615000
  H    -33.354700   71.197500  151.249000
  H    -32.047500   71.847700  150.457000
  C    -31.452500   70.047200  151.403000
  H    -31.695200   69.012200  151.699000
  H    -31.268600   70.543100  152.342000
  H    -30.477300   69.981700  150.915000
  H    -31.555600   68.993700  143.672000
  H    -35.420100   66.550500  150.812000

 Total Charge           Charge          ....    0
 Multiplicity           Mult            ....    1
 Number of Electrons    NEL             ....  134
 Basis Dimension        Dim             ....  322

ORBITAL ENERGIES
----------------

  NO   OCC          E(Eh)            E(eV)
   0   2.0000     -88.968564     -2420.9577
   1   2.0000     -88.959250     -2420.7043
   2   2.0000     -10.329314      -281.0749
   3   2.0000     -10.324806      -280.9523
   4   2.0000     -10.319087      -280.7966
   5   2.0000     -10.318532      -280.7815
   6   2.0000     -10.300566      -280.2927
   7   2.0000     -10.300433      -280.2890
   8   2.0000     -10.295828      -280.1637
   9   2.0000     -10.293144      -280.0907
  10   2.0000     -10.292916      -280.0845
  11   2.0000     -10.292835      -280.0823
  12   2.0000     -10.286983      -279.9230
  13   2.0000     -10.280415      -279.7443
  14   2.0000     -10.276324      -279.6330
  15   2.0000     -10.274188      -279.5749
  16   2.0000      -8.083138      -219.9534
  17   2.0000      -8.075333      -219.7410
  18   2.0000      -6.041701      -164.4030
  19   2.0000      -6.037641      -164.2926
  20   2.0000      -6.033862      -164.1897
  21   2.0000      -6.033693      -164.1851
  22   2.0000      -6.029600      -164.0738
  23   2.0000      -6.026193      -163.9810
  24   2.0000      -1.013666       -27.5832
  25   2.0000      -0.992232       -27.0000
  26   2.0000      -0.911955       -24.8156
  27   2.0000      -0.910160       -24.7667
  28   2.0000      -0.867689       -23.6110
  29   2.0000      -0.847699       -23.0671
  30   2.0000      -0.841924       -22.9099
  31   2.0000      -0.815236       -22.1837
  32   2.0000      -0.785374       -21.3711
  33   2.0000      -0.776129       -21.1195
  34   2.0000      -0.709423       -19.3044
  35   2.0000      -0.701933       -19.1006
  36   2.0000      -0.692536       -18.8449
  37   2.0000      -0.654843       -17.8192
  38   2.0000      -0.636802       -17.3283
  39   2.0000      -0.609291       -16.5796
  40   2.0000      -0.593508       -16.1502
  41   2.0000      -0.576924       -15.6989
  42   2.0000      -0.555734       -15.1223
  43   2.0000      -0.547706       -14.9038
  44   2.0000      -0.538491       -14.6531
  45   2.0000      -0.536650       -14.6030
  46   2.0000      -0.515568       -14.0293
  47   2.0000      -0.511282       -13.9127
  48   2.0000      -0.500784       -13.6270
  49   2.0000      -0.496970       -13.5232
  50   2.0000      -0.491920       -13.3858
  51   2.0000      -0.479626       -13.0513
  52   2.0000      -0.472447       -12.8559
  53   2.0000      -0.464799       -12.6478
  54   2.0000      -0.461992       -12.5715
  55   2.0000      -0.447124       -12.1669
  56   2.0000      -0.441268       -12.0075
  57   2.0000      -0.435596       -11.8532
  58   2.0000      -0.433132       -11.7861
  59   2.0000      -0.426366       -11.6020
  60   2.0000      -0.414772       -11.2865
  61   2.0000      -0.409404       -11.1405
  62   2.0000      -0.401935       -10.9372
  63   2.0000      -0.347919        -9.4674
  64   2.0000      -0.334143        -9.0925
  65   2.0000      -0.323806        -8.8112
  66   2.0000      -0.299262        -8.1433
  67   0.0000       0.031452         0.8559
  68   0.0000       0.071015         1.9324
  69   0.0000       0.109591         2.9821
  70   0.0000       0.117650         3.2014
  71   0.0000       0.127702         3.4750

MULLIKEN ATOMIC CHARGES
-----------------------
   0 S :    0.120616
   1 C :   -0.145397
   2 C :   -0.058525
   3 C :    0.011546
   4 C :   -0.149878
   5 H :    0.015507
   6 C :    0.064954
   7 H :    0.010937
   8 H :    0.052197
   9 C :   -0.098375
  10 H :    0.011444
  11 H :    0.044189
  12 C :   -0.057821
  13 H :    0.037806
  14 H :    0.029503
  15 H :    0.035558
  16 S :    0.098813
  17 C :   -0.112972
  18 C :   -0.041206
  19 C :   -0.117666
  20 C :   -0.122177
  21 H :    0.042375
  22 C :    0.130345
  23 H :    0.049351
  24 H :   -0.010933
  25 C :   -0.093950
  26 H :    0.021824
  27 H :    0.020425
  28 C :   -0.032998
  29 H :    0.039366
  30 H :    0.023581
  31 H :    0.031161
  32 H :    0.066803
  33 H :    0.083599
Sum of atomic charges:   -0.0000000

LOEWDIN ATOMIC CHARGES
----------------------
   0 S :    0.417841
   1 C :   -0.191578
   2 C :   -0.067616
   3 C :   -0.063269
   4 C :   -0.202820
   5 H :    0.034430
   6 C :   -0.037547
   7 H :    0.023523
   8 H :    0.041879
   9 C :   -0.041745
  10 H :    0.011110
  11 H :    0.033125
  12 C :   -0.067669
  13 H :    0.031605
  14 H :    0.021530
  15 H :    0.024898
  16 S :    0.429658
  17 C :   -0.204271
  18 C :   -0.081852
  19 C :   -0.060944
  20 C :   -0.212261
  21 H :    0.042879
  22 C :   -0.034440
  23 H :    0.044788
  24 H :    0.008708
  25 C :   -0.049186
  26 H :    0.025376
  27 H :    0.026521
  28 C :   -0.068454
  29 H :    0.028278
  30 H :    0.027195
  31 H :    0.027288
  32 H :    0.039567
  33 H :    0.043451

  Mayer bond orders larger than 0.100000
B(  0-S ,  1-C ) :   1.1301 B(  0-S ,  4-C ) :   1.1495 B(  1-C ,  2-C ) :   1.6247
B(  1-C , 32-H ) :   0.9617 B(  2-C ,  3-C ) :   1.2200 B(  2-C ,  6-C ) :   1.0248
B(  3-C ,  4-C ) :   1.5831 B(  3-C ,  5-H ) :   0.9980 B(  4-C , 20-C ) :   1.0219
B(  6-C ,  7-H ) :   0.9501 B(  6-C ,  8-H ) :   0.9309 B(  6-C ,  9-C ) :   1.0618
B(  9-C , 10-H ) :   0.9571 B(  9-C , 11-H ) :   0.9589 B(  9-C , 12-C ) :   1.0687
B( 12-C , 13-H ) :   0.9750 B( 12-C , 14-H ) :   0.9776 B( 12-C , 15-H ) :   0.9759
B( 16-S , 17-C ) :   1.1879 B( 16-S , 20-C ) :   1.1498 B( 17-C , 18-C ) :   1.5616
B( 17-C , 33-H ) :   0.9588 B( 18-C , 19-C ) :   1.2591 B( 18-C , 21-H ) :   0.9890
B( 19-C , 20-C ) :   1.5684 B( 19-C , 22-C ) :   1.0419 B( 22-C , 23-H ) :   0.9256
B( 22-C , 24-H ) :   0.9236 B( 22-C , 25-C ) :   1.0885 B( 25-C , 26-H ) :   0.9482
B( 25-C , 27-H ) :   0.9482 B( 25-C , 28-C ) :   1.0799 B( 28-C , 29-H ) :   0.9723
B( 28-C , 30-H ) :   0.9695 B( 28-C , 31-H ) :   0.9731

Dispersion correction           -0.014674403
FINAL SINGLE POINT ENERGY     -1339.873753201414

DIPOLE MOMENT
-------------
                                X             Y             Z
Electronic contribution:    -10.37345      -0.24402       1.85534
Nuclear contribution   :     10.51840       0.36292      -1.81522
                        -----------------------------------------
Total Dipole Moment    :      0.14495       0.11891       0.04013
                        -----------------------------------------
Magnitude (a.u.)       :      0.19172
Magnitude (Debye)      :      0.48732

Rotational constants in cm-1:     0.025461     0.007557     0.006605
Rotational constants in MHz :   763.294114   226.558290   198.017361

                             ****ORCA TERMINATED NORMALLY****
TOTAL RUN TIME: 0 days 0 hours 0 minutes 34 seconds 24 msec
