                         Program Version 4.2.1 -  RELEASE  -
|  1> ! wB97X-D3 SP def2-SVP
|  2> %pal
|  3> nprocs 16
|  4> end
|  5>
|  6> * xyz 0 1
|  7> S 	 -41.9206 	 17.3027 	 73.2817
|  8> C 	 -40.4012 	 16.5169 	 73.1371
|  9> C 	 -39.8771 	 16.4947 	 71.8613
| 10> C 	 -40.6548 	 17.429 	 71.0616
| 11> C 	 -41.7085 	 18.0633 	 71.7321
| 12> H 	 -40.5055 	 17.6236 	 70.0035
| 13> C 	 -38.4652 	 16.0492 	 71.4718
| 14> H 	 -38.296 	 16.3092 	 70.4305
| 15> H 	 -38.5428 	 14.968 	 71.3816
| 16> C 	 -37.3409 	 16.4314 	 72.4605
| 17> H 	 -37.7275 	 16.075 	 73.4401
| 18> H 	 -36.4363 	 15.8108 	 72.2455
| 19> C 	 -36.9705 	 17.9162 	 72.4392
| 20> H 	 -37.7962 	 18.6246 	 72.4801
| 21> H 	 -36.4166 	 17.9894 	 73.3646
| 22> H 	 -36.3108 	 18.2072 	 71.6291
| 23> S 	 -43.1066 	 19.2126 	 69.6159
| 24> C 	 -44.1214 	 20.5174 	 69.8744
| 25> C 	 -43.8778 	 21.0682 	 71.0915
| 26> C 	 -42.9599 	 20.3263 	 71.9439
| 27> C 	 -42.5325 	 19.1737 	 71.3061
| 28> H 	 -44.2661 	 22.0465 	 71.3386
| 29> C 	 -42.6286 	 20.7166 	 73.3671
| 30> H 	 -42.8089 	 19.8204 	 73.9916
| 31> H 	 -43.3014 	 21.4402 	 73.7082
| 32> C 	 -41.2017 	 21.2572 	 73.6877
| 33> H 	 -40.4251 	 20.3971 	 73.5901
| 34> H 	 -41.1724 	 21.503 	 74.7523
| 35> C 	 -40.6991 	 22.3337 	 72.8106
| 36> H 	 -40.5633 	 21.9472 	 71.7802
| 37> H 	 -39.7135 	 22.6159 	 73.1577
| 38> H 	 -41.3109 	 23.2546 	 72.7431
| 39> H 	 -39.8825 	 16.1255 	 73.9534
| 40> H 	 -44.7786 	 20.8409 	 69.103
| 41> *
| 42>
| 43>                          ****END OF INPUT****

CARTESIAN COORDINATES (ANGSTROEM)
---------------------------------
  S    -41.920600   17.302700   73.281700
  C    -40.401200   16.516900   73.137100
  C    -39.877100   16.494700   71.861300
  C    -40.654800   17.429000   71.061600
  C    -41.708500   18.063300   71.732100
  H    -40.505500   17.623600   70.003500
  C    -38.465200   16.049200   71.471800
  H    -38.296000   16.309200   70.430500
  H    -38.542800   14.968000   71.381600
  C    -37.340900   16.431400   72.460500
  H    -37.727500   16.075000   73.440100
  H    -36.436300   15.810800   72.245500
  C    -36.970500   17.916200   72.439200
  H    -37.796200   18.624600   72.480100
  H    -36.416600   17.989400   73.364600
  H    -36.310800   18.207200   71.629100
  S    -43.106600   19.212600   69.615900
  C    -44.121400   20.517400   69.874400
  C    -43.877800   21.068200   71.091500
  C    -42.959900   20.326300   71.943900
  C    -42.532500   19.173700   71.306100
  H    -44.266100   22.046500   71.338600
  C    -42.628600   20.716600   73.367100
  H    -42.808900   19.820400   73.991600
  H    -43.301400   21.440200   73.708200
  C    -41.201700   21.257200   73.687700
  H    -40.425100   20.397100   73.590100
  H    -41.172400   21.503000   74.752300
  C    -40.699100   22.333700   72.810600
  H    -40.563300   21.947200   71.780200
  H    -39.713500   22.615900   73.157700
  H    -41.310900   23.254600   72.743100
  H    -39.882500   16.125500   73.953400
  H    -44.778600   20.840900   69.103000

 Total Charge           Charge          ....    0
 Multiplicity           Mult            ....    1
 Number of Electrons    NEL             ....  134
 Basis Dimension        Dim             ....  322

ORBITAL ENERGIES
----------------

  NO   OCC          E(Eh)            E(eV)
   0   2.0000     -88.965547     -2420.8756
   1   2.0000     -88.959542     -2420.7122
   2   2.0000     -10.328269      -281.0465
   3   2.0000     -10.326720      -281.0043
   4   2.0000     -10.311391      -280.5872
   5   2.0000     -10.306780      -280.4617
   6   2.0000     -10.305146      -280.4173
   7   2.0000     -10.301840      -280.3273
   8   2.0000     -10.297426      -280.2072
   9   2.0000     -10.295920      -280.1662
  10   2.0000     -10.292033      -280.0605
  11   2.0000     -10.292013      -280.0599
  12   2.0000     -10.288184      -279.9557
  13   2.0000     -10.286743      -279.9165
  14   2.0000     -10.275897      -279.6214
  15   2.0000     -10.272442      -279.5274
  16   2.0000      -8.080808      -219.8900
  17   2.0000      -8.075779      -219.7531
  18   2.0000      -6.039253      -164.3364
  19   2.0000      -6.035401      -164.2316
  20   2.0000      -6.034128      -164.1970
  21   2.0000      -6.031466      -164.1245
  22   2.0000      -6.030116      -164.0878
  23   2.0000      -6.026577      -163.9915
  24   2.0000      -1.009388       -27.4668
  25   2.0000      -0.989086       -26.9144
  26   2.0000      -0.912196       -24.8221
  27   2.0000      -0.907310       -24.6892
  28   2.0000      -0.870351       -23.6834
  29   2.0000      -0.851201       -23.1623
  30   2.0000      -0.846483       -23.0340
  31   2.0000      -0.809714       -22.0334
  32   2.0000      -0.787821       -21.4377
  33   2.0000      -0.778343       -21.1798
  34   2.0000      -0.707315       -19.2470
  35   2.0000      -0.702089       -19.1048
  36   2.0000      -0.685395       -18.6505
  37   2.0000      -0.664459       -18.0809
  38   2.0000      -0.638775       -17.3820
  39   2.0000      -0.605357       -16.4726
  40   2.0000      -0.592517       -16.1232
  41   2.0000      -0.576991       -15.7007
  42   2.0000      -0.555311       -15.1108
  43   2.0000      -0.549205       -14.9446
  44   2.0000      -0.547093       -14.8872
  45   2.0000      -0.540255       -14.7011
  46   2.0000      -0.519191       -14.1279
  47   2.0000      -0.516047       -14.0424
  48   2.0000      -0.500980       -13.6324
  49   2.0000      -0.495250       -13.4764
  50   2.0000      -0.489903       -13.3309
  51   2.0000      -0.484921       -13.1954
  52   2.0000      -0.476115       -12.9557
  53   2.0000      -0.466576       -12.6962
  54   2.0000      -0.461140       -12.5483
  55   2.0000      -0.446411       -12.1474
  56   2.0000      -0.435451       -11.8492
  57   2.0000      -0.432919       -11.7803
  58   2.0000      -0.429857       -11.6970
  59   2.0000      -0.427375       -11.6295
  60   2.0000      -0.419439       -11.4135
  61   2.0000      -0.417669       -11.3654
  62   2.0000      -0.405122       -11.0239
  63   2.0000      -0.350253        -9.5309
  64   2.0000      -0.328863        -8.9488
  65   2.0000      -0.324475        -8.8294
  66   2.0000      -0.286145        -7.7864
  67   0.0000       0.022575         0.6143
  68   0.0000       0.078776         2.1436
  69   0.0000       0.104059         2.8316
  70   0.0000       0.121203         3.2981
  71   0.0000       0.129435         3.5221

MULLIKEN ATOMIC CHARGES
-----------------------
   0 S :    0.122509
   1 C :   -0.129599
   2 C :   -0.069628
   3 C :   -0.002674
   4 C :   -0.154334
   5 H :    0.013529
   6 C :    0.076984
   7 H :    0.012328
   8 H :    0.027243
   9 C :   -0.087391
  10 H :    0.027414
  11 H :    0.038285
  12 C :   -0.033374
  13 H :    0.044737
  14 H :    0.029175
  15 H :    0.036307
  16 S :    0.095307
  17 C :   -0.069227
  18 C :   -0.029564
  19 C :   -0.060884
  20 C :   -0.146780
  21 H :    0.013423
  22 C :    0.097675
  23 H :    0.035728
  24 H :    0.001384
  25 C :   -0.096077
  26 H :    0.038806
  27 H :    0.031251
  28 C :   -0.041504
  29 H :    0.043936
  30 H :    0.026330
  31 H :    0.029003
  32 H :    0.025078
  33 H :    0.054608
Sum of atomic charges:    0.0000000

LOEWDIN ATOMIC CHARGES
----------------------
   0 S :    0.429791
   1 C :   -0.198611
   2 C :   -0.061884
   3 C :   -0.064472
   4 C :   -0.197464
   5 H :    0.025499
   6 C :   -0.036300
   7 H :    0.026398
   8 H :    0.033309
   9 C :   -0.037624
  10 H :    0.024428
  11 H :    0.031967
  12 C :   -0.064879
  13 H :    0.027961
  14 H :    0.029159
  15 H :    0.026787
  16 S :    0.416926
  17 C :   -0.194624
  18 C :   -0.077305
  19 C :   -0.050596
  20 C :   -0.191819
  21 H :    0.027947
  22 C :   -0.035029
  23 H :    0.030003
  24 H :    0.020826
  25 C :   -0.045318
  26 H :    0.032662
  27 H :    0.023722
  28 C :   -0.071519
  29 H :    0.032350
  30 H :    0.026201
  31 H :    0.022881
  32 H :    0.010915
  33 H :    0.027713

  Mayer bond orders larger than 0.100000
B(  0-S ,  1-C ) :   1.1527 B(  0-S ,  4-C ) :   1.1430 B(  1-C ,  2-C ) :   1.6037
B(  1-C , 32-H ) :   0.9710 B(  2-C ,  3-C ) :   1.2319 B(  2-C ,  6-C ) :   1.0232
B(  3-C ,  4-C ) :   1.5856 B(  3-C ,  5-H ) :   0.9880 B(  4-C , 20-C ) :   1.0661
B(  6-C ,  7-H ) :   0.9471 B(  6-C ,  8-H ) :   0.9246 B(  6-C ,  9-C ) :   1.0741
B(  9-C , 10-H ) :   0.9574 B(  9-C , 11-H ) :   0.9512 B(  9-C , 12-C ) :   1.0679
B( 12-C , 13-H ) :   0.9780 B( 12-C , 14-H ) :   0.9735 B( 12-C , 15-H ) :   0.9747
B( 16-S , 17-C ) :   1.1779 B( 16-S , 20-C ) :   1.1324 B( 17-C , 18-C ) :   1.5815
B( 17-C , 33-H ) :   0.9751 B( 18-C , 19-C ) :   1.2396 B( 18-C , 21-H ) :   0.9928
B( 19-C , 20-C ) :   1.5653 B( 19-C , 22-C ) :   1.0446 B( 22-C , 23-H ) :   0.9300
B( 22-C , 24-H ) :   0.9277 B( 22-C , 25-C ) :   1.0686 B( 25-C , 26-H ) :   0.9502
B( 25-C , 27-H ) :   0.9558 B( 25-C , 28-C ) :   1.0884 B( 28-C , 29-H ) :   0.9664
B( 28-C , 30-H ) :   0.9689 B( 28-C , 31-H ) :   0.9746

Dispersion correction           -0.015407566
FINAL SINGLE POINT ENERGY     -1339.877844939122

DIPOLE MOMENT
-------------
                                X             Y             Z
Electronic contribution:    -21.16221      -7.49566      -8.27091
Nuclear contribution   :     21.60369       7.75191       8.38361
                        -----------------------------------------
Total Dipole Moment    :      0.44148       0.25625       0.11270
                        -----------------------------------------
Magnitude (a.u.)       :      0.52276
Magnitude (Debye)      :      1.32874

Rotational constants in cm-1:     0.020154     0.008955     0.007854
Rotational constants in MHz :   604.197488   268.476656   235.468872

                             ****ORCA TERMINATED NORMALLY****
TOTAL RUN TIME: 0 days 0 hours 0 minutes 31 seconds 562 msec
