                         Program Version 4.2.1 -  RELEASE  -
|  1> ! wB97X-D3 SP def2-SVP
|  2> %pal
|  3> nprocs 16
|  4> end
|  5>
|  6> * xyz 0 1
|  7> S 	 37.5283 	 16.7881 	 78.9919
|  8> C 	 36.3947 	 16.4969 	 77.7187
|  9> C 	 35.1878 	 16.0366 	 78.1869
| 10> C 	 35.14 	 15.8989 	 79.6534
| 11> C 	 36.3406 	 16.3509 	 80.1775
| 12> H 	 34.4277 	 15.4804 	 80.3423
| 13> C 	 33.9565 	 15.8357 	 77.2994
| 14> H 	 34.2235 	 16.3543 	 76.3564
| 15> H 	 33.0522 	 16.313 	 77.7878
| 16> C 	 33.5414 	 14.3854 	 77.0312
| 17> H 	 34.3871 	 13.7801 	 76.881
| 18> H 	 33.1775 	 13.9956 	 77.961
| 19> C 	 32.5654 	 14.116 	 75.8194
| 20> H 	 32.4378 	 13.0865 	 75.5643
| 21> H 	 31.5096 	 14.4347 	 75.9584
| 22> H 	 32.9566 	 14.5761 	 74.8922
| 23> S 	 37.9814 	 15.3173 	 82.1868
| 24> C 	 37.7187 	 15.8637 	 83.8386
| 25> C 	 36.5683 	 16.601 	 84.0107
| 26> C 	 35.9138 	 16.8656 	 82.7493
| 27> C 	 36.62 	 16.3231 	 81.6394
| 28> H 	 36.2367 	 17.0366 	 85.0069
| 29> C 	 34.586 	 17.6485 	 82.6679
| 30> H 	 34.0943 	 17.2059 	 81.7817
| 31> H 	 34.7787 	 18.7209 	 82.4524
| 32> C 	 33.5409 	 17.4692 	 83.7328
| 33> H 	 33.8589 	 17.7926 	 84.7509
| 34> H 	 33.3121 	 16.4558 	 83.881
| 35> C 	 32.0781 	 17.9646 	 83.4622
| 36> H 	 31.5392 	 17.366 	 82.7605
| 37> H 	 32.0946 	 19.0386 	 83.2004
| 38> H 	 31.4403 	 17.9099 	 84.3231
| 39> H 	 36.5842 	 16.7939 	 76.7136
| 40> H 	 38.3704 	 15.7162 	 84.6917
| 41> *
| 42>
| 43>                          ****END OF INPUT****

CARTESIAN COORDINATES (ANGSTROEM)
---------------------------------
  S     37.528300   16.788100   78.991900
  C     36.394700   16.496900   77.718700
  C     35.187800   16.036600   78.186900
  C     35.140000   15.898900   79.653400
  C     36.340600   16.350900   80.177500
  H     34.427700   15.480400   80.342300
  C     33.956500   15.835700   77.299400
  H     34.223500   16.354300   76.356400
  H     33.052200   16.313000   77.787800
  C     33.541400   14.385400   77.031200
  H     34.387100   13.780100   76.881000
  H     33.177500   13.995600   77.961000
  C     32.565400   14.116000   75.819400
  H     32.437800   13.086500   75.564300
  H     31.509600   14.434700   75.958400
  H     32.956600   14.576100   74.892200
  S     37.981400   15.317300   82.186800
  C     37.718700   15.863700   83.838600
  C     36.568300   16.601000   84.010700
  C     35.913800   16.865600   82.749300
  C     36.620000   16.323100   81.639400
  H     36.236700   17.036600   85.006900
  C     34.586000   17.648500   82.667900
  H     34.094300   17.205900   81.781700
  H     34.778700   18.720900   82.452400
  C     33.540900   17.469200   83.732800
  H     33.858900   17.792600   84.750900
  H     33.312100   16.455800   83.881000
  C     32.078100   17.964600   83.462200
  H     31.539200   17.366000   82.760500
  H     32.094600   19.038600   83.200400
  H     31.440300   17.909900   84.323100
  H     36.584200   16.793900   76.713600
  H     38.370400   15.716200   84.691700

 Total Charge           Charge          ....    0
 Multiplicity           Mult            ....    1
 Number of Electrons    NEL             ....  134
 Basis Dimension        Dim             ....  322

ORBITAL ENERGIES
----------------

  NO   OCC          E(Eh)            E(eV)
   0   2.0000     -88.968596     -2420.9586
   1   2.0000     -88.968192     -2420.9476
   2   2.0000     -10.332190      -281.1532
   3   2.0000     -10.330851      -281.1167
   4   2.0000     -10.316907      -280.7373
   5   2.0000     -10.312799      -280.6255
   6   2.0000     -10.311515      -280.5906
   7   2.0000     -10.308105      -280.4978
   8   2.0000     -10.299502      -280.2637
   9   2.0000     -10.299146      -280.2540
  10   2.0000     -10.298477      -280.2358
  11   2.0000     -10.295106      -280.1441
  12   2.0000     -10.286221      -279.9023
  13   2.0000     -10.283642      -279.8321
  14   2.0000     -10.283517      -279.8287
  15   2.0000     -10.279786      -279.7272
  16   2.0000      -8.084061      -219.9785
  17   2.0000      -8.082116      -219.9256
  18   2.0000      -6.042589      -164.4272
  19   2.0000      -6.040723      -164.3764
  20   2.0000      -6.038488      -164.3156
  21   2.0000      -6.036805      -164.2698
  22   2.0000      -6.034725      -164.2132
  23   2.0000      -6.032769      -164.1600
  24   2.0000      -1.003956       -27.3190
  25   2.0000      -0.979511       -26.6538
  26   2.0000      -0.907192       -24.6860
  27   2.0000      -0.905290       -24.6342
  28   2.0000      -0.866905       -23.5897
  29   2.0000      -0.849845       -23.1254
  30   2.0000      -0.844273       -22.9738
  31   2.0000      -0.814079       -22.1522
  32   2.0000      -0.782955       -21.3053
  33   2.0000      -0.772442       -21.0192
  34   2.0000      -0.708499       -19.2792
  35   2.0000      -0.700261       -19.0551
  36   2.0000      -0.693156       -18.8617
  37   2.0000      -0.654661       -17.8142
  38   2.0000      -0.644256       -17.5311
  39   2.0000      -0.612215       -16.6592
  40   2.0000      -0.591793       -16.1035
  41   2.0000      -0.570309       -15.5189
  42   2.0000      -0.568242       -15.4627
  43   2.0000      -0.554468       -15.0878
  44   2.0000      -0.519029       -14.1235
  45   2.0000      -0.518226       -14.1017
  46   2.0000      -0.516276       -14.0486
  47   2.0000      -0.510303       -13.8860
  48   2.0000      -0.501746       -13.6532
  49   2.0000      -0.499169       -13.5831
  50   2.0000      -0.494094       -13.4450
  51   2.0000      -0.479840       -13.0571
  52   2.0000      -0.470169       -12.7940
  53   2.0000      -0.465995       -12.6804
  54   2.0000      -0.459478       -12.5030
  55   2.0000      -0.456327       -12.4173
  56   2.0000      -0.449313       -12.2264
  57   2.0000      -0.437949       -11.9172
  58   2.0000      -0.431619       -11.7450
  59   2.0000      -0.425225       -11.5710
  60   2.0000      -0.418117       -11.3775
  61   2.0000      -0.416184       -11.3249
  62   2.0000      -0.410296       -11.1647
  63   2.0000      -0.344710        -9.3800
  64   2.0000      -0.331672        -9.0253
  65   2.0000      -0.328511        -8.9392
  66   2.0000      -0.295287        -8.0352
  67   0.0000       0.031490         0.8569
  68   0.0000       0.068832         1.8730
  69   0.0000       0.109823         2.9884
  70   0.0000       0.115180         3.1342
  71   0.0000       0.130515         3.5515

MULLIKEN ATOMIC CHARGES
-----------------------
   0 S :    0.123143
   1 C :   -0.112472
   2 C :   -0.077583
   3 C :    0.037245
   4 C :   -0.167588
   5 H :    0.029319
   6 C :    0.043299
   7 H :    0.019372
   8 H :    0.044826
   9 C :   -0.036967
  10 H :    0.014825
  11 H :    0.013440
  12 C :   -0.058426
  13 H :    0.027237
  14 H :    0.034403
  15 H :    0.032286
  16 S :    0.111470
  17 C :   -0.085253
  18 C :   -0.056382
  19 C :   -0.054686
  20 C :   -0.171674
  21 H :    0.047499
  22 C :    0.097878
  23 H :    0.007223
  24 H :    0.051338
  25 C :   -0.086849
  26 H :    0.026134
  27 H :    0.014467
  28 C :   -0.050956
  29 H :    0.028604
  30 H :    0.034068
  31 H :    0.024249
  32 H :    0.042387
  33 H :    0.054121
Sum of atomic charges:   -0.0000000

LOEWDIN ATOMIC CHARGES
----------------------
   0 S :    0.419731
   1 C :   -0.200102
   2 C :   -0.056426
   3 C :   -0.058348
   4 C :   -0.198250
   5 H :    0.033740
   6 C :   -0.033893
   7 H :    0.028781
   8 H :    0.038384
   9 C :   -0.039759
  10 H :    0.018589
  11 H :    0.020015
  12 C :   -0.069454
  13 H :    0.023725
  14 H :    0.027212
  15 H :    0.027679
  16 S :    0.392458
  17 C :   -0.185600
  18 C :   -0.079855
  19 C :   -0.052352
  20 C :   -0.195613
  21 H :    0.045089
  22 C :   -0.038082
  23 H :    0.033485
  24 H :    0.038405
  25 C :   -0.047123
  26 H :    0.020870
  27 H :    0.020221
  28 C :   -0.060746
  29 H :    0.020651
  30 H :    0.025768
  31 H :    0.026757
  32 H :    0.023862
  33 H :    0.030181

  Mayer bond orders larger than 0.100000
B(  0-S ,  1-C ) :   1.1257 B(  0-S ,  4-C ) :   1.1625 B(  1-C ,  2-C ) :   1.6432
B(  1-C , 32-H ) :   0.9690 B(  2-C ,  3-C ) :   1.1897 B(  2-C ,  6-C ) :   1.0301
B(  3-C ,  4-C ) :   1.6005 B(  3-C ,  5-H ) :   0.9856 B(  4-C , 20-C ) :   1.0186
B(  6-C ,  7-H ) :   0.9429 B(  6-C ,  8-H ) :   0.9449 B(  6-C ,  9-C ) :   1.0544
B(  9-C , 10-H ) :   0.9562 B(  9-C , 11-H ) :   0.9541 B(  9-C , 12-C ) :   1.0758
B( 12-C , 13-H ) :   0.9765 B( 12-C , 14-H ) :   0.9776 B( 12-C , 15-H ) :   0.9760
B( 16-S , 17-C ) :   1.1457 B( 16-S , 20-C ) :   1.1397 B( 17-C , 18-C ) :   1.6304
B( 17-C , 33-H ) :   0.9619 B( 18-C , 19-C ) :   1.2420 B( 18-C , 21-H ) :   0.9752
B( 19-C , 20-C ) :   1.6092 B( 19-C , 22-C ) :   1.0293 B( 22-C , 23-H ) :   0.9337
B( 22-C , 24-H ) :   0.9275 B( 22-C , 25-C ) :   1.0696 B( 25-C , 26-H ) :   0.9491
B( 25-C , 27-H ) :   0.9557 B( 25-C , 28-C ) :   1.0848 B( 28-C , 29-H ) :   0.9771
B( 28-C , 30-H ) :   0.9768 B( 28-C , 31-H ) :   0.9722

Dispersion correction           -0.013345786
FINAL SINGLE POINT ENERGY     -1339.870002740874

DIPOLE MOMENT
-------------
                                X             Y             Z
Electronic contribution:     30.24789      -0.17427       4.44867
Nuclear contribution   :    -30.88399       0.18866      -4.40295
                        -----------------------------------------
Total Dipole Moment    :     -0.63610       0.01440       0.04572
                        -----------------------------------------
Magnitude (a.u.)       :      0.63790
Magnitude (Debye)      :      1.62142

Rotational constants in cm-1:     0.016398     0.008091     0.006091
Rotational constants in MHz :   491.614106   242.562772   182.594767

                             ****ORCA TERMINATED NORMALLY****
TOTAL RUN TIME: 0 days 0 hours 0 minutes 28 seconds 544 msec
