                         Program Version 4.2.1 -  RELEASE  -
|  1> ! wB97X-D3 SP def2-SVP
|  2> %pal
|  3> nprocs 16
|  4> end
|  5>
|  6> * xyz 0 1
|  7> S 	 1.38985 	 -28.1339 	 83.7696
|  8> C 	 0.924604 	 -29.826 	 83.7371
|  9> C 	 0.712187 	 -30.3103 	 85.0293
| 10> C 	 1.12848 	 -29.3875 	 86.0681
| 11> C 	 1.43739 	 -28.1076 	 85.5444
| 12> H 	 1.24385 	 -29.6054 	 87.0806
| 13> C 	 0.177223 	 -31.6726 	 85.4415
| 14> H 	 -0.285849 	 -31.9736 	 84.4926
| 15> H 	 -0.587172 	 -31.534 	 86.2622
| 16> C 	 1.17307 	 -32.8121 	 85.792
| 17> H 	 0.58234 	 -33.7258 	 86.0731
| 18> H 	 1.68223 	 -33.0619 	 84.8544
| 19> C 	 2.24335 	 -32.4282 	 86.835
| 20> H 	 2.80256 	 -31.4759 	 86.5065
| 21> H 	 1.75954 	 -32.0828 	 87.7517
| 22> H 	 3.03527 	 -33.226 	 86.9496
| 23> S 	 3.54478 	 -26.4352 	 86.3974
| 24> C 	 3.12665 	 -25.3805 	 87.7089
| 25> C 	 1.83071 	 -25.3456 	 87.9915
| 26> C 	 1.05537 	 -26.2621 	 87.2425
| 27> C 	 1.83481 	 -26.9908 	 86.3793
| 28> H 	 1.40941 	 -24.6775 	 88.732
| 29> C 	 -0.309049 	 -26.6134 	 87.6828
| 30> H 	 -0.560101 	 -26.0161 	 88.5701
| 31> H 	 -0.223719 	 -27.674 	 87.8783
| 32> C 	 -1.42969 	 -26.4434 	 86.6417
| 33> H 	 -1.23786 	 -26.8876 	 85.6697
| 34> H 	 -1.45871 	 -25.2853 	 86.501
| 35> C 	 -2.7213 	 -26.9574 	 87.1725
| 36> H 	 -2.56862 	 -27.9115 	 87.6223
| 37> H 	 -3.46855 	 -26.8952 	 86.3872
| 38> H 	 -3.06178 	 -26.3399 	 87.9722
| 39> H 	 0.505894 	 -30.3843 	 82.8917
| 40> H 	 3.76639 	 -24.7987 	 88.3006
| 41> *
| 42>
| 43>                          ****END OF INPUT****

CARTESIAN COORDINATES (ANGSTROEM)
---------------------------------
  S      1.389850  -28.133900   83.769600
  C      0.924604  -29.826000   83.737100
  C      0.712187  -30.310300   85.029300
  C      1.128480  -29.387500   86.068100
  C      1.437390  -28.107600   85.544400
  H      1.243850  -29.605400   87.080600
  C      0.177223  -31.672600   85.441500
  H     -0.285849  -31.973600   84.492600
  H     -0.587172  -31.534000   86.262200
  C      1.173070  -32.812100   85.792000
  H      0.582340  -33.725800   86.073100
  H      1.682230  -33.061900   84.854400
  C      2.243350  -32.428200   86.835000
  H      2.802560  -31.475900   86.506500
  H      1.759540  -32.082800   87.751700
  H      3.035270  -33.226000   86.949600
  S      3.544780  -26.435200   86.397400
  C      3.126650  -25.380500   87.708900
  C      1.830710  -25.345600   87.991500
  C      1.055370  -26.262100   87.242500
  C      1.834810  -26.990800   86.379300
  H      1.409410  -24.677500   88.732000
  C     -0.309049  -26.613400   87.682800
  H     -0.560101  -26.016100   88.570100
  H     -0.223719  -27.674000   87.878300
  C     -1.429690  -26.443400   86.641700
  H     -1.237860  -26.887600   85.669700
  H     -1.458710  -25.285300   86.501000
  C     -2.721300  -26.957400   87.172500
  H     -2.568620  -27.911500   87.622300
  H     -3.468550  -26.895200   86.387200
  H     -3.061780  -26.339900   87.972200
  H      0.505894  -30.384300   82.891700
  H      3.766390  -24.798700   88.300600

 Total Charge           Charge          ....    0
 Multiplicity           Mult            ....    1
 Number of Electrons    NEL             ....  134
 Basis Dimension        Dim             ....  322

ORBITAL ENERGIES
----------------

  NO   OCC          E(Eh)            E(eV)
   0   2.0000     -88.971359     -2421.0338
   1   2.0000     -88.965333     -2420.8698
   2   2.0000     -10.334057      -281.2040
   3   2.0000     -10.322970      -280.9023
   4   2.0000     -10.319032      -280.7951
   5   2.0000     -10.306836      -280.4633
   6   2.0000     -10.304917      -280.4110
   7   2.0000     -10.298606      -280.2393
   8   2.0000     -10.295260      -280.1483
   9   2.0000     -10.294919      -280.1390
  10   2.0000     -10.294193      -280.1192
  11   2.0000     -10.287612      -279.9402
  12   2.0000     -10.287131      -279.9271
  13   2.0000     -10.283698      -279.8337
  14   2.0000     -10.283381      -279.8250
  15   2.0000     -10.266891      -279.3763
  16   2.0000      -8.084980      -220.0035
  17   2.0000      -8.079806      -219.8627
  18   2.0000      -6.043621      -164.4553
  19   2.0000      -6.039588      -164.3456
  20   2.0000      -6.038315      -164.3109
  21   2.0000      -6.035715      -164.2401
  22   2.0000      -6.034584      -164.2094
  23   2.0000      -6.030351      -164.0942
  24   2.0000      -1.005797       -27.3691
  25   2.0000      -0.981961       -26.7205
  26   2.0000      -0.915702       -24.9175
  27   2.0000      -0.906643       -24.6710
  28   2.0000      -0.870395       -23.6846
  29   2.0000      -0.858055       -23.3489
  30   2.0000      -0.842410       -22.9231
  31   2.0000      -0.815574       -22.1929
  32   2.0000      -0.782632       -21.2965
  33   2.0000      -0.769229       -20.9318
  34   2.0000      -0.709840       -19.3157
  35   2.0000      -0.696450       -18.9514
  36   2.0000      -0.687408       -18.7053
  37   2.0000      -0.662907       -18.0386
  38   2.0000      -0.640792       -17.4368
  39   2.0000      -0.609733       -16.5917
  40   2.0000      -0.596767       -16.2389
  41   2.0000      -0.573064       -15.5939
  42   2.0000      -0.570791       -15.5320
  43   2.0000      -0.544433       -14.8148
  44   2.0000      -0.536840       -14.6082
  45   2.0000      -0.531858       -14.4726
  46   2.0000      -0.517793       -14.0899
  47   2.0000      -0.513590       -13.9755
  48   2.0000      -0.502642       -13.6776
  49   2.0000      -0.499827       -13.6010
  50   2.0000      -0.489668       -13.3245
  51   2.0000      -0.479652       -13.0520
  52   2.0000      -0.473101       -12.8737
  53   2.0000      -0.466970       -12.7069
  54   2.0000      -0.458238       -12.4693
  55   2.0000      -0.448409       -12.2018
  56   2.0000      -0.438013       -11.9189
  57   2.0000      -0.436652       -11.8819
  58   2.0000      -0.430030       -11.7017
  59   2.0000      -0.425973       -11.5913
  60   2.0000      -0.416949       -11.3458
  61   2.0000      -0.414612       -11.2822
  62   2.0000      -0.412119       -11.2143
  63   2.0000      -0.339369        -9.2347
  64   2.0000      -0.329850        -8.9757
  65   2.0000      -0.326405        -8.8819
  66   2.0000      -0.300264        -8.1706
  67   0.0000       0.035539         0.9671
  68   0.0000       0.054232         1.4757
  69   0.0000       0.105822         2.8796
  70   0.0000       0.118074         3.2130
  71   0.0000       0.128532         3.4975

MULLIKEN ATOMIC CHARGES
-----------------------
   0 S :    0.121476
   1 C :   -0.114589
   2 C :   -0.117157
   3 C :    0.045354
   4 C :   -0.172531
   5 H :    0.001648
   6 C :    0.032879
   7 H :    0.018107
   8 H :    0.048510
   9 C :   -0.052176
  10 H :    0.043440
  11 H :    0.025051
  12 C :   -0.103330
  13 H :    0.054584
  14 H :    0.032021
  15 H :    0.055487
  16 S :    0.114018
  17 C :   -0.041587
  18 C :   -0.046396
  19 C :    0.005981
  20 C :   -0.192645
  21 H :    0.012861
  22 C :    0.069971
  23 H :    0.020090
  24 H :    0.020030
  25 C :   -0.127358
  26 H :    0.043459
  27 H :    0.030987
  28 C :    0.027594
  29 H :    0.016018
  30 H :    0.034821
  31 H :    0.008095
  32 H :    0.059302
  33 H :    0.025983
Sum of atomic charges:    0.0000000

LOEWDIN ATOMIC CHARGES
----------------------
   0 S :    0.400346
   1 C :   -0.210019
   2 C :   -0.062399
   3 C :   -0.052265
   4 C :   -0.186336
   5 H :    0.019676
   6 C :   -0.040047
   7 H :    0.031709
   8 H :    0.036241
   9 C :   -0.043055
  10 H :    0.030404
  11 H :    0.024212
  12 C :   -0.082046
  13 H :    0.037604
  14 H :    0.020197
  15 H :    0.034745
  16 S :    0.388018
  17 C :   -0.172531
  18 C :   -0.074314
  19 C :   -0.048036
  20 C :   -0.193311
  21 H :    0.031754
  22 C :   -0.030861
  23 H :    0.031767
  24 H :    0.030971
  25 C :   -0.041851
  26 H :    0.022442
  27 H :    0.029653
  28 C :   -0.059341
  29 H :    0.021097
  30 H :    0.028876
  31 H :    0.020229
  32 H :    0.034998
  33 H :    0.021474

  Mayer bond orders larger than 0.100000
B(  0-S ,  1-C ) :   1.1287 B(  0-S ,  4-C ) :   1.1421 B(  1-C ,  2-C ) :   1.6322
B(  1-C , 32-H ) :   0.9552 B(  2-C ,  3-C ) :   1.2179 B(  2-C ,  6-C ) :   1.0177
B(  3-C ,  4-C ) :   1.5741 B(  3-C ,  5-H ) :   0.9925 B(  4-C , 20-C ) :   1.0508
B(  6-C ,  7-H ) :   0.9368 B(  6-C ,  8-H ) :   0.9453 B(  6-C ,  9-C ) :   1.0715
B(  9-C , 10-H ) :   0.9547 B(  9-C , 11-H ) :   0.9528 B(  9-C , 12-C ) :   1.0807
B( 12-C , 13-H ) :   0.9652 B( 12-C , 14-H ) :   0.9738 B( 12-C , 15-H ) :   0.9723
B( 16-S , 17-C ) :   1.1395 B( 16-S , 20-C ) :   1.1119 B( 17-C , 18-C ) :   1.6578
B( 17-C , 33-H ) :   0.9620 B( 18-C , 19-C ) :   1.2246 B( 18-C , 21-H ) :   0.9871
B( 19-C , 20-C ) :   1.6237 B( 19-C , 22-C ) :   1.0417 B( 22-C , 23-H ) :   0.9374
B( 22-C , 24-H ) :   0.9241 B( 22-C , 25-C ) :   1.0572 B( 25-C , 26-H ) :   0.9586
B( 25-C , 27-H ) :   0.9523 B( 25-C , 28-C ) :   1.0898 B( 28-C , 29-H ) :   0.9688
B( 28-C , 30-H ) :   0.9709 B( 28-C , 31-H ) :   0.9664

Dispersion correction           -0.015120586
FINAL SINGLE POINT ENERGY     -1339.870055932795

DIPOLE MOMENT
-------------
                                X             Y             Z
Electronic contribution:     16.48220      14.60562     -10.15612
Nuclear contribution   :    -16.89945     -14.86915      10.62801
                        -----------------------------------------
Total Dipole Moment    :     -0.41725      -0.26353       0.47189
                        -----------------------------------------
Magnitude (a.u.)       :      0.68280
Magnitude (Debye)      :      1.73555

Rotational constants in cm-1:     0.016991     0.009358     0.007997
Rotational constants in MHz :   509.387401   280.541102   239.743943

                             ****ORCA TERMINATED NORMALLY****
TOTAL RUN TIME: 0 days 0 hours 0 minutes 35 seconds 747 msec
