                         Program Version 4.2.1 -  RELEASE  -
|  1> ! wB97X-D3 SP def2-SVP
|  2> %pal
|  3> nprocs 16
|  4> end
|  5>
|  6> * xyz 0 1
|  7> S 	 48.79 	 4.52261 	 89.3957
|  8> C 	 47.8232 	 5.9189 	 88.9118
|  9> C 	 46.5516 	 5.59362 	 88.4497
| 10> C 	 46.3761 	 4.1352 	 88.46
| 11> C 	 47.4251 	 3.44254 	 89.0491
| 12> H 	 45.4722 	 3.58082 	 88.2591
| 13> C 	 45.4116 	 6.54998 	 88.0485
| 14> H 	 45.8235 	 7.07849 	 87.2095
| 15> H 	 45.4344 	 7.23592 	 88.9179
| 16> C 	 44.0034 	 5.93963 	 87.8406
| 17> H 	 44.0182 	 5.08103 	 87.1682
| 18> H 	 43.7058 	 5.35121 	 88.6474
| 19> C 	 42.969 	 6.98894 	 87.5627
| 20> H 	 43.1734 	 7.27327 	 86.5567
| 21> H 	 41.9121 	 6.78353 	 87.6896
| 22> H 	 43.2175 	 7.87235 	 88.1415
| 23> S 	 46.4662 	 1.30535 	 90.4498
| 24> C 	 47.0653 	 -0.307501 	 90.0522
| 25> C 	 48.155 	 -0.315696 	 89.1953
| 26> C 	 48.4333 	 1.0268 	 88.7043
| 27> C 	 47.6177 	 2.04309 	 89.3193
| 28> H 	 48.7227 	 -1.21487 	 88.8157
| 29> C 	 49.5084 	 1.30083 	 87.6475
| 30> H 	 49.3044 	 2.32006 	 87.2645
| 31> H 	 49.2584 	 0.713937 	 86.7509
| 32> C 	 50.887 	 0.924876 	 87.9756
| 33> H 	 50.9328 	 -0.0626282 	 88.4098
| 34> H 	 51.2017 	 1.56743 	 88.7989
| 35> C 	 51.797 	 0.969327 	 86.7529
| 36> H 	 51.4465 	 0.350088 	 85.9395
| 37> H 	 52.8027 	 0.531136 	 86.9816
| 38> H 	 51.9034 	 1.99801 	 86.4149
| 39> H 	 48.029 	 6.92158 	 89.2584
| 40> H 	 46.7649 	 -1.17056 	 90.5285
| 41> *
| 42>
| 43>                          ****END OF INPUT****

CARTESIAN COORDINATES (ANGSTROEM)
---------------------------------
  S     48.790000    4.522610   89.395700
  C     47.823200    5.918900   88.911800
  C     46.551600    5.593620   88.449700
  C     46.376100    4.135200   88.460000
  C     47.425100    3.442540   89.049100
  H     45.472200    3.580820   88.259100
  C     45.411600    6.549980   88.048500
  H     45.823500    7.078490   87.209500
  H     45.434400    7.235920   88.917900
  C     44.003400    5.939630   87.840600
  H     44.018200    5.081030   87.168200
  H     43.705800    5.351210   88.647400
  C     42.969000    6.988940   87.562700
  H     43.173400    7.273270   86.556700
  H     41.912100    6.783530   87.689600
  H     43.217500    7.872350   88.141500
  S     46.466200    1.305350   90.449800
  C     47.065300   -0.307501   90.052200
  C     48.155000   -0.315696   89.195300
  C     48.433300    1.026800   88.704300
  C     47.617700    2.043090   89.319300
  H     48.722700   -1.214870   88.815700
  C     49.508400    1.300830   87.647500
  H     49.304400    2.320060   87.264500
  H     49.258400    0.713937   86.750900
  C     50.887000    0.924876   87.975600
  H     50.932800   -0.062628   88.409800
  H     51.201700    1.567430   88.798900
  C     51.797000    0.969327   86.752900
  H     51.446500    0.350088   85.939500
  H     52.802700    0.531136   86.981600
  H     51.903400    1.998010   86.414900
  H     48.029000    6.921580   89.258400
  H     46.764900   -1.170560   90.528500

 Total Charge           Charge          ....    0
 Multiplicity           Mult            ....    1
 Number of Electrons    NEL             ....  134
 Basis Dimension        Dim             ....  322

ORBITAL ENERGIES
----------------

  NO   OCC          E(Eh)            E(eV)
   0   2.0000     -88.968250     -2420.9492
   1   2.0000     -88.964637     -2420.8508
   2   2.0000     -10.330338      -281.1028
   3   2.0000     -10.330050      -281.0949
   4   2.0000     -10.316306      -280.7210
   5   2.0000     -10.313030      -280.6318
   6   2.0000     -10.311030      -280.5774
   7   2.0000     -10.309838      -280.5450
   8   2.0000     -10.303119      -280.3621
   9   2.0000     -10.300750      -280.2977
  10   2.0000     -10.298234      -280.2292
  11   2.0000     -10.285558      -279.8843
  12   2.0000     -10.285277      -279.8766
  13   2.0000     -10.278924      -279.7037
  14   2.0000     -10.278312      -279.6871
  15   2.0000     -10.275147      -279.6010
  16   2.0000      -8.082109      -219.9254
  17   2.0000      -8.078588      -219.8296
  18   2.0000      -6.040683      -164.3753
  19   2.0000      -6.037187      -164.2802
  20   2.0000      -6.036713      -164.2673
  21   2.0000      -6.033240      -164.1728
  22   2.0000      -6.032895      -164.1634
  23   2.0000      -6.029265      -164.0647
  24   2.0000      -0.997077       -27.1318
  25   2.0000      -0.973289       -26.4845
  26   2.0000      -0.915569       -24.9139
  27   2.0000      -0.914656       -24.8890
  28   2.0000      -0.871877       -23.7250
  29   2.0000      -0.848547       -23.0901
  30   2.0000      -0.842823       -22.9344
  31   2.0000      -0.813420       -22.1343
  32   2.0000      -0.782855       -21.3026
  33   2.0000      -0.767525       -20.8854
  34   2.0000      -0.722055       -19.6481
  35   2.0000      -0.701735       -19.0952
  36   2.0000      -0.693102       -18.8603
  37   2.0000      -0.659161       -17.9367
  38   2.0000      -0.637266       -17.3409
  39   2.0000      -0.613017       -16.6810
  40   2.0000      -0.597485       -16.2584
  41   2.0000      -0.569710       -15.5026
  42   2.0000      -0.564836       -15.3700
  43   2.0000      -0.563486       -15.3332
  44   2.0000      -0.534095       -14.5335
  45   2.0000      -0.526334       -14.3223
  46   2.0000      -0.512564       -13.9476
  47   2.0000      -0.506827       -13.7915
  48   2.0000      -0.505313       -13.7503
  49   2.0000      -0.504343       -13.7239
  50   2.0000      -0.489753       -13.3269
  51   2.0000      -0.473879       -12.8949
  52   2.0000      -0.471448       -12.8287
  53   2.0000      -0.460021       -12.5178
  54   2.0000      -0.457175       -12.4404
  55   2.0000      -0.454265       -12.3612
  56   2.0000      -0.445125       -12.1125
  57   2.0000      -0.440181       -11.9779
  58   2.0000      -0.439414       -11.9571
  59   2.0000      -0.425907       -11.5895
  60   2.0000      -0.418283       -11.3821
  61   2.0000      -0.411969       -11.2103
  62   2.0000      -0.408501       -11.1159
  63   2.0000      -0.337655        -9.1880
  64   2.0000      -0.333559        -9.0766
  65   2.0000      -0.325171        -8.8484
  66   2.0000      -0.292929        -7.9710
  67   0.0000       0.033336         0.9071
  68   0.0000       0.056902         1.5484
  69   0.0000       0.106283         2.8921
  70   0.0000       0.111614         3.0372
  71   0.0000       0.124609         3.3908

MULLIKEN ATOMIC CHARGES
-----------------------
   0 S :    0.103883
   1 C :   -0.117354
   2 C :   -0.124979
   3 C :    0.047227
   4 C :   -0.191331
   5 H :    0.011144
   6 C :    0.056617
   7 H :    0.045504
   8 H :    0.040624
   9 C :   -0.062851
  10 H :    0.024958
  11 H :    0.005200
  12 C :    0.004199
  13 H :    0.018511
  14 H :    0.042470
  15 H :    0.020499
  16 S :    0.107034
  17 C :   -0.058154
  18 C :   -0.042018
  19 C :   -0.043427
  20 C :   -0.158917
  21 H :    0.048430
  22 C :    0.053627
  23 H :    0.028119
  24 H :    0.012477
  25 C :   -0.046114
  26 H :    0.015822
  27 H :    0.025362
  28 C :   -0.045755
  29 H :    0.026129
  30 H :    0.036026
  31 H :    0.038774
  32 H :    0.047556
  33 H :    0.030710
Sum of atomic charges:    0.0000000

LOEWDIN ATOMIC CHARGES
----------------------
   0 S :    0.391580
   1 C :   -0.204561
   2 C :   -0.051266
   3 C :   -0.064314
   4 C :   -0.189965
   5 H :    0.029183
   6 C :   -0.027270
   7 H :    0.034369
   8 H :    0.039948
   9 C :   -0.046830
  10 H :    0.025451
  11 H :    0.017477
  12 C :   -0.058526
  13 H :    0.024326
  14 H :    0.029103
  15 H :    0.027174
  16 S :    0.398250
  17 C :   -0.168368
  18 C :   -0.073643
  19 C :   -0.043685
  20 C :   -0.209228
  21 H :    0.044379
  22 C :   -0.044128
  23 H :    0.030732
  24 H :    0.030365
  25 C :   -0.044772
  26 H :    0.021647
  27 H :    0.026197
  28 C :   -0.062183
  29 H :    0.022540
  30 H :    0.031245
  31 H :    0.027460
  32 H :    0.025116
  33 H :    0.012195

  Mayer bond orders larger than 0.100000
B(  0-S ,  1-C ) :   1.1285 B(  0-S ,  4-C ) :   1.1392 B(  1-C ,  2-C ) :   1.6551
B(  1-C , 32-H ) :   0.9646 B(  2-C ,  3-C ) :   1.2104 B(  2-C ,  6-C ) :   0.9825
B(  3-C ,  4-C ) :   1.6145 B(  3-C ,  5-H ) :   0.9844 B(  4-C , 20-C ) :   1.0165
B(  6-C ,  7-H ) :   0.9417 B(  6-C ,  8-H ) :   0.9380 B(  6-C ,  9-C ) :   1.0769
B(  9-C , 10-H ) :   0.9454 B(  9-C , 11-H ) :   0.9466 B(  9-C , 12-C ) :   1.0720
B( 12-C , 13-H ) :   0.9742 B( 12-C , 14-H ) :   0.9745 B( 12-C , 15-H ) :   0.9713
B( 16-S , 17-C ) :   1.1566 B( 16-S , 20-C ) :   1.1300 B( 17-C , 18-C ) :   1.6100
B( 17-C , 33-H ) :   0.9721 B( 18-C , 19-C ) :   1.2452 B( 18-C , 21-H ) :   0.9742
B( 19-C , 20-C ) :   1.5792 B( 19-C , 22-C ) :   1.0478 B( 22-C , 23-H ) :   0.9302
B( 22-C , 24-H ) :   0.9283 B( 22-C , 25-C ) :   1.0613 B( 25-C , 26-H ) :   0.9509
B( 25-C , 27-H ) :   0.9470 B( 25-C , 28-C ) :   1.0838 B( 28-C , 29-H ) :   0.9728
B( 28-C , 30-H ) :   0.9734 B( 28-C , 31-H ) :   0.9758

Dispersion correction           -0.013721947
FINAL SINGLE POINT ENERGY     -1339.864361565166

DIPOLE MOMENT
-------------
                                X             Y             Z
Electronic contribution:      1.18221      -5.74765      14.89051
Nuclear contribution   :     -1.40464       5.73828     -15.17155
                        -----------------------------------------
Total Dipole Moment    :     -0.22243      -0.00937      -0.28104
                        -----------------------------------------
Magnitude (a.u.)       :      0.35853
Magnitude (Debye)      :      0.91132

Rotational constants in cm-1:     0.020246     0.007407     0.006173
Rotational constants in MHz :   606.971587   222.054903   185.061027

                             ****ORCA TERMINATED NORMALLY****
TOTAL RUN TIME: 0 days 0 hours 0 minutes 29 seconds 141 msec
