                         Program Version 4.2.1 -  RELEASE  -
|  1> ! wB97X-D3 SP def2-SVP
|  2> %pal
|  3> nprocs 16
|  4> end
|  5>
|  6> * xyz 0 1
|  7> S 	 -38.6979 	 40.8726 	 95.2049
|  8> C 	 -38.8504 	 41.5578 	 96.7803
|  9> C 	 -37.6378 	 41.5977 	 97.4727
| 10> C 	 -36.5877 	 41.1219 	 96.6758
| 11> C 	 -36.9594 	 40.8267 	 95.4142
| 12> H 	 -35.5916 	 41.1334 	 97.088
| 13> C 	 -37.3801 	 42.2253 	 98.8741
| 14> H 	 -36.3599 	 42.5919 	 98.9771
| 15> H 	 -37.5165 	 41.4339 	 99.6127
| 16> C 	 -38.4022 	 43.2726 	 99.3109
| 17> H 	 -38.3543 	 44.0801 	 98.6666
| 18> H 	 -39.3168 	 42.7377 	 99.217
| 19> C 	 -38.2981 	 43.7641 	 100.729
| 20> H 	 -37.5158 	 44.4449 	 101.032
| 21> H 	 -39.1338 	 44.3704 	 100.992
| 22> H 	 -38.4098 	 42.9979 	 101.539
| 23> S 	 -35.4026 	 41.8695 	 93.3186
| 24> C 	 -34.6072 	 40.7286 	 92.3164
| 25> C 	 -34.8688 	 39.4155 	 92.663
| 26> C 	 -35.809 	 39.2754 	 93.7538
| 27> C 	 -36.0499 	 40.5435 	 94.3095
| 28> H 	 -34.4367 	 38.5887 	 92.0736
| 29> C 	 -36.2677 	 37.9969 	 94.4395
| 30> H 	 -36.8445 	 38.1524 	 95.3095
| 31> H 	 -35.3826 	 37.5478 	 94.9546
| 32> C 	 -37.022 	 37.0534 	 93.5344
| 33> H 	 -36.5038 	 36.9333 	 92.5903
| 34> H 	 -37.9406 	 37.445 	 93.1891
| 35> C 	 -37.2352 	 35.683 	 94.25
| 36> H 	 -37.9125 	 35.0361 	 93.6236
| 37> H 	 -37.8387 	 35.8523 	 95.1666
| 38> H 	 -36.3577 	 35.1738 	 94.6558
| 39> H 	 -39.8458 	 41.8156 	 97.1899
| 40> H 	 -33.8984 	 40.927 	 91.5128
| 41> *
| 42>
| 43>                          ****END OF INPUT****

CARTESIAN COORDINATES (ANGSTROEM)
---------------------------------
  S    -38.697900   40.872600   95.204900
  C    -38.850400   41.557800   96.780300
  C    -37.637800   41.597700   97.472700
  C    -36.587700   41.121900   96.675800
  C    -36.959400   40.826700   95.414200
  H    -35.591600   41.133400   97.088000
  C    -37.380100   42.225300   98.874100
  H    -36.359900   42.591900   98.977100
  H    -37.516500   41.433900   99.612700
  C    -38.402200   43.272600   99.310900
  H    -38.354300   44.080100   98.666600
  H    -39.316800   42.737700   99.217000
  C    -38.298100   43.764100  100.729000
  H    -37.515800   44.444900  101.032000
  H    -39.133800   44.370400  100.992000
  H    -38.409800   42.997900  101.539000
  S    -35.402600   41.869500   93.318600
  C    -34.607200   40.728600   92.316400
  C    -34.868800   39.415500   92.663000
  C    -35.809000   39.275400   93.753800
  C    -36.049900   40.543500   94.309500
  H    -34.436700   38.588700   92.073600
  C    -36.267700   37.996900   94.439500
  H    -36.844500   38.152400   95.309500
  H    -35.382600   37.547800   94.954600
  C    -37.022000   37.053400   93.534400
  H    -36.503800   36.933300   92.590300
  H    -37.940600   37.445000   93.189100
  C    -37.235200   35.683000   94.250000
  H    -37.912500   35.036100   93.623600
  H    -37.838700   35.852300   95.166600
  H    -36.357700   35.173800   94.655800
  H    -39.845800   41.815600   97.189900
  H    -33.898400   40.927000   91.512800

 Total Charge           Charge          ....    0
 Multiplicity           Mult            ....    1
 Number of Electrons    NEL             ....  134
 Basis Dimension        Dim             ....  322

ORBITAL ENERGIES
----------------

  NO   OCC          E(Eh)            E(eV)
   0   2.0000     -88.966517     -2420.9020
   1   2.0000     -88.965764     -2420.8815
   2   2.0000     -10.321503      -280.8624
   3   2.0000     -10.320343      -280.8308
   4   2.0000     -10.314220      -280.6642
   5   2.0000     -10.313903      -280.6556
   6   2.0000     -10.304882      -280.4101
   7   2.0000     -10.298838      -280.2456
   8   2.0000     -10.294735      -280.1340
   9   2.0000     -10.292133      -280.0632
  10   2.0000     -10.287184      -279.9285
  11   2.0000     -10.285889      -279.8933
  12   2.0000     -10.283664      -279.8327
  13   2.0000     -10.281545      -279.7751
  14   2.0000     -10.278514      -279.6926
  15   2.0000     -10.276185      -279.6292
  16   2.0000      -8.081220      -219.9012
  17   2.0000      -8.080915      -219.8929
  18   2.0000      -6.039611      -164.3462
  19   2.0000      -6.039240      -164.3361
  20   2.0000      -6.035810      -164.2427
  21   2.0000      -6.035486      -164.2339
  22   2.0000      -6.032037      -164.1401
  23   2.0000      -6.031724      -164.1316
  24   2.0000      -1.007003       -27.4020
  25   2.0000      -0.983505       -26.7625
  26   2.0000      -0.913817       -24.8662
  27   2.0000      -0.909267       -24.7424
  28   2.0000      -0.865047       -23.5391
  29   2.0000      -0.855476       -23.2787
  30   2.0000      -0.845439       -23.0056
  31   2.0000      -0.810960       -22.0674
  32   2.0000      -0.783686       -21.3252
  33   2.0000      -0.767201       -20.8766
  34   2.0000      -0.710672       -19.3384
  35   2.0000      -0.707373       -19.2486
  36   2.0000      -0.691446       -18.8152
  37   2.0000      -0.648598       -17.6493
  38   2.0000      -0.641285       -17.4502
  39   2.0000      -0.619775       -16.8649
  40   2.0000      -0.599711       -16.3190
  41   2.0000      -0.580830       -15.8052
  42   2.0000      -0.561584       -15.2815
  43   2.0000      -0.554452       -15.0874
  44   2.0000      -0.526335       -14.3223
  45   2.0000      -0.515774       -14.0349
  46   2.0000      -0.512543       -13.9470
  47   2.0000      -0.508860       -13.8468
  48   2.0000      -0.502088       -13.6625
  49   2.0000      -0.496568       -13.5123
  50   2.0000      -0.490333       -13.3426
  51   2.0000      -0.474230       -12.9045
  52   2.0000      -0.470510       -12.8032
  53   2.0000      -0.462818       -12.5939
  54   2.0000      -0.458100       -12.4655
  55   2.0000      -0.455164       -12.3856
  56   2.0000      -0.448570       -12.2062
  57   2.0000      -0.447035       -12.1644
  58   2.0000      -0.434000       -11.8097
  59   2.0000      -0.428458       -11.6589
  60   2.0000      -0.420519       -11.4429
  61   2.0000      -0.415002       -11.2928
  62   2.0000      -0.406588       -11.0638
  63   2.0000      -0.338961        -9.2236
  64   2.0000      -0.329231        -8.9588
  65   2.0000      -0.316496        -8.6123
  66   2.0000      -0.306757        -8.3473
  67   0.0000       0.048022         1.3067
  68   0.0000       0.054196         1.4747
  69   0.0000       0.112329         3.0566
  70   0.0000       0.123423         3.3585
  71   0.0000       0.132580         3.6077

MULLIKEN ATOMIC CHARGES
-----------------------
   0 S :    0.134304
   1 C :   -0.166026
   2 C :   -0.072721
   3 C :    0.033722
   4 C :   -0.177035
   5 H :    0.007651
   6 C :    0.080606
   7 H :    0.024837
   8 H :    0.026125
   9 C :   -0.041532
  10 H :    0.022183
  11 H :    0.021016
  12 C :   -0.048192
  13 H :    0.029459
  14 H :    0.012690
  15 H :    0.024264
  16 S :    0.129547
  17 C :   -0.091774
  18 C :   -0.042845
  19 C :   -0.014704
  20 C :   -0.178346
  21 H :    0.027248
  22 C :    0.071243
  23 H :    0.007628
  24 H :    0.035363
  25 C :   -0.043559
  26 H :    0.019928
  27 H :    0.016319
  28 C :   -0.067479
  29 H :    0.042123
  30 H :    0.023576
  31 H :    0.037987
  32 H :    0.058574
  33 H :    0.057821
Sum of atomic charges:    0.0000000

LOEWDIN ATOMIC CHARGES
----------------------
   0 S :    0.417381
   1 C :   -0.212499
   2 C :   -0.064797
   3 C :   -0.056575
   4 C :   -0.197885
   5 H :    0.034098
   6 C :   -0.025356
   7 H :    0.025472
   8 H :    0.032372
   9 C :   -0.031839
  10 H :    0.017733
  11 H :    0.023661
  12 C :   -0.073880
  13 H :    0.024804
  14 H :    0.026127
  15 H :    0.029243
  16 S :    0.412418
  17 C :   -0.200677
  18 C :   -0.077143
  19 C :   -0.045986
  20 C :   -0.200059
  21 H :    0.033665
  22 C :   -0.034141
  23 H :    0.023121
  24 H :    0.040418
  25 C :   -0.035245
  26 H :    0.020155
  27 H :    0.022129
  28 C :   -0.072323
  29 H :    0.031580
  30 H :    0.026560
  31 H :    0.025444
  32 H :    0.028543
  33 H :    0.033483

  Mayer bond orders larger than 0.100000
B(  0-S ,  1-C ) :   1.1520 B(  0-S ,  4-C ) :   1.1483 B(  1-C ,  2-C ) :   1.5968
B(  1-C , 32-H ) :   0.9610 B(  2-C ,  3-C ) :   1.2734 B(  2-C ,  6-C ) :   1.0063
B(  3-C ,  4-C ) :   1.5717 B(  3-C ,  5-H ) :   1.0035 B(  4-C , 20-C ) :   1.0257
B(  6-C ,  7-H ) :   0.9527 B(  6-C ,  8-H ) :   0.9277 B(  6-C ,  9-C ) :   1.0756
B(  9-C , 10-H ) :   0.9592 B(  9-C , 11-H ) :   0.9439 B(  9-C , 12-C ) :   1.0998
B( 12-C , 13-H ) :   0.9735 B( 12-C , 14-H ) :   0.9657 B( 12-C , 15-H ) :   0.9688
B( 16-S , 17-C ) :   1.1567 B( 16-S , 20-C ) :   1.1428 B( 17-C , 18-C ) :   1.6288
B( 17-C , 33-H ) :   0.9618 B( 18-C , 19-C ) :   1.2294 B( 18-C , 21-H ) :   0.9812
B( 19-C , 20-C ) :   1.5923 B( 19-C , 22-C ) :   1.0422 B( 22-C , 23-H ) :   0.9255
B( 22-C , 24-H ) :   0.9412 B( 22-C , 25-C ) :   1.0481 B( 25-C , 26-H ) :   0.9626
B( 25-C , 27-H ) :   0.9488 B( 25-C , 28-C ) :   1.0757 B( 28-C , 29-H ) :   0.9743
B( 28-C , 30-H ) :   0.9722 B( 28-C , 31-H ) :   0.9768

Dispersion correction           -0.013757712
FINAL SINGLE POINT ENERGY     -1339.875119449820

DIPOLE MOMENT
-------------
                                X             Y             Z
Electronic contribution:      4.19888       8.81162     -18.17498
Nuclear contribution   :     -4.16512      -8.97515      18.57074
                        -----------------------------------------
Total Dipole Moment    :      0.03375      -0.16354       0.39576
                        -----------------------------------------
Magnitude (a.u.)       :      0.42955
Magnitude (Debye)      :      1.09183

Rotational constants in cm-1:     0.021207     0.007202     0.006022
Rotational constants in MHz :   635.783675   215.920551   180.533520

                             ****ORCA TERMINATED NORMALLY****
TOTAL RUN TIME: 0 days 0 hours 0 minutes 28 seconds 793 msec
