                         Program Version 4.2.1 -  RELEASE  -
|  1> ! wB97X-D3 SP def2-SVP
|  2> %pal
|  3> nprocs 16
|  4> end
|  5>
|  6> * xyz 0 1
|  7> S 	 34.7739 	 0.658048 	 69.5897
|  8> C 	 34.767 	 2.36734 	 69.0736
|  9> C 	 33.5386 	 2.97216 	 69.4184
| 10> C 	 32.7146 	 2.14209 	 70.2526
| 11> C 	 33.2792 	 0.931319 	 70.5203
| 12> H 	 31.6914 	 2.28881 	 70.6202
| 13> C 	 33.0794 	 4.34603 	 69.0641
| 14> H 	 32.0437 	 4.26359 	 69.1093
| 15> H 	 33.2314 	 4.5476 	 67.9749
| 16> C 	 33.7511 	 5.52461 	 69.7365
| 17> H 	 34.8739 	 5.53867 	 69.7686
| 18> H 	 33.4349 	 6.49915 	 69.2923
| 19> C 	 33.2165 	 5.57374 	 71.2229
| 20> H 	 33.5296 	 6.39773 	 71.8443
| 21> H 	 32.134 	 5.57909 	 71.1654
| 22> H 	 33.6892 	 4.7445 	 71.6563
| 23> S 	 31.309 	 -0.942321 	 71.001
| 24> C 	 31.3559 	 -1.81722 	 72.5575
| 25> C 	 32.4887 	 -1.53435 	 73.284
| 26> C 	 33.3075 	 -0.548507 	 72.6155
| 27> C 	 32.7685 	 -0.048824 	 71.4297
| 28> H 	 32.7089 	 -2.01169 	 74.228
| 29> C 	 34.5753 	 -0.0341406 	 73.2173
| 30> H 	 35.3709 	 -0.116951 	 72.5795
| 31> H 	 34.8421 	 -0.731381 	 74.0637
| 32> C 	 34.3813 	 1.42775 	 73.7898
| 33> H 	 33.8615 	 2.1 	 73.1919
| 34> H 	 35.3553 	 1.80467 	 73.6595
| 35> C 	 33.8417 	 1.54134 	 75.2635
| 36> H 	 33.791 	 2.51532 	 75.7531
| 37> H 	 34.4231 	 0.978091 	 75.906
| 38> H 	 32.8156 	 1.2008 	 75.4028
| 39> H 	 35.5677 	 2.93605 	 68.5597
| 40> H 	 30.6815 	 -2.56373 	 72.9022
| 41> *
| 42>
| 43>                          ****END OF INPUT****

CARTESIAN COORDINATES (ANGSTROEM)
---------------------------------
  S     34.773900    0.658048   69.589700
  C     34.767000    2.367340   69.073600
  C     33.538600    2.972160   69.418400
  C     32.714600    2.142090   70.252600
  C     33.279200    0.931319   70.520300
  H     31.691400    2.288810   70.620200
  C     33.079400    4.346030   69.064100
  H     32.043700    4.263590   69.109300
  H     33.231400    4.547600   67.974900
  C     33.751100    5.524610   69.736500
  H     34.873900    5.538670   69.768600
  H     33.434900    6.499150   69.292300
  C     33.216500    5.573740   71.222900
  H     33.529600    6.397730   71.844300
  H     32.134000    5.579090   71.165400
  H     33.689200    4.744500   71.656300
  S     31.309000   -0.942321   71.001000
  C     31.355900   -1.817220   72.557500
  C     32.488700   -1.534350   73.284000
  C     33.307500   -0.548507   72.615500
  C     32.768500   -0.048824   71.429700
  H     32.708900   -2.011690   74.228000
  C     34.575300   -0.034141   73.217300
  H     35.370900   -0.116951   72.579500
  H     34.842100   -0.731381   74.063700
  C     34.381300    1.427750   73.789800
  H     33.861500    2.100000   73.191900
  H     35.355300    1.804670   73.659500
  C     33.841700    1.541340   75.263500
  H     33.791000    2.515320   75.753100
  H     34.423100    0.978091   75.906000
  H     32.815600    1.200800   75.402800
  H     35.567700    2.936050   68.559700
  H     30.681500   -2.563730   72.902200

 Total Charge           Charge          ....    0
 Multiplicity           Mult            ....    1
 Number of Electrons    NEL             ....  134
 Basis Dimension        Dim             ....  322

ORBITAL ENERGIES
----------------

  NO   OCC          E(Eh)            E(eV)
   0   2.0000     -88.969668     -2420.9877
   1   2.0000     -88.965495     -2420.8742
   2   2.0000     -10.326834      -281.0074
   3   2.0000     -10.323094      -280.9057
   4   2.0000     -10.321045      -280.8499
   5   2.0000     -10.317803      -280.7617
   6   2.0000     -10.305344      -280.4227
   7   2.0000     -10.301298      -280.3126
   8   2.0000     -10.295772      -280.1622
   9   2.0000     -10.295475      -280.1541
  10   2.0000     -10.294650      -280.1317
  11   2.0000     -10.288029      -279.9515
  12   2.0000     -10.287022      -279.9241
  13   2.0000     -10.278823      -279.7010
  14   2.0000     -10.270960      -279.4870
  15   2.0000     -10.269128      -279.4372
  16   2.0000      -8.082925      -219.9476
  17   2.0000      -8.079319      -219.8494
  18   2.0000      -6.041524      -164.3982
  19   2.0000      -6.037932      -164.3005
  20   2.0000      -6.037745      -164.2954
  21   2.0000      -6.033984      -164.1930
  22   2.0000      -6.033572      -164.1818
  23   2.0000      -6.029999      -164.0846
  24   2.0000      -1.001867       -27.2622
  25   2.0000      -0.976976       -26.5849
  26   2.0000      -0.914325       -24.8801
  27   2.0000      -0.900387       -24.5008
  28   2.0000      -0.868928       -23.6447
  29   2.0000      -0.846462       -23.0334
  30   2.0000      -0.840678       -22.8760
  31   2.0000      -0.815505       -22.1910
  32   2.0000      -0.783797       -21.3282
  33   2.0000      -0.769808       -20.9475
  34   2.0000      -0.717334       -19.5196
  35   2.0000      -0.706715       -19.2307
  36   2.0000      -0.694402       -18.8956
  37   2.0000      -0.662913       -18.0388
  38   2.0000      -0.638797       -17.3825
  39   2.0000      -0.609952       -16.5976
  40   2.0000      -0.593930       -16.1617
  41   2.0000      -0.575167       -15.6511
  42   2.0000      -0.549629       -14.9562
  43   2.0000      -0.547814       -14.9068
  44   2.0000      -0.543501       -14.7894
  45   2.0000      -0.529848       -14.4179
  46   2.0000      -0.520052       -14.1513
  47   2.0000      -0.515697       -14.0328
  48   2.0000      -0.501424       -13.6445
  49   2.0000      -0.490848       -13.3566
  50   2.0000      -0.486868       -13.2483
  51   2.0000      -0.476751       -12.9731
  52   2.0000      -0.470335       -12.7985
  53   2.0000      -0.463761       -12.6196
  54   2.0000      -0.457876       -12.4594
  55   2.0000      -0.449810       -12.2400
  56   2.0000      -0.445423       -12.1206
  57   2.0000      -0.439688       -11.9645
  58   2.0000      -0.438187       -11.9237
  59   2.0000      -0.424112       -11.5407
  60   2.0000      -0.419000       -11.4016
  61   2.0000      -0.409065       -11.1312
  62   2.0000      -0.406006       -11.0480
  63   2.0000      -0.337197        -9.1756
  64   2.0000      -0.334117        -9.0918
  65   2.0000      -0.319435        -8.6923
  66   2.0000      -0.299091        -8.1387
  67   0.0000       0.028580         0.7777
  68   0.0000       0.059506         1.6192
  69   0.0000       0.098513         2.6807
  70   0.0000       0.116276         3.1640
  71   0.0000       0.127546         3.4707

MULLIKEN ATOMIC CHARGES
-----------------------
   0 S :    0.117251
   1 C :   -0.135350
   2 C :   -0.102992
   3 C :    0.034132
   4 C :   -0.168811
   5 H :    0.027987
   6 C :    0.088151
   7 H :    0.007767
   8 H :    0.032070
   9 C :   -0.083195
  10 H :    0.042181
  11 H :    0.033411
  12 C :   -0.051604
  13 H :    0.026149
  14 H :    0.030498
  15 H :    0.032426
  16 S :    0.105511
  17 C :   -0.076964
  18 C :   -0.026859
  19 C :   -0.042338
  20 C :   -0.174629
  21 H :    0.020441
  22 C :    0.094192
  23 H :    0.005517
  24 H :    0.017988
  25 C :   -0.018703
  26 H :    0.021314
  27 H :    0.008529
  28 C :   -0.030916
  29 H :    0.028045
  30 H :    0.005389
  31 H :    0.027302
  32 H :    0.061231
  33 H :    0.044881
Sum of atomic charges:    0.0000000

LOEWDIN ATOMIC CHARGES
----------------------
   0 S :    0.384553
   1 C :   -0.194537
   2 C :   -0.060277
   3 C :   -0.060037
   4 C :   -0.185335
   5 H :    0.039991
   6 C :   -0.038229
   7 H :    0.024565
   8 H :    0.039486
   9 C :   -0.037228
  10 H :    0.029286
  11 H :    0.024629
  12 C :   -0.064106
  13 H :    0.020732
  14 H :    0.023212
  15 H :    0.018764
  16 S :    0.386395
  17 C :   -0.168246
  18 C :   -0.069123
  19 C :   -0.047418
  20 C :   -0.207581
  21 H :    0.033148
  22 C :   -0.021929
  23 H :    0.013521
  24 H :    0.036050
  25 C :   -0.023412
  26 H :    0.017053
  27 H :    0.021144
  28 C :   -0.064672
  29 H :    0.029421
  30 H :    0.011118
  31 H :    0.026913
  32 H :    0.037260
  33 H :    0.024887

  Mayer bond orders larger than 0.100000
B(  0-S ,  1-C ) :   1.1276 B(  0-S ,  4-C ) :   1.1290 B(  1-C ,  2-C ) :   1.6137
B(  1-C , 32-H ) :   0.9655 B(  2-C ,  3-C ) :   1.2106 B(  2-C ,  6-C ) :   1.0268
B(  3-C ,  4-C ) :   1.6090 B(  3-C ,  5-H ) :   0.9866 B(  4-C , 20-C ) :   1.0503
B(  6-C ,  7-H ) :   0.9408 B(  6-C ,  8-H ) :   0.9302 B(  6-C ,  9-C ) :   1.0622
B(  9-C , 10-H ) :   0.9613 B(  9-C , 11-H ) :   0.9577 B(  9-C , 12-C ) :   1.0601
B( 12-C , 13-H ) :   0.9749 B( 12-C , 14-H ) :   0.9775 B( 12-C , 15-H ) :   0.9820
B( 16-S , 17-C ) :   1.1461 B( 16-S , 20-C ) :   1.1219 B( 17-C , 18-C ) :   1.6251
B( 17-C , 33-H ) :   0.9666 B( 18-C , 19-C ) :   1.2399 B( 18-C , 21-H ) :   0.9870
B( 19-C , 20-C ) :   1.5914 B( 19-C , 22-C ) :   1.0537 B( 22-C , 23-H ) :   0.9274
B( 22-C , 24-H ) :   0.9354 B( 22-C , 25-C ) :   1.0531 B( 25-C , 26-H ) :   0.9648
B( 25-C , 27-H ) :   0.9536 B( 25-C , 28-C ) :   1.0651 B( 28-C , 29-H ) :   0.9757
B( 28-C , 30-H ) :   0.9767 B( 28-C , 31-H ) :   0.9764

Dispersion correction           -0.015817798
FINAL SINGLE POINT ENERGY     -1339.851854108542

DIPOLE MOMENT
-------------
                                X             Y             Z
Electronic contribution:     -4.37582     -21.81660     -13.87778
Nuclear contribution   :      4.47441      22.19580      14.19525
                        -----------------------------------------
Total Dipole Moment    :      0.09859       0.37919       0.31747
                        -----------------------------------------
Magnitude (a.u.)       :      0.50428
Magnitude (Debye)      :      1.28177

Rotational constants in cm-1:     0.018939     0.009296     0.007933
Rotational constants in MHz :   567.768526   278.675707   237.811508

                             ****ORCA TERMINATED NORMALLY****
TOTAL RUN TIME: 0 days 0 hours 0 minutes 31 seconds 407 msec
