                         Program Version 4.2.1 -  RELEASE  -
|  1> ! wB97X-D3 SP def2-SVP
|  2> %pal
|  3> nprocs 16
|  4> end
|  5>
|  6> * xyz 0 1
|  7> S 	 52.5051 	 5.7779 	 85.0745
|  8> C 	 53.7303 	 5.23023 	 83.9176
|  9> C 	 53.1994 	 4.28803 	 83.0663
| 10> C 	 51.8992 	 3.84973 	 83.4267
| 11> C 	 51.3269 	 4.62824 	 84.4538
| 12> H 	 51.3572 	 3.00024 	 82.9729
| 13> C 	 53.949 	 3.61591 	 81.9448
| 14> H 	 53.3288 	 2.96782 	 81.3542
| 15> H 	 54.7589 	 3.01841 	 82.3852
| 16> C 	 54.4873 	 4.55646 	 80.855
| 17> H 	 53.5787 	 5.19079 	 80.5112
| 18> H 	 55.123 	 5.3732 	 81.2502
| 19> C 	 55.1515 	 3.93619 	 79.6382
| 20> H 	 56.0733 	 3.44986 	 80.0112
| 21> H 	 54.6247 	 3.17312 	 79.037
| 22> H 	 55.4274 	 4.67325 	 78.8615
| 23> S 	 49.7769 	 4.43583 	 86.7301
| 24> C 	 48.0448 	 4.46297 	 86.5657
| 25> C 	 47.6858 	 4.37498 	 85.2377
| 26> C 	 48.7565 	 4.38549 	 84.3552
| 27> C 	 49.9856 	 4.4411 	 85.0072
| 28> H 	 46.6419 	 4.5058 	 84.9898
| 29> C 	 48.6168 	 4.56385 	 82.8492
| 30> H 	 49.5291 	 5.01491 	 82.5323
| 31> H 	 47.901 	 5.37626 	 82.6368
| 32> C 	 48.2405 	 3.16857 	 82.1431
| 33> H 	 47.1933 	 2.89536 	 82.24
| 34> H 	 48.8169 	 2.27561 	 82.5151
| 35> C 	 48.6088 	 3.18231 	 80.7211
| 36> H 	 48.196 	 2.34458 	 80.1981
| 37> H 	 49.6557 	 3.27032 	 80.5787
| 38> H 	 48.116 	 4.08959 	 80.397
| 39> H 	 54.7968 	 5.42666 	 84.0073
| 40> H 	 47.304 	 4.53104 	 87.2788
| 41> *
| 42>
| 43>                          ****END OF INPUT****

CARTESIAN COORDINATES (ANGSTROEM)
---------------------------------
  S     52.505100    5.777900   85.074500
  C     53.730300    5.230230   83.917600
  C     53.199400    4.288030   83.066300
  C     51.899200    3.849730   83.426700
  C     51.326900    4.628240   84.453800
  H     51.357200    3.000240   82.972900
  C     53.949000    3.615910   81.944800
  H     53.328800    2.967820   81.354200
  H     54.758900    3.018410   82.385200
  C     54.487300    4.556460   80.855000
  H     53.578700    5.190790   80.511200
  H     55.123000    5.373200   81.250200
  C     55.151500    3.936190   79.638200
  H     56.073300    3.449860   80.011200
  H     54.624700    3.173120   79.037000
  H     55.427400    4.673250   78.861500
  S     49.776900    4.435830   86.730100
  C     48.044800    4.462970   86.565700
  C     47.685800    4.374980   85.237700
  C     48.756500    4.385490   84.355200
  C     49.985600    4.441100   85.007200
  H     46.641900    4.505800   84.989800
  C     48.616800    4.563850   82.849200
  H     49.529100    5.014910   82.532300
  H     47.901000    5.376260   82.636800
  C     48.240500    3.168570   82.143100
  H     47.193300    2.895360   82.240000
  H     48.816900    2.275610   82.515100
  C     48.608800    3.182310   80.721100
  H     48.196000    2.344580   80.198100
  H     49.655700    3.270320   80.578700
  H     48.116000    4.089590   80.397000
  H     54.796800    5.426660   84.007300
  H     47.304000    4.531040   87.278800

 Total Charge           Charge          ....    0
 Multiplicity           Mult            ....    1
 Number of Electrons    NEL             ....  134
 Basis Dimension        Dim             ....  322

ORBITAL ENERGIES
----------------

  NO   OCC          E(Eh)            E(eV)
   0   2.0000     -88.969329     -2420.9785
   1   2.0000     -88.967482     -2420.9283
   2   2.0000     -10.333308      -281.1836
   3   2.0000     -10.323719      -280.9227
   4   2.0000     -10.315505      -280.6992
   5   2.0000     -10.310530      -280.5638
   6   2.0000     -10.301099      -280.3072
   7   2.0000     -10.298529      -280.2372
   8   2.0000     -10.297778      -280.2168
   9   2.0000     -10.294110      -280.1170
  10   2.0000     -10.294003      -280.1141
  11   2.0000     -10.292017      -280.0600
  12   2.0000     -10.288842      -279.9736
  13   2.0000     -10.287294      -279.9315
  14   2.0000     -10.284330      -279.8508
  15   2.0000     -10.265733      -279.3448
  16   2.0000      -8.083271      -219.9570
  17   2.0000      -8.082368      -219.9324
  18   2.0000      -6.041852      -164.4072
  19   2.0000      -6.040780      -164.3780
  20   2.0000      -6.037825      -164.2976
  21   2.0000      -6.036792      -164.2695
  22   2.0000      -6.034063      -164.1952
  23   2.0000      -6.033287      -164.1741
  24   2.0000      -1.008265       -27.4363
  25   2.0000      -0.985389       -26.8138
  26   2.0000      -0.910890       -24.7866
  27   2.0000      -0.909926       -24.7603
  28   2.0000      -0.869127       -23.6501
  29   2.0000      -0.861376       -23.4392
  30   2.0000      -0.847802       -23.0699
  31   2.0000      -0.814613       -22.1667
  32   2.0000      -0.782453       -21.2916
  33   2.0000      -0.770390       -20.9634
  34   2.0000      -0.707498       -19.2520
  35   2.0000      -0.696174       -18.9439
  36   2.0000      -0.694577       -18.9004
  37   2.0000      -0.661799       -18.0085
  38   2.0000      -0.638387       -17.3714
  39   2.0000      -0.615973       -16.7615
  40   2.0000      -0.595093       -16.1933
  41   2.0000      -0.574462       -15.6319
  42   2.0000      -0.566994       -15.4287
  43   2.0000      -0.559336       -15.2203
  44   2.0000      -0.539530       -14.6814
  45   2.0000      -0.527342       -14.3497
  46   2.0000      -0.518256       -14.1025
  47   2.0000      -0.512675       -13.9506
  48   2.0000      -0.504974       -13.7410
  49   2.0000      -0.499341       -13.5878
  50   2.0000      -0.496289       -13.5047
  51   2.0000      -0.479478       -13.0473
  52   2.0000      -0.474751       -12.9186
  53   2.0000      -0.467944       -12.7334
  54   2.0000      -0.459114       -12.4931
  55   2.0000      -0.451094       -12.2749
  56   2.0000      -0.442489       -12.0407
  57   2.0000      -0.436672       -11.8825
  58   2.0000      -0.430351       -11.7104
  59   2.0000      -0.426657       -11.6099
  60   2.0000      -0.420585       -11.4447
  61   2.0000      -0.409962       -11.1556
  62   2.0000      -0.405313       -11.0291
  63   2.0000      -0.343978        -9.3601
  64   2.0000      -0.334372        -9.0987
  65   2.0000      -0.332278        -9.0417
  66   2.0000      -0.289749        -7.8845
  67   0.0000       0.022147         0.6026
  68   0.0000       0.075300         2.0490
  69   0.0000       0.112529         3.0621
  70   0.0000       0.124317         3.3828
  71   0.0000       0.128730         3.5029

MULLIKEN ATOMIC CHARGES
-----------------------
   0 S :    0.114180
   1 C :   -0.135426
   2 C :   -0.074152
   3 C :    0.012668
   4 C :   -0.153734
   5 H :    0.026623
   6 C :    0.095302
   7 H :    0.010081
   8 H :    0.040097
   9 C :   -0.128716
  10 H :    0.032420
  11 H :    0.031051
  12 C :   -0.054743
  13 H :    0.030464
  14 H :    0.033369
  15 H :    0.041356
  16 S :    0.120144
  17 C :   -0.058149
  18 C :   -0.042813
  19 C :   -0.016963
  20 C :   -0.171739
  21 H :    0.015130
  22 C :    0.060994
  23 H :    0.022699
  24 H :    0.034380
  25 C :   -0.089560
  26 H :    0.031120
  27 H :    0.032686
  28 C :   -0.009453
  29 H :    0.029316
  30 H :    0.024899
  31 H :    0.015374
  32 H :    0.059802
  33 H :    0.021294
Sum of atomic charges:   -0.0000000

LOEWDIN ATOMIC CHARGES
----------------------
   0 S :    0.399644
   1 C :   -0.196503
   2 C :   -0.063563
   3 C :   -0.064398
   4 C :   -0.191610
   5 H :    0.037547
   6 C :   -0.031355
   7 H :    0.026550
   8 H :    0.033379
   9 C :   -0.053600
  10 H :    0.030164
  11 H :    0.022929
  12 C :   -0.076415
  13 H :    0.027069
  14 H :    0.025713
  15 H :    0.033206
  16 S :    0.421067
  17 C :   -0.175527
  18 C :   -0.070798
  19 C :   -0.053312
  20 C :   -0.210087
  21 H :    0.031836
  22 C :   -0.025496
  23 H :    0.026075
  24 H :    0.034992
  25 C :   -0.038969
  26 H :    0.023614
  27 H :    0.025559
  28 C :   -0.060084
  29 H :    0.023266
  30 H :    0.017797
  31 H :    0.022850
  32 H :    0.033174
  33 H :    0.015286

  Mayer bond orders larger than 0.100000
B(  0-S ,  1-C ) :   1.1300 B(  0-S ,  4-C ) :   1.1602 B(  1-C ,  2-C ) :   1.5908
B(  1-C , 32-H ) :   0.9684 B(  2-C ,  3-C ) :   1.2659 B(  2-C ,  6-C ) :   1.0279
B(  3-C ,  4-C ) :   1.5301 B(  3-C ,  5-H ) :   0.9909 B(  4-C , 20-C ) :   1.0556
B(  6-C ,  7-H ) :   0.9451 B(  6-C ,  8-H ) :   0.9352 B(  6-C ,  9-C ) :   1.0486
B(  9-C , 10-H ) :   0.9545 B(  9-C , 11-H ) :   0.9549 B(  9-C , 12-C ) :   1.0838
B( 12-C , 13-H ) :   0.9720 B( 12-C , 14-H ) :   0.9745 B( 12-C , 15-H ) :   0.9724
B( 16-S , 17-C ) :   1.1597 B( 16-S , 20-C ) :   1.1493 B( 17-C , 18-C ) :   1.5980
B( 17-C , 20-C ) :   0.1016 B( 17-C , 33-H ) :   0.9743 B( 18-C , 19-C ) :   1.2783
B( 18-C , 21-H ) :   0.9888 B( 19-C , 20-C ) :   1.5570 B( 19-C , 22-C ) :   1.0418
B( 22-C , 23-H ) :   0.9396 B( 22-C , 24-H ) :   0.9356 B( 22-C , 25-C ) :   1.0276
B( 25-C , 26-H ) :   0.9553 B( 25-C , 27-H ) :   0.9631 B( 25-C , 28-C ) :   1.0898
B( 28-C , 29-H ) :   0.9712 B( 28-C , 30-H ) :   0.9776 B( 28-C , 31-H ) :   0.9681

Dispersion correction           -0.014258797
FINAL SINGLE POINT ENERGY     -1339.873678814691

DIPOLE MOMENT
-------------
                                X             Y             Z
Electronic contribution:     -3.63665       8.04545      31.49484
Nuclear contribution   :      3.49028      -8.23910     -32.05545
                        -----------------------------------------
Total Dipole Moment    :     -0.14637      -0.19365      -0.56061
                        -----------------------------------------
Magnitude (a.u.)       :      0.61091
Magnitude (Debye)      :      1.55281

Rotational constants in cm-1:     0.019292     0.008664     0.006276
Rotational constants in MHz :   578.355048   259.735664   188.150045

                             ****ORCA TERMINATED NORMALLY****
TOTAL RUN TIME: 0 days 0 hours 0 minutes 29 seconds 960 msec
