                         Program Version 4.2.1 -  RELEASE  -
|  1> ! wB97X-D3 SP def2-SVP
|  2> %pal
|  3> nprocs 16
|  4> end
|  5>
|  6> * xyz 0 1
|  7> S 	 -42.9417 	 26.8152 	 78.8769
|  8> C 	 -41.9378 	 28.2523 	 78.9818
|  9> C 	 -40.6831 	 27.9003 	 79.475
| 10> C 	 -40.4994 	 26.5012 	 79.4286
| 11> C 	 -41.513 	 25.7465 	 78.948
| 12> H 	 -39.6502 	 25.9907 	 79.7724
| 13> C 	 -39.5957 	 28.9146 	 79.938
| 14> H 	 -40.091 	 29.8071 	 80.2445
| 15> H 	 -38.9601 	 29.2215 	 79.1232
| 16> C 	 -38.614 	 28.4928 	 81.0328
| 17> H 	 -39.2165 	 28.2768 	 81.919
| 18> H 	 -38.2628 	 27.4671 	 80.693
| 19> C 	 -37.5431 	 29.5395 	 81.2273
| 20> H 	 -38.0874 	 30.5158 	 81.3401
| 21> H 	 -36.9649 	 29.349 	 82.1301
| 22> H 	 -36.8374 	 29.6559 	 80.4219
| 23> S 	 -43.1011 	 23.656 	 79.7963
| 24> C 	 -42.5654 	 22.0305 	 79.5246
| 25> C 	 -41.4527 	 21.8872 	 78.6984
| 26> C 	 -40.962 	 23.218 	 78.3788
| 27> C 	 -41.6974 	 24.259 	 78.9493
| 28> H 	 -41.107 	 20.9226 	 78.3655
| 29> C 	 -39.9 	 23.437 	 77.3165
| 30> H 	 -39.9002 	 24.4779 	 77.019
| 31> H 	 -40.1775 	 22.8896 	 76.3811
| 32> C 	 -38.4002 	 23.2157 	 77.6772
| 33> H 	 -38.3275 	 22.1423 	 77.8317
| 34> H 	 -38.1391 	 23.7089 	 78.6376
| 35> C 	 -37.4089 	 23.5996 	 76.584
| 36> H 	 -37.5821 	 23.1329 	 75.5892
| 37> H 	 -36.3481 	 23.4197 	 76.8946
| 38> H 	 -37.6349 	 24.6479 	 76.5296
| 39> H 	 -42.2103 	 29.2958 	 78.7704
| 40> H 	 -43.1256 	 21.1831 	 79.8884
| 41> *
| 42>
| 43>                          ****END OF INPUT****

CARTESIAN COORDINATES (ANGSTROEM)
---------------------------------
  S    -42.941700   26.815200   78.876900
  C    -41.937800   28.252300   78.981800
  C    -40.683100   27.900300   79.475000
  C    -40.499400   26.501200   79.428600
  C    -41.513000   25.746500   78.948000
  H    -39.650200   25.990700   79.772400
  C    -39.595700   28.914600   79.938000
  H    -40.091000   29.807100   80.244500
  H    -38.960100   29.221500   79.123200
  C    -38.614000   28.492800   81.032800
  H    -39.216500   28.276800   81.919000
  H    -38.262800   27.467100   80.693000
  C    -37.543100   29.539500   81.227300
  H    -38.087400   30.515800   81.340100
  H    -36.964900   29.349000   82.130100
  H    -36.837400   29.655900   80.421900
  S    -43.101100   23.656000   79.796300
  C    -42.565400   22.030500   79.524600
  C    -41.452700   21.887200   78.698400
  C    -40.962000   23.218000   78.378800
  C    -41.697400   24.259000   78.949300
  H    -41.107000   20.922600   78.365500
  C    -39.900000   23.437000   77.316500
  H    -39.900200   24.477900   77.019000
  H    -40.177500   22.889600   76.381100
  C    -38.400200   23.215700   77.677200
  H    -38.327500   22.142300   77.831700
  H    -38.139100   23.708900   78.637600
  C    -37.408900   23.599600   76.584000
  H    -37.582100   23.132900   75.589200
  H    -36.348100   23.419700   76.894600
  H    -37.634900   24.647900   76.529600
  H    -42.210300   29.295800   78.770400
  H    -43.125600   21.183100   79.888400

 Total Charge           Charge          ....    0
 Multiplicity           Mult            ....    1
 Number of Electrons    NEL             ....  134
 Basis Dimension        Dim             ....  322

ORBITAL ENERGIES
----------------

  NO   OCC          E(Eh)            E(eV)
   0   2.0000     -88.968544     -2420.9571
   1   2.0000     -88.963841     -2420.8292
   2   2.0000     -10.332899      -281.1725
   3   2.0000     -10.331790      -281.1423
   4   2.0000     -10.319517      -280.8083
   5   2.0000     -10.318048      -280.7684
   6   2.0000     -10.308861      -280.5184
   7   2.0000     -10.304459      -280.3986
   8   2.0000     -10.299865      -280.2736
   9   2.0000     -10.291968      -280.0587
  10   2.0000     -10.290719      -280.0247
  11   2.0000     -10.289925      -280.0031
  12   2.0000     -10.288747      -279.9710
  13   2.0000     -10.285732      -279.8890
  14   2.0000     -10.284714      -279.8613
  15   2.0000     -10.281173      -279.7649
  16   2.0000      -8.083708      -219.9689
  17   2.0000      -8.078159      -219.8179
  18   2.0000      -6.042154      -164.4154
  19   2.0000      -6.038258      -164.3093
  20   2.0000      -6.036846      -164.2709
  21   2.0000      -6.034413      -164.2047
  22   2.0000      -6.032935      -164.1645
  23   2.0000      -6.028532      -164.0447
  24   2.0000      -1.006499       -27.3882
  25   2.0000      -0.985146       -26.8072
  26   2.0000      -0.913701       -24.8631
  27   2.0000      -0.905390       -24.6369
  28   2.0000      -0.868536       -23.6341
  29   2.0000      -0.853505       -23.2251
  30   2.0000      -0.844220       -22.9724
  31   2.0000      -0.819073       -22.2881
  32   2.0000      -0.781133       -21.2557
  33   2.0000      -0.769023       -20.9262
  34   2.0000      -0.707279       -19.2460
  35   2.0000      -0.691927       -18.8283
  36   2.0000      -0.687544       -18.7090
  37   2.0000      -0.661366       -17.9967
  38   2.0000      -0.645357       -17.5611
  39   2.0000      -0.624748       -17.0003
  40   2.0000      -0.596624       -16.2350
  41   2.0000      -0.573048       -15.5934
  42   2.0000      -0.568923       -15.4812
  43   2.0000      -0.562158       -15.2971
  44   2.0000      -0.527098       -14.3431
  45   2.0000      -0.520893       -14.1742
  46   2.0000      -0.515578       -14.0296
  47   2.0000      -0.507564       -13.8115
  48   2.0000      -0.505301       -13.7499
  49   2.0000      -0.500861       -13.6291
  50   2.0000      -0.495541       -13.4843
  51   2.0000      -0.479365       -13.0442
  52   2.0000      -0.470171       -12.7940
  53   2.0000      -0.465809       -12.6753
  54   2.0000      -0.458992       -12.4898
  55   2.0000      -0.456603       -12.4248
  56   2.0000      -0.447669       -12.1817
  57   2.0000      -0.434102       -11.8125
  58   2.0000      -0.432560       -11.7705
  59   2.0000      -0.428825       -11.6689
  60   2.0000      -0.419730       -11.4214
  61   2.0000      -0.414974       -11.2920
  62   2.0000      -0.404713       -11.0128
  63   2.0000      -0.350887        -9.5481
  64   2.0000      -0.332934        -9.0596
  65   2.0000      -0.327097        -8.9008
  66   2.0000      -0.290116        -7.8944
  67   0.0000       0.028057         0.7635
  68   0.0000       0.060002         1.6327
  69   0.0000       0.101653         2.7661
  70   0.0000       0.116371         3.1666
  71   0.0000       0.132339         3.6011

MULLIKEN ATOMIC CHARGES
-----------------------
   0 S :    0.081503
   1 C :   -0.119178
   2 C :   -0.068881
   3 C :    0.039641
   4 C :   -0.121787
   5 H :   -0.012594
   6 C :    0.068591
   7 H :    0.007946
   8 H :    0.029944
   9 C :   -0.111687
  10 H :    0.036129
  11 H :    0.035017
  12 C :   -0.030590
  13 H :    0.032999
  14 H :    0.039272
  15 H :    0.034817
  16 S :    0.113140
  17 C :   -0.095021
  18 C :   -0.010236
  19 C :   -0.032470
  20 C :   -0.148704
  21 H :    0.022348
  22 C :    0.019951
  23 H :    0.012314
  24 H :    0.039225
  25 C :   -0.083816
  26 H :    0.015997
  27 H :    0.034814
  28 C :   -0.054928
  29 H :    0.039878
  30 H :    0.049665
  31 H :    0.026510
  32 H :    0.055684
  33 H :    0.054507
Sum of atomic charges:    0.0000000

LOEWDIN ATOMIC CHARGES
----------------------
   0 S :    0.377634
   1 C :   -0.188447
   2 C :   -0.062442
   3 C :   -0.062490
   4 C :   -0.174972
   5 H :    0.021466
   6 C :   -0.030831
   7 H :    0.020701
   8 H :    0.028769
   9 C :   -0.046563
  10 H :    0.025679
  11 H :    0.025168
  12 C :   -0.063230
  13 H :    0.033389
  14 H :    0.029838
  15 H :    0.024881
  16 S :    0.414150
  17 C :   -0.183233
  18 C :   -0.063914
  19 C :   -0.056351
  20 C :   -0.197957
  21 H :    0.034257
  22 C :   -0.038089
  23 H :    0.023756
  24 H :    0.037066
  25 C :   -0.044505
  26 H :    0.013858
  27 H :    0.026146
  28 C :   -0.069583
  29 H :    0.028845
  30 H :    0.033943
  31 H :    0.022750
  32 H :    0.035728
  33 H :    0.024583

  Mayer bond orders larger than 0.100000
B(  0-S ,  1-C ) :   1.1431 B(  0-S ,  4-C ) :   1.1272 B(  1-C ,  2-C ) :   1.6053
B(  1-C ,  4-C ) :   0.1040 B(  1-C , 32-H ) :   0.9695 B(  2-C ,  3-C ) :   1.2413
B(  2-C ,  6-C ) :   1.0046 B(  3-C ,  4-C ) :   1.5946 B(  3-C ,  5-H ) :   1.0004
B(  4-C , 20-C ) :   1.0179 B(  6-C ,  7-H ) :   0.9395 B(  6-C ,  8-H ) :   0.9431
B(  6-C ,  9-C ) :   1.0618 B(  9-C , 10-H ) :   0.9589 B(  9-C , 11-H ) :   0.9494
B(  9-C , 12-C ) :   1.0812 B( 12-C , 13-H ) :   0.9712 B( 12-C , 14-H ) :   0.9719
B( 12-C , 15-H ) :   0.9735 B( 16-S , 17-C ) :   1.1668 B( 16-S , 20-C ) :   1.1354
B( 17-C , 18-C ) :   1.6110 B( 17-C , 33-H ) :   0.9658 B( 18-C , 19-C ) :   1.2180
B( 18-C , 21-H ) :   0.9975 B( 19-C , 20-C ) :   1.6209 B( 19-C , 22-C ) :   1.0471
B( 22-C , 23-H ) :   0.9367 B( 22-C , 24-H ) :   0.9420 B( 22-C , 25-C ) :   1.0506
B( 25-C , 26-H ) :   0.9558 B( 25-C , 27-H ) :   0.9559 B( 25-C , 28-C ) :   1.0743
B( 28-C , 29-H ) :   0.9736 B( 28-C , 30-H ) :   0.9734 B( 28-C , 31-H ) :   0.9775

Dispersion correction           -0.013377943
FINAL SINGLE POINT ENERGY     -1339.869749516099

DIPOLE MOMENT
-------------
                                X             Y             Z
Electronic contribution:    -29.94968      -7.28304       2.01166
Nuclear contribution   :     30.55865       7.34342      -1.98991
                        -----------------------------------------
Total Dipole Moment    :      0.60897       0.06038       0.02175
                        -----------------------------------------
Magnitude (a.u.)       :      0.61234
Magnitude (Debye)      :      1.55645

Rotational constants in cm-1:     0.015909     0.008816     0.006508
Rotational constants in MHz :   476.941078   264.290374   195.116409

                             ****ORCA TERMINATED NORMALLY****
TOTAL RUN TIME: 0 days 0 hours 0 minutes 29 seconds 12 msec
