                         Program Version 4.2.1 -  RELEASE  -
|  1> ! wB97X-D3 SP def2-SVP
|  2> %pal
|  3> nprocs 16
|  4> end
|  5>
|  6> * xyz 0 1
|  7> S 	 -34.7158 	 53.5636 	 113.559
|  8> C 	 -34.3678 	 55.29 	 113.298
|  9> C 	 -35.1508 	 56.1203 	 114.108
| 10> C 	 -35.8076 	 55.3246 	 115.112
| 11> C 	 -35.6073 	 53.951 	 114.997
| 12> H 	 -36.3826 	 55.7293 	 115.902
| 13> C 	 -35.2034 	 57.6525 	 114.202
| 14> H 	 -34.1723 	 58.0211 	 113.884
| 15> H 	 -35.1325 	 57.8682 	 115.276
| 16> C 	 -36.3885 	 58.3514 	 113.557
| 17> H 	 -37.3811 	 58.1754 	 114.031
| 18> H 	 -36.0829 	 59.3734 	 113.588
| 19> C 	 -36.6191 	 58.0444 	 112.097
| 20> H 	 -37.3994 	 58.5844 	 111.569
| 21> H 	 -35.7333 	 58.238 	 111.563
| 22> H 	 -36.8305 	 56.999 	 111.992
| 23> S 	 -35.1158 	 51.6249 	 116.533
| 24> C 	 -36.3983 	 51.058 	 117.588
| 25> C 	 -37.5472 	 51.7824 	 117.387
| 26> C 	 -37.4497 	 52.8862 	 116.512
| 27> C 	 -36.1678 	 52.9756 	 115.961
| 28> H 	 -38.4342 	 51.3524 	 117.875
| 29> C 	 -38.6518 	 53.6601 	 116.087
| 30> H 	 -39.4835 	 53.0181 	 115.78
| 31> H 	 -38.3489 	 54.3014 	 115.25
| 32> C 	 -39.3717 	 54.5825 	 117.19
| 33> H 	 -38.6781 	 55.2536 	 117.604
| 34> H 	 -39.7079 	 53.9138 	 117.934
| 35> C 	 -40.5752 	 55.3571 	 116.688
| 36> H 	 -41.0147 	 55.7563 	 117.564
| 37> H 	 -41.2908 	 54.7146 	 116.166
| 38> H 	 -40.1862 	 56.0926 	 115.969
| 39> H 	 -33.7128 	 55.8138 	 112.524
| 40> H 	 -36.299 	 50.1191 	 118.185
| 41> *
| 42>
| 43>                          ****END OF INPUT****

CARTESIAN COORDINATES (ANGSTROEM)
---------------------------------
  S    -34.715800   53.563600  113.559000
  C    -34.367800   55.290000  113.298000
  C    -35.150800   56.120300  114.108000
  C    -35.807600   55.324600  115.112000
  C    -35.607300   53.951000  114.997000
  H    -36.382600   55.729300  115.902000
  C    -35.203400   57.652500  114.202000
  H    -34.172300   58.021100  113.884000
  H    -35.132500   57.868200  115.276000
  C    -36.388500   58.351400  113.557000
  H    -37.381100   58.175400  114.031000
  H    -36.082900   59.373400  113.588000
  C    -36.619100   58.044400  112.097000
  H    -37.399400   58.584400  111.569000
  H    -35.733300   58.238000  111.563000
  H    -36.830500   56.999000  111.992000
  S    -35.115800   51.624900  116.533000
  C    -36.398300   51.058000  117.588000
  C    -37.547200   51.782400  117.387000
  C    -37.449700   52.886200  116.512000
  C    -36.167800   52.975600  115.961000
  H    -38.434200   51.352400  117.875000
  C    -38.651800   53.660100  116.087000
  H    -39.483500   53.018100  115.780000
  H    -38.348900   54.301400  115.250000
  C    -39.371700   54.582500  117.190000
  H    -38.678100   55.253600  117.604000
  H    -39.707900   53.913800  117.934000
  C    -40.575200   55.357100  116.688000
  H    -41.014700   55.756300  117.564000
  H    -41.290800   54.714600  116.166000
  H    -40.186200   56.092600  115.969000
  H    -33.712800   55.813800  112.524000
  H    -36.299000   50.119100  118.185000

 Total Charge           Charge          ....    0
 Multiplicity           Mult            ....    1
 Number of Electrons    NEL             ....  134
 Basis Dimension        Dim             ....  322

ORBITAL ENERGIES
----------------

  NO   OCC          E(Eh)            E(eV)
   0   2.0000     -88.972577     -2421.0669
   1   2.0000     -88.964481     -2420.8466
   2   2.0000     -10.334237      -281.2089
   3   2.0000     -10.330563      -281.1089
   4   2.0000     -10.322931      -280.9012
   5   2.0000     -10.320426      -280.8331
   6   2.0000     -10.305361      -280.4231
   7   2.0000     -10.303432      -280.3706
   8   2.0000     -10.303245      -280.3656
   9   2.0000     -10.293111      -280.0898
  10   2.0000     -10.292520      -280.0737
  11   2.0000     -10.290465      -280.0178
  12   2.0000     -10.288380      -279.9611
  13   2.0000     -10.280064      -279.7348
  14   2.0000     -10.277127      -279.6548
  15   2.0000     -10.266613      -279.3687
  16   2.0000      -8.086509      -220.0451
  17   2.0000      -8.078544      -219.8284
  18   2.0000      -6.045146      -164.4968
  19   2.0000      -6.041271      -164.3913
  20   2.0000      -6.037048      -164.2764
  21   2.0000      -6.037026      -164.2758
  22   2.0000      -6.033203      -164.1718
  23   2.0000      -6.029298      -164.0656
  24   2.0000      -1.001100       -27.2413
  25   2.0000      -0.980263       -26.6743
  26   2.0000      -0.915023       -24.8990
  27   2.0000      -0.906221       -24.6595
  28   2.0000      -0.865607       -23.5544
  29   2.0000      -0.857404       -23.3312
  30   2.0000      -0.847023       -23.0487
  31   2.0000      -0.808841       -22.0097
  32   2.0000      -0.786307       -21.3965
  33   2.0000      -0.772929       -21.0325
  34   2.0000      -0.704281       -19.1645
  35   2.0000      -0.698565       -19.0089
  36   2.0000      -0.693612       -18.8741
  37   2.0000      -0.655725       -17.8432
  38   2.0000      -0.630601       -17.1595
  39   2.0000      -0.619362       -16.8537
  40   2.0000      -0.595469       -16.2035
  41   2.0000      -0.573334       -15.6012
  42   2.0000      -0.568767       -15.4769
  43   2.0000      -0.554250       -15.0819
  44   2.0000      -0.546322       -14.8662
  45   2.0000      -0.532509       -14.4903
  46   2.0000      -0.514951       -14.0125
  47   2.0000      -0.509472       -13.8634
  48   2.0000      -0.503868       -13.7110
  49   2.0000      -0.491397       -13.3716
  50   2.0000      -0.486557       -13.2399
  51   2.0000      -0.477176       -12.9846
  52   2.0000      -0.470627       -12.8064
  53   2.0000      -0.460957       -12.5433
  54   2.0000      -0.457716       -12.4551
  55   2.0000      -0.452191       -12.3047
  56   2.0000      -0.445801       -12.1308
  57   2.0000      -0.443956       -12.0807
  58   2.0000      -0.429795       -11.6953
  59   2.0000      -0.425678       -11.5833
  60   2.0000      -0.422924       -11.5084
  61   2.0000      -0.416855       -11.3432
  62   2.0000      -0.414848       -11.2886
  63   2.0000      -0.344792        -9.3823
  64   2.0000      -0.333068        -9.0632
  65   2.0000      -0.329840        -8.9754
  66   2.0000      -0.289575        -7.8797
  67   0.0000       0.024425         0.6646
  68   0.0000       0.072789         1.9807
  69   0.0000       0.105169         2.8618
  70   0.0000       0.116532         3.1710
  71   0.0000       0.122485         3.3330

MULLIKEN ATOMIC CHARGES
-----------------------
   0 S :    0.128403
   1 C :   -0.138771
   2 C :   -0.101928
   3 C :    0.022026
   4 C :   -0.135056
   5 H :   -0.005874
   6 C :    0.024081
   7 H :    0.030737
   8 H :    0.034467
   9 C :   -0.037765
  10 H :    0.040607
  11 H :    0.027694
  12 C :   -0.036463
  13 H :    0.033347
  14 H :    0.006136
  15 H :    0.032779
  16 S :    0.092862
  17 C :   -0.117690
  18 C :   -0.043362
  19 C :    0.025627
  20 C :   -0.166122
  21 H :    0.026889
  22 C :    0.024867
  23 H :    0.031666
  24 H :    0.025681
  25 C :   -0.080887
  26 H :    0.019136
  27 H :    0.016433
  28 C :   -0.019928
  29 H :    0.035490
  30 H :    0.027292
  31 H :    0.034065
  32 H :    0.066548
  33 H :    0.077013
Sum of atomic charges:   -0.0000000

LOEWDIN ATOMIC CHARGES
----------------------
   0 S :    0.405258
   1 C :   -0.206903
   2 C :   -0.065746
   3 C :   -0.059966
   4 C :   -0.200260
   5 H :    0.022033
   6 C :   -0.036202
   7 H :    0.037925
   8 H :    0.036448
   9 C :   -0.040982
  10 H :    0.030713
  11 H :    0.026030
  12 C :   -0.062590
  13 H :    0.027525
  14 H :    0.015584
  15 H :    0.023536
  16 S :    0.377139
  17 C :   -0.187398
  18 C :   -0.076629
  19 C :   -0.057860
  20 C :   -0.175795
  21 H :    0.036222
  22 C :   -0.032030
  23 H :    0.033631
  24 H :    0.027799
  25 C :   -0.029825
  26 H :    0.013865
  27 H :    0.014409
  28 C :   -0.057278
  29 H :    0.025428
  30 H :    0.024190
  31 H :    0.027705
  32 H :    0.044155
  33 H :    0.039871

  Mayer bond orders larger than 0.100000
B(  0-S ,  1-C ) :   1.1262 B(  0-S ,  4-C ) :   1.1460 B(  1-C ,  2-C ) :   1.6198
B(  1-C , 32-H ) :   0.9539 B(  2-C ,  3-C ) :   1.2383 B(  2-C ,  6-C ) :   1.0091
B(  3-C ,  4-C ) :   1.5616 B(  3-C ,  5-H ) :   1.0006 B(  4-C , 20-C ) :   1.0490
B(  6-C ,  7-H ) :   0.9439 B(  6-C ,  8-H ) :   0.9450 B(  6-C ,  9-C ) :   1.0658
B(  9-C , 10-H ) :   0.9568 B(  9-C , 11-H ) :   0.9513 B(  9-C , 12-C ) :   1.0865
B( 12-C , 13-H ) :   0.9738 B( 12-C , 14-H ) :   0.9722 B( 12-C , 15-H ) :   0.9710
B( 16-S , 17-C ) :   1.1475 B( 16-S , 20-C ) :   1.1316 B( 17-C , 18-C ) :   1.6256
B( 17-C , 33-H ) :   0.9606 B( 18-C , 19-C ) :   1.2206 B( 18-C , 21-H ) :   0.9866
B( 19-C , 20-C ) :   1.5767 B( 19-C , 22-C ) :   1.0605 B( 22-C , 23-H ) :   0.9377
B( 22-C , 24-H ) :   0.9316 B( 22-C , 25-C ) :   1.0513 B( 25-C , 26-H ) :   0.9567
B( 25-C , 27-H ) :   0.9570 B( 25-C , 28-C ) :   1.0916 B( 28-C , 29-H ) :   0.9726
B( 28-C , 30-H ) :   0.9726 B( 28-C , 31-H ) :   0.9758

Dispersion correction           -0.014230681
FINAL SINGLE POINT ENERGY     -1339.872577684276

DIPOLE MOMENT
-------------
                                X             Y             Z
Electronic contribution:     19.69588     -24.04235       1.88136
Nuclear contribution   :    -20.21623      24.49662      -1.75064
                        -----------------------------------------
Total Dipole Moment    :     -0.52035       0.45427       0.13072
                        -----------------------------------------
Magnitude (a.u.)       :      0.70301
Magnitude (Debye)      :      1.78690

Rotational constants in cm-1:     0.016908     0.009508     0.006549
Rotational constants in MHz :   506.886920   285.041760   196.348527

                             ****ORCA TERMINATED NORMALLY****
TOTAL RUN TIME: 0 days 0 hours 0 minutes 30 seconds 341 msec
