                         Program Version 4.2.1 -  RELEASE  -
|  1> ! wB97X-D3 SP def2-SVP
|  2> %pal
|  3> nprocs 16
|  4> end
|  5>
|  6> * xyz 0 1
|  7> S 	 29.7482 	 29.6725 	 56.2599
|  8> C 	 30.974 	 28.4399 	 56.3608
|  9> C 	 32.2058 	 29.0393 	 56.5268
| 10> C 	 32.1847 	 30.5085 	 56.4144
| 11> C 	 30.9056 	 31.0009 	 56.2719
| 12> H 	 33.112 	 31.1169 	 56.4476
| 13> C 	 33.4487 	 28.3171 	 56.6765
| 14> H 	 34.267 	 29.0938 	 56.6352
| 15> H 	 33.6855 	 27.5482 	 55.9192
| 16> C 	 33.5762 	 27.638 	 58.0777
| 17> H 	 33.3923 	 28.3992 	 58.8341
| 18> H 	 32.7537 	 26.9003 	 58.2155
| 19> C 	 34.9241 	 27.1314 	 58.4949
| 20> H 	 35.7008 	 27.8938 	 58.5748
| 21> H 	 35.0125 	 26.5408 	 59.4124
| 22> H 	 35.1657 	 26.5614 	 57.6391
| 23> S 	 29.1759 	 32.5643 	 54.7415
| 24> C 	 29.5641 	 34.3051 	 54.6063
| 25> C 	 30.4015 	 34.6965 	 55.6325
| 26> C 	 30.972 	 33.6071 	 56.3368
| 27> C 	 30.4701 	 32.3527 	 55.9687
| 28> H 	 30.6383 	 35.7424 	 55.6619
| 29> C 	 32.1853 	 33.8228 	 57.2298
| 30> H 	 32.976 	 34.4488 	 56.7291
| 31> H 	 32.5174 	 32.8296 	 57.4789
| 32> C 	 31.932 	 34.5828 	 58.5342
| 33> H 	 31.2116 	 35.4206 	 58.4542
| 34> H 	 32.8529 	 35.0444 	 58.9277
| 35> C 	 31.3113 	 33.6668 	 59.6551
| 36> H 	 31.1611 	 34.2697 	 60.531
| 37> H 	 31.9357 	 32.7922 	 59.955
| 38> H 	 30.3167 	 33.2844 	 59.3446
| 39> H 	 30.6706 	 27.4179 	 56.3528
| 40> H 	 29.1749 	 35.0358 	 53.8707
| 41> *
| 42>
| 43>                          ****END OF INPUT****

CARTESIAN COORDINATES (ANGSTROEM)
---------------------------------
  S     29.748200   29.672500   56.259900
  C     30.974000   28.439900   56.360800
  C     32.205800   29.039300   56.526800
  C     32.184700   30.508500   56.414400
  C     30.905600   31.000900   56.271900
  H     33.112000   31.116900   56.447600
  C     33.448700   28.317100   56.676500
  H     34.267000   29.093800   56.635200
  H     33.685500   27.548200   55.919200
  C     33.576200   27.638000   58.077700
  H     33.392300   28.399200   58.834100
  H     32.753700   26.900300   58.215500
  C     34.924100   27.131400   58.494900
  H     35.700800   27.893800   58.574800
  H     35.012500   26.540800   59.412400
  H     35.165700   26.561400   57.639100
  S     29.175900   32.564300   54.741500
  C     29.564100   34.305100   54.606300
  C     30.401500   34.696500   55.632500
  C     30.972000   33.607100   56.336800
  C     30.470100   32.352700   55.968700
  H     30.638300   35.742400   55.661900
  C     32.185300   33.822800   57.229800
  H     32.976000   34.448800   56.729100
  H     32.517400   32.829600   57.478900
  C     31.932000   34.582800   58.534200
  H     31.211600   35.420600   58.454200
  H     32.852900   35.044400   58.927700
  C     31.311300   33.666800   59.655100
  H     31.161100   34.269700   60.531000
  H     31.935700   32.792200   59.955000
  H     30.316700   33.284400   59.344600
  H     30.670600   27.417900   56.352800
  H     29.174900   35.035800   53.870700

 Total Charge           Charge          ....    0
 Multiplicity           Mult            ....    1
 Number of Electrons    NEL             ....  134
 Basis Dimension        Dim             ....  322

ORBITAL ENERGIES
----------------

  NO   OCC          E(Eh)            E(eV)
   0   2.0000     -88.966789     -2420.9094
   1   2.0000     -88.963063     -2420.8080
   2   2.0000     -10.335312      -281.2381
   3   2.0000     -10.334052      -281.2038
   4   2.0000     -10.324972      -280.9568
   5   2.0000     -10.314471      -280.6710
   6   2.0000     -10.308106      -280.4978
   7   2.0000     -10.303146      -280.3629
   8   2.0000     -10.302796      -280.3533
   9   2.0000     -10.294635      -280.1313
  10   2.0000     -10.294623      -280.1309
  11   2.0000     -10.294552      -280.1290
  12   2.0000     -10.290689      -280.0239
  13   2.0000     -10.285194      -279.8744
  14   2.0000     -10.276359      -279.6340
  15   2.0000     -10.272924      -279.5405
  16   2.0000      -8.080223      -219.8741
  17   2.0000      -8.078168      -219.8181
  18   2.0000      -6.038900      -164.3268
  19   2.0000      -6.036851      -164.2711
  20   2.0000      -6.035036      -164.2217
  21   2.0000      -6.032489      -164.1524
  22   2.0000      -6.030726      -164.1044
  23   2.0000      -6.028885      -164.0543
  24   2.0000      -1.004785       -27.3416
  25   2.0000      -0.981559       -26.7096
  26   2.0000      -0.916526       -24.9399
  27   2.0000      -0.904132       -24.6027
  28   2.0000      -0.873308       -23.7639
  29   2.0000      -0.852830       -23.2067
  30   2.0000      -0.841921       -22.9098
  31   2.0000      -0.817823       -22.2541
  32   2.0000      -0.779436       -21.2095
  33   2.0000      -0.768684       -20.9169
  34   2.0000      -0.706855       -19.2345
  35   2.0000      -0.700150       -19.0520
  36   2.0000      -0.692279       -18.8379
  37   2.0000      -0.659820       -17.9546
  38   2.0000      -0.644632       -17.5413
  39   2.0000      -0.623058       -16.9543
  40   2.0000      -0.593252       -16.1432
  41   2.0000      -0.571226       -15.5438
  42   2.0000      -0.562479       -15.3058
  43   2.0000      -0.552092       -15.0232
  44   2.0000      -0.538027       -14.6405
  45   2.0000      -0.525209       -14.2917
  46   2.0000      -0.521675       -14.1955
  47   2.0000      -0.514777       -14.0078
  48   2.0000      -0.508307       -13.8317
  49   2.0000      -0.501575       -13.6485
  50   2.0000      -0.495796       -13.4913
  51   2.0000      -0.482694       -13.1348
  52   2.0000      -0.468977       -12.7615
  53   2.0000      -0.461518       -12.5585
  54   2.0000      -0.457540       -12.4503
  55   2.0000      -0.452040       -12.3006
  56   2.0000      -0.444106       -12.0847
  57   2.0000      -0.431947       -11.7539
  58   2.0000      -0.425092       -11.5673
  59   2.0000      -0.421602       -11.4724
  60   2.0000      -0.417686       -11.3658
  61   2.0000      -0.411501       -11.1975
  62   2.0000      -0.405307       -11.0290
  63   2.0000      -0.359296        -9.7769
  64   2.0000      -0.332338        -9.0434
  65   2.0000      -0.324583        -8.8324
  66   2.0000      -0.286879        -7.8064
  67   0.0000       0.020743         0.5644
  68   0.0000       0.068880         1.8743
  69   0.0000       0.102846         2.7986
  70   0.0000       0.113500         3.0885
  71   0.0000       0.129819         3.5325

MULLIKEN ATOMIC CHARGES
-----------------------
   0 S :    0.087861
   1 C :   -0.117535
   2 C :   -0.068517
   3 C :    0.004946
   4 C :   -0.135248
   5 H :    0.043376
   6 C :    0.037317
   7 H :    0.016482
   8 H :    0.045204
   9 C :   -0.103713
  10 H :    0.020286
  11 H :    0.032861
  12 C :   -0.019612
  13 H :    0.025148
  14 H :    0.044529
  15 H :    0.008963
  16 S :    0.095155
  17 C :   -0.113687
  18 C :   -0.026200
  19 C :   -0.035633
  20 C :   -0.118784
  21 H :    0.019118
  22 C :    0.081552
  23 H :    0.046298
  24 H :    0.006830
  25 C :   -0.092999
  26 H :    0.032934
  27 H :    0.030243
  28 C :   -0.079811
  29 H :    0.027971
  30 H :    0.039455
  31 H :    0.043695
  32 H :    0.050127
  33 H :    0.071390
Sum of atomic charges:    0.0000000

LOEWDIN ATOMIC CHARGES
----------------------
   0 S :    0.397036
   1 C :   -0.187202
   2 C :   -0.063168
   3 C :   -0.068836
   4 C :   -0.183588
   5 H :    0.038573
   6 C :   -0.039081
   7 H :    0.032835
   8 H :    0.033593
   9 C :   -0.044874
  10 H :    0.021244
  11 H :    0.024438
  12 C :   -0.068350
  13 H :    0.024772
  14 H :    0.032046
  15 H :    0.017657
  16 S :    0.369304
  17 C :   -0.170399
  18 C :   -0.070404
  19 C :   -0.052086
  20 C :   -0.184273
  21 H :    0.031966
  22 C :   -0.032212
  23 H :    0.040439
  24 H :    0.024966
  25 C :   -0.043174
  26 H :    0.025330
  27 H :    0.023587
  28 C :   -0.070486
  29 H :    0.020563
  30 H :    0.025879
  31 H :    0.029127
  32 H :    0.025449
  33 H :    0.039327

  Mayer bond orders larger than 0.100000
B(  0-S ,  1-C ) :   1.1284 B(  0-S ,  4-C ) :   1.1483 B(  1-C ,  2-C ) :   1.5875
B(  1-C , 32-H ) :   0.9835 B(  2-C ,  3-C ) :   1.2373 B(  2-C ,  6-C ) :   1.0523
B(  3-C ,  4-C ) :   1.5711 B(  3-C ,  5-H ) :   0.9734 B(  4-C , 20-C ) :   1.0609
B(  6-C ,  7-H ) :   0.9380 B(  6-C ,  8-H ) :   0.9360 B(  6-C ,  9-C ) :   1.0496
B(  9-C , 10-H ) :   0.9575 B(  9-C , 11-H ) :   0.9569 B(  9-C , 12-C ) :   1.0764
B( 12-C , 13-H ) :   0.9728 B( 12-C , 14-H ) :   0.9727 B( 12-C , 15-H ) :   0.9721
B( 16-S , 17-C ) :   1.1399 B( 16-S , 20-C ) :   1.1127 B( 17-C , 18-C ) :   1.6409
B( 17-C , 33-H ) :   0.9616 B( 18-C , 19-C ) :   1.2143 B( 18-C , 21-H ) :   0.9910
B( 19-C , 20-C ) :   1.5953 B( 19-C , 22-C ) :   1.0468 B( 22-C , 23-H ) :   0.9401
B( 22-C , 24-H ) :   0.9282 B( 22-C , 25-C ) :   1.0606 B( 25-C , 26-H ) :   0.9610
B( 25-C , 27-H ) :   0.9573 B( 25-C , 28-C ) :   1.0752 B( 28-C , 29-H ) :   0.9757
B( 28-C , 30-H ) :   0.9752 B( 28-C , 31-H ) :   0.9778

Dispersion correction           -0.013853218
FINAL SINGLE POINT ENERGY     -1339.873213012139

DIPOLE MOMENT
-------------
                                X             Y             Z
Electronic contribution:    -22.00349       2.82284     -18.68253
Nuclear contribution   :     22.63873      -2.60396      18.82870
                        -----------------------------------------
Total Dipole Moment    :      0.63524       0.21889       0.14617
                        -----------------------------------------
Magnitude (a.u.)       :      0.68761
Magnitude (Debye)      :      1.74777

Rotational constants in cm-1:     0.019811     0.008234     0.006468
Rotational constants in MHz :   593.911159   246.841019   193.894867

                             ****ORCA TERMINATED NORMALLY****
TOTAL RUN TIME: 0 days 0 hours 0 minutes 34 seconds 626 msec
