                         Program Version 4.2.1 -  RELEASE  -
|  1> ! wB97X-D3 SP def2-SVP
|  2> %pal
|  3> nprocs 16
|  4> end
|  5>
|  6> * xyz 0 1
|  7> S 	 3.67638 	 6.06904 	 83.0386
|  8> C 	 4.60239 	 4.90558 	 82.1369
|  9> C 	 5.94932 	 5.16758 	 82.3034
| 10> C 	 6.19827 	 6.44663 	 82.9326
| 11> C 	 5.02773 	 7.03607 	 83.3959
| 12> H 	 7.02587 	 7.08956 	 83.0143
| 13> C 	 7.133 	 4.55039 	 81.6248
| 14> H 	 6.7804 	 3.53366 	 81.2184
| 15> H 	 7.80841 	 4.26367 	 82.367
| 16> C 	 7.75971 	 5.52709 	 80.5074
| 17> H 	 6.98294 	 6.23923 	 80.183
| 18> H 	 8.60179 	 6.05307 	 80.9413
| 19> C 	 8.22609 	 4.76785 	 79.2483
| 20> H 	 7.31784 	 4.31961 	 78.7069
| 21> H 	 8.81485 	 5.3353 	 78.5577
| 22> H 	 8.81884 	 3.93748 	 79.5302
| 23> S 	 5.36261 	 9.70296 	 82.9622
| 24> C 	 4.81943 	 10.8066 	 84.2181
| 25> C 	 4.32544 	 10.128 	 85.3171
| 26> C 	 4.14662 	 8.76003 	 85.0958
| 27> C 	 4.83373 	 8.36846 	 83.9325
| 28> H 	 3.97471 	 10.5031 	 86.2564
| 29> C 	 3.63704 	 7.85791 	 86.2548
| 30> H 	 3.0592 	 7.01764 	 85.8355
| 31> H 	 2.83681 	 8.24632 	 86.8773
| 32> C 	 4.70319 	 7.21736 	 87.1943
| 33> H 	 4.16306 	 6.90297 	 88.0719
| 34> H 	 5.46518 	 8.01234 	 87.5148
| 35> C 	 5.45374 	 5.98014 	 86.7223
| 36> H 	 4.81781 	 5.21394 	 86.3263
| 37> H 	 6.08744 	 5.6534 	 87.5854
| 38> H 	 6.12716 	 6.11053 	 85.8737
| 39> H 	 4.26869 	 4.01319 	 81.6037
| 40> H 	 4.96279 	 11.8338 	 84.2008
| 41> *
| 42>
| 43>                          ****END OF INPUT****

CARTESIAN COORDINATES (ANGSTROEM)
---------------------------------
  S      3.676380    6.069040   83.038600
  C      4.602390    4.905580   82.136900
  C      5.949320    5.167580   82.303400
  C      6.198270    6.446630   82.932600
  C      5.027730    7.036070   83.395900
  H      7.025870    7.089560   83.014300
  C      7.133000    4.550390   81.624800
  H      6.780400    3.533660   81.218400
  H      7.808410    4.263670   82.367000
  C      7.759710    5.527090   80.507400
  H      6.982940    6.239230   80.183000
  H      8.601790    6.053070   80.941300
  C      8.226090    4.767850   79.248300
  H      7.317840    4.319610   78.706900
  H      8.814850    5.335300   78.557700
  H      8.818840    3.937480   79.530200
  S      5.362610    9.702960   82.962200
  C      4.819430   10.806600   84.218100
  C      4.325440   10.128000   85.317100
  C      4.146620    8.760030   85.095800
  C      4.833730    8.368460   83.932500
  H      3.974710   10.503100   86.256400
  C      3.637040    7.857910   86.254800
  H      3.059200    7.017640   85.835500
  H      2.836810    8.246320   86.877300
  C      4.703190    7.217360   87.194300
  H      4.163060    6.902970   88.071900
  H      5.465180    8.012340   87.514800
  C      5.453740    5.980140   86.722300
  H      4.817810    5.213940   86.326300
  H      6.087440    5.653400   87.585400
  H      6.127160    6.110530   85.873700
  H      4.268690    4.013190   81.603700
  H      4.962790   11.833800   84.200800

 Total Charge           Charge          ....    0
 Multiplicity           Mult            ....    1
 Number of Electrons    NEL             ....  134
 Basis Dimension        Dim             ....  322

ORBITAL ENERGIES
----------------

  NO   OCC          E(Eh)            E(eV)
   0   2.0000     -88.973067     -2421.0802
   1   2.0000     -88.964179     -2420.8384
   2   2.0000     -10.326796      -281.0064
   3   2.0000     -10.321827      -280.8712
   4   2.0000     -10.313858      -280.6544
   5   2.0000     -10.313124      -280.6344
   6   2.0000     -10.302178      -280.3365
   7   2.0000     -10.301288      -280.3123
   8   2.0000     -10.294611      -280.1306
   9   2.0000     -10.294447      -280.1261
  10   2.0000     -10.293733      -280.1067
  11   2.0000     -10.289776      -279.9990
  12   2.0000     -10.288123      -279.9541
  13   2.0000     -10.287949      -279.9493
  14   2.0000     -10.278615      -279.6953
  15   2.0000     -10.268440      -279.4184
  16   2.0000      -8.087532      -220.0729
  17   2.0000      -8.079655      -219.8586
  18   2.0000      -6.045975      -164.5193
  19   2.0000      -6.042093      -164.4137
  20   2.0000      -6.038376      -164.3126
  21   2.0000      -6.038175      -164.3071
  22   2.0000      -6.033875      -164.1901
  23   2.0000      -6.030528      -164.0990
  24   2.0000      -1.012278       -27.5455
  25   2.0000      -0.987804       -26.8795
  26   2.0000      -0.906388       -24.6641
  27   2.0000      -0.900284       -24.4980
  28   2.0000      -0.870357       -23.6836
  29   2.0000      -0.852489       -23.1974
  30   2.0000      -0.844550       -22.9814
  31   2.0000      -0.812089       -22.0981
  32   2.0000      -0.783649       -21.3242
  33   2.0000      -0.771074       -20.9820
  34   2.0000      -0.708513       -19.2796
  35   2.0000      -0.697430       -18.9780
  36   2.0000      -0.687938       -18.7197
  37   2.0000      -0.669169       -18.2090
  38   2.0000      -0.643765       -17.5177
  39   2.0000      -0.611403       -16.6371
  40   2.0000      -0.602466       -16.3939
  41   2.0000      -0.571340       -15.5469
  42   2.0000      -0.555207       -15.1080
  43   2.0000      -0.543472       -14.7886
  44   2.0000      -0.532895       -14.5008
  45   2.0000      -0.525125       -14.2894
  46   2.0000      -0.513491       -13.9728
  47   2.0000      -0.512866       -13.9558
  48   2.0000      -0.506204       -13.7745
  49   2.0000      -0.496496       -13.5103
  50   2.0000      -0.489213       -13.3122
  51   2.0000      -0.478215       -13.0129
  52   2.0000      -0.469256       -12.7691
  53   2.0000      -0.466662       -12.6985
  54   2.0000      -0.461053       -12.5459
  55   2.0000      -0.446385       -12.1468
  56   2.0000      -0.436499       -11.8778
  57   2.0000      -0.433266       -11.7898
  58   2.0000      -0.429512       -11.6876
  59   2.0000      -0.424351       -11.5472
  60   2.0000      -0.423041       -11.5115
  61   2.0000      -0.415489       -11.3060
  62   2.0000      -0.409855       -11.1527
  63   2.0000      -0.343716        -9.3530
  64   2.0000      -0.336571        -9.1586
  65   2.0000      -0.326473        -8.8838
  66   2.0000      -0.291536        -7.9331
  67   0.0000       0.033109         0.9009
  68   0.0000       0.068418         1.8618
  69   0.0000       0.103776         2.8239
  70   0.0000       0.120985         3.2922
  71   0.0000       0.129370         3.5203

MULLIKEN ATOMIC CHARGES
-----------------------
   0 S :    0.120564
   1 C :   -0.117341
   2 C :   -0.104279
   3 C :    0.032592
   4 C :   -0.164143
   5 H :   -0.008156
   6 C :    0.068336
   7 H :    0.019526
   8 H :    0.024480
   9 C :   -0.079945
  10 H :    0.055206
  11 H :    0.037646
  12 C :   -0.057088
  13 H :    0.040275
  14 H :    0.034089
  15 H :    0.022170
  16 S :    0.133408
  17 C :   -0.063288
  18 C :   -0.003115
  19 C :   -0.021394
  20 C :   -0.168496
  21 H :    0.006415
  22 C :    0.040696
  23 H :    0.012471
  24 H :    0.021565
  25 C :   -0.075078
  26 H :    0.024662
  27 H :    0.036269
  28 C :   -0.043151
  29 H :    0.021931
  30 H :    0.038733
  31 H :    0.030456
  32 H :    0.050776
  33 H :    0.033207
Sum of atomic charges:   -0.0000000

LOEWDIN ATOMIC CHARGES
----------------------
   0 S :    0.436457
   1 C :   -0.210146
   2 C :   -0.064060
   3 C :   -0.067018
   4 C :   -0.206242
   5 H :    0.021784
   6 C :   -0.032220
   7 H :    0.031590
   8 H :    0.024120
   9 C :   -0.032994
  10 H :    0.030817
  11 H :    0.023955
  12 C :   -0.066800
  13 H :    0.033903
  14 H :    0.021957
  15 H :    0.017270
  16 S :    0.427934
  17 C :   -0.179182
  18 C :   -0.057728
  19 C :   -0.058713
  20 C :   -0.205322
  21 H :    0.029239
  22 C :   -0.043126
  23 H :    0.027062
  24 H :    0.032114
  25 C :   -0.041454
  26 H :    0.022827
  27 H :    0.030549
  28 C :   -0.072996
  29 H :    0.020916
  30 H :    0.033030
  31 H :    0.023897
  32 H :    0.034512
  33 H :    0.014070

  Mayer bond orders larger than 0.100000
B(  0-S ,  1-C ) :   1.1323 B(  0-S ,  4-C ) :   1.1703 B(  1-C ,  2-C ) :   1.6208
B(  1-C , 32-H ) :   0.9665 B(  2-C ,  3-C ) :   1.1870 B(  2-C ,  6-C ) :   1.0493
B(  3-C ,  4-C ) :   1.5835 B(  3-C ,  5-H ) :   1.0050 B(  4-C , 20-C ) :   1.0314
B(  6-C ,  7-H ) :   0.9492 B(  6-C ,  8-H ) :   0.9318 B(  6-C ,  9-C ) :   1.0222
B(  9-C , 10-H ) :   0.9683 B(  9-C , 11-H ) :   0.9532 B(  9-C , 12-C ) :   1.0848
B( 12-C , 13-H ) :   0.9755 B( 12-C , 14-H ) :   0.9754 B( 12-C , 15-H ) :   0.9764
B( 16-S , 17-C ) :   1.1468 B( 16-S , 20-C ) :   1.1711 B( 17-C , 18-C ) :   1.5722
B( 17-C , 20-C ) :   0.1107 B( 17-C , 33-H ) :   0.9771 B( 18-C , 19-C ) :   1.2893
B( 18-C , 21-H ) :   0.9861 B( 19-C , 20-C ) :   1.5388 B( 19-C , 22-C ) :   1.0492
B( 22-C , 23-H ) :   0.9264 B( 22-C , 24-H ) :   0.9410 B( 22-C , 25-C ) :   1.0658
B( 25-C , 26-H ) :   0.9523 B( 25-C , 27-H ) :   0.9550 B( 25-C , 28-C ) :   1.0892
B( 28-C , 29-H ) :   0.9704 B( 28-C , 30-H ) :   0.9708 B( 28-C , 31-H ) :   0.9694

Dispersion correction           -0.015641721
FINAL SINGLE POINT ENERGY     -1339.864233428094

DIPOLE MOMENT
-------------
                                X             Y             Z
Electronic contribution:    -11.90726      13.57870      -2.01931
Nuclear contribution   :     12.18956     -13.68404       2.10979
                        -----------------------------------------
Total Dipole Moment    :      0.28231      -0.10534       0.09049
                        -----------------------------------------
Magnitude (a.u.)       :      0.31461
Magnitude (Debye)      :      0.79968

Rotational constants in cm-1:     0.021139     0.008761     0.007328
Rotational constants in MHz :   633.720394   262.634048   219.682618

                             ****ORCA TERMINATED NORMALLY****
TOTAL RUN TIME: 0 days 0 hours 0 minutes 33 seconds 974 msec
