                         Program Version 4.2.1 -  RELEASE  -
|  1> ! wB97X-D3 SP def2-SVP
|  2> %pal
|  3> nprocs 16
|  4> end
|  5>
|  6> * xyz 0 1
|  7> S 	 -5.22234 	 -10.4442 	 87.1955
|  8> C 	 -5.22375 	 -11.5127 	 88.5777
|  9> C 	 -4.65547 	 -12.7656 	 88.2594
| 10> C 	 -4.35655 	 -12.9501 	 86.887
| 11> C 	 -4.65114 	 -11.7896 	 86.1267
| 12> H 	 -3.9189 	 -13.8105 	 86.3251
| 13> C 	 -4.31419 	 -13.8246 	 89.3332
| 14> H 	 -3.8957 	 -13.3026 	 90.1566
| 15> H 	 -3.639 	 -14.5128 	 88.9207
| 16> C 	 -5.48891 	 -14.5236 	 90.0818
| 17> H 	 -6.12328 	 -13.716 	 90.5276
| 18> H 	 -6.08807 	 -14.9397 	 89.2695
| 19> C 	 -5.01582 	 -15.6776 	 90.9399
| 20> H 	 -5.92615 	 -16.2147 	 91.2349
| 21> H 	 -4.41691 	 -16.3867 	 90.3762
| 22> H 	 -4.5504 	 -15.2557 	 91.8335
| 23> S 	 -3.62918 	 -10.3545 	 84.0264
| 24> C 	 -3.67116 	 -11.056 	 82.4256
| 25> C 	 -4.64502 	 -12.0713 	 82.3372
| 26> C 	 -5.05142 	 -12.5362 	 83.6346
| 27> C 	 -4.5959 	 -11.6722 	 84.6746
| 28> H 	 -4.8733 	 -12.551 	 81.385
| 29> C 	 -5.98447 	 -13.7561 	 83.9164
| 30> H 	 -5.78286 	 -13.9965 	 84.9653
| 31> H 	 -5.69552 	 -14.5846 	 83.3184
| 32> C 	 -7.46191 	 -13.3942 	 83.6863
| 33> H 	 -7.65737 	 -13.1698 	 82.6951
| 34> H 	 -7.68776 	 -12.6051 	 84.4092
| 35> C 	 -8.40887 	 -14.5997 	 84.0986
| 36> H 	 -8.37025 	 -15.3952 	 83.3333
| 37> H 	 -9.4638 	 -14.2669 	 84.1343
| 38> H 	 -8.10906 	 -15.059 	 85.0168
| 39> H 	 -5.57622 	 -11.29 	 89.548
| 40> H 	 -3.24643 	 -10.4765 	 81.619
| 41> *
| 42>
| 43>                          ****END OF INPUT****

CARTESIAN COORDINATES (ANGSTROEM)
---------------------------------
  S     -5.222340  -10.444200   87.195500
  C     -5.223750  -11.512700   88.577700
  C     -4.655470  -12.765600   88.259400
  C     -4.356550  -12.950100   86.887000
  C     -4.651140  -11.789600   86.126700
  H     -3.918900  -13.810500   86.325100
  C     -4.314190  -13.824600   89.333200
  H     -3.895700  -13.302600   90.156600
  H     -3.639000  -14.512800   88.920700
  C     -5.488910  -14.523600   90.081800
  H     -6.123280  -13.716000   90.527600
  H     -6.088070  -14.939700   89.269500
  C     -5.015820  -15.677600   90.939900
  H     -5.926150  -16.214700   91.234900
  H     -4.416910  -16.386700   90.376200
  H     -4.550400  -15.255700   91.833500
  S     -3.629180  -10.354500   84.026400
  C     -3.671160  -11.056000   82.425600
  C     -4.645020  -12.071300   82.337200
  C     -5.051420  -12.536200   83.634600
  C     -4.595900  -11.672200   84.674600
  H     -4.873300  -12.551000   81.385000
  C     -5.984470  -13.756100   83.916400
  H     -5.782860  -13.996500   84.965300
  H     -5.695520  -14.584600   83.318400
  C     -7.461910  -13.394200   83.686300
  H     -7.657370  -13.169800   82.695100
  H     -7.687760  -12.605100   84.409200
  C     -8.408870  -14.599700   84.098600
  H     -8.370250  -15.395200   83.333300
  H     -9.463800  -14.266900   84.134300
  H     -8.109060  -15.059000   85.016800
  H     -5.576220  -11.290000   89.548000
  H     -3.246430  -10.476500   81.619000

 Total Charge           Charge          ....    0
 Multiplicity           Mult            ....    1
 Number of Electrons    NEL             ....  134
 Basis Dimension        Dim             ....  322

ORBITAL ENERGIES
----------------

  NO   OCC          E(Eh)            E(eV)
   0   2.0000     -88.971223     -2421.0301
   1   2.0000     -88.965070     -2420.8626
   2   2.0000     -10.336786      -281.2782
   3   2.0000     -10.329568      -281.0818
   4   2.0000     -10.321053      -280.8501
   5   2.0000     -10.314850      -280.6813
   6   2.0000     -10.311876      -280.6004
   7   2.0000     -10.306016      -280.4409
   8   2.0000     -10.302941      -280.3573
   9   2.0000     -10.302741      -280.3518
  10   2.0000     -10.290867      -280.0287
  11   2.0000     -10.288014      -279.9511
  12   2.0000     -10.283523      -279.8289
  13   2.0000     -10.282485      -279.8006
  14   2.0000     -10.282179      -279.7923
  15   2.0000     -10.278188      -279.6837
  16   2.0000      -8.084676      -219.9952
  17   2.0000      -8.079966      -219.8671
  18   2.0000      -6.043216      -164.4443
  19   2.0000      -6.039356      -164.3392
  20   2.0000      -6.038372      -164.3125
  21   2.0000      -6.035504      -164.2344
  22   2.0000      -6.034435      -164.2053
  23   2.0000      -6.030847      -164.1077
  24   2.0000      -0.998061       -27.1586
  25   2.0000      -0.976013       -26.5587
  26   2.0000      -0.909337       -24.7443
  27   2.0000      -0.903134       -24.5755
  28   2.0000      -0.865849       -23.5609
  29   2.0000      -0.851162       -23.1613
  30   2.0000      -0.843304       -22.9475
  31   2.0000      -0.809873       -22.0378
  32   2.0000      -0.780370       -21.2350
  33   2.0000      -0.766097       -20.8466
  34   2.0000      -0.703434       -19.1414
  35   2.0000      -0.699972       -19.0472
  36   2.0000      -0.692475       -18.8432
  37   2.0000      -0.660672       -17.9778
  38   2.0000      -0.641000       -17.4425
  39   2.0000      -0.613202       -16.6861
  40   2.0000      -0.590981       -16.0814
  41   2.0000      -0.573682       -15.6107
  42   2.0000      -0.572535       -15.5795
  43   2.0000      -0.558454       -15.1963
  44   2.0000      -0.525983       -14.3127
  45   2.0000      -0.517476       -14.0812
  46   2.0000      -0.516148       -14.0451
  47   2.0000      -0.510970       -13.9042
  48   2.0000      -0.501139       -13.6367
  49   2.0000      -0.497220       -13.5300
  50   2.0000      -0.487055       -13.2534
  51   2.0000      -0.481264       -13.0959
  52   2.0000      -0.476629       -12.9697
  53   2.0000      -0.465744       -12.6735
  54   2.0000      -0.459664       -12.5081
  55   2.0000      -0.452359       -12.3093
  56   2.0000      -0.448108       -12.1936
  57   2.0000      -0.437614       -11.9081
  58   2.0000      -0.429806       -11.6956
  59   2.0000      -0.426179       -11.5969
  60   2.0000      -0.421657       -11.4739
  61   2.0000      -0.412273       -11.2185
  62   2.0000      -0.410137       -11.1604
  63   2.0000      -0.346320        -9.4238
  64   2.0000      -0.332605        -9.0506
  65   2.0000      -0.328144        -8.9293
  66   2.0000      -0.282722        -7.6933
  67   0.0000       0.023063         0.6276
  68   0.0000       0.056676         1.5422
  69   0.0000       0.109071         2.9680
  70   0.0000       0.115523         3.1435
  71   0.0000       0.128556         3.4982

MULLIKEN ATOMIC CHARGES
-----------------------
   0 S :    0.115154
   1 C :   -0.102811
   2 C :   -0.086021
   3 C :    0.017120
   4 C :   -0.163828
   5 H :    0.045888
   6 C :    0.092165
   7 H :    0.016027
   8 H :    0.004704
   9 C :   -0.118723
  10 H :    0.034808
  11 H :    0.020279
  12 C :   -0.019845
  13 H :    0.036764
  14 H :    0.036867
  15 H :    0.037910
  16 S :    0.101420
  17 C :   -0.103691
  18 C :   -0.026579
  19 C :   -0.073181
  20 C :   -0.158358
  21 H :    0.029378
  22 C :    0.090831
  23 H :    0.011701
  24 H :    0.014977
  25 C :   -0.045053
  26 H :    0.019707
  27 H :    0.041573
  28 C :   -0.059965
  29 H :    0.023560
  30 H :    0.042325
  31 H :    0.026726
  32 H :    0.032480
  33 H :    0.065689
Sum of atomic charges:    0.0000000

LOEWDIN ATOMIC CHARGES
----------------------
   0 S :    0.391150
   1 C :   -0.198433
   2 C :   -0.057681
   3 C :   -0.069363
   4 C :   -0.179448
   5 H :    0.044800
   6 C :   -0.026939
   7 H :    0.026200
   8 H :    0.018902
   9 C :   -0.045307
  10 H :    0.026016
  11 H :    0.018317
  12 C :   -0.061235
  13 H :    0.031945
  14 H :    0.028331
  15 H :    0.027057
  16 S :    0.407211
  17 C :   -0.184328
  18 C :   -0.069866
  19 C :   -0.048211
  20 C :   -0.207175
  21 H :    0.033880
  22 C :   -0.024954
  23 H :    0.029430
  24 H :    0.021154
  25 C :   -0.024008
  26 H :    0.013377
  27 H :    0.031256
  28 C :   -0.066257
  29 H :    0.021779
  30 H :    0.029138
  31 H :    0.018804
  32 H :    0.019376
  33 H :    0.025083

  Mayer bond orders larger than 0.100000
B(  0-S ,  1-C ) :   1.1403 B(  0-S ,  4-C ) :   1.1495 B(  1-C ,  2-C ) :   1.5854
B(  1-C ,  4-C ) :   0.1121 B(  1-C , 32-H ) :   0.9747 B(  2-C ,  3-C ) :   1.2568
B(  2-C ,  6-C ) :   1.0215 B(  3-C ,  4-C ) :   1.5543 B(  3-C ,  5-H ) :   0.9778
B(  4-C , 20-C ) :   1.0405 B(  6-C ,  7-H ) :   0.9401 B(  6-C ,  8-H ) :   0.9472
B(  6-C ,  9-C ) :   1.0531 B(  9-C , 10-H ) :   0.9572 B(  9-C , 11-H ) :   0.9573
B(  9-C , 12-C ) :   1.0817 B( 12-C , 13-H ) :   0.9723 B( 12-C , 14-H ) :   0.9712
B( 12-C , 15-H ) :   0.9755 B( 16-S , 17-C ) :   1.1750 B( 16-S , 20-C ) :   1.1510
B( 17-C , 18-C ) :   1.5766 B( 17-C , 20-C ) :   0.1110 B( 17-C , 33-H ) :   0.9668
B( 18-C , 19-C ) :   1.2580 B( 18-C , 21-H ) :   0.9868 B( 19-C , 20-C ) :   1.5630
B( 19-C , 22-C ) :   1.0352 B( 22-C , 23-H ) :   0.9298 B( 22-C , 24-H ) :   0.9338
B( 22-C , 25-C ) :   1.0730 B( 25-C , 26-H ) :   0.9605 B( 25-C , 27-H ) :   0.9578
B( 25-C , 28-C ) :   1.0767 B( 28-C , 29-H ) :   0.9766 B( 28-C , 30-H ) :   0.9774
B( 28-C , 31-H ) :   0.9773

Dispersion correction           -0.013685359
FINAL SINGLE POINT ENERGY     -1339.867777917014

DIPOLE MOMENT
-------------
                                X             Y             Z
Electronic contribution:     12.56363      25.88693     -10.51460
Nuclear contribution   :    -12.73749     -26.51426      10.54316
                        -----------------------------------------
Total Dipole Moment    :     -0.17386      -0.62733       0.02856
                        -----------------------------------------
Magnitude (a.u.)       :      0.65160
Magnitude (Debye)      :      1.65625

Rotational constants in cm-1:     0.018049     0.008097     0.006408
Rotational constants in MHz :   541.107898   242.751763   192.111165

                             ****ORCA TERMINATED NORMALLY****
TOTAL RUN TIME: 0 days 0 hours 0 minutes 32 seconds 312 msec
