                         Program Version 4.2.1 -  RELEASE  -
|  1> ! wB97X-D3 SP def2-SVP
|  2> %pal
|  3> nprocs 16
|  4> end
|  5>
|  6> * xyz 0 1
|  7> S 	 -2.07227 	 -1.83303 	 77.5213
|  8> C 	 -1.79646 	 -2.53503 	 79.1283
|  9> C 	 -0.48751 	 -2.23474 	 79.5304
| 10> C 	 0.281793 	 -1.69729 	 78.4536
| 11> C 	 -0.371888 	 -1.61635 	 77.2904
| 12> H 	 1.32503 	 -1.40179 	 78.4944
| 13> C 	 0.0529926 	 -2.43567 	 80.9614
| 14> H 	 -0.763583 	 -2.5474 	 81.6543
| 15> H 	 0.466373 	 -1.53839 	 81.4442
| 16> C 	 1.06031 	 -3.66611 	 80.895
| 17> H 	 1.01653 	 -4.12602 	 81.9078
| 18> H 	 0.68598 	 -4.37624 	 80.19
| 19> C 	 2.49982 	 -3.20914 	 80.6505
| 20> H 	 2.69672 	 -2.9524 	 79.5879
| 21> H 	 2.88815 	 -2.38317 	 81.2145
| 22> H 	 3.30316 	 -3.9565 	 80.8782
| 23> S 	 1.13721 	 -2.51588 	 75.1566
| 24> C 	 1.30752 	 -1.44088 	 73.7622
| 25> C 	 0.730817 	 -0.255846 	 74.0131
| 26> C 	 -0.00532661 	 -0.129874 	 75.2541
| 27> C 	 0.245413 	 -1.19231 	 76.0639
| 28> H 	 0.832454 	 0.582111 	 73.2848
| 29> C 	 -0.889825 	 1.0654 	 75.595
| 30> H 	 -0.401795 	 1.95569 	 75.2784
| 31> H 	 -1.08751 	 1.25085 	 76.6638
| 32> C 	 -2.23918 	 0.891626 	 74.9029
| 33> H 	 -2.66894 	 -0.148063 	 75.0092
| 34> H 	 -2.03094 	 0.921966 	 73.8246
| 35> C 	 -3.14788 	 2.02466 	 75.4791
| 36> H 	 -2.80317 	 3.02316 	 75.2492
| 37> H 	 -3.37971 	 1.81036 	 76.5538
| 38> H 	 -4.03157 	 1.98611 	 75.0089
| 39> H 	 -2.67558 	 -2.94265 	 79.6863
| 40> H 	 1.93271 	 -1.58483 	 72.8828
| 41> *
| 42>
| 43>                          ****END OF INPUT****

CARTESIAN COORDINATES (ANGSTROEM)
---------------------------------
  S     -2.072270   -1.833030   77.521300
  C     -1.796460   -2.535030   79.128300
  C     -0.487510   -2.234740   79.530400
  C      0.281793   -1.697290   78.453600
  C     -0.371888   -1.616350   77.290400
  H      1.325030   -1.401790   78.494400
  C      0.052993   -2.435670   80.961400
  H     -0.763583   -2.547400   81.654300
  H      0.466373   -1.538390   81.444200
  C      1.060310   -3.666110   80.895000
  H      1.016530   -4.126020   81.907800
  H      0.685980   -4.376240   80.190000
  C      2.499820   -3.209140   80.650500
  H      2.696720   -2.952400   79.587900
  H      2.888150   -2.383170   81.214500
  H      3.303160   -3.956500   80.878200
  S      1.137210   -2.515880   75.156600
  C      1.307520   -1.440880   73.762200
  C      0.730817   -0.255846   74.013100
  C     -0.005327   -0.129874   75.254100
  C      0.245413   -1.192310   76.063900
  H      0.832454    0.582111   73.284800
  C     -0.889825    1.065400   75.595000
  H     -0.401795    1.955690   75.278400
  H     -1.087510    1.250850   76.663800
  C     -2.239180    0.891626   74.902900
  H     -2.668940   -0.148063   75.009200
  H     -2.030940    0.921966   73.824600
  C     -3.147880    2.024660   75.479100
  H     -2.803170    3.023160   75.249200
  H     -3.379710    1.810360   76.553800
  H     -4.031570    1.986110   75.008900
  H     -2.675580   -2.942650   79.686300
  H      1.932710   -1.584830   72.882800

 Total Charge           Charge          ....    0
 Multiplicity           Mult            ....    1
 Number of Electrons    NEL             ....  134
 Basis Dimension        Dim             ....  322

ORBITAL ENERGIES
----------------

  NO   OCC          E(Eh)            E(eV)
   0   2.0000     -88.961279     -2420.7595
   1   2.0000     -88.958807     -2420.6922
   2   2.0000     -10.322843      -280.8988
   3   2.0000     -10.320707      -280.8407
   4   2.0000     -10.317347      -280.7493
   5   2.0000     -10.315185      -280.6904
   6   2.0000     -10.306085      -280.4428
   7   2.0000     -10.302481      -280.3448
   8   2.0000     -10.295467      -280.1539
   9   2.0000     -10.292937      -280.0851
  10   2.0000     -10.291859      -280.0557
  11   2.0000     -10.290083      -280.0074
  12   2.0000     -10.288699      -279.9697
  13   2.0000     -10.286294      -279.9043
  14   2.0000     -10.279265      -279.7130
  15   2.0000     -10.272599      -279.5316
  16   2.0000      -8.076102      -219.7619
  17   2.0000      -8.072439      -219.6622
  18   2.0000      -6.034582      -164.2093
  19   2.0000      -6.031272      -164.1192
  20   2.0000      -6.030863      -164.1081
  21   2.0000      -6.027250      -164.0098
  22   2.0000      -6.026634      -163.9930
  23   2.0000      -6.022759      -163.8876
  24   2.0000      -1.006158       -27.3789
  25   2.0000      -0.979796       -26.6616
  26   2.0000      -0.909215       -24.7410
  27   2.0000      -0.903657       -24.5898
  28   2.0000      -0.869059       -23.6483
  29   2.0000      -0.843545       -22.9540
  30   2.0000      -0.840154       -22.8618
  31   2.0000      -0.813290       -22.1308
  32   2.0000      -0.783259       -21.3136
  33   2.0000      -0.770759       -20.9734
  34   2.0000      -0.705473       -19.1969
  35   2.0000      -0.700784       -19.0693
  36   2.0000      -0.694919       -18.9097
  37   2.0000      -0.660293       -17.9675
  38   2.0000      -0.640667       -17.4334
  39   2.0000      -0.618151       -16.8207
  40   2.0000      -0.599820       -16.3219
  41   2.0000      -0.565431       -15.3862
  42   2.0000      -0.561555       -15.2807
  43   2.0000      -0.535467       -14.5708
  44   2.0000      -0.533014       -14.5040
  45   2.0000      -0.520718       -14.1694
  46   2.0000      -0.514906       -14.0113
  47   2.0000      -0.512011       -13.9325
  48   2.0000      -0.504663       -13.7326
  49   2.0000      -0.502996       -13.6872
  50   2.0000      -0.486779       -13.2459
  51   2.0000      -0.477713       -12.9992
  52   2.0000      -0.469800       -12.7839
  53   2.0000      -0.460273       -12.5247
  54   2.0000      -0.456125       -12.4118
  55   2.0000      -0.449931       -12.2432
  56   2.0000      -0.444040       -12.0829
  57   2.0000      -0.436631       -11.8813
  58   2.0000      -0.432252       -11.7622
  59   2.0000      -0.420944       -11.4545
  60   2.0000      -0.419762       -11.4223
  61   2.0000      -0.411858       -11.2072
  62   2.0000      -0.405291       -11.0285
  63   2.0000      -0.336232        -9.1494
  64   2.0000      -0.329251        -8.9594
  65   2.0000      -0.323362        -8.7991
  66   2.0000      -0.302511        -8.2317
  67   0.0000       0.039830         1.0838
  68   0.0000       0.059026         1.6062
  69   0.0000       0.099958         2.7200
  70   0.0000       0.115193         3.1346
  71   0.0000       0.135231         3.6798

MULLIKEN ATOMIC CHARGES
-----------------------
   0 S :    0.097105
   1 C :   -0.156570
   2 C :   -0.066258
   3 C :    0.015221
   4 C :   -0.126852
   5 H :    0.018455
   6 C :    0.061217
   7 H :    0.007908
   8 H :    0.032843
   9 C :   -0.045944
  10 H :    0.033421
  11 H :    0.044366
  12 C :   -0.069153
  13 H :    0.035385
  14 H :    0.022547
  15 H :    0.032243
  16 S :    0.077457
  17 C :   -0.076396
  18 C :   -0.046875
  19 C :   -0.031282
  20 C :   -0.172679
  21 H :    0.027205
  22 C :    0.082000
  23 H :    0.014999
  24 H :    0.028775
  25 C :   -0.134293
  26 H :    0.044691
  27 H :    0.026937
  28 C :    0.017873
  29 H :    0.028473
  30 H :    0.048131
  31 H :   -0.002925
  32 H :    0.072450
  33 H :    0.059526
Sum of atomic charges:   -0.0000000

LOEWDIN ATOMIC CHARGES
----------------------
   0 S :    0.395692
   1 C :   -0.195901
   2 C :   -0.056213
   3 C :   -0.062553
   4 C :   -0.203247
   5 H :    0.034542
   6 C :   -0.032255
   7 H :    0.024834
   8 H :    0.034164
   9 C :   -0.032098
  10 H :    0.028324
  11 H :    0.026666
  12 C :   -0.078941
  13 H :    0.026970
  14 H :    0.021696
  15 H :    0.031344
  16 S :    0.351360
  17 C :   -0.176991
  18 C :   -0.078659
  19 C :   -0.048717
  20 C :   -0.167972
  21 H :    0.034357
  22 C :   -0.029979
  23 H :    0.025778
  24 H :    0.030704
  25 C :   -0.041254
  26 H :    0.026937
  27 H :    0.022672
  28 C :   -0.057090
  29 H :    0.027612
  30 H :    0.037493
  31 H :    0.008089
  32 H :    0.036616
  33 H :    0.036022

  Mayer bond orders larger than 0.100000
B(  0-S ,  1-C ) :   1.1340 B(  0-S ,  4-C ) :   1.1313 B(  1-C ,  2-C ) :   1.5965
B(  1-C , 32-H ) :   0.9696 B(  2-C ,  3-C ) :   1.2188 B(  2-C ,  6-C ) :   1.0295
B(  3-C ,  4-C ) :   1.5931 B(  3-C ,  5-H ) :   0.9963 B(  4-C , 20-C ) :   1.0313
B(  6-C ,  7-H ) :   0.9435 B(  6-C ,  8-H ) :   0.9481 B(  6-C ,  9-C ) :   1.0393
B(  9-C , 10-H ) :   0.9579 B(  9-C , 11-H ) :   0.9614 B(  9-C , 12-C ) :   1.0712
B( 12-C , 13-H ) :   0.9722 B( 12-C , 14-H ) :   0.9766 B( 12-C , 15-H ) :   0.9716
B( 16-S , 17-C ) :   1.1221 B( 16-S , 20-C ) :   1.1010 B( 17-C , 18-C ) :   1.6813
B( 17-C , 33-H ) :   0.9592 B( 18-C , 19-C ) :   1.1808 B( 18-C , 21-H ) :   0.9756
B( 19-C , 20-C ) :   1.6712 B( 19-C , 22-C ) :   1.0377 B( 22-C , 23-H ) :   0.9318
B( 22-C , 24-H ) :   0.9455 B( 22-C , 25-C ) :   1.0423 B( 25-C , 26-H ) :   0.9565
B( 25-C , 27-H ) :   0.9560 B( 25-C , 28-C ) :   1.0741 B( 28-C , 29-H ) :   0.9701
B( 28-C , 30-H ) :   0.9716 B( 28-C , 31-H ) :   0.9679

Dispersion correction           -0.015021959
FINAL SINGLE POINT ENERGY     -1339.857640297174

DIPOLE MOMENT
-------------
                                X             Y             Z
Electronic contribution:     -0.19248      -8.00056     -10.57456
Nuclear contribution   :      0.18183       8.46068      10.82725
                        -----------------------------------------
Total Dipole Moment    :     -0.01066       0.46012       0.25269
                        -----------------------------------------
Magnitude (a.u.)       :      0.52504
Magnitude (Debye)      :      1.33456

Rotational constants in cm-1:     0.019842     0.008997     0.006972
Rotational constants in MHz :   594.841894   269.722651   209.016966

                             ****ORCA TERMINATED NORMALLY****
TOTAL RUN TIME: 0 days 0 hours 0 minutes 34 seconds 448 msec
