                         Program Version 4.2.1 -  RELEASE  -
|  1> ! wB97X-D3 SP def2-SVP
|  2> %pal
|  3> nprocs 16
|  4> end
|  5>
|  6> * xyz 0 1
|  7> S 	 2.73261 	 -2.48788 	 79.8197
|  8> C 	 0.987415 	 -2.66356 	 79.8182
|  9> C 	 0.375103 	 -1.50857 	 80.1386
| 10> C 	 1.28474 	 -0.492599 	 80.5761
| 11> C 	 2.59372 	 -0.854893 	 80.445
| 12> H 	 1.1169 	 0.470375 	 80.9485
| 13> C 	 -1.13054 	 -1.38011 	 80.335
| 14> H 	 -1.30975 	 -0.782935 	 81.2603
| 15> H 	 -1.59031 	 -2.39903 	 80.4583
| 16> C 	 -1.73377 	 -0.46386 	 79.2509
| 17> H 	 -2.65052 	 -0.0855267 	 79.5179
| 18> H 	 -1.17749 	 0.448769 	 79.1025
| 19> C 	 -1.91222 	 -1.01466 	 77.8627
| 20> H 	 -2.46523 	 -1.92488 	 77.7544
| 21> H 	 -2.18166 	 -0.244005 	 77.167
| 22> H 	 -1.01655 	 -1.48217 	 77.4334
| 23> S 	 4.94153 	 -0.607159 	 81.9236
| 24> C 	 5.79732 	 0.894568 	 81.7597
| 25> C 	 5.18389 	 1.86181 	 81.056
| 26> C 	 3.99916 	 1.29375 	 80.4527
| 27> C 	 3.77727 	 -0.0561844 	 80.7137
| 28> H 	 5.43525 	 2.84984 	 81.0253
| 29> C 	 3.20684 	 2.17744 	 79.5248
| 30> H 	 2.30357 	 1.73599 	 79.1752
| 31> H 	 3.71588 	 2.40368 	 78.5736
| 32> C 	 2.8633 	 3.48447 	 80.1367
| 33> H 	 2.49357 	 4.04164 	 79.3097
| 34> H 	 3.79362 	 4.07382 	 80.4012
| 35> C 	 1.84671 	 3.47893 	 81.3118
| 36> H 	 1.82417 	 2.60043 	 81.9924
| 37> H 	 0.899464 	 3.51294 	 80.9063
| 38> H 	 1.96615 	 4.40094 	 81.9295
| 39> H 	 0.482377 	 -3.5999 	 79.5373
| 40> H 	 6.83559 	 1.08967 	 82.2384
| 41> *
| 42>
| 43>                          ****END OF INPUT****

CARTESIAN COORDINATES (ANGSTROEM)
---------------------------------
  S      2.732610   -2.487880   79.819700
  C      0.987415   -2.663560   79.818200
  C      0.375103   -1.508570   80.138600
  C      1.284740   -0.492599   80.576100
  C      2.593720   -0.854893   80.445000
  H      1.116900    0.470375   80.948500
  C     -1.130540   -1.380110   80.335000
  H     -1.309750   -0.782935   81.260300
  H     -1.590310   -2.399030   80.458300
  C     -1.733770   -0.463860   79.250900
  H     -2.650520   -0.085527   79.517900
  H     -1.177490    0.448769   79.102500
  C     -1.912220   -1.014660   77.862700
  H     -2.465230   -1.924880   77.754400
  H     -2.181660   -0.244005   77.167000
  H     -1.016550   -1.482170   77.433400
  S      4.941530   -0.607159   81.923600
  C      5.797320    0.894568   81.759700
  C      5.183890    1.861810   81.056000
  C      3.999160    1.293750   80.452700
  C      3.777270   -0.056184   80.713700
  H      5.435250    2.849840   81.025300
  C      3.206840    2.177440   79.524800
  H      2.303570    1.735990   79.175200
  H      3.715880    2.403680   78.573600
  C      2.863300    3.484470   80.136700
  H      2.493570    4.041640   79.309700
  H      3.793620    4.073820   80.401200
  C      1.846710    3.478930   81.311800
  H      1.824170    2.600430   81.992400
  H      0.899464    3.512940   80.906300
  H      1.966150    4.400940   81.929500
  H      0.482377   -3.599900   79.537300
  H      6.835590    1.089670   82.238400

 Total Charge           Charge          ....    0
 Multiplicity           Mult            ....    1
 Number of Electrons    NEL             ....  134
 Basis Dimension        Dim             ....  322

ORBITAL ENERGIES
----------------

  NO   OCC          E(Eh)            E(eV)
   0   2.0000     -88.964711     -2420.8529
   1   2.0000     -88.960443     -2420.7367
   2   2.0000     -10.325191      -280.9627
   3   2.0000     -10.324090      -280.9328
   4   2.0000     -10.321432      -280.8604
   5   2.0000     -10.311721      -280.5962
   6   2.0000     -10.303012      -280.3592
   7   2.0000     -10.300338      -280.2864
   8   2.0000     -10.297983      -280.2224
   9   2.0000     -10.288447      -279.9629
  10   2.0000     -10.287323      -279.9323
  11   2.0000     -10.285784      -279.8904
  12   2.0000     -10.283967      -279.8410
  13   2.0000     -10.279281      -279.7134
  14   2.0000     -10.277826      -279.6739
  15   2.0000     -10.267352      -279.3889
  16   2.0000      -8.079721      -219.8604
  17   2.0000      -8.075534      -219.7465
  18   2.0000      -6.038234      -164.3087
  19   2.0000      -6.034414      -164.2048
  20   2.0000      -6.034046      -164.1947
  21   2.0000      -6.030228      -164.0908
  22   2.0000      -6.030068      -164.0865
  23   2.0000      -6.026200      -163.9812
  24   2.0000      -1.008442       -27.4411
  25   2.0000      -0.987619       -26.8745
  26   2.0000      -0.917734       -24.9728
  27   2.0000      -0.912339       -24.8260
  28   2.0000      -0.873924       -23.7807
  29   2.0000      -0.849173       -23.1072
  30   2.0000      -0.845283       -23.0013
  31   2.0000      -0.818671       -22.2772
  32   2.0000      -0.788867       -21.4662
  33   2.0000      -0.777365       -21.1532
  34   2.0000      -0.714106       -19.4318
  35   2.0000      -0.699965       -19.0470
  36   2.0000      -0.690097       -18.7785
  37   2.0000      -0.661053       -17.9882
  38   2.0000      -0.647315       -17.6143
  39   2.0000      -0.620803       -16.8929
  40   2.0000      -0.602620       -16.3981
  41   2.0000      -0.570552       -15.5255
  42   2.0000      -0.553645       -15.0654
  43   2.0000      -0.551804       -15.0153
  44   2.0000      -0.539769       -14.6879
  45   2.0000      -0.537783       -14.6338
  46   2.0000      -0.526205       -14.3188
  47   2.0000      -0.512707       -13.9515
  48   2.0000      -0.503480       -13.7004
  49   2.0000      -0.498882       -13.5753
  50   2.0000      -0.491599       -13.3771
  51   2.0000      -0.484657       -13.1882
  52   2.0000      -0.468447       -12.7471
  53   2.0000      -0.462234       -12.5780
  54   2.0000      -0.458339       -12.4720
  55   2.0000      -0.454489       -12.3673
  56   2.0000      -0.447628       -12.1806
  57   2.0000      -0.437927       -11.9166
  58   2.0000      -0.432265       -11.7625
  59   2.0000      -0.428656       -11.6643
  60   2.0000      -0.421494       -11.4694
  61   2.0000      -0.410953       -11.1826
  62   2.0000      -0.403885       -10.9903
  63   2.0000      -0.346628        -9.4322
  64   2.0000      -0.330268        -8.9870
  65   2.0000      -0.328891        -8.9496
  66   2.0000      -0.297648        -8.0994
  67   0.0000       0.032885         0.8949
  68   0.0000       0.077658         2.1132
  69   0.0000       0.108612         2.9555
  70   0.0000       0.123207         3.3526
  71   0.0000       0.125485         3.4146

MULLIKEN ATOMIC CHARGES
-----------------------
   0 S :    0.096844
   1 C :   -0.139111
   2 C :   -0.046409
   3 C :    0.065083
   4 C :   -0.170827
   5 H :   -0.037440
   6 C :    0.046018
   7 H :    0.035304
   8 H :    0.040210
   9 C :   -0.021222
  10 H :    0.002070
  11 H :    0.014389
  12 C :   -0.042097
  13 H :    0.011800
  14 H :    0.033627
  15 H :    0.009951
  16 S :    0.107618
  17 C :   -0.099794
  18 C :    0.015526
  19 C :   -0.055823
  20 C :   -0.118295
  21 H :   -0.017494
  22 C :    0.087120
  23 H :    0.003503
  24 H :    0.036614
  25 C :   -0.109952
  26 H :    0.016049
  27 H :    0.031842
  28 C :   -0.038508
  29 H :    0.054817
  30 H :    0.013299
  31 H :    0.039516
  32 H :    0.054958
  33 H :    0.080812
Sum of atomic charges:   -0.0000000

LOEWDIN ATOMIC CHARGES
----------------------
   0 S :    0.390437
   1 C :   -0.193643
   2 C :   -0.066488
   3 C :   -0.054115
   4 C :   -0.185510
   5 H :    0.020013
   6 C :   -0.025842
   7 H :    0.038685
   8 H :    0.035593
   9 C :   -0.039178
  10 H :    0.012275
  11 H :    0.026923
  12 C :   -0.073195
  13 H :    0.019952
  14 H :    0.026336
  15 H :    0.025650
  16 S :    0.399402
  17 C :   -0.183451
  18 C :   -0.062826
  19 C :   -0.042836
  20 C :   -0.206467
  21 H :    0.017496
  22 C :   -0.035337
  23 H :    0.022639
  24 H :    0.039014
  25 C :   -0.043050
  26 H :    0.022504
  27 H :    0.023498
  28 C :   -0.067658
  29 H :    0.030303
  30 H :    0.014407
  31 H :    0.035493
  32 H :    0.033090
  33 H :    0.045885

  Mayer bond orders larger than 0.100000
B(  0-S ,  1-C ) :   1.1221 B(  0-S ,  4-C ) :   1.1434 B(  1-C ,  2-C ) :   1.6396
B(  1-C , 32-H ) :   0.9681 B(  2-C ,  3-C ) :   1.1933 B(  2-C ,  6-C ) :   1.0211
B(  3-C ,  4-C ) :   1.6201 B(  3-C ,  5-H ) :   1.0014 B(  4-C , 20-C ) :   1.0205
B(  6-C ,  7-H ) :   0.9414 B(  6-C ,  8-H ) :   0.9551 B(  6-C ,  9-C ) :   1.0568
B(  9-C , 10-H ) :   0.9518 B(  9-C , 11-H ) :   0.9525 B(  9-C , 12-C ) :   1.0818
B( 12-C , 13-H ) :   0.9705 B( 12-C , 14-H ) :   0.9729 B( 12-C , 15-H ) :   0.9669
B( 16-S , 17-C ) :   1.1588 B( 16-S , 20-C ) :   1.1167 B( 17-C , 18-C ) :   1.6288
B( 17-C , 33-H ) :   0.9473 B( 18-C , 19-C ) :   1.2121 B( 18-C , 21-H ) :   1.0113
B( 19-C , 20-C ) :   1.6160 B( 19-C , 22-C ) :   1.0505 B( 22-C , 23-H ) :   0.9322
B( 22-C , 24-H ) :   0.9310 B( 22-C , 25-C ) :   1.0858 B( 25-C , 26-H ) :   0.9502
B( 25-C , 27-H ) :   0.9576 B( 25-C , 28-C ) :   1.0565 B( 28-C , 29-H ) :   0.9739
B( 28-C , 30-H ) :   0.9741 B( 28-C , 31-H ) :   0.9729

Dispersion correction           -0.015126212
FINAL SINGLE POINT ENERGY     -1339.862827746688

DIPOLE MOMENT
-------------
                                X             Y             Z
Electronic contribution:     22.14804     -17.14568       7.56473
Nuclear contribution   :    -22.58189      17.81149      -7.64082
                        -----------------------------------------
Total Dipole Moment    :     -0.43385       0.66581      -0.07609
                        -----------------------------------------
Magnitude (a.u.)       :      0.79832
Magnitude (Debye)      :      2.02917

Rotational constants in cm-1:     0.019617     0.009438     0.007003
Rotational constants in MHz :   588.102752   282.947638   209.950635

                             ****ORCA TERMINATED NORMALLY****
TOTAL RUN TIME: 0 days 0 hours 0 minutes 35 seconds 738 msec
