                         Program Version 4.2.1 -  RELEASE  -
|  1> ! wB97X-D3 SP def2-SVP
|  2> %pal
|  3> nprocs 16
|  4> end
|  5>
|  6> * xyz 0 1
|  7> S 	 9.85864 	 -3.80392 	 87.6994
|  8> C 	 9.85359 	 -2.27542 	 88.6045
|  9> C 	 8.85028 	 -1.37688 	 88.0987
| 10> C 	 8.11778 	 -2.0692 	 87.0298
| 11> C 	 8.62425 	 -3.25842 	 86.607
| 12> H 	 7.22454 	 -1.72886 	 86.4923
| 13> C 	 8.49077 	 0.0174598 	 88.5992
| 14> H 	 8.41568 	 0.703105 	 87.7303
| 15> H 	 9.36595 	 0.480074 	 88.9673
| 16> C 	 7.23164 	 0.213721 	 89.4803
| 17> H 	 6.89595 	 1.16881 	 89.251
| 18> H 	 6.47557 	 -0.531854 	 89.1287
| 19> C 	 7.53695 	 0.00424903 	 91.0174
| 20> H 	 6.64076 	 0.183122 	 91.6102
| 21> H 	 7.85937 	 -1.02015 	 91.2143
| 22> H 	 8.31869 	 0.604236 	 91.344
| 23> S 	 8.23878 	 -3.70242 	 83.8891
| 24> C 	 7.1917 	 -4.9591 	 83.3326
| 25> C 	 7.20838 	 -5.96889 	 84.2741
| 26> C 	 7.57288 	 -5.50928 	 85.5827
| 27> C 	 8.05434 	 -4.18996 	 85.5844
| 28> H 	 6.79784 	 -6.93511 	 84.0035
| 29> C 	 7.4215 	 -6.41156 	 86.8512
| 30> H 	 7.98712 	 -5.80758 	 87.5387
| 31> H 	 8.02016 	 -7.32924 	 86.5943
| 32> C 	 5.94708 	 -6.63526 	 87.2901
| 33> H 	 5.70415 	 -7.67745 	 87.0914
| 34> H 	 5.33836 	 -6.09585 	 86.5314
| 35> C 	 5.74264 	 -6.20642 	 88.7435
| 36> H 	 4.72242 	 -6.33941 	 89.0126
| 37> H 	 5.98729 	 -5.11806 	 88.8506
| 38> H 	 6.40218 	 -6.73824 	 89.4305
| 39> H 	 10.5125 	 -2.0486 	 89.4691
| 40> H 	 6.85609 	 -5.11383 	 82.3483
| 41> *
| 42>
| 43>                          ****END OF INPUT****

CARTESIAN COORDINATES (ANGSTROEM)
---------------------------------
  S      9.858640   -3.803920   87.699400
  C      9.853590   -2.275420   88.604500
  C      8.850280   -1.376880   88.098700
  C      8.117780   -2.069200   87.029800
  C      8.624250   -3.258420   86.607000
  H      7.224540   -1.728860   86.492300
  C      8.490770    0.017460   88.599200
  H      8.415680    0.703105   87.730300
  H      9.365950    0.480074   88.967300
  C      7.231640    0.213721   89.480300
  H      6.895950    1.168810   89.251000
  H      6.475570   -0.531854   89.128700
  C      7.536950    0.004249   91.017400
  H      6.640760    0.183122   91.610200
  H      7.859370   -1.020150   91.214300
  H      8.318690    0.604236   91.344000
  S      8.238780   -3.702420   83.889100
  C      7.191700   -4.959100   83.332600
  C      7.208380   -5.968890   84.274100
  C      7.572880   -5.509280   85.582700
  C      8.054340   -4.189960   85.584400
  H      6.797840   -6.935110   84.003500
  C      7.421500   -6.411560   86.851200
  H      7.987120   -5.807580   87.538700
  H      8.020160   -7.329240   86.594300
  C      5.947080   -6.635260   87.290100
  H      5.704150   -7.677450   87.091400
  H      5.338360   -6.095850   86.531400
  C      5.742640   -6.206420   88.743500
  H      4.722420   -6.339410   89.012600
  H      5.987290   -5.118060   88.850600
  H      6.402180   -6.738240   89.430500
  H     10.512500   -2.048600   89.469100
  H      6.856090   -5.113830   82.348300

 Total Charge           Charge          ....    0
 Multiplicity           Mult            ....    1
 Number of Electrons    NEL             ....  134
 Basis Dimension        Dim             ....  322

ORBITAL ENERGIES
----------------

  NO   OCC          E(Eh)            E(eV)
   0   2.0000     -88.968000     -2420.9424
   1   2.0000     -88.959455     -2420.7098
   2   2.0000     -10.330092      -281.0961
   3   2.0000     -10.329673      -281.0847
   4   2.0000     -10.328786      -281.0606
   5   2.0000     -10.316283      -280.7203
   6   2.0000     -10.312204      -280.6093
   7   2.0000     -10.306448      -280.4527
   8   2.0000     -10.297799      -280.2174
   9   2.0000     -10.293593      -280.1029
  10   2.0000     -10.292256      -280.0665
  11   2.0000     -10.291839      -280.0552
  12   2.0000     -10.290532      -280.0196
  13   2.0000     -10.286351      -279.9058
  14   2.0000     -10.276914      -279.6491
  15   2.0000     -10.276299      -279.6323
  16   2.0000      -8.082010      -219.9227
  17   2.0000      -8.074440      -219.7167
  18   2.0000      -6.040563      -164.3721
  19   2.0000      -6.036556      -164.2630
  20   2.0000      -6.032966      -164.1653
  21   2.0000      -6.032802      -164.1609
  22   2.0000      -6.029101      -164.0602
  23   2.0000      -6.024959      -163.9475
  24   2.0000      -1.001910       -27.2634
  25   2.0000      -0.980849       -26.6903
  26   2.0000      -0.907396       -24.6915
  27   2.0000      -0.901093       -24.5200
  28   2.0000      -0.862956       -23.4822
  29   2.0000      -0.844830       -22.9890
  30   2.0000      -0.840695       -22.8765
  31   2.0000      -0.813520       -22.1370
  32   2.0000      -0.783704       -21.3257
  33   2.0000      -0.769417       -20.9369
  34   2.0000      -0.711925       -19.3725
  35   2.0000      -0.701175       -19.0799
  36   2.0000      -0.690094       -18.7784
  37   2.0000      -0.658014       -17.9055
  38   2.0000      -0.639501       -17.4017
  39   2.0000      -0.615125       -16.7384
  40   2.0000      -0.586700       -15.9649
  41   2.0000      -0.573179       -15.5970
  42   2.0000      -0.556450       -15.1418
  43   2.0000      -0.544436       -14.8149
  44   2.0000      -0.532909       -14.5012
  45   2.0000      -0.524154       -14.2629
  46   2.0000      -0.522203       -14.2099
  47   2.0000      -0.515774       -14.0349
  48   2.0000      -0.503268       -13.6946
  49   2.0000      -0.487980       -13.2786
  50   2.0000      -0.483699       -13.1621
  51   2.0000      -0.479561       -13.0495
  52   2.0000      -0.472722       -12.8634
  53   2.0000      -0.467973       -12.7342
  54   2.0000      -0.461526       -12.5588
  55   2.0000      -0.447038       -12.1645
  56   2.0000      -0.441231       -12.0065
  57   2.0000      -0.437179       -11.8962
  58   2.0000      -0.430922       -11.7260
  59   2.0000      -0.425008       -11.5650
  60   2.0000      -0.423181       -11.5153
  61   2.0000      -0.415603       -11.3091
  62   2.0000      -0.403084       -10.9685
  63   2.0000      -0.337143        -9.1741
  64   2.0000      -0.326754        -8.8914
  65   2.0000      -0.321525        -8.7491
  66   2.0000      -0.302134        -8.2215
  67   0.0000       0.029546         0.8040
  68   0.0000       0.063499         1.7279
  69   0.0000       0.102556         2.7907
  70   0.0000       0.114318         3.1107
  71   0.0000       0.122415         3.3311

MULLIKEN ATOMIC CHARGES
-----------------------
   0 S :    0.108110
   1 C :   -0.134772
   2 C :   -0.096549
   3 C :    0.033342
   4 C :   -0.150997
   5 H :    0.021346
   6 C :    0.053028
   7 H :    0.026034
   8 H :    0.001251
   9 C :   -0.031158
  10 H :    0.017033
  11 H :    0.039469
  12 C :   -0.029747
  13 H :    0.038261
  14 H :    0.029401
  15 H :    0.015207
  16 S :    0.098072
  17 C :   -0.073558
  18 C :   -0.036630
  19 C :   -0.093405
  20 C :   -0.166434
  21 H :    0.018852
  22 C :    0.077669
  23 H :    0.003638
  24 H :    0.048010
  25 C :   -0.055431
  26 H :    0.024339
  27 H :    0.041030
  28 C :   -0.047955
  29 H :    0.028731
  30 H :    0.043806
  31 H :    0.038995
  32 H :    0.067390
  33 H :    0.043623
Sum of atomic charges:   -0.0000000

LOEWDIN ATOMIC CHARGES
----------------------
   0 S :    0.408565
   1 C :   -0.195145
   2 C :   -0.058037
   3 C :   -0.058289
   4 C :   -0.210403
   5 H :    0.035493
   6 C :   -0.041884
   7 H :    0.039019
   8 H :    0.024143
   9 C :   -0.026077
  10 H :    0.014962
  11 H :    0.032516
  12 C :   -0.058228
  13 H :    0.027552
  14 H :    0.027675
  15 H :    0.013558
  16 S :    0.401272
  17 C :   -0.178646
  18 C :   -0.074963
  19 C :   -0.057200
  20 C :   -0.200313
  21 H :    0.029200
  22 C :   -0.032248
  23 H :    0.012194
  24 H :    0.039645
  25 C :   -0.044208
  26 H :    0.022615
  27 H :    0.029397
  28 C :   -0.060605
  29 H :    0.020302
  30 H :    0.033951
  31 H :    0.027280
  32 H :    0.036073
  33 H :    0.020833

  Mayer bond orders larger than 0.100000
B(  0-S ,  1-C ) :   1.1523 B(  0-S ,  4-C ) :   1.1302 B(  1-C ,  2-C ) :   1.5925
B(  1-C , 32-H ) :   0.9653 B(  2-C ,  3-C ) :   1.2193 B(  2-C ,  6-C ) :   1.0372
B(  3-C ,  4-C ) :   1.6242 B(  3-C ,  5-H ) :   0.9824 B(  4-C , 20-C ) :   1.0026
B(  6-C ,  7-H ) :   0.9377 B(  6-C ,  8-H ) :   0.9347 B(  6-C ,  9-C ) :   1.0516
B(  9-C , 10-H ) :   0.9561 B(  9-C , 11-H ) :   0.9611 B(  9-C , 12-C ) :   1.0720
B( 12-C , 13-H ) :   0.9766 B( 12-C , 14-H ) :   0.9774 B( 12-C , 15-H ) :   0.9785
B( 16-S , 17-C ) :   1.1639 B( 16-S , 20-C ) :   1.1433 B( 17-C , 18-C ) :   1.5986
B( 17-C , 20-C ) :   0.1055 B( 17-C , 33-H ) :   0.9746 B( 18-C , 19-C ) :   1.2330
B( 18-C , 21-H ) :   0.9918 B( 19-C , 20-C ) :   1.5946 B( 19-C , 22-C ) :   1.0260
B( 22-C , 23-H ) :   0.9367 B( 22-C , 24-H ) :   0.9385 B( 22-C , 25-C ) :   1.0258
B( 25-C , 26-H ) :   0.9525 B( 25-C , 27-H ) :   0.9661 B( 25-C , 28-C ) :   1.0836
B( 28-C , 29-H ) :   0.9748 B( 28-C , 30-H ) :   0.9734 B( 28-C , 31-H ) :   0.9769

Dispersion correction           -0.014345173
FINAL SINGLE POINT ENERGY     -1339.855273004445

DIPOLE MOMENT
-------------
                                X             Y             Z
Electronic contribution:     13.46435      -3.90574     -20.37975
Nuclear contribution   :    -13.82477       3.98441      20.70525
                        -----------------------------------------
Total Dipole Moment    :     -0.36041       0.07867       0.32550
                        -----------------------------------------
Magnitude (a.u.)       :      0.49197
Magnitude (Debye)      :      1.25050

Rotational constants in cm-1:     0.019122     0.008112     0.006892
Rotational constants in MHz :   573.268808   243.205120   206.621022

                             ****ORCA TERMINATED NORMALLY****
TOTAL RUN TIME: 0 days 0 hours 0 minutes 34 seconds 717 msec
