                         Program Version 4.2.1 -  RELEASE  -
|  1> ! wB97X-D3 SP def2-SVP
|  2> %pal
|  3> nprocs 16
|  4> end
|  5>
|  6> * xyz 0 1
|  7> S 	 -10.1528 	 -13.0848 	 86.6672
|  8> C 	 -11.7789 	 -13.4815 	 86.1355
|  9> C 	 -12.6386 	 -13.4949 	 87.1694
| 10> C 	 -11.9583 	 -13.3258 	 88.4438
| 11> C 	 -10.5739 	 -13.0844 	 88.353
| 12> H 	 -12.4487 	 -13.3383 	 89.4244
| 13> C 	 -14.1509 	 -13.7311 	 86.9386
| 14> H 	 -14.4623 	 -14.7633 	 87.2992
| 15> H 	 -14.2274 	 -13.8091 	 85.7841
| 16> C 	 -15.0433 	 -12.5417 	 87.3339
| 17> H 	 -14.732 	 -12.1995 	 88.3512
| 18> H 	 -14.8971 	 -11.7248 	 86.6651
| 19> C 	 -16.5542 	 -12.8537 	 87.4735
| 20> H 	 -16.9593 	 -13.3424 	 88.3712
| 21> H 	 -17.0859 	 -11.9074 	 87.3983
| 22> H 	 -17.0161 	 -13.2938 	 86.5781
| 23> S 	 -8.78038 	 -11.0758 	 89.229
| 24> C 	 -7.79178 	 -11.3048 	 90.6488
| 25> C 	 -8.09031 	 -12.5567 	 91.1862
| 26> C 	 -9.11258 	 -13.3019 	 90.5098
| 27> C 	 -9.63849 	 -12.6137 	 89.4106
| 28> H 	 -7.553 	 -12.8395 	 92.0821
| 29> C 	 -9.49629 	 -14.6584 	 90.9524
| 30> H 	 -10.5513 	 -14.6417 	 90.7555
| 31> H 	 -9.37123 	 -14.6654 	 92.0797
| 32> C 	 -8.86811 	 -15.9101 	 90.2475
| 33> H 	 -8.99429 	 -15.8015 	 89.1765
| 34> H 	 -9.55328 	 -16.6978 	 90.4892
| 35> C 	 -7.43236 	 -16.2534 	 90.6811
| 36> H 	 -6.92745 	 -17.0723 	 90.1434
| 37> H 	 -7.51914 	 -16.5704 	 91.6767
| 38> H 	 -6.84852 	 -15.3417 	 90.6682
| 39> H 	 -11.9523 	 -13.663 	 85.0595
| 40> H 	 -7.0169 	 -10.6173 	 90.9468
| 41> *
| 42>
| 43>                          ****END OF INPUT****

CARTESIAN COORDINATES (ANGSTROEM)
---------------------------------
  S    -10.152800  -13.084800   86.667200
  C    -11.778900  -13.481500   86.135500
  C    -12.638600  -13.494900   87.169400
  C    -11.958300  -13.325800   88.443800
  C    -10.573900  -13.084400   88.353000
  H    -12.448700  -13.338300   89.424400
  C    -14.150900  -13.731100   86.938600
  H    -14.462300  -14.763300   87.299200
  H    -14.227400  -13.809100   85.784100
  C    -15.043300  -12.541700   87.333900
  H    -14.732000  -12.199500   88.351200
  H    -14.897100  -11.724800   86.665100
  C    -16.554200  -12.853700   87.473500
  H    -16.959300  -13.342400   88.371200
  H    -17.085900  -11.907400   87.398300
  H    -17.016100  -13.293800   86.578100
  S     -8.780380  -11.075800   89.229000
  C     -7.791780  -11.304800   90.648800
  C     -8.090310  -12.556700   91.186200
  C     -9.112580  -13.301900   90.509800
  C     -9.638490  -12.613700   89.410600
  H     -7.553000  -12.839500   92.082100
  C     -9.496290  -14.658400   90.952400
  H    -10.551300  -14.641700   90.755500
  H     -9.371230  -14.665400   92.079700
  C     -8.868110  -15.910100   90.247500
  H     -8.994290  -15.801500   89.176500
  H     -9.553280  -16.697800   90.489200
  C     -7.432360  -16.253400   90.681100
  H     -6.927450  -17.072300   90.143400
  H     -7.519140  -16.570400   91.676700
  H     -6.848520  -15.341700   90.668200
  H    -11.952300  -13.663000   85.059500
  H     -7.016900  -10.617300   90.946800

 Total Charge           Charge          ....    0
 Multiplicity           Mult            ....    1
 Number of Electrons    NEL             ....  134
 Basis Dimension        Dim             ....  322

ORBITAL ENERGIES
----------------

  NO   OCC          E(Eh)            E(eV)
   0   2.0000     -88.964832     -2420.8561
   1   2.0000     -88.963009     -2420.8065
   2   2.0000     -10.336224      -281.2630
   3   2.0000     -10.331559      -281.1360
   4   2.0000     -10.320164      -280.8259
   5   2.0000     -10.316058      -280.7142
   6   2.0000     -10.307175      -280.4725
   7   2.0000     -10.304541      -280.4008
   8   2.0000     -10.302532      -280.3461
   9   2.0000     -10.302443      -280.3437
  10   2.0000     -10.294438      -280.1259
  11   2.0000     -10.293091      -280.0893
  12   2.0000     -10.290796      -280.0268
  13   2.0000     -10.283525      -279.8289
  14   2.0000     -10.280695      -279.7519
  15   2.0000     -10.271873      -279.5119
  16   2.0000      -8.079207      -219.8464
  17   2.0000      -8.078144      -219.8175
  18   2.0000      -6.037673      -164.2934
  19   2.0000      -6.036657      -164.2658
  20   2.0000      -6.033614      -164.1830
  21   2.0000      -6.032471      -164.1519
  22   2.0000      -6.030166      -164.0892
  23   2.0000      -6.028979      -164.0569
  24   2.0000      -1.003668       -27.3112
  25   2.0000      -0.983790       -26.7703
  26   2.0000      -0.906229       -24.6597
  27   2.0000      -0.905531       -24.6408
  28   2.0000      -0.868173       -23.6242
  29   2.0000      -0.849649       -23.1201
  30   2.0000      -0.840072       -22.8595
  31   2.0000      -0.814869       -22.1737
  32   2.0000      -0.782184       -21.2843
  33   2.0000      -0.772665       -21.0253
  34   2.0000      -0.711891       -19.3715
  35   2.0000      -0.698638       -19.0109
  36   2.0000      -0.689328       -18.7576
  37   2.0000      -0.659085       -17.9346
  38   2.0000      -0.643335       -17.5060
  39   2.0000      -0.615302       -16.7432
  40   2.0000      -0.587561       -15.9884
  41   2.0000      -0.567056       -15.4304
  42   2.0000      -0.559370       -15.2212
  43   2.0000      -0.550420       -14.9777
  44   2.0000      -0.545391       -14.8409
  45   2.0000      -0.520807       -14.1719
  46   2.0000      -0.514413       -13.9979
  47   2.0000      -0.509400       -13.8615
  48   2.0000      -0.507642       -13.8136
  49   2.0000      -0.500762       -13.6264
  50   2.0000      -0.483292       -13.1511
  51   2.0000      -0.478442       -13.0191
  52   2.0000      -0.477412       -12.9910
  53   2.0000      -0.463953       -12.6248
  54   2.0000      -0.459877       -12.5139
  55   2.0000      -0.448224       -12.1968
  56   2.0000      -0.440923       -11.9981
  57   2.0000      -0.436782       -11.8854
  58   2.0000      -0.429281       -11.6813
  59   2.0000      -0.423004       -11.5105
  60   2.0000      -0.415618       -11.3095
  61   2.0000      -0.413603       -11.2547
  62   2.0000      -0.409676       -11.1478
  63   2.0000      -0.344326        -9.3696
  64   2.0000      -0.331986        -9.0338
  65   2.0000      -0.326666        -8.8890
  66   2.0000      -0.298420        -8.1204
  67   0.0000       0.032404         0.8818
  68   0.0000       0.062948         1.7129
  69   0.0000       0.121767         3.3134
  70   0.0000       0.125615         3.4182
  71   0.0000       0.128104         3.4859

MULLIKEN ATOMIC CHARGES
-----------------------
   0 S :    0.100874
   1 C :   -0.150885
   2 C :   -0.067559
   3 C :    0.033106
   4 C :   -0.171888
   5 H :    0.023409
   6 C :    0.027404
   7 H :    0.055056
   8 H :    0.024413
   9 C :   -0.061856
  10 H :    0.036853
  11 H :    0.031721
  12 C :   -0.058634
  13 H :    0.048151
  14 H :    0.019655
  15 H :    0.021582
  16 S :    0.101266
  17 C :   -0.104571
  18 C :   -0.034271
  19 C :   -0.047931
  20 C :   -0.148344
  21 H :    0.017923
  22 C :    0.047879
  23 H :    0.011820
  24 H :    0.031915
  25 C :   -0.037642
  26 H :    0.028674
  27 H :    0.020576
  28 C :   -0.019740
  29 H :    0.043401
  30 H :    0.010967
  31 H :    0.033434
  32 H :    0.068135
  33 H :    0.065106
Sum of atomic charges:    0.0000000

LOEWDIN ATOMIC CHARGES
----------------------
   0 S :    0.404567
   1 C :   -0.191762
   2 C :   -0.073037
   3 C :   -0.064376
   4 C :   -0.200893
   5 H :    0.031318
   6 C :   -0.037241
   7 H :    0.037589
   8 H :    0.035465
   9 C :   -0.039534
  10 H :    0.029034
  11 H :    0.025769
  12 C :   -0.078666
  13 H :    0.028950
  14 H :    0.029229
  15 H :    0.024910
  16 S :    0.404552
  17 C :   -0.185370
  18 C :   -0.076962
  19 C :   -0.058935
  20 C :   -0.201282
  21 H :    0.029206
  22 C :   -0.037006
  23 H :    0.031319
  24 H :    0.036740
  25 C :   -0.030732
  26 H :    0.024579
  27 H :    0.021707
  28 C :   -0.062610
  29 H :    0.031589
  30 H :    0.017923
  31 H :    0.026190
  32 H :    0.035809
  33 H :    0.031963

  Mayer bond orders larger than 0.100000
B(  0-S ,  1-C ) :   1.1387 B(  0-S ,  4-C ) :   1.1591 B(  1-C ,  2-C ) :   1.6288
B(  1-C , 32-H ) :   0.9634 B(  2-C ,  3-C ) :   1.2344 B(  2-C ,  6-C ) :   1.0087
B(  3-C ,  4-C ) :   1.5745 B(  3-C ,  5-H ) :   0.9874 B(  4-C , 20-C ) :   1.0245
B(  6-C ,  7-H ) :   0.9494 B(  6-C ,  8-H ) :   0.9439 B(  6-C ,  9-C ) :   1.0457
B(  9-C , 10-H ) :   0.9635 B(  9-C , 11-H ) :   0.9561 B(  9-C , 12-C ) :   1.0796
B( 12-C , 13-H ) :   0.9789 B( 12-C , 14-H ) :   0.9698 B( 12-C , 15-H ) :   0.9712
B( 16-S , 17-C ) :   1.1705 B( 16-S , 20-C ) :   1.1449 B( 17-C , 18-C ) :   1.5749
B( 17-C , 20-C ) :   0.1001 B( 17-C , 33-H ) :   0.9710 B( 18-C , 19-C ) :   1.2609
B( 18-C , 21-H ) :   0.9915 B( 19-C , 20-C ) :   1.5679 B( 19-C , 22-C ) :   1.0446
B( 22-C , 23-H ) :   0.9175 B( 22-C , 24-H ) :   0.9374 B( 22-C , 25-C ) :   1.0681
B( 25-C , 26-H ) :   0.9554 B( 25-C , 27-H ) :   0.9557 B( 25-C , 28-C ) :   1.0655
B( 28-C , 29-H ) :   0.9743 B( 28-C , 30-H ) :   0.9735 B( 28-C , 31-H ) :   0.9784

Dispersion correction           -0.013940136
FINAL SINGLE POINT ENERGY     -1339.880441075903

DIPOLE MOMENT
-------------
                                X             Y             Z
Electronic contribution:     15.84415      13.92744      -5.63473
Nuclear contribution   :    -16.20586     -14.19507       5.83637
                        -----------------------------------------
Total Dipole Moment    :     -0.36170      -0.26764       0.20164
                        -----------------------------------------
Magnitude (a.u.)       :      0.49307
Magnitude (Debye)      :      1.25328

Rotational constants in cm-1:     0.020716     0.007144     0.006541
Rotational constants in MHz :   621.041081   214.184942   196.083782

                             ****ORCA TERMINATED NORMALLY****
TOTAL RUN TIME: 0 days 0 hours 0 minutes 32 seconds 156 msec
