                         Program Version 4.2.1 -  RELEASE  -
|  1> ! wB97X-D3 SP def2-SVP
|  2> %pal
|  3> nprocs 16
|  4> end
|  5>
|  6> * xyz 0 1
|  7> S 	 -36.1722 	 73.5068 	 148.773
|  8> C 	 -34.46 	 73.8184 	 149.001
|  9> C 	 -33.8093 	 72.8125 	 149.679
| 10> C 	 -34.7191 	 71.7451 	 149.935
| 11> C 	 -36.0036 	 71.9045 	 149.512
| 12> H 	 -34.5593 	 70.8528 	 150.465
| 13> C 	 -32.3826 	 72.9046 	 150.143
| 14> H 	 -32.1195 	 72.0655 	 150.707
| 15> H 	 -32.3103 	 73.8182 	 150.715
| 16> C 	 -31.36 	 73.0223 	 148.981
| 17> H 	 -31.7159 	 72.4422 	 148.077
| 18> H 	 -31.2856 	 74.0842 	 148.755
| 19> C 	 -29.974 	 72.57 	 149.274
| 20> H 	 -29.6216 	 73.2454 	 150.06
| 21> H 	 -29.8164 	 71.5951 	 149.657
| 22> H 	 -29.3736 	 72.7943 	 148.354
| 23> S 	 -37.8736 	 70.5369 	 148.137
| 24> C 	 -38.4016 	 69.0537 	 148.888
| 25> C 	 -38.0934 	 68.9625 	 150.2
| 26> C 	 -37.2186 	 69.9621 	 150.663
| 27> C 	 -37.0322 	 70.9261 	 149.621
| 28> H 	 -38.382 	 68.0834 	 150.691
| 29> C 	 -36.8146 	 70.064 	 152.125
| 30> H 	 -37.7306 	 70.3911 	 152.659
| 31> H 	 -36.0588 	 70.8737 	 152.183
| 32> C 	 -36.3251 	 68.7532 	 152.723
| 33> H 	 -35.5095 	 68.3579 	 152.062
| 34> H 	 -37.2087 	 68.1609 	 152.971
| 35> C 	 -35.6222 	 68.9536 	 154.023
| 36> H 	 -36.3346 	 69.2806 	 154.81
| 37> H 	 -34.803 	 69.6516 	 153.89
| 38> H 	 -35.2326 	 67.9866 	 154.381
| 39> H 	 -33.9529 	 74.6983 	 148.76
| 40> H 	 -38.9941 	 68.1658 	 148.57
| 41> *
| 42>
| 43>                          ****END OF INPUT****

CARTESIAN COORDINATES (ANGSTROEM)
---------------------------------
  S    -36.172200   73.506800  148.773000
  C    -34.460000   73.818400  149.001000
  C    -33.809300   72.812500  149.679000
  C    -34.719100   71.745100  149.935000
  C    -36.003600   71.904500  149.512000
  H    -34.559300   70.852800  150.465000
  C    -32.382600   72.904600  150.143000
  H    -32.119500   72.065500  150.707000
  H    -32.310300   73.818200  150.715000
  C    -31.360000   73.022300  148.981000
  H    -31.715900   72.442200  148.077000
  H    -31.285600   74.084200  148.755000
  C    -29.974000   72.570000  149.274000
  H    -29.621600   73.245400  150.060000
  H    -29.816400   71.595100  149.657000
  H    -29.373600   72.794300  148.354000
  S    -37.873600   70.536900  148.137000
  C    -38.401600   69.053700  148.888000
  C    -38.093400   68.962500  150.200000
  C    -37.218600   69.962100  150.663000
  C    -37.032200   70.926100  149.621000
  H    -38.382000   68.083400  150.691000
  C    -36.814600   70.064000  152.125000
  H    -37.730600   70.391100  152.659000
  H    -36.058800   70.873700  152.183000
  C    -36.325100   68.753200  152.723000
  H    -35.509500   68.357900  152.062000
  H    -37.208700   68.160900  152.971000
  C    -35.622200   68.953600  154.023000
  H    -36.334600   69.280600  154.810000
  H    -34.803000   69.651600  153.890000
  H    -35.232600   67.986600  154.381000
  H    -33.952900   74.698300  148.760000
  H    -38.994100   68.165800  148.570000

 Total Charge           Charge          ....    0
 Multiplicity           Mult            ....    1
 Number of Electrons    NEL             ....  134
 Basis Dimension        Dim             ....  322

ORBITAL ENERGIES
----------------

  NO   OCC          E(Eh)            E(eV)
   0   2.0000     -88.970861     -2421.0202
   1   2.0000     -88.963298     -2420.8144
   2   2.0000     -10.325348      -280.9670
   3   2.0000     -10.321575      -280.8643
   4   2.0000     -10.312973      -280.6303
   5   2.0000     -10.305092      -280.4158
   6   2.0000     -10.304673      -280.4044
   7   2.0000     -10.296699      -280.1874
   8   2.0000     -10.295766      -280.1620
   9   2.0000     -10.289509      -279.9918
  10   2.0000     -10.286758      -279.9169
  11   2.0000     -10.285988      -279.8960
  12   2.0000     -10.283186      -279.8197
  13   2.0000     -10.281209      -279.7659
  14   2.0000     -10.279230      -279.7121
  15   2.0000     -10.275787      -279.6184
  16   2.0000      -8.085412      -220.0152
  17   2.0000      -8.077582      -219.8022
  18   2.0000      -6.043891      -164.4626
  19   2.0000      -6.040073      -164.3588
  20   2.0000      -6.036170      -164.2525
  21   2.0000      -6.036069      -164.2498
  22   2.0000      -6.032256      -164.1460
  23   2.0000      -6.028203      -164.0358
  24   2.0000      -1.008111       -27.4321
  25   2.0000      -0.983632       -26.7660
  26   2.0000      -0.919324       -25.0161
  27   2.0000      -0.915805       -24.9203
  28   2.0000      -0.876087       -23.8395
  29   2.0000      -0.859016       -23.3750
  30   2.0000      -0.849476       -23.1154
  31   2.0000      -0.818670       -22.2771
  32   2.0000      -0.785394       -21.3717
  33   2.0000      -0.768977       -20.9249
  34   2.0000      -0.707687       -19.2571
  35   2.0000      -0.695969       -18.9383
  36   2.0000      -0.689768       -18.7696
  37   2.0000      -0.657351       -17.8874
  38   2.0000      -0.640133       -17.4189
  39   2.0000      -0.616516       -16.7762
  40   2.0000      -0.592038       -16.1102
  41   2.0000      -0.587173       -15.9778
  42   2.0000      -0.574903       -15.6439
  43   2.0000      -0.568367       -15.4661
  44   2.0000      -0.528850       -14.3907
  45   2.0000      -0.525743       -14.3062
  46   2.0000      -0.524577       -14.2745
  47   2.0000      -0.510679       -13.8963
  48   2.0000      -0.504463       -13.7271
  49   2.0000      -0.498153       -13.5554
  50   2.0000      -0.494986       -13.4692
  51   2.0000      -0.479257       -13.0412
  52   2.0000      -0.473108       -12.8739
  53   2.0000      -0.468192       -12.7402
  54   2.0000      -0.456610       -12.4250
  55   2.0000      -0.452569       -12.3150
  56   2.0000      -0.446452       -12.1486
  57   2.0000      -0.433846       -11.8056
  58   2.0000      -0.430423       -11.7124
  59   2.0000      -0.425555       -11.5799
  60   2.0000      -0.421841       -11.4789
  61   2.0000      -0.417623       -11.3641
  62   2.0000      -0.414080       -11.2677
  63   2.0000      -0.352053        -9.5798
  64   2.0000      -0.334318        -9.0972
  65   2.0000      -0.326676        -8.8893
  66   2.0000      -0.281256        -7.6534
  67   0.0000       0.027786         0.7561
  68   0.0000       0.072442         1.9713
  69   0.0000       0.106318         2.8931
  70   0.0000       0.116828         3.1790
  71   0.0000       0.127422         3.4673

MULLIKEN ATOMIC CHARGES
-----------------------
   0 S :    0.102682
   1 C :   -0.099304
   2 C :   -0.082054
   3 C :    0.023473
   4 C :   -0.143066
   5 H :   -0.022630
   6 C :    0.132360
   7 H :   -0.001135
   8 H :    0.035648
   9 C :   -0.121184
  10 H :    0.047169
  11 H :    0.026461
  12 C :   -0.038724
  13 H :    0.016599
  14 H :    0.030631
  15 H :    0.045173
  16 S :    0.128043
  17 C :   -0.084469
  18 C :   -0.032740
  19 C :   -0.038901
  20 C :   -0.148638
  21 H :   -0.002627
  22 C :    0.045883
  23 H :    0.048531
  24 H :    0.023452
  25 C :   -0.102151
  26 H :    0.044252
  27 H :    0.041385
  28 C :   -0.038600
  29 H :    0.028806
  30 H :    0.028958
  31 H :    0.033389
  32 H :    0.017255
  33 H :    0.056073
Sum of atomic charges:   -0.0000000

LOEWDIN ATOMIC CHARGES
----------------------
   0 S :    0.383700
   1 C :   -0.185268
   2 C :   -0.057469
   3 C :   -0.063209
   4 C :   -0.189348
   5 H :    0.019293
   6 C :   -0.024168
   7 H :    0.019628
   8 H :    0.036088
   9 C :   -0.044597
  10 H :    0.029602
  11 H :    0.023219
  12 C :   -0.067266
  13 H :    0.024032
  14 H :    0.017023
  15 H :    0.037257
  16 S :    0.419473
  17 C :   -0.195671
  18 C :   -0.071891
  19 C :   -0.048673
  20 C :   -0.201477
  21 H :    0.022663
  22 C :   -0.034848
  23 H :    0.041114
  24 H :    0.028729
  25 C :   -0.049663
  26 H :    0.034580
  27 H :    0.029194
  28 C :   -0.063940
  29 H :    0.025677
  30 H :    0.021203
  31 H :    0.027115
  32 H :    0.014498
  33 H :    0.043401

  Mayer bond orders larger than 0.100000
B(  0-S ,  1-C ) :   1.1314 B(  0-S ,  4-C ) :   1.1204 B(  1-C ,  2-C ) :   1.6163
B(  1-C , 32-H ) :   0.9743 B(  2-C ,  3-C ) :   1.2273 B(  2-C ,  6-C ) :   1.0293
B(  3-C ,  4-C ) :   1.6008 B(  3-C ,  5-H ) :   0.9984 B(  4-C , 20-C ) :   1.0525
B(  6-C ,  7-H ) :   0.9415 B(  6-C ,  8-H ) :   0.9313 B(  6-C ,  9-C ) :   1.0525
B(  9-C , 10-H ) :   0.9648 B(  9-C , 11-H ) :   0.9511 B(  9-C , 12-C ) :   1.0996
B( 12-C , 13-H ) :   0.9687 B( 12-C , 14-H ) :   0.9759 B( 12-C , 15-H ) :   0.9714
B( 16-S , 17-C ) :   1.1412 B( 16-S , 20-C ) :   1.1427 B( 17-C , 18-C ) :   1.6525
B( 17-C , 33-H ) :   0.9535 B( 18-C , 19-C ) :   1.2383 B( 18-C , 21-H ) :   0.9884
B( 19-C , 20-C ) :   1.5576 B( 19-C , 22-C ) :   1.0396 B( 22-C , 23-H ) :   0.9297
B( 22-C , 24-H ) :   0.9395 B( 22-C , 25-C ) :   1.0659 B( 25-C , 26-H ) :   0.9584
B( 25-C , 27-H ) :   0.9441 B( 25-C , 28-C ) :   1.1049 B( 28-C , 29-H ) :   0.9686
B( 28-C , 30-H ) :   0.9740 B( 28-C , 31-H ) :   0.9726

Dispersion correction           -0.013510124
FINAL SINGLE POINT ENERGY     -1339.861509259078

DIPOLE MOMENT
-------------
                                X             Y             Z
Electronic contribution:    -23.23941       6.50560     -17.77616
Nuclear contribution   :     23.67180      -6.89924      18.36341
                        -----------------------------------------
Total Dipole Moment    :      0.43240      -0.39364       0.58725
                        -----------------------------------------
Magnitude (a.u.)       :      0.82872
Magnitude (Debye)      :      2.10644

Rotational constants in cm-1:     0.016778     0.008429     0.006337
Rotational constants in MHz :   502.981916   252.684668   189.980173

                             ****ORCA TERMINATED NORMALLY****
TOTAL RUN TIME: 0 days 0 hours 0 minutes 34 seconds 287 msec
