                         Program Version 4.2.1 -  RELEASE  -
|  1> ! wB97X-D3 SP def2-SVP
|  2> %pal
|  3> nprocs 16
|  4> end
|  5>
|  6> * xyz 0 1
|  7> S 	 64.77 	 19.5785 	 77.3083
|  8> C 	 66.4375 	 19.1741 	 77.5645
|  9> C 	 67.2275 	 20.0749 	 76.9625
| 10> C 	 66.5401 	 21.2994 	 76.5768
| 11> C 	 65.1783 	 21.2134 	 76.8578
| 12> H 	 66.8751 	 22.2703 	 76.188
| 13> C 	 68.7286 	 19.9898 	 76.756
| 14> H 	 69.1584 	 20.4561 	 75.8779
| 15> H 	 68.8165 	 18.9226 	 76.5461
| 16> C 	 69.5523 	 20.4219 	 77.9432
| 17> H 	 69.5664 	 21.4954 	 78.0693
| 18> H 	 69.0427 	 19.9598 	 78.709
| 19> C 	 70.9725 	 19.8875 	 77.8695
| 20> H 	 71.0315 	 18.8914 	 77.5718
| 21> H 	 71.4248 	 20.3152 	 76.9814
| 22> H 	 71.5978 	 20.1873 	 78.6763
| 23> S 	 63.0966 	 21.6216 	 75.0057
| 24> C 	 62.6842 	 23.2834 	 74.6464
| 25> C 	 63.1746 	 24.1302 	 75.5974
| 26> C 	 64.0192 	 23.4974 	 76.5791
| 27> C 	 64.1765 	 22.1306 	 76.401
| 28> H 	 62.9411 	 25.1862 	 75.6248
| 29> C 	 64.7411 	 24.2486 	 77.5916
| 30> H 	 65.0034 	 25.1756 	 77.259
| 31> H 	 65.7051 	 23.7856 	 77.7218
| 32> C 	 64.1126 	 24.3384 	 78.9364
| 33> H 	 64.967 	 24.8229 	 79.5249
| 34> H 	 63.9933 	 23.3307 	 79.2656
| 35> C 	 62.8169 	 25.0649 	 78.9286
| 36> H 	 62.274 	 24.831 	 79.814
| 37> H 	 62.1842 	 24.7761 	 78.1136
| 38> H 	 62.924 	 26.1663 	 78.7159
| 39> H 	 66.8227 	 18.2599 	 78.1397
| 40> H 	 62.093 	 23.5287 	 73.7532
| 41> *
| 42>
| 43>                          ****END OF INPUT****

CARTESIAN COORDINATES (ANGSTROEM)
---------------------------------
  S     64.770000   19.578500   77.308300
  C     66.437500   19.174100   77.564500
  C     67.227500   20.074900   76.962500
  C     66.540100   21.299400   76.576800
  C     65.178300   21.213400   76.857800
  H     66.875100   22.270300   76.188000
  C     68.728600   19.989800   76.756000
  H     69.158400   20.456100   75.877900
  H     68.816500   18.922600   76.546100
  C     69.552300   20.421900   77.943200
  H     69.566400   21.495400   78.069300
  H     69.042700   19.959800   78.709000
  C     70.972500   19.887500   77.869500
  H     71.031500   18.891400   77.571800
  H     71.424800   20.315200   76.981400
  H     71.597800   20.187300   78.676300
  S     63.096600   21.621600   75.005700
  C     62.684200   23.283400   74.646400
  C     63.174600   24.130200   75.597400
  C     64.019200   23.497400   76.579100
  C     64.176500   22.130600   76.401000
  H     62.941100   25.186200   75.624800
  C     64.741100   24.248600   77.591600
  H     65.003400   25.175600   77.259000
  H     65.705100   23.785600   77.721800
  C     64.112600   24.338400   78.936400
  H     64.967000   24.822900   79.524900
  H     63.993300   23.330700   79.265600
  C     62.816900   25.064900   78.928600
  H     62.274000   24.831000   79.814000
  H     62.184200   24.776100   78.113600
  H     62.924000   26.166300   78.715900
  H     66.822700   18.259900   78.139700
  H     62.093000   23.528700   73.753200

 Total Charge           Charge          ....    0
 Multiplicity           Mult            ....    1
 Number of Electrons    NEL             ....  134
 Basis Dimension        Dim             ....  322

ORBITAL ENERGIES
----------------

  NO   OCC          E(Eh)            E(eV)
   0   2.0000     -88.963637     -2420.8236
   1   2.0000     -88.959405     -2420.7085
   2   2.0000     -10.328074      -281.0412
   3   2.0000     -10.327797      -281.0337
   4   2.0000     -10.321054      -280.8502
   5   2.0000     -10.318548      -280.7820
   6   2.0000     -10.302893      -280.3560
   7   2.0000     -10.299511      -280.2639
   8   2.0000     -10.299014      -280.2504
   9   2.0000     -10.293786      -280.1082
  10   2.0000     -10.286822      -279.9187
  11   2.0000     -10.278979      -279.7052
  12   2.0000     -10.276034      -279.6251
  13   2.0000     -10.270355      -279.4706
  14   2.0000     -10.269187      -279.4388
  15   2.0000     -10.268495      -279.4200
  16   2.0000      -8.079152      -219.8449
  17   2.0000      -8.073552      -219.6925
  18   2.0000      -6.037734      -164.2951
  19   2.0000      -6.033711      -164.1856
  20   2.0000      -6.032175      -164.1438
  21   2.0000      -6.029615      -164.0742
  22   2.0000      -6.028221      -164.0362
  23   2.0000      -6.024130      -163.9249
  24   2.0000      -1.008833       -27.4518
  25   2.0000      -0.983985       -26.7756
  26   2.0000      -0.923678       -25.1346
  27   2.0000      -0.920832       -25.0571
  28   2.0000      -0.876534       -23.8517
  29   2.0000      -0.851999       -23.1841
  30   2.0000      -0.844058       -22.9680
  31   2.0000      -0.813928       -22.1481
  32   2.0000      -0.788715       -21.4620
  33   2.0000      -0.776763       -21.1368
  34   2.0000      -0.712267       -19.3818
  35   2.0000      -0.707421       -19.2499
  36   2.0000      -0.688851       -18.7446
  37   2.0000      -0.664376       -18.0786
  38   2.0000      -0.642733       -17.4897
  39   2.0000      -0.612879       -16.6773
  40   2.0000      -0.601971       -16.3805
  41   2.0000      -0.583334       -15.8733
  42   2.0000      -0.563633       -15.3372
  43   2.0000      -0.556631       -15.1467
  44   2.0000      -0.545977       -14.8568
  45   2.0000      -0.534774       -14.5519
  46   2.0000      -0.526222       -14.3192
  47   2.0000      -0.513505       -13.9732
  48   2.0000      -0.504219       -13.7205
  49   2.0000      -0.496991       -13.5238
  50   2.0000      -0.493729       -13.4351
  51   2.0000      -0.489123       -13.3097
  52   2.0000      -0.475121       -12.9287
  53   2.0000      -0.466624       -12.6975
  54   2.0000      -0.461608       -12.5610
  55   2.0000      -0.446829       -12.1588
  56   2.0000      -0.438805       -11.9405
  57   2.0000      -0.434426       -11.8213
  58   2.0000      -0.428238       -11.6530
  59   2.0000      -0.424499       -11.5512
  60   2.0000      -0.420512       -11.4427
  61   2.0000      -0.412775       -11.2322
  62   2.0000      -0.407733       -11.0950
  63   2.0000      -0.349285        -9.5045
  64   2.0000      -0.328079        -8.9275
  65   2.0000      -0.327200        -8.9036
  66   2.0000      -0.291556        -7.9336
  67   0.0000       0.030622         0.8333
  68   0.0000       0.053694         1.4611
  69   0.0000       0.105192         2.8624
  70   0.0000       0.120593         3.2815
  71   0.0000       0.125531         3.4159

MULLIKEN ATOMIC CHARGES
-----------------------
   0 S :    0.100949
   1 C :   -0.137246
   2 C :   -0.081057
   3 C :    0.042307
   4 C :   -0.174791
   5 H :    0.029715
   6 C :    0.026240
   7 H :    0.020062
   8 H :    0.018295
   9 C :   -0.005243
  10 H :    0.028169
  11 H :   -0.000906
  12 C :    0.003378
  13 H :    0.006807
  14 H :    0.001341
  15 H :    0.036446
  16 S :    0.076561
  17 C :   -0.102337
  18 C :   -0.005928
  19 C :   -0.092896
  20 C :   -0.125415
  21 H :    0.017228
  22 C :    0.117931
  23 H :   -0.018881
  24 H :    0.001153
  25 C :   -0.044706
  26 H :    0.037352
  27 H :    0.020963
  28 C :   -0.031281
  29 H :    0.033645
  30 H :    0.023081
  31 H :    0.027193
  32 H :    0.079883
  33 H :    0.071987
Sum of atomic charges:   -0.0000000

LOEWDIN ATOMIC CHARGES
----------------------
   0 S :    0.405839
   1 C :   -0.208637
   2 C :   -0.063740
   3 C :   -0.053430
   4 C :   -0.198027
   5 H :    0.037245
   6 C :   -0.032391
   7 H :    0.027070
   8 H :    0.029894
   9 C :   -0.029267
  10 H :    0.025563
  11 H :    0.011302
  12 C :   -0.058981
  13 H :    0.017725
  14 H :    0.024990
  15 H :    0.024703
  16 S :    0.358913
  17 C :   -0.175002
  18 C :   -0.077689
  19 C :   -0.052392
  20 C :   -0.175534
  21 H :    0.030510
  22 C :   -0.036162
  23 H :    0.014101
  24 H :    0.031305
  25 C :   -0.033782
  26 H :    0.034406
  27 H :    0.022275
  28 C :   -0.068169
  29 H :    0.025720
  30 H :    0.024666
  31 H :    0.031090
  32 H :    0.049881
  33 H :    0.036006

  Mayer bond orders larger than 0.100000
B(  0-S ,  1-C ) :   1.1224 B(  0-S ,  4-C ) :   1.1439 B(  1-C ,  2-C ) :   1.6469
B(  1-C , 32-H ) :   0.9579 B(  2-C ,  3-C ) :   1.1992 B(  2-C ,  6-C ) :   1.0145
B(  3-C ,  4-C ) :   1.5777 B(  3-C ,  5-H ) :   0.9911 B(  4-C , 20-C ) :   1.0479
B(  6-C ,  7-H ) :   0.9461 B(  6-C ,  8-H ) :   0.9409 B(  6-C ,  9-C ) :   1.0653
B(  9-C , 10-H ) :   0.9533 B(  9-C , 11-H ) :   0.9513 B(  9-C , 12-C ) :   1.0907
B( 12-C , 13-H ) :   0.9708 B( 12-C , 14-H ) :   0.9648 B( 12-C , 15-H ) :   0.9730
B( 16-S , 17-C ) :   1.1555 B( 16-S , 20-C ) :   1.0951 B( 17-C , 18-C ) :   1.6052
B( 17-C , 33-H ) :   0.9654 B( 18-C , 19-C ) :   1.2184 B( 18-C , 21-H ) :   0.9926
B( 19-C , 20-C ) :   1.6269 B( 19-C , 22-C ) :   1.0633 B( 22-C , 23-H ) :   0.9160
B( 22-C , 24-H ) :   0.9117 B( 22-C , 25-C ) :   1.0815 B( 25-C , 26-H ) :   0.9511
B( 25-C , 27-H ) :   0.9511 B( 25-C , 28-C ) :   1.0879 B( 28-C , 29-H ) :   0.9704
B( 28-C , 30-H ) :   0.9683 B( 28-C , 31-H ) :   0.9691

Dispersion correction           -0.014232511
FINAL SINGLE POINT ENERGY     -1339.847323262842

DIPOLE MOMENT
-------------
                                X             Y             Z
Electronic contribution:    -18.70152     -10.64450     -11.88647
Nuclear contribution   :     19.29200      11.04156      11.88917
                        -----------------------------------------
Total Dipole Moment    :      0.59048       0.39707       0.00269
                        -----------------------------------------
Magnitude (a.u.)       :      0.71157
Magnitude (Debye)      :      1.80867

Rotational constants in cm-1:     0.021205     0.007644     0.006600
Rotational constants in MHz :   635.703633   229.163803   197.852363

                             ****ORCA TERMINATED NORMALLY****
TOTAL RUN TIME: 0 days 0 hours 0 minutes 30 seconds 851 msec
