                         Program Version 4.2.1 -  RELEASE  -
|  1> ! wB97X-D3 SP def2-SVP
|  2> %pal
|  3> nprocs 16
|  4> end
|  5>
|  6> * xyz 0 1
|  7> S 	 15.9557 	 -9.31947 	 79.8848
|  8> C 	 15.2402 	 -10.1469 	 81.2449
|  9> C 	 16.1307 	 -10.9749 	 81.8778
| 10> C 	 17.3619 	 -11.0808 	 81.1259
| 11> C 	 17.4395 	 -10.2914 	 80.0549
| 12> H 	 18.2777 	 -11.6669 	 81.4006
| 13> C 	 16.0575 	 -11.6624 	 83.2003
| 14> H 	 15.12 	 -11.5734 	 83.7401
| 15> H 	 16.8188 	 -11.2885 	 83.8682
| 16> C 	 16.4639 	 -13.1913 	 83.2198
| 17> H 	 17.28 	 -13.3353 	 82.5608
| 18> H 	 16.5989 	 -13.6568 	 84.1434
| 19> C 	 15.3886 	 -13.9876 	 82.5303
| 20> H 	 15.5499 	 -15.1162 	 82.6887
| 21> H 	 14.4359 	 -13.7426 	 83.0235
| 22> H 	 15.2776 	 -13.7768 	 81.4814
| 23> S 	 18.8938 	 -8.415 	 78.7659
| 24> C 	 19.905 	 -8.85118 	 77.4272
| 25> C 	 20.2534 	 -10.2263 	 77.5933
| 26> C 	 19.4603 	 -10.9526 	 78.5219
| 27> C 	 18.6154 	 -10.0997 	 79.2435
| 28> H 	 21.0097 	 -10.5735 	 76.9329
| 29> C 	 19.4873 	 -12.4873 	 78.4641
| 30> H 	 18.4088 	 -12.7145 	 78.4103
| 31> H 	 19.804 	 -12.9816 	 79.4859
| 32> C 	 20.3662 	 -13.2098 	 77.3865
| 33> H 	 21.3765 	 -12.9427 	 77.5831
| 34> H 	 20.011 	 -12.9128 	 76.3341
| 35> C 	 20.3231 	 -14.709 	 77.4286
| 36> H 	 21.0723 	 -15.1924 	 76.8022
| 37> H 	 19.3565 	 -15.0357 	 76.941
| 38> H 	 20.4804 	 -15.1178 	 78.3874
| 39> H 	 14.3403 	 -9.82814 	 81.7197
| 40> H 	 20.4418 	 -8.22354 	 76.8262
| 41> *
| 42>
| 43>                          ****END OF INPUT****

CARTESIAN COORDINATES (ANGSTROEM)
---------------------------------
  S     15.955700   -9.319470   79.884800
  C     15.240200  -10.146900   81.244900
  C     16.130700  -10.974900   81.877800
  C     17.361900  -11.080800   81.125900
  C     17.439500  -10.291400   80.054900
  H     18.277700  -11.666900   81.400600
  C     16.057500  -11.662400   83.200300
  H     15.120000  -11.573400   83.740100
  H     16.818800  -11.288500   83.868200
  C     16.463900  -13.191300   83.219800
  H     17.280000  -13.335300   82.560800
  H     16.598900  -13.656800   84.143400
  C     15.388600  -13.987600   82.530300
  H     15.549900  -15.116200   82.688700
  H     14.435900  -13.742600   83.023500
  H     15.277600  -13.776800   81.481400
  S     18.893800   -8.415000   78.765900
  C     19.905000   -8.851180   77.427200
  C     20.253400  -10.226300   77.593300
  C     19.460300  -10.952600   78.521900
  C     18.615400  -10.099700   79.243500
  H     21.009700  -10.573500   76.932900
  C     19.487300  -12.487300   78.464100
  H     18.408800  -12.714500   78.410300
  H     19.804000  -12.981600   79.485900
  C     20.366200  -13.209800   77.386500
  H     21.376500  -12.942700   77.583100
  H     20.011000  -12.912800   76.334100
  C     20.323100  -14.709000   77.428600
  H     21.072300  -15.192400   76.802200
  H     19.356500  -15.035700   76.941000
  H     20.480400  -15.117800   78.387400
  H     14.340300   -9.828140   81.719700
  H     20.441800   -8.223540   76.826200

 Total Charge           Charge          ....    0
 Multiplicity           Mult            ....    1
 Number of Electrons    NEL             ....  134
 Basis Dimension        Dim             ....  322

ORBITAL ENERGIES
----------------

  NO   OCC          E(Eh)            E(eV)
   0   2.0000     -88.966021     -2420.8885
   1   2.0000     -88.965503     -2420.8744
   2   2.0000     -10.329636      -281.0837
   3   2.0000     -10.326303      -280.9930
   4   2.0000     -10.313837      -280.6538
   5   2.0000     -10.312778      -280.6250
   6   2.0000     -10.311818      -280.5988
   7   2.0000     -10.308366      -280.5049
   8   2.0000     -10.304469      -280.3989
   9   2.0000     -10.295642      -280.1587
  10   2.0000     -10.293920      -280.1118
  11   2.0000     -10.293021      -280.0873
  12   2.0000     -10.292617      -280.0763
  13   2.0000     -10.279384      -279.7162
  14   2.0000     -10.278097      -279.6812
  15   2.0000     -10.273246      -279.5492
  16   2.0000      -8.080484      -219.8812
  17   2.0000      -8.079881      -219.8647
  18   2.0000      -6.038925      -164.3275
  19   2.0000      -6.038597      -164.3186
  20   2.0000      -6.034921      -164.2185
  21   2.0000      -6.034573      -164.2091
  22   2.0000      -6.031425      -164.1234
  23   2.0000      -6.030264      -164.0918
  24   2.0000      -1.008627       -27.4461
  25   2.0000      -0.983813       -26.7709
  26   2.0000      -0.914874       -24.8950
  27   2.0000      -0.908130       -24.7115
  28   2.0000      -0.874807       -23.8047
  29   2.0000      -0.857172       -23.3248
  30   2.0000      -0.846316       -23.0294
  31   2.0000      -0.815234       -22.1836
  32   2.0000      -0.779690       -21.2165
  33   2.0000      -0.772966       -21.0335
  34   2.0000      -0.709306       -19.3012
  35   2.0000      -0.702411       -19.1136
  36   2.0000      -0.695189       -18.9170
  37   2.0000      -0.655647       -17.8410
  38   2.0000      -0.645088       -17.5537
  39   2.0000      -0.625211       -17.0129
  40   2.0000      -0.595270       -16.1981
  41   2.0000      -0.576537       -15.6884
  42   2.0000      -0.571216       -15.5436
  43   2.0000      -0.550833       -14.9889
  44   2.0000      -0.543849       -14.7989
  45   2.0000      -0.529669       -14.4130
  46   2.0000      -0.520655       -14.1677
  47   2.0000      -0.510304       -13.8861
  48   2.0000      -0.506396       -13.7797
  49   2.0000      -0.500283       -13.6134
  50   2.0000      -0.491159       -13.3651
  51   2.0000      -0.480524       -13.0757
  52   2.0000      -0.471512       -12.8305
  53   2.0000      -0.464172       -12.6308
  54   2.0000      -0.455076       -12.3832
  55   2.0000      -0.449975       -12.2444
  56   2.0000      -0.448021       -12.1913
  57   2.0000      -0.431471       -11.7409
  58   2.0000      -0.427692       -11.6381
  59   2.0000      -0.421999       -11.4832
  60   2.0000      -0.419718       -11.4211
  61   2.0000      -0.417192       -11.3524
  62   2.0000      -0.414999       -11.2927
  63   2.0000      -0.354903        -9.6574
  64   2.0000      -0.330805        -9.0017
  65   2.0000      -0.323786        -8.8107
  66   2.0000      -0.289909        -7.8888
  67   0.0000       0.021060         0.5731
  68   0.0000       0.070825         1.9273
  69   0.0000       0.106758         2.9050
  70   0.0000       0.122936         3.3453
  71   0.0000       0.128341         3.4923

MULLIKEN ATOMIC CHARGES
-----------------------
   0 S :    0.108307
   1 C :   -0.105050
   2 C :   -0.056491
   3 C :   -0.030011
   4 C :   -0.110473
   5 H :    0.039234
   6 C :    0.066491
   7 H :    0.017788
   8 H :    0.039182
   9 C :   -0.048027
  10 H :    0.017809
  11 H :    0.023417
  12 C :   -0.089037
  13 H :    0.038529
  14 H :    0.015658
  15 H :    0.041733
  16 S :    0.099606
  17 C :   -0.054795
  18 C :   -0.070823
  19 C :    0.009492
  20 C :   -0.175158
  21 H :    0.015460
  22 C :   -0.002116
  23 H :    0.043197
  24 H :    0.041568
  25 C :   -0.085071
  26 H :    0.033250
  27 H :    0.047681
  28 C :   -0.027300
  29 H :    0.029873
  30 H :    0.036477
  31 H :    0.021688
  32 H :    0.039289
  33 H :    0.028624
Sum of atomic charges:   -0.0000000

LOEWDIN ATOMIC CHARGES
----------------------
   0 S :    0.387861
   1 C :   -0.190652
   2 C :   -0.060371
   3 C :   -0.066114
   4 C :   -0.187284
   5 H :    0.041951
   6 C :   -0.028258
   7 H :    0.026133
   8 H :    0.036207
   9 C :   -0.033410
  10 H :    0.017745
  11 H :    0.019042
  12 C :   -0.068969
  13 H :    0.030134
  14 H :    0.018131
  15 H :    0.021366
  16 S :    0.410536
  17 C :   -0.179291
  18 C :   -0.066759
  19 C :   -0.056016
  20 C :   -0.189665
  21 H :    0.024064
  22 C :   -0.041396
  23 H :    0.036926
  24 H :    0.037926
  25 C :   -0.045281
  26 H :    0.020160
  27 H :    0.035521
  28 C :   -0.064051
  29 H :    0.028963
  30 H :    0.033133
  31 H :    0.016626
  32 H :    0.024887
  33 H :    0.010205

  Mayer bond orders larger than 0.100000
B(  0-S ,  1-C ) :   1.1199 B(  0-S ,  4-C ) :   1.1116 B(  1-C ,  2-C ) :   1.6490
B(  1-C , 32-H ) :   0.9648 B(  2-C ,  3-C ) :   1.1838 B(  2-C ,  6-C ) :   1.0360
B(  3-C ,  4-C ) :   1.6315 B(  3-C ,  5-H ) :   0.9834 B(  4-C , 20-C ) :   1.0701
B(  6-C ,  7-H ) :   0.9478 B(  6-C ,  8-H ) :   0.9362 B(  6-C ,  9-C ) :   1.0631
B(  9-C , 10-H ) :   0.9546 B(  9-C , 11-H ) :   0.9584 B(  9-C , 12-C ) :   1.0717
B( 12-C , 13-H ) :   0.9747 B( 12-C , 14-H ) :   0.9750 B( 12-C , 15-H ) :   0.9772
B( 16-S , 17-C ) :   1.1682 B( 16-S , 20-C ) :   1.1475 B( 17-C , 18-C ) :   1.5707
B( 17-C , 20-C ) :   0.1097 B( 17-C , 33-H ) :   0.9738 B( 18-C , 19-C ) :   1.2794
B( 18-C , 21-H ) :   0.9850 B( 19-C , 20-C ) :   1.5520 B( 19-C , 22-C ) :   1.0188
B( 22-C , 23-H ) :   0.9338 B( 22-C , 24-H ) :   0.9344 B( 22-C , 25-C ) :   1.0747
B( 25-C , 26-H ) :   0.9471 B( 25-C , 27-H ) :   0.9503 B( 25-C , 28-C ) :   1.0949
B( 28-C , 29-H ) :   0.9706 B( 28-C , 30-H ) :   0.9747 B( 28-C , 31-H ) :   0.9710

Dispersion correction           -0.013607616
FINAL SINGLE POINT ENERGY     -1339.850937801098

DIPOLE MOMENT
-------------
                                X             Y             Z
Electronic contribution:     -3.18428      29.97022      -5.35005
Nuclear contribution   :      3.55921     -30.53498       5.52362
                        -----------------------------------------
Total Dipole Moment    :      0.37494      -0.56476       0.17357
                        -----------------------------------------
Magnitude (a.u.)       :      0.69976
Magnitude (Debye)      :      1.77864

Rotational constants in cm-1:     0.016118     0.009410     0.006391
Rotational constants in MHz :   483.210902   282.112267   191.591887

                             ****ORCA TERMINATED NORMALLY****
TOTAL RUN TIME: 0 days 0 hours 0 minutes 28 seconds 19 msec
