                         Program Version 4.2.1 -  RELEASE  -
|  1> ! wB97X-D3 SP def2-SVP
|  2> %pal
|  3> nprocs 16
|  4> end
|  5>
|  6> * xyz 0 1
|  7> S 	 -55.2435 	 61.0826 	 133.592
|  8> C 	 -53.9635 	 60.894 	 132.408
|  9> C 	 -52.7005 	 61.1368 	 132.9
| 10> C 	 -52.7301 	 61.2009 	 134.317
| 11> C 	 -53.9644 	 61.3412 	 134.843
| 12> H 	 -51.8217 	 61.2242 	 134.929
| 13> C 	 -51.3851 	 60.8906 	 132.098
| 14> H 	 -50.5296 	 61.209 	 132.632
| 15> H 	 -51.4173 	 61.3426 	 131.121
| 16> C 	 -51.0327 	 59.473 	 131.67
| 17> H 	 -50.7219 	 58.9093 	 132.581
| 18> H 	 -51.8822 	 58.9722 	 131.164
| 19> C 	 -49.8082 	 59.5068 	 130.746
| 20> H 	 -49.4414 	 58.6124 	 130.35
| 21> H 	 -50.1529 	 60.0852 	 129.863
| 22> H 	 -49.0341 	 60.0471 	 131.203
| 23> S 	 -55.2917 	 63.1032 	 136.53
| 24> C 	 -54.9826 	 63.1543 	 138.236
| 25> C 	 -53.9314 	 62.3055 	 138.491
| 26> C 	 -53.4869 	 61.4939 	 137.403
| 27> C 	 -54.1801 	 61.7757 	 136.2
| 28> H 	 -53.6338 	 62.1913 	 139.516
| 29> C 	 -52.4852 	 60.3513 	 137.632
| 30> H 	 -51.8266 	 60.7322 	 138.411
| 31> H 	 -51.8921 	 60.101 	 136.745
| 32> C 	 -53.098 	 58.9978 	 138.058
| 33> H 	 -52.2737 	 58.2629 	 138.109
| 34> H 	 -53.7899 	 58.6407 	 137.29
| 35> C 	 -53.7288 	 58.9561 	 139.395
| 36> H 	 -54.7639 	 59.3887 	 139.369
| 37> H 	 -53.1309 	 59.5083 	 140.086
| 38> H 	 -53.9597 	 57.9989 	 139.855
| 39> H 	 -54.2209 	 60.6768 	 131.369
| 40> H 	 -55.6559 	 63.6908 	 138.955
| 41> *
| 42>
| 43>                          ****END OF INPUT****

CARTESIAN COORDINATES (ANGSTROEM)
---------------------------------
  S    -55.243500   61.082600  133.592000
  C    -53.963500   60.894000  132.408000
  C    -52.700500   61.136800  132.900000
  C    -52.730100   61.200900  134.317000
  C    -53.964400   61.341200  134.843000
  H    -51.821700   61.224200  134.929000
  C    -51.385100   60.890600  132.098000
  H    -50.529600   61.209000  132.632000
  H    -51.417300   61.342600  131.121000
  C    -51.032700   59.473000  131.670000
  H    -50.721900   58.909300  132.581000
  H    -51.882200   58.972200  131.164000
  C    -49.808200   59.506800  130.746000
  H    -49.441400   58.612400  130.350000
  H    -50.152900   60.085200  129.863000
  H    -49.034100   60.047100  131.203000
  S    -55.291700   63.103200  136.530000
  C    -54.982600   63.154300  138.236000
  C    -53.931400   62.305500  138.491000
  C    -53.486900   61.493900  137.403000
  C    -54.180100   61.775700  136.200000
  H    -53.633800   62.191300  139.516000
  C    -52.485200   60.351300  137.632000
  H    -51.826600   60.732200  138.411000
  H    -51.892100   60.101000  136.745000
  C    -53.098000   58.997800  138.058000
  H    -52.273700   58.262900  138.109000
  H    -53.789900   58.640700  137.290000
  C    -53.728800   58.956100  139.395000
  H    -54.763900   59.388700  139.369000
  H    -53.130900   59.508300  140.086000
  H    -53.959700   57.998900  139.855000
  H    -54.220900   60.676800  131.369000
  H    -55.655900   63.690800  138.955000

 Total Charge           Charge          ....    0
 Multiplicity           Mult            ....    1
 Number of Electrons    NEL             ....  134
 Basis Dimension        Dim             ....  322

ORBITAL ENERGIES
----------------

  NO   OCC          E(Eh)            E(eV)
   0   2.0000     -88.971636     -2421.0413
   1   2.0000     -88.960155     -2420.7289
   2   2.0000     -10.330756      -281.1142
   3   2.0000     -10.329428      -281.0780
   4   2.0000     -10.320145      -280.8254
   5   2.0000     -10.317758      -280.7605
   6   2.0000     -10.305389      -280.4239
   7   2.0000     -10.304912      -280.4109
   8   2.0000     -10.295138      -280.1450
   9   2.0000     -10.294706      -280.1332
  10   2.0000     -10.291668      -280.0505
  11   2.0000     -10.291254      -280.0393
  12   2.0000     -10.290173      -280.0099
  13   2.0000     -10.282945      -279.8132
  14   2.0000     -10.273951      -279.5684
  15   2.0000     -10.269836      -279.4564
  16   2.0000      -8.085436      -220.0159
  17   2.0000      -8.075149      -219.7360
  18   2.0000      -6.044032      -164.4665
  19   2.0000      -6.040228      -164.3629
  20   2.0000      -6.036001      -164.2479
  21   2.0000      -6.033633      -164.1835
  22   2.0000      -6.029432      -164.0692
  23   2.0000      -6.026096      -163.9784
  24   2.0000      -1.006179       -27.3795
  25   2.0000      -0.983831       -26.7714
  26   2.0000      -0.916869       -24.9493
  27   2.0000      -0.909385       -24.7456
  28   2.0000      -0.874320       -23.7915
  29   2.0000      -0.854572       -23.2541
  30   2.0000      -0.844232       -22.9727
  31   2.0000      -0.813741       -22.1430
  32   2.0000      -0.784485       -21.3469
  33   2.0000      -0.773263       -21.0416
  34   2.0000      -0.707033       -19.2394
  35   2.0000      -0.697837       -18.9891
  36   2.0000      -0.687304       -18.7025
  37   2.0000      -0.661727       -18.0065
  38   2.0000      -0.639615       -17.4048
  39   2.0000      -0.625704       -17.0263
  40   2.0000      -0.591908       -16.1066
  41   2.0000      -0.583233       -15.8706
  42   2.0000      -0.565410       -15.3856
  43   2.0000      -0.558113       -15.1870
  44   2.0000      -0.540102       -14.6969
  45   2.0000      -0.526238       -14.3197
  46   2.0000      -0.521445       -14.1892
  47   2.0000      -0.509625       -13.8676
  48   2.0000      -0.501435       -13.6447
  49   2.0000      -0.499060       -13.5801
  50   2.0000      -0.487639       -13.2693
  51   2.0000      -0.481701       -13.1078
  52   2.0000      -0.473445       -12.8831
  53   2.0000      -0.469864       -12.7856
  54   2.0000      -0.459523       -12.5043
  55   2.0000      -0.450413       -12.2564
  56   2.0000      -0.442222       -12.0335
  57   2.0000      -0.436882       -11.8882
  58   2.0000      -0.432110       -11.7583
  59   2.0000      -0.430296       -11.7090
  60   2.0000      -0.418250       -11.3812
  61   2.0000      -0.415706       -11.3119
  62   2.0000      -0.403204       -10.9717
  63   2.0000      -0.355789        -9.6815
  64   2.0000      -0.334587        -9.1046
  65   2.0000      -0.327514        -8.9121
  66   2.0000      -0.285962        -7.7814
  67   0.0000       0.022157         0.6029
  68   0.0000       0.071307         1.9404
  69   0.0000       0.106946         2.9101
  70   0.0000       0.117705         3.2029
  71   0.0000       0.129396         3.5210

MULLIKEN ATOMIC CHARGES
-----------------------
   0 S :    0.116150
   1 C :   -0.134381
   2 C :   -0.028284
   3 C :   -0.001538
   4 C :   -0.125716
   5 H :    0.028146
   6 C :    0.052236
   7 H :    0.011713
   8 H :    0.015438
   9 C :   -0.090556
  10 H :    0.028746
  11 H :    0.035113
  12 C :   -0.016774
  13 H :    0.026169
  14 H :    0.019823
  15 H :    0.018433
  16 S :    0.090108
  17 C :   -0.124750
  18 C :   -0.028647
  19 C :   -0.044714
  20 C :   -0.144496
  21 H :    0.013102
  22 C :    0.058488
  23 H :    0.024709
  24 H :    0.024312
  25 C :   -0.054646
  26 H :    0.026578
  27 H :    0.035269
  28 C :   -0.050462
  29 H :    0.035262
  30 H :    0.013390
  31 H :    0.028950
  32 H :    0.057502
  33 H :    0.085328
Sum of atomic charges:   -0.0000000

LOEWDIN ATOMIC CHARGES
----------------------
   0 S :    0.382646
   1 C :   -0.179098
   2 C :   -0.063254
   3 C :   -0.049471
   4 C :   -0.182212
   5 H :    0.035919
   6 C :   -0.027633
   7 H :    0.023474
   8 H :    0.028183
   9 C :   -0.039042
  10 H :    0.022013
  11 H :    0.023446
  12 C :   -0.056715
  13 H :    0.019314
  14 H :    0.027391
  15 H :    0.018068
  16 S :    0.404221
  17 C :   -0.203238
  18 C :   -0.074791
  19 C :   -0.064898
  20 C :   -0.189926
  21 H :    0.027290
  22 C :   -0.029336
  23 H :    0.029891
  24 H :    0.030074
  25 C :   -0.040599
  26 H :    0.026106
  27 H :    0.028019
  28 C :   -0.073174
  29 H :    0.031335
  30 H :    0.016727
  31 H :    0.026408
  32 H :    0.027865
  33 H :    0.044997

  Mayer bond orders larger than 0.100000
B(  0-S ,  1-C ) :   1.1403 B(  0-S ,  4-C ) :   1.1125 B(  1-C ,  2-C ) :   1.6121
B(  1-C , 32-H ) :   0.9665 B(  2-C ,  3-C ) :   1.2370 B(  2-C ,  6-C ) :   1.0313
B(  3-C ,  4-C ) :   1.5949 B(  3-C ,  5-H ) :   0.9804 B(  4-C , 20-C ) :   1.0771
B(  6-C ,  7-H ) :   0.9457 B(  6-C ,  8-H ) :   0.9426 B(  6-C ,  9-C ) :   1.0557
B(  9-C , 10-H ) :   0.9554 B(  9-C , 11-H ) :   0.9568 B(  9-C , 12-C ) :   1.0750
B( 12-C , 13-H ) :   0.9732 B( 12-C , 14-H ) :   0.9725 B( 12-C , 15-H ) :   0.9745
B( 16-S , 17-C ) :   1.1601 B( 16-S , 20-C ) :   1.1537 B( 17-C , 18-C ) :   1.5766
B( 17-C , 20-C ) :   0.1067 B( 17-C , 33-H ) :   0.9632 B( 18-C , 19-C ) :   1.2728
B( 18-C , 21-H ) :   0.9892 B( 19-C , 20-C ) :   1.5478 B( 19-C , 22-C ) :   1.0383
B( 22-C , 23-H ) :   0.9339 B( 22-C , 24-H ) :   0.9340 B( 22-C , 25-C ) :   1.0810
B( 25-C , 26-H ) :   0.9526 B( 25-C , 27-H ) :   0.9530 B( 25-C , 28-C ) :   1.0911
B( 28-C , 29-H ) :   0.9680 B( 28-C , 30-H ) :   0.9714 B( 28-C , 31-H ) :   0.9709

Dispersion correction           -0.013944739
FINAL SINGLE POINT ENERGY     -1339.872302598965

DIPOLE MOMENT
-------------
                                X             Y             Z
Electronic contribution:    -20.97471      16.61917       0.72163
Nuclear contribution   :     21.53782     -17.01763      -0.72733
                        -----------------------------------------
Total Dipole Moment    :      0.56311      -0.39846      -0.00570
                        -----------------------------------------
Magnitude (a.u.)       :      0.68985
Magnitude (Debye)      :      1.75345

Rotational constants in cm-1:     0.020406     0.007682     0.006323
Rotational constants in MHz :   611.756384   230.312444   189.547966

                             ****ORCA TERMINATED NORMALLY****
TOTAL RUN TIME: 0 days 0 hours 0 minutes 33 seconds 682 msec
