                         Program Version 4.2.1 -  RELEASE  -
|  1> ! wB97X-D3 SP def2-SVP
|  2> %pal
|  3> nprocs 16
|  4> end
|  5>
|  6> * xyz 0 1
|  7> S 	 53.2718 	 1.38009 	 85.0861
|  8> C 	 51.8424 	 0.449513 	 84.616
|  9> C 	 50.7003 	 1.00188 	 85.0968
| 10> C 	 50.9897 	 2.17587 	 85.9552
| 11> C 	 52.3586 	 2.50545 	 85.9858
| 12> H 	 50.3278 	 2.82429 	 86.4656
| 13> C 	 49.3632 	 0.423832 	 84.7468
| 14> H 	 49.2853 	 -0.460131 	 85.3803
| 15> H 	 49.3528 	 0.0950484 	 83.6772
| 16> C 	 48.1771 	 1.33857 	 84.9068
| 17> H 	 48.0826 	 1.87492 	 85.8463
| 18> H 	 48.2046 	 2.03804 	 84.0302
| 19> C 	 46.871 	 0.47328 	 84.7666
| 20> H 	 46.9826 	 -0.423693 	 84.0779
| 21> H 	 46.5479 	 0.0942309 	 85.7033
| 22> H 	 46.0722 	 1.13353 	 84.4305
| 23> S 	 52.0763 	 4.9283 	 87.091
| 24> C 	 53.2934 	 5.72136 	 88.0082
| 25> C 	 54.4104 	 4.95271 	 88.0923
| 26> C 	 54.2055 	 3.63009 	 87.5121
| 27> C 	 53.0209 	 3.58017 	 86.7252
| 28> H 	 55.2694 	 5.30997 	 88.5896
| 29> C 	 55.2588 	 2.51855 	 87.7128
| 30> H 	 56.1689 	 2.73618 	 87.1184
| 31> H 	 54.8355 	 1.58827 	 87.3667
| 32> C 	 55.8341 	 2.39545 	 89.1271
| 33> H 	 54.9507 	 2.30507 	 89.8318
| 34> H 	 56.4185 	 3.23899 	 89.4527
| 35> C 	 56.7781 	 1.17337 	 89.3002
| 36> H 	 56.2378 	 0.303276 	 89.2267
| 37> H 	 57.2111 	 1.25346 	 90.2839
| 38> H 	 57.655 	 1.06641 	 88.6231
| 39> H 	 51.7693 	 -0.465902 	 84.0193
| 40> H 	 53.2225 	 6.70895 	 88.4607
| 41> *
| 42>
| 43>                          ****END OF INPUT****

CARTESIAN COORDINATES (ANGSTROEM)
---------------------------------
  S     53.271800    1.380090   85.086100
  C     51.842400    0.449513   84.616000
  C     50.700300    1.001880   85.096800
  C     50.989700    2.175870   85.955200
  C     52.358600    2.505450   85.985800
  H     50.327800    2.824290   86.465600
  C     49.363200    0.423832   84.746800
  H     49.285300   -0.460131   85.380300
  H     49.352800    0.095048   83.677200
  C     48.177100    1.338570   84.906800
  H     48.082600    1.874920   85.846300
  H     48.204600    2.038040   84.030200
  C     46.871000    0.473280   84.766600
  H     46.982600   -0.423693   84.077900
  H     46.547900    0.094231   85.703300
  H     46.072200    1.133530   84.430500
  S     52.076300    4.928300   87.091000
  C     53.293400    5.721360   88.008200
  C     54.410400    4.952710   88.092300
  C     54.205500    3.630090   87.512100
  C     53.020900    3.580170   86.725200
  H     55.269400    5.309970   88.589600
  C     55.258800    2.518550   87.712800
  H     56.168900    2.736180   87.118400
  H     54.835500    1.588270   87.366700
  C     55.834100    2.395450   89.127100
  H     54.950700    2.305070   89.831800
  H     56.418500    3.238990   89.452700
  C     56.778100    1.173370   89.300200
  H     56.237800    0.303276   89.226700
  H     57.211100    1.253460   90.283900
  H     57.655000    1.066410   88.623100
  H     51.769300   -0.465902   84.019300
  H     53.222500    6.708950   88.460700

 Total Charge           Charge          ....    0
 Multiplicity           Mult            ....    1
 Number of Electrons    NEL             ....  134
 Basis Dimension        Dim             ....  322

ORBITAL ENERGIES
----------------

  NO   OCC          E(Eh)            E(eV)
   0   2.0000     -88.965933     -2420.8861
   1   2.0000     -88.963720     -2420.8259
   2   2.0000     -10.331578      -281.1365
   3   2.0000     -10.327611      -281.0286
   4   2.0000     -10.313786      -280.6524
   5   2.0000     -10.310523      -280.5636
   6   2.0000     -10.308605      -280.5114
   7   2.0000     -10.301354      -280.3141
   8   2.0000     -10.296686      -280.1871
   9   2.0000     -10.293342      -280.0961
  10   2.0000     -10.290950      -280.0310
  11   2.0000     -10.290842      -280.0281
  12   2.0000     -10.290442      -280.0172
  13   2.0000     -10.289094      -279.9805
  14   2.0000     -10.280478      -279.7460
  15   2.0000     -10.271931      -279.5135
  16   2.0000      -8.080590      -219.8840
  17   2.0000      -8.080143      -219.8719
  18   2.0000      -6.039199      -164.3350
  19   2.0000      -6.038600      -164.3187
  20   2.0000      -6.034950      -164.2193
  21   2.0000      -6.034324      -164.2023
  22   2.0000      -6.031407      -164.1229
  23   2.0000      -6.030952      -164.1106
  24   2.0000      -1.012600       -27.5543
  25   2.0000      -0.986876       -26.8543
  26   2.0000      -0.916609       -24.9422
  27   2.0000      -0.905042       -24.6274
  28   2.0000      -0.874682       -23.8013
  29   2.0000      -0.850498       -23.1432
  30   2.0000      -0.838864       -22.8266
  31   2.0000      -0.815819       -22.1996
  32   2.0000      -0.782601       -21.2957
  33   2.0000      -0.771047       -20.9812
  34   2.0000      -0.712010       -19.3748
  35   2.0000      -0.698950       -19.0194
  36   2.0000      -0.683997       -18.6125
  37   2.0000      -0.660892       -17.9838
  38   2.0000      -0.632846       -17.2206
  39   2.0000      -0.616741       -16.7824
  40   2.0000      -0.597934       -16.2706
  41   2.0000      -0.576517       -15.6878
  42   2.0000      -0.570658       -15.5284
  43   2.0000      -0.567291       -15.4368
  44   2.0000      -0.528336       -14.3768
  45   2.0000      -0.522992       -14.2313
  46   2.0000      -0.516143       -14.0450
  47   2.0000      -0.511299       -13.9131
  48   2.0000      -0.505424       -13.7533
  49   2.0000      -0.500676       -13.6241
  50   2.0000      -0.485552       -13.2126
  51   2.0000      -0.480896       -13.0858
  52   2.0000      -0.471823       -12.8390
  53   2.0000      -0.464415       -12.6374
  54   2.0000      -0.460732       -12.5371
  55   2.0000      -0.450445       -12.2572
  56   2.0000      -0.448709       -12.2100
  57   2.0000      -0.438704       -11.9377
  58   2.0000      -0.431428       -11.7398
  59   2.0000      -0.428620       -11.6633
  60   2.0000      -0.420184       -11.4338
  61   2.0000      -0.412089       -11.2135
  62   2.0000      -0.409919       -11.1545
  63   2.0000      -0.356839        -9.7101
  64   2.0000      -0.326553        -8.8859
  65   2.0000      -0.325289        -8.8516
  66   2.0000      -0.287519        -7.8238
  67   0.0000       0.027653         0.7525
  68   0.0000       0.085471         2.3258
  69   0.0000       0.114189         3.1072
  70   0.0000       0.129342         3.5196
  71   0.0000       0.135691         3.6923

MULLIKEN ATOMIC CHARGES
-----------------------
   0 S :    0.111878
   1 C :   -0.127024
   2 C :   -0.073233
   3 C :    0.028929
   4 C :   -0.157977
   5 H :   -0.003591
   6 C :    0.034150
   7 H :    0.043391
   8 H :    0.042307
   9 C :   -0.096737
  10 H :    0.043127
  11 H :    0.045824
  12 C :   -0.060051
  13 H :    0.037911
  14 H :    0.026543
  15 H :    0.032670
  16 S :    0.093551
  17 C :   -0.081969
  18 C :   -0.015145
  19 C :   -0.070517
  20 C :   -0.101492
  21 H :    0.007277
  22 C :    0.080224
  23 H :    0.038721
  24 H :    0.016523
  25 C :   -0.125143
  26 H :    0.041045
  27 H :    0.028635
  28 C :   -0.020725
  29 H :    0.017812
  30 H :    0.026871
  31 H :    0.032034
  32 H :    0.044328
  33 H :    0.059853
Sum of atomic charges:    0.0000000

LOEWDIN ATOMIC CHARGES
----------------------
   0 S :    0.426473
   1 C :   -0.204422
   2 C :   -0.058494
   3 C :   -0.073511
   4 C :   -0.200795
   5 H :    0.014730
   6 C :   -0.040329
   7 H :    0.034860
   8 H :    0.040259
   9 C :   -0.040793
  10 H :    0.024670
  11 H :    0.031974
  12 C :   -0.065198
  13 H :    0.030145
  14 H :    0.017789
  15 H :    0.025774
  16 S :    0.448975
  17 C :   -0.194477
  18 C :   -0.066851
  19 C :   -0.051743
  20 C :   -0.223515
  21 H :    0.025128
  22 C :   -0.040174
  23 H :    0.036832
  24 H :    0.016707
  25 C :   -0.041212
  26 H :    0.030933
  27 H :    0.018045
  28 C :   -0.059275
  29 H :    0.012842
  30 H :    0.026848
  31 H :    0.029055
  32 H :    0.034045
  33 H :    0.034703

  Mayer bond orders larger than 0.100000
B(  0-S ,  1-C ) :   1.1175 B(  0-S ,  4-C ) :   1.1651 B(  1-C ,  2-C ) :   1.6554
B(  1-C , 32-H ) :   0.9668 B(  2-C ,  3-C ) :   1.2125 B(  2-C ,  6-C ) :   1.0091
B(  3-C ,  4-C ) :   1.5740 B(  3-C ,  5-H ) :   0.9863 B(  4-C , 20-C ) :   1.0393
B(  6-C ,  7-H ) :   0.9378 B(  6-C ,  8-H ) :   0.9424 B(  6-C ,  9-C ) :   1.0784
B(  9-C , 10-H ) :   0.9530 B(  9-C , 11-H ) :   0.9622 B(  9-C , 12-C ) :   1.0716
B( 12-C , 13-H ) :   0.9747 B( 12-C , 14-H ) :   0.9786 B( 12-C , 15-H ) :   0.9753
B( 16-S , 17-C ) :   1.1657 B( 16-S , 20-C ) :   1.1587 B( 17-C , 18-C ) :   1.6065
B( 17-C , 33-H ) :   0.9667 B( 18-C , 19-C ) :   1.2389 B( 18-C , 21-H ) :   0.9961
B( 19-C , 20-C ) :   1.5408 B( 19-C , 22-C ) :   1.0459 B( 22-C , 23-H ) :   0.9339
B( 22-C , 24-H ) :   0.9333 B( 22-C , 25-C ) :   1.0634 B( 25-C , 26-H ) :   0.9566
B( 25-C , 27-H ) :   0.9536 B( 25-C , 28-C ) :   1.0859 B( 28-C , 29-H ) :   0.9765
B( 28-C , 30-H ) :   0.9737 B( 28-C , 31-H ) :   0.9735

Dispersion correction           -0.013136466
FINAL SINGLE POINT ENERGY     -1339.875354902463

DIPOLE MOMENT
-------------
                                X             Y             Z
Electronic contribution:      4.69421      12.53313      -5.13118
Nuclear contribution   :     -4.80481     -12.70364       5.40482
                        -----------------------------------------
Total Dipole Moment    :     -0.11060      -0.17051       0.27364
                        -----------------------------------------
Magnitude (a.u.)       :      0.34086
Magnitude (Debye)      :      0.86639

Rotational constants in cm-1:     0.021960     0.007142     0.005902
Rotational constants in MHz :   658.357273   214.118633   176.934302

                             ****ORCA TERMINATED NORMALLY****
TOTAL RUN TIME: 0 days 0 hours 0 minutes 28 seconds 631 msec
