                         Program Version 4.2.1 -  RELEASE  -
|  1> ! wB97X-D3 SP def2-SVP
|  2> %pal
|  3> nprocs 16
|  4> end
|  5>
|  6> * xyz 0 1
|  7> S 	 -11.9384 	 45.6119 	 38.9228
|  8> C 	 -11.9203 	 44.6469 	 37.5037
|  9> C 	 -10.9824 	 43.6411 	 37.5756
| 10> C 	 -10.1466 	 43.7826 	 38.7167
| 11> C 	 -10.5227 	 44.8536 	 39.5077
| 12> H 	 -9.33606 	 43.1195 	 39.0729
| 13> C 	 -10.7068 	 42.6299 	 36.4187
| 14> H 	 -9.69412 	 42.2708 	 36.5747
| 15> H 	 -10.8181 	 43.1977 	 35.5146
| 16> C 	 -11.6469 	 41.4438 	 36.2661
| 17> H 	 -11.7748 	 41.0521 	 37.2665
| 18> H 	 -12.627 	 41.6855 	 35.9938
| 19> C 	 -11.1426 	 40.3003 	 35.3188
| 20> H 	 -11.8048 	 39.3882 	 35.4829
| 21> H 	 -11.175 	 40.5862 	 34.2717
| 22> H 	 -10.1296 	 39.8583 	 35.3789
| 23> S 	 -10.9375 	 45.4657 	 42.1438
| 24> C 	 -9.59136 	 46.226 	 42.9965
| 25> C 	 -8.36568 	 45.8823 	 42.4559
| 26> C 	 -8.55335 	 45.3562 	 41.1261
| 27> C 	 -9.91211 	 45.2296 	 40.7447
| 28> H 	 -7.47113 	 46.2366 	 43.0292
| 29> C 	 -7.40673 	 45.1393 	 40.1706
| 30> H 	 -6.93712 	 46.1664 	 39.9866
| 31> H 	 -7.79026 	 44.8469 	 39.2284
| 32> C 	 -6.29152 	 44.2005 	 40.6615
| 33> H 	 -6.62844 	 43.1368 	 40.6665
| 34> H 	 -5.96691 	 44.2959 	 41.739
| 35> C 	 -5.04186 	 44.2797 	 39.8039
| 36> H 	 -4.63618 	 45.2907 	 39.7562
| 37> H 	 -5.36305 	 44.0676 	 38.7234
| 38> H 	 -4.25265 	 43.6111 	 40.1562
| 39> H 	 -12.6252 	 44.7926 	 36.6851
| 40> H 	 -9.64807 	 46.7397 	 43.8944
| 41> *
| 42>
| 43>                          ****END OF INPUT****

CARTESIAN COORDINATES (ANGSTROEM)
---------------------------------
  S    -11.938400   45.611900   38.922800
  C    -11.920300   44.646900   37.503700
  C    -10.982400   43.641100   37.575600
  C    -10.146600   43.782600   38.716700
  C    -10.522700   44.853600   39.507700
  H     -9.336060   43.119500   39.072900
  C    -10.706800   42.629900   36.418700
  H     -9.694120   42.270800   36.574700
  H    -10.818100   43.197700   35.514600
  C    -11.646900   41.443800   36.266100
  H    -11.774800   41.052100   37.266500
  H    -12.627000   41.685500   35.993800
  C    -11.142600   40.300300   35.318800
  H    -11.804800   39.388200   35.482900
  H    -11.175000   40.586200   34.271700
  H    -10.129600   39.858300   35.378900
  S    -10.937500   45.465700   42.143800
  C     -9.591360   46.226000   42.996500
  C     -8.365680   45.882300   42.455900
  C     -8.553350   45.356200   41.126100
  C     -9.912110   45.229600   40.744700
  H     -7.471130   46.236600   43.029200
  C     -7.406730   45.139300   40.170600
  H     -6.937120   46.166400   39.986600
  H     -7.790260   44.846900   39.228400
  C     -6.291520   44.200500   40.661500
  H     -6.628440   43.136800   40.666500
  H     -5.966910   44.295900   41.739000
  C     -5.041860   44.279700   39.803900
  H     -4.636180   45.290700   39.756200
  H     -5.363050   44.067600   38.723400
  H     -4.252650   43.611100   40.156200
  H    -12.625200   44.792600   36.685100
  H     -9.648070   46.739700   43.894400

 Total Charge           Charge          ....    0
 Multiplicity           Mult            ....    1
 Number of Electrons    NEL             ....  134
 Basis Dimension        Dim             ....  322

ORBITAL ENERGIES
----------------

  NO   OCC          E(Eh)            E(eV)
   0   2.0000     -88.968360     -2420.9522
   1   2.0000     -88.962842     -2420.8020
   2   2.0000     -10.324401      -280.9412
   3   2.0000     -10.323711      -280.9225
   4   2.0000     -10.312762      -280.6245
   5   2.0000     -10.311619      -280.5934
   6   2.0000     -10.307150      -280.4718
   7   2.0000     -10.303357      -280.3686
   8   2.0000     -10.299251      -280.2569
   9   2.0000     -10.296155      -280.1726
  10   2.0000     -10.292161      -280.0640
  11   2.0000     -10.292049      -280.0609
  12   2.0000     -10.291952      -280.0583
  13   2.0000     -10.286929      -279.9216
  14   2.0000     -10.284367      -279.8518
  15   2.0000     -10.282468      -279.8002
  16   2.0000      -8.084425      -219.9884
  17   2.0000      -8.077574      -219.8020
  18   2.0000      -6.042678      -164.4296
  19   2.0000      -6.038738      -164.3224
  20   2.0000      -6.036126      -164.2513
  21   2.0000      -6.035366      -164.2306
  22   2.0000      -6.032324      -164.1479
  23   2.0000      -6.028056      -164.0317
  24   2.0000      -1.014093       -27.5949
  25   2.0000      -0.984776       -26.7971
  26   2.0000      -0.909639       -24.7525
  27   2.0000      -0.906650       -24.6712
  28   2.0000      -0.872702       -23.7474
  29   2.0000      -0.853696       -23.2302
  30   2.0000      -0.845276       -23.0011
  31   2.0000      -0.814536       -22.1647
  32   2.0000      -0.782333       -21.2884
  33   2.0000      -0.766426       -20.8555
  34   2.0000      -0.707338       -19.2477
  35   2.0000      -0.703566       -19.1450
  36   2.0000      -0.695417       -18.9233
  37   2.0000      -0.658415       -17.9164
  38   2.0000      -0.641551       -17.4575
  39   2.0000      -0.618909       -16.8414
  40   2.0000      -0.594800       -16.1853
  41   2.0000      -0.569503       -15.4970
  42   2.0000      -0.563803       -15.3419
  43   2.0000      -0.553649       -15.0656
  44   2.0000      -0.530577       -14.4377
  45   2.0000      -0.522179       -14.2092
  46   2.0000      -0.519900       -14.1472
  47   2.0000      -0.507156       -13.8004
  48   2.0000      -0.504356       -13.7242
  49   2.0000      -0.499001       -13.5785
  50   2.0000      -0.494943       -13.4681
  51   2.0000      -0.480925       -13.0866
  52   2.0000      -0.467337       -12.7169
  53   2.0000      -0.465381       -12.6637
  54   2.0000      -0.457163       -12.4400
  55   2.0000      -0.452023       -12.3002
  56   2.0000      -0.450066       -12.2469
  57   2.0000      -0.439073       -11.9478
  58   2.0000      -0.438423       -11.9301
  59   2.0000      -0.424347       -11.5471
  60   2.0000      -0.418406       -11.3854
  61   2.0000      -0.415222       -11.2988
  62   2.0000      -0.409620       -11.1463
  63   2.0000      -0.348323        -9.4783
  64   2.0000      -0.334216        -9.0945
  65   2.0000      -0.327162        -8.9025
  66   2.0000      -0.284634        -7.7453
  67   0.0000       0.023569         0.6413
  68   0.0000       0.073037         1.9874
  69   0.0000       0.100919         2.7461
  70   0.0000       0.122969         3.3461
  71   0.0000       0.129803         3.5321

MULLIKEN ATOMIC CHARGES
-----------------------
   0 S :    0.135860
   1 C :   -0.130296
   2 C :   -0.078991
   3 C :    0.004782
   4 C :   -0.175042
   5 H :    0.032613
   6 C :    0.092061
   7 H :    0.019110
   8 H :    0.024430
   9 C :   -0.031482
  10 H :    0.021158
  11 H :    0.013919
  12 C :   -0.095627
  13 H :    0.043919
  14 H :    0.031369
  15 H :    0.033494
  16 S :    0.099672
  17 C :   -0.074700
  18 C :   -0.048184
  19 C :   -0.020474
  20 C :   -0.140330
  21 H :    0.045602
  22 C :    0.067821
  23 H :    0.039553
  24 H :    0.004639
  25 C :   -0.103023
  26 H :    0.028336
  27 H :    0.033948
  28 C :   -0.056616
  29 H :    0.028337
  30 H :    0.032390
  31 H :    0.042677
  32 H :    0.051062
  33 H :    0.028014
Sum of atomic charges:    0.0000000

LOEWDIN ATOMIC CHARGES
----------------------
   0 S :    0.446176
   1 C :   -0.207559
   2 C :   -0.063184
   3 C :   -0.066845
   4 C :   -0.213831
   5 H :    0.039405
   6 C :   -0.023636
   7 H :    0.029668
   8 H :    0.028645
   9 C :   -0.036764
  10 H :    0.023810
  11 H :    0.017489
  12 C :   -0.078251
  13 H :    0.036133
  14 H :    0.022016
  15 H :    0.026612
  16 S :    0.386659
  17 C :   -0.165002
  18 C :   -0.071971
  19 C :   -0.053772
  20 C :   -0.200309
  21 H :    0.045359
  22 C :   -0.033095
  23 H :    0.039843
  24 H :    0.020445
  25 C :   -0.051637
  26 H :    0.025336
  27 H :    0.026863
  28 C :   -0.070367
  29 H :    0.021398
  30 H :    0.030914
  31 H :    0.027586
  32 H :    0.029332
  33 H :    0.012533

  Mayer bond orders larger than 0.100000
B(  0-S ,  1-C ) :   1.1558 B(  0-S ,  4-C ) :   1.1725 B(  1-C ,  2-C ) :   1.5847
B(  1-C , 32-H ) :   0.9711 B(  2-C ,  3-C ) :   1.2692 B(  2-C ,  6-C ) :   1.0114
B(  3-C ,  4-C ) :   1.5340 B(  3-C ,  5-H ) :   0.9872 B(  4-C , 20-C ) :   1.0735
B(  6-C ,  7-H ) :   0.9454 B(  6-C ,  8-H ) :   0.9432 B(  6-C ,  9-C ) :   1.0659
B(  9-C , 10-H ) :   0.9574 B(  9-C , 11-H ) :   0.9527 B(  9-C , 12-C ) :   1.0702
B( 12-C , 13-H ) :   0.9763 B( 12-C , 14-H ) :   0.9775 B( 12-C , 15-H ) :   0.9780
B( 16-S , 17-C ) :   1.1388 B( 16-S , 20-C ) :   1.1327 B( 17-C , 18-C ) :   1.6447
B( 17-C , 33-H ) :   0.9740 B( 18-C , 19-C ) :   1.2028 B( 18-C , 21-H ) :   0.9834
B( 19-C , 20-C ) :   1.5865 B( 19-C , 22-C ) :   1.0563 B( 22-C , 23-H ) :   0.9388
B( 22-C , 24-H ) :   0.9289 B( 22-C , 25-C ) :   1.0433 B( 25-C , 26-H ) :   0.9507
B( 25-C , 27-H ) :   0.9582 B( 25-C , 28-C ) :   1.0867 B( 28-C , 29-H ) :   0.9748
B( 28-C , 30-H ) :   0.9713 B( 28-C , 31-H ) :   0.9729

Dispersion correction           -0.013407159
FINAL SINGLE POINT ENERGY     -1339.869559943367

DIPOLE MOMENT
-------------
                                X             Y             Z
Electronic contribution:    -18.16289      17.92141      16.54131
Nuclear contribution   :     18.56741     -18.16808     -16.80018
                        -----------------------------------------
Total Dipole Moment    :      0.40452      -0.24667      -0.25887
                        -----------------------------------------
Magnitude (a.u.)       :      0.53991
Magnitude (Debye)      :      1.37233

Rotational constants in cm-1:     0.017404     0.008146     0.006039
Rotational constants in MHz :   521.757255   244.203336   181.052443

                             ****ORCA TERMINATED NORMALLY****
TOTAL RUN TIME: 0 days 0 hours 0 minutes 33 seconds 62 msec
