                         Program Version 4.2.1 -  RELEASE  -
|  1> ! wB97X-D3 SP def2-SVP
|  2> %pal
|  3> nprocs 16
|  4> end
|  5>
|  6> * xyz 0 1
|  7> S 	 4.40047 	 -6.23314 	 70.3384
|  8> C 	 3.70881 	 -4.73293 	 69.8752
|  9> C 	 3.89738 	 -3.72728 	 70.8217
| 10> C 	 4.71654 	 -4.17989 	 71.9113
| 11> C 	 5.02154 	 -5.48289 	 71.8421
| 12> H 	 4.96698 	 -3.68236 	 72.8094
| 13> C 	 3.49895 	 -2.23423 	 70.5451
| 14> H 	 2.72775 	 -2.16104 	 69.7649
| 15> H 	 4.26121 	 -1.7699 	 70.0305
| 16> C 	 2.95037 	 -1.3738 	 71.7874
| 17> H 	 3.7983 	 -1.14085 	 72.381
| 18> H 	 2.55239 	 -0.405702 	 71.4969
| 19> C 	 2.04508 	 -2.0985 	 72.8085
| 20> H 	 1.65742 	 -1.56405 	 73.6811
| 21> H 	 1.22866 	 -2.45576 	 72.2541
| 22> H 	 2.46711 	 -2.96899 	 73.2753
| 23> S 	 5.18465 	 -7.92171 	 73.1087
| 24> C 	 6.4596 	 -8.30748 	 74.1833
| 25> C 	 7.28466 	 -7.20678 	 74.3552
| 26> C 	 6.95923 	 -6.09705 	 73.5398
| 27> C 	 5.76031 	 -6.27431 	 72.879
| 28> H 	 8.2018 	 -7.35607 	 74.9035
| 29> C 	 7.76091 	 -4.82602 	 73.5678
| 30> H 	 7.2327 	 -4.1398 	 72.9244
| 31> H 	 8.68084 	 -5.02724 	 72.9879
| 32> C 	 8.05919 	 -4.2177 	 74.9927
| 33> H 	 8.6285 	 -3.33042 	 74.775
| 34> H 	 8.66762 	 -4.85428 	 75.6774
| 35> C 	 6.80983 	 -3.85386 	 75.8347
| 36> H 	 6.23472 	 -4.74312 	 75.7485
| 37> H 	 6.21648 	 -3.04668 	 75.4003
| 38> H 	 7.12606 	 -3.5621 	 76.8228
| 39> H 	 3.00333 	 -4.63698 	 69.097
| 40> H 	 6.61071 	 -9.22338 	 74.5916
| 41> *
| 42>
| 43>                          ****END OF INPUT****

CARTESIAN COORDINATES (ANGSTROEM)
---------------------------------
  S      4.400470   -6.233140   70.338400
  C      3.708810   -4.732930   69.875200
  C      3.897380   -3.727280   70.821700
  C      4.716540   -4.179890   71.911300
  C      5.021540   -5.482890   71.842100
  H      4.966980   -3.682360   72.809400
  C      3.498950   -2.234230   70.545100
  H      2.727750   -2.161040   69.764900
  H      4.261210   -1.769900   70.030500
  C      2.950370   -1.373800   71.787400
  H      3.798300   -1.140850   72.381000
  H      2.552390   -0.405702   71.496900
  C      2.045080   -2.098500   72.808500
  H      1.657420   -1.564050   73.681100
  H      1.228660   -2.455760   72.254100
  H      2.467110   -2.968990   73.275300
  S      5.184650   -7.921710   73.108700
  C      6.459600   -8.307480   74.183300
  C      7.284660   -7.206780   74.355200
  C      6.959230   -6.097050   73.539800
  C      5.760310   -6.274310   72.879000
  H      8.201800   -7.356070   74.903500
  C      7.760910   -4.826020   73.567800
  H      7.232700   -4.139800   72.924400
  H      8.680840   -5.027240   72.987900
  C      8.059190   -4.217700   74.992700
  H      8.628500   -3.330420   74.775000
  H      8.667620   -4.854280   75.677400
  C      6.809830   -3.853860   75.834700
  H      6.234720   -4.743120   75.748500
  H      6.216480   -3.046680   75.400300
  H      7.126060   -3.562100   76.822800
  H      3.003330   -4.636980   69.097000
  H      6.610710   -9.223380   74.591600

 Total Charge           Charge          ....    0
 Multiplicity           Mult            ....    1
 Number of Electrons    NEL             ....  134
 Basis Dimension        Dim             ....  322

ORBITAL ENERGIES
----------------

  NO   OCC          E(Eh)            E(eV)
   0   2.0000     -88.967175     -2420.9199
   1   2.0000     -88.963909     -2420.8310
   2   2.0000     -10.331393      -281.1315
   3   2.0000     -10.328431      -281.0509
   4   2.0000     -10.310334      -280.5585
   5   2.0000     -10.310316      -280.5580
   6   2.0000     -10.308507      -280.5087
   7   2.0000     -10.302121      -280.3350
   8   2.0000     -10.297716      -280.2151
   9   2.0000     -10.293965      -280.1130
  10   2.0000     -10.292412      -280.0708
  11   2.0000     -10.290880      -280.0291
  12   2.0000     -10.290275      -280.0126
  13   2.0000     -10.289270      -279.9853
  14   2.0000     -10.273157      -279.5468
  15   2.0000     -10.269194      -279.4390
  16   2.0000      -8.081905      -219.9198
  17   2.0000      -8.079358      -219.8505
  18   2.0000      -6.040385      -164.3672
  19   2.0000      -6.037725      -164.2948
  20   2.0000      -6.036498      -164.2615
  21   2.0000      -6.033653      -164.1840
  22   2.0000      -6.032599      -164.1554
  23   2.0000      -6.030342      -164.0939
  24   2.0000      -1.009132       -27.4599
  25   2.0000      -0.988307       -26.8932
  26   2.0000      -0.907345       -24.6901
  27   2.0000      -0.898340       -24.4451
  28   2.0000      -0.870579       -23.6897
  29   2.0000      -0.851924       -23.1820
  30   2.0000      -0.846219       -23.0268
  31   2.0000      -0.820881       -22.3373
  32   2.0000      -0.785874       -21.3847
  33   2.0000      -0.775970       -21.1152
  34   2.0000      -0.708948       -19.2915
  35   2.0000      -0.701320       -19.0839
  36   2.0000      -0.697250       -18.9731
  37   2.0000      -0.659803       -17.9542
  38   2.0000      -0.649966       -17.6865
  39   2.0000      -0.624100       -16.9826
  40   2.0000      -0.600443       -16.3389
  41   2.0000      -0.562064       -15.2945
  42   2.0000      -0.556556       -15.1447
  43   2.0000      -0.553046       -15.0491
  44   2.0000      -0.538555       -14.6548
  45   2.0000      -0.534001       -14.5309
  46   2.0000      -0.527663       -14.3584
  47   2.0000      -0.507578       -13.8119
  48   2.0000      -0.502707       -13.6794
  49   2.0000      -0.497549       -13.5390
  50   2.0000      -0.490058       -13.3351
  51   2.0000      -0.481602       -13.1051
  52   2.0000      -0.468552       -12.7499
  53   2.0000      -0.464917       -12.6510
  54   2.0000      -0.462728       -12.5915
  55   2.0000      -0.451113       -12.2754
  56   2.0000      -0.445626       -12.1261
  57   2.0000      -0.443426       -12.0662
  58   2.0000      -0.435676       -11.8554
  59   2.0000      -0.424459       -11.5501
  60   2.0000      -0.423454       -11.5228
  61   2.0000      -0.413264       -11.2455
  62   2.0000      -0.405461       -11.0332
  63   2.0000      -0.355260        -9.6671
  64   2.0000      -0.331827        -9.0295
  65   2.0000      -0.331415        -9.0183
  66   2.0000      -0.293329        -7.9819
  67   0.0000       0.030447         0.8285
  68   0.0000       0.072780         1.9804
  69   0.0000       0.112218         3.0536
  70   0.0000       0.121104         3.2954
  71   0.0000       0.130157         3.5417

MULLIKEN ATOMIC CHARGES
-----------------------
   0 S :    0.113905
   1 C :   -0.099904
   2 C :   -0.085786
   3 C :    0.029320
   4 C :   -0.123670
   5 H :    0.002965
   6 C :    0.082245
   7 H :    0.013122
   8 H :    0.027455
   9 C :   -0.074318
  10 H :    0.017600
  11 H :    0.032765
  12 C :   -0.040353
  13 H :    0.035565
  14 H :    0.016508
  15 H :    0.023469
  16 S :    0.096787
  17 C :   -0.047993
  18 C :   -0.035012
  19 C :   -0.073313
  20 C :   -0.167121
  21 H :    0.019041
  22 C :    0.087501
  23 H :    0.006261
  24 H :    0.040115
  25 C :   -0.089772
  26 H :    0.028807
  27 H :    0.037693
  28 C :   -0.036844
  29 H :    0.039215
  30 H :    0.027850
  31 H :    0.038369
  32 H :    0.038115
  33 H :    0.019413
Sum of atomic charges:   -0.0000000

LOEWDIN ATOMIC CHARGES
----------------------
   0 S :    0.398148
   1 C :   -0.198776
   2 C :   -0.055088
   3 C :   -0.065623
   4 C :   -0.173690
   5 H :    0.027046
   6 C :   -0.022089
   7 H :    0.029550
   8 H :    0.024042
   9 C :   -0.038641
  10 H :    0.015568
  11 H :    0.026437
  12 C :   -0.068112
  13 H :    0.030787
  14 H :    0.017660
  15 H :    0.024292
  16 S :    0.417074
  17 C :   -0.173674
  18 C :   -0.074493
  19 C :   -0.062426
  20 C :   -0.196133
  21 H :    0.030329
  22 C :   -0.033479
  23 H :    0.027019
  24 H :    0.040856
  25 C :   -0.036026
  26 H :    0.020737
  27 H :    0.026839
  28 C :   -0.060391
  29 H :    0.024455
  30 H :    0.021683
  31 H :    0.026427
  32 H :    0.020361
  33 H :    0.009330

  Mayer bond orders larger than 0.100000
B(  0-S ,  1-C ) :   1.1426 B(  0-S ,  4-C ) :   1.1299 B(  1-C ,  2-C ) :   1.6327
B(  1-C , 32-H ) :   0.9671 B(  2-C ,  3-C ) :   1.2054 B(  2-C ,  6-C ) :   1.0130
B(  3-C ,  4-C ) :   1.6265 B(  3-C ,  5-H ) :   0.9936 B(  4-C , 20-C ) :   1.0235
B(  6-C ,  7-H ) :   0.9431 B(  6-C ,  8-H ) :   0.9490 B(  6-C ,  9-C ) :   1.0492
B(  9-C , 10-H ) :   0.9581 B(  9-C , 11-H ) :   0.9618 B(  9-C , 12-C ) :   1.0750
B( 12-C , 13-H ) :   0.9748 B( 12-C , 14-H ) :   0.9780 B( 12-C , 15-H ) :   0.9688
B( 16-S , 17-C ) :   1.1770 B( 16-S , 20-C ) :   1.1436 B( 17-C , 18-C ) :   1.5834
B( 17-C , 33-H ) :   0.9820 B( 18-C , 19-C ) :   1.2511 B( 18-C , 21-H ) :   0.9910
B( 19-C , 20-C ) :   1.5748 B( 19-C , 22-C ) :   1.0492 B( 22-C , 23-H ) :   0.9336
B( 22-C , 24-H ) :   0.9218 B( 22-C , 25-C ) :   1.0604 B( 25-C , 26-H ) :   0.9568
B( 25-C , 27-H ) :   0.9583 B( 25-C , 28-C ) :   1.0671 B( 28-C , 29-H ) :   0.9770
B( 28-C , 30-H ) :   0.9748 B( 28-C , 31-H ) :   0.9746

Dispersion correction           -0.014954248
FINAL SINGLE POINT ENERGY     -1339.866074979439

DIPOLE MOMENT
-------------
                                X             Y             Z
Electronic contribution:     -0.38329     -25.08702     -11.86867
Nuclear contribution   :      0.63478      25.55426      12.06409
                        -----------------------------------------
Total Dipole Moment    :      0.25150       0.46724       0.19543
                        -----------------------------------------
Magnitude (a.u.)       :      0.56547
Magnitude (Debye)      :      1.43731

Rotational constants in cm-1:     0.017802     0.009642     0.007178
Rotational constants in MHz :   533.675608   289.055666   215.197002

                             ****ORCA TERMINATED NORMALLY****
TOTAL RUN TIME: 0 days 0 hours 0 minutes 33 seconds 816 msec
