                         Program Version 4.2.1 -  RELEASE  -
|  1> ! wB97X-D3 SP def2-SVP
|  2> %pal
|  3> nprocs 16
|  4> end
|  5>
|  6> * xyz 0 1
|  7> S 	 -78.4371 	 47.3108 	 122.127
|  8> C 	 -79.7741 	 46.3989 	 122.813
|  9> C 	 -79.3696 	 45.7134 	 124.005
| 10> C 	 -77.9814 	 45.9098 	 124.265
| 11> C 	 -77.2986 	 46.6964 	 123.309
| 12> H 	 -77.4455 	 45.5584 	 125.134
| 13> C 	 -80.2069 	 44.7963 	 124.824
| 14> H 	 -81.2314 	 45.1138 	 124.597
| 15> H 	 -79.994 	 45.025 	 125.861
| 16> C 	 -80.0391 	 43.3266 	 124.457
| 17> H 	 -78.93 	 42.9841 	 124.583
| 18> H 	 -80.7245 	 42.6929 	 125.044
| 19> C 	 -80.4561 	 42.9296 	 123.071
| 20> H 	 -80.2608 	 41.8375 	 122.749
| 21> H 	 -81.4835 	 43.1979 	 122.902
| 22> H 	 -79.8671 	 43.5945 	 122.425
| 23> S 	 -75.4579 	 48.1816 	 124.659
| 24> C 	 -73.8433 	 48.2681 	 123.952
| 25> C 	 -73.6841 	 47.5984 	 122.77
| 26> C 	 -74.873 	 46.9929 	 122.3
| 27> C 	 -75.8993 	 47.1577 	 123.25
| 28> H 	 -72.7404 	 47.6451 	 122.369
| 29> C 	 -74.9762 	 46.3017 	 120.934
| 30> H 	 -75.7311 	 45.5446 	 120.81
| 31> H 	 -73.9746 	 45.7854 	 120.973
| 32> C 	 -74.9249 	 47.3318 	 119.713
| 33> H 	 -74.0568 	 47.9447 	 119.784
| 34> H 	 -75.7478 	 48.0284 	 119.82
| 35> C 	 -75.1835 	 46.7614 	 118.296
| 36> H 	 -76.0589 	 46.0714 	 118.274
| 37> H 	 -74.3076 	 46.1447 	 117.985
| 38> H 	 -75.2593 	 47.6053 	 117.56
| 39> H 	 -80.809 	 46.38 	 122.548
| 40> H 	 -72.9753 	 48.6398 	 124.5
| 41> *
| 42>
| 43>                          ****END OF INPUT****

CARTESIAN COORDINATES (ANGSTROEM)
---------------------------------
  S    -78.437100   47.310800  122.127000
  C    -79.774100   46.398900  122.813000
  C    -79.369600   45.713400  124.005000
  C    -77.981400   45.909800  124.265000
  C    -77.298600   46.696400  123.309000
  H    -77.445500   45.558400  125.134000
  C    -80.206900   44.796300  124.824000
  H    -81.231400   45.113800  124.597000
  H    -79.994000   45.025000  125.861000
  C    -80.039100   43.326600  124.457000
  H    -78.930000   42.984100  124.583000
  H    -80.724500   42.692900  125.044000
  C    -80.456100   42.929600  123.071000
  H    -80.260800   41.837500  122.749000
  H    -81.483500   43.197900  122.902000
  H    -79.867100   43.594500  122.425000
  S    -75.457900   48.181600  124.659000
  C    -73.843300   48.268100  123.952000
  C    -73.684100   47.598400  122.770000
  C    -74.873000   46.992900  122.300000
  C    -75.899300   47.157700  123.250000
  H    -72.740400   47.645100  122.369000
  C    -74.976200   46.301700  120.934000
  H    -75.731100   45.544600  120.810000
  H    -73.974600   45.785400  120.973000
  C    -74.924900   47.331800  119.713000
  H    -74.056800   47.944700  119.784000
  H    -75.747800   48.028400  119.820000
  C    -75.183500   46.761400  118.296000
  H    -76.058900   46.071400  118.274000
  H    -74.307600   46.144700  117.985000
  H    -75.259300   47.605300  117.560000
  H    -80.809000   46.380000  122.548000
  H    -72.975300   48.639800  124.500000

 Total Charge           Charge          ....    0
 Multiplicity           Mult            ....    1
 Number of Electrons    NEL             ....  134
 Basis Dimension        Dim             ....  322

ORBITAL ENERGIES
----------------

  NO   OCC          E(Eh)            E(eV)
   0   2.0000     -88.969679     -2420.9880
   1   2.0000     -88.968203     -2420.9479
   2   2.0000     -10.332024      -281.1487
   3   2.0000     -10.331879      -281.1447
   4   2.0000     -10.316927      -280.7379
   5   2.0000     -10.316612      -280.7293
   6   2.0000     -10.312637      -280.6211
   7   2.0000     -10.302593      -280.3478
   8   2.0000     -10.301957      -280.3305
   9   2.0000     -10.295868      -280.1648
  10   2.0000     -10.293157      -280.0910
  11   2.0000     -10.291793      -280.0539
  12   2.0000     -10.288623      -279.9677
  13   2.0000     -10.287870      -279.9472
  14   2.0000     -10.287824      -279.9459
  15   2.0000     -10.276213      -279.6300
  16   2.0000      -8.083448      -219.9618
  17   2.0000      -8.082019      -219.9229
  18   2.0000      -6.041962      -164.4101
  19   2.0000      -6.040433      -164.3685
  20   2.0000      -6.037888      -164.2993
  21   2.0000      -6.036866      -164.2715
  22   2.0000      -6.034479      -164.2065
  23   2.0000      -6.032720      -164.1587
  24   2.0000      -0.999462       -27.1967
  25   2.0000      -0.978680       -26.6312
  26   2.0000      -0.917417       -24.9642
  27   2.0000      -0.899259       -24.4701
  28   2.0000      -0.864896       -23.5350
  29   2.0000      -0.851539       -23.1716
  30   2.0000      -0.845270       -23.0010
  31   2.0000      -0.811848       -22.0915
  32   2.0000      -0.784084       -21.3360
  33   2.0000      -0.768184       -20.9033
  34   2.0000      -0.705216       -19.1899
  35   2.0000      -0.695354       -18.9215
  36   2.0000      -0.685926       -18.6650
  37   2.0000      -0.663873       -18.0649
  38   2.0000      -0.634814       -17.2742
  39   2.0000      -0.618274       -16.8241
  40   2.0000      -0.595332       -16.1998
  41   2.0000      -0.570072       -15.5124
  42   2.0000      -0.557261       -15.1638
  43   2.0000      -0.549602       -14.9554
  44   2.0000      -0.547619       -14.9015
  45   2.0000      -0.520935       -14.1754
  46   2.0000      -0.517656       -14.0861
  47   2.0000      -0.514856       -14.0100
  48   2.0000      -0.505513       -13.7557
  49   2.0000      -0.490598       -13.3499
  50   2.0000      -0.479750       -13.0547
  51   2.0000      -0.470682       -12.8079
  52   2.0000      -0.468333       -12.7440
  53   2.0000      -0.464165       -12.6306
  54   2.0000      -0.456657       -12.4263
  55   2.0000      -0.452071       -12.3015
  56   2.0000      -0.447332       -12.1725
  57   2.0000      -0.442866       -12.0510
  58   2.0000      -0.434786       -11.8311
  59   2.0000      -0.429962       -11.6999
  60   2.0000      -0.419221       -11.4076
  61   2.0000      -0.407941       -11.1006
  62   2.0000      -0.403918       -10.9912
  63   2.0000      -0.338188        -9.2026
  64   2.0000      -0.333301        -9.0696
  65   2.0000      -0.325998        -8.8709
  66   2.0000      -0.294805        -8.0220
  67   0.0000       0.029786         0.8105
  68   0.0000       0.061502         1.6736
  69   0.0000       0.100461         2.7337
  70   0.0000       0.115364         3.1392
  71   0.0000       0.123003         3.3471

MULLIKEN ATOMIC CHARGES
-----------------------
   0 S :    0.125908
   1 C :   -0.100330
   2 C :   -0.152820
   3 C :    0.041063
   4 C :   -0.171685
   5 H :    0.009511
   6 C :    0.105126
   7 H :    0.013123
   8 H :    0.035483
   9 C :   -0.083542
  10 H :    0.045953
  11 H :    0.033933
  12 C :   -0.079914
  13 H :    0.056494
  14 H :    0.017458
  15 H :    0.034000
  16 S :    0.110893
  17 C :   -0.091693
  18 C :   -0.021979
  19 C :    0.016736
  20 C :   -0.188564
  21 H :   -0.012351
  22 C :    0.060370
  23 H :    0.032589
  24 H :    0.033875
  25 C :   -0.065282
  26 H :    0.021229
  27 H :    0.026783
  28 C :   -0.073186
  29 H :    0.045413
  30 H :    0.030991
  31 H :    0.049434
  32 H :    0.037051
  33 H :    0.057928
Sum of atomic charges:   -0.0000000

LOEWDIN ATOMIC CHARGES
----------------------
   0 S :    0.418026
   1 C :   -0.206147
   2 C :   -0.062034
   3 C :   -0.065428
   4 C :   -0.202740
   5 H :    0.029306
   6 C :   -0.032076
   7 H :    0.030881
   8 H :    0.035805
   9 C :   -0.048975
  10 H :    0.034520
  11 H :    0.025148
  12 C :   -0.075772
  13 H :    0.039209
  14 H :    0.016620
  15 H :    0.023373
  16 S :    0.385267
  17 C :   -0.175093
  18 C :   -0.065004
  19 C :   -0.045335
  20 C :   -0.189917
  21 H :    0.021058
  22 C :   -0.028432
  23 H :    0.027177
  24 H :    0.039496
  25 C :   -0.039185
  26 H :    0.018695
  27 H :    0.022465
  28 C :   -0.071786
  29 H :    0.030385
  30 H :    0.023686
  31 H :    0.034354
  32 H :    0.023318
  33 H :    0.029134

  Mayer bond orders larger than 0.100000
B(  0-S ,  1-C ) :   1.1520 B(  0-S ,  4-C ) :   1.1672 B(  1-C ,  2-C ) :   1.5645
B(  1-C ,  4-C ) :   0.1101 B(  1-C , 32-H ) :   0.9679 B(  2-C ,  3-C ) :   1.2647
B(  2-C ,  6-C ) :   1.0333 B(  3-C ,  4-C ) :   1.5500 B(  3-C ,  5-H ) :   0.9948
B(  4-C , 20-C ) :   1.0202 B(  6-C ,  7-H ) :   0.9332 B(  6-C ,  8-H ) :   0.9358
B(  6-C ,  9-C ) :   1.0663 B(  9-C , 10-H ) :   0.9545 B(  9-C , 11-H ) :   0.9564
B(  9-C , 12-C ) :   1.0702 B( 12-C , 13-H ) :   0.9717 B( 12-C , 14-H ) :   0.9717
B( 12-C , 15-H ) :   0.9732 B( 16-S , 17-C ) :   1.1375 B( 16-S , 20-C ) :   1.1408
B( 17-C , 18-C ) :   1.6565 B( 17-C , 33-H ) :   0.9588 B( 18-C , 19-C ) :   1.2048
B( 18-C , 21-H ) :   0.9999 B( 19-C , 20-C ) :   1.5980 B( 19-C , 22-C ) :   1.0312
B( 22-C , 23-H ) :   0.9458 B( 22-C , 24-H ) :   0.9343 B( 22-C , 25-C ) :   1.0443
B( 25-C , 26-H ) :   0.9578 B( 25-C , 27-H ) :   0.9586 B( 25-C , 28-C ) :   1.0791
B( 28-C , 29-H ) :   0.9745 B( 28-C , 30-H ) :   0.9768 B( 28-C , 31-H ) :   0.9742

Dispersion correction           -0.014439151
FINAL SINGLE POINT ENERGY     -1339.868915119931

DIPOLE MOMENT
-------------
                                X             Y             Z
Electronic contribution:      4.82891      16.27617      12.37733
Nuclear contribution   :     -4.68986     -16.53110     -12.45270
                        -----------------------------------------
Total Dipole Moment    :      0.13905      -0.25493      -0.07536
                        -----------------------------------------
Magnitude (a.u.)       :      0.30001
Magnitude (Debye)      :      0.76256

Rotational constants in cm-1:     0.018774     0.008387     0.006701
Rotational constants in MHz :   562.824593   251.448830   200.893539

                             ****ORCA TERMINATED NORMALLY****
TOTAL RUN TIME: 0 days 0 hours 0 minutes 32 seconds 741 msec
