                         Program Version 4.2.1 -  RELEASE  -
|  1> ! wB97X-D3 SP def2-SVP
|  2> %pal
|  3> nprocs 16
|  4> end
|  5>
|  6> * xyz 0 1
|  7> S 	 -51.5763 	 58.5386 	 130.402
|  8> C 	 -51.0673 	 57.1026 	 131.215
|  9> C 	 -50.437 	 57.4228 	 132.446
| 10> C 	 -50.3229 	 58.8363 	 132.677
| 11> C 	 -50.8599 	 59.5483 	 131.639
| 12> H 	 -49.938 	 59.2415 	 133.564
| 13> C 	 -50.0763 	 56.3703 	 133.459
| 14> H 	 -50.7642 	 55.567 	 133.299
| 15> H 	 -50.2994 	 56.852 	 134.478
| 16> C 	 -48.7031 	 55.8292 	 133.206
| 17> H 	 -48.7294 	 55.4202 	 132.233
| 18> H 	 -47.9389 	 56.59 	 133.004
| 19> C 	 -48.124 	 54.7961 	 134.15
| 20> H 	 -48.9359 	 54.1793 	 134.531
| 21> H 	 -47.3983 	 54.0913 	 133.737
| 22> H 	 -47.7715 	 55.2799 	 135.13
| 23> S 	 -49.997 	 61.4962 	 129.781
| 24> C 	 -50.0429 	 63.155 	 130.043
| 25> C 	 -50.5218 	 63.3866 	 131.318
| 26> C 	 -50.8044 	 62.1652 	 132.075
| 27> C 	 -50.7364 	 61.0197 	 131.325
| 28> H 	 -50.6914 	 64.3762 	 131.619
| 29> C 	 -51.4732 	 62.2544 	 133.462
| 30> H 	 -50.784 	 62.8516 	 134.065
| 31> H 	 -51.4985 	 61.2959 	 133.928
| 32> C 	 -52.8548 	 62.9782 	 133.633
| 33> H 	 -53.634 	 62.4551 	 133.068
| 34> H 	 -52.798 	 63.967 	 133.163
| 35> C 	 -53.2537 	 63.083 	 135.104
| 36> H 	 -54.1197 	 63.8373 	 135.206
| 37> H 	 -52.4591 	 63.5139 	 135.686
| 38> H 	 -53.6708 	 62.1546 	 135.472
| 39> H 	 -51.4243 	 56.176 	 130.84
| 40> H 	 -49.8304 	 63.9689 	 129.376
| 41> *
| 42>
| 43>                          ****END OF INPUT****

CARTESIAN COORDINATES (ANGSTROEM)
---------------------------------
  S    -51.576300   58.538600  130.402000
  C    -51.067300   57.102600  131.215000
  C    -50.437000   57.422800  132.446000
  C    -50.322900   58.836300  132.677000
  C    -50.859900   59.548300  131.639000
  H    -49.938000   59.241500  133.564000
  C    -50.076300   56.370300  133.459000
  H    -50.764200   55.567000  133.299000
  H    -50.299400   56.852000  134.478000
  C    -48.703100   55.829200  133.206000
  H    -48.729400   55.420200  132.233000
  H    -47.938900   56.590000  133.004000
  C    -48.124000   54.796100  134.150000
  H    -48.935900   54.179300  134.531000
  H    -47.398300   54.091300  133.737000
  H    -47.771500   55.279900  135.130000
  S    -49.997000   61.496200  129.781000
  C    -50.042900   63.155000  130.043000
  C    -50.521800   63.386600  131.318000
  C    -50.804400   62.165200  132.075000
  C    -50.736400   61.019700  131.325000
  H    -50.691400   64.376200  131.619000
  C    -51.473200   62.254400  133.462000
  H    -50.784000   62.851600  134.065000
  H    -51.498500   61.295900  133.928000
  C    -52.854800   62.978200  133.633000
  H    -53.634000   62.455100  133.068000
  H    -52.798000   63.967000  133.163000
  C    -53.253700   63.083000  135.104000
  H    -54.119700   63.837300  135.206000
  H    -52.459100   63.513900  135.686000
  H    -53.670800   62.154600  135.472000
  H    -51.424300   56.176000  130.840000
  H    -49.830400   63.968900  129.376000

 Total Charge           Charge          ....    0
 Multiplicity           Mult            ....    1
 Number of Electrons    NEL             ....  134
 Basis Dimension        Dim             ....  322

ORBITAL ENERGIES
----------------

  NO   OCC          E(Eh)            E(eV)
   0   2.0000     -88.967786     -2420.9365
   1   2.0000     -88.959061     -2420.6991
   2   2.0000     -10.335807      -281.2516
   3   2.0000     -10.329929      -281.0917
   4   2.0000     -10.315657      -280.7033
   5   2.0000     -10.311940      -280.6021
   6   2.0000     -10.306670      -280.4588
   7   2.0000     -10.304840      -280.4089
   8   2.0000     -10.296135      -280.1721
   9   2.0000     -10.294951      -280.1399
  10   2.0000     -10.289503      -279.9916
  11   2.0000     -10.289273      -279.9853
  12   2.0000     -10.287816      -279.9457
  13   2.0000     -10.282637      -279.8048
  14   2.0000     -10.281807      -279.7822
  15   2.0000     -10.279241      -279.7124
  16   2.0000      -8.082954      -219.9484
  17   2.0000      -8.074783      -219.7260
  18   2.0000      -6.041325      -164.3928
  19   2.0000      -6.037288      -164.2830
  20   2.0000      -6.033952      -164.1922
  21   2.0000      -6.033288      -164.1741
  22   2.0000      -6.028965      -164.0565
  23   2.0000      -6.025614      -163.9653
  24   2.0000      -1.007414       -27.4131
  25   2.0000      -0.988151       -26.8890
  26   2.0000      -0.918315       -24.9886
  27   2.0000      -0.902985       -24.5715
  28   2.0000      -0.867407       -23.6033
  29   2.0000      -0.855332       -23.2748
  30   2.0000      -0.844184       -22.9714
  31   2.0000      -0.819404       -22.2971
  32   2.0000      -0.779255       -21.2046
  33   2.0000      -0.769341       -20.9348
  34   2.0000      -0.704392       -19.1675
  35   2.0000      -0.699143       -19.0246
  36   2.0000      -0.694327       -18.8936
  37   2.0000      -0.661268       -17.9940
  38   2.0000      -0.648902       -17.6575
  39   2.0000      -0.628564       -17.1041
  40   2.0000      -0.593243       -16.1430
  41   2.0000      -0.570828       -15.5330
  42   2.0000      -0.565622       -15.3914
  43   2.0000      -0.559323       -15.2200
  44   2.0000      -0.530547       -14.4369
  45   2.0000      -0.520722       -14.1696
  46   2.0000      -0.519551       -14.1377
  47   2.0000      -0.513955       -13.9854
  48   2.0000      -0.509137       -13.8543
  49   2.0000      -0.498422       -13.5628
  50   2.0000      -0.493802       -13.4370
  51   2.0000      -0.479245       -13.0409
  52   2.0000      -0.474305       -12.9065
  53   2.0000      -0.463355       -12.6085
  54   2.0000      -0.458203       -12.4683
  55   2.0000      -0.454073       -12.3560
  56   2.0000      -0.444250       -12.0887
  57   2.0000      -0.441970       -12.0266
  58   2.0000      -0.429127       -11.6771
  59   2.0000      -0.423149       -11.5145
  60   2.0000      -0.421523       -11.4702
  61   2.0000      -0.407677       -11.0935
  62   2.0000      -0.404217       -10.9993
  63   2.0000      -0.353235        -9.6120
  64   2.0000      -0.331925        -9.0321
  65   2.0000      -0.321853        -8.7581
  66   2.0000      -0.296113        -8.0577
  67   0.0000       0.032314         0.8793
  68   0.0000       0.073366         1.9964
  69   0.0000       0.107758         2.9323
  70   0.0000       0.120334         3.2745
  71   0.0000       0.135798         3.6952

MULLIKEN ATOMIC CHARGES
-----------------------
   0 S :    0.113463
   1 C :   -0.111088
   2 C :   -0.135417
   3 C :    0.074893
   4 C :   -0.153947
   5 H :   -0.001661
   6 C :    0.083003
   7 H :    0.016330
   8 H :    0.038137
   9 C :   -0.064651
  10 H :    0.004049
  11 H :    0.024930
  12 C :   -0.035435
  13 H :    0.012368
  14 H :    0.045556
  15 H :    0.036600
  16 S :    0.097253
  17 C :   -0.071059
  18 C :   -0.043122
  19 C :   -0.039653
  20 C :   -0.110423
  21 H :   -0.000938
  22 C :    0.053465
  23 H :    0.016689
  24 H :    0.007552
  25 C :   -0.064398
  26 H :    0.033962
  27 H :    0.024003
  28 C :   -0.062729
  29 H :    0.037265
  30 H :    0.032157
  31 H :    0.041329
  32 H :    0.045003
  33 H :    0.056513
Sum of atomic charges:    0.0000000

LOEWDIN ATOMIC CHARGES
----------------------
   0 S :    0.424332
   1 C :   -0.202053
   2 C :   -0.052598
   3 C :   -0.052769
   4 C :   -0.186324
   5 H :    0.026563
   6 C :   -0.031666
   7 H :    0.028413
   8 H :    0.037104
   9 C :   -0.052358
  10 H :    0.022304
  11 H :    0.026724
  12 C :   -0.072938
  13 H :    0.021605
  14 H :    0.030024
  15 H :    0.032617
  16 S :    0.418286
  17 C :   -0.203331
  18 C :   -0.072502
  19 C :   -0.061132
  20 C :   -0.194256
  21 H :    0.018835
  22 C :   -0.032370
  23 H :    0.028784
  24 H :    0.020637
  25 C :   -0.039461
  26 H :    0.025368
  27 H :    0.021758
  28 C :   -0.066956
  29 H :    0.036150
  30 H :    0.021725
  31 H :    0.025514
  32 H :    0.019005
  33 H :    0.034965

  Mayer bond orders larger than 0.100000
B(  0-S ,  1-C ) :   1.1561 B(  0-S ,  4-C ) :   1.1784 B(  1-C ,  2-C ) :   1.5687
B(  1-C , 32-H ) :   0.9773 B(  2-C ,  3-C ) :   1.2636 B(  2-C ,  6-C ) :   1.0218
B(  3-C ,  4-C ) :   1.5521 B(  3-C ,  5-H ) :   1.0031 B(  4-C , 20-C ) :   0.9870
B(  6-C ,  7-H ) :   0.9305 B(  6-C ,  8-H ) :   0.9451 B(  6-C ,  9-C ) :   1.0615
B(  9-C , 10-H ) :   0.9443 B(  9-C , 11-H ) :   0.9552 B(  9-C , 12-C ) :   1.0816
B( 12-C , 13-H ) :   0.9687 B( 12-C , 14-H ) :   0.9749 B( 12-C , 15-H ) :   0.9727
B( 16-S , 17-C ) :   1.1723 B( 16-S , 20-C ) :   1.1306 B( 17-C , 18-C ) :   1.5998
B( 17-C , 33-H ) :   0.9693 B( 18-C , 19-C ) :   1.2207 B( 18-C , 21-H ) :   1.0010
B( 19-C , 20-C ) :   1.6174 B( 19-C , 22-C ) :   1.0548 B( 22-C , 23-H ) :   0.9300
B( 22-C , 24-H ) :   0.9430 B( 22-C , 25-C ) :   1.0604 B( 25-C , 26-H ) :   0.9556
B( 25-C , 27-H ) :   0.9539 B( 25-C , 28-C ) :   1.0821 B( 28-C , 29-H ) :   0.9730
B( 28-C , 30-H ) :   0.9749 B( 28-C , 31-H ) :   0.9765

Dispersion correction           -0.013202051
FINAL SINGLE POINT ENERGY     -1339.873087756434

DIPOLE MOMENT
-------------
                                X             Y             Z
Electronic contribution:      0.00833       5.51365     -24.54735
Nuclear contribution   :     -0.11788      -5.54153      25.05575
                        -----------------------------------------
Total Dipole Moment    :     -0.10954      -0.02789       0.50840
                        -----------------------------------------
Magnitude (a.u.)       :      0.52081
Magnitude (Debye)      :      1.32379

Rotational constants in cm-1:     0.018520     0.007364     0.006131
Rotational constants in MHz :   555.204302   220.770813   183.810266

                             ****ORCA TERMINATED NORMALLY****
TOTAL RUN TIME: 0 days 0 hours 0 minutes 33 seconds 333 msec
