                         Program Version 4.2.1 -  RELEASE  -
|  1> ! wB97X-D3 SP def2-SVP
|  2> %pal
|  3> nprocs 16
|  4> end
|  5>
|  6> * xyz 0 1
|  7> S 	 -4.17745 	 -13.8062 	 85.8309
|  8> C 	 -3.64164 	 -15.3044 	 86.6215
|  9> C 	 -3.42456 	 -16.3647 	 85.7481
| 10> C 	 -3.65375 	 -15.9716 	 84.3918
| 11> C 	 -4.07588 	 -14.6396 	 84.2668
| 12> H 	 -3.22559 	 -16.5308 	 83.5724
| 13> C 	 -2.99333 	 -17.8035 	 86.0996
| 14> H 	 -3.62636 	 -18.265 	 86.8178
| 15> H 	 -2.02544 	 -17.8207 	 86.4844
| 16> C 	 -2.9354 	 -18.8084 	 84.8826
| 17> H 	 -3.94304 	 -18.8065 	 84.4588
| 18> H 	 -2.26749 	 -18.5374 	 84.0212
| 19> C 	 -2.41616 	 -20.1762 	 85.4507
| 20> H 	 -1.33322 	 -20.2182 	 85.6366
| 21> H 	 -2.83464 	 -20.5941 	 86.3597
| 22> H 	 -2.65427 	 -20.8857 	 84.6772
| 23> S 	 -3.09926 	 -14.404 	 81.6882
| 24> C 	 -3.43843 	 -13.0311 	 80.6984
| 25> C 	 -4.26312 	 -12.1465 	 81.3844
| 26> C 	 -4.73881 	 -12.6527 	 82.6299
| 27> C 	 -4.10382 	 -13.8216 	 83.0307
| 28> H 	 -4.6416 	 -11.2969 	 80.8777
| 29> C 	 -5.8763 	 -11.9218 	 83.2831
| 30> H 	 -6.12325 	 -11.0885 	 82.633
| 31> H 	 -5.57033 	 -11.4563 	 84.2272
| 32> C 	 -7.14262 	 -12.7403 	 83.5585
| 33> H 	 -6.9756 	 -13.6942 	 84.0211
| 34> H 	 -7.70804 	 -12.9618 	 82.6363
| 35> C 	 -8.19438 	 -12.022 	 84.3118
| 36> H 	 -7.89715 	 -11.6856 	 85.2802
| 37> H 	 -9.07263 	 -12.6866 	 84.4561
| 38> H 	 -8.60788 	 -11.242 	 83.6636
| 39> H 	 -3.48099 	 -15.2974 	 87.6667
| 40> H 	 -3.24208 	 -12.9272 	 79.6593
| 41> *
| 42>
| 43>                          ****END OF INPUT****

CARTESIAN COORDINATES (ANGSTROEM)
---------------------------------
  S     -4.177450  -13.806200   85.830900
  C     -3.641640  -15.304400   86.621500
  C     -3.424560  -16.364700   85.748100
  C     -3.653750  -15.971600   84.391800
  C     -4.075880  -14.639600   84.266800
  H     -3.225590  -16.530800   83.572400
  C     -2.993330  -17.803500   86.099600
  H     -3.626360  -18.265000   86.817800
  H     -2.025440  -17.820700   86.484400
  C     -2.935400  -18.808400   84.882600
  H     -3.943040  -18.806500   84.458800
  H     -2.267490  -18.537400   84.021200
  C     -2.416160  -20.176200   85.450700
  H     -1.333220  -20.218200   85.636600
  H     -2.834640  -20.594100   86.359700
  H     -2.654270  -20.885700   84.677200
  S     -3.099260  -14.404000   81.688200
  C     -3.438430  -13.031100   80.698400
  C     -4.263120  -12.146500   81.384400
  C     -4.738810  -12.652700   82.629900
  C     -4.103820  -13.821600   83.030700
  H     -4.641600  -11.296900   80.877700
  C     -5.876300  -11.921800   83.283100
  H     -6.123250  -11.088500   82.633000
  H     -5.570330  -11.456300   84.227200
  C     -7.142620  -12.740300   83.558500
  H     -6.975600  -13.694200   84.021100
  H     -7.708040  -12.961800   82.636300
  C     -8.194380  -12.022000   84.311800
  H     -7.897150  -11.685600   85.280200
  H     -9.072630  -12.686600   84.456100
  H     -8.607880  -11.242000   83.663600
  H     -3.480990  -15.297400   87.666700
  H     -3.242080  -12.927200   79.659300

 Total Charge           Charge          ....    0
 Multiplicity           Mult            ....    1
 Number of Electrons    NEL             ....  134
 Basis Dimension        Dim             ....  322

ORBITAL ENERGIES
----------------

  NO   OCC          E(Eh)            E(eV)
   0   2.0000     -88.970350     -2421.0063
   1   2.0000     -88.963631     -2420.8235
   2   2.0000     -10.337640      -281.3015
   3   2.0000     -10.329793      -281.0880
   4   2.0000     -10.315255      -280.6924
   5   2.0000     -10.313759      -280.6517
   6   2.0000     -10.306335      -280.4496
   7   2.0000     -10.301251      -280.3113
   8   2.0000     -10.299171      -280.2547
   9   2.0000     -10.296378      -280.1787
  10   2.0000     -10.290490      -280.0185
  11   2.0000     -10.289280      -279.9856
  12   2.0000     -10.289125      -279.9813
  13   2.0000     -10.282104      -279.7903
  14   2.0000     -10.275593      -279.6131
  15   2.0000     -10.269514      -279.4477
  16   2.0000      -8.084018      -219.9773
  17   2.0000      -8.078224      -219.8196
  18   2.0000      -6.042579      -164.4269
  19   2.0000      -6.038779      -164.3235
  20   2.0000      -6.036783      -164.2692
  21   2.0000      -6.034708      -164.2128
  22   2.0000      -6.032695      -164.1580
  23   2.0000      -6.029023      -164.0580
  24   2.0000      -1.001770       -27.2596
  25   2.0000      -0.979718       -26.6595
  26   2.0000      -0.912290       -24.8247
  27   2.0000      -0.906457       -24.6660
  28   2.0000      -0.865022       -23.5384
  29   2.0000      -0.857182       -23.3251
  30   2.0000      -0.845490       -23.0069
  31   2.0000      -0.809802       -22.0358
  32   2.0000      -0.783608       -21.3231
  33   2.0000      -0.771515       -20.9940
  34   2.0000      -0.713538       -19.4164
  35   2.0000      -0.696493       -18.9525
  36   2.0000      -0.685360       -18.6496
  37   2.0000      -0.670159       -18.2359
  38   2.0000      -0.635310       -17.2877
  39   2.0000      -0.622240       -16.9320
  40   2.0000      -0.597026       -16.2459
  41   2.0000      -0.570456       -15.5229
  42   2.0000      -0.569096       -15.4859
  43   2.0000      -0.565551       -15.3894
  44   2.0000      -0.524114       -14.2619
  45   2.0000      -0.519578       -14.1384
  46   2.0000      -0.514463       -13.9993
  47   2.0000      -0.511620       -13.9219
  48   2.0000      -0.505537       -13.7564
  49   2.0000      -0.499833       -13.6012
  50   2.0000      -0.488284       -13.2869
  51   2.0000      -0.481488       -13.1019
  52   2.0000      -0.476234       -12.9590
  53   2.0000      -0.474152       -12.9023
  54   2.0000      -0.456233       -12.4147
  55   2.0000      -0.451889       -12.2965
  56   2.0000      -0.441582       -12.0161
  57   2.0000      -0.437602       -11.9078
  58   2.0000      -0.432702       -11.7744
  59   2.0000      -0.422933       -11.5086
  60   2.0000      -0.416825       -11.3424
  61   2.0000      -0.412719       -11.2307
  62   2.0000      -0.408960       -11.1284
  63   2.0000      -0.352262        -9.5855
  64   2.0000      -0.336468        -9.1558
  65   2.0000      -0.327981        -8.9248
  66   2.0000      -0.281367        -7.6564
  67   0.0000       0.017732         0.4825
  68   0.0000       0.079010         2.1500
  69   0.0000       0.101479         2.7614
  70   0.0000       0.111947         3.0462
  71   0.0000       0.134130         3.6499

MULLIKEN ATOMIC CHARGES
-----------------------
   0 S :    0.101341
   1 C :   -0.128933
   2 C :   -0.066133
   3 C :   -0.022183
   4 C :   -0.097441
   5 H :    0.027565
   6 C :    0.098699
   7 H :    0.032641
   8 H :    0.020673
   9 C :   -0.144929
  10 H :    0.042928
  11 H :    0.052309
  12 C :   -0.043637
  13 H :    0.039327
  14 H :    0.028341
  15 H :    0.030824
  16 S :    0.083757
  17 C :   -0.076695
  18 C :   -0.024664
  19 C :   -0.058521
  20 C :   -0.120514
  21 H :    0.006513
  22 C :    0.084483
  23 H :    0.006938
  24 H :    0.028590
  25 C :   -0.075768
  26 H :    0.031771
  27 H :    0.021697
  28 C :   -0.040199
  29 H :    0.024680
  30 H :    0.028364
  31 H :    0.022645
  32 H :    0.033255
  33 H :    0.052276
Sum of atomic charges:   -0.0000000

LOEWDIN ATOMIC CHARGES
----------------------
   0 S :    0.393337
   1 C :   -0.180447
   2 C :   -0.055521
   3 C :   -0.073595
   4 C :   -0.177147
   5 H :    0.028467
   6 C :   -0.022728
   7 H :    0.030399
   8 H :    0.024285
   9 C :   -0.041093
  10 H :    0.024458
  11 H :    0.030378
  12 C :   -0.068516
  13 H :    0.029469
  14 H :    0.023444
  15 H :    0.027027
  16 S :    0.408382
  17 C :   -0.188124
  18 C :   -0.067600
  19 C :   -0.062742
  20 C :   -0.188564
  21 H :    0.024185
  22 C :   -0.032411
  23 H :    0.030182
  24 H :    0.028613
  25 C :   -0.045278
  26 H :    0.020061
  27 H :    0.029240
  28 C :   -0.062335
  29 H :    0.015253
  30 H :    0.031343
  31 H :    0.023965
  32 H :    0.016317
  33 H :    0.027296

  Mayer bond orders larger than 0.100000
B(  0-S ,  1-C ) :   1.1348 B(  0-S ,  4-C ) :   1.1506 B(  1-C ,  2-C ) :   1.6209
B(  1-C , 32-H ) :   0.9790 B(  2-C ,  3-C ) :   1.2725 B(  2-C ,  6-C ) :   0.9922
B(  3-C ,  4-C ) :   1.5477 B(  3-C ,  5-H ) :   0.9717 B(  4-C , 20-C ) :   1.0640
B(  6-C ,  7-H ) :   0.9456 B(  6-C ,  8-H ) :   0.9362 B(  6-C ,  9-C ) :   1.0825
B(  9-C , 10-H ) :   0.9563 B(  9-C , 11-H ) :   0.9501 B(  9-C , 12-C ) :   1.0650
B( 12-C , 13-H ) :   0.9760 B( 12-C , 14-H ) :   0.9777 B( 12-C , 15-H ) :   0.9731
B( 16-S , 17-C ) :   1.1680 B( 16-S , 20-C ) :   1.1284 B( 17-C , 18-C ) :   1.5907
B( 17-C , 33-H ) :   0.9694 B( 18-C , 19-C ) :   1.2765 B( 18-C , 21-H ) :   0.9884
B( 19-C , 20-C ) :   1.5555 B( 19-C , 22-C ) :   1.0486 B( 22-C , 23-H ) :   0.9287
B( 22-C , 24-H ) :   0.9299 B( 22-C , 25-C ) :   1.0600 B( 25-C , 26-H ) :   0.9563
B( 25-C , 27-H ) :   0.9517 B( 25-C , 28-C ) :   1.1005 B( 28-C , 29-H ) :   0.9723
B( 28-C , 30-H ) :   0.9703 B( 28-C , 31-H ) :   0.9741

Dispersion correction           -0.013780749
FINAL SINGLE POINT ENERGY     -1339.871190966358

DIPOLE MOMENT
-------------
                                X             Y             Z
Electronic contribution:      9.06858      10.95377      -5.21438
Nuclear contribution   :     -9.14101     -11.22141       5.24329
                        -----------------------------------------
Total Dipole Moment    :     -0.07244      -0.26764       0.02891
                        -----------------------------------------
Magnitude (a.u.)       :      0.27877
Magnitude (Debye)      :      0.70858

Rotational constants in cm-1:     0.019809     0.008040     0.006439
Rotational constants in MHz :   593.851755   241.037175   193.044765

                             ****ORCA TERMINATED NORMALLY****
TOTAL RUN TIME: 0 days 0 hours 0 minutes 34 seconds 549 msec
