                         Program Version 4.2.1 -  RELEASE  -
|  1> ! wB97X-D3 SP def2-SVP
|  2> %pal
|  3> nprocs 16
|  4> end
|  5>
|  6> * xyz 0 1
|  7> S 	 35.2876 	 11.9252 	 70.8294
|  8> C 	 33.8098 	 12.9326 	 70.6982
|  9> C 	 34.0293 	 13.9946 	 69.8059
| 10> C 	 35.3526 	 13.9344 	 69.2078
| 11> C 	 36.1005 	 12.9339 	 69.7516
| 12> H 	 35.8916 	 14.6495 	 68.5026
| 13> C 	 33.0306 	 15.0669 	 69.3908
| 14> H 	 32.0699 	 14.4649 	 69.2655
| 15> H 	 33.3685 	 15.5259 	 68.451
| 16> C 	 32.7648 	 16.2292 	 70.3613
| 17> H 	 32.7471 	 15.878 	 71.3927
| 18> H 	 33.5354 	 16.9522 	 70.2788
| 19> C 	 31.3505 	 16.8592 	 70.2031
| 20> H 	 30.5511 	 16.1632 	 70.6165
| 21> H 	 31.3251 	 17.794 	 70.7319
| 22> H 	 31.0675 	 17.0193 	 69.2385
| 23> S 	 38.6176 	 13.994 	 69.6341
| 24> C 	 39.9866 	 12.959 	 69.7468
| 25> C 	 39.6492 	 11.6801 	 69.418
| 26> C 	 38.2363 	 11.5092 	 69.2827
| 27> C 	 37.5289 	 12.6635 	 69.5378
| 28> H 	 40.3893 	 10.9285 	 69.2882
| 29> C 	 37.6785 	 10.1276 	 68.9649
| 30> H 	 38.1662 	 9.73274 	 68.0937
| 31> H 	 36.634 	 10.3602 	 68.7186
| 32> C 	 37.8025 	 9.14285 	 70.1665
| 33> H 	 37.2906 	 9.72502 	 70.9678
| 34> H 	 38.8587 	 9.13017 	 70.5044
| 35> C 	 37.2179 	 7.75938 	 69.9888
| 36> H 	 37.681 	 7.01689 	 70.6643
| 37> H 	 37.4007 	 7.29009 	 69.0491
| 38> H 	 36.0812 	 7.67156 	 70.2006
| 39> H 	 32.8582 	 12.8474 	 71.272
| 40> H 	 40.9261 	 13.3173 	 70.0139
| 41> *
| 42>
| 43>                          ****END OF INPUT****

CARTESIAN COORDINATES (ANGSTROEM)
---------------------------------
  S     35.287600   11.925200   70.829400
  C     33.809800   12.932600   70.698200
  C     34.029300   13.994600   69.805900
  C     35.352600   13.934400   69.207800
  C     36.100500   12.933900   69.751600
  H     35.891600   14.649500   68.502600
  C     33.030600   15.066900   69.390800
  H     32.069900   14.464900   69.265500
  H     33.368500   15.525900   68.451000
  C     32.764800   16.229200   70.361300
  H     32.747100   15.878000   71.392700
  H     33.535400   16.952200   70.278800
  C     31.350500   16.859200   70.203100
  H     30.551100   16.163200   70.616500
  H     31.325100   17.794000   70.731900
  H     31.067500   17.019300   69.238500
  S     38.617600   13.994000   69.634100
  C     39.986600   12.959000   69.746800
  C     39.649200   11.680100   69.418000
  C     38.236300   11.509200   69.282700
  C     37.528900   12.663500   69.537800
  H     40.389300   10.928500   69.288200
  C     37.678500   10.127600   68.964900
  H     38.166200    9.732740   68.093700
  H     36.634000   10.360200   68.718600
  C     37.802500    9.142850   70.166500
  H     37.290600    9.725020   70.967800
  H     38.858700    9.130170   70.504400
  C     37.217900    7.759380   69.988800
  H     37.681000    7.016890   70.664300
  H     37.400700    7.290090   69.049100
  H     36.081200    7.671560   70.200600
  H     32.858200   12.847400   71.272000
  H     40.926100   13.317300   70.013900

 Total Charge           Charge          ....    0
 Multiplicity           Mult            ....    1
 Number of Electrons    NEL             ....  134
 Basis Dimension        Dim             ....  322

ORBITAL ENERGIES
----------------

  NO   OCC          E(Eh)            E(eV)
   0   2.0000     -88.970413     -2421.0080
   1   2.0000     -88.961247     -2420.7586
   2   2.0000     -10.324856      -280.9536
   3   2.0000     -10.322485      -280.8891
   4   2.0000     -10.319659      -280.8122
   5   2.0000     -10.309563      -280.5375
   6   2.0000     -10.308470      -280.5077
   7   2.0000     -10.299486      -280.2633
   8   2.0000     -10.298126      -280.2263
   9   2.0000     -10.296676      -280.1868
  10   2.0000     -10.288821      -279.9730
  11   2.0000     -10.288663      -279.9688
  12   2.0000     -10.287765      -279.9443
  13   2.0000     -10.284032      -279.8427
  14   2.0000     -10.281210      -279.7660
  15   2.0000     -10.274886      -279.5939
  16   2.0000      -8.084994      -220.0039
  17   2.0000      -8.077439      -219.7983
  18   2.0000      -6.043523      -164.4526
  19   2.0000      -6.039522      -164.3438
  20   2.0000      -6.035874      -164.2445
  21   2.0000      -6.035742      -164.2409
  22   2.0000      -6.031812      -164.1339
  23   2.0000      -6.028144      -164.0341
  24   2.0000      -1.014818       -27.6146
  25   2.0000      -0.988549       -26.8998
  26   2.0000      -0.910236       -24.7688
  27   2.0000      -0.904693       -24.6179
  28   2.0000      -0.869356       -23.6564
  29   2.0000      -0.851804       -23.1788
  30   2.0000      -0.845024       -22.9943
  31   2.0000      -0.814041       -22.1512
  32   2.0000      -0.783782       -21.3278
  33   2.0000      -0.772191       -21.0124
  34   2.0000      -0.705349       -19.1935
  35   2.0000      -0.699830       -19.0433
  36   2.0000      -0.693819       -18.8798
  37   2.0000      -0.668111       -18.1802
  38   2.0000      -0.633687       -17.2435
  39   2.0000      -0.610890       -16.6232
  40   2.0000      -0.596829       -16.2405
  41   2.0000      -0.574894       -15.6437
  42   2.0000      -0.561899       -15.2900
  43   2.0000      -0.558458       -15.1964
  44   2.0000      -0.528659       -14.3855
  45   2.0000      -0.521056       -14.1786
  46   2.0000      -0.514043       -13.9878
  47   2.0000      -0.511859       -13.9284
  48   2.0000      -0.506280       -13.7766
  49   2.0000      -0.499947       -13.6043
  50   2.0000      -0.491410       -13.3720
  51   2.0000      -0.480863       -13.0849
  52   2.0000      -0.469736       -12.7822
  53   2.0000      -0.466542       -12.6953
  54   2.0000      -0.466099       -12.6832
  55   2.0000      -0.449623       -12.2349
  56   2.0000      -0.441679       -12.0187
  57   2.0000      -0.438155       -11.9228
  58   2.0000      -0.424780       -11.5589
  59   2.0000      -0.424329       -11.5466
  60   2.0000      -0.421083       -11.4583
  61   2.0000      -0.418487       -11.3876
  62   2.0000      -0.409648       -11.1471
  63   2.0000      -0.347945        -9.4681
  64   2.0000      -0.331726        -9.0267
  65   2.0000      -0.327403        -8.9091
  66   2.0000      -0.292274        -7.9532
  67   0.0000       0.035202         0.9579
  68   0.0000       0.068589         1.8664
  69   0.0000       0.096028         2.6131
  70   0.0000       0.115925         3.1545
  71   0.0000       0.135260         3.6806

MULLIKEN ATOMIC CHARGES
-----------------------
   0 S :    0.117263
   1 C :   -0.135260
   2 C :   -0.088026
   3 C :   -0.007618
   4 C :   -0.139760
   5 H :    0.039691
   6 C :    0.032173
   7 H :    0.041770
   8 H :    0.031299
   9 C :   -0.047581
  10 H :    0.026967
  11 H :    0.024234
  12 C :   -0.042435
  13 H :    0.035596
  14 H :    0.033891
  15 H :    0.010109
  16 S :    0.104235
  17 C :   -0.067446
  18 C :   -0.010350
  19 C :   -0.072224
  20 C :   -0.154359
  21 H :    0.009092
  22 C :    0.084363
  23 H :    0.022582
  24 H :    0.025195
  25 C :   -0.086258
  26 H :    0.028439
  27 H :    0.030094
  28 C :   -0.038084
  29 H :    0.028975
  30 H :    0.020443
  31 H :    0.049445
  32 H :    0.060331
  33 H :    0.033212
Sum of atomic charges:   -0.0000000

LOEWDIN ATOMIC CHARGES
----------------------
   0 S :    0.433953
   1 C :   -0.208854
   2 C :   -0.052846
   3 C :   -0.087258
   4 C :   -0.205822
   5 H :    0.043355
   6 C :   -0.037028
   7 H :    0.040773
   8 H :    0.033166
   9 C :   -0.035814
  10 H :    0.025006
  11 H :    0.018297
  12 C :   -0.057590
  13 H :    0.032663
  14 H :    0.026580
  15 H :    0.006613
  16 S :    0.424334
  17 C :   -0.175128
  18 C :   -0.065184
  19 C :   -0.060673
  20 C :   -0.211036
  21 H :    0.026830
  22 C :   -0.030524
  23 H :    0.025528
  24 H :    0.025799
  25 C :   -0.049143
  26 H :    0.023558
  27 H :    0.025678
  28 C :   -0.077845
  29 H :    0.030670
  30 H :    0.019566
  31 H :    0.038986
  32 H :    0.037585
  33 H :    0.015804

  Mayer bond orders larger than 0.100000
B(  0-S ,  1-C ) :   1.1136 B(  0-S ,  4-C ) :   1.1739 B(  1-C ,  2-C ) :   1.6292
B(  1-C , 32-H ) :   0.9644 B(  2-C ,  3-C ) :   1.2152 B(  2-C ,  6-C ) :   1.0187
B(  3-C ,  4-C ) :   1.5993 B(  3-C ,  5-H ) :   0.9783 B(  4-C , 20-C ) :   1.0028
B(  6-C ,  7-H ) :   0.9471 B(  6-C ,  8-H ) :   0.9411 B(  6-C ,  9-C ) :   1.0587
B(  9-C , 10-H ) :   0.9617 B(  9-C , 11-H ) :   0.9577 B(  9-C , 12-C ) :   1.0753
B( 12-C , 13-H ) :   0.9765 B( 12-C , 14-H ) :   0.9742 B( 12-C , 15-H ) :   0.9787
B( 16-S , 17-C ) :   1.1664 B( 16-S , 20-C ) :   1.1451 B( 17-C , 18-C ) :   1.5891
B( 17-C , 33-H ) :   0.9810 B( 18-C , 19-C ) :   1.2294 B( 18-C , 21-H ) :   1.0011
B( 19-C , 20-C ) :   1.5899 B( 19-C , 22-C ) :   1.0488 B( 22-C , 23-H ) :   0.9303
B( 22-C , 24-H ) :   0.9328 B( 22-C , 25-C ) :   1.0553 B( 25-C , 26-H ) :   0.9500
B( 25-C , 27-H ) :   0.9592 B( 25-C , 28-C ) :   1.0774 B( 28-C , 29-H ) :   0.9719
B( 28-C , 30-H ) :   0.9731 B( 28-C , 31-H ) :   0.9739

Dispersion correction           -0.013896790
FINAL SINGLE POINT ENERGY     -1339.872777116619

DIPOLE MOMENT
-------------
                                X             Y             Z
Electronic contribution:     14.26691       2.99532       0.53326
Nuclear contribution   :    -14.30647      -2.98433      -0.60002
                        -----------------------------------------
Total Dipole Moment    :     -0.03956       0.01100      -0.06677
                        -----------------------------------------
Magnitude (a.u.)       :      0.07838
Magnitude (Debye)      :      0.19922

Rotational constants in cm-1:     0.023471     0.007322     0.005847
Rotational constants in MHz :   703.644869   219.503020   175.275340

                             ****ORCA TERMINATED NORMALLY****
TOTAL RUN TIME: 0 days 0 hours 0 minutes 27 seconds 403 msec
