                         Program Version 4.2.1 -  RELEASE  -
|  1> ! wB97X-D3 SP def2-SVP
|  2> %pal
|  3> nprocs 16
|  4> end
|  5>
|  6> * xyz 0 1
|  7> S 	 -44.6835 	 57.6221 	 102.059
|  8> C 	 -46.018 	 56.9066 	 101.087
|  9> C 	 -45.6875 	 55.6266 	 100.674
| 10> C 	 -44.3932 	 55.2435 	 101.115
| 11> C 	 -43.6744 	 56.2411 	 101.806
| 12> H 	 -43.9577 	 54.2667 	 100.963
| 13> C 	 -46.6375 	 54.7851 	 99.7834
| 14> H 	 -46.3014 	 54.7669 	 98.687
| 15> H 	 -47.6187 	 55.3222 	 99.7042
| 16> C 	 -46.9302 	 53.3149 	 100.285
| 17> H 	 -47.4411 	 52.6734 	 99.5727
| 18> H 	 -45.978 	 52.8839 	 100.526
| 19> C 	 -47.7242 	 53.3153 	 101.537
| 20> H 	 -47.2487 	 53.7666 	 102.386
| 21> H 	 -48.6749 	 53.8108 	 101.285
| 22> H 	 -48.0237 	 52.392 	 101.842
| 23> S 	 -41.0843 	 55.9627 	 100.961
| 24> C 	 -39.897 	 56.2992 	 102.141
| 25> C 	 -40.337 	 56.4624 	 103.475
| 26> C 	 -41.7495 	 56.4001 	 103.48
| 27> C 	 -42.3058 	 56.1143 	 102.237
| 28> H 	 -39.6577 	 56.7574 	 104.319
| 29> C 	 -42.5819 	 56.4558 	 104.731
| 30> H 	 -42.9831 	 55.4253 	 104.868
| 31> H 	 -43.3826 	 57.1444 	 104.481
| 32> C 	 -41.8653 	 56.9023 	 106.058
| 33> H 	 -41.3399 	 57.806 	 105.824
| 34> H 	 -41.1381 	 56.1085 	 106.154
| 35> C 	 -42.7975 	 56.8185 	 107.257
| 36> H 	 -43.7135 	 57.467 	 107.077
| 37> H 	 -42.2557 	 56.9356 	 108.212
| 38> H 	 -43.2196 	 55.7715 	 107.307
| 39> H 	 -46.9312 	 57.4582 	 100.958
| 40> H 	 -38.8315 	 56.3435 	 101.934
| 41> *
| 42>
| 43>                          ****END OF INPUT****

CARTESIAN COORDINATES (ANGSTROEM)
---------------------------------
  S    -44.683500   57.622100  102.059000
  C    -46.018000   56.906600  101.087000
  C    -45.687500   55.626600  100.674000
  C    -44.393200   55.243500  101.115000
  C    -43.674400   56.241100  101.806000
  H    -43.957700   54.266700  100.963000
  C    -46.637500   54.785100   99.783400
  H    -46.301400   54.766900   98.687000
  H    -47.618700   55.322200   99.704200
  C    -46.930200   53.314900  100.285000
  H    -47.441100   52.673400   99.572700
  H    -45.978000   52.883900  100.526000
  C    -47.724200   53.315300  101.537000
  H    -47.248700   53.766600  102.386000
  H    -48.674900   53.810800  101.285000
  H    -48.023700   52.392000  101.842000
  S    -41.084300   55.962700  100.961000
  C    -39.897000   56.299200  102.141000
  C    -40.337000   56.462400  103.475000
  C    -41.749500   56.400100  103.480000
  C    -42.305800   56.114300  102.237000
  H    -39.657700   56.757400  104.319000
  C    -42.581900   56.455800  104.731000
  H    -42.983100   55.425300  104.868000
  H    -43.382600   57.144400  104.481000
  C    -41.865300   56.902300  106.058000
  H    -41.339900   57.806000  105.824000
  H    -41.138100   56.108500  106.154000
  C    -42.797500   56.818500  107.257000
  H    -43.713500   57.467000  107.077000
  H    -42.255700   56.935600  108.212000
  H    -43.219600   55.771500  107.307000
  H    -46.931200   57.458200  100.958000
  H    -38.831500   56.343500  101.934000

 Total Charge           Charge          ....    0
 Multiplicity           Mult            ....    1
 Number of Electrons    NEL             ....  134
 Basis Dimension        Dim             ....  322

ORBITAL ENERGIES
----------------

  NO   OCC          E(Eh)            E(eV)
   0   2.0000     -88.971852     -2421.0472
   1   2.0000     -88.965788     -2420.8822
   2   2.0000     -10.327592      -281.0281
   3   2.0000     -10.319234      -280.8006
   4   2.0000     -10.318515      -280.7811
   5   2.0000     -10.316303      -280.7209
   6   2.0000     -10.305937      -280.4388
   7   2.0000     -10.304740      -280.4062
   8   2.0000     -10.301797      -280.3262
   9   2.0000     -10.299184      -280.2551
  10   2.0000     -10.292341      -280.0688
  11   2.0000     -10.289998      -280.0051
  12   2.0000     -10.289319      -279.9866
  13   2.0000     -10.286256      -279.9033
  14   2.0000     -10.283406      -279.8257
  15   2.0000     -10.260830      -279.2114
  16   2.0000      -8.086720      -220.0508
  17   2.0000      -8.079769      -219.8617
  18   2.0000      -6.044978      -164.4922
  19   2.0000      -6.041267      -164.3912
  20   2.0000      -6.038226      -164.3085
  21   2.0000      -6.037675      -164.2935
  22   2.0000      -6.034341      -164.2028
  23   2.0000      -6.030684      -164.1032
  24   2.0000      -1.005701       -27.3665
  25   2.0000      -0.980637       -26.6845
  26   2.0000      -0.910224       -24.7684
  27   2.0000      -0.908246       -24.7146
  28   2.0000      -0.869415       -23.6580
  29   2.0000      -0.855542       -23.2805
  30   2.0000      -0.843422       -22.9507
  31   2.0000      -0.808180       -21.9917
  32   2.0000      -0.780655       -21.2427
  33   2.0000      -0.767119       -20.8744
  34   2.0000      -0.707447       -19.2506
  35   2.0000      -0.702332       -19.1114
  36   2.0000      -0.688801       -18.7432
  37   2.0000      -0.655132       -17.8270
  38   2.0000      -0.634875       -17.2758
  39   2.0000      -0.614984       -16.7346
  40   2.0000      -0.594643       -16.1811
  41   2.0000      -0.573644       -15.6097
  42   2.0000      -0.566654       -15.4194
  43   2.0000      -0.549586       -14.9550
  44   2.0000      -0.544470       -14.8158
  45   2.0000      -0.523614       -14.2483
  46   2.0000      -0.515075       -14.0159
  47   2.0000      -0.514282       -13.9943
  48   2.0000      -0.499277       -13.5860
  49   2.0000      -0.491901       -13.3853
  50   2.0000      -0.480077       -13.0636
  51   2.0000      -0.477032       -12.9807
  52   2.0000      -0.471183       -12.8215
  53   2.0000      -0.465166       -12.6578
  54   2.0000      -0.458561       -12.4781
  55   2.0000      -0.456631       -12.4256
  56   2.0000      -0.444195       -12.0872
  57   2.0000      -0.438493       -11.9320
  58   2.0000      -0.432832       -11.7779
  59   2.0000      -0.422381       -11.4936
  60   2.0000      -0.420565       -11.4442
  61   2.0000      -0.415148       -11.2968
  62   2.0000      -0.410451       -11.1689
  63   2.0000      -0.338788        -9.2189
  64   2.0000      -0.334525        -9.1029
  65   2.0000      -0.330531        -8.9942
  66   2.0000      -0.288035        -7.8378
  67   0.0000       0.029615         0.8059
  68   0.0000       0.061505         1.6736
  69   0.0000       0.107448         2.9238
  70   0.0000       0.113560         3.0901
  71   0.0000       0.130169         3.5421

MULLIKEN ATOMIC CHARGES
-----------------------
   0 S :    0.105520
   1 C :   -0.150763
   2 C :   -0.033438
   3 C :   -0.003097
   4 C :   -0.145083
   5 H :    0.011251
   6 C :    0.022841
   7 H :    0.057215
   8 H :    0.018688
   9 C :   -0.064600
  10 H :    0.031555
  11 H :    0.021738
  12 C :   -0.004295
  13 H :    0.036735
  14 H :    0.011877
  15 H :    0.001231
  16 S :    0.143414
  17 C :   -0.084321
  18 C :   -0.078488
  19 C :   -0.053267
  20 C :   -0.165809
  21 H :    0.048556
  22 C :    0.033972
  23 H :    0.050351
  24 H :    0.021561
  25 C :   -0.080345
  26 H :    0.034253
  27 H :    0.026143
  28 C :   -0.040406
  29 H :    0.047068
  30 H :    0.047840
  31 H :    0.029635
  32 H :    0.050999
  33 H :    0.051470
Sum of atomic charges:    0.0000000

LOEWDIN ATOMIC CHARGES
----------------------
   0 S :    0.401452
   1 C :   -0.180371
   2 C :   -0.062705
   3 C :   -0.072434
   4 C :   -0.200344
   5 H :    0.027557
   6 C :   -0.033753
   7 H :    0.040559
   8 H :    0.028152
   9 C :   -0.039556
  10 H :    0.026790
  11 H :    0.018068
  12 C :   -0.056771
  13 H :    0.025984
  14 H :    0.025682
  15 H :    0.011329
  16 S :    0.434814
  17 C :   -0.191262
  18 C :   -0.085412
  19 C :   -0.050750
  20 C :   -0.211488
  21 H :    0.044810
  22 C :   -0.034814
  23 H :    0.041025
  24 H :    0.019013
  25 C :   -0.044626
  26 H :    0.019846
  27 H :    0.022443
  28 C :   -0.070884
  29 H :    0.034274
  30 H :    0.030836
  31 H :    0.032479
  32 H :    0.024622
  33 H :    0.025436

  Mayer bond orders larger than 0.100000
B(  0-S ,  1-C ) :   1.1385 B(  0-S ,  4-C ) :   1.1541 B(  1-C ,  2-C ) :   1.5864
B(  1-C , 32-H ) :   0.9735 B(  2-C ,  3-C ) :   1.2479 B(  2-C ,  6-C ) :   1.0119
B(  3-C ,  4-C ) :   1.5380 B(  3-C ,  5-H ) :   0.9979 B(  4-C , 20-C ) :   1.0678
B(  6-C ,  7-H ) :   0.9448 B(  6-C ,  8-H ) :   0.9485 B(  6-C ,  9-C ) :   1.0571
B(  9-C , 10-H ) :   0.9565 B(  9-C , 11-H ) :   0.9575 B(  9-C , 12-C ) :   1.0887
B( 12-C , 13-H ) :   0.9741 B( 12-C , 14-H ) :   0.9699 B( 12-C , 15-H ) :   0.9682
B( 16-S , 17-C ) :   1.1990 B( 16-S , 20-C ) :   1.1326 B( 17-C , 18-C ) :   1.5671
B( 17-C , 33-H ) :   0.9585 B( 18-C , 19-C ) :   1.2718 B( 18-C , 21-H ) :   0.9781
B( 19-C , 20-C ) :   1.5726 B( 19-C , 22-C ) :   1.0228 B( 22-C , 23-H ) :   0.9372
B( 22-C , 24-H ) :   0.9177 B( 22-C , 25-C ) :   1.0776 B( 25-C , 26-H ) :   0.9585
B( 25-C , 27-H ) :   0.9455 B( 25-C , 28-C ) :   1.0801 B( 28-C , 29-H ) :   0.9744
B( 28-C , 30-H ) :   0.9718 B( 28-C , 31-H ) :   0.9689

Dispersion correction           -0.013884833
FINAL SINGLE POINT ENERGY     -1339.874294638580

DIPOLE MOMENT
-------------
                                X             Y             Z
Electronic contribution:     13.38997      10.16108     -13.22909
Nuclear contribution   :    -13.44874     -10.43443      13.44721
                        -----------------------------------------
Total Dipole Moment    :     -0.05877      -0.27335       0.21812
                        -----------------------------------------
Magnitude (a.u.)       :      0.35461
Magnitude (Debye)      :      0.90135

Rotational constants in cm-1:     0.018791     0.007982     0.006671
Rotational constants in MHz :   563.351708   239.298073   199.980408

                             ****ORCA TERMINATED NORMALLY****
TOTAL RUN TIME: 0 days 0 hours 0 minutes 27 seconds 996 msec
