                         Program Version 4.2.1 -  RELEASE  -
|  1> ! wB97X-D3 SP def2-SVP
|  2> %pal
|  3> nprocs 16
|  4> end
|  5>
|  6> * xyz 0 1
|  7> S 	 -51.0123 	 60.3997 	 129.368
|  8> C 	 -50.8002 	 58.68 	 129.204
|  9> C 	 -49.4171 	 58.3933 	 129.204
| 10> C 	 -48.5293 	 59.5033 	 129.384
| 11> C 	 -49.2423 	 60.6427 	 129.57
| 12> H 	 -47.439 	 59.4072 	 129.429
| 13> C 	 -48.9347 	 56.9454 	 129.315
| 14> H 	 -49.5254 	 56.4108 	 129.996
| 15> H 	 -47.9689 	 56.832 	 129.716
| 16> C 	 -49.2337 	 56.0697 	 128.046
| 17> H 	 -49.1158 	 55.0114 	 128.312
| 18> H 	 -50.3411 	 56.19 	 127.897
| 19> C 	 -48.4181 	 56.4418 	 126.844
| 20> H 	 -47.3548 	 56.2017 	 126.962
| 21> H 	 -48.7087 	 55.9395 	 125.956
| 22> H 	 -48.5799 	 57.4929 	 126.665
| 23> S 	 -47.1664 	 62.2785 	 129.627
| 24> C 	 -47.0677 	 63.5031 	 130.855
| 25> C 	 -48.1981 	 63.5767 	 131.642
| 26> C 	 -49.1157 	 62.5729 	 131.29
| 27> C 	 -48.676 	 61.7936 	 130.192
| 28> H 	 -48.1523 	 64.3381 	 132.468
| 29> C 	 -50.3872 	 62.3412 	 132.08
| 30> H 	 -50.5787 	 61.2945 	 132.012
| 31> H 	 -50.9643 	 62.8186 	 131.302
| 32> C 	 -50.5912 	 62.8303 	 133.503
| 33> H 	 -51.6485 	 62.8133 	 133.732
| 34> H 	 -50.3931 	 63.8584 	 133.629
| 35> C 	 -49.8909 	 61.8716 	 134.507
| 36> H 	 -49.9805 	 62.1503 	 135.524
| 37> H 	 -48.914 	 61.6976 	 134.175
| 38> H 	 -50.3136 	 60.8377 	 134.408
| 39> H 	 -51.525 	 57.9064 	 129.159
| 40> H 	 -46.2142 	 64.1554 	 130.79
| 41> *
| 42>
| 43>                          ****END OF INPUT****

CARTESIAN COORDINATES (ANGSTROEM)
---------------------------------
  S    -51.012300   60.399700  129.368000
  C    -50.800200   58.680000  129.204000
  C    -49.417100   58.393300  129.204000
  C    -48.529300   59.503300  129.384000
  C    -49.242300   60.642700  129.570000
  H    -47.439000   59.407200  129.429000
  C    -48.934700   56.945400  129.315000
  H    -49.525400   56.410800  129.996000
  H    -47.968900   56.832000  129.716000
  C    -49.233700   56.069700  128.046000
  H    -49.115800   55.011400  128.312000
  H    -50.341100   56.190000  127.897000
  C    -48.418100   56.441800  126.844000
  H    -47.354800   56.201700  126.962000
  H    -48.708700   55.939500  125.956000
  H    -48.579900   57.492900  126.665000
  S    -47.166400   62.278500  129.627000
  C    -47.067700   63.503100  130.855000
  C    -48.198100   63.576700  131.642000
  C    -49.115700   62.572900  131.290000
  C    -48.676000   61.793600  130.192000
  H    -48.152300   64.338100  132.468000
  C    -50.387200   62.341200  132.080000
  H    -50.578700   61.294500  132.012000
  H    -50.964300   62.818600  131.302000
  C    -50.591200   62.830300  133.503000
  H    -51.648500   62.813300  133.732000
  H    -50.393100   63.858400  133.629000
  C    -49.890900   61.871600  134.507000
  H    -49.980500   62.150300  135.524000
  H    -48.914000   61.697600  134.175000
  H    -50.313600   60.837700  134.408000
  H    -51.525000   57.906400  129.159000
  H    -46.214200   64.155400  130.790000

 Total Charge           Charge          ....    0
 Multiplicity           Mult            ....    1
 Number of Electrons    NEL             ....  134
 Basis Dimension        Dim             ....  322

ORBITAL ENERGIES
----------------

  NO   OCC          E(Eh)            E(eV)
   0   2.0000     -88.970609     -2421.0134
   1   2.0000     -88.962890     -2420.8033
   2   2.0000     -10.329023      -281.0670
   3   2.0000     -10.316892      -280.7369
   4   2.0000     -10.313572      -280.6466
   5   2.0000     -10.311470      -280.5894
   6   2.0000     -10.303791      -280.3804
   7   2.0000     -10.302914      -280.3566
   8   2.0000     -10.295863      -280.1647
   9   2.0000     -10.295000      -280.1412
  10   2.0000     -10.287236      -279.9299
  11   2.0000     -10.284506      -279.8556
  12   2.0000     -10.282050      -279.7888
  13   2.0000     -10.280884      -279.7571
  14   2.0000     -10.272648      -279.5330
  15   2.0000     -10.266280      -279.3597
  16   2.0000      -8.083974      -219.9761
  17   2.0000      -8.079249      -219.8475
  18   2.0000      -6.042634      -164.4284
  19   2.0000      -6.038659      -164.3203
  20   2.0000      -6.037376      -164.2854
  21   2.0000      -6.034662      -164.2115
  22   2.0000      -6.033504      -164.1800
  23   2.0000      -6.030379      -164.0949
  24   2.0000      -1.014026       -27.5930
  25   2.0000      -0.984497       -26.7895
  26   2.0000      -0.913024       -24.8446
  27   2.0000      -0.908084       -24.7102
  28   2.0000      -0.875847       -23.8330
  29   2.0000      -0.853704       -23.2305
  30   2.0000      -0.846031       -23.0217
  31   2.0000      -0.816633       -22.2217
  32   2.0000      -0.784589       -21.3498
  33   2.0000      -0.769382       -20.9360
  34   2.0000      -0.718433       -19.5496
  35   2.0000      -0.700411       -19.0592
  36   2.0000      -0.695149       -18.9160
  37   2.0000      -0.661071       -17.9887
  38   2.0000      -0.634584       -17.2679
  39   2.0000      -0.615771       -16.7560
  40   2.0000      -0.598958       -16.2985
  41   2.0000      -0.572818       -15.5872
  42   2.0000      -0.564131       -15.3508
  43   2.0000      -0.545853       -14.8534
  44   2.0000      -0.541001       -14.7214
  45   2.0000      -0.534552       -14.5459
  46   2.0000      -0.521962       -14.2033
  47   2.0000      -0.514945       -14.0124
  48   2.0000      -0.509532       -13.8651
  49   2.0000      -0.493710       -13.4345
  50   2.0000      -0.490383       -13.3440
  51   2.0000      -0.477317       -12.9885
  52   2.0000      -0.471476       -12.8295
  53   2.0000      -0.467564       -12.7231
  54   2.0000      -0.455891       -12.4054
  55   2.0000      -0.450730       -12.2650
  56   2.0000      -0.443524       -12.0689
  57   2.0000      -0.439997       -11.9729
  58   2.0000      -0.433381       -11.7929
  59   2.0000      -0.428381       -11.6569
  60   2.0000      -0.420233       -11.4351
  61   2.0000      -0.415426       -11.3043
  62   2.0000      -0.404505       -11.0071
  63   2.0000      -0.358616        -9.7584
  64   2.0000      -0.333391        -9.0720
  65   2.0000      -0.321524        -8.7491
  66   2.0000      -0.277351        -7.5471
  67   0.0000       0.023423         0.6374
  68   0.0000       0.079897         2.1741
  69   0.0000       0.111735         3.0405
  70   0.0000       0.115751         3.1497
  71   0.0000       0.136599         3.7171

MULLIKEN ATOMIC CHARGES
-----------------------
   0 S :    0.106130
   1 C :   -0.104316
   2 C :   -0.097470
   3 C :    0.014433
   4 C :   -0.122550
   5 H :    0.034455
   6 C :    0.084108
   7 H :    0.010346
   8 H :    0.006116
   9 C :   -0.113250
  10 H :    0.025841
  11 H :    0.022836
  12 C :   -0.008339
  13 H :    0.028329
  14 H :    0.020160
  15 H :    0.032904
  16 S :    0.106769
  17 C :   -0.109857
  18 C :   -0.055310
  19 C :   -0.059463
  20 C :   -0.156303
  21 H :    0.043759
  22 C :    0.045370
  23 H :    0.026250
  24 H :    0.042006
  25 C :   -0.001300
  26 H :    0.022212
  27 H :    0.011861
  28 C :   -0.029987
  29 H :    0.035289
  30 H :    0.023256
  31 H :    0.024938
  32 H :    0.039556
  33 H :    0.051220
Sum of atomic charges:    0.0000000

LOEWDIN ATOMIC CHARGES
----------------------
   0 S :    0.402569
   1 C :   -0.203929
   2 C :   -0.056068
   3 C :   -0.064782
   4 C :   -0.176281
   5 H :    0.037062
   6 C :   -0.028706
   7 H :    0.026979
   8 H :    0.019266
   9 C :   -0.039245
  10 H :    0.020035
  11 H :    0.023582
  12 C :   -0.066493
  13 H :    0.027164
  14 H :    0.020388
  15 H :    0.026987
  16 S :    0.445736
  17 C :   -0.187505
  18 C :   -0.082575
  19 C :   -0.052338
  20 C :   -0.229433
  21 H :    0.046265
  22 C :   -0.040005
  23 H :    0.022275
  24 H :    0.039543
  25 C :   -0.034691
  26 H :    0.029568
  27 H :    0.016160
  28 C :   -0.056508
  29 H :    0.020636
  30 H :    0.018719
  31 H :    0.032892
  32 H :    0.022663
  33 H :    0.020069

  Mayer bond orders larger than 0.100000
B(  0-S ,  1-C ) :   1.1239 B(  0-S ,  4-C ) :   1.1370 B(  1-C ,  2-C ) :   1.6020
B(  1-C , 32-H ) :   0.9703 B(  2-C ,  3-C ) :   1.2527 B(  2-C ,  6-C ) :   1.0245
B(  3-C ,  4-C ) :   1.5487 B(  3-C ,  5-H ) :   0.9881 B(  4-C , 20-C ) :   1.0441
B(  6-C ,  7-H ) :   0.9416 B(  6-C ,  8-H ) :   0.9512 B(  6-C ,  9-C ) :   1.0601
B(  9-C , 10-H ) :   0.9568 B(  9-C , 11-H ) :   0.9570 B(  9-C , 12-C ) :   1.0825
B( 12-C , 13-H ) :   0.9728 B( 12-C , 14-H ) :   0.9711 B( 12-C , 15-H ) :   0.9730
B( 16-S , 17-C ) :   1.1832 B( 16-S , 20-C ) :   1.1718 B( 17-C , 18-C ) :   1.5673
B( 17-C , 20-C ) :   0.1033 B( 17-C , 33-H ) :   0.9703 B( 18-C , 19-C ) :   1.2681
B( 18-C , 21-H ) :   0.9874 B( 19-C , 20-C ) :   1.5331 B( 19-C , 22-C ) :   0.9880
B( 22-C , 23-H ) :   0.9331 B( 22-C , 24-H ) :   0.9273 B( 22-C , 25-C ) :   1.0840
B( 25-C , 26-H ) :   0.9463 B( 25-C , 27-H ) :   0.9485 B( 25-C , 28-C ) :   1.0681
B( 28-C , 29-H ) :   0.9769 B( 28-C , 30-H ) :   0.9806 B( 28-C , 31-H ) :   0.9702

Dispersion correction           -0.014366685
FINAL SINGLE POINT ENERGY     -1339.854542117216

DIPOLE MOMENT
-------------
                                X             Y             Z
Electronic contribution:      2.59742      13.82867      -7.75550
Nuclear contribution   :     -2.56700     -14.06006       8.20520
                        -----------------------------------------
Total Dipole Moment    :      0.03042      -0.23139       0.44970
                        -----------------------------------------
Magnitude (a.u.)       :      0.50665
Magnitude (Debye)      :      1.28780

Rotational constants in cm-1:     0.022453     0.007887     0.006695
Rotational constants in MHz :   673.119413   236.445280   200.714020

                             ****ORCA TERMINATED NORMALLY****
TOTAL RUN TIME: 0 days 0 hours 0 minutes 32 seconds 855 msec
