                         Program Version 4.2.1 -  RELEASE  -
|  1> ! wB97X-D3 SP def2-SVP
|  2> %pal
|  3> nprocs 16
|  4> end
|  5>
|  6> * xyz 0 1
|  7> S 	 -12.379 	 41.3963 	 32.5872
|  8> C 	 -13.7122 	 41.3034 	 33.7185
|  9> C 	 -13.6282 	 40.2074 	 34.524
| 10> C 	 -12.3979 	 39.4613 	 34.3237
| 11> C 	 -11.6704 	 39.953 	 33.2688
| 12> H 	 -11.9825 	 38.6567 	 34.7968
| 13> C 	 -14.5958 	 39.7655 	 35.6233
| 14> H 	 -15.517 	 40.3815 	 35.7249
| 15> H 	 -14.184 	 39.8485 	 36.5914
| 16> C 	 -15.017 	 38.2561 	 35.531
| 17> H 	 -15.8453 	 38.1135 	 34.7444
| 18> H 	 -14.2079 	 37.5242 	 35.2707
| 19> C 	 -15.6866 	 37.8278 	 36.8626
| 20> H 	 -15.197 	 38.2578 	 37.738
| 21> H 	 -16.6723 	 38.0807 	 36.7678
| 22> H 	 -15.554 	 36.7633 	 37.0177
| 23> S 	 -9.04127 	 40.5662 	 33.4466
| 24> C 	 -7.85911 	 39.7351 	 32.5865
| 25> C 	 -8.43034 	 38.6604 	 31.9183
| 26> C 	 -9.81233 	 38.5725 	 32.078
| 27> C 	 -10.3533 	 39.6124 	 32.8416
| 28> H 	 -7.78656 	 37.8889 	 31.4695
| 29> C 	 -10.6778 	 37.5058 	 31.5668
| 30> H 	 -10.5187 	 37.1461 	 30.5418
| 31> H 	 -11.6325 	 38.0561 	 31.544
| 32> C 	 -11.0957 	 36.381 	 32.4942
| 33> H 	 -11.8729 	 35.7568 	 32.1377
| 34> H 	 -11.4315 	 36.7135 	 33.462
| 35> C 	 -9.91711 	 35.4778 	 32.8956
| 36> H 	 -9.55667 	 34.8571 	 32.0357
| 37> H 	 -10.3115 	 34.7843 	 33.6681
| 38> H 	 -9.05045 	 36.0982 	 33.255
| 39> H 	 -14.3913 	 42.0687 	 33.9406
| 40> H 	 -6.82191 	 39.9625 	 32.643
| 41> *
| 42>
| 43>                          ****END OF INPUT****

CARTESIAN COORDINATES (ANGSTROEM)
---------------------------------
  S    -12.379000   41.396300   32.587200
  C    -13.712200   41.303400   33.718500
  C    -13.628200   40.207400   34.524000
  C    -12.397900   39.461300   34.323700
  C    -11.670400   39.953000   33.268800
  H    -11.982500   38.656700   34.796800
  C    -14.595800   39.765500   35.623300
  H    -15.517000   40.381500   35.724900
  H    -14.184000   39.848500   36.591400
  C    -15.017000   38.256100   35.531000
  H    -15.845300   38.113500   34.744400
  H    -14.207900   37.524200   35.270700
  C    -15.686600   37.827800   36.862600
  H    -15.197000   38.257800   37.738000
  H    -16.672300   38.080700   36.767800
  H    -15.554000   36.763300   37.017700
  S     -9.041270   40.566200   33.446600
  C     -7.859110   39.735100   32.586500
  C     -8.430340   38.660400   31.918300
  C     -9.812330   38.572500   32.078000
  C    -10.353300   39.612400   32.841600
  H     -7.786560   37.888900   31.469500
  C    -10.677800   37.505800   31.566800
  H    -10.518700   37.146100   30.541800
  H    -11.632500   38.056100   31.544000
  C    -11.095700   36.381000   32.494200
  H    -11.872900   35.756800   32.137700
  H    -11.431500   36.713500   33.462000
  C     -9.917110   35.477800   32.895600
  H     -9.556670   34.857100   32.035700
  H    -10.311500   34.784300   33.668100
  H     -9.050450   36.098200   33.255000
  H    -14.391300   42.068700   33.940600
  H     -6.821910   39.962500   32.643000

 Total Charge           Charge          ....    0
 Multiplicity           Mult            ....    1
 Number of Electrons    NEL             ....  134
 Basis Dimension        Dim             ....  322

ORBITAL ENERGIES
----------------

  NO   OCC          E(Eh)            E(eV)
   0   2.0000     -88.963913     -2420.8311
   1   2.0000     -88.963849     -2420.8294
   2   2.0000     -10.325172      -280.9622
   3   2.0000     -10.318181      -280.7720
   4   2.0000     -10.311849      -280.5997
   5   2.0000     -10.310204      -280.5549
   6   2.0000     -10.305384      -280.4237
   7   2.0000     -10.298699      -280.2418
   8   2.0000     -10.297823      -280.2180
   9   2.0000     -10.296502      -280.1821
  10   2.0000     -10.292275      -280.0670
  11   2.0000     -10.289942      -280.0036
  12   2.0000     -10.282756      -279.8080
  13   2.0000     -10.278234      -279.6850
  14   2.0000     -10.277840      -279.6742
  15   2.0000     -10.271799      -279.5099
  16   2.0000      -8.080227      -219.8742
  17   2.0000      -8.078995      -219.8406
  18   2.0000      -6.038457      -164.3148
  19   2.0000      -6.037517      -164.2892
  20   2.0000      -6.034226      -164.1996
  21   2.0000      -6.033429      -164.1779
  22   2.0000      -6.031455      -164.1242
  23   2.0000      -6.029718      -164.0770
  24   2.0000      -1.016718       -27.6663
  25   2.0000      -0.990232       -26.9456
  26   2.0000      -0.915939       -24.9240
  27   2.0000      -0.908866       -24.7315
  28   2.0000      -0.876006       -23.8373
  29   2.0000      -0.852224       -23.1902
  30   2.0000      -0.848746       -23.0956
  31   2.0000      -0.817925       -22.2569
  32   2.0000      -0.783988       -21.3334
  33   2.0000      -0.772728       -21.0270
  34   2.0000      -0.710604       -19.3365
  35   2.0000      -0.694312       -18.8932
  36   2.0000      -0.689778       -18.7698
  37   2.0000      -0.662631       -18.0311
  38   2.0000      -0.656947       -17.8764
  39   2.0000      -0.620921       -16.8961
  40   2.0000      -0.598424       -16.2839
  41   2.0000      -0.573731       -15.6120
  42   2.0000      -0.567143       -15.4328
  43   2.0000      -0.555055       -15.1038
  44   2.0000      -0.547246       -14.8913
  45   2.0000      -0.525656       -14.3038
  46   2.0000      -0.518791       -14.1170
  47   2.0000      -0.514811       -14.0087
  48   2.0000      -0.506335       -13.7781
  49   2.0000      -0.502886       -13.6842
  50   2.0000      -0.488717       -13.2987
  51   2.0000      -0.482161       -13.1203
  52   2.0000      -0.474781       -12.9194
  53   2.0000      -0.466952       -12.7064
  54   2.0000      -0.459270       -12.4974
  55   2.0000      -0.450273       -12.2526
  56   2.0000      -0.443090       -12.0571
  57   2.0000      -0.435792       -11.8585
  58   2.0000      -0.430741       -11.7211
  59   2.0000      -0.423101       -11.5132
  60   2.0000      -0.419619       -11.4184
  61   2.0000      -0.418453       -11.3867
  62   2.0000      -0.402258       -10.9460
  63   2.0000      -0.339243        -9.2313
  64   2.0000      -0.326423        -8.8824
  65   2.0000      -0.322230        -8.7683
  66   2.0000      -0.310828        -8.4581
  67   0.0000       0.038276         1.0415
  68   0.0000       0.059618         1.6223
  69   0.0000       0.118910         3.2357
  70   0.0000       0.124038         3.3753
  71   0.0000       0.129301         3.5185

MULLIKEN ATOMIC CHARGES
-----------------------
   0 S :    0.116080
   1 C :   -0.094041
   2 C :   -0.044699
   3 C :    0.091584
   4 C :   -0.202926
   5 H :   -0.020224
   6 C :    0.084833
   7 H :    0.023375
   8 H :    0.018138
   9 C :   -0.159798
  10 H :    0.044095
  11 H :    0.045704
  12 C :   -0.017867
  13 H :    0.025474
  14 H :    0.024117
  15 H :    0.028977
  16 S :    0.135774
  17 C :   -0.086285
  18 C :   -0.052399
  19 C :    0.002909
  20 C :   -0.197420
  21 H :    0.025300
  22 C :    0.064879
  23 H :    0.032985
  24 H :    0.030098
  25 C :   -0.025518
  26 H :    0.021706
  27 H :    0.000027
  28 C :   -0.105932
  29 H :    0.028339
  30 H :    0.036504
  31 H :    0.048115
  32 H :    0.027222
  33 H :    0.050877
Sum of atomic charges:   -0.0000000

LOEWDIN ATOMIC CHARGES
----------------------
   0 S :    0.407077
   1 C :   -0.186283
   2 C :   -0.056597
   3 C :   -0.038353
   4 C :   -0.198547
   5 H :    0.015750
   6 C :   -0.032266
   7 H :    0.033748
   8 H :    0.023456
   9 C :   -0.044559
  10 H :    0.031748
  11 H :    0.024392
  12 C :   -0.059279
  13 H :    0.023315
  14 H :    0.014022
  15 H :    0.027949
  16 S :    0.458686
  17 C :   -0.200783
  18 C :   -0.083040
  19 C :   -0.056096
  20 C :   -0.224683
  21 H :    0.035374
  22 C :   -0.041267
  23 H :    0.032851
  24 H :    0.043235
  25 C :   -0.034360
  26 H :    0.021429
  27 H :    0.018050
  28 C :   -0.076802
  29 H :    0.021001
  30 H :    0.025958
  31 H :    0.028692
  32 H :    0.020729
  33 H :    0.025452

  Mayer bond orders larger than 0.100000
B(  0-S ,  1-C ) :   1.1271 B(  0-S ,  4-C ) :   1.1406 B(  1-C ,  2-C ) :   1.6610
B(  1-C , 32-H ) :   0.9701 B(  2-C ,  3-C ) :   1.1759 B(  2-C ,  6-C ) :   1.0241
B(  3-C ,  4-C ) :   1.6238 B(  3-C ,  5-H ) :   1.0011 B(  4-C , 20-C ) :   1.0171
B(  6-C ,  7-H ) :   0.9446 B(  6-C ,  8-H ) :   0.9436 B(  6-C ,  9-C ) :   1.0402
B(  9-C , 10-H ) :   0.9617 B(  9-C , 11-H ) :   0.9655 B(  9-C , 12-C ) :   1.0658
B( 12-C , 13-H ) :   0.9759 B( 12-C , 14-H ) :   0.9814 B( 12-C , 15-H ) :   0.9752
B( 16-S , 17-C ) :   1.2060 B( 16-S , 20-C ) :   1.1799 B( 17-C , 18-C ) :   1.5256
B( 17-C , 20-C ) :   0.1148 B( 17-C , 33-H ) :   0.9743 B( 18-C , 19-C ) :   1.2959
B( 18-C , 21-H ) :   0.9933 B( 19-C , 20-C ) :   1.5285 B( 19-C , 22-C ) :   1.0537
B( 22-C , 23-H ) :   0.9433 B( 22-C , 24-H ) :   0.9097 B( 22-C , 25-C ) :   1.0809
B( 25-C , 26-H ) :   0.9519 B( 25-C , 27-H ) :   0.9504 B( 25-C , 28-C ) :   1.0757
B( 28-C , 29-H ) :   0.9753 B( 28-C , 30-H ) :   0.9761 B( 28-C , 31-H ) :   0.9745

Dispersion correction           -0.014792782
FINAL SINGLE POINT ENERGY     -1339.863701783036

DIPOLE MOMENT
-------------
                                X             Y             Z
Electronic contribution:     13.65009      23.91703      -9.74368
Nuclear contribution   :    -13.85994     -24.31957      10.12275
                        -----------------------------------------
Total Dipole Moment    :     -0.20985      -0.40254       0.37906
                        -----------------------------------------
Magnitude (a.u.)       :      0.59141
Magnitude (Debye)      :      1.50324

Rotational constants in cm-1:     0.018685     0.009119     0.007018
Rotational constants in MHz :   560.148514   273.382968   210.407717

                             ****ORCA TERMINATED NORMALLY****
TOTAL RUN TIME: 0 days 0 hours 0 minutes 35 seconds 115 msec
