                         Program Version 4.2.1 -  RELEASE  -
|  1> ! wB97X-D3 SP def2-SVP
|  2> %pal
|  3> nprocs 16
|  4> end
|  5>
|  6> * xyz 0 1
|  7> S 	 0.313235 	 -10.4525 	 65.976
|  8> C 	 -0.895484 	 -9.39001 	 66.7267
|  9> C 	 -1.90996 	 -10.1081 	 67.3782
| 10> C 	 -1.65477 	 -11.5213 	 67.4076
| 11> C 	 -0.492426 	 -11.8458 	 66.7156
| 12> H 	 -2.08635 	 -12.2634 	 68.0479
| 13> C 	 -3.11678 	 -9.48681 	 68.04
| 14> H 	 -3.9758 	 -10.1038 	 67.8249
| 15> H 	 -3.23633 	 -8.50322 	 67.562
| 16> C 	 -3.14206 	 -9.25793 	 69.5948
| 17> H 	 -2.28618 	 -8.62069 	 69.8589
| 18> H 	 -3.99765 	 -8.70457 	 69.8523
| 19> C 	 -3.22584 	 -10.5282 	 70.4286
| 20> H 	 -4.12311 	 -11.0669 	 70.4767
| 21> H 	 -2.46822 	 -11.2062 	 70.0836
| 22> H 	 -2.95364 	 -10.241 	 71.448
| 23> S 	 1.80543 	 -13.1755 	 67.134
| 24> C 	 1.80122 	 -14.9113 	 67.2249
| 25> C 	 0.562976 	 -15.4218 	 66.9639
| 26> C 	 -0.427254 	 -14.4682 	 66.7252
| 27> C 	 0.0881943 	 -13.1492 	 66.6997
| 28> H 	 0.493024 	 -16.4455 	 66.9707
| 29> C 	 -1.9315 	 -14.8715 	 66.5659
| 30> H 	 -2.01753 	 -15.3592 	 65.5474
| 31> H 	 -2.59037 	 -14.0229 	 66.503
| 32> C 	 -2.4048 	 -15.8621 	 67.6887
| 33> H 	 -1.81292 	 -16.7368 	 67.7498
| 34> H 	 -3.37216 	 -16.251 	 67.6039
| 35> C 	 -2.33021 	 -15.2754 	 69.0959
| 36> H 	 -1.26352 	 -15.1189 	 69.3166
| 37> H 	 -2.55412 	 -15.9826 	 69.9516
| 38> H 	 -2.91283 	 -14.4067 	 69.3383
| 39> H 	 -0.930833 	 -8.38498 	 66.7088
| 40> H 	 2.67773 	 -15.54 	 67.3829
| 41> *
| 42>
| 43>                          ****END OF INPUT****

CARTESIAN COORDINATES (ANGSTROEM)
---------------------------------
  S      0.313235  -10.452500   65.976000
  C     -0.895484   -9.390010   66.726700
  C     -1.909960  -10.108100   67.378200
  C     -1.654770  -11.521300   67.407600
  C     -0.492426  -11.845800   66.715600
  H     -2.086350  -12.263400   68.047900
  C     -3.116780   -9.486810   68.040000
  H     -3.975800  -10.103800   67.824900
  H     -3.236330   -8.503220   67.562000
  C     -3.142060   -9.257930   69.594800
  H     -2.286180   -8.620690   69.858900
  H     -3.997650   -8.704570   69.852300
  C     -3.225840  -10.528200   70.428600
  H     -4.123110  -11.066900   70.476700
  H     -2.468220  -11.206200   70.083600
  H     -2.953640  -10.241000   71.448000
  S      1.805430  -13.175500   67.134000
  C      1.801220  -14.911300   67.224900
  C      0.562976  -15.421800   66.963900
  C     -0.427254  -14.468200   66.725200
  C      0.088194  -13.149200   66.699700
  H      0.493024  -16.445500   66.970700
  C     -1.931500  -14.871500   66.565900
  H     -2.017530  -15.359200   65.547400
  H     -2.590370  -14.022900   66.503000
  C     -2.404800  -15.862100   67.688700
  H     -1.812920  -16.736800   67.749800
  H     -3.372160  -16.251000   67.603900
  C     -2.330210  -15.275400   69.095900
  H     -1.263520  -15.118900   69.316600
  H     -2.554120  -15.982600   69.951600
  H     -2.912830  -14.406700   69.338300
  H     -0.930833   -8.384980   66.708800
  H      2.677730  -15.540000   67.382900

 Total Charge           Charge          ....    0
 Multiplicity           Mult            ....    1
 Number of Electrons    NEL             ....  134
 Basis Dimension        Dim             ....  322

ORBITAL ENERGIES
----------------

  NO   OCC          E(Eh)            E(eV)
   0   2.0000     -88.970929     -2421.0221
   1   2.0000     -88.964157     -2420.8378
   2   2.0000     -10.329213      -281.0722
   3   2.0000     -10.326963      -281.0110
   4   2.0000     -10.315183      -280.6904
   5   2.0000     -10.309517      -280.5362
   6   2.0000     -10.309246      -280.5288
   7   2.0000     -10.303677      -280.3773
   8   2.0000     -10.303457      -280.3713
   9   2.0000     -10.292133      -280.0632
  10   2.0000     -10.291603      -280.0488
  11   2.0000     -10.284932      -279.8672
  12   2.0000     -10.284758      -279.8625
  13   2.0000     -10.284367      -279.8518
  14   2.0000     -10.277626      -279.6684
  15   2.0000     -10.270547      -279.4758
  16   2.0000      -8.084575      -219.9925
  17   2.0000      -8.078917      -219.8385
  18   2.0000      -6.043178      -164.4432
  19   2.0000      -6.039349      -164.3391
  20   2.0000      -6.037366      -164.2851
  21   2.0000      -6.035193      -164.2260
  22   2.0000      -6.033375      -164.1765
  23   2.0000      -6.029776      -164.0785
  24   2.0000      -1.005701       -27.3665
  25   2.0000      -0.979727       -26.6597
  26   2.0000      -0.909477       -24.7481
  27   2.0000      -0.904920       -24.6241
  28   2.0000      -0.873502       -23.7692
  29   2.0000      -0.851945       -23.1826
  30   2.0000      -0.845516       -23.0076
  31   2.0000      -0.816215       -22.2103
  32   2.0000      -0.784450       -21.3460
  33   2.0000      -0.772571       -21.0227
  34   2.0000      -0.713442       -19.4137
  35   2.0000      -0.706826       -19.2337
  36   2.0000      -0.700590       -19.0640
  37   2.0000      -0.661056       -17.9882
  38   2.0000      -0.641621       -17.4594
  39   2.0000      -0.616653       -16.7800
  40   2.0000      -0.596890       -16.2422
  41   2.0000      -0.573725       -15.6118
  42   2.0000      -0.550492       -14.9796
  43   2.0000      -0.548838       -14.9346
  44   2.0000      -0.545604       -14.8466
  45   2.0000      -0.540369       -14.7042
  46   2.0000      -0.522104       -14.2072
  47   2.0000      -0.514270       -13.9940
  48   2.0000      -0.505653       -13.7595
  49   2.0000      -0.493194       -13.4205
  50   2.0000      -0.488655       -13.2970
  51   2.0000      -0.481757       -13.1093
  52   2.0000      -0.472568       -12.8592
  53   2.0000      -0.467807       -12.7297
  54   2.0000      -0.458510       -12.4767
  55   2.0000      -0.447736       -12.1835
  56   2.0000      -0.440760       -11.9937
  57   2.0000      -0.438040       -11.9197
  58   2.0000      -0.431308       -11.7365
  59   2.0000      -0.430164       -11.7054
  60   2.0000      -0.428832       -11.6691
  61   2.0000      -0.414998       -11.2927
  62   2.0000      -0.411620       -11.2007
  63   2.0000      -0.351673        -9.5695
  64   2.0000      -0.332983        -9.0609
  65   2.0000      -0.329550        -8.9675
  66   2.0000      -0.283715        -7.7203
  67   0.0000       0.021747         0.5918
  68   0.0000       0.073402         1.9974
  69   0.0000       0.104101         2.8327
  70   0.0000       0.114891         3.1263
  71   0.0000       0.133175         3.6239

MULLIKEN ATOMIC CHARGES
-----------------------
   0 S :    0.116439
   1 C :   -0.062822
   2 C :   -0.090797
   3 C :    0.020947
   4 C :   -0.143551
   5 H :    0.011434
   6 C :    0.055280
   7 H :    0.023889
   8 H :    0.021991
   9 C :   -0.044725
  10 H :    0.029167
  11 H :    0.019529
  12 C :   -0.040399
  13 H :    0.024867
  14 H :    0.024397
  15 H :    0.029967
  16 S :    0.096689
  17 C :   -0.091742
  18 C :   -0.017763
  19 C :   -0.032986
  20 C :   -0.149068
  21 H :   -0.015366
  22 C :    0.078806
  23 H :    0.049934
  24 H :    0.022277
  25 C :   -0.023523
  26 H :    0.015521
  27 H :    0.017288
  28 C :   -0.104610
  29 H :    0.037869
  30 H :    0.031337
  31 H :    0.037609
  32 H :   -0.007200
  33 H :    0.059315
Sum of atomic charges:    0.0000000

LOEWDIN ATOMIC CHARGES
----------------------
   0 S :    0.389354
   1 C :   -0.176275
   2 C :   -0.052239
   3 C :   -0.062454
   4 C :   -0.184189
   5 H :    0.028354
   6 C :   -0.033245
   7 H :    0.029250
   8 H :    0.032331
   9 C :   -0.032331
  10 H :    0.026658
  11 H :    0.018464
  12 C :   -0.063693
  13 H :    0.017487
  14 H :    0.022355
  15 H :    0.031920
  16 S :    0.404972
  17 C :   -0.184066
  18 C :   -0.069063
  19 C :   -0.052169
  20 C :   -0.193184
  21 H :    0.019070
  22 C :   -0.023652
  23 H :    0.042434
  24 H :    0.024875
  25 C :   -0.035811
  26 H :    0.020667
  27 H :    0.018566
  28 C :   -0.077925
  29 H :    0.028570
  30 H :    0.033386
  31 H :    0.016541
  32 H :    0.002300
  33 H :    0.032743

  Mayer bond orders larger than 0.100000
B(  0-S ,  1-C ) :   1.1149 B(  0-S ,  4-C ) :   1.1382 B(  1-C ,  2-C ) :   1.6285
B(  1-C , 32-H ) :   0.9767 B(  2-C ,  3-C ) :   1.2157 B(  2-C ,  6-C ) :   1.0343
B(  3-C ,  4-C ) :   1.5874 B(  3-C ,  5-H ) :   0.9815 B(  4-C , 20-C ) :   1.0660
B(  6-C ,  7-H ) :   0.9396 B(  6-C ,  8-H ) :   0.9369 B(  6-C ,  9-C ) :   1.0738
B(  9-C , 10-H ) :   0.9563 B(  9-C , 11-H ) :   0.9534 B(  9-C , 12-C ) :   1.0794
B( 12-C , 13-H ) :   0.9768 B( 12-C , 14-H ) :   0.9748 B( 12-C , 15-H ) :   0.9689
B( 16-S , 17-C ) :   1.1599 B( 16-S , 20-C ) :   1.1459 B( 17-C , 18-C ) :   1.5995
B( 17-C , 20-C ) :   0.1049 B( 17-C , 33-H ) :   0.9640 B( 18-C , 19-C ) :   1.2488
B( 18-C , 21-H ) :   1.0086 B( 19-C , 20-C ) :   1.5609 B( 19-C , 22-C ) :   1.0202
B( 22-C , 23-H ) :   0.9385 B( 22-C , 24-H ) :   0.9459 B( 22-C , 25-C ) :   1.0588
B( 25-C , 26-H ) :   0.9522 B( 25-C , 27-H ) :   0.9583 B( 25-C , 28-C ) :   1.0764
B( 28-C , 29-H ) :   0.9724 B( 28-C , 30-H ) :   0.9699 B( 28-C , 31-H ) :   0.9731

Dispersion correction           -0.015265747
FINAL SINGLE POINT ENERGY     -1339.866375578672

DIPOLE MOMENT
-------------
                                X             Y             Z
Electronic contribution:     23.02608       5.24701     -16.88224
Nuclear contribution   :    -23.53044      -5.55528      17.30131
                        -----------------------------------------
Total Dipole Moment    :     -0.50436      -0.30827       0.41908
                        -----------------------------------------
Magnitude (a.u.)       :      0.72459
Magnitude (Debye)      :      1.84177

Rotational constants in cm-1:     0.017356     0.010217     0.007415
Rotational constants in MHz :   520.313746   306.297232   222.285527

                             ****ORCA TERMINATED NORMALLY****
TOTAL RUN TIME: 0 days 0 hours 0 minutes 38 seconds 373 msec
