                         Program Version 4.2.1 -  RELEASE  -
|  1> ! wB97X-D3 SP def2-SVP
|  2> %pal
|  3> nprocs 16
|  4> end
|  5>
|  6> * xyz 0 1
|  7> S 	 61.2825 	 -5.48111 	 88.2545
|  8> C 	 59.6619 	 -4.95806 	 88.7232
|  9> C 	 59.6995 	 -3.64999 	 89.1983
| 10> C 	 60.9861 	 -3.0584 	 88.9553
| 11> C 	 61.9603 	 -3.8531 	 88.3272
| 12> H 	 61.267 	 -2.00463 	 89.1703
| 13> C 	 58.4915 	 -2.83657 	 89.6477
| 14> H 	 57.7877 	 -2.63425 	 88.8486
| 15> H 	 58.7175 	 -1.86308 	 89.9909
| 16> C 	 57.5804 	 -3.5635 	 90.6886
| 17> H 	 56.7807 	 -2.89298 	 90.7906
| 18> H 	 57.242 	 -4.48962 	 90.3309
| 19> C 	 58.0898 	 -3.8808 	 92.0332
| 20> H 	 57.7725 	 -3.0896 	 92.7498
| 21> H 	 57.7132 	 -4.80437 	 92.4069
| 22> H 	 59.1569 	 -3.90844 	 92.1049
| 23> S 	 64.4036 	 -4.87986 	 87.8998
| 24> C 	 65.7271 	 -3.92431 	 87.3563
| 25> C 	 65.334 	 -2.57906 	 87.2171
| 26> C 	 63.8895 	 -2.36557 	 87.5504
| 27> C 	 63.3165 	 -3.51073 	 88.0482
| 28> H 	 65.9882 	 -1.84878 	 86.8763
| 29> C 	 63.2071 	 -1.01955 	 87.2941
| 30> H 	 62.1385 	 -1.24172 	 87.2407
| 31> H 	 63.4316 	 -0.657405 	 86.309
| 32> C 	 63.4898 	 0.0592869 	 88.3506
| 33> H 	 64.5305 	 0.0656586 	 88.6068
| 34> H 	 62.911 	 -0.213465 	 89.3277
| 35> C 	 63.0591 	 1.49478 	 87.9047
| 36> H 	 63.5591 	 1.80695 	 87.0198
| 37> H 	 63.2278 	 2.28541 	 88.6882
| 38> H 	 62.0185 	 1.63093 	 87.7009
| 39> H 	 58.7235 	 -5.54668 	 88.7444
| 40> H 	 66.7528 	 -4.33247 	 87.3063
| 41> *
| 42>
| 43>                          ****END OF INPUT****

CARTESIAN COORDINATES (ANGSTROEM)
---------------------------------
  S     61.282500   -5.481110   88.254500
  C     59.661900   -4.958060   88.723200
  C     59.699500   -3.649990   89.198300
  C     60.986100   -3.058400   88.955300
  C     61.960300   -3.853100   88.327200
  H     61.267000   -2.004630   89.170300
  C     58.491500   -2.836570   89.647700
  H     57.787700   -2.634250   88.848600
  H     58.717500   -1.863080   89.990900
  C     57.580400   -3.563500   90.688600
  H     56.780700   -2.892980   90.790600
  H     57.242000   -4.489620   90.330900
  C     58.089800   -3.880800   92.033200
  H     57.772500   -3.089600   92.749800
  H     57.713200   -4.804370   92.406900
  H     59.156900   -3.908440   92.104900
  S     64.403600   -4.879860   87.899800
  C     65.727100   -3.924310   87.356300
  C     65.334000   -2.579060   87.217100
  C     63.889500   -2.365570   87.550400
  C     63.316500   -3.510730   88.048200
  H     65.988200   -1.848780   86.876300
  C     63.207100   -1.019550   87.294100
  H     62.138500   -1.241720   87.240700
  H     63.431600   -0.657405   86.309000
  C     63.489800    0.059287   88.350600
  H     64.530500    0.065659   88.606800
  H     62.911000   -0.213465   89.327700
  C     63.059100    1.494780   87.904700
  H     63.559100    1.806950   87.019800
  H     63.227800    2.285410   88.688200
  H     62.018500    1.630930   87.700900
  H     58.723500   -5.546680   88.744400
  H     66.752800   -4.332470   87.306300

 Total Charge           Charge          ....    0
 Multiplicity           Mult            ....    1
 Number of Electrons    NEL             ....  134
 Basis Dimension        Dim             ....  322

ORBITAL ENERGIES
----------------

  NO   OCC          E(Eh)            E(eV)
   0   2.0000     -88.968277     -2420.9499
   1   2.0000     -88.963628     -2420.8234
   2   2.0000     -10.332420      -281.1595
   3   2.0000     -10.328930      -281.0645
   4   2.0000     -10.324517      -280.9444
   5   2.0000     -10.320539      -280.8361
   6   2.0000     -10.311981      -280.6033
   7   2.0000     -10.305472      -280.4261
   8   2.0000     -10.300558      -280.2924
   9   2.0000     -10.298697      -280.2418
  10   2.0000     -10.298235      -280.2292
  11   2.0000     -10.294284      -280.1217
  12   2.0000     -10.291893      -280.0566
  13   2.0000     -10.280776      -279.7541
  14   2.0000     -10.273487      -279.5558
  15   2.0000     -10.265489      -279.3382
  16   2.0000      -8.082124      -219.9258
  17   2.0000      -8.079329      -219.8497
  18   2.0000      -6.040879      -164.3807
  19   2.0000      -6.037968      -164.3015
  20   2.0000      -6.036763      -164.2687
  21   2.0000      -6.033673      -164.1846
  22   2.0000      -6.032647      -164.1567
  23   2.0000      -6.029924      -164.0826
  24   2.0000      -1.007496       -27.4154
  25   2.0000      -0.980346       -26.6766
  26   2.0000      -0.915324       -24.9072
  27   2.0000      -0.907716       -24.7002
  28   2.0000      -0.874279       -23.7903
  29   2.0000      -0.852040       -23.1852
  30   2.0000      -0.841544       -22.8996
  31   2.0000      -0.812033       -22.0966
  32   2.0000      -0.787038       -21.4164
  33   2.0000      -0.778802       -21.1923
  34   2.0000      -0.708542       -19.2804
  35   2.0000      -0.703807       -19.1516
  36   2.0000      -0.694701       -18.9038
  37   2.0000      -0.670749       -18.2520
  38   2.0000      -0.633236       -17.2312
  39   2.0000      -0.612262       -16.6605
  40   2.0000      -0.596781       -16.2392
  41   2.0000      -0.583275       -15.8717
  42   2.0000      -0.563255       -15.3269
  43   2.0000      -0.550265       -14.9735
  44   2.0000      -0.541467       -14.7341
  45   2.0000      -0.523648       -14.2492
  46   2.0000      -0.518405       -14.1065
  47   2.0000      -0.515712       -14.0332
  48   2.0000      -0.511167       -13.9096
  49   2.0000      -0.505097       -13.7444
  50   2.0000      -0.494705       -13.4616
  51   2.0000      -0.479831       -13.0569
  52   2.0000      -0.473730       -12.8908
  53   2.0000      -0.466219       -12.6865
  54   2.0000      -0.456883       -12.4324
  55   2.0000      -0.451911       -12.2971
  56   2.0000      -0.442616       -12.0442
  57   2.0000      -0.438684       -11.9372
  58   2.0000      -0.431134       -11.7317
  59   2.0000      -0.422641       -11.5007
  60   2.0000      -0.419957       -11.4276
  61   2.0000      -0.414680       -11.2840
  62   2.0000      -0.409605       -11.1459
  63   2.0000      -0.364267        -9.9122
  64   2.0000      -0.331479        -9.0200
  65   2.0000      -0.324848        -8.8396
  66   2.0000      -0.284217        -7.7339
  67   0.0000       0.019091         0.5195
  68   0.0000       0.074418         2.0250
  69   0.0000       0.100735         2.7411
  70   0.0000       0.111698         3.0395
  71   0.0000       0.131801         3.5865

MULLIKEN ATOMIC CHARGES
-----------------------
   0 S :    0.101974
   1 C :   -0.131694
   2 C :   -0.056487
   3 C :   -0.019790
   4 C :   -0.118237
   5 H :    0.013495
   6 C :    0.083874
   7 H :    0.036877
   8 H :    0.006272
   9 C :   -0.062820
  10 H :    0.012804
  11 H :    0.006794
  12 C :   -0.027526
  13 H :    0.022983
  14 H :    0.021806
  15 H :    0.027227
  16 S :    0.082633
  17 C :   -0.097627
  18 C :   -0.001909
  19 C :   -0.084695
  20 C :   -0.108810
  21 H :   -0.001030
  22 C :    0.069862
  23 H :    0.025389
  24 H :    0.019439
  25 C :   -0.079587
  26 H :    0.030943
  27 H :    0.044451
  28 C :   -0.047475
  29 H :    0.024817
  30 H :    0.039010
  31 H :    0.022378
  32 H :    0.064511
  33 H :    0.080149
Sum of atomic charges:    0.0000000

LOEWDIN ATOMIC CHARGES
----------------------
   0 S :    0.393623
   1 C :   -0.195897
   2 C :   -0.065759
   3 C :   -0.072163
   4 C :   -0.189905
   5 H :    0.030823
   6 C :   -0.022868
   7 H :    0.038009
   8 H :    0.022392
   9 C :   -0.037440
  10 H :    0.019961
  11 H :    0.014735
  12 C :   -0.063993
  13 H :    0.028680
  14 H :    0.022949
  15 H :    0.023418
  16 S :    0.407229
  17 C :   -0.193407
  18 C :   -0.060844
  19 C :   -0.047683
  20 C :   -0.191533
  21 H :    0.017626
  22 C :   -0.033359
  23 H :    0.030913
  24 H :    0.028041
  25 C :   -0.038259
  26 H :    0.021030
  27 H :    0.032578
  28 C :   -0.070437
  29 H :    0.019146
  30 H :    0.034026
  31 H :    0.021163
  32 H :    0.038404
  33 H :    0.038801

  Mayer bond orders larger than 0.100000
B(  0-S ,  1-C ) :   1.1379 B(  0-S ,  4-C ) :   1.1299 B(  1-C ,  2-C ) :   1.5883
B(  1-C ,  4-C ) :   0.1000 B(  1-C , 32-H ) :   0.9640 B(  2-C ,  3-C ) :   1.2561
B(  2-C ,  6-C ) :   1.0222 B(  3-C ,  4-C ) :   1.5449 B(  3-C ,  5-H ) :   0.9860
B(  4-C , 20-C ) :   1.1057 B(  6-C ,  7-H ) :   0.9383 B(  6-C ,  8-H ) :   0.9453
B(  6-C ,  9-C ) :   1.0783 B(  9-C , 10-H ) :   0.9584 B(  9-C , 11-H ) :   0.9616
B(  9-C , 12-C ) :   1.0768 B( 12-C , 13-H ) :   0.9766 B( 12-C , 14-H ) :   0.9767
B( 12-C , 15-H ) :   0.9753 B( 16-S , 17-C ) :   1.1623 B( 16-S , 20-C ) :   1.1154
B( 17-C , 18-C ) :   1.6043 B( 17-C , 33-H ) :   0.9653 B( 18-C , 19-C ) :   1.2130
B( 18-C , 21-H ) :   1.0012 B( 19-C , 20-C ) :   1.6083 B( 19-C , 22-C ) :   1.0460
B( 22-C , 23-H ) :   0.9273 B( 22-C , 24-H ) :   0.9379 B( 22-C , 25-C ) :   1.0544
B( 25-C , 26-H ) :   0.9596 B( 25-C , 27-H ) :   0.9506 B( 25-C , 28-C ) :   1.0734
B( 28-C , 29-H ) :   0.9758 B( 28-C , 30-H ) :   0.9751 B( 28-C , 31-H ) :   0.9759

Dispersion correction           -0.013746139
FINAL SINGLE POINT ENERGY     -1339.867355167052

DIPOLE MOMENT
-------------
                                X             Y             Z
Electronic contribution:     14.79963     -22.94844      -9.75736
Nuclear contribution   :    -15.02203      23.64371       9.75436
                        -----------------------------------------
Total Dipole Moment    :     -0.22241       0.69527      -0.00300
                        -----------------------------------------
Magnitude (a.u.)       :      0.72998
Magnitude (Debye)      :      1.85546

Rotational constants in cm-1:     0.017941     0.008581     0.006194
Rotational constants in MHz :   537.859854   257.252890   185.680435

                             ****ORCA TERMINATED NORMALLY****
TOTAL RUN TIME: 0 days 0 hours 0 minutes 29 seconds 523 msec
