                         Program Version 4.2.1 -  RELEASE  -
|  1> ! wB97X-D3 SP def2-SVP
|  2> %pal
|  3> nprocs 16
|  4> end
|  5>
|  6> * xyz 0 1
|  7> S 	 41.8603 	 9.04455 	 77.1044
|  8> C 	 41.5068 	 7.42934 	 77.6882
|  9> C 	 40.2031 	 7.22038 	 77.9679
| 10> C 	 39.4252 	 8.40354 	 77.8079
| 11> C 	 40.1224 	 9.46859 	 77.2323
| 12> H 	 38.3875 	 8.44984 	 78.0895
| 13> C 	 39.4814 	 5.90123 	 78.2954
| 14> H 	 40.1116 	 5.00885 	 78.04
| 15> H 	 38.5468 	 5.83781 	 77.6388
| 16> C 	 38.9434 	 5.76633 	 79.7566
| 17> H 	 38.5182 	 6.76471 	 79.9323
| 18> H 	 38.3369 	 4.87911 	 79.788
| 19> C 	 40.0338 	 5.47447 	 80.7496
| 20> H 	 40.7771 	 6.25666 	 80.8344
| 21> H 	 39.5927 	 5.40868 	 81.7738
| 22> H 	 40.5476 	 4.56975 	 80.6257
| 23> S 	 39.134 	 11.7752 	 78.4058
| 24> C 	 38.2631 	 12.8408 	 77.4305
| 25> C 	 38.1248 	 12.4282 	 76.1168
| 26> C 	 38.8037 	 11.2155 	 75.8528
| 27> C 	 39.4778 	 10.7523 	 76.9982
| 28> H 	 37.5898 	 13.0906 	 75.4627
| 29> C 	 38.7164 	 10.5831 	 74.4943
| 30> H 	 39.5241 	 9.91804 	 74.5434
| 31> H 	 38.9133 	 11.4256 	 73.7679
| 32> C 	 37.3754 	 9.86805 	 74.289
| 33> H 	 36.8962 	 9.41011 	 75.1389
| 34> H 	 37.5056 	 9.04004 	 73.558
| 35> C 	 36.2961 	 10.8363 	 73.7269
| 36> H 	 35.7991 	 11.3447 	 74.5378
| 37> H 	 35.3785 	 10.3543 	 73.2786
| 38> H 	 36.6133 	 11.526 	 72.9601
| 39> H 	 42.2138 	 6.6894 	 77.6422
| 40> H 	 37.679 	 13.7094 	 77.8391
| 41> *
| 42>
| 43>                          ****END OF INPUT****

CARTESIAN COORDINATES (ANGSTROEM)
---------------------------------
  S     41.860300    9.044550   77.104400
  C     41.506800    7.429340   77.688200
  C     40.203100    7.220380   77.967900
  C     39.425200    8.403540   77.807900
  C     40.122400    9.468590   77.232300
  H     38.387500    8.449840   78.089500
  C     39.481400    5.901230   78.295400
  H     40.111600    5.008850   78.040000
  H     38.546800    5.837810   77.638800
  C     38.943400    5.766330   79.756600
  H     38.518200    6.764710   79.932300
  H     38.336900    4.879110   79.788000
  C     40.033800    5.474470   80.749600
  H     40.777100    6.256660   80.834400
  H     39.592700    5.408680   81.773800
  H     40.547600    4.569750   80.625700
  S     39.134000   11.775200   78.405800
  C     38.263100   12.840800   77.430500
  C     38.124800   12.428200   76.116800
  C     38.803700   11.215500   75.852800
  C     39.477800   10.752300   76.998200
  H     37.589800   13.090600   75.462700
  C     38.716400   10.583100   74.494300
  H     39.524100    9.918040   74.543400
  H     38.913300   11.425600   73.767900
  C     37.375400    9.868050   74.289000
  H     36.896200    9.410110   75.138900
  H     37.505600    9.040040   73.558000
  C     36.296100   10.836300   73.726900
  H     35.799100   11.344700   74.537800
  H     35.378500   10.354300   73.278600
  H     36.613300   11.526000   72.960100
  H     42.213800    6.689400   77.642200
  H     37.679000   13.709400   77.839100

 Total Charge           Charge          ....    0
 Multiplicity           Mult            ....    1
 Number of Electrons    NEL             ....  134
 Basis Dimension        Dim             ....  322

ORBITAL ENERGIES
----------------

  NO   OCC          E(Eh)            E(eV)
   0   2.0000     -88.966803     -2420.9098
   1   2.0000     -88.964934     -2420.8589
   2   2.0000     -10.330897      -281.1180
   3   2.0000     -10.323045      -280.9043
   4   2.0000     -10.314005      -280.6583
   5   2.0000     -10.307368      -280.4777
   6   2.0000     -10.301849      -280.3276
   7   2.0000     -10.301568      -280.3199
   8   2.0000     -10.297790      -280.2171
   9   2.0000     -10.293439      -280.0987
  10   2.0000     -10.290693      -280.0240
  11   2.0000     -10.290268      -280.0124
  12   2.0000     -10.287964      -279.9497
  13   2.0000     -10.285900      -279.8936
  14   2.0000     -10.277779      -279.6726
  15   2.0000     -10.269417      -279.4450
  16   2.0000      -8.080749      -219.8884
  17   2.0000      -8.080501      -219.8816
  18   2.0000      -6.039365      -164.3395
  19   2.0000      -6.038733      -164.3223
  20   2.0000      -6.035418      -164.2321
  21   2.0000      -6.034894      -164.2178
  22   2.0000      -6.031509      -164.1257
  23   2.0000      -6.031399      -164.1227
  24   2.0000      -1.004368       -27.3302
  25   2.0000      -0.984574       -26.7916
  26   2.0000      -0.911634       -24.8068
  27   2.0000      -0.908567       -24.7234
  28   2.0000      -0.869344       -23.6561
  29   2.0000      -0.849041       -23.1036
  30   2.0000      -0.848102       -23.0780
  31   2.0000      -0.809041       -22.0151
  32   2.0000      -0.783058       -21.3081
  33   2.0000      -0.773164       -21.0389
  34   2.0000      -0.710170       -19.3247
  35   2.0000      -0.695623       -18.9289
  36   2.0000      -0.692003       -18.8304
  37   2.0000      -0.656222       -17.8567
  38   2.0000      -0.643384       -17.5074
  39   2.0000      -0.620703       -16.8902
  40   2.0000      -0.593823       -16.1587
  41   2.0000      -0.574137       -15.6231
  42   2.0000      -0.554992       -15.1021
  43   2.0000      -0.546041       -14.8585
  44   2.0000      -0.538638       -14.6571
  45   2.0000      -0.535298       -14.5662
  46   2.0000      -0.520302       -14.1581
  47   2.0000      -0.509898       -13.8750
  48   2.0000      -0.501947       -13.6587
  49   2.0000      -0.493372       -13.4253
  50   2.0000      -0.487671       -13.2702
  51   2.0000      -0.477077       -12.9819
  52   2.0000      -0.467976       -12.7343
  53   2.0000      -0.466497       -12.6940
  54   2.0000      -0.459022       -12.4906
  55   2.0000      -0.448143       -12.1946
  56   2.0000      -0.444394       -12.0926
  57   2.0000      -0.440781       -11.9943
  58   2.0000      -0.431203       -11.7336
  59   2.0000      -0.427381       -11.6296
  60   2.0000      -0.421069       -11.4579
  61   2.0000      -0.415026       -11.2934
  62   2.0000      -0.408560       -11.1175
  63   2.0000      -0.336158        -9.1473
  64   2.0000      -0.328010        -8.9256
  65   2.0000      -0.319210        -8.6862
  66   2.0000      -0.308475        -8.3940
  67   0.0000       0.045013         1.2249
  68   0.0000       0.051612         1.4044
  69   0.0000       0.112615         3.0644
  70   0.0000       0.117592         3.1998
  71   0.0000       0.130488         3.5508

MULLIKEN ATOMIC CHARGES
-----------------------
   0 S :    0.105701
   1 C :   -0.094202
   2 C :   -0.045773
   3 C :    0.023183
   4 C :   -0.170779
   5 H :    0.016753
   6 C :    0.005309
   7 H :    0.024705
   8 H :    0.046330
   9 C :   -0.041607
  10 H :    0.034985
  11 H :    0.033932
  12 C :   -0.047194
  13 H :    0.027778
  14 H :    0.029905
  15 H :    0.014359
  16 S :    0.127795
  17 C :   -0.109600
  18 C :   -0.045755
  19 C :   -0.042272
  20 C :   -0.196441
  21 H :    0.012380
  22 C :    0.121431
  23 H :    0.010404
  24 H :    0.048249
  25 C :   -0.047186
  26 H :    0.034115
  27 H :    0.038405
  28 C :   -0.085013
  29 H :    0.030205
  30 H :    0.028498
  31 H :    0.030677
  32 H :    0.009929
  33 H :    0.070794
Sum of atomic charges:   -0.0000000

LOEWDIN ATOMIC CHARGES
----------------------
   0 S :    0.384068
   1 C :   -0.173593
   2 C :   -0.070433
   3 C :   -0.049441
   4 C :   -0.193934
   5 H :    0.028448
   6 C :   -0.035173
   7 H :    0.027793
   8 H :    0.038244
   9 C :   -0.037269
  10 H :    0.029206
  11 H :    0.026935
  12 C :   -0.067135
  13 H :    0.022685
  14 H :    0.030855
  15 H :    0.015163
  16 S :    0.428645
  17 C :   -0.208829
  18 C :   -0.082692
  19 C :   -0.042085
  20 C :   -0.210627
  21 H :    0.029000
  22 C :   -0.024231
  23 H :    0.023424
  24 H :    0.043815
  25 C :   -0.033497
  26 H :    0.028538
  27 H :    0.028552
  28 C :   -0.076909
  29 H :    0.022258
  30 H :    0.031507
  31 H :    0.019513
  32 H :    0.008737
  33 H :    0.038461

  Mayer bond orders larger than 0.100000
B(  0-S ,  1-C ) :   1.1349 B(  0-S ,  4-C ) :   1.1220 B(  1-C ,  2-C ) :   1.6386
B(  1-C , 32-H ) :   0.9724 B(  2-C ,  3-C ) :   1.2266 B(  2-C ,  6-C ) :   1.0125
B(  3-C ,  4-C ) :   1.5952 B(  3-C ,  5-H ) :   0.9893 B(  4-C , 20-C ) :   1.0357
B(  6-C ,  7-H ) :   0.9458 B(  6-C ,  8-H ) :   0.9474 B(  6-C ,  9-C ) :   1.0621
B(  9-C , 10-H ) :   0.9552 B(  9-C , 11-H ) :   0.9543 B(  9-C , 12-C ) :   1.0901
B( 12-C , 13-H ) :   0.9748 B( 12-C , 14-H ) :   0.9713 B( 12-C , 15-H ) :   0.9734
B( 16-S , 17-C ) :   1.1869 B( 16-S , 20-C ) :   1.1469 B( 17-C , 18-C ) :   1.5965
B( 17-C , 33-H ) :   0.9545 B( 18-C , 19-C ) :   1.2530 B( 18-C , 21-H ) :   0.9918
B( 19-C , 20-C ) :   1.5803 B( 19-C , 22-C ) :   1.0324 B( 22-C , 23-H ) :   0.9180
B( 22-C , 24-H ) :   0.9424 B( 22-C , 25-C ) :   1.0521 B( 25-C , 26-H ) :   0.9576
B( 25-C , 27-H ) :   0.9616 B( 25-C , 28-C ) :   1.0704 B( 28-C , 29-H ) :   0.9734
B( 28-C , 30-H ) :   0.9704 B( 28-C , 31-H ) :   0.9786

Dispersion correction           -0.014607240
FINAL SINGLE POINT ENERGY     -1339.870201087773

DIPOLE MOMENT
-------------
                                X             Y             Z
Electronic contribution:     14.48905      14.81051       3.96827
Nuclear contribution   :    -15.05632     -15.16215      -4.10331
                        -----------------------------------------
Total Dipole Moment    :     -0.56727      -0.35163      -0.13504
                        -----------------------------------------
Magnitude (a.u.)       :      0.68094
Magnitude (Debye)      :      1.73080

Rotational constants in cm-1:     0.020025     0.007736     0.007185
Rotational constants in MHz :   600.329246   231.905945   215.404847

                             ****ORCA TERMINATED NORMALLY****
TOTAL RUN TIME: 0 days 0 hours 0 minutes 30 seconds 55 msec
