                         Program Version 4.2.1 -  RELEASE  -
|  1> ! wB97X-D3 SP def2-SVP
|  2> %pal
|  3> nprocs 16
|  4> end
|  5>
|  6> * xyz 0 1
|  7> S 	 46.6496 	 15.4856 	 81.0157
|  8> C 	 46.6694 	 17.263 	 80.9529
|  9> C 	 47.4702 	 17.7665 	 81.9704
| 10> C 	 47.9238 	 16.7386 	 82.8958
| 11> C 	 47.6832 	 15.4512 	 82.4494
| 12> H 	 48.4704 	 16.7845 	 83.8077
| 13> C 	 47.5731 	 19.2787 	 82.3186
| 14> H 	 46.681 	 19.8306 	 81.9519
| 15> H 	 48.4028 	 19.6652 	 81.7357
| 16> C 	 47.7418 	 19.761 	 83.7575
| 17> H 	 48.6608 	 19.5383 	 84.2566
| 18> H 	 47.769 	 20.7939 	 83.6882
| 19> C 	 46.6371 	 19.4068 	 84.7721
| 20> H 	 45.7179 	 19.9092 	 84.5716
| 21> H 	 46.3184 	 18.3835 	 84.9156
| 22> H 	 46.879 	 19.9219 	 85.7586
| 23> S 	 46.5931 	 13.5565 	 84.2581
| 24> C 	 47.7981 	 12.6713 	 85.1794
| 25> C 	 49.0748 	 13.0379 	 84.8799
| 26> C 	 49.197 	 13.9039 	 83.7934
| 27> C 	 47.9706 	 14.2663 	 83.2442
| 28> H 	 49.8319 	 12.6745 	 85.57
| 29> C 	 50.5239 	 14.4224 	 83.1872
| 30> H 	 50.3661 	 15.4213 	 82.7969
| 31> H 	 50.6683 	 13.85 	 82.2736
| 32> C 	 51.6818 	 14.4967 	 84.3004
| 33> H 	 52.7306 	 14.6688 	 83.8639
| 34> H 	 51.7043 	 13.5472 	 84.8273
| 35> C 	 51.5254 	 15.6341 	 85.3851
| 36> H 	 51.9666 	 15.5144 	 86.376
| 37> H 	 50.4995 	 15.9369 	 85.54
| 38> H 	 51.9726 	 16.4267 	 84.826
| 39> H 	 46.1385 	 17.8307 	 80.1907
| 40> H 	 47.3868 	 12.0456 	 85.9545
| 41> *
| 42>
| 43>                          ****END OF INPUT****

CARTESIAN COORDINATES (ANGSTROEM)
---------------------------------
  S     46.649600   15.485600   81.015700
  C     46.669400   17.263000   80.952900
  C     47.470200   17.766500   81.970400
  C     47.923800   16.738600   82.895800
  C     47.683200   15.451200   82.449400
  H     48.470400   16.784500   83.807700
  C     47.573100   19.278700   82.318600
  H     46.681000   19.830600   81.951900
  H     48.402800   19.665200   81.735700
  C     47.741800   19.761000   83.757500
  H     48.660800   19.538300   84.256600
  H     47.769000   20.793900   83.688200
  C     46.637100   19.406800   84.772100
  H     45.717900   19.909200   84.571600
  H     46.318400   18.383500   84.915600
  H     46.879000   19.921900   85.758600
  S     46.593100   13.556500   84.258100
  C     47.798100   12.671300   85.179400
  C     49.074800   13.037900   84.879900
  C     49.197000   13.903900   83.793400
  C     47.970600   14.266300   83.244200
  H     49.831900   12.674500   85.570000
  C     50.523900   14.422400   83.187200
  H     50.366100   15.421300   82.796900
  H     50.668300   13.850000   82.273600
  C     51.681800   14.496700   84.300400
  H     52.730600   14.668800   83.863900
  H     51.704300   13.547200   84.827300
  C     51.525400   15.634100   85.385100
  H     51.966600   15.514400   86.376000
  H     50.499500   15.936900   85.540000
  H     51.972600   16.426700   84.826000
  H     46.138500   17.830700   80.190700
  H     47.386800   12.045600   85.954500

 Total Charge           Charge          ....    0
 Multiplicity           Mult            ....    1
 Number of Electrons    NEL             ....  134
 Basis Dimension        Dim             ....  322

ORBITAL ENERGIES
----------------

  NO   OCC          E(Eh)            E(eV)
   0   2.0000     -88.963441     -2420.8183
   1   2.0000     -88.961246     -2420.7586
   2   2.0000     -10.328177      -281.0440
   3   2.0000     -10.327091      -281.0144
   4   2.0000     -10.319932      -280.8196
   5   2.0000     -10.319362      -280.8041
   6   2.0000     -10.309174      -280.5269
   7   2.0000     -10.308388      -280.5055
   8   2.0000     -10.302724      -280.3514
   9   2.0000     -10.300604      -280.2937
  10   2.0000     -10.296931      -280.1937
  11   2.0000     -10.294611      -280.1306
  12   2.0000     -10.293080      -280.0889
  13   2.0000     -10.282220      -279.7934
  14   2.0000     -10.279219      -279.7118
  15   2.0000     -10.275654      -279.6148
  16   2.0000      -8.077474      -219.7992
  17   2.0000      -8.075108      -219.7349
  18   2.0000      -6.036026      -164.2486
  19   2.0000      -6.033444      -164.1784
  20   2.0000      -6.032019      -164.1396
  21   2.0000      -6.029959      -164.0835
  22   2.0000      -6.028295      -164.0383
  23   2.0000      -6.025873      -163.9723
  24   2.0000      -0.999135       -27.1878
  25   2.0000      -0.977143       -26.5894
  26   2.0000      -0.907564       -24.6961
  27   2.0000      -0.897919       -24.4336
  28   2.0000      -0.870291       -23.6818
  29   2.0000      -0.846291       -23.0288
  30   2.0000      -0.839660       -22.8483
  31   2.0000      -0.812624       -22.1126
  32   2.0000      -0.786000       -21.3881
  33   2.0000      -0.774018       -21.0621
  34   2.0000      -0.708496       -19.2792
  35   2.0000      -0.702064       -19.1041
  36   2.0000      -0.695669       -18.9301
  37   2.0000      -0.649440       -17.6722
  38   2.0000      -0.645467       -17.5640
  39   2.0000      -0.615211       -16.7407
  40   2.0000      -0.602671       -16.3995
  41   2.0000      -0.564106       -15.3501
  42   2.0000      -0.550885       -14.9903
  43   2.0000      -0.549790       -14.9605
  44   2.0000      -0.539478       -14.6799
  45   2.0000      -0.536402       -14.5962
  46   2.0000      -0.519709       -14.1420
  47   2.0000      -0.512059       -13.9338
  48   2.0000      -0.498275       -13.5588
  49   2.0000      -0.492086       -13.3903
  50   2.0000      -0.485308       -13.2059
  51   2.0000      -0.480686       -13.0801
  52   2.0000      -0.468768       -12.7558
  53   2.0000      -0.461585       -12.5604
  54   2.0000      -0.455044       -12.3824
  55   2.0000      -0.447798       -12.1852
  56   2.0000      -0.444666       -12.1000
  57   2.0000      -0.441894       -12.0246
  58   2.0000      -0.431863       -11.7516
  59   2.0000      -0.420027       -11.4295
  60   2.0000      -0.417085       -11.3494
  61   2.0000      -0.413802       -11.2601
  62   2.0000      -0.412853       -11.2343
  63   2.0000      -0.337881        -9.1942
  64   2.0000      -0.332225        -9.0403
  65   2.0000      -0.325327        -8.8526
  66   2.0000      -0.298749        -8.1294
  67   0.0000       0.028514         0.7759
  68   0.0000       0.056477         1.5368
  69   0.0000       0.106839         2.9072
  70   0.0000       0.122219         3.3257
  71   0.0000       0.129223         3.5163

MULLIKEN ATOMIC CHARGES
-----------------------
   0 S :    0.096950
   1 C :   -0.138083
   2 C :   -0.051871
   3 C :    0.045353
   4 C :   -0.191532
   5 H :    0.005754
   6 C :    0.047829
   7 H :    0.029457
   8 H :    0.037425
   9 C :   -0.027093
  10 H :    0.019384
  11 H :    0.009438
  12 C :   -0.070089
  13 H :    0.008656
  14 H :    0.046500
  15 H :    0.031309
  16 S :    0.077105
  17 C :   -0.100193
  18 C :   -0.032539
  19 C :   -0.055656
  20 C :   -0.129326
  21 H :    0.025787
  22 C :    0.106109
  23 H :    0.022428
  24 H :    0.053470
  25 C :   -0.118873
  26 H :    0.048096
  27 H :    0.032452
  28 C :   -0.058633
  29 H :    0.048743
  30 H :    0.033641
  31 H :    0.026920
  32 H :    0.059791
  33 H :    0.061290
Sum of atomic charges:   -0.0000000

LOEWDIN ATOMIC CHARGES
----------------------
   0 S :    0.383532
   1 C :   -0.186121
   2 C :   -0.062845
   3 C :   -0.052979
   4 C :   -0.197636
   5 H :    0.028048
   6 C :   -0.032628
   7 H :    0.034528
   8 H :    0.034335
   9 C :   -0.040407
  10 H :    0.020147
  11 H :    0.023360
  12 C :   -0.072095
  13 H :    0.017607
  14 H :    0.025573
  15 H :    0.035368
  16 S :    0.358294
  17 C :   -0.161225
  18 C :   -0.083392
  19 C :   -0.046364
  20 C :   -0.178519
  21 H :    0.036613
  22 C :   -0.023931
  23 H :    0.028317
  24 H :    0.041578
  25 C :   -0.041394
  26 H :    0.033215
  27 H :    0.014526
  28 C :   -0.070487
  29 H :    0.031117
  30 H :    0.021622
  31 H :    0.025018
  32 H :    0.031687
  33 H :    0.025539

  Mayer bond orders larger than 0.100000
B(  0-S ,  1-C ) :   1.1365 B(  0-S ,  4-C ) :   1.1371 B(  1-C ,  2-C ) :   1.6150
B(  1-C , 32-H ) :   0.9726 B(  2-C ,  3-C ) :   1.2127 B(  2-C ,  6-C ) :   1.0053
B(  3-C ,  4-C ) :   1.5911 B(  3-C ,  5-H ) :   0.9926 B(  4-C , 20-C ) :   1.0298
B(  6-C ,  7-H ) :   0.9530 B(  6-C ,  8-H ) :   0.9302 B(  6-C ,  9-C ) :   1.0896
B(  9-C , 10-H ) :   0.9512 B(  9-C , 11-H ) :   0.9435 B(  9-C , 12-C ) :   1.0769
B( 12-C , 13-H ) :   0.9723 B( 12-C , 14-H ) :   0.9789 B( 12-C , 15-H ) :   0.9720
B( 16-S , 17-C ) :   1.1695 B( 16-S , 20-C ) :   1.1208 B( 17-C , 18-C ) :   1.5967
B( 17-C , 20-C ) :   0.1033 B( 17-C , 33-H ) :   0.9676 B( 18-C , 19-C ) :   1.2370
B( 18-C , 21-H ) :   0.9961 B( 19-C , 20-C ) :   1.6014 B( 19-C , 22-C ) :   1.0072
B( 22-C , 23-H ) :   0.9354 B( 22-C , 24-H ) :   0.9412 B( 22-C , 25-C ) :   1.0439
B( 25-C , 26-H ) :   0.9683 B( 25-C , 27-H ) :   0.9630 B( 25-C , 28-C ) :   1.0433
B( 28-C , 29-H ) :   0.9773 B( 28-C , 30-H ) :   0.9797 B( 28-C , 31-H ) :   0.9819

Dispersion correction           -0.015113527
FINAL SINGLE POINT ENERGY     -1339.853254414253

DIPOLE MOMENT
-------------
                                X             Y             Z
Electronic contribution:    -15.35947     -18.65093     -11.89292
Nuclear contribution   :     15.80174      19.21223      12.32103
                        -----------------------------------------
Total Dipole Moment    :      0.44227       0.56129       0.42810
                        -----------------------------------------
Magnitude (a.u.)       :      0.83302
Magnitude (Debye)      :      2.11738

Rotational constants in cm-1:     0.016266     0.009701     0.007982
Rotational constants in MHz :   487.629361   290.822521   239.296291

                             ****ORCA TERMINATED NORMALLY****
TOTAL RUN TIME: 0 days 0 hours 0 minutes 30 seconds 915 msec
