                         Program Version 4.2.1 -  RELEASE  -
|  1> ! wB97X-D3 SP def2-SVP
|  2> %pal
|  3> nprocs 16
|  4> end
|  5>
|  6> * xyz 0 1
|  7> S 	 -100.237 	 42.4511 	 123.297
|  8> C 	 -100.532 	 42.0361 	 124.987
|  9> C 	 -99.3022 	 41.8388 	 125.614
| 10> C 	 -98.1778 	 41.8866 	 124.703
| 11> C 	 -98.5386 	 42.1307 	 123.4
| 12> H 	 -97.1542 	 41.7311 	 124.915
| 13> C 	 -99.1374 	 41.4751 	 127.113
| 14> H 	 -100.112 	 41.6305 	 127.541
| 15> H 	 -98.4311 	 42.2246 	 127.575
| 16> C 	 -98.6217 	 40.0329 	 127.358
| 17> H 	 -97.5931 	 40.0825 	 126.951
| 18> H 	 -98.5255 	 39.7235 	 128.432
| 19> C 	 -99.569 	 38.9601 	 126.642
| 20> H 	 -99.284 	 37.9277 	 126.828
| 21> H 	 -100.588 	 38.9712 	 127.069
| 22> H 	 -99.6858 	 39.1795 	 125.553
| 23> S 	 -96.3966 	 40.8623 	 122.298
| 24> C 	 -95.7718 	 41.3772 	 120.716
| 25> C 	 -96.4261 	 42.5005 	 120.276
| 26> C 	 -97.5638 	 42.8581 	 121.074
| 27> C 	 -97.6775 	 42.0659 	 122.227
| 28> H 	 -95.9786 	 43.0678 	 119.492
| 29> C 	 -98.2988 	 44.1653 	 120.838
| 30> H 	 -99.02 	 44.5695 	 121.625
| 31> H 	 -98.8674 	 44.044 	 119.92
| 32> C 	 -97.3566 	 45.3863 	 120.51
| 33> H 	 -97.9499 	 46.3793 	 120.669
| 34> H 	 -97.1298 	 45.3015 	 119.441
| 35> C 	 -96.0636 	 45.5674 	 121.349
| 36> H 	 -96.2672 	 45.2765 	 122.362
| 37> H 	 -95.6659 	 46.5304 	 121.198
| 38> H 	 -95.3132 	 44.7845 	 121.052
| 39> H 	 -101.539 	 42.0187 	 125.392
| 40> H 	 -94.7518 	 41.1309 	 120.276
| 41> *
| 42>
| 43>                          ****END OF INPUT****

CARTESIAN COORDINATES (ANGSTROEM)
---------------------------------
  S    -100.237000   42.451100  123.297000
  C    -100.532000   42.036100  124.987000
  C    -99.302200   41.838800  125.614000
  C    -98.177800   41.886600  124.703000
  C    -98.538600   42.130700  123.400000
  H    -97.154200   41.731100  124.915000
  C    -99.137400   41.475100  127.113000
  H    -100.112000   41.630500  127.541000
  H    -98.431100   42.224600  127.575000
  C    -98.621700   40.032900  127.358000
  H    -97.593100   40.082500  126.951000
  H    -98.525500   39.723500  128.432000
  C    -99.569000   38.960100  126.642000
  H    -99.284000   37.927700  126.828000
  H    -100.588000   38.971200  127.069000
  H    -99.685800   39.179500  125.553000
  S    -96.396600   40.862300  122.298000
  C    -95.771800   41.377200  120.716000
  C    -96.426100   42.500500  120.276000
  C    -97.563800   42.858100  121.074000
  C    -97.677500   42.065900  122.227000
  H    -95.978600   43.067800  119.492000
  C    -98.298800   44.165300  120.838000
  H    -99.020000   44.569500  121.625000
  H    -98.867400   44.044000  119.920000
  C    -97.356600   45.386300  120.510000
  H    -97.949900   46.379300  120.669000
  H    -97.129800   45.301500  119.441000
  C    -96.063600   45.567400  121.349000
  H    -96.267200   45.276500  122.362000
  H    -95.665900   46.530400  121.198000
  H    -95.313200   44.784500  121.052000
  H    -101.539000   42.018700  125.392000
  H    -94.751800   41.130900  120.276000

 Total Charge           Charge          ....    0
 Multiplicity           Mult            ....    1
 Number of Electrons    NEL             ....  134
 Basis Dimension        Dim             ....  322

ORBITAL ENERGIES
----------------

  NO   OCC          E(Eh)            E(eV)
   0   2.0000     -88.969581     -2420.9854
   1   2.0000     -88.964965     -2420.8598
   2   2.0000     -10.333925      -281.2004
   3   2.0000     -10.331193      -281.1261
   4   2.0000     -10.324216      -280.9362
   5   2.0000     -10.319930      -280.8196
   6   2.0000     -10.310570      -280.5649
   7   2.0000     -10.309938      -280.5477
   8   2.0000     -10.298354      -280.2325
   9   2.0000     -10.297729      -280.2155
  10   2.0000     -10.297681      -280.2141
  11   2.0000     -10.297232      -280.2019
  12   2.0000     -10.295939      -280.1667
  13   2.0000     -10.293540      -280.1015
  14   2.0000     -10.280541      -279.7478
  15   2.0000     -10.273500      -279.5562
  16   2.0000      -8.083489      -219.9629
  17   2.0000      -8.079760      -219.8614
  18   2.0000      -6.042158      -164.4155
  19   2.0000      -6.038305      -164.3106
  20   2.0000      -6.038138      -164.3061
  21   2.0000      -6.034200      -164.1989
  22   2.0000      -6.034102      -164.1963
  23   2.0000      -6.030519      -164.0988
  24   2.0000      -1.007846       -27.4249
  25   2.0000      -0.983427       -26.7604
  26   2.0000      -0.903108       -24.5748
  27   2.0000      -0.901881       -24.5414
  28   2.0000      -0.870609       -23.6905
  29   2.0000      -0.844544       -22.9812
  30   2.0000      -0.835525       -22.7358
  31   2.0000      -0.815742       -22.1975
  32   2.0000      -0.783435       -21.3184
  33   2.0000      -0.771688       -20.9987
  34   2.0000      -0.709138       -19.2966
  35   2.0000      -0.694905       -18.9093
  36   2.0000      -0.681289       -18.5388
  37   2.0000      -0.665039       -18.0966
  38   2.0000      -0.640581       -17.4311
  39   2.0000      -0.617067       -16.7913
  40   2.0000      -0.591903       -16.1065
  41   2.0000      -0.564170       -15.3519
  42   2.0000      -0.554974       -15.1016
  43   2.0000      -0.543830       -14.7984
  44   2.0000      -0.543591       -14.7919
  45   2.0000      -0.537772       -14.6335
  46   2.0000      -0.518575       -14.1111
  47   2.0000      -0.512665       -13.9503
  48   2.0000      -0.497811       -13.5461
  49   2.0000      -0.492394       -13.3987
  50   2.0000      -0.488412       -13.2904
  51   2.0000      -0.475794       -12.9470
  52   2.0000      -0.469702       -12.7812
  53   2.0000      -0.461514       -12.5584
  54   2.0000      -0.460903       -12.5418
  55   2.0000      -0.445751       -12.1295
  56   2.0000      -0.442568       -12.0429
  57   2.0000      -0.437375       -11.9016
  58   2.0000      -0.434524       -11.8240
  59   2.0000      -0.421814       -11.4781
  60   2.0000      -0.415834       -11.3154
  61   2.0000      -0.410221       -11.1627
  62   2.0000      -0.406584       -11.0637
  63   2.0000      -0.356843        -9.7102
  64   2.0000      -0.332333        -9.0432
  65   2.0000      -0.329931        -8.9779
  66   2.0000      -0.290157        -7.8956
  67   0.0000       0.021551         0.5864
  68   0.0000       0.075496         2.0544
  69   0.0000       0.096588         2.6283
  70   0.0000       0.123831         3.3696
  71   0.0000       0.128125         3.4864

MULLIKEN ATOMIC CHARGES
-----------------------
   0 S :    0.104117
   1 C :   -0.140104
   2 C :   -0.091913
   3 C :    0.008465
   4 C :   -0.121457
   5 H :    0.002314
   6 C :    0.068976
   7 H :    0.011886
   8 H :    0.048194
   9 C :   -0.088597
  10 H :    0.036936
  11 H :    0.046361
  12 C :   -0.082907
  13 H :    0.034891
  14 H :    0.024638
  15 H :    0.063819
  16 S :    0.094825
  17 C :   -0.107414
  18 C :   -0.043102
  19 C :   -0.024529
  20 C :   -0.138818
  21 H :    0.022962
  22 C :    0.050622
  23 H :    0.052401
  24 H :    0.037610
  25 C :   -0.178271
  26 H :    0.047433
  27 H :    0.033307
  28 C :   -0.005236
  29 H :    0.030158
  30 H :    0.038483
  31 H :    0.022152
  32 H :    0.060114
  33 H :    0.081683
Sum of atomic charges:   -0.0000000

LOEWDIN ATOMIC CHARGES
----------------------
   0 S :    0.410233
   1 C :   -0.195171
   2 C :   -0.056575
   3 C :   -0.072174
   4 C :   -0.191799
   5 H :    0.020637
   6 C :   -0.032401
   7 H :    0.021342
   8 H :    0.038617
   9 C :   -0.044117
  10 H :    0.024521
  11 H :    0.030146
  12 C :   -0.075426
  13 H :    0.023866
  14 H :    0.025286
  15 H :    0.033693
  16 S :    0.397942
  17 C :   -0.194261
  18 C :   -0.064421
  19 C :   -0.060850
  20 C :   -0.186628
  21 H :    0.030293
  22 C :   -0.044697
  23 H :    0.035298
  24 H :    0.035521
  25 C :   -0.050518
  26 H :    0.035764
  27 H :    0.016715
  28 C :   -0.066402
  29 H :    0.026800
  30 H :    0.021241
  31 H :    0.028774
  32 H :    0.031482
  33 H :    0.047267

  Mayer bond orders larger than 0.100000
B(  0-S ,  1-C ) :   1.1348 B(  0-S ,  4-C ) :   1.1522 B(  1-C ,  2-C ) :   1.5965
B(  1-C , 32-H ) :   0.9748 B(  2-C ,  3-C ) :   1.2163 B(  2-C ,  6-C ) :   1.0202
B(  3-C ,  4-C ) :   1.5693 B(  3-C ,  5-H ) :   0.9990 B(  4-C , 20-C ) :   1.0516
B(  6-C ,  7-H ) :   0.9448 B(  6-C ,  8-H ) :   0.9449 B(  6-C ,  9-C ) :   1.0540
B(  9-C , 10-H ) :   0.9586 B(  9-C , 11-H ) :   0.9606 B(  9-C , 12-C ) :   1.0574
B( 12-C , 13-H ) :   0.9777 B( 12-C , 14-H ) :   0.9756 B( 12-C , 15-H ) :   0.9748
B( 16-S , 17-C ) :   1.1361 B( 16-S , 20-C ) :   1.1389 B( 17-C , 18-C ) :   1.6387
B( 17-C , 33-H ) :   0.9528 B( 18-C , 19-C ) :   1.2302 B( 18-C , 21-H ) :   0.9841
B( 19-C , 20-C ) :   1.5755 B( 19-C , 22-C ) :   1.0393 B( 22-C , 23-H ) :   0.9472
B( 22-C , 24-H ) :   0.9306 B( 22-C , 25-C ) :   1.0588 B( 25-C , 26-H ) :   0.9615
B( 25-C , 27-H ) :   0.9547 B( 25-C , 28-C ) :   1.0763 B( 28-C , 29-H ) :   0.9730
B( 28-C , 30-H ) :   0.9757 B( 28-C , 31-H ) :   0.9651

Dispersion correction           -0.015202570
FINAL SINGLE POINT ENERGY     -1339.876788269610

DIPOLE MOMENT
-------------
                                X             Y             Z
Electronic contribution:     -2.13869      -5.21097      -7.54112
Nuclear contribution   :      2.34538       5.50645       7.70264
                        -----------------------------------------
Total Dipole Moment    :      0.20668       0.29548       0.16152
                        -----------------------------------------
Magnitude (a.u.)       :      0.39511
Magnitude (Debye)      :      1.00430

Rotational constants in cm-1:     0.024183     0.008026     0.006956
Rotational constants in MHz :   725.000207   240.617401   208.523819

                             ****ORCA TERMINATED NORMALLY****
TOTAL RUN TIME: 0 days 0 hours 0 minutes 32 seconds 555 msec
