                         Program Version 4.2.1 -  RELEASE  -
|  1> ! wB97X-D3 SP def2-SVP
|  2> %pal
|  3> nprocs 16
|  4> end
|  5>
|  6> * xyz 0 1
|  7> S 	 -34.6887 	 73.9659 	 164.77
|  8> C 	 -34.45 	 73.5966 	 163.03
|  9> C 	 -34.8761 	 74.6283 	 162.246
| 10> C 	 -35.3307 	 75.7584 	 162.982
| 11> C 	 -35.2931 	 75.5694 	 164.402
| 12> H 	 -35.7191 	 76.6435 	 162.529
| 13> C 	 -34.7153 	 74.588 	 160.689
| 14> H 	 -35.6821 	 74.9403 	 160.256
| 15> H 	 -34.4729 	 73.5787 	 160.354
| 16> C 	 -33.6155 	 75.4666 	 160.136
| 17> H 	 -33.4635 	 75.3057 	 159.014
| 18> H 	 -34.1897 	 76.3945 	 160.24
| 19> C 	 -32.2979 	 75.4858 	 160.987
| 20> H 	 -32.5419 	 75.6604 	 162.06
| 21> H 	 -31.6101 	 74.5962 	 160.78
| 22> H 	 -31.6489 	 76.3343 	 160.668
| 23> S 	 -34.3178 	 77.3945 	 166.159
| 24> C 	 -35.4139 	 78.1369 	 167.286
| 25> C 	 -36.727 	 77.7008 	 167.167
| 26> C 	 -36.8267 	 76.7169 	 166.082
| 27> C 	 -35.6369 	 76.4722 	 165.475
| 28> H 	 -37.4944 	 77.9631 	 167.827
| 29> C 	 -38.2493 	 76.147 	 165.716
| 30> H 	 -38.2718 	 75.7807 	 164.678
| 31> H 	 -38.9945 	 76.8624 	 165.848
| 32> C 	 -38.6841 	 74.9903 	 166.614
| 33> H 	 -39.5142 	 74.4733 	 166.122
| 34> H 	 -39.1995 	 75.2237 	 167.548
| 35> C 	 -37.5807 	 73.9392 	 166.978
| 36> H 	 -37.9994 	 73.0571 	 167.447
| 37> H 	 -36.8194 	 74.4348 	 167.663
| 38> H 	 -37.1584 	 73.6202 	 166.025
| 39> H 	 -33.9506 	 72.7494 	 162.562
| 40> H 	 -35.1695 	 78.9025 	 168.043
| 41> *
| 42>
| 43>                          ****END OF INPUT****

CARTESIAN COORDINATES (ANGSTROEM)
---------------------------------
  S    -34.688700   73.965900  164.770000
  C    -34.450000   73.596600  163.030000
  C    -34.876100   74.628300  162.246000
  C    -35.330700   75.758400  162.982000
  C    -35.293100   75.569400  164.402000
  H    -35.719100   76.643500  162.529000
  C    -34.715300   74.588000  160.689000
  H    -35.682100   74.940300  160.256000
  H    -34.472900   73.578700  160.354000
  C    -33.615500   75.466600  160.136000
  H    -33.463500   75.305700  159.014000
  H    -34.189700   76.394500  160.240000
  C    -32.297900   75.485800  160.987000
  H    -32.541900   75.660400  162.060000
  H    -31.610100   74.596200  160.780000
  H    -31.648900   76.334300  160.668000
  S    -34.317800   77.394500  166.159000
  C    -35.413900   78.136900  167.286000
  C    -36.727000   77.700800  167.167000
  C    -36.826700   76.716900  166.082000
  C    -35.636900   76.472200  165.475000
  H    -37.494400   77.963100  167.827000
  C    -38.249300   76.147000  165.716000
  H    -38.271800   75.780700  164.678000
  H    -38.994500   76.862400  165.848000
  C    -38.684100   74.990300  166.614000
  H    -39.514200   74.473300  166.122000
  H    -39.199500   75.223700  167.548000
  C    -37.580700   73.939200  166.978000
  H    -37.999400   73.057100  167.447000
  H    -36.819400   74.434800  167.663000
  H    -37.158400   73.620200  166.025000
  H    -33.950600   72.749400  162.562000
  H    -35.169500   78.902500  168.043000

 Total Charge           Charge          ....    0
 Multiplicity           Mult            ....    1
 Number of Electrons    NEL             ....  134
 Basis Dimension        Dim             ....  322

ORBITAL ENERGIES
----------------

  NO   OCC          E(Eh)            E(eV)
   0   2.0000     -88.969817     -2420.9918
   1   2.0000     -88.967768     -2420.9360
   2   2.0000     -10.335476      -281.2426
   3   2.0000     -10.322694      -280.8948
   4   2.0000     -10.321418      -280.8601
   5   2.0000     -10.314936      -280.6837
   6   2.0000     -10.308346      -280.5044
   7   2.0000     -10.301322      -280.3132
   8   2.0000     -10.300617      -280.2940
   9   2.0000     -10.296181      -280.1733
  10   2.0000     -10.294370      -280.1241
  11   2.0000     -10.292455      -280.0719
  12   2.0000     -10.291835      -280.0551
  13   2.0000     -10.286813      -279.9184
  14   2.0000     -10.281444      -279.7723
  15   2.0000     -10.272728      -279.5351
  16   2.0000      -8.083036      -219.9506
  17   2.0000      -8.082803      -219.9443
  18   2.0000      -6.041600      -164.4003
  19   2.0000      -6.041341      -164.3933
  20   2.0000      -6.037581      -164.2909
  21   2.0000      -6.037330      -164.2841
  22   2.0000      -6.033956      -164.1923
  23   2.0000      -6.033443      -164.1783
  24   2.0000      -1.005215       -27.3533
  25   2.0000      -0.980240       -26.6737
  26   2.0000      -0.909701       -24.7542
  27   2.0000      -0.902298       -24.5528
  28   2.0000      -0.866994       -23.5921
  29   2.0000      -0.841184       -22.8898
  30   2.0000      -0.837456       -22.7883
  31   2.0000      -0.808679       -22.0053
  32   2.0000      -0.784504       -21.3474
  33   2.0000      -0.775704       -21.1080
  34   2.0000      -0.709221       -19.2989
  35   2.0000      -0.686673       -18.6853
  36   2.0000      -0.682207       -18.5638
  37   2.0000      -0.665453       -18.1079
  38   2.0000      -0.634058       -17.2536
  39   2.0000      -0.618164       -16.8211
  40   2.0000      -0.590767       -16.0756
  41   2.0000      -0.566171       -15.4063
  42   2.0000      -0.555133       -15.1059
  43   2.0000      -0.552671       -15.0389
  44   2.0000      -0.544428       -14.8146
  45   2.0000      -0.537387       -14.6230
  46   2.0000      -0.508020       -13.8239
  47   2.0000      -0.505245       -13.7484
  48   2.0000      -0.499008       -13.5787
  49   2.0000      -0.493768       -13.4361
  50   2.0000      -0.488575       -13.2948
  51   2.0000      -0.472938       -12.8693
  52   2.0000      -0.467793       -12.7293
  53   2.0000      -0.464086       -12.6284
  54   2.0000      -0.456027       -12.4091
  55   2.0000      -0.448111       -12.1937
  56   2.0000      -0.442845       -12.0504
  57   2.0000      -0.439812       -11.9679
  58   2.0000      -0.436677       -11.8826
  59   2.0000      -0.419430       -11.4133
  60   2.0000      -0.412422       -11.2226
  61   2.0000      -0.403487       -10.9794
  62   2.0000      -0.399730       -10.8772
  63   2.0000      -0.337250        -9.1770
  64   2.0000      -0.329017        -8.9530
  65   2.0000      -0.323048        -8.7906
  66   2.0000      -0.314574        -8.5600
  67   0.0000       0.040717         1.1080
  68   0.0000       0.053388         1.4528
  69   0.0000       0.114231         3.1084
  70   0.0000       0.115964         3.1555
  71   0.0000       0.123531         3.3614

MULLIKEN ATOMIC CHARGES
-----------------------
   0 S :    0.123469
   1 C :   -0.118541
   2 C :   -0.116475
   3 C :    0.063917
   4 C :   -0.188889
   5 H :    0.004997
   6 C :    0.077964
   7 H :    0.038164
   8 H :    0.015437
   9 C :   -0.111124
  10 H :    0.050376
  11 H :    0.022068
  12 C :   -0.083046
  13 H :    0.068194
  14 H :    0.044404
  15 H :    0.037020
  16 S :    0.129109
  17 C :   -0.090827
  18 C :   -0.017260
  19 C :   -0.034205
  20 C :   -0.200316
  21 H :    0.004454
  22 C :    0.149460
  23 H :    0.035091
  24 H :    0.010611
  25 C :   -0.121105
  26 H :    0.020316
  27 H :    0.018996
  28 C :   -0.062391
  29 H :    0.031067
  30 H :    0.057067
  31 H :    0.029364
  32 H :    0.047160
  33 H :    0.065473
Sum of atomic charges:    0.0000000

LOEWDIN ATOMIC CHARGES
----------------------
   0 S :    0.413671
   1 C :   -0.188718
   2 C :   -0.068847
   3 C :   -0.058066
   4 C :   -0.194486
   5 H :    0.027132
   6 C :   -0.028557
   7 H :    0.034266
   8 H :    0.021480
   9 C :   -0.055831
  10 H :    0.033967
  11 H :    0.022364
  12 C :   -0.080227
  13 H :    0.036387
  14 H :    0.032229
  15 H :    0.029374
  16 S :    0.415250
  17 C :   -0.185832
  18 C :   -0.065286
  19 C :   -0.040550
  20 C :   -0.219975
  21 H :    0.023221
  22 C :   -0.019000
  23 H :    0.035539
  24 H :    0.024770
  25 C :   -0.050235
  26 H :    0.023586
  27 H :    0.017272
  28 C :   -0.071732
  29 H :    0.023076
  30 H :    0.033394
  31 H :    0.011907
  32 H :    0.032703
  33 H :    0.035752

  Mayer bond orders larger than 0.100000
B(  0-S ,  1-C ) :   1.1299 B(  0-S ,  4-C ) :   1.1701 B(  1-C ,  2-C ) :   1.6259
B(  1-C ,  4-C ) :   0.1043 B(  1-C , 32-H ) :   0.9616 B(  2-C ,  3-C ) :   1.2405
B(  2-C ,  6-C ) :   1.0152 B(  3-C ,  4-C ) :   1.5586 B(  3-C ,  5-H ) :   0.9990
B(  4-C , 20-C ) :   1.0136 B(  6-C ,  7-H ) :   0.9499 B(  6-C ,  8-H ) :   0.9441
B(  6-C ,  9-C ) :   1.0470 B(  9-C , 10-H ) :   0.9582 B(  9-C , 11-H ) :   0.9616
B(  9-C , 12-C ) :   1.0737 B( 12-C , 13-H ) :   0.9645 B( 12-C , 14-H ) :   0.9751
B( 12-C , 15-H ) :   0.9745 B( 16-S , 17-C ) :   1.1522 B( 16-S , 20-C ) :   1.1321
B( 17-C , 18-C ) :   1.6358 B( 17-C , 33-H ) :   0.9613 B( 18-C , 19-C ) :   1.2016
B( 18-C , 21-H ) :   0.9971 B( 19-C , 20-C ) :   1.6575 B( 19-C , 22-C ) :   1.0437
B( 22-C , 23-H ) :   0.9344 B( 22-C , 24-H ) :   0.9345 B( 22-C , 25-C ) :   1.0639
B( 25-C , 26-H ) :   0.9552 B( 25-C , 27-H ) :   0.9572 B( 25-C , 28-C ) :   1.0805
B( 28-C , 29-H ) :   0.9724 B( 28-C , 30-H ) :   0.9695 B( 28-C , 31-H ) :   0.9725

Dispersion correction           -0.015949123
FINAL SINGLE POINT ENERGY     -1339.871405298409

DIPOLE MOMENT
-------------
                                X             Y             Z
Electronic contribution:      6.09609       4.86706      11.24952
Nuclear contribution   :     -6.44074      -4.71785     -11.48818
                        -----------------------------------------
Total Dipole Moment    :     -0.34465       0.14921      -0.23865
                        -----------------------------------------
Magnitude (a.u.)       :      0.44497
Magnitude (Debye)      :      1.13103

Rotational constants in cm-1:     0.022533     0.008644     0.007428
Rotational constants in MHz :   675.531816   259.131789   222.694312

                             ****ORCA TERMINATED NORMALLY****
TOTAL RUN TIME: 0 days 0 hours 0 minutes 35 seconds 828 msec
