                         Program Version 4.2.1 -  RELEASE  -
|  1> ! wB97X-D3 SP def2-SVP
|  2> %pal
|  3> nprocs 16
|  4> end
|  5>
|  6> * xyz 0 1
|  7> S 	 -48.5211 	 52.4471 	 99.8549
|  8> C 	 -46.9247 	 51.8169 	 100.268
|  9> C 	 -46.0604 	 52.0325 	 99.1784
| 10> C 	 -46.7647 	 52.7463 	 98.1039
| 11> C 	 -48.0714 	 53.061 	 98.3473
| 12> H 	 -46.2959 	 52.9317 	 97.0965
| 13> C 	 -44.5658 	 51.5602 	 98.9991
| 14> H 	 -44.4992 	 50.4553 	 98.9766
| 15> H 	 -44.0642 	 51.976 	 99.8327
| 16> C 	 -43.7842 	 52.2315 	 97.8667
| 17> H 	 -42.8152 	 51.7186 	 97.712
| 18> H 	 -44.3083 	 52.2251 	 96.8729
| 19> C 	 -43.5891 	 53.7196 	 98.2846
| 20> H 	 -44.4605 	 54.2835 	 98.1363
| 21> H 	 -43.2547 	 53.9417 	 99.3367
| 22> H 	 -42.8392 	 54.1652 	 97.6306
| 23> S 	 -50.414 	 52.3533 	 97.0309
| 24> C 	 -51.1824 	 53.5977 	 96.0738
| 25> C 	 -50.3124 	 54.595 	 95.8277
| 26> C 	 -49.0897 	 54.528 	 96.5299
| 27> C 	 -49.1125 	 53.4594 	 97.4131
| 28> H 	 -50.6965 	 55.3793 	 95.2514
| 29> C 	 -48.0286 	 55.5513 	 96.4649
| 30> H 	 -48.3494 	 56.2275 	 95.629
| 31> H 	 -47.0674 	 55.1 	 96.2864
| 32> C 	 -47.9404 	 56.4283 	 97.7566
| 33> H 	 -47.3943 	 55.7847 	 98.4583
| 34> H 	 -48.9962 	 56.5753 	 98.0736
| 35> C 	 -47.2496 	 57.7968 	 97.4827
| 36> H 	 -47.2913 	 58.2951 	 98.4193
| 37> H 	 -47.8079 	 58.4296 	 96.7359
| 38> H 	 -46.2098 	 57.8021 	 97.2346
| 39> H 	 -46.6541 	 51.3106 	 101.244
| 40> H 	 -52.0681 	 53.4025 	 95.5664
| 41> *
| 42>
| 43>                          ****END OF INPUT****

CARTESIAN COORDINATES (ANGSTROEM)
---------------------------------
  S    -48.521100   52.447100   99.854900
  C    -46.924700   51.816900  100.268000
  C    -46.060400   52.032500   99.178400
  C    -46.764700   52.746300   98.103900
  C    -48.071400   53.061000   98.347300
  H    -46.295900   52.931700   97.096500
  C    -44.565800   51.560200   98.999100
  H    -44.499200   50.455300   98.976600
  H    -44.064200   51.976000   99.832700
  C    -43.784200   52.231500   97.866700
  H    -42.815200   51.718600   97.712000
  H    -44.308300   52.225100   96.872900
  C    -43.589100   53.719600   98.284600
  H    -44.460500   54.283500   98.136300
  H    -43.254700   53.941700   99.336700
  H    -42.839200   54.165200   97.630600
  S    -50.414000   52.353300   97.030900
  C    -51.182400   53.597700   96.073800
  C    -50.312400   54.595000   95.827700
  C    -49.089700   54.528000   96.529900
  C    -49.112500   53.459400   97.413100
  H    -50.696500   55.379300   95.251400
  C    -48.028600   55.551300   96.464900
  H    -48.349400   56.227500   95.629000
  H    -47.067400   55.100000   96.286400
  C    -47.940400   56.428300   97.756600
  H    -47.394300   55.784700   98.458300
  H    -48.996200   56.575300   98.073600
  C    -47.249600   57.796800   97.482700
  H    -47.291300   58.295100   98.419300
  H    -47.807900   58.429600   96.735900
  H    -46.209800   57.802100   97.234600
  H    -46.654100   51.310600  101.244000
  H    -52.068100   53.402500   95.566400

 Total Charge           Charge          ....    0
 Multiplicity           Mult            ....    1
 Number of Electrons    NEL             ....  134
 Basis Dimension        Dim             ....  322

ORBITAL ENERGIES
----------------

  NO   OCC          E(Eh)            E(eV)
   0   2.0000     -88.963515     -2420.8203
   1   2.0000     -88.961655     -2420.7697
   2   2.0000     -10.323833      -280.9258
   3   2.0000     -10.323289      -280.9110
   4   2.0000     -10.322474      -280.8888
   5   2.0000     -10.312763      -280.6245
   6   2.0000     -10.306043      -280.4417
   7   2.0000     -10.298021      -280.2234
   8   2.0000     -10.297589      -280.2116
   9   2.0000     -10.296527      -280.1827
  10   2.0000     -10.296041      -280.1695
  11   2.0000     -10.289281      -279.9856
  12   2.0000     -10.287497      -279.9370
  13   2.0000     -10.284050      -279.8432
  14   2.0000     -10.277902      -279.6759
  15   2.0000     -10.277200      -279.6568
  16   2.0000      -8.079085      -219.8431
  17   2.0000      -8.076736      -219.7792
  18   2.0000      -6.037590      -164.2912
  19   2.0000      -6.035168      -164.2253
  20   2.0000      -6.033221      -164.1723
  21   2.0000      -6.031356      -164.1215
  22   2.0000      -6.030022      -164.0852
  23   2.0000      -6.027391      -164.0137
  24   2.0000      -1.012730       -27.5578
  25   2.0000      -0.987316       -26.8662
  26   2.0000      -0.913053       -24.8454
  27   2.0000      -0.907577       -24.6964
  28   2.0000      -0.870681       -23.6924
  29   2.0000      -0.848842       -23.0982
  30   2.0000      -0.835180       -22.7264
  31   2.0000      -0.815431       -22.1890
  32   2.0000      -0.784102       -21.3365
  33   2.0000      -0.773180       -21.0393
  34   2.0000      -0.711094       -19.3499
  35   2.0000      -0.698329       -19.0025
  36   2.0000      -0.688070       -18.7233
  37   2.0000      -0.661259       -17.9938
  38   2.0000      -0.637325       -17.3425
  39   2.0000      -0.622134       -16.9291
  40   2.0000      -0.598983       -16.2992
  41   2.0000      -0.570225       -15.5166
  42   2.0000      -0.563151       -15.3241
  43   2.0000      -0.558984       -15.2107
  44   2.0000      -0.531377       -14.4595
  45   2.0000      -0.522471       -14.2172
  46   2.0000      -0.519369       -14.1328
  47   2.0000      -0.510064       -13.8796
  48   2.0000      -0.499988       -13.6054
  49   2.0000      -0.494802       -13.4642
  50   2.0000      -0.491019       -13.3613
  51   2.0000      -0.484692       -13.1891
  52   2.0000      -0.470585       -12.8053
  53   2.0000      -0.466975       -12.7070
  54   2.0000      -0.457424       -12.4471
  55   2.0000      -0.445836       -12.1318
  56   2.0000      -0.441886       -12.0243
  57   2.0000      -0.438191       -11.9238
  58   2.0000      -0.429534       -11.6882
  59   2.0000      -0.426010       -11.5923
  60   2.0000      -0.423902       -11.5350
  61   2.0000      -0.417110       -11.3501
  62   2.0000      -0.410643       -11.1742
  63   2.0000      -0.347491        -9.4557
  64   2.0000      -0.329650        -8.9702
  65   2.0000      -0.324549        -8.8314
  66   2.0000      -0.293993        -8.0000
  67   0.0000       0.030258         0.8234
  68   0.0000       0.069250         1.8844
  69   0.0000       0.112849         3.0708
  70   0.0000       0.121455         3.3050
  71   0.0000       0.127913         3.4807

MULLIKEN ATOMIC CHARGES
-----------------------
   0 S :    0.106417
   1 C :   -0.155841
   2 C :   -0.120979
   3 C :    0.005423
   4 C :   -0.163413
   5 H :    0.030866
   6 C :    0.096633
   7 H :    0.054647
   8 H :    0.020491
   9 C :   -0.104057
  10 H :    0.041729
  11 H :    0.041530
  12 C :   -0.070811
  13 H :    0.026037
  14 H :    0.040540
  15 H :    0.028960
  16 S :    0.107534
  17 C :   -0.066495
  18 C :   -0.026105
  19 C :   -0.024433
  20 C :   -0.146728
  21 H :   -0.001700
  22 C :    0.079685
  23 H :    0.017621
  24 H :    0.022377
  25 C :   -0.104693
  26 H :    0.052514
  27 H :    0.043075
  28 C :   -0.032203
  29 H :    0.026248
  30 H :    0.037251
  31 H :    0.028687
  32 H :    0.076468
  33 H :    0.032724
Sum of atomic charges:   -0.0000000

LOEWDIN ATOMIC CHARGES
----------------------
   0 S :    0.432171
   1 C :   -0.210529
   2 C :   -0.059841
   3 C :   -0.077801
   4 C :   -0.221978
   5 H :    0.035388
   6 C :   -0.030318
   7 H :    0.034985
   8 H :    0.027525
   9 C :   -0.043124
  10 H :    0.030532
  11 H :    0.026756
  12 C :   -0.068188
  13 H :    0.016141
  14 H :    0.031432
  15 H :    0.025374
  16 S :    0.402224
  17 C :   -0.170180
  18 C :   -0.066614
  19 C :   -0.057977
  20 C :   -0.197736
  21 H :    0.024418
  22 C :   -0.035421
  23 H :    0.032739
  24 H :    0.025303
  25 C :   -0.033150
  26 H :    0.027541
  27 H :    0.030480
  28 C :   -0.067833
  29 H :    0.024473
  30 H :    0.030778
  31 H :    0.021810
  32 H :    0.044712
  33 H :    0.015909

  Mayer bond orders larger than 0.100000
B(  0-S ,  1-C ) :   1.1462 B(  0-S ,  4-C ) :   1.1676 B(  1-C ,  2-C ) :   1.6031
B(  1-C , 32-H ) :   0.9678 B(  2-C ,  3-C ) :   1.2680 B(  2-C ,  6-C ) :   0.9814
B(  3-C ,  4-C ) :   1.5576 B(  3-C ,  5-H ) :   0.9728 B(  4-C , 20-C ) :   1.0313
B(  6-C ,  7-H ) :   0.9450 B(  6-C ,  8-H ) :   0.9443 B(  6-C ,  9-C ) :   1.0811
B(  9-C , 10-H ) :   0.9559 B(  9-C , 11-H ) :   0.9488 B(  9-C , 12-C ) :   1.0672
B( 12-C , 13-H ) :   0.9764 B( 12-C , 14-H ) :   0.9751 B( 12-C , 15-H ) :   0.9732
B( 16-S , 17-C ) :   1.1431 B( 16-S , 20-C ) :   1.1585 B( 17-C , 18-C ) :   1.6210
B( 17-C , 33-H ) :   0.9743 B( 18-C , 19-C ) :   1.2318 B( 18-C , 21-H ) :   1.0003
B( 19-C , 20-C ) :   1.5684 B( 19-C , 22-C ) :   1.0668 B( 22-C , 23-H ) :   0.9340
B( 22-C , 24-H ) :   0.9190 B( 22-C , 25-C ) :   1.0584 B( 25-C , 26-H ) :   0.9501
B( 25-C , 27-H ) :   0.9591 B( 25-C , 28-C ) :   1.0852 B( 28-C , 29-H ) :   0.9731
B( 28-C , 30-H ) :   0.9739 B( 28-C , 31-H ) :   0.9742

Dispersion correction           -0.015112601
FINAL SINGLE POINT ENERGY     -1339.865864592826

DIPOLE MOMENT
-------------
                                X             Y             Z
Electronic contribution:    -23.50389     -16.05584       3.72395
Nuclear contribution   :     24.06225      16.27431      -3.98035
                        -----------------------------------------
Total Dipole Moment    :      0.55837       0.21847      -0.25640
                        -----------------------------------------
Magnitude (a.u.)       :      0.65211
Magnitude (Debye)      :      1.65752

Rotational constants in cm-1:     0.017149     0.010217     0.007690
Rotational constants in MHz :   514.127210   306.307207   230.551553

                             ****ORCA TERMINATED NORMALLY****
TOTAL RUN TIME: 0 days 0 hours 0 minutes 30 seconds 550 msec
