                         Program Version 4.2.1 -  RELEASE  -
|  1> ! wB97X-D3 SP def2-SVP
|  2> %pal
|  3> nprocs 16
|  4> end
|  5>
|  6> * xyz 0 1
|  7> S 	 -82.4626 	 32.5979 	 136.797
|  8> C 	 -80.8153 	 32.3949 	 137.337
|  9> C 	 -79.9038 	 32.9259 	 136.432
| 10> C 	 -80.5776 	 33.5136 	 135.303
| 11> C 	 -81.9655 	 33.4485 	 135.326
| 12> H 	 -80.0047 	 33.9783 	 134.5
| 13> C 	 -78.4554 	 32.8126 	 136.613
| 14> H 	 -78.0124 	 32.7005 	 135.656
| 15> H 	 -78.2745 	 31.9265 	 137.272
| 16> C 	 -77.8631 	 34.0549 	 137.371
| 17> H 	 -78.2469 	 34.0961 	 138.368
| 18> H 	 -76.7449 	 33.9673 	 137.448
| 19> C 	 -78.0923 	 35.3286 	 136.566
| 20> H 	 -77.4916 	 35.4181 	 135.6
| 21> H 	 -79.1124 	 35.5644 	 136.418
| 22> H 	 -77.7322 	 36.1666 	 137.181
| 23> S 	 -84.2734 	 33.4285 	 133.963
| 24> C 	 -85.1114 	 34.9331 	 133.569
| 25> C 	 -84.2039 	 35.9726 	 133.596
| 26> C 	 -82.9139 	 35.6308 	 134.143
| 27> C 	 -82.9253 	 34.2611 	 134.568
| 28> H 	 -84.5404 	 36.8776 	 133.203
| 29> C 	 -81.7079 	 36.6058 	 134.228
| 30> H 	 -81.6174 	 37.0378 	 133.276
| 31> H 	 -80.8067 	 36.0265 	 134.134
| 32> C 	 -81.6599 	 37.5965 	 135.374
| 33> H 	 -80.6095 	 37.9314 	 135.438
| 34> H 	 -81.9244 	 37.049 	 136.267
| 35> C 	 -82.6588 	 38.7391 	 135.166
| 36> H 	 -83.6029 	 38.3802 	 135.151
| 37> H 	 -82.5515 	 39.4196 	 134.252
| 38> H 	 -82.6275 	 39.2797 	 136.097
| 39> H 	 -80.4327 	 31.9039 	 138.254
| 40> H 	 -86.122 	 35.1165 	 133.271
| 41> *
| 42>
| 43>                          ****END OF INPUT****

CARTESIAN COORDINATES (ANGSTROEM)
---------------------------------
  S    -82.462600   32.597900  136.797000
  C    -80.815300   32.394900  137.337000
  C    -79.903800   32.925900  136.432000
  C    -80.577600   33.513600  135.303000
  C    -81.965500   33.448500  135.326000
  H    -80.004700   33.978300  134.500000
  C    -78.455400   32.812600  136.613000
  H    -78.012400   32.700500  135.656000
  H    -78.274500   31.926500  137.272000
  C    -77.863100   34.054900  137.371000
  H    -78.246900   34.096100  138.368000
  H    -76.744900   33.967300  137.448000
  C    -78.092300   35.328600  136.566000
  H    -77.491600   35.418100  135.600000
  H    -79.112400   35.564400  136.418000
  H    -77.732200   36.166600  137.181000
  S    -84.273400   33.428500  133.963000
  C    -85.111400   34.933100  133.569000
  C    -84.203900   35.972600  133.596000
  C    -82.913900   35.630800  134.143000
  C    -82.925300   34.261100  134.568000
  H    -84.540400   36.877600  133.203000
  C    -81.707900   36.605800  134.228000
  H    -81.617400   37.037800  133.276000
  H    -80.806700   36.026500  134.134000
  C    -81.659900   37.596500  135.374000
  H    -80.609500   37.931400  135.438000
  H    -81.924400   37.049000  136.267000
  C    -82.658800   38.739100  135.166000
  H    -83.602900   38.380200  135.151000
  H    -82.551500   39.419600  134.252000
  H    -82.627500   39.279700  136.097000
  H    -80.432700   31.903900  138.254000
  H    -86.122000   35.116500  133.271000

 Total Charge           Charge          ....    0
 Multiplicity           Mult            ....    1
 Number of Electrons    NEL             ....  134
 Basis Dimension        Dim             ....  322

ORBITAL ENERGIES
----------------

  NO   OCC          E(Eh)            E(eV)
   0   2.0000     -88.967110     -2420.9181
   1   2.0000     -88.965135     -2420.8644
   2   2.0000     -10.331994      -281.1479
   3   2.0000     -10.328707      -281.0584
   4   2.0000     -10.316393      -280.7233
   5   2.0000     -10.313026      -280.6317
   6   2.0000     -10.310245      -280.5560
   7   2.0000     -10.297510      -280.2095
   8   2.0000     -10.296996      -280.1955
   9   2.0000     -10.292043      -280.0607
  10   2.0000     -10.290957      -280.0312
  11   2.0000     -10.290347      -280.0146
  12   2.0000     -10.285621      -279.8860
  13   2.0000     -10.283693      -279.8335
  14   2.0000     -10.279206      -279.7114
  15   2.0000     -10.271294      -279.4961
  16   2.0000      -8.081351      -219.9047
  17   2.0000      -8.080429      -219.8796
  18   2.0000      -6.039943      -164.3552
  19   2.0000      -6.038858      -164.3257
  20   2.0000      -6.035818      -164.2430
  21   2.0000      -6.034891      -164.2177
  22   2.0000      -6.032127      -164.1425
  23   2.0000      -6.031208      -164.1175
  24   2.0000      -1.005279       -27.3550
  25   2.0000      -0.982901       -26.7461
  26   2.0000      -0.915670       -24.9167
  27   2.0000      -0.909656       -24.7530
  28   2.0000      -0.868960       -23.6456
  29   2.0000      -0.846378       -23.0311
  30   2.0000      -0.843323       -22.9480
  31   2.0000      -0.818357       -22.2686
  32   2.0000      -0.786595       -21.4043
  33   2.0000      -0.771382       -20.9904
  34   2.0000      -0.709271       -19.3002
  35   2.0000      -0.703218       -19.1355
  36   2.0000      -0.693729       -18.8773
  37   2.0000      -0.659577       -17.9480
  38   2.0000      -0.633422       -17.2363
  39   2.0000      -0.620432       -16.8828
  40   2.0000      -0.594731       -16.1834
  41   2.0000      -0.579391       -15.7660
  42   2.0000      -0.552753       -15.0412
  43   2.0000      -0.544523       -14.8172
  44   2.0000      -0.543936       -14.8013
  45   2.0000      -0.539121       -14.6702
  46   2.0000      -0.518916       -14.1204
  47   2.0000      -0.512502       -13.9459
  48   2.0000      -0.504168       -13.7191
  49   2.0000      -0.502313       -13.6686
  50   2.0000      -0.487231       -13.2582
  51   2.0000      -0.480051       -13.0629
  52   2.0000      -0.470797       -12.8110
  53   2.0000      -0.469786       -12.7835
  54   2.0000      -0.458593       -12.4789
  55   2.0000      -0.444247       -12.0886
  56   2.0000      -0.442094       -12.0300
  57   2.0000      -0.435181       -11.8419
  58   2.0000      -0.432765       -11.7761
  59   2.0000      -0.424146       -11.5416
  60   2.0000      -0.421907       -11.4807
  61   2.0000      -0.419954       -11.4275
  62   2.0000      -0.413017       -11.2388
  63   2.0000      -0.343816        -9.3557
  64   2.0000      -0.329710        -8.9719
  65   2.0000      -0.327739        -8.9182
  66   2.0000      -0.288361        -7.8467
  67   0.0000       0.023364         0.6358
  68   0.0000       0.069749         1.8980
  69   0.0000       0.104409         2.8411
  70   0.0000       0.118860         3.2344
  71   0.0000       0.127484         3.4690

MULLIKEN ATOMIC CHARGES
-----------------------
   0 S :    0.118616
   1 C :   -0.119459
   2 C :   -0.136791
   3 C :    0.018220
   4 C :   -0.108833
   5 H :    0.020233
   6 C :    0.081611
   7 H :    0.018327
   8 H :    0.030797
   9 C :   -0.060211
  10 H :    0.026198
  11 H :    0.037354
  12 C :   -0.080853
  13 H :    0.041467
  14 H :    0.039275
  15 H :    0.027610
  16 S :    0.116371
  17 C :   -0.086746
  18 C :   -0.029588
  19 C :   -0.045654
  20 C :   -0.178014
  21 H :   -0.002965
  22 C :    0.110277
  23 H :    0.001178
  24 H :   -0.018011
  25 C :   -0.045821
  26 H :    0.035495
  27 H :    0.036061
  28 C :   -0.014939
  29 H :    0.002746
  30 H :    0.042260
  31 H :    0.023876
  32 H :    0.054049
  33 H :    0.045863
Sum of atomic charges:    0.0000000

LOEWDIN ATOMIC CHARGES
----------------------
   0 S :    0.407678
   1 C :   -0.203229
   2 C :   -0.070784
   3 C :   -0.058788
   4 C :   -0.200283
   5 H :    0.029227
   6 C :   -0.031404
   7 H :    0.026179
   8 H :    0.036519
   9 C :   -0.033460
  10 H :    0.020564
  11 H :    0.029220
  12 C :   -0.074371
  13 H :    0.033127
  14 H :    0.017251
  15 H :    0.028896
  16 S :    0.426455
  17 C :   -0.187754
  18 C :   -0.063892
  19 C :   -0.051071
  20 C :   -0.214099
  21 H :    0.020734
  22 C :   -0.035449
  23 H :    0.025739
  24 H :    0.024341
  25 C :   -0.032297
  26 H :    0.027799
  27 H :    0.029888
  28 C :   -0.062146
  29 H :    0.008781
  30 H :    0.034402
  31 H :    0.027905
  32 H :    0.036465
  33 H :    0.027858

  Mayer bond orders larger than 0.100000
B(  0-S ,  1-C ) :   1.1473 B(  0-S ,  4-C ) :   1.1451 B(  1-C ,  2-C ) :   1.6012
B(  1-C , 32-H ) :   0.9567 B(  2-C ,  3-C ) :   1.2548 B(  2-C ,  6-C ) :   1.0330
B(  3-C ,  4-C ) :   1.5529 B(  3-C ,  5-H ) :   0.9917 B(  4-C , 20-C ) :   1.0280
B(  6-C ,  7-H ) :   0.9384 B(  6-C ,  8-H ) :   0.9397 B(  6-C ,  9-C ) :   1.0657
B(  9-C , 10-H ) :   0.9554 B(  9-C , 11-H ) :   0.9568 B(  9-C , 12-C ) :   1.0840
B( 12-C , 13-H ) :   0.9730 B( 12-C , 14-H ) :   0.9716 B( 12-C , 15-H ) :   0.9676
B( 16-S , 17-C ) :   1.1399 B( 16-S , 20-C ) :   1.1795 B( 17-C , 18-C ) :   1.6097
B( 17-C , 20-C ) :   0.1006 B( 17-C , 33-H ) :   0.9715 B( 18-C , 19-C ) :   1.2471
B( 18-C , 21-H ) :   0.9962 B( 19-C , 20-C ) :   1.5404 B( 19-C , 22-C ) :   1.0267
B( 22-C , 23-H ) :   0.9229 B( 22-C , 24-H ) :   0.9273 B( 22-C , 25-C ) :   1.0673
B( 25-C , 26-H ) :   0.9531 B( 25-C , 27-H ) :   0.9517 B( 25-C , 28-C ) :   1.0813
B( 28-C , 29-H ) :   0.9686 B( 28-C , 30-H ) :   0.9754 B( 28-C , 31-H ) :   0.9686

Dispersion correction           -0.015684257
FINAL SINGLE POINT ENERGY     -1339.860941606806

DIPOLE MOMENT
-------------
                                X             Y             Z
Electronic contribution:    -20.26709     -20.77496      -4.04634
Nuclear contribution   :     20.82720      21.29128       4.08561
                        -----------------------------------------
Total Dipole Moment    :      0.56011       0.51632       0.03927
                        -----------------------------------------
Magnitude (a.u.)       :      0.76279
Magnitude (Debye)      :      1.93886

Rotational constants in cm-1:     0.018311     0.010238     0.007242
Rotational constants in MHz :   548.937052   306.923131   217.118136

                             ****ORCA TERMINATED NORMALLY****
TOTAL RUN TIME: 0 days 0 hours 0 minutes 37 seconds 618 msec
