                         Program Version 4.2.1 -  RELEASE  -
|  1> ! wB97X-D3 SP def2-SVP
|  2> %pal
|  3> nprocs 16
|  4> end
|  5>
|  6> * xyz 0 1
|  7> S 	 29.4475 	 12.982 	 67.4541
|  8> C 	 28.428 	 14.4281 	 67.7187
|  9> C 	 27.9487 	 14.401 	 69.0544
| 10> C 	 28.2221 	 13.2064 	 69.7766
| 11> C 	 29.1851 	 12.4305 	 69.1453
| 12> H 	 27.949 	 13.0586 	 70.8243
| 13> C 	 27.077 	 15.5512 	 69.6401
| 14> H 	 26.5407 	 16.0436 	 68.8066
| 15> H 	 27.7101 	 16.3332 	 70.0909
| 16> C 	 26.1954 	 14.9868 	 70.7386
| 17> H 	 25.6618 	 14.1434 	 70.2896
| 18> H 	 26.8789 	 14.4814 	 71.4645
| 19> C 	 25.1746 	 15.959 	 71.2913
| 20> H 	 25.5416 	 16.9621 	 71.4733
| 21> H 	 24.4076 	 16.11 	 70.5246
| 22> H 	 24.6251 	 15.653 	 72.2366
| 23> S 	 30.0742 	 9.91243 	 68.7063
| 24> C 	 30.4457 	 8.78004 	 70.0596
| 25> C 	 30.6386 	 9.58559 	 71.146
| 26> C 	 30.2186 	 10.9558 	 71.0165
| 27> C 	 29.804 	 11.2528 	 69.7352
| 28> H 	 30.9853 	 9.19998 	 72.0462
| 29> C 	 30.152 	 11.9355 	 72.1695
| 30> H 	 30.28 	 12.9026 	 71.8327
| 31> H 	 30.9887 	 11.6895 	 72.77
| 32> C 	 28.9065 	 11.7514 	 73.0791
| 33> H 	 29.0588 	 10.7928 	 73.691
| 34> H 	 27.9678 	 11.5676 	 72.5588
| 35> C 	 28.7388 	 12.9542 	 73.9838
| 36> H 	 29.61 	 12.8326 	 74.6282
| 37> H 	 27.8133 	 12.9107 	 74.5571
| 38> H 	 28.8366 	 13.9207 	 73.5049
| 39> H 	 28.4991 	 15.3108 	 67.1804
| 40> H 	 30.8962 	 7.80517 	 70.0144
| 41> *
| 42>
| 43>                          ****END OF INPUT****

CARTESIAN COORDINATES (ANGSTROEM)
---------------------------------
  S     29.447500   12.982000   67.454100
  C     28.428000   14.428100   67.718700
  C     27.948700   14.401000   69.054400
  C     28.222100   13.206400   69.776600
  C     29.185100   12.430500   69.145300
  H     27.949000   13.058600   70.824300
  C     27.077000   15.551200   69.640100
  H     26.540700   16.043600   68.806600
  H     27.710100   16.333200   70.090900
  C     26.195400   14.986800   70.738600
  H     25.661800   14.143400   70.289600
  H     26.878900   14.481400   71.464500
  C     25.174600   15.959000   71.291300
  H     25.541600   16.962100   71.473300
  H     24.407600   16.110000   70.524600
  H     24.625100   15.653000   72.236600
  S     30.074200    9.912430   68.706300
  C     30.445700    8.780040   70.059600
  C     30.638600    9.585590   71.146000
  C     30.218600   10.955800   71.016500
  C     29.804000   11.252800   69.735200
  H     30.985300    9.199980   72.046200
  C     30.152000   11.935500   72.169500
  H     30.280000   12.902600   71.832700
  H     30.988700   11.689500   72.770000
  C     28.906500   11.751400   73.079100
  H     29.058800   10.792800   73.691000
  H     27.967800   11.567600   72.558800
  C     28.738800   12.954200   73.983800
  H     29.610000   12.832600   74.628200
  H     27.813300   12.910700   74.557100
  H     28.836600   13.920700   73.504900
  H     28.499100   15.310800   67.180400
  H     30.896200    7.805170   70.014400

 Total Charge           Charge          ....    0
 Multiplicity           Mult            ....    1
 Number of Electrons    NEL             ....  134
 Basis Dimension        Dim             ....  322

ORBITAL ENERGIES
----------------

  NO   OCC          E(Eh)            E(eV)
   0   2.0000     -88.970821     -2421.0191
   1   2.0000     -88.960804     -2420.7466
   2   2.0000     -10.339751      -281.3589
   3   2.0000     -10.326026      -280.9854
   4   2.0000     -10.318983      -280.7938
   5   2.0000     -10.315064      -280.6872
   6   2.0000     -10.308980      -280.5216
   7   2.0000     -10.302016      -280.3321
   8   2.0000     -10.297913      -280.2205
   9   2.0000     -10.297705      -280.2148
  10   2.0000     -10.294299      -280.1221
  11   2.0000     -10.292185      -280.0646
  12   2.0000     -10.290095      -280.0077
  13   2.0000     -10.286352      -279.9059
  14   2.0000     -10.284076      -279.8439
  15   2.0000     -10.279754      -279.7263
  16   2.0000      -8.083821      -219.9720
  17   2.0000      -8.075798      -219.7536
  18   2.0000      -6.042554      -164.4262
  19   2.0000      -6.038540      -164.3170
  20   2.0000      -6.034570      -164.2090
  21   2.0000      -6.034477      -164.2065
  22   2.0000      -6.030240      -164.0912
  23   2.0000      -6.026256      -163.9828
  24   2.0000      -1.007495       -27.4153
  25   2.0000      -0.979635       -26.6572
  26   2.0000      -0.915487       -24.9117
  27   2.0000      -0.913077       -24.8461
  28   2.0000      -0.873788       -23.7770
  29   2.0000      -0.853308       -23.2197
  30   2.0000      -0.843171       -22.9438
  31   2.0000      -0.821138       -22.3443
  32   2.0000      -0.779469       -21.2104
  33   2.0000      -0.772021       -21.0078
  34   2.0000      -0.717105       -19.5134
  35   2.0000      -0.701083       -19.0774
  36   2.0000      -0.693894       -18.8818
  37   2.0000      -0.668089       -18.1796
  38   2.0000      -0.640150       -17.4194
  39   2.0000      -0.623695       -16.9716
  40   2.0000      -0.596652       -16.2357
  41   2.0000      -0.571254       -15.5446
  42   2.0000      -0.569206       -15.4889
  43   2.0000      -0.563213       -15.3258
  44   2.0000      -0.533247       -14.5104
  45   2.0000      -0.526496       -14.3267
  46   2.0000      -0.522351       -14.2139
  47   2.0000      -0.516239       -14.0476
  48   2.0000      -0.503983       -13.7141
  49   2.0000      -0.502032       -13.6610
  50   2.0000      -0.495525       -13.4839
  51   2.0000      -0.483617       -13.1599
  52   2.0000      -0.476248       -12.9594
  53   2.0000      -0.472731       -12.8637
  54   2.0000      -0.458379       -12.4731
  55   2.0000      -0.450538       -12.2598
  56   2.0000      -0.448184       -12.1957
  57   2.0000      -0.440409       -11.9841
  58   2.0000      -0.431690       -11.7469
  59   2.0000      -0.426049       -11.5934
  60   2.0000      -0.416529       -11.3343
  61   2.0000      -0.415330       -11.3017
  62   2.0000      -0.407572       -11.0906
  63   2.0000      -0.357267        -9.7217
  64   2.0000      -0.335921        -9.1409
  65   2.0000      -0.323193        -8.7945
  66   2.0000      -0.288434        -7.8487
  67   0.0000       0.016404         0.4464
  68   0.0000       0.069241         1.8841
  69   0.0000       0.098351         2.6763
  70   0.0000       0.115843         3.1522
  71   0.0000       0.120783         3.2867

MULLIKEN ATOMIC CHARGES
-----------------------
   0 S :    0.102407
   1 C :   -0.084859
   2 C :   -0.127415
   3 C :    0.008341
   4 C :   -0.098219
   5 H :    0.003224
   6 C :    0.062917
   7 H :    0.032540
   8 H :    0.039778
   9 C :   -0.135213
  10 H :    0.037090
  11 H :    0.043555
  12 C :   -0.017037
  13 H :    0.022117
  14 H :    0.028497
  15 H :    0.044446
  16 S :    0.078097
  17 C :   -0.073170
  18 C :   -0.016731
  19 C :   -0.072493
  20 C :   -0.138685
  21 H :   -0.008636
  22 C :    0.115248
  23 H :    0.011779
  24 H :    0.009801
  25 C :   -0.118675
  26 H :    0.037170
  27 H :    0.038677
  28 C :   -0.029350
  29 H :    0.024591
  30 H :    0.042317
  31 H :    0.034575
  32 H :    0.039055
  33 H :    0.064260
Sum of atomic charges:   -0.0000000

LOEWDIN ATOMIC CHARGES
----------------------
   0 S :    0.375507
   1 C :   -0.189960
   2 C :   -0.047797
   3 C :   -0.071195
   4 C :   -0.163869
   5 H :    0.033831
   6 C :   -0.030777
   7 H :    0.031552
   8 H :    0.032294
   9 C :   -0.053353
  10 H :    0.028638
  11 H :    0.025148
  12 C :   -0.070845
  13 H :    0.021081
  14 H :    0.028824
  15 H :    0.035291
  16 S :    0.395038
  17 C :   -0.173742
  18 C :   -0.057590
  19 C :   -0.059182
  20 C :   -0.199866
  21 H :    0.017630
  22 C :   -0.021948
  23 H :    0.018289
  24 H :    0.029556
  25 C :   -0.043999
  26 H :    0.032506
  27 H :    0.015670
  28 C :   -0.066791
  29 H :    0.028626
  30 H :    0.028348
  31 H :    0.022014
  32 H :    0.016964
  33 H :    0.034106

  Mayer bond orders larger than 0.100000
B(  0-S ,  1-C ) :   1.1162 B(  0-S ,  4-C ) :   1.1475 B(  1-C ,  2-C ) :   1.6228
B(  1-C ,  4-C ) :   0.1083 B(  1-C , 32-H ) :   0.9696 B(  2-C ,  3-C ) :   1.2510
B(  2-C ,  6-C ) :   1.0062 B(  3-C ,  4-C ) :   1.5466 B(  3-C ,  5-H ) :   0.9788
B(  4-C , 20-C ) :   1.0606 B(  6-C ,  7-H ) :   0.9497 B(  6-C ,  8-H ) :   0.9285
B(  6-C ,  9-C ) :   1.0813 B(  9-C , 10-H ) :   0.9600 B(  9-C , 11-H ) :   0.9387
B(  9-C , 12-C ) :   1.0721 B( 12-C , 13-H ) :   0.9736 B( 12-C , 14-H ) :   0.9707
B( 12-C , 15-H ) :   0.9726 B( 16-S , 17-C ) :   1.1259 B( 16-S , 20-C ) :   1.1414
B( 17-C , 18-C ) :   1.6196 B( 17-C , 33-H ) :   0.9648 B( 18-C , 19-C ) :   1.2478
B( 18-C , 21-H ) :   0.9913 B( 19-C , 20-C ) :   1.5828 B( 19-C , 22-C ) :   1.0536
B( 22-C , 23-H ) :   0.9390 B( 22-C , 24-H ) :   0.9180 B( 22-C , 25-C ) :   1.0447
B( 25-C , 26-H ) :   0.9522 B( 25-C , 27-H ) :   0.9591 B( 25-C , 28-C ) :   1.0733
B( 28-C , 29-H ) :   0.9726 B( 28-C , 30-H ) :   0.9734 B( 28-C , 31-H ) :   0.9736

Dispersion correction           -0.014849411
FINAL SINGLE POINT ENERGY     -1339.862350878830

DIPOLE MOMENT
-------------
                                X             Y             Z
Electronic contribution:     14.79738     -16.19963     -25.44898
Nuclear contribution   :    -14.84544      16.58375      26.28081
                        -----------------------------------------
Total Dipole Moment    :     -0.04805       0.38412       0.83183
                        -----------------------------------------
Magnitude (a.u.)       :      0.91749
Magnitude (Debye)      :      2.33207

Rotational constants in cm-1:     0.017457     0.010126     0.006850
Rotational constants in MHz :   523.345986   303.568413   205.360705

                             ****ORCA TERMINATED NORMALLY****
TOTAL RUN TIME: 0 days 0 hours 0 minutes 30 seconds 111 msec
