                         Program Version 4.2.1 -  RELEASE  -
|  1> ! wB97X-D3 SP def2-SVP
|  2> %pal
|  3> nprocs 16
|  4> end
|  5>
|  6> * xyz 0 1
|  7> S 	 6.26341 	 78.0583 	 43.9728
|  8> C 	 4.54074 	 77.4869 	 44.0428
|  9> C 	 4.38287 	 76.7302 	 45.209
| 10> C 	 5.4886 	 76.7974 	 46.1507
| 11> C 	 6.55849 	 77.4905 	 45.6327
| 12> H 	 5.50672 	 76.3772 	 47.1571
| 13> C 	 3.11294 	 76.0437 	 45.5201
| 14> H 	 2.31085 	 76.6611 	 45.1052
| 15> H 	 2.96264 	 75.9823 	 46.5867
| 16> C 	 3.00121 	 74.6417 	 44.9489
| 17> H 	 3.16475 	 74.7626 	 43.8282
| 18> H 	 3.84943 	 74.0565 	 45.333
| 19> C 	 1.60157 	 74.0759 	 45.2748
| 20> H 	 1.59027 	 73.0657 	 44.9034
| 21> H 	 1.47062 	 73.9923 	 46.386
| 22> H 	 0.729567 	 74.5838 	 44.849
| 23> S 	 9.0426 	 76.2628 	 45.6528
| 24> C 	 10.2646 	 76.7574 	 46.7387
| 25> C 	 9.82695 	 77.8801 	 47.4566
| 26> C 	 8.49106 	 78.2787 	 47.1762
| 27> C 	 7.90833 	 77.4813 	 46.1991
| 28> H 	 10.4179 	 78.2448 	 48.2401
| 29> C 	 7.88944 	 79.5141 	 47.8358
| 30> H 	 8.52699 	 80.0352 	 48.5107
| 31> H 	 7.12222 	 79.1858 	 48.5024
| 32> C 	 7.24669 	 80.5247 	 46.8658
| 33> H 	 6.55093 	 81.2165 	 47.4301
| 34> H 	 6.54207 	 79.968 	 46.2268
| 35> C 	 8.32848 	 81.2162 	 46.0368
| 36> H 	 7.98391 	 81.4993 	 45.0158
| 37> H 	 9.16317 	 80.5916 	 45.7682
| 38> H 	 8.83889 	 82.1002 	 46.5489
| 39> H 	 3.89778 	 77.5572 	 43.248
| 40> H 	 11.2646 	 76.3736 	 46.95
| 41> *
| 42>
| 43>                          ****END OF INPUT****

CARTESIAN COORDINATES (ANGSTROEM)
---------------------------------
  S      6.263410   78.058300   43.972800
  C      4.540740   77.486900   44.042800
  C      4.382870   76.730200   45.209000
  C      5.488600   76.797400   46.150700
  C      6.558490   77.490500   45.632700
  H      5.506720   76.377200   47.157100
  C      3.112940   76.043700   45.520100
  H      2.310850   76.661100   45.105200
  H      2.962640   75.982300   46.586700
  C      3.001210   74.641700   44.948900
  H      3.164750   74.762600   43.828200
  H      3.849430   74.056500   45.333000
  C      1.601570   74.075900   45.274800
  H      1.590270   73.065700   44.903400
  H      1.470620   73.992300   46.386000
  H      0.729567   74.583800   44.849000
  S      9.042600   76.262800   45.652800
  C     10.264600   76.757400   46.738700
  C      9.826950   77.880100   47.456600
  C      8.491060   78.278700   47.176200
  C      7.908330   77.481300   46.199100
  H     10.417900   78.244800   48.240100
  C      7.889440   79.514100   47.835800
  H      8.526990   80.035200   48.510700
  H      7.122220   79.185800   48.502400
  C      7.246690   80.524700   46.865800
  H      6.550930   81.216500   47.430100
  H      6.542070   79.968000   46.226800
  C      8.328480   81.216200   46.036800
  H      7.983910   81.499300   45.015800
  H      9.163170   80.591600   45.768200
  H      8.838890   82.100200   46.548900
  H      3.897780   77.557200   43.248000
  H     11.264600   76.373600   46.950000

 Total Charge           Charge          ....    0
 Multiplicity           Mult            ....    1
 Number of Electrons    NEL             ....  134
 Basis Dimension        Dim             ....  322

ORBITAL ENERGIES
----------------

  NO   OCC          E(Eh)            E(eV)
   0   2.0000     -88.967945     -2420.9409
   1   2.0000     -88.966295     -2420.8960
   2   2.0000     -10.333503      -281.1889
   3   2.0000     -10.324360      -280.9401
   4   2.0000     -10.317139      -280.7436
   5   2.0000     -10.316135      -280.7163
   6   2.0000     -10.305003      -280.4134
   7   2.0000     -10.302775      -280.3528
   8   2.0000     -10.300359      -280.2870
   9   2.0000     -10.292745      -280.0798
  10   2.0000     -10.286275      -279.9038
  11   2.0000     -10.284379      -279.8522
  12   2.0000     -10.283705      -279.8338
  13   2.0000     -10.283446      -279.8268
  14   2.0000     -10.283419      -279.8260
  15   2.0000     -10.273413      -279.5538
  16   2.0000      -8.082923      -219.9475
  17   2.0000      -8.079340      -219.8500
  18   2.0000      -6.041389      -164.3945
  19   2.0000      -6.037975      -164.3016
  20   2.0000      -6.037219      -164.2811
  21   2.0000      -6.034121      -164.1968
  22   2.0000      -6.033876      -164.1901
  23   2.0000      -6.030016      -164.0851
  24   2.0000      -1.004454       -27.3326
  25   2.0000      -0.979562       -26.6552
  26   2.0000      -0.915972       -24.9249
  27   2.0000      -0.905107       -24.6292
  28   2.0000      -0.866479       -23.5781
  29   2.0000      -0.844584       -22.9823
  30   2.0000      -0.842362       -22.9218
  31   2.0000      -0.813881       -22.1468
  32   2.0000      -0.780815       -21.2471
  33   2.0000      -0.769995       -20.9526
  34   2.0000      -0.709114       -19.2960
  35   2.0000      -0.699655       -19.0386
  36   2.0000      -0.686754       -18.6875
  37   2.0000      -0.660545       -17.9743
  38   2.0000      -0.647793       -17.6274
  39   2.0000      -0.617788       -16.8109
  40   2.0000      -0.593684       -16.1550
  41   2.0000      -0.573821       -15.6145
  42   2.0000      -0.562265       -15.3000
  43   2.0000      -0.546606       -14.8739
  44   2.0000      -0.536189       -14.5905
  45   2.0000      -0.520785       -14.1713
  46   2.0000      -0.517211       -14.0740
  47   2.0000      -0.513462       -13.9720
  48   2.0000      -0.507560       -13.8114
  49   2.0000      -0.498251       -13.5581
  50   2.0000      -0.484934       -13.1957
  51   2.0000      -0.478038       -13.0081
  52   2.0000      -0.470470       -12.8021
  53   2.0000      -0.467159       -12.7120
  54   2.0000      -0.460255       -12.5242
  55   2.0000      -0.445942       -12.1347
  56   2.0000      -0.440114       -11.9761
  57   2.0000      -0.431424       -11.7396
  58   2.0000      -0.427987       -11.6461
  59   2.0000      -0.421485       -11.4692
  60   2.0000      -0.417266       -11.3544
  61   2.0000      -0.414244       -11.2722
  62   2.0000      -0.408834       -11.1249
  63   2.0000      -0.336936        -9.1685
  64   2.0000      -0.328583        -8.9412
  65   2.0000      -0.319865        -8.7040
  66   2.0000      -0.308351        -8.3907
  67   0.0000       0.038091         1.0365
  68   0.0000       0.050030         1.3614
  69   0.0000       0.110969         3.0196
  70   0.0000       0.120778         3.2865
  71   0.0000       0.131822         3.5870

MULLIKEN ATOMIC CHARGES
-----------------------
   0 S :    0.090989
   1 C :   -0.081621
   2 C :   -0.085167
   3 C :    0.057425
   4 C :   -0.177357
   5 H :    0.026218
   6 C :    0.048311
   7 H :    0.024339
   8 H :    0.012885
   9 C :   -0.099510
  10 H :    0.034199
  11 H :    0.036312
  12 C :   -0.034986
  13 H :    0.031286
  14 H :    0.034221
  15 H :    0.041025
  16 S :    0.139515
  17 C :   -0.094000
  18 C :   -0.041469
  19 C :   -0.017302
  20 C :   -0.187627
  21 H :   -0.001846
  22 C :    0.113636
  23 H :    0.004303
  24 H :    0.015073
  25 C :   -0.076806
  26 H :    0.032756
  27 H :    0.037674
  28 C :   -0.063880
  29 H :    0.033173
  30 H :    0.027775
  31 H :    0.037276
  32 H :    0.022476
  33 H :    0.060707
Sum of atomic charges:   -0.0000000

LOEWDIN ATOMIC CHARGES
----------------------
   0 S :    0.368833
   1 C :   -0.162704
   2 C :   -0.052774
   3 C :   -0.054879
   4 C :   -0.184865
   5 H :    0.038730
   6 C :   -0.040985
   7 H :    0.031799
   8 H :    0.024112
   9 C :   -0.040839
  10 H :    0.028470
  11 H :    0.027337
  12 C :   -0.068800
  13 H :    0.025126
  14 H :    0.030282
  15 H :    0.028522
  16 S :    0.437134
  17 C :   -0.205881
  18 C :   -0.072752
  19 C :   -0.049124
  20 C :   -0.213033
  21 H :    0.020029
  22 C :   -0.028766
  23 H :    0.023541
  24 H :    0.030332
  25 C :   -0.044545
  26 H :    0.029866
  27 H :    0.022404
  28 C :   -0.079611
  29 H :    0.029534
  30 H :    0.023855
  31 H :    0.031528
  32 H :    0.010104
  33 H :    0.038020

  Mayer bond orders larger than 0.100000
B(  0-S ,  1-C ) :   1.1092 B(  0-S ,  4-C ) :   1.1403 B(  1-C ,  2-C ) :   1.6193
B(  1-C , 32-H ) :   0.9835 B(  2-C ,  3-C ) :   1.2083 B(  2-C ,  6-C ) :   1.0376
B(  3-C ,  4-C ) :   1.6065 B(  3-C ,  5-H ) :   0.9905 B(  4-C , 20-C ) :   1.0047
B(  6-C ,  7-H ) :   0.9426 B(  6-C ,  8-H ) :   0.9405 B(  6-C ,  9-C ) :   1.0571
B(  9-C , 10-H ) :   0.9557 B(  9-C , 11-H ) :   0.9540 B(  9-C , 12-C ) :   1.0768
B( 12-C , 13-H ) :   0.9733 B( 12-C , 14-H ) :   0.9721 B( 12-C , 15-H ) :   0.9745
B( 16-S , 17-C ) :   1.1764 B( 16-S , 20-C ) :   1.1561 B( 17-C , 18-C ) :   1.5825
B( 17-C , 20-C ) :   0.1023 B( 17-C , 33-H ) :   0.9647 B( 18-C , 19-C ) :   1.2730
B( 18-C , 21-H ) :   0.9942 B( 19-C , 20-C ) :   1.5708 B( 19-C , 22-C ) :   1.0378
B( 22-C , 23-H ) :   0.9408 B( 22-C , 24-H ) :   0.9173 B( 22-C , 25-C ) :   1.0772
B( 25-C , 26-H ) :   0.9532 B( 25-C , 27-H ) :   0.9542 B( 25-C , 28-C ) :   1.0604
B( 28-C , 29-H ) :   0.9740 B( 28-C , 30-H ) :   0.9762 B( 28-C , 31-H ) :   0.9742

Dispersion correction           -0.014962100
FINAL SINGLE POINT ENERGY     -1339.879690183122

DIPOLE MOMENT
-------------
                                X             Y             Z
Electronic contribution:     15.92471      -2.84661      -6.15117
Nuclear contribution   :    -16.28124       2.63921       6.56043
                        -----------------------------------------
Total Dipole Moment    :     -0.35653      -0.20740       0.40926
                        -----------------------------------------
Magnitude (a.u.)       :      0.58105
Magnitude (Debye)      :      1.47691

Rotational constants in cm-1:     0.022733     0.007744     0.006858
Rotational constants in MHz :   681.520509   232.162306   205.608488

                             ****ORCA TERMINATED NORMALLY****
TOTAL RUN TIME: 0 days 0 hours 0 minutes 32 seconds 257 msec
