                         Program Version 4.2.1 -  RELEASE  -
|  1> ! wB97X-D3 SP def2-SVP
|  2> %pal
|  3> nprocs 16
|  4> end
|  5>
|  6> * xyz 0 1
|  7> S 	 1.61388 	 -1.47212 	 85.6296
|  8> C 	 1.91243 	 -1.4178 	 87.3353
|  9> C 	 1.9103 	 -2.70542 	 87.8336
| 10> C 	 1.78018 	 -3.72139 	 86.8784
| 11> C 	 1.50675 	 -3.22354 	 85.6176
| 12> H 	 1.64588 	 -4.77526 	 87.0843
| 13> C 	 1.90674 	 -3.04386 	 89.2739
| 14> H 	 1.00926 	 -3.54731 	 89.3879
| 15> H 	 1.9074 	 -2.17493 	 89.8085
| 16> C 	 3.15561 	 -3.83373 	 89.7768
| 17> H 	 3.03375 	 -4.08157 	 90.8126
| 18> H 	 3.16065 	 -4.86519 	 89.4332
| 19> C 	 4.45901 	 -3.08624 	 89.7092
| 20> H 	 5.29226 	 -3.60215 	 90.1932
| 21> H 	 4.80357 	 -2.85767 	 88.7387
| 22> H 	 4.27626 	 -2.14817 	 90.2369
| 23> S 	 -0.482757 	 -3.53451 	 83.709
| 24> C 	 -0.237815 	 -4.65245 	 82.4014
| 25> C 	 0.846901 	 -5.46887 	 82.5991
| 26> C 	 1.55648 	 -5.08862 	 83.7581
| 27> C 	 1.07121 	 -3.99852 	 84.4536
| 28> H 	 1.14489 	 -6.29937 	 81.9601
| 29> C 	 2.83354 	 -5.79839 	 84.042
| 30> H 	 3.58782 	 -5.16873 	 84.4484
| 31> H 	 3.30439 	 -6.08809 	 83.1402
| 32> C 	 2.73743 	 -6.98854 	 85.0653
| 33> H 	 2.49847 	 -6.65466 	 86.0428
| 34> H 	 3.71643 	 -7.40586 	 85.2346
| 35> C 	 1.78987 	 -8.12856 	 84.6681
| 36> H 	 2.24614 	 -8.72555 	 83.8172
| 37> H 	 0.856734 	 -7.70408 	 84.4283
| 38> H 	 1.5167 	 -8.78534 	 85.4653
| 39> H 	 1.99653 	 -0.475552 	 87.8268
| 40> H 	 -0.946187 	 -4.94166 	 81.6151
| 41> *
| 42>
| 43>                          ****END OF INPUT****

CARTESIAN COORDINATES (ANGSTROEM)
---------------------------------
  S      1.613880   -1.472120   85.629600
  C      1.912430   -1.417800   87.335300
  C      1.910300   -2.705420   87.833600
  C      1.780180   -3.721390   86.878400
  C      1.506750   -3.223540   85.617600
  H      1.645880   -4.775260   87.084300
  C      1.906740   -3.043860   89.273900
  H      1.009260   -3.547310   89.387900
  H      1.907400   -2.174930   89.808500
  C      3.155610   -3.833730   89.776800
  H      3.033750   -4.081570   90.812600
  H      3.160650   -4.865190   89.433200
  C      4.459010   -3.086240   89.709200
  H      5.292260   -3.602150   90.193200
  H      4.803570   -2.857670   88.738700
  H      4.276260   -2.148170   90.236900
  S     -0.482757   -3.534510   83.709000
  C     -0.237815   -4.652450   82.401400
  C      0.846901   -5.468870   82.599100
  C      1.556480   -5.088620   83.758100
  C      1.071210   -3.998520   84.453600
  H      1.144890   -6.299370   81.960100
  C      2.833540   -5.798390   84.042000
  H      3.587820   -5.168730   84.448400
  H      3.304390   -6.088090   83.140200
  C      2.737430   -6.988540   85.065300
  H      2.498470   -6.654660   86.042800
  H      3.716430   -7.405860   85.234600
  C      1.789870   -8.128560   84.668100
  H      2.246140   -8.725550   83.817200
  H      0.856734   -7.704080   84.428300
  H      1.516700   -8.785340   85.465300
  H      1.996530   -0.475552   87.826800
  H     -0.946187   -4.941660   81.615100

 Total Charge           Charge          ....    0
 Multiplicity           Mult            ....    1
 Number of Electrons    NEL             ....  134
 Basis Dimension        Dim             ....  322

ORBITAL ENERGIES
----------------

  NO   OCC          E(Eh)            E(eV)
   0   2.0000     -88.965041     -2420.8618
   1   2.0000     -88.964614     -2420.8502
   2   2.0000     -10.331822      -281.1432
   3   2.0000     -10.328490      -281.0525
   4   2.0000     -10.316634      -280.7299
   5   2.0000     -10.311618      -280.5934
   6   2.0000     -10.298042      -280.2240
   7   2.0000     -10.295194      -280.1465
   8   2.0000     -10.290843      -280.0281
   9   2.0000     -10.290378      -280.0154
  10   2.0000     -10.282662      -279.8055
  11   2.0000     -10.282282      -279.7951
  12   2.0000     -10.281667      -279.7784
  13   2.0000     -10.277419      -279.6628
  14   2.0000     -10.272494      -279.5288
  15   2.0000     -10.272331      -279.5243
  16   2.0000      -8.079678      -219.8592
  17   2.0000      -8.079492      -219.8542
  18   2.0000      -6.038118      -164.3055
  19   2.0000      -6.038076      -164.3044
  20   2.0000      -6.034046      -164.1948
  21   2.0000      -6.033991      -164.1932
  22   2.0000      -6.030586      -164.1006
  23   2.0000      -6.030225      -164.0908
  24   2.0000      -1.008898       -27.4535
  25   2.0000      -0.989127       -26.9155
  26   2.0000      -0.916878       -24.9495
  27   2.0000      -0.906479       -24.6665
  28   2.0000      -0.870677       -23.6923
  29   2.0000      -0.854077       -23.2406
  30   2.0000      -0.848435       -23.0871
  31   2.0000      -0.818944       -22.2846
  32   2.0000      -0.786265       -21.3954
  33   2.0000      -0.774389       -21.0722
  34   2.0000      -0.714587       -19.4449
  35   2.0000      -0.705953       -19.2100
  36   2.0000      -0.692382       -18.8407
  37   2.0000      -0.663081       -18.0434
  38   2.0000      -0.647632       -17.6230
  39   2.0000      -0.625357       -17.0168
  40   2.0000      -0.595558       -16.2060
  41   2.0000      -0.567130       -15.4324
  42   2.0000      -0.565971       -15.4008
  43   2.0000      -0.549998       -14.9662
  44   2.0000      -0.544120       -14.8063
  45   2.0000      -0.541498       -14.7349
  46   2.0000      -0.522720       -14.2239
  47   2.0000      -0.512688       -13.9509
  48   2.0000      -0.503412       -13.6985
  49   2.0000      -0.496506       -13.5106
  50   2.0000      -0.488133       -13.2828
  51   2.0000      -0.481325       -13.0975
  52   2.0000      -0.476194       -12.9579
  53   2.0000      -0.468174       -12.7397
  54   2.0000      -0.457149       -12.4397
  55   2.0000      -0.450899       -12.2696
  56   2.0000      -0.444621       -12.0988
  57   2.0000      -0.439092       -11.9483
  58   2.0000      -0.434636       -11.8270
  59   2.0000      -0.423484       -11.5236
  60   2.0000      -0.422226       -11.4894
  61   2.0000      -0.413625       -11.2553
  62   2.0000      -0.409091       -11.1319
  63   2.0000      -0.348276        -9.4771
  64   2.0000      -0.332778        -9.0553
  65   2.0000      -0.328449        -8.9376
  66   2.0000      -0.293584        -7.9888
  67   0.0000       0.029108         0.7921
  68   0.0000       0.069333         1.8866
  69   0.0000       0.117494         3.1972
  70   0.0000       0.125518         3.4155
  71   0.0000       0.130922         3.5626

MULLIKEN ATOMIC CHARGES
-----------------------
   0 S :    0.112071
   1 C :   -0.127734
   2 C :   -0.097306
   3 C :    0.038631
   4 C :   -0.152636
   5 H :    0.014835
   6 C :    0.154587
   7 H :    0.020042
   8 H :   -0.019046
   9 C :   -0.071494
  10 H :    0.012248
  11 H :    0.013508
  12 C :   -0.025900
  13 H :    0.034211
  14 H :    0.030109
  15 H :    0.020490
  16 S :    0.104273
  17 C :   -0.078682
  18 C :   -0.046185
  19 C :   -0.027049
  20 C :   -0.162165
  21 H :    0.025258
  22 C :    0.085928
  23 H :    0.015834
  24 H :    0.007054
  25 C :   -0.044232
  26 H :    0.000457
  27 H :    0.016250
  28 C :   -0.050025
  29 H :    0.039667
  30 H :    0.024559
  31 H :    0.024486
  32 H :    0.045447
  33 H :    0.062508
Sum of atomic charges:   -0.0000000

LOEWDIN ATOMIC CHARGES
----------------------
   0 S :    0.413788
   1 C :   -0.200868
   2 C :   -0.063178
   3 C :   -0.059803
   4 C :   -0.190361
   5 H :    0.031507
   6 C :   -0.013845
   7 H :    0.028504
   8 H :    0.015774
   9 C :   -0.042690
  10 H :    0.022838
  11 H :    0.018505
  12 C :   -0.058737
  13 H :    0.030194
  14 H :    0.018416
  15 H :    0.026812
  16 S :    0.398692
  17 C :   -0.188902
  18 C :   -0.073937
  19 C :   -0.058486
  20 C :   -0.187838
  21 H :    0.036038
  22 C :   -0.026680
  23 H :    0.030586
  24 H :    0.024152
  25 C :   -0.030928
  26 H :    0.013045
  27 H :    0.021405
  28 C :   -0.068126
  29 H :    0.031732
  30 H :    0.018318
  31 H :    0.023419
  32 H :    0.024664
  33 H :    0.035991

  Mayer bond orders larger than 0.100000
B(  0-S ,  1-C ) :   1.1387 B(  0-S ,  4-C ) :   1.1706 B(  1-C ,  2-C ) :   1.5712
B(  1-C , 32-H ) :   0.9792 B(  2-C ,  3-C ) :   1.2576 B(  2-C ,  6-C ) :   1.0309
B(  3-C ,  4-C ) :   1.5498 B(  3-C ,  5-H ) :   0.9917 B(  4-C , 20-C ) :   1.0379
B(  6-C ,  7-H ) :   0.9315 B(  6-C ,  8-H ) :   0.9297 B(  6-C ,  9-C ) :   1.0798
B(  9-C , 10-H ) :   0.9511 B(  9-C , 11-H ) :   0.9524 B(  9-C , 12-C ) :   1.0709
B( 12-C , 13-H ) :   0.9723 B( 12-C , 14-H ) :   0.9779 B( 12-C , 15-H ) :   0.9715
B( 16-S , 17-C ) :   1.1602 B( 16-S , 20-C ) :   1.1267 B( 17-C , 18-C ) :   1.5981
B( 17-C , 33-H ) :   0.9583 B( 18-C , 19-C ) :   1.2547 B( 18-C , 21-H ) :   0.9877
B( 19-C , 20-C ) :   1.5999 B( 19-C , 22-C ) :   1.0493 B( 22-C , 23-H ) :   0.9278
B( 22-C , 24-H ) :   0.9403 B( 22-C , 25-C ) :   1.0654 B( 25-C , 26-H ) :   0.9558
B( 25-C , 27-H ) :   0.9521 B( 25-C , 28-C ) :   1.0798 B( 28-C , 29-H ) :   0.9765
B( 28-C , 30-H ) :   0.9729 B( 28-C , 31-H ) :   0.9714

Dispersion correction           -0.014904365
FINAL SINGLE POINT ENERGY     -1339.873200245899

DIPOLE MOMENT
-------------
                                X             Y             Z
Electronic contribution:    -14.56466      17.82800     -16.03422
Nuclear contribution   :     14.76518     -18.30421      16.44710
                        -----------------------------------------
Total Dipole Moment    :      0.20053      -0.47621       0.41288
                        -----------------------------------------
Magnitude (a.u.)       :      0.66140
Magnitude (Debye)      :      1.68116

Rotational constants in cm-1:     0.019488     0.009231     0.006879
Rotational constants in MHz :   584.231415   276.738508   206.212636

                             ****ORCA TERMINATED NORMALLY****
TOTAL RUN TIME: 0 days 0 hours 0 minutes 36 seconds 297 msec
