                         Program Version 4.2.1 -  RELEASE  -
|  1> ! wB97X-D3 SP def2-SVP
|  2> %pal
|  3> nprocs 16
|  4> end
|  5>
|  6> * xyz 0 1
|  7> S 	 -4.64281 	 75.5423 	 43.7125
|  8> C 	 -4.54173 	 76.8247 	 44.9057
|  9> C 	 -4.49818 	 76.4326 	 46.1816
| 10> C 	 -4.92417 	 75.0577 	 46.2412
| 11> C 	 -4.97461 	 74.4006 	 45.0155
| 12> H 	 -5.21618 	 74.6003 	 47.1566
| 13> C 	 -4.47651 	 77.4104 	 47.371
| 14> H 	 -4.21523 	 78.3875 	 46.999
| 15> H 	 -3.60932 	 77.1103 	 47.9195
| 16> C 	 -5.80727 	 77.418 	 48.0613
| 17> H 	 -6.48162 	 77.7474 	 47.3771
| 18> H 	 -6.06396 	 76.4175 	 48.3079
| 19> C 	 -5.84959 	 78.2657 	 49.301
| 20> H 	 -5.77264 	 79.3761 	 49.1412
| 21> H 	 -6.70149 	 77.9384 	 49.8142
| 22> H 	 -4.96863 	 78.1071 	 49.9883
| 23> S 	 -6.11904 	 72.2519 	 46.1223
| 24> C 	 -6.51876 	 70.8961 	 45.0696
| 25> C 	 -6.28607 	 71.1577 	 43.7474
| 26> C 	 -5.73312 	 72.4663 	 43.4926
| 27> C 	 -5.51561 	 73.1175 	 44.7189
| 28> H 	 -6.47414 	 70.3742 	 43.0706
| 29> C 	 -5.31526 	 72.9267 	 42.1525
| 30> H 	 -4.35986 	 73.4648 	 42.0293
| 31> H 	 -6.0594 	 73.6764 	 41.8408
| 32> C 	 -5.2721 	 71.7684 	 41.0977
| 33> H 	 -6.25455 	 71.3631 	 41.0416
| 34> H 	 -4.57242 	 70.9547 	 41.3254
| 35> C 	 -4.8247 	 72.3815 	 39.7175
| 36> H 	 -4.71028 	 71.6818 	 38.9009
| 37> H 	 -3.9363 	 72.9889 	 39.8281
| 38> H 	 -5.53629 	 73.1173 	 39.3768
| 39> H 	 -4.32335 	 77.8391 	 44.673
| 40> H 	 -6.71448 	 69.8268 	 45.3713
| 41> *
| 42>
| 43>                          ****END OF INPUT****

CARTESIAN COORDINATES (ANGSTROEM)
---------------------------------
  S     -4.642810   75.542300   43.712500
  C     -4.541730   76.824700   44.905700
  C     -4.498180   76.432600   46.181600
  C     -4.924170   75.057700   46.241200
  C     -4.974610   74.400600   45.015500
  H     -5.216180   74.600300   47.156600
  C     -4.476510   77.410400   47.371000
  H     -4.215230   78.387500   46.999000
  H     -3.609320   77.110300   47.919500
  C     -5.807270   77.418000   48.061300
  H     -6.481620   77.747400   47.377100
  H     -6.063960   76.417500   48.307900
  C     -5.849590   78.265700   49.301000
  H     -5.772640   79.376100   49.141200
  H     -6.701490   77.938400   49.814200
  H     -4.968630   78.107100   49.988300
  S     -6.119040   72.251900   46.122300
  C     -6.518760   70.896100   45.069600
  C     -6.286070   71.157700   43.747400
  C     -5.733120   72.466300   43.492600
  C     -5.515610   73.117500   44.718900
  H     -6.474140   70.374200   43.070600
  C     -5.315260   72.926700   42.152500
  H     -4.359860   73.464800   42.029300
  H     -6.059400   73.676400   41.840800
  C     -5.272100   71.768400   41.097700
  H     -6.254550   71.363100   41.041600
  H     -4.572420   70.954700   41.325400
  C     -4.824700   72.381500   39.717500
  H     -4.710280   71.681800   38.900900
  H     -3.936300   72.988900   39.828100
  H     -5.536290   73.117300   39.376800
  H     -4.323350   77.839100   44.673000
  H     -6.714480   69.826800   45.371300

 Total Charge           Charge          ....    0
 Multiplicity           Mult            ....    1
 Number of Electrons    NEL             ....  134
 Basis Dimension        Dim             ....  322

ORBITAL ENERGIES
----------------

  NO   OCC          E(Eh)            E(eV)
   0   2.0000     -88.965662     -2420.8787
   1   2.0000     -88.963785     -2420.8277
   2   2.0000     -10.327565      -281.0273
   3   2.0000     -10.325516      -280.9716
   4   2.0000     -10.317291      -280.7478
   5   2.0000     -10.305918      -280.4383
   6   2.0000     -10.302708      -280.3509
   7   2.0000     -10.296048      -280.1697
   8   2.0000     -10.293961      -280.1129
   9   2.0000     -10.291745      -280.0526
  10   2.0000     -10.291187      -280.0374
  11   2.0000     -10.290434      -280.0169
  12   2.0000     -10.288223      -279.9568
  13   2.0000     -10.278577      -279.6943
  14   2.0000     -10.276860      -279.6476
  15   2.0000     -10.273878      -279.5664
  16   2.0000      -8.080056      -219.8695
  17   2.0000      -8.077910      -219.8111
  18   2.0000      -6.038743      -164.3226
  19   2.0000      -6.036582      -164.2637
  20   2.0000      -6.034793      -164.2151
  21   2.0000      -6.032668      -164.1572
  22   2.0000      -6.030498      -164.0982
  23   2.0000      -6.028389      -164.0408
  24   2.0000      -1.008030       -27.4299
  25   2.0000      -0.982671       -26.7398
  26   2.0000      -0.921909       -25.0864
  27   2.0000      -0.910463       -24.7750
  28   2.0000      -0.876225       -23.8433
  29   2.0000      -0.854002       -23.2386
  30   2.0000      -0.841798       -22.9065
  31   2.0000      -0.813752       -22.1433
  32   2.0000      -0.786220       -21.3941
  33   2.0000      -0.770960       -20.9789
  34   2.0000      -0.717191       -19.5158
  35   2.0000      -0.710382       -19.3305
  36   2.0000      -0.695375       -18.9221
  37   2.0000      -0.661821       -18.0091
  38   2.0000      -0.630259       -17.1502
  39   2.0000      -0.621322       -16.9070
  40   2.0000      -0.602699       -16.4003
  41   2.0000      -0.573025       -15.5928
  42   2.0000      -0.567807       -15.4508
  43   2.0000      -0.563901       -15.3445
  44   2.0000      -0.535839       -14.5809
  45   2.0000      -0.526785       -14.3346
  46   2.0000      -0.517319       -14.0770
  47   2.0000      -0.511351       -13.9146
  48   2.0000      -0.503380       -13.6977
  49   2.0000      -0.500900       -13.6302
  50   2.0000      -0.483913       -13.1679
  51   2.0000      -0.473104       -12.8738
  52   2.0000      -0.471525       -12.8309
  53   2.0000      -0.467877       -12.7316
  54   2.0000      -0.457540       -12.4503
  55   2.0000      -0.456099       -12.4111
  56   2.0000      -0.449850       -12.2411
  57   2.0000      -0.440500       -11.9866
  58   2.0000      -0.434171       -11.8144
  59   2.0000      -0.432282       -11.7630
  60   2.0000      -0.425393       -11.5755
  61   2.0000      -0.418960       -11.4005
  62   2.0000      -0.407834       -11.0977
  63   2.0000      -0.364633        -9.9222
  64   2.0000      -0.332873        -9.0579
  65   2.0000      -0.329902        -8.9771
  66   2.0000      -0.274730        -7.4758
  67   0.0000       0.018244         0.4964
  68   0.0000       0.092010         2.5037
  69   0.0000       0.109663         2.9841
  70   0.0000       0.116129         3.1600
  71   0.0000       0.131896         3.5891

MULLIKEN ATOMIC CHARGES
-----------------------
   0 S :    0.067638
   1 C :   -0.092161
   2 C :   -0.090159
   3 C :   -0.049588
   4 C :   -0.093268
   5 H :    0.012564
   6 C :    0.097650
   7 H :    0.002289
   8 H :    0.023666
   9 C :   -0.023225
  10 H :    0.010066
  11 H :    0.016420
  12 C :   -0.033302
  13 H :    0.038715
  14 H :    0.028183
  15 H :    0.024646
  16 S :    0.081626
  17 C :   -0.084535
  18 C :   -0.040303
  19 C :   -0.026356
  20 C :   -0.104738
  21 H :    0.003002
  22 C :   -0.009503
  23 H :    0.048270
  24 H :    0.045954
  25 C :   -0.080462
  26 H :    0.033777
  27 H :    0.046815
  28 C :   -0.024629
  29 H :    0.035360
  30 H :    0.023260
  31 H :    0.016396
  32 H :    0.026105
  33 H :    0.069828
Sum of atomic charges:   -0.0000000

LOEWDIN ATOMIC CHARGES
----------------------
   0 S :    0.397331
   1 C :   -0.186357
   2 C :   -0.059150
   3 C :   -0.070841
   4 C :   -0.179850
   5 H :    0.015386
   6 C :   -0.017689
   7 H :    0.024621
   8 H :    0.027931
   9 C :   -0.029670
  10 H :    0.018680
  11 H :    0.022669
  12 C :   -0.064702
  13 H :    0.030531
  14 H :    0.021371
  15 H :    0.029073
  16 S :    0.397275
  17 C :   -0.191835
  18 C :   -0.065472
  19 C :   -0.059073
  20 C :   -0.183276
  21 H :    0.025262
  22 C :   -0.049549
  23 H :    0.026923
  24 H :    0.038745
  25 C :   -0.030742
  26 H :    0.018273
  27 H :    0.027526
  28 C :   -0.065036
  29 H :    0.024264
  30 H :    0.023790
  31 H :    0.023012
  32 H :    0.017510
  33 H :    0.043068

  Mayer bond orders larger than 0.100000
B(  0-S ,  1-C ) :   1.1232 B(  0-S ,  4-C ) :   1.1125 B(  1-C ,  2-C ) :   1.6707
B(  1-C , 32-H ) :   0.9537 B(  2-C ,  3-C ) :   1.2095 B(  2-C ,  6-C ) :   1.0292
B(  3-C ,  4-C ) :   1.5833 B(  3-C ,  5-H ) :   0.9767 B(  4-C , 20-C ) :   1.1413
B(  6-C ,  7-H ) :   0.9408 B(  6-C ,  8-H ) :   0.9262 B(  6-C ,  9-C ) :   1.0680
B(  9-C , 10-H ) :   0.9477 B(  9-C , 11-H ) :   0.9536 B(  9-C , 12-C ) :   1.0893
B( 12-C , 13-H ) :   0.9727 B( 12-C , 14-H ) :   0.9722 B( 12-C , 15-H ) :   0.9734
B( 16-S , 17-C ) :   1.1247 B( 16-S , 20-C ) :   1.1304 B( 17-C , 18-C ) :   1.6593
B( 17-C , 33-H ) :   0.9508 B( 18-C , 19-C ) :   1.2183 B( 18-C , 21-H ) :   0.9894
B( 19-C , 20-C ) :   1.5656 B( 19-C , 22-C ) :   1.0326 B( 22-C , 23-H ) :   0.9413
B( 22-C , 24-H ) :   0.9148 B( 22-C , 25-C ) :   1.0739 B( 25-C , 26-H ) :   0.9432
B( 25-C , 27-H ) :   0.9611 B( 25-C , 28-C ) :   1.0790 B( 28-C , 29-H ) :   0.9751
B( 28-C , 30-H ) :   0.9737 B( 28-C , 31-H ) :   0.9732

Dispersion correction           -0.013289302
FINAL SINGLE POINT ENERGY     -1339.864773595942

DIPOLE MOMENT
-------------
                                X             Y             Z
Electronic contribution:     -0.17306      -7.99622       2.31040
Nuclear contribution   :      0.12971       8.08871      -2.35896
                        -----------------------------------------
Total Dipole Moment    :     -0.04335       0.09248      -0.04856
                        -----------------------------------------
Magnitude (a.u.)       :      0.11309
Magnitude (Debye)      :      0.28746

Rotational constants in cm-1:     0.024782     0.007380     0.005818
Rotational constants in MHz :   742.938996   221.256287   174.426907

                             ****ORCA TERMINATED NORMALLY****
TOTAL RUN TIME: 0 days 0 hours 0 minutes 33 seconds 143 msec
