                         Program Version 4.2.1 -  RELEASE  -
|  1> ! wB97X-D3 SP def2-SVP
|  2> %pal
|  3> nprocs 16
|  4> end
|  5>
|  6> * xyz 0 1
|  7> S 	 0.0317692 	 -6.71777 	 88.6173
|  8> C 	 1.4139 	 -6.99755 	 89.7413
|  9> C 	 1.08298 	 -6.68611 	 91.0488
| 10> C 	 -0.370716 	 -6.63861 	 91.1433
| 11> C 	 -1.0693 	 -6.55182 	 89.9648
| 12> H 	 -0.977697 	 -6.76423 	 92.1195
| 13> C 	 1.86404 	 -6.86822 	 92.3236
| 14> H 	 1.58673 	 -5.99863 	 92.9753
| 15> H 	 2.93846 	 -6.65799 	 92.1312
| 16> C 	 1.66795 	 -8.24529 	 93.1208
| 17> H 	 2.2062 	 -8.04638 	 94.0353
| 18> H 	 0.595831 	 -8.35749 	 93.3702
| 19> C 	 2.17683 	 -9.43892 	 92.3259
| 20> H 	 1.62038 	 -9.52305 	 91.3845
| 21> H 	 3.28483 	 -9.48466 	 92.1128
| 22> H 	 1.99308 	 -10.3911 	 92.8307
| 23> S 	 -3.41227 	 -5.33526 	 90.689
| 24> C 	 -4.95467 	 -5.92797 	 90.0296
| 25> C 	 -4.7369 	 -7.03039 	 89.1992
| 26> C 	 -3.36068 	 -7.42748 	 89.037
| 27> C 	 -2.53313 	 -6.64961 	 89.8933
| 28> H 	 -5.56745 	 -7.54631 	 88.6788
| 29> C 	 -3.00443 	 -8.73355 	 88.3158
| 30> H 	 -2.25964 	 -8.4491 	 87.5671
| 31> H 	 -3.84922 	 -8.95697 	 87.7129
| 32> C 	 -2.55308 	 -9.93929 	 89.1523
| 33> H 	 -3.18208 	 -10.0218 	 90.0898
| 34> H 	 -1.564 	 -9.67691 	 89.4838
| 35> C 	 -2.48242 	 -11.2805 	 88.3989
| 36> H 	 -2.3873 	 -12.0702 	 89.0762
| 37> H 	 -1.63265 	 -11.2962 	 87.63
| 38> H 	 -3.43012 	 -11.567 	 87.9878
| 39> H 	 2.43177 	 -7.41406 	 89.5798
| 40> H 	 -5.88697 	 -5.47709 	 90.2218
| 41> *
| 42>
| 43>                          ****END OF INPUT****

CARTESIAN COORDINATES (ANGSTROEM)
---------------------------------
  S      0.031769   -6.717770   88.617300
  C      1.413900   -6.997550   89.741300
  C      1.082980   -6.686110   91.048800
  C     -0.370716   -6.638610   91.143300
  C     -1.069300   -6.551820   89.964800
  H     -0.977697   -6.764230   92.119500
  C      1.864040   -6.868220   92.323600
  H      1.586730   -5.998630   92.975300
  H      2.938460   -6.657990   92.131200
  C      1.667950   -8.245290   93.120800
  H      2.206200   -8.046380   94.035300
  H      0.595831   -8.357490   93.370200
  C      2.176830   -9.438920   92.325900
  H      1.620380   -9.523050   91.384500
  H      3.284830   -9.484660   92.112800
  H      1.993080  -10.391100   92.830700
  S     -3.412270   -5.335260   90.689000
  C     -4.954670   -5.927970   90.029600
  C     -4.736900   -7.030390   89.199200
  C     -3.360680   -7.427480   89.037000
  C     -2.533130   -6.649610   89.893300
  H     -5.567450   -7.546310   88.678800
  C     -3.004430   -8.733550   88.315800
  H     -2.259640   -8.449100   87.567100
  H     -3.849220   -8.956970   87.712900
  C     -2.553080   -9.939290   89.152300
  H     -3.182080  -10.021800   90.089800
  H     -1.564000   -9.676910   89.483800
  C     -2.482420  -11.280500   88.398900
  H     -2.387300  -12.070200   89.076200
  H     -1.632650  -11.296200   87.630000
  H     -3.430120  -11.567000   87.987800
  H      2.431770   -7.414060   89.579800
  H     -5.886970   -5.477090   90.221800

 Total Charge           Charge          ....    0
 Multiplicity           Mult            ....    1
 Number of Electrons    NEL             ....  134
 Basis Dimension        Dim             ....  322

ORBITAL ENERGIES
----------------

  NO   OCC          E(Eh)            E(eV)
   0   2.0000     -88.969434     -2420.9814
   1   2.0000     -88.968132     -2420.9460
   2   2.0000     -10.331841      -281.1437
   3   2.0000     -10.326278      -280.9923
   4   2.0000     -10.323236      -280.9095
   5   2.0000     -10.319199      -280.7997
   6   2.0000     -10.308250      -280.5017
   7   2.0000     -10.304132      -280.3897
   8   2.0000     -10.301678      -280.3229
   9   2.0000     -10.299563      -280.2653
  10   2.0000     -10.298332      -280.2319
  11   2.0000     -10.297978      -280.2222
  12   2.0000     -10.288220      -279.9567
  13   2.0000     -10.287719      -279.9431
  14   2.0000     -10.283874      -279.8384
  15   2.0000     -10.278011      -279.6789
  16   2.0000      -8.082785      -219.9438
  17   2.0000      -8.081832      -219.9178
  18   2.0000      -6.041673      -164.4023
  19   2.0000      -6.040374      -164.3669
  20   2.0000      -6.037557      -164.2903
  21   2.0000      -6.036375      -164.2581
  22   2.0000      -6.033128      -164.1697
  23   2.0000      -6.032714      -164.1585
  24   2.0000      -0.999072       -27.1861
  25   2.0000      -0.975335       -26.5402
  26   2.0000      -0.906179       -24.6584
  27   2.0000      -0.903462       -24.5845
  28   2.0000      -0.864587       -23.5266
  29   2.0000      -0.849651       -23.1202
  30   2.0000      -0.841031       -22.8856
  31   2.0000      -0.805877       -21.9290
  32   2.0000      -0.783492       -21.3199
  33   2.0000      -0.774150       -21.0657
  34   2.0000      -0.708697       -19.2846
  35   2.0000      -0.702176       -19.1072
  36   2.0000      -0.689540       -18.7633
  37   2.0000      -0.662983       -18.0407
  38   2.0000      -0.623286       -16.9605
  39   2.0000      -0.611773       -16.6472
  40   2.0000      -0.591045       -16.0832
  41   2.0000      -0.566901       -15.4262
  42   2.0000      -0.559767       -15.2320
  43   2.0000      -0.540507       -14.7079
  44   2.0000      -0.536045       -14.5865
  45   2.0000      -0.524240       -14.2653
  46   2.0000      -0.515375       -14.0241
  47   2.0000      -0.512432       -13.9440
  48   2.0000      -0.499370       -13.5886
  49   2.0000      -0.491971       -13.3872
  50   2.0000      -0.482149       -13.1200
  51   2.0000      -0.478684       -13.0257
  52   2.0000      -0.470791       -12.8109
  53   2.0000      -0.461214       -12.5503
  54   2.0000      -0.455797       -12.4029
  55   2.0000      -0.449480       -12.2310
  56   2.0000      -0.444581       -12.0977
  57   2.0000      -0.433978       -11.8091
  58   2.0000      -0.430520       -11.7150
  59   2.0000      -0.426327       -11.6009
  60   2.0000      -0.421547       -11.4709
  61   2.0000      -0.419134       -11.4052
  62   2.0000      -0.413298       -11.2464
  63   2.0000      -0.341704        -9.2983
  64   2.0000      -0.331414        -9.0182
  65   2.0000      -0.327745        -8.9184
  66   2.0000      -0.291078        -7.9206
  67   0.0000       0.022668         0.6168
  68   0.0000       0.072232         1.9655
  69   0.0000       0.104303         2.8382
  70   0.0000       0.110756         3.0138
  71   0.0000       0.119368         3.2482

MULLIKEN ATOMIC CHARGES
-----------------------
   0 S :    0.109009
   1 C :   -0.138065
   2 C :   -0.057991
   3 C :   -0.059392
   4 C :   -0.106397
   5 H :    0.051005
   6 C :   -0.003704
   7 H :    0.041734
   8 H :    0.027755
   9 C :   -0.038158
  10 H :    0.035773
  11 H :    0.039077
  12 C :   -0.075598
  13 H :    0.044834
  14 H :    0.038684
  15 H :    0.033333
  16 S :    0.107035
  17 C :   -0.080908
  18 C :   -0.043039
  19 C :   -0.066144
  20 C :   -0.172772
  21 H :    0.031745
  22 C :    0.098048
  23 H :    0.023181
  24 H :   -0.004516
  25 C :   -0.063904
  26 H :    0.038807
  27 H :    0.027174
  28 C :   -0.024606
  29 H :    0.014514
  30 H :    0.050793
  31 H :    0.017230
  32 H :    0.060591
  33 H :    0.044874
Sum of atomic charges:    0.0000000

LOEWDIN ATOMIC CHARGES
----------------------
   0 S :    0.384502
   1 C :   -0.186512
   2 C :   -0.069386
   3 C :   -0.070644
   4 C :   -0.210041
   5 H :    0.041938
   6 C :   -0.043013
   7 H :    0.038984
   8 H :    0.030053
   9 C :   -0.031385
  10 H :    0.025181
  11 H :    0.029161
  12 C :   -0.077045
  13 H :    0.029547
  14 H :    0.030951
  15 H :    0.027386
  16 S :    0.399859
  17 C :   -0.175611
  18 C :   -0.069698
  19 C :   -0.056206
  20 C :   -0.189388
  21 H :    0.035544
  22 C :   -0.033980
  23 H :    0.028740
  24 H :    0.020649
  25 C :   -0.038444
  26 H :    0.031489
  27 H :    0.022889
  28 C :   -0.065101
  29 H :    0.020676
  30 H :    0.037362
  31 H :    0.021583
  32 H :    0.039482
  33 H :    0.020477

  Mayer bond orders larger than 0.100000
B(  0-S ,  1-C ) :   1.1206 B(  0-S ,  4-C ) :   1.0999 B(  1-C ,  2-C ) :   1.6406
B(  1-C , 32-H ) :   0.9590 B(  2-C ,  3-C ) :   1.1812 B(  2-C ,  6-C ) :   1.0503
B(  3-C ,  4-C ) :   1.6257 B(  3-C ,  5-H ) :   0.9734 B(  4-C , 20-C ) :   1.0454
B(  6-C ,  7-H ) :   0.9362 B(  6-C ,  8-H ) :   0.9435 B(  6-C ,  9-C ) :   1.0527
B(  9-C , 10-H ) :   0.9549 B(  9-C , 11-H ) :   0.9550 B(  9-C , 12-C ) :   1.0733
B( 12-C , 13-H ) :   0.9726 B( 12-C , 14-H ) :   0.9748 B( 12-C , 15-H ) :   0.9723
B( 16-S , 17-C ) :   1.1472 B( 16-S , 20-C ) :   1.1556 B( 17-C , 18-C ) :   1.5939
B( 17-C , 20-C ) :   0.1036 B( 17-C , 33-H ) :   0.9763 B( 18-C , 19-C ) :   1.2606
B( 18-C , 21-H ) :   0.9783 B( 19-C , 20-C ) :   1.5464 B( 19-C , 22-C ) :   1.0466
B( 22-C , 23-H ) :   0.9204 B( 22-C , 24-H ) :   0.9317 B( 22-C , 25-C ) :   1.0542
B( 25-C , 26-H ) :   0.9580 B( 25-C , 27-H ) :   0.9496 B( 25-C , 28-C ) :   1.0887
B( 28-C , 29-H ) :   0.9696 B( 28-C , 30-H ) :   0.9743 B( 28-C , 31-H ) :   0.9716

Dispersion correction           -0.015107559
FINAL SINGLE POINT ENERGY     -1339.867061227222

DIPOLE MOMENT
-------------
                                X             Y             Z
Electronic contribution:     -8.69422      22.81464      -6.03658
Nuclear contribution   :      8.73488     -23.43611       6.35548
                        -----------------------------------------
Total Dipole Moment    :      0.04067      -0.62147       0.31889
                        -----------------------------------------
Magnitude (a.u.)       :      0.69969
Magnitude (Debye)      :      1.77848

Rotational constants in cm-1:     0.017239     0.009302     0.007569
Rotational constants in MHz :   516.826324   278.870621   226.905403

                             ****ORCA TERMINATED NORMALLY****
TOTAL RUN TIME: 0 days 0 hours 0 minutes 36 seconds 68 msec
