                         Program Version 4.2.1 -  RELEASE  -
|  1> ! wB97X-D3 SP def2-SVP
|  2> %pal
|  3> nprocs 16
|  4> end
|  5>
|  6> * xyz 0 1
|  7> S 	 -55.5329 	 36.1638 	 116.477
|  8> C 	 -55.6196 	 35.1833 	 115.015
|  9> C 	 -55.4696 	 35.8825 	 113.804
| 10> C 	 -55.3523 	 37.2754 	 114.123
| 11> C 	 -55.358 	 37.5709 	 115.463
| 12> H 	 -55.2639 	 38.0771 	 113.403
| 13> C 	 -55.3718 	 35.3573 	 112.379
| 14> H 	 -56.2972 	 35.5873 	 111.819
| 15> H 	 -55.3331 	 34.2839 	 112.444
| 16> C 	 -54.1845 	 35.8713 	 111.624
| 17> H 	 -54.2465 	 35.3252 	 110.725
| 18> H 	 -54.1336 	 36.9139 	 111.352
| 19> C 	 -52.7935 	 35.5226 	 112.178
| 20> H 	 -52.7629 	 35.2143 	 113.213
| 21> H 	 -52.3295 	 34.6737 	 111.602
| 22> H 	 -52.1388 	 36.3659 	 111.954
| 23> S 	 -56.7719 	 39.1671 	 116.991
| 24> C 	 -56.3731 	 40.8169 	 117.317
| 25> C 	 -55.2245 	 41.1454 	 116.634
| 26> C 	 -54.7192 	 40.1045 	 115.798
| 27> C 	 -55.3795 	 38.9115 	 116.005
| 28> H 	 -54.8363 	 42.1153 	 116.725
| 29> C 	 -53.3971 	 40.2786 	 115.033
| 30> H 	 -53.1536 	 39.2764 	 114.722
| 31> H 	 -52.6771 	 40.5106 	 115.827
| 32> C 	 -53.3 	 41.3459 	 113.872
| 33> H 	 -52.2569 	 41.234 	 113.451
| 34> H 	 -53.3961 	 42.3882 	 114.295
| 35> C 	 -54.3716 	 41.2807 	 112.769
| 36> H 	 -54.4017 	 40.3509 	 112.334
| 37> H 	 -54.2095 	 41.9547 	 111.89
| 38> H 	 -55.3674 	 41.6658 	 113.093
| 39> H 	 -55.7142 	 34.1216 	 115.034
| 40> H 	 -56.9983 	 41.5575 	 117.856
| 41> *
| 42>
| 43>                          ****END OF INPUT****

CARTESIAN COORDINATES (ANGSTROEM)
---------------------------------
  S    -55.532900   36.163800  116.477000
  C    -55.619600   35.183300  115.015000
  C    -55.469600   35.882500  113.804000
  C    -55.352300   37.275400  114.123000
  C    -55.358000   37.570900  115.463000
  H    -55.263900   38.077100  113.403000
  C    -55.371800   35.357300  112.379000
  H    -56.297200   35.587300  111.819000
  H    -55.333100   34.283900  112.444000
  C    -54.184500   35.871300  111.624000
  H    -54.246500   35.325200  110.725000
  H    -54.133600   36.913900  111.352000
  C    -52.793500   35.522600  112.178000
  H    -52.762900   35.214300  113.213000
  H    -52.329500   34.673700  111.602000
  H    -52.138800   36.365900  111.954000
  S    -56.771900   39.167100  116.991000
  C    -56.373100   40.816900  117.317000
  C    -55.224500   41.145400  116.634000
  C    -54.719200   40.104500  115.798000
  C    -55.379500   38.911500  116.005000
  H    -54.836300   42.115300  116.725000
  C    -53.397100   40.278600  115.033000
  H    -53.153600   39.276400  114.722000
  H    -52.677100   40.510600  115.827000
  C    -53.300000   41.345900  113.872000
  H    -52.256900   41.234000  113.451000
  H    -53.396100   42.388200  114.295000
  C    -54.371600   41.280700  112.769000
  H    -54.401700   40.350900  112.334000
  H    -54.209500   41.954700  111.890000
  H    -55.367400   41.665800  113.093000
  H    -55.714200   34.121600  115.034000
  H    -56.998300   41.557500  117.856000

 Total Charge           Charge          ....    0
 Multiplicity           Mult            ....    1
 Number of Electrons    NEL             ....  134
 Basis Dimension        Dim             ....  322

ORBITAL ENERGIES
----------------

  NO   OCC          E(Eh)            E(eV)
   0   2.0000     -88.970576     -2421.0125
   1   2.0000     -88.958206     -2420.6758
   2   2.0000     -10.324852      -280.9535
   3   2.0000     -10.320156      -280.8257
   4   2.0000     -10.314755      -280.6788
   5   2.0000     -10.313785      -280.6524
   6   2.0000     -10.303425      -280.3705
   7   2.0000     -10.301345      -280.3139
   8   2.0000     -10.300524      -280.2915
   9   2.0000     -10.296781      -280.1896
  10   2.0000     -10.293430      -280.0985
  11   2.0000     -10.289703      -279.9970
  12   2.0000     -10.285699      -279.8881
  13   2.0000     -10.280720      -279.7526
  14   2.0000     -10.278210      -279.6843
  15   2.0000     -10.276343      -279.6335
  16   2.0000      -8.084982      -220.0035
  17   2.0000      -8.074119      -219.7079
  18   2.0000      -6.043488      -164.4517
  19   2.0000      -6.039690      -164.3483
  20   2.0000      -6.035616      -164.2375
  21   2.0000      -6.032578      -164.1548
  22   2.0000      -6.028298      -164.0383
  23   2.0000      -6.024991      -163.9483
  24   2.0000      -1.010632       -27.5007
  25   2.0000      -0.983518       -26.7629
  26   2.0000      -0.918831       -25.0027
  27   2.0000      -0.899013       -24.4634
  28   2.0000      -0.870140       -23.6777
  29   2.0000      -0.850505       -23.1434
  30   2.0000      -0.844612       -22.9831
  31   2.0000      -0.813271       -22.1302
  32   2.0000      -0.786127       -21.3916
  33   2.0000      -0.775489       -21.1021
  34   2.0000      -0.709125       -19.2963
  35   2.0000      -0.697285       -18.9741
  36   2.0000      -0.691320       -18.8118
  37   2.0000      -0.660291       -17.9674
  38   2.0000      -0.639242       -17.3947
  39   2.0000      -0.624043       -16.9811
  40   2.0000      -0.589243       -16.0341
  41   2.0000      -0.566476       -15.4146
  42   2.0000      -0.559105       -15.2140
  43   2.0000      -0.549379       -14.9494
  44   2.0000      -0.539878       -14.6908
  45   2.0000      -0.535805       -14.5800
  46   2.0000      -0.525659       -14.3039
  47   2.0000      -0.517125       -14.0717
  48   2.0000      -0.495019       -13.4701
  49   2.0000      -0.493777       -13.4363
  50   2.0000      -0.487080       -13.2541
  51   2.0000      -0.480928       -13.0867
  52   2.0000      -0.470766       -12.8102
  53   2.0000      -0.461516       -12.5585
  54   2.0000      -0.456870       -12.4321
  55   2.0000      -0.449250       -12.2247
  56   2.0000      -0.445358       -12.1188
  57   2.0000      -0.443522       -12.0688
  58   2.0000      -0.431893       -11.7524
  59   2.0000      -0.428406       -11.6575
  60   2.0000      -0.420018       -11.4293
  61   2.0000      -0.411254       -11.1908
  62   2.0000      -0.409822       -11.1518
  63   2.0000      -0.347133        -9.4460
  64   2.0000      -0.332269        -9.0415
  65   2.0000      -0.325531        -8.8582
  66   2.0000      -0.290540        -7.9060
  67   0.0000       0.036249         0.9864
  68   0.0000       0.072010         1.9595
  69   0.0000       0.113023         3.0755
  70   0.0000       0.119147         3.2422
  71   0.0000       0.125550         3.4164

MULLIKEN ATOMIC CHARGES
-----------------------
   0 S :    0.126967
   1 C :   -0.116979
   2 C :   -0.100410
   3 C :    0.035054
   4 C :   -0.153111
   5 H :   -0.002266
   6 C :    0.111761
   7 H :    0.046221
   8 H :    0.010309
   9 C :   -0.072153
  10 H :    0.019864
  11 H :    0.031539
  12 C :   -0.069845
  13 H :    0.045128
  14 H :    0.028867
  15 H :    0.030906
  16 S :    0.096741
  17 C :   -0.097155
  18 C :   -0.028137
  19 C :   -0.034725
  20 C :   -0.155506
  21 H :   -0.003214
  22 C :    0.056019
  23 H :    0.014732
  24 H :    0.041842
  25 C :   -0.088270
  26 H :    0.045412
  27 H :    0.037174
  28 C :   -0.048020
  29 H :    0.017497
  30 H :    0.029264
  31 H :    0.044142
  32 H :    0.031070
  33 H :    0.069283
Sum of atomic charges:    0.0000000

LOEWDIN ATOMIC CHARGES
----------------------
   0 S :    0.407156
   1 C :   -0.192187
   2 C :   -0.058117
   3 C :   -0.057604
   4 C :   -0.203980
   5 H :    0.027646
   6 C :   -0.026288
   7 H :    0.041131
   8 H :    0.029125
   9 C :   -0.045794
  10 H :    0.025885
  11 H :    0.022916
  12 C :   -0.068966
  13 H :    0.024950
  14 H :    0.029396
  15 H :    0.027897
  16 S :    0.423254
  17 C :   -0.199397
  18 C :   -0.069555
  19 C :   -0.064370
  20 C :   -0.202436
  21 H :    0.021100
  22 C :   -0.031963
  23 H :    0.024732
  24 H :    0.038877
  25 C :   -0.043972
  26 H :    0.032705
  27 H :    0.028125
  28 C :   -0.072350
  29 H :    0.008557
  30 H :    0.033540
  31 H :    0.033999
  32 H :    0.017127
  33 H :    0.038859

  Mayer bond orders larger than 0.100000
B(  0-S ,  1-C ) :   1.1349 B(  0-S ,  4-C ) :   1.1424 B(  1-C ,  2-C ) :   1.6195
B(  1-C , 32-H ) :   0.9650 B(  2-C ,  3-C ) :   1.2253 B(  2-C ,  6-C ) :   1.0254
B(  3-C ,  4-C ) :   1.5946 B(  3-C ,  5-H ) :   0.9937 B(  4-C , 20-C ) :   1.0147
B(  6-C ,  7-H ) :   0.9297 B(  6-C ,  8-H ) :   0.9353 B(  6-C ,  9-C ) :   1.0842
B(  9-C , 10-H ) :   0.9534 B(  9-C , 11-H ) :   0.9623 B(  9-C , 12-C ) :   1.0613
B( 12-C , 13-H ) :   0.9797 B( 12-C , 14-H ) :   0.9802 B( 12-C , 15-H ) :   0.9784
B( 16-S , 17-C ) :   1.1554 B( 16-S , 20-C ) :   1.1621 B( 17-C , 18-C ) :   1.6006
B( 17-C , 33-H ) :   0.9650 B( 18-C , 19-C ) :   1.2342 B( 18-C , 21-H ) :   1.0002
B( 19-C , 20-C ) :   1.5914 B( 19-C , 22-C ) :   1.0305 B( 22-C , 23-H ) :   0.9406
B( 22-C , 24-H ) :   0.9433 B( 22-C , 25-C ) :   1.0556 B( 25-C , 26-H ) :   0.9575
B( 25-C , 27-H ) :   0.9580 B( 25-C , 28-C ) :   1.0761 B( 28-C , 29-H ) :   0.9760
B( 28-C , 30-H ) :   0.9698 B( 28-C , 31-H ) :   0.9716

Dispersion correction           -0.014974264
FINAL SINGLE POINT ENERGY     -1339.876343727503

DIPOLE MOMENT
-------------
                                X             Y             Z
Electronic contribution:    -14.88348      -4.25768      25.04879
Nuclear contribution   :     15.14869       4.42033     -25.72556
                        -----------------------------------------
Total Dipole Moment    :      0.26520       0.16265      -0.67678
                        -----------------------------------------
Magnitude (a.u.)       :      0.74486
Magnitude (Debye)      :      1.89328

Rotational constants in cm-1:     0.017664     0.010342     0.007221
Rotational constants in MHz :   529.541165   310.055233   216.475813

                             ****ORCA TERMINATED NORMALLY****
TOTAL RUN TIME: 0 days 0 hours 0 minutes 31 seconds 274 msec
