                         Program Version 4.2.1 -  RELEASE  -
|  1> ! wB97X-D3 SP def2-SVP
|  2> %pal
|  3> nprocs 16
|  4> end
|  5>
|  6> * xyz 0 1
|  7> S 	 -20.2588 	 -4.46075 	 84.3918
|  8> C 	 -19.3779 	 -4.79207 	 82.907
|  9> C 	 -18.0087 	 -4.90477 	 83.2064
| 10> C 	 -17.7338 	 -4.88843 	 84.5926
| 11> C 	 -18.8642 	 -4.52141 	 85.3406
| 12> H 	 -16.6756 	 -4.9317 	 84.9425
| 13> C 	 -16.9578 	 -5.16008 	 82.1378
| 14> H 	 -15.9363 	 -5.16466 	 82.6382
| 15> H 	 -16.9594 	 -4.32678 	 81.5085
| 16> C 	 -17.1419 	 -6.35126 	 81.2589
| 17> H 	 -16.8139 	 -7.28471 	 81.739
| 18> H 	 -18.1822 	 -6.4831 	 81.0648
| 19> C 	 -16.428 	 -6.31878 	 79.8743
| 20> H 	 -16.5494 	 -5.36221 	 79.3683
| 21> H 	 -15.3701 	 -6.74293 	 79.7859
| 22> H 	 -16.9998 	 -6.96735 	 79.2524
| 23> S 	 -20.444 	 -5.03289 	 87.5018
| 24> C 	 -19.8817 	 -4.5959 	 89.1132
| 25> C 	 -18.7614 	 -3.83187 	 89.0425
| 26> C 	 -18.2337 	 -3.71873 	 87.693
| 27> C 	 -19.0321 	 -4.37588 	 86.7547
| 28> H 	 -18.332 	 -3.39364 	 89.992
| 29> C 	 -17.0957 	 -2.70399 	 87.4218
| 30> H 	 -16.38 	 -3.20908 	 86.716
| 31> H 	 -16.6048 	 -2.50063 	 88.409
| 32> C 	 -17.6345 	 -1.45814 	 86.5874
| 33> H 	 -18.2681 	 -0.8459 	 87.1302
| 34> H 	 -18.3118 	 -1.74696 	 85.7366
| 35> C 	 -16.4664 	 -0.697047 	 86.0671
| 36> H 	 -16.8259 	 0.241084 	 85.6584
| 37> H 	 -15.7505 	 -1.26681 	 85.5223
| 38> H 	 -15.9713 	 -0.400868 	 86.9807
| 39> H 	 -19.8297 	 -4.63031 	 81.9339
| 40> H 	 -20.5539 	 -4.71576 	 90.0126
| 41> *
| 42>
| 43>                          ****END OF INPUT****

CARTESIAN COORDINATES (ANGSTROEM)
---------------------------------
  S    -20.258800   -4.460750   84.391800
  C    -19.377900   -4.792070   82.907000
  C    -18.008700   -4.904770   83.206400
  C    -17.733800   -4.888430   84.592600
  C    -18.864200   -4.521410   85.340600
  H    -16.675600   -4.931700   84.942500
  C    -16.957800   -5.160080   82.137800
  H    -15.936300   -5.164660   82.638200
  H    -16.959400   -4.326780   81.508500
  C    -17.141900   -6.351260   81.258900
  H    -16.813900   -7.284710   81.739000
  H    -18.182200   -6.483100   81.064800
  C    -16.428000   -6.318780   79.874300
  H    -16.549400   -5.362210   79.368300
  H    -15.370100   -6.742930   79.785900
  H    -16.999800   -6.967350   79.252400
  S    -20.444000   -5.032890   87.501800
  C    -19.881700   -4.595900   89.113200
  C    -18.761400   -3.831870   89.042500
  C    -18.233700   -3.718730   87.693000
  C    -19.032100   -4.375880   86.754700
  H    -18.332000   -3.393640   89.992000
  C    -17.095700   -2.703990   87.421800
  H    -16.380000   -3.209080   86.716000
  H    -16.604800   -2.500630   88.409000
  C    -17.634500   -1.458140   86.587400
  H    -18.268100   -0.845900   87.130200
  H    -18.311800   -1.746960   85.736600
  C    -16.466400   -0.697047   86.067100
  H    -16.825900    0.241084   85.658400
  H    -15.750500   -1.266810   85.522300
  H    -15.971300   -0.400868   86.980700
  H    -19.829700   -4.630310   81.933900
  H    -20.553900   -4.715760   90.012600

 Total Charge           Charge          ....    0
 Multiplicity           Mult            ....    1
 Number of Electrons    NEL             ....  134
 Basis Dimension        Dim             ....  322

ORBITAL ENERGIES
----------------

  NO   OCC          E(Eh)            E(eV)
   0   2.0000     -88.968239     -2420.9489
   1   2.0000     -88.962450     -2420.7913
   2   2.0000     -10.328444      -281.0513
   3   2.0000     -10.323201      -280.9086
   4   2.0000     -10.318832      -280.7897
   5   2.0000     -10.314005      -280.6583
   6   2.0000     -10.304472      -280.3989
   7   2.0000     -10.303723      -280.3785
   8   2.0000     -10.302958      -280.3577
   9   2.0000     -10.298108      -280.2258
  10   2.0000     -10.297835      -280.2183
  11   2.0000     -10.288351      -279.9603
  12   2.0000     -10.283498      -279.8282
  13   2.0000     -10.281403      -279.7712
  14   2.0000     -10.280437      -279.7449
  15   2.0000     -10.267579      -279.3950
  16   2.0000      -8.083924      -219.9747
  17   2.0000      -8.077746      -219.8067
  18   2.0000      -6.042247      -164.4179
  19   2.0000      -6.038118      -164.3055
  20   2.0000      -6.036363      -164.2578
  21   2.0000      -6.034997      -164.2206
  22   2.0000      -6.032171      -164.1437
  23   2.0000      -6.028354      -164.0399
  24   2.0000      -1.013857       -27.5884
  25   2.0000      -0.984908       -26.8007
  26   2.0000      -0.916682       -24.9442
  27   2.0000      -0.905674       -24.6447
  28   2.0000      -0.871638       -23.7185
  29   2.0000      -0.853081       -23.2135
  30   2.0000      -0.845856       -23.0169
  31   2.0000      -0.813147       -22.1268
  32   2.0000      -0.783020       -21.3071
  33   2.0000      -0.764618       -20.8063
  34   2.0000      -0.705505       -19.1978
  35   2.0000      -0.703059       -19.1312
  36   2.0000      -0.691788       -18.8245
  37   2.0000      -0.660020       -17.9600
  38   2.0000      -0.635418       -17.2906
  39   2.0000      -0.622701       -16.9445
  40   2.0000      -0.591528       -16.0963
  41   2.0000      -0.569051       -15.4847
  42   2.0000      -0.562482       -15.3059
  43   2.0000      -0.555523       -15.1165
  44   2.0000      -0.526907       -14.3379
  45   2.0000      -0.522512       -14.2183
  46   2.0000      -0.519332       -14.1318
  47   2.0000      -0.507993       -13.8232
  48   2.0000      -0.504155       -13.7187
  49   2.0000      -0.498743       -13.5715
  50   2.0000      -0.493403       -13.4262
  51   2.0000      -0.486210       -13.2304
  52   2.0000      -0.474897       -12.9226
  53   2.0000      -0.466224       -12.6866
  54   2.0000      -0.454471       -12.3668
  55   2.0000      -0.452504       -12.3133
  56   2.0000      -0.441614       -12.0169
  57   2.0000      -0.437978       -11.9180
  58   2.0000      -0.433706       -11.8017
  59   2.0000      -0.420525       -11.4431
  60   2.0000      -0.416856       -11.3432
  61   2.0000      -0.414515       -11.2795
  62   2.0000      -0.410251       -11.1635
  63   2.0000      -0.352669        -9.5966
  64   2.0000      -0.335841        -9.1387
  65   2.0000      -0.326176        -8.8757
  66   2.0000      -0.284521        -7.7422
  67   0.0000       0.023100         0.6286
  68   0.0000       0.074659         2.0316
  69   0.0000       0.100985         2.7480
  70   0.0000       0.123798         3.3687
  71   0.0000       0.138431         3.7669

MULLIKEN ATOMIC CHARGES
-----------------------
   0 S :    0.110436
   1 C :   -0.139988
   2 C :   -0.114452
   3 C :    0.024961
   4 C :   -0.153921
   5 H :    0.030697
   6 C :    0.115025
   7 H :    0.023181
   8 H :    0.006617
   9 C :   -0.074811
  10 H :    0.030711
  11 H :    0.020233
  12 C :   -0.062189
  13 H :    0.025400
  14 H :    0.052828
  15 H :    0.016248
  16 S :    0.096304
  17 C :   -0.116101
  18 C :   -0.051656
  19 C :   -0.043755
  20 C :   -0.135251
  21 H :    0.042873
  22 C :    0.033863
  23 H :    0.026466
  24 H :    0.040095
  25 C :   -0.062521
  26 H :    0.007819
  27 H :    0.042343
  28 C :    0.001911
  29 H :    0.029158
  30 H :    0.030265
  31 H :    0.007693
  32 H :    0.059781
  33 H :    0.079740
Sum of atomic charges:    0.0000000

LOEWDIN ATOMIC CHARGES
----------------------
   0 S :    0.440602
   1 C :   -0.211746
   2 C :   -0.055101
   3 C :   -0.074339
   4 C :   -0.205971
   5 H :    0.038512
   6 C :   -0.033456
   7 H :    0.034780
   8 H :    0.023274
   9 C :   -0.039430
  10 H :    0.029365
  11 H :    0.020992
  12 C :   -0.072988
  13 H :    0.022446
  14 H :    0.035044
  15 H :    0.023181
  16 S :    0.401978
  17 C :   -0.193728
  18 C :   -0.081033
  19 C :   -0.059987
  20 C :   -0.211939
  21 H :    0.042799
  22 C :   -0.030657
  23 H :    0.032186
  24 H :    0.034969
  25 C :   -0.034374
  26 H :    0.012817
  27 H :    0.031371
  28 C :   -0.061126
  29 H :    0.028004
  30 H :    0.020282
  31 H :    0.023955
  32 H :    0.027329
  33 H :    0.041987

  Mayer bond orders larger than 0.100000
B(  0-S ,  1-C ) :   1.1455 B(  0-S ,  4-C ) :   1.1968 B(  1-C ,  2-C ) :   1.5524
B(  1-C ,  4-C ) :   0.1095 B(  1-C , 32-H ) :   0.9700 B(  2-C ,  3-C ) :   1.3101
B(  2-C ,  6-C ) :   1.0217 B(  3-C ,  4-C ) :   1.5006 B(  3-C ,  5-H ) :   0.9803
B(  4-C , 20-C ) :   1.0585 B(  6-C ,  7-H ) :   0.9397 B(  6-C ,  8-H ) :   0.9270
B(  6-C ,  9-C ) :   1.0738 B(  9-C , 10-H ) :   0.9513 B(  9-C , 11-H ) :   0.9583
B(  9-C , 12-C ) :   1.0790 B( 12-C , 13-H ) :   0.9723 B( 12-C , 14-H ) :   0.9770
B( 12-C , 15-H ) :   0.9733 B( 16-S , 17-C ) :   1.1420 B( 16-S , 20-C ) :   1.1420
B( 17-C , 18-C ) :   1.6268 B( 17-C , 33-H ) :   0.9589 B( 18-C , 19-C ) :   1.2404
B( 18-C , 21-H ) :   0.9780 B( 19-C , 20-C ) :   1.5777 B( 19-C , 22-C ) :   1.0476
B( 22-C , 23-H ) :   0.9356 B( 22-C , 24-H ) :   0.9389 B( 22-C , 25-C ) :   1.0429
B( 25-C , 26-H ) :   0.9533 B( 25-C , 27-H ) :   0.9564 B( 25-C , 28-C ) :   1.0880
B( 28-C , 29-H ) :   0.9678 B( 28-C , 30-H ) :   0.9767 B( 28-C , 31-H ) :   0.9673

Dispersion correction           -0.014055738
FINAL SINGLE POINT ENERGY     -1339.867463951463

DIPOLE MOMENT
-------------
                                X             Y             Z
Electronic contribution:    -21.47431      -6.75248      15.72094
Nuclear contribution   :     21.87236       7.10665     -15.85156
                        -----------------------------------------
Total Dipole Moment    :      0.39806       0.35417      -0.13061
                        -----------------------------------------
Magnitude (a.u.)       :      0.54858
Magnitude (Debye)      :      1.39439

Rotational constants in cm-1:     0.021127     0.007887     0.006462
Rotational constants in MHz :   633.361413   236.455160   193.736767

                             ****ORCA TERMINATED NORMALLY****
TOTAL RUN TIME: 0 days 0 hours 0 minutes 34 seconds 189 msec
