                         Program Version 4.2.1 -  RELEASE  -
|  1> ! wB97X-D3 SP def2-SVP
|  2> %pal
|  3> nprocs 16
|  4> end
|  5>
|  6> * xyz 0 1
|  7> S 	 2.47132 	 -19.0193 	 85.5062
|  8> C 	 1.06961 	 -19.8975 	 85.9319
|  9> C 	 0.104915 	 -19.0952 	 86.5449
| 10> C 	 0.61122 	 -17.7812 	 86.72
| 11> C 	 1.92012 	 -17.6493 	 86.3216
| 12> H 	 0.103185 	 -17.0241 	 87.1485
| 13> C 	 -1.26462 	 -19.5831 	 87.0264
| 14> H 	 -1.68053 	 -18.9826 	 87.8379
| 15> H 	 -1.11209 	 -20.608 	 87.4265
| 16> C 	 -2.1558 	 -19.8391 	 85.7501
| 17> H 	 -2.27251 	 -18.9816 	 85.0892
| 18> H 	 -1.75257 	 -20.5477 	 85.013
| 19> C 	 -3.57326 	 -20.256 	 86.2132
| 20> H 	 -3.47102 	 -21.2411 	 86.72
| 21> H 	 -3.84694 	 -19.4458 	 86.8928
| 22> H 	 -4.26995 	 -20.3203 	 85.3426
| 23> S 	 2.8313 	 -15.373 	 85.3779
| 24> C 	 3.87607 	 -14.3284 	 86.3389
| 25> C 	 4.16304 	 -14.8827 	 87.56
| 26> C 	 3.52674 	 -16.1562 	 87.6926
| 27> C 	 2.80997 	 -16.5358 	 86.5995
| 28> H 	 4.76677 	 -14.3969 	 88.2746
| 29> C 	 3.60405 	 -16.9435 	 88.9584
| 30> H 	 2.535 	 -17.0454 	 89.3242
| 31> H 	 4.17367 	 -16.4063 	 89.6707
| 32> C 	 4.35705 	 -18.2624 	 88.8745
| 33> H 	 5.3492 	 -17.9741 	 88.5799
| 34> H 	 3.99248 	 -18.9359 	 88.013
| 35> C 	 4.23387 	 -19.0646 	 90.1827
| 36> H 	 3.17294 	 -19.3298 	 90.2612
| 37> H 	 4.56391 	 -18.4968 	 91.1504
| 38> H 	 4.85671 	 -19.921 	 90.1088
| 39> H 	 0.928277 	 -20.9155 	 85.6254
| 40> H 	 4.29335 	 -13.3835 	 86.0264
| 41> *
| 42>
| 43>                          ****END OF INPUT****

CARTESIAN COORDINATES (ANGSTROEM)
---------------------------------
  S      2.471320  -19.019300   85.506200
  C      1.069610  -19.897500   85.931900
  C      0.104915  -19.095200   86.544900
  C      0.611220  -17.781200   86.720000
  C      1.920120  -17.649300   86.321600
  H      0.103185  -17.024100   87.148500
  C     -1.264620  -19.583100   87.026400
  H     -1.680530  -18.982600   87.837900
  H     -1.112090  -20.608000   87.426500
  C     -2.155800  -19.839100   85.750100
  H     -2.272510  -18.981600   85.089200
  H     -1.752570  -20.547700   85.013000
  C     -3.573260  -20.256000   86.213200
  H     -3.471020  -21.241100   86.720000
  H     -3.846940  -19.445800   86.892800
  H     -4.269950  -20.320300   85.342600
  S      2.831300  -15.373000   85.377900
  C      3.876070  -14.328400   86.338900
  C      4.163040  -14.882700   87.560000
  C      3.526740  -16.156200   87.692600
  C      2.809970  -16.535800   86.599500
  H      4.766770  -14.396900   88.274600
  C      3.604050  -16.943500   88.958400
  H      2.535000  -17.045400   89.324200
  H      4.173670  -16.406300   89.670700
  C      4.357050  -18.262400   88.874500
  H      5.349200  -17.974100   88.579900
  H      3.992480  -18.935900   88.013000
  C      4.233870  -19.064600   90.182700
  H      3.172940  -19.329800   90.261200
  H      4.563910  -18.496800   91.150400
  H      4.856710  -19.921000   90.108800
  H      0.928277  -20.915500   85.625400
  H      4.293350  -13.383500   86.026400

 Total Charge           Charge          ....    0
 Multiplicity           Mult            ....    1
 Number of Electrons    NEL             ....  134
 Basis Dimension        Dim             ....  322

ORBITAL ENERGIES
----------------

  NO   OCC          E(Eh)            E(eV)
   0   2.0000     -88.966662     -2420.9059
   1   2.0000     -88.960718     -2420.7442
   2   2.0000     -10.319060      -280.7959
   3   2.0000     -10.313024      -280.6316
   4   2.0000     -10.312378      -280.6141
   5   2.0000     -10.308025      -280.4956
   6   2.0000     -10.302753      -280.3522
   7   2.0000     -10.301714      -280.3239
   8   2.0000     -10.293428      -280.0984
   9   2.0000     -10.289527      -279.9923
  10   2.0000     -10.288470      -279.9635
  11   2.0000     -10.283834      -279.8373
  12   2.0000     -10.283363      -279.8245
  13   2.0000     -10.282208      -279.7931
  14   2.0000     -10.282125      -279.7908
  15   2.0000     -10.279971      -279.7322
  16   2.0000      -8.082871      -219.9461
  17   2.0000      -8.076680      -219.7776
  18   2.0000      -6.041052      -164.3854
  19   2.0000      -6.037058      -164.2767
  20   2.0000      -6.035125      -164.2241
  21   2.0000      -6.034000      -164.1935
  22   2.0000      -6.030841      -164.1075
  23   2.0000      -6.027619      -164.0199
  24   2.0000      -1.018569       -27.7167
  25   2.0000      -0.992714       -27.0131
  26   2.0000      -0.909654       -24.7530
  27   2.0000      -0.907703       -24.6998
  28   2.0000      -0.871937       -23.7266
  29   2.0000      -0.854086       -23.2409
  30   2.0000      -0.846048       -23.0221
  31   2.0000      -0.816225       -22.2106
  32   2.0000      -0.778070       -21.1724
  33   2.0000      -0.765008       -20.8169
  34   2.0000      -0.700584       -19.0639
  35   2.0000      -0.698680       -19.0120
  36   2.0000      -0.684434       -18.6244
  37   2.0000      -0.669255       -18.2113
  38   2.0000      -0.655547       -17.8383
  39   2.0000      -0.622493       -16.9389
  40   2.0000      -0.592889       -16.1333
  41   2.0000      -0.574193       -15.6246
  42   2.0000      -0.563641       -15.3374
  43   2.0000      -0.555492       -15.1157
  44   2.0000      -0.529786       -14.4162
  45   2.0000      -0.523201       -14.2370
  46   2.0000      -0.515646       -14.0314
  47   2.0000      -0.511655       -13.9228
  48   2.0000      -0.504283       -13.7222
  49   2.0000      -0.500109       -13.6087
  50   2.0000      -0.494387       -13.4530
  51   2.0000      -0.480233       -13.0678
  52   2.0000      -0.472771       -12.8648
  53   2.0000      -0.461548       -12.5594
  54   2.0000      -0.458072       -12.4648
  55   2.0000      -0.447812       -12.1856
  56   2.0000      -0.444703       -12.1010
  57   2.0000      -0.441676       -12.0186
  58   2.0000      -0.432299       -11.7635
  59   2.0000      -0.423537       -11.5250
  60   2.0000      -0.419058       -11.4031
  61   2.0000      -0.415755       -11.3133
  62   2.0000      -0.407358       -11.0848
  63   2.0000      -0.338118        -9.2006
  64   2.0000      -0.331369        -9.0170
  65   2.0000      -0.313483        -8.5303
  66   2.0000      -0.309677        -8.4267
  67   0.0000       0.051881         1.4117
  68   0.0000       0.057172         1.5557
  69   0.0000       0.123514         3.3610
  70   0.0000       0.129609         3.5268
  71   0.0000       0.130683         3.5561

MULLIKEN ATOMIC CHARGES
-----------------------
   0 S :    0.143539
   1 C :   -0.125501
   2 C :   -0.082555
   3 C :    0.106370
   4 C :   -0.184683
   5 H :   -0.044069
   6 C :    0.067667
   7 H :    0.035876
   8 H :    0.033761
   9 C :   -0.114332
  10 H :    0.026448
  11 H :    0.030477
  12 C :   -0.047996
  13 H :    0.038405
  14 H :    0.034707
  15 H :    0.044908
  16 S :    0.115173
  17 C :   -0.082809
  18 C :   -0.022344
  19 C :   -0.028616
  20 C :   -0.180305
  21 H :    0.001905
  22 C :    0.099059
  23 H :    0.036230
  24 H :   -0.007967
  25 C :   -0.104775
  26 H :    0.017141
  27 H :    0.042228
  28 C :   -0.042066
  29 H :    0.038833
  30 H :    0.037764
  31 H :    0.031782
  32 H :    0.039078
  33 H :    0.046668
Sum of atomic charges:    0.0000000

LOEWDIN ATOMIC CHARGES
----------------------
   0 S :    0.465061
   1 C :   -0.213121
   2 C :   -0.057077
   3 C :   -0.046003
   4 C :   -0.222866
   5 H :    0.012087
   6 C :   -0.028008
   7 H :    0.031430
   8 H :    0.038101
   9 C :   -0.044900
  10 H :    0.020753
  11 H :    0.023546
  12 C :   -0.069530
  13 H :    0.026624
  14 H :    0.025311
  15 H :    0.029282
  16 S :    0.431100
  17 C :   -0.179590
  18 C :   -0.064185
  19 C :   -0.058572
  20 C :   -0.226286
  21 H :    0.026434
  22 C :   -0.034093
  23 H :    0.036505
  24 H :    0.021045
  25 C :   -0.045473
  26 H :    0.017494
  27 H :    0.024446
  28 C :   -0.067056
  29 H :    0.029051
  30 H :    0.031956
  31 H :    0.020200
  32 H :    0.020481
  33 H :    0.025851

  Mayer bond orders larger than 0.100000
B(  0-S ,  1-C ) :   1.1703 B(  0-S ,  4-C ) :   1.1975 B(  1-C ,  2-C ) :   1.5688
B(  1-C ,  4-C ) :   0.1024 B(  1-C , 32-H ) :   0.9719 B(  2-C ,  3-C ) :   1.2708
B(  2-C ,  6-C ) :   1.0181 B(  3-C ,  4-C ) :   1.5492 B(  3-C ,  5-H ) :   1.0222
B(  4-C , 20-C ) :   0.9639 B(  6-C ,  7-H ) :   0.9535 B(  6-C ,  8-H ) :   0.9402
B(  6-C ,  9-C ) :   1.0348 B(  9-C , 10-H ) :   0.9603 B(  9-C , 11-H ) :   0.9597
B(  9-C , 12-C ) :   1.0736 B( 12-C , 13-H ) :   0.9756 B( 12-C , 14-H ) :   0.9766
B( 12-C , 15-H ) :   0.9748 B( 16-S , 17-C ) :   1.1580 B( 16-S , 20-C ) :   1.1691
B( 17-C , 18-C ) :   1.6068 B( 17-C , 33-H ) :   0.9673 B( 18-C , 19-C ) :   1.2416
B( 18-C , 21-H ) :   0.9999 B( 19-C , 20-C ) :   1.6209 B( 19-C , 22-C ) :   1.0526
B( 22-C , 23-H ) :   0.9287 B( 22-C , 24-H ) :   0.9232 B( 22-C , 25-C ) :   1.0607
B( 25-C , 26-H ) :   0.9508 B( 25-C , 27-H ) :   0.9530 B( 25-C , 28-C ) :   1.0778
B( 28-C , 29-H ) :   0.9743 B( 28-C , 30-H ) :   0.9723 B( 28-C , 31-H ) :   0.9738

Dispersion correction           -0.014511979
FINAL SINGLE POINT ENERGY     -1339.875871023713

DIPOLE MOMENT
-------------
                                X             Y             Z
Electronic contribution:     12.43390      13.45311     -15.14340
Nuclear contribution   :    -12.67655     -13.56927      15.49724
                        -----------------------------------------
Total Dipole Moment    :     -0.24265      -0.11616       0.35384
                        -----------------------------------------
Magnitude (a.u.)       :      0.44450
Magnitude (Debye)      :      1.12983

Rotational constants in cm-1:     0.020358     0.008083     0.006790
Rotational constants in MHz :   610.315847   242.333694   203.545189

                             ****ORCA TERMINATED NORMALLY****
TOTAL RUN TIME: 0 days 0 hours 0 minutes 34 seconds 418 msec
