                         Program Version 4.2.1 -  RELEASE  -
|  1> ! wB97X-D3 SP def2-SVP
|  2> %pal
|  3> nprocs 16
|  4> end
|  5>
|  6> * xyz 0 1
|  7> S 	 -24.7853 	 47.118 	 61.777
|  8> C 	 -23.6746 	 48.404 	 61.3176
|  9> C 	 -24.1577 	 49.6565 	 61.7823
| 10> C 	 -25.3659 	 49.4931 	 62.501
| 11> C 	 -25.7687 	 48.1915 	 62.643
| 12> H 	 -25.9188 	 50.1888 	 63.0173
| 13> C 	 -23.3778 	 50.9656 	 61.8372
| 14> H 	 -23.9121 	 51.752 	 61.2423
| 15> H 	 -22.4122 	 50.6819 	 61.3334
| 16> C 	 -23.0457 	 51.4843 	 63.2911
| 17> H 	 -22.671 	 52.5154 	 63.0476
| 18> H 	 -23.9839 	 51.623 	 63.7925
| 19> C 	 -22.0283 	 50.6665 	 64.1036
| 20> H 	 -21.5754 	 51.3291 	 64.8328
| 21> H 	 -22.3072 	 49.7721 	 64.637
| 22> H 	 -21.2592 	 50.324 	 63.4198
| 23> S 	 -28.4593 	 48.2244 	 63.1379
| 24> C 	 -29.1326 	 47.4261 	 64.5534
| 25> C 	 -28.1228 	 46.8179 	 65.2947
| 26> C 	 -26.8785 	 46.8305 	 64.6067
| 27> C 	 -26.8162 	 47.6864 	 63.4808
| 28> H 	 -28.3329 	 46.3431 	 66.2644
| 29> C 	 -25.6805 	 46.0879 	 65.2154
| 30> H 	 -25.6462 	 46.3481 	 66.2327
| 31> H 	 -24.7736 	 46.5807 	 64.8539
| 32> C 	 -25.598 	 44.5483 	 65.1394
| 33> H 	 -24.6196 	 44.2464 	 65.5536
| 34> H 	 -25.7497 	 44.2948 	 64.0299
| 35> C 	 -26.6934 	 43.9158 	 65.9918
| 36> H 	 -27.6607 	 44.1692 	 65.6789
| 37> H 	 -26.5561 	 44.3046 	 66.9815
| 38> H 	 -26.6123 	 42.7925 	 65.9819
| 39> H 	 -22.699 	 48.2881 	 60.8621
| 40> H 	 -30.2173 	 47.632 	 64.7856
| 41> *
| 42>
| 43>                          ****END OF INPUT****

CARTESIAN COORDINATES (ANGSTROEM)
---------------------------------
  S    -24.785300   47.118000   61.777000
  C    -23.674600   48.404000   61.317600
  C    -24.157700   49.656500   61.782300
  C    -25.365900   49.493100   62.501000
  C    -25.768700   48.191500   62.643000
  H    -25.918800   50.188800   63.017300
  C    -23.377800   50.965600   61.837200
  H    -23.912100   51.752000   61.242300
  H    -22.412200   50.681900   61.333400
  C    -23.045700   51.484300   63.291100
  H    -22.671000   52.515400   63.047600
  H    -23.983900   51.623000   63.792500
  C    -22.028300   50.666500   64.103600
  H    -21.575400   51.329100   64.832800
  H    -22.307200   49.772100   64.637000
  H    -21.259200   50.324000   63.419800
  S    -28.459300   48.224400   63.137900
  C    -29.132600   47.426100   64.553400
  C    -28.122800   46.817900   65.294700
  C    -26.878500   46.830500   64.606700
  C    -26.816200   47.686400   63.480800
  H    -28.332900   46.343100   66.264400
  C    -25.680500   46.087900   65.215400
  H    -25.646200   46.348100   66.232700
  H    -24.773600   46.580700   64.853900
  C    -25.598000   44.548300   65.139400
  H    -24.619600   44.246400   65.553600
  H    -25.749700   44.294800   64.029900
  C    -26.693400   43.915800   65.991800
  H    -27.660700   44.169200   65.678900
  H    -26.556100   44.304600   66.981500
  H    -26.612300   42.792500   65.981900
  H    -22.699000   48.288100   60.862100
  H    -30.217300   47.632000   64.785600

 Total Charge           Charge          ....    0
 Multiplicity           Mult            ....    1
 Number of Electrons    NEL             ....  134
 Basis Dimension        Dim             ....  322

ORBITAL ENERGIES
----------------

  NO   OCC          E(Eh)            E(eV)
   0   2.0000     -88.967569     -2420.9306
   1   2.0000     -88.963237     -2420.8127
   2   2.0000     -10.329240      -281.0729
   3   2.0000     -10.325485      -280.9707
   4   2.0000     -10.322423      -280.8874
   5   2.0000     -10.316800      -280.7344
   6   2.0000     -10.308707      -280.5142
   7   2.0000     -10.303287      -280.3667
   8   2.0000     -10.301844      -280.3274
   9   2.0000     -10.300151      -280.2813
  10   2.0000     -10.294903      -280.1385
  11   2.0000     -10.291729      -280.0522
  12   2.0000     -10.284241      -279.8484
  13   2.0000     -10.282905      -279.8121
  14   2.0000     -10.277650      -279.6691
  15   2.0000     -10.272502      -279.5290
  16   2.0000      -8.082741      -219.9426
  17   2.0000      -8.077806      -219.8083
  18   2.0000      -6.041073      -164.3859
  19   2.0000      -6.037058      -164.2767
  20   2.0000      -6.036247      -164.2546
  21   2.0000      -6.033776      -164.1874
  22   2.0000      -6.032152      -164.1432
  23   2.0000      -6.028833      -164.0529
  24   2.0000      -1.010125       -27.4869
  25   2.0000      -0.983048       -26.7501
  26   2.0000      -0.907566       -24.6961
  27   2.0000      -0.906917       -24.6785
  28   2.0000      -0.869072       -23.6486
  29   2.0000      -0.850599       -23.1460
  30   2.0000      -0.843751       -22.9596
  31   2.0000      -0.813452       -22.1351
  32   2.0000      -0.785108       -21.3639
  33   2.0000      -0.771402       -20.9909
  34   2.0000      -0.710492       -19.3335
  35   2.0000      -0.696192       -18.9444
  36   2.0000      -0.685896       -18.6642
  37   2.0000      -0.663941       -18.0667
  38   2.0000      -0.642185       -17.4747
  39   2.0000      -0.618350       -16.8262
  40   2.0000      -0.595269       -16.1981
  41   2.0000      -0.565766       -15.3953
  42   2.0000      -0.554927       -15.1003
  43   2.0000      -0.550247       -14.9730
  44   2.0000      -0.541872       -14.7451
  45   2.0000      -0.536786       -14.6067
  46   2.0000      -0.518695       -14.1144
  47   2.0000      -0.514532       -14.0011
  48   2.0000      -0.504088       -13.7169
  49   2.0000      -0.495431       -13.4814
  50   2.0000      -0.486699       -13.2438
  51   2.0000      -0.482245       -13.1226
  52   2.0000      -0.471513       -12.8305
  53   2.0000      -0.466251       -12.6873
  54   2.0000      -0.456502       -12.4220
  55   2.0000      -0.448294       -12.1987
  56   2.0000      -0.439480       -11.9589
  57   2.0000      -0.438122       -11.9219
  58   2.0000      -0.427701       -11.6383
  59   2.0000      -0.423979       -11.5371
  60   2.0000      -0.418697       -11.3933
  61   2.0000      -0.415536       -11.3073
  62   2.0000      -0.414773       -11.2865
  63   2.0000      -0.339937        -9.2502
  64   2.0000      -0.334489        -9.1019
  65   2.0000      -0.326023        -8.8715
  66   2.0000      -0.294833        -8.0228
  67   0.0000       0.029013         0.7895
  68   0.0000       0.070379         1.9151
  69   0.0000       0.111346         3.0299
  70   0.0000       0.116044         3.1577
  71   0.0000       0.129151         3.5144

MULLIKEN ATOMIC CHARGES
-----------------------
   0 S :    0.132791
   1 C :   -0.133366
   2 C :   -0.069520
   3 C :    0.069592
   4 C :   -0.177094
   5 H :   -0.026724
   6 C :    0.013454
   7 H :    0.051576
   8 H :    0.022733
   9 C :   -0.077562
  10 H :    0.038580
  11 H :    0.031013
  12 C :   -0.026069
  13 H :    0.034674
  14 H :    0.041878
  15 H :    0.017497
  16 S :    0.097170
  17 C :   -0.125621
  18 C :   -0.033183
  19 C :   -0.036333
  20 C :   -0.159581
  21 H :    0.038019
  22 C :    0.055558
  23 H :    0.000956
  24 H :    0.020213
  25 C :   -0.057602
  26 H :    0.038203
  27 H :    0.042169
  28 C :   -0.044052
  29 H :    0.027611
  30 H :    0.014059
  31 H :    0.043627
  32 H :    0.048995
  33 H :    0.086337
Sum of atomic charges:   -0.0000000

LOEWDIN ATOMIC CHARGES
----------------------
   0 S :    0.438917
   1 C :   -0.206555
   2 C :   -0.061960
   3 C :   -0.054428
   4 C :   -0.215519
   5 H :    0.016059
   6 C :   -0.037214
   7 H :    0.038336
   8 H :    0.029728
   9 C :   -0.037426
  10 H :    0.033104
  11 H :    0.018919
  12 C :   -0.065768
  13 H :    0.030041
  14 H :    0.028058
  15 H :    0.024842
  16 S :    0.401993
  17 C :   -0.190608
  18 C :   -0.076928
  19 C :   -0.052774
  20 C :   -0.201534
  21 H :    0.038657
  22 C :   -0.038981
  23 H :    0.019938
  24 H :    0.026964
  25 C :   -0.036176
  26 H :    0.028885
  27 H :    0.031312
  28 C :   -0.064197
  29 H :    0.015052
  30 H :    0.018972
  31 H :    0.033139
  32 H :    0.027074
  33 H :    0.040079

  Mayer bond orders larger than 0.100000
B(  0-S ,  1-C ) :   1.1497 B(  0-S ,  4-C ) :   1.1674 B(  1-C ,  2-C ) :   1.5811
B(  1-C , 32-H ) :   0.9668 B(  2-C ,  3-C ) :   1.2412 B(  2-C ,  6-C ) :   1.0279
B(  3-C ,  4-C ) :   1.5739 B(  3-C ,  5-H ) :   1.0044 B(  4-C , 20-C ) :   1.0247
B(  6-C ,  7-H ) :   0.9379 B(  6-C ,  8-H ) :   0.9449 B(  6-C ,  9-C ) :   1.0698
B(  9-C , 10-H ) :   0.9562 B(  9-C , 11-H ) :   0.9559 B(  9-C , 12-C ) :   1.0614
B( 12-C , 13-H ) :   0.9743 B( 12-C , 14-H ) :   0.9766 B( 12-C , 15-H ) :   0.9748
B( 16-S , 17-C ) :   1.1729 B( 16-S , 20-C ) :   1.1488 B( 17-C , 18-C ) :   1.5645
B( 17-C , 20-C ) :   0.1097 B( 17-C , 33-H ) :   0.9607 B( 18-C , 19-C ) :   1.2654
B( 18-C , 21-H ) :   0.9834 B( 19-C , 20-C ) :   1.5624 B( 19-C , 22-C ) :   1.0377
B( 22-C , 23-H ) :   0.9345 B( 22-C , 24-H ) :   0.9329 B( 22-C , 25-C ) :   1.0647
B( 25-C , 26-H ) :   0.9537 B( 25-C , 27-H ) :   0.9530 B( 25-C , 28-C ) :   1.0804
B( 28-C , 29-H ) :   0.9709 B( 28-C , 30-H ) :   0.9727 B( 28-C , 31-H ) :   0.9711

Dispersion correction           -0.014826985
FINAL SINGLE POINT ENERGY     -1339.875152888422

DIPOLE MOMENT
-------------
                                X             Y             Z
Electronic contribution:    -14.57849      -0.37002     -13.57440
Nuclear contribution   :     14.89496       0.58641      14.11858
                        -----------------------------------------
Total Dipole Moment    :      0.31646       0.21639       0.54418
                        -----------------------------------------
Magnitude (a.u.)       :      0.66566
Magnitude (Debye)      :      1.69198

Rotational constants in cm-1:     0.020356     0.008240     0.007356
Rotational constants in MHz :   610.249991   247.034096   220.536453

                             ****ORCA TERMINATED NORMALLY****
TOTAL RUN TIME: 0 days 0 hours 0 minutes 32 seconds 784 msec
