                         Program Version 4.2.1 -  RELEASE  -
|  1> ! wB97X-D3 SP def2-SVP
|  2> %pal
|  3> nprocs 16
|  4> end
|  5>
|  6> * xyz 0 1
|  7> S 	 -5.30296 	 42.1943 	 34.9409
|  8> C 	 -4.88451 	 40.787 	 35.8984
|  9> C 	 -4.67756 	 41.1865 	 37.2374
| 10> C 	 -4.73006 	 42.5903 	 37.4431
| 11> C 	 -4.95317 	 43.2645 	 36.2474
| 12> H 	 -4.64051 	 43.1559 	 38.3188
| 13> C 	 -4.4951 	 40.2478 	 38.4081
| 14> H 	 -4.54729 	 39.2389 	 37.974
| 15> H 	 -5.27751 	 40.5076 	 39.1012
| 16> C 	 -3.15603 	 40.2218 	 39.1951
| 17> H 	 -2.26219 	 40.1364 	 38.5186
| 18> H 	 -2.95452 	 41.1693 	 39.7277
| 19> C 	 -3.21103 	 39.1788 	 40.3222
| 20> H 	 -4.01596 	 39.3433 	 40.9778
| 21> H 	 -3.45934 	 38.3128 	 39.8341
| 22> H 	 -2.19414 	 39.0818 	 40.8042
| 23> S 	 -3.78001 	 45.5734 	 36.9438
| 24> C 	 -4.30984 	 47.0591 	 36.3505
| 25> C 	 -5.42029 	 46.8819 	 35.5599
| 26> C 	 -5.80613 	 45.51 	 35.3496
| 27> C 	 -5.01617 	 44.7074 	 36.0785
| 28> H 	 -5.90964 	 47.6981 	 35.1857
| 29> C 	 -6.91317 	 45.0262 	 34.4246
| 30> H 	 -7.85839 	 45.5299 	 34.6794
| 31> H 	 -7.24066 	 44.0056 	 34.5932
| 32> C 	 -6.46918 	 45.1909 	 33.0352
| 33> H 	 -5.38063 	 45.0216 	 32.9735
| 34> H 	 -6.54529 	 46.252 	 32.7686
| 35> C 	 -7.21338 	 44.4398 	 31.9938
| 36> H 	 -6.84126 	 44.7048 	 31.0221
| 37> H 	 -8.23447 	 44.5877 	 31.9771
| 38> H 	 -6.98203 	 43.3454 	 32.1601
| 39> H 	 -4.87276 	 39.7514 	 35.5941
| 40> H 	 -3.88451 	 48.0334 	 36.5915
| 41> *
| 42>
| 43>                          ****END OF INPUT****

CARTESIAN COORDINATES (ANGSTROEM)
---------------------------------
  S     -5.302960   42.194300   34.940900
  C     -4.884510   40.787000   35.898400
  C     -4.677560   41.186500   37.237400
  C     -4.730060   42.590300   37.443100
  C     -4.953170   43.264500   36.247400
  H     -4.640510   43.155900   38.318800
  C     -4.495100   40.247800   38.408100
  H     -4.547290   39.238900   37.974000
  H     -5.277510   40.507600   39.101200
  C     -3.156030   40.221800   39.195100
  H     -2.262190   40.136400   38.518600
  H     -2.954520   41.169300   39.727700
  C     -3.211030   39.178800   40.322200
  H     -4.015960   39.343300   40.977800
  H     -3.459340   38.312800   39.834100
  H     -2.194140   39.081800   40.804200
  S     -3.780010   45.573400   36.943800
  C     -4.309840   47.059100   36.350500
  C     -5.420290   46.881900   35.559900
  C     -5.806130   45.510000   35.349600
  C     -5.016170   44.707400   36.078500
  H     -5.909640   47.698100   35.185700
  C     -6.913170   45.026200   34.424600
  H     -7.858390   45.529900   34.679400
  H     -7.240660   44.005600   34.593200
  C     -6.469180   45.190900   33.035200
  H     -5.380630   45.021600   32.973500
  H     -6.545290   46.252000   32.768600
  C     -7.213380   44.439800   31.993800
  H     -6.841260   44.704800   31.022100
  H     -8.234470   44.587700   31.977100
  H     -6.982030   43.345400   32.160100
  H     -4.872760   39.751400   35.594100
  H     -3.884510   48.033400   36.591500

 Total Charge           Charge          ....    0
 Multiplicity           Mult            ....    1
 Number of Electrons    NEL             ....  134
 Basis Dimension        Dim             ....  322

ORBITAL ENERGIES
----------------

  NO   OCC          E(Eh)            E(eV)
   0   2.0000     -88.969324     -2420.9784
   1   2.0000     -88.961653     -2420.7696
   2   2.0000     -10.326775      -281.0058
   3   2.0000     -10.318109      -280.7700
   4   2.0000     -10.314683      -280.6768
   5   2.0000     -10.312339      -280.6130
   6   2.0000     -10.302115      -280.3348
   7   2.0000     -10.298436      -280.2347
   8   2.0000     -10.291820      -280.0547
   9   2.0000     -10.288482      -279.9638
  10   2.0000     -10.287609      -279.9401
  11   2.0000     -10.286887      -279.9204
  12   2.0000     -10.286321      -279.9050
  13   2.0000     -10.276072      -279.6261
  14   2.0000     -10.271068      -279.4900
  15   2.0000     -10.268273      -279.4139
  16   2.0000      -8.083607      -219.9661
  17   2.0000      -8.078015      -219.8140
  18   2.0000      -6.042116      -164.4143
  19   2.0000      -6.038155      -164.3066
  20   2.0000      -6.036439      -164.2599
  21   2.0000      -6.034434      -164.2053
  22   2.0000      -6.032237      -164.1455
  23   2.0000      -6.028819      -164.0525
  24   2.0000      -1.016179       -27.6516
  25   2.0000      -0.988598       -26.9011
  26   2.0000      -0.923306       -25.1244
  27   2.0000      -0.910072       -24.7643
  28   2.0000      -0.872034       -23.7293
  29   2.0000      -0.857931       -23.3455
  30   2.0000      -0.850886       -23.1538
  31   2.0000      -0.813559       -22.1381
  32   2.0000      -0.788944       -21.4682
  33   2.0000      -0.772281       -21.0148
  34   2.0000      -0.704000       -19.1568
  35   2.0000      -0.699376       -19.0310
  36   2.0000      -0.692459       -18.8428
  37   2.0000      -0.670233       -18.2380
  38   2.0000      -0.640348       -17.4248
  39   2.0000      -0.619058       -16.8454
  40   2.0000      -0.605618       -16.4797
  41   2.0000      -0.573651       -15.6098
  42   2.0000      -0.566386       -15.4122
  43   2.0000      -0.562776       -15.3139
  44   2.0000      -0.536136       -14.5890
  45   2.0000      -0.527354       -14.3500
  46   2.0000      -0.525673       -14.3043
  47   2.0000      -0.514293       -13.9946
  48   2.0000      -0.511082       -13.9073
  49   2.0000      -0.502112       -13.6632
  50   2.0000      -0.493053       -13.4167
  51   2.0000      -0.480084       -13.0638
  52   2.0000      -0.470206       -12.7949
  53   2.0000      -0.467751       -12.7282
  54   2.0000      -0.462088       -12.5741
  55   2.0000      -0.449931       -12.2432
  56   2.0000      -0.444550       -12.0968
  57   2.0000      -0.441118       -12.0034
  58   2.0000      -0.437090       -11.8938
  59   2.0000      -0.423195       -11.5157
  60   2.0000      -0.422162       -11.4876
  61   2.0000      -0.411032       -11.1848
  62   2.0000      -0.398864       -10.8536
  63   2.0000      -0.354546        -9.6477
  64   2.0000      -0.331556        -9.0221
  65   2.0000      -0.329291        -8.9605
  66   2.0000      -0.287559        -7.8249
  67   0.0000       0.032553         0.8858
  68   0.0000       0.081556         2.2193
  69   0.0000       0.104607         2.8465
  70   0.0000       0.129396         3.5210
  71   0.0000       0.138876         3.7790

MULLIKEN ATOMIC CHARGES
-----------------------
   0 S :    0.108095
   1 C :   -0.110306
   2 C :   -0.079640
   3 C :    0.023593
   4 C :   -0.126843
   5 H :   -0.003624
   6 C :    0.060162
   7 H :    0.014490
   8 H :    0.035892
   9 C :   -0.111682
  10 H :    0.038018
  11 H :    0.023432
  12 C :    0.007259
  13 H :    0.018413
  14 H :   -0.003933
  15 H :    0.050789
  16 S :    0.109659
  17 C :   -0.079197
  18 C :   -0.009206
  19 C :   -0.059406
  20 C :   -0.143132
  21 H :   -0.024618
  22 C :    0.091406
  23 H :    0.024446
  24 H :    0.010461
  25 C :   -0.104288
  26 H :    0.037920
  27 H :    0.018915
  28 C :    0.011005
  29 H :    0.023123
  30 H :    0.013975
  31 H :    0.031108
  32 H :    0.044093
  33 H :    0.059622
Sum of atomic charges:    0.0000000

LOEWDIN ATOMIC CHARGES
----------------------
   0 S :    0.431379
   1 C :   -0.210642
   2 C :   -0.056195
   3 C :   -0.066980
   4 C :   -0.188421
   5 H :    0.020830
   6 C :   -0.032357
   7 H :    0.029861
   8 H :    0.034165
   9 C :   -0.045631
  10 H :    0.028236
  11 H :    0.018830
  12 C :   -0.056276
  13 H :    0.020032
  14 H :    0.009743
  15 H :    0.038455
  16 S :    0.434769
  17 C :   -0.203320
  18 C :   -0.059714
  19 C :   -0.054832
  20 C :   -0.196495
  21 H :    0.013010
  22 C :   -0.037713
  23 H :    0.034057
  24 H :    0.016987
  25 C :   -0.051752
  26 H :    0.029598
  27 H :    0.023333
  28 C :   -0.055723
  29 H :    0.026218
  30 H :    0.013556
  31 H :    0.030207
  32 H :    0.028267
  33 H :    0.034521

  Mayer bond orders larger than 0.100000
B(  0-S ,  1-C ) :   1.1280 B(  0-S ,  4-C ) :   1.1695 B(  1-C ,  2-C ) :   1.5897
B(  1-C , 32-H ) :   0.9701 B(  2-C ,  3-C ) :   1.2394 B(  2-C ,  6-C ) :   1.0352
B(  3-C ,  4-C ) :   1.5377 B(  3-C ,  5-H ) :   1.0043 B(  4-C , 20-C ) :   1.0274
B(  6-C ,  7-H ) :   0.9397 B(  6-C ,  8-H ) :   0.9364 B(  6-C ,  9-C ) :   1.0640
B(  9-C , 10-H ) :   0.9575 B(  9-C , 11-H ) :   0.9548 B(  9-C , 12-C ) :   1.0727
B( 12-C , 13-H ) :   0.9717 B( 12-C , 14-H ) :   0.9734 B( 12-C , 15-H ) :   0.9726
B( 16-S , 17-C ) :   1.1571 B( 16-S , 20-C ) :   1.1496 B( 17-C , 18-C ) :   1.6028
B( 17-C , 33-H ) :   0.9688 B( 18-C , 19-C ) :   1.2171 B( 18-C , 21-H ) :   1.0075
B( 19-C , 20-C ) :   1.6201 B( 19-C , 22-C ) :   1.0486 B( 22-C , 23-H ) :   0.9164
B( 22-C , 24-H ) :   0.9362 B( 22-C , 25-C ) :   1.0487 B( 25-C , 26-H ) :   0.9559
B( 25-C , 27-H ) :   0.9454 B( 25-C , 28-C ) :   1.1029 B( 28-C , 29-H ) :   0.9685
B( 28-C , 30-H ) :   0.9683 B( 28-C , 31-H ) :   0.9708

Dispersion correction           -0.014031511
FINAL SINGLE POINT ENERGY     -1339.874321742317

DIPOLE MOMENT
-------------
                                X             Y             Z
Electronic contribution:      3.45990      10.94634      -1.47775
Nuclear contribution   :     -3.68814     -10.91407       1.57078
                        -----------------------------------------
Total Dipole Moment    :     -0.22824       0.03227       0.09303
                        -----------------------------------------
Magnitude (a.u.)       :      0.24857
Magnitude (Debye)      :      0.63182

Rotational constants in cm-1:     0.023038     0.007884     0.006095
Rotational constants in MHz :   690.662206   236.364221   182.708639

                             ****ORCA TERMINATED NORMALLY****
TOTAL RUN TIME: 0 days 0 hours 0 minutes 33 seconds 371 msec
