                         Program Version 4.2.1 -  RELEASE  -
|  1> ! wB97X-D3 SP def2-SVP
|  2> %pal
|  3> nprocs 16
|  4> end
|  5>
|  6> * xyz 0 1
|  7> S 	 1.82494 	 -3.47096 	 79.9819
|  8> C 	 0.482688 	 -4.30334 	 79.26
|  9> C 	 -0.758237 	 -3.65157 	 79.5368
| 10> C 	 -0.558829 	 -2.4371 	 80.2098
| 11> C 	 0.807786 	 -2.13495 	 80.3773
| 12> H 	 -1.37881 	 -1.82518 	 80.5484
| 13> C 	 -2.13497 	 -4.31563 	 79.2536
| 14> H 	 -2.24515 	 -5.08674 	 80.0975
| 15> H 	 -2.06342 	 -4.84635 	 78.317
| 16> C 	 -3.42905 	 -3.46868 	 79.3559
| 17> H 	 -4.31959 	 -4.0878 	 79.5199
| 18> H 	 -3.31876 	 -2.83969 	 80.2767
| 19> C 	 -3.72297 	 -2.66292 	 78.0576
| 20> H 	 -3.72029 	 -3.2944 	 77.1468
| 21> H 	 -4.66377 	 -2.12613 	 78.0606
| 22> H 	 -3.04912 	 -1.85795 	 77.9797
| 23> S 	 1.56594 	 -1.17817 	 82.7554
| 24> C 	 2.10267 	 0.504033 	 82.8745
| 25> C 	 1.82414 	 1.25594 	 81.7807
| 26> C 	 1.36469 	 0.462175 	 80.7046
| 27> C 	 1.34174 	 -0.896133 	 81.0409
| 28> H 	 2.10231 	 2.24782 	 81.8103
| 29> C 	 1.047 	 1.00648 	 79.366
| 30> H 	 0.229276 	 0.422379 	 78.9765
| 31> H 	 1.79977 	 0.712368 	 78.6096
| 32> C 	 0.629002 	 2.4911 	 79.4044
| 33> H 	 0.40791 	 2.84535 	 78.3701
| 34> H 	 1.46195 	 3.13139 	 79.5139
| 35> C 	 -0.54072 	 2.8341 	 80.2782
| 36> H 	 -1.46863 	 3.03421 	 79.7375
| 37> H 	 -0.25427 	 3.8062 	 80.6361
| 38> H 	 -0.613234 	 2.18302 	 81.1435
| 39> H 	 0.423013 	 -5.26732 	 78.7771
| 40> H 	 2.46595 	 0.932301 	 83.7873
| 41> *
| 42>
| 43>                          ****END OF INPUT****

CARTESIAN COORDINATES (ANGSTROEM)
---------------------------------
  S      1.824940   -3.470960   79.981900
  C      0.482688   -4.303340   79.260000
  C     -0.758237   -3.651570   79.536800
  C     -0.558829   -2.437100   80.209800
  C      0.807786   -2.134950   80.377300
  H     -1.378810   -1.825180   80.548400
  C     -2.134970   -4.315630   79.253600
  H     -2.245150   -5.086740   80.097500
  H     -2.063420   -4.846350   78.317000
  C     -3.429050   -3.468680   79.355900
  H     -4.319590   -4.087800   79.519900
  H     -3.318760   -2.839690   80.276700
  C     -3.722970   -2.662920   78.057600
  H     -3.720290   -3.294400   77.146800
  H     -4.663770   -2.126130   78.060600
  H     -3.049120   -1.857950   77.979700
  S      1.565940   -1.178170   82.755400
  C      2.102670    0.504033   82.874500
  C      1.824140    1.255940   81.780700
  C      1.364690    0.462175   80.704600
  C      1.341740   -0.896133   81.040900
  H      2.102310    2.247820   81.810300
  C      1.047000    1.006480   79.366000
  H      0.229276    0.422379   78.976500
  H      1.799770    0.712368   78.609600
  C      0.629002    2.491100   79.404400
  H      0.407910    2.845350   78.370100
  H      1.461950    3.131390   79.513900
  C     -0.540720    2.834100   80.278200
  H     -1.468630    3.034210   79.737500
  H     -0.254270    3.806200   80.636100
  H     -0.613234    2.183020   81.143500
  H      0.423013   -5.267320   78.777100
  H      2.465950    0.932301   83.787300

 Total Charge           Charge          ....    0
 Multiplicity           Mult            ....    1
 Number of Electrons    NEL             ....  134
 Basis Dimension        Dim             ....  322

ORBITAL ENERGIES
----------------

  NO   OCC          E(Eh)            E(eV)
   0   2.0000     -88.973236     -2421.0848
   1   2.0000     -88.961546     -2420.7667
   2   2.0000     -10.329154      -281.0706
   3   2.0000     -10.322840      -280.8988
   4   2.0000     -10.311369      -280.5866
   5   2.0000     -10.310662      -280.5674
   6   2.0000     -10.302408      -280.3428
   7   2.0000     -10.301434      -280.3163
   8   2.0000     -10.301265      -280.3117
   9   2.0000     -10.296392      -280.1791
  10   2.0000     -10.292445      -280.0717
  11   2.0000     -10.285538      -279.8837
  12   2.0000     -10.283934      -279.8401
  13   2.0000     -10.282619      -279.8043
  14   2.0000     -10.275667      -279.6151
  15   2.0000     -10.272519      -279.5295
  16   2.0000      -8.087720      -220.0781
  17   2.0000      -8.076281      -219.7668
  18   2.0000      -6.046100      -164.5228
  19   2.0000      -6.042196      -164.4165
  20   2.0000      -6.038714      -164.3218
  21   2.0000      -6.034635      -164.2108
  22   2.0000      -6.031045      -164.1131
  23   2.0000      -6.026947      -164.0016
  24   2.0000      -1.004296       -27.3283
  25   2.0000      -0.983551       -26.7638
  26   2.0000      -0.912980       -24.8434
  27   2.0000      -0.904267       -24.6064
  28   2.0000      -0.864040       -23.5117
  29   2.0000      -0.850018       -23.1302
  30   2.0000      -0.847713       -23.0675
  31   2.0000      -0.814231       -22.1564
  32   2.0000      -0.784068       -21.3356
  33   2.0000      -0.770363       -20.9626
  34   2.0000      -0.709743       -19.3131
  35   2.0000      -0.700118       -19.0512
  36   2.0000      -0.687259       -18.7013
  37   2.0000      -0.659274       -17.9398
  38   2.0000      -0.631426       -17.1820
  39   2.0000      -0.623844       -16.9757
  40   2.0000      -0.597829       -16.2678
  41   2.0000      -0.568858       -15.4794
  42   2.0000      -0.558449       -15.1962
  43   2.0000      -0.546358       -14.8672
  44   2.0000      -0.541562       -14.7367
  45   2.0000      -0.534365       -14.5408
  46   2.0000      -0.517412       -14.0795
  47   2.0000      -0.506110       -13.7719
  48   2.0000      -0.498877       -13.5751
  49   2.0000      -0.490305       -13.3419
  50   2.0000      -0.486655       -13.2426
  51   2.0000      -0.478218       -13.0130
  52   2.0000      -0.468970       -12.7613
  53   2.0000      -0.467737       -12.7278
  54   2.0000      -0.458933       -12.4882
  55   2.0000      -0.450523       -12.2594
  56   2.0000      -0.448693       -12.2096
  57   2.0000      -0.438336       -11.9277
  58   2.0000      -0.437038       -11.8924
  59   2.0000      -0.425613       -11.5815
  60   2.0000      -0.425122       -11.5682
  61   2.0000      -0.415577       -11.3084
  62   2.0000      -0.402668       -10.9572
  63   2.0000      -0.339420        -9.2361
  64   2.0000      -0.329887        -8.9767
  65   2.0000      -0.313223        -8.5232
  66   2.0000      -0.297996        -8.1089
  67   0.0000       0.038246         1.0407
  68   0.0000       0.053387         1.4527
  69   0.0000       0.110225         2.9994
  70   0.0000       0.118213         3.2167
  71   0.0000       0.137041         3.7291

MULLIKEN ATOMIC CHARGES
-----------------------
   0 S :    0.149691
   1 C :   -0.111333
   2 C :   -0.106823
   3 C :    0.048250
   4 C :   -0.197400
   5 H :    0.010239
   6 C :    0.030386
   7 H :    0.058405
   8 H :    0.028131
   9 C :   -0.088674
  10 H :    0.035679
  11 H :    0.036375
  12 C :   -0.036480
  13 H :    0.038392
  14 H :    0.026164
  15 H :    0.019855
  16 S :    0.101608
  17 C :   -0.072309
  18 C :   -0.019390
  19 C :   -0.041519
  20 C :   -0.167079
  21 H :   -0.007738
  22 C :    0.114120
  23 H :    0.012168
  24 H :    0.043877
  25 C :   -0.098280
  26 H :    0.016204
  27 H :    0.015408
  28 C :   -0.021349
  29 H :    0.039565
  30 H :    0.013033
  31 H :    0.053629
  32 H :    0.037921
  33 H :    0.039277
Sum of atomic charges:    0.0000000

LOEWDIN ATOMIC CHARGES
----------------------
   0 S :    0.445218
   1 C :   -0.218917
   2 C :   -0.061185
   3 C :   -0.066412
   4 C :   -0.218280
   5 H :    0.029537
   6 C :   -0.035648
   7 H :    0.046557
   8 H :    0.026210
   9 C :   -0.045405
  10 H :    0.027900
  11 H :    0.027833
  12 C :   -0.067547
  13 H :    0.029941
  14 H :    0.025077
  15 H :    0.017926
  16 S :    0.395376
  17 C :   -0.164743
  18 C :   -0.065665
  19 C :   -0.052714
  20 C :   -0.201721
  21 H :    0.023232
  22 C :   -0.038202
  23 H :    0.031504
  24 H :    0.043132
  25 C :   -0.049962
  26 H :    0.032220
  27 H :    0.014860
  28 C :   -0.065234
  29 H :    0.030138
  30 H :    0.029289
  31 H :    0.028912
  32 H :    0.026378
  33 H :    0.020395

  Mayer bond orders larger than 0.100000
B(  0-S ,  1-C ) :   1.1600 B(  0-S ,  4-C ) :   1.1942 B(  1-C ,  2-C ) :   1.5664
B(  1-C ,  4-C ) :   0.1158 B(  1-C , 32-H ) :   0.9683 B(  2-C ,  3-C ) :   1.3101
B(  2-C ,  6-C ) :   0.9993 B(  3-C ,  4-C ) :   1.5097 B(  3-C ,  5-H ) :   0.9923
B(  4-C , 20-C ) :   0.9842 B(  6-C ,  7-H ) :   0.9400 B(  6-C ,  8-H ) :   0.9460
B(  6-C ,  9-C ) :   1.0747 B(  9-C , 10-H ) :   0.9571 B(  9-C , 11-H ) :   0.9504
B(  9-C , 12-C ) :   1.0717 B( 12-C , 13-H ) :   0.9752 B( 12-C , 14-H ) :   0.9743
B( 12-C , 15-H ) :   0.9772 B( 16-S , 17-C ) :   1.1488 B( 16-S , 20-C ) :   1.1567
B( 17-C , 18-C ) :   1.6344 B( 17-C , 33-H ) :   0.9636 B( 18-C , 19-C ) :   1.2061
B( 18-C , 21-H ) :   1.0067 B( 19-C , 20-C ) :   1.6189 B( 19-C , 22-C ) :   1.0424
B( 22-C , 23-H ) :   0.9201 B( 22-C , 24-H ) :   0.9278 B( 22-C , 25-C ) :   1.0734
B( 25-C , 26-H ) :   0.9453 B( 25-C , 27-H ) :   0.9585 B( 25-C , 28-C ) :   1.0611
B( 28-C , 29-H ) :   0.9760 B( 28-C , 30-H ) :   0.9698 B( 28-C , 31-H ) :   0.9763

Dispersion correction           -0.014361646
FINAL SINGLE POINT ENERGY     -1339.854710020544

DIPOLE MOMENT
-------------
                                X             Y             Z
Electronic contribution:     21.50015     -11.82106      12.81399
Nuclear contribution   :    -22.00307      12.14240     -13.01253
                        -----------------------------------------
Total Dipole Moment    :     -0.50292       0.32134      -0.19854
                        -----------------------------------------
Magnitude (a.u.)       :      0.62897
Magnitude (Debye)      :      1.59872

Rotational constants in cm-1:     0.017484     0.009079     0.007020
Rotational constants in MHz :   524.145344   272.178399   210.439529

                             ****ORCA TERMINATED NORMALLY****
TOTAL RUN TIME: 0 days 0 hours 0 minutes 34 seconds 655 msec
