                         Program Version 4.2.1 -  RELEASE  -
|  1> ! wB97X-D3 SP def2-SVP
|  2> %pal
|  3> nprocs 16
|  4> end
|  5>
|  6> * xyz 0 1
|  7> S 	 -69.7321 	 50.0594 	 135.479
|  8> C 	 -69.4532 	 50.6689 	 137.114
|  9> C 	 -70.2319 	 50.0148 	 138.086
| 10> C 	 -71.1057 	 49.0908 	 137.535
| 11> C 	 -70.9818 	 48.9989 	 136.132
| 12> H 	 -71.761 	 48.5732 	 138.203
| 13> C 	 -70.2751 	 50.3651 	 139.588
| 14> H 	 -71.2911 	 50.1259 	 139.826
| 15> H 	 -70.2061 	 51.4148 	 139.739
| 16> C 	 -69.2265 	 49.9284 	 140.537
| 17> H 	 -69.1625 	 48.9022 	 140.501
| 18> H 	 -68.3427 	 50.4493 	 140.179
| 19> C 	 -69.5386 	 50.3275 	 141.963
| 20> H 	 -68.9542 	 49.767 	 142.694
| 21> H 	 -69.5566 	 51.3813 	 142.125
| 22> H 	 -70.5644 	 50.0146 	 142.186
| 23> S 	 -71.0198 	 46.5842 	 134.809
| 24> C 	 -72.498 	 46.0826 	 133.97
| 25> C 	 -73.5589 	 46.9787 	 134.137
| 26> C 	 -73.0721 	 48.1307 	 134.832
| 27> C 	 -71.7647 	 48.053 	 135.285
| 28> H 	 -74.557 	 46.7518 	 133.757
| 29> C 	 -74.0361 	 49.2994 	 135.059
| 30> H 	 -74.9019 	 49.0384 	 134.419
| 31> H 	 -73.4657 	 50.1434 	 134.497
| 32> C 	 -74.5234 	 49.4952 	 136.511
| 33> H 	 -73.6524 	 49.6302 	 137.08
| 34> H 	 -75.0527 	 48.6528 	 136.905
| 35> C 	 -75.4623 	 50.7398 	 136.798
| 36> H 	 -75.7563 	 50.7965 	 137.878
| 37> H 	 -76.4328 	 50.5874 	 136.336
| 38> H 	 -74.9272 	 51.6282 	 136.497
| 39> H 	 -68.8187 	 51.5117 	 137.233
| 40> H 	 -72.6597 	 45.0632 	 133.438
| 41> *
| 42>
| 43>                          ****END OF INPUT****

CARTESIAN COORDINATES (ANGSTROEM)
---------------------------------
  S    -69.732100   50.059400  135.479000
  C    -69.453200   50.668900  137.114000
  C    -70.231900   50.014800  138.086000
  C    -71.105700   49.090800  137.535000
  C    -70.981800   48.998900  136.132000
  H    -71.761000   48.573200  138.203000
  C    -70.275100   50.365100  139.588000
  H    -71.291100   50.125900  139.826000
  H    -70.206100   51.414800  139.739000
  C    -69.226500   49.928400  140.537000
  H    -69.162500   48.902200  140.501000
  H    -68.342700   50.449300  140.179000
  C    -69.538600   50.327500  141.963000
  H    -68.954200   49.767000  142.694000
  H    -69.556600   51.381300  142.125000
  H    -70.564400   50.014600  142.186000
  S    -71.019800   46.584200  134.809000
  C    -72.498000   46.082600  133.970000
  C    -73.558900   46.978700  134.137000
  C    -73.072100   48.130700  134.832000
  C    -71.764700   48.053000  135.285000
  H    -74.557000   46.751800  133.757000
  C    -74.036100   49.299400  135.059000
  H    -74.901900   49.038400  134.419000
  H    -73.465700   50.143400  134.497000
  C    -74.523400   49.495200  136.511000
  H    -73.652400   49.630200  137.080000
  H    -75.052700   48.652800  136.905000
  C    -75.462300   50.739800  136.798000
  H    -75.756300   50.796500  137.878000
  H    -76.432800   50.587400  136.336000
  H    -74.927200   51.628200  136.497000
  H    -68.818700   51.511700  137.233000
  H    -72.659700   45.063200  133.438000

 Total Charge           Charge          ....    0
 Multiplicity           Mult            ....    1
 Number of Electrons    NEL             ....  134
 Basis Dimension        Dim             ....  322

ORBITAL ENERGIES
----------------

  NO   OCC          E(Eh)            E(eV)
   0   2.0000     -88.974071     -2421.1076
   1   2.0000     -88.965839     -2420.8836
   2   2.0000     -10.335692      -281.2485
   3   2.0000     -10.324079      -280.9325
   4   2.0000     -10.320367      -280.8315
   5   2.0000     -10.316589      -280.7287
   6   2.0000     -10.301365      -280.3144
   7   2.0000     -10.299639      -280.2674
   8   2.0000     -10.296207      -280.1740
   9   2.0000     -10.295754      -280.1617
  10   2.0000     -10.295289      -280.1491
  11   2.0000     -10.284057      -279.8434
  12   2.0000     -10.280013      -279.7334
  13   2.0000     -10.278738      -279.6987
  14   2.0000     -10.276871      -279.6479
  15   2.0000     -10.276759      -279.6448
  16   2.0000      -8.087896      -220.0828
  17   2.0000      -8.080657      -219.8859
  18   2.0000      -6.046156      -164.5243
  19   2.0000      -6.042515      -164.4252
  20   2.0000      -6.039061      -164.3312
  21   2.0000      -6.039013      -164.3299
  22   2.0000      -6.035149      -164.2247
  23   2.0000      -6.031531      -164.1263
  24   2.0000      -1.002784       -27.2871
  25   2.0000      -0.982074       -26.7236
  26   2.0000      -0.923524       -25.1304
  27   2.0000      -0.897252       -24.4155
  28   2.0000      -0.865800       -23.5596
  29   2.0000      -0.856711       -23.3123
  30   2.0000      -0.843432       -22.9509
  31   2.0000      -0.810104       -22.0441
  32   2.0000      -0.782798       -21.3010
  33   2.0000      -0.763615       -20.7790
  34   2.0000      -0.707582       -19.2543
  35   2.0000      -0.703177       -19.1344
  36   2.0000      -0.686748       -18.6874
  37   2.0000      -0.658275       -17.9126
  38   2.0000      -0.644880       -17.5481
  39   2.0000      -0.627396       -17.0723
  40   2.0000      -0.582741       -15.8572
  41   2.0000      -0.578385       -15.7387
  42   2.0000      -0.565854       -15.3977
  43   2.0000      -0.559798       -15.2329
  44   2.0000      -0.525008       -14.2862
  45   2.0000      -0.521474       -14.1900
  46   2.0000      -0.511940       -13.9306
  47   2.0000      -0.507378       -13.8064
  48   2.0000      -0.504193       -13.7198
  49   2.0000      -0.496466       -13.5095
  50   2.0000      -0.485002       -13.1976
  51   2.0000      -0.476501       -12.9662
  52   2.0000      -0.469740       -12.7823
  53   2.0000      -0.466945       -12.7062
  54   2.0000      -0.463695       -12.6178
  55   2.0000      -0.454734       -12.3739
  56   2.0000      -0.449647       -12.2355
  57   2.0000      -0.434514       -11.8237
  58   2.0000      -0.432290       -11.7632
  59   2.0000      -0.427684       -11.6379
  60   2.0000      -0.421038       -11.4570
  61   2.0000      -0.411231       -11.1902
  62   2.0000      -0.405951       -11.0465
  63   2.0000      -0.342836        -9.3291
  64   2.0000      -0.333148        -9.0654
  65   2.0000      -0.317026        -8.6267
  66   2.0000      -0.302383        -8.2282
  67   0.0000       0.037951         1.0327
  68   0.0000       0.053137         1.4459
  69   0.0000       0.109446         2.9782
  70   0.0000       0.120117         3.2685
  71   0.0000       0.127948         3.4816

MULLIKEN ATOMIC CHARGES
-----------------------
   0 S :    0.127505
   1 C :   -0.130573
   2 C :   -0.063962
   3 C :    0.066411
   4 C :   -0.181663
   5 H :    0.013516
   6 C :    0.045595
   7 H :    0.001739
   8 H :    0.005533
   9 C :    0.009232
  10 H :    0.006980
  11 H :    0.025745
  12 C :   -0.034385
  13 H :    0.038159
  14 H :    0.025066
  15 H :    0.011789
  16 S :    0.123249
  17 C :   -0.137854
  18 C :   -0.038196
  19 C :   -0.060884
  20 C :   -0.173595
  21 H :    0.031520
  22 C :    0.060713
  23 H :    0.011117
  24 H :    0.054854
  25 C :   -0.041509
  26 H :    0.015055
  27 H :    0.021645
  28 C :   -0.058292
  29 H :    0.033380
  30 H :    0.029418
  31 H :    0.040471
  32 H :    0.038806
  33 H :    0.083418
Sum of atomic charges:   -0.0000000

LOEWDIN ATOMIC CHARGES
----------------------
   0 S :    0.411244
   1 C :   -0.185962
   2 C :   -0.060205
   3 C :   -0.051901
   4 C :   -0.196144
   5 H :    0.031455
   6 C :   -0.030894
   7 H :    0.021381
   8 H :    0.027470
   9 C :   -0.029942
  10 H :    0.012927
  11 H :    0.027705
  12 C :   -0.059233
  13 H :    0.030172
  14 H :    0.020589
  15 H :    0.025418
  16 S :    0.419033
  17 C :   -0.197134
  18 C :   -0.076568
  19 C :   -0.060227
  20 C :   -0.227313
  21 H :    0.037473
  22 C :   -0.037837
  23 H :    0.025908
  24 H :    0.047298
  25 C :   -0.035716
  26 H :    0.014941
  27 H :    0.022698
  28 C :   -0.064943
  29 H :    0.030313
  30 H :    0.021265
  31 H :    0.023943
  32 H :    0.016577
  33 H :    0.046206

  Mayer bond orders larger than 0.100000
B(  0-S ,  1-C ) :   1.1582 B(  0-S ,  4-C ) :   1.1781 B(  1-C ,  2-C ) :   1.5555
B(  1-C ,  4-C ) :   0.1163 B(  1-C , 32-H ) :   0.9764 B(  2-C ,  3-C ) :   1.3157
B(  2-C ,  6-C ) :   1.0035 B(  3-C ,  4-C ) :   1.5201 B(  3-C ,  5-H ) :   0.9865
B(  4-C , 20-C ) :   1.0024 B(  6-C ,  7-H ) :   0.9415 B(  6-C ,  8-H ) :   0.9433
B(  6-C ,  9-C ) :   1.0617 B(  9-C , 10-H ) :   0.9502 B(  9-C , 11-H ) :   0.9515
B(  9-C , 12-C ) :   1.0927 B( 12-C , 13-H ) :   0.9733 B( 12-C , 14-H ) :   0.9739
B( 12-C , 15-H ) :   0.9697 B( 16-S , 17-C ) :   1.1683 B( 16-S , 20-C ) :   1.1519
B( 17-C , 18-C ) :   1.6047 B( 17-C , 33-H ) :   0.9520 B( 18-C , 19-C ) :   1.2569
B( 18-C , 21-H ) :   0.9864 B( 19-C , 20-C ) :   1.6067 B( 19-C , 22-C ) :   1.0260
B( 22-C , 23-H ) :   0.9352 B( 22-C , 24-H ) :   0.9333 B( 22-C , 25-C ) :   1.0550
B( 25-C , 26-H ) :   0.9552 B( 25-C , 27-H ) :   0.9541 B( 25-C , 28-C ) :   1.0853
B( 28-C , 29-H ) :   0.9748 B( 28-C , 30-H ) :   0.9776 B( 28-C , 31-H ) :   0.9781

Dispersion correction           -0.014142177
FINAL SINGLE POINT ENERGY     -1339.857820569435

DIPOLE MOMENT
-------------
                                X             Y             Z
Electronic contribution:     12.11833     -11.87237     -23.19755
Nuclear contribution   :    -12.46262      12.02821      23.69744
                        -----------------------------------------
Total Dipole Moment    :     -0.34428       0.15584       0.49988
                        -----------------------------------------
Magnitude (a.u.)       :      0.62666
Magnitude (Debye)      :      1.59284

Rotational constants in cm-1:     0.018134     0.008089     0.006761
Rotational constants in MHz :   543.646541   242.491919   202.698656

                             ****ORCA TERMINATED NORMALLY****
TOTAL RUN TIME: 0 days 0 hours 0 minutes 34 seconds 748 msec
