                         Program Version 4.2.1 -  RELEASE  -
|  1> ! wB97X-D3 SP def2-SVP
|  2> %pal
|  3> nprocs 16
|  4> end
|  5>
|  6> * xyz 0 1
|  7> S 	 6.80047 	 25.2604 	 69.8364
|  8> C 	 6.45601 	 25.1331 	 68.1159
|  9> C 	 6.70535 	 26.2364 	 67.3951
| 10> C 	 7.03812 	 27.3156 	 68.1804
| 11> C 	 7.24122 	 27.0338 	 69.4973
| 12> H 	 7.42265 	 28.3181 	 67.7922
| 13> C 	 6.70393 	 26.3542 	 65.8781
| 14> H 	 7.12292 	 25.4124 	 65.4947
| 15> H 	 7.53014 	 27.0461 	 65.7068
| 16> C 	 5.36412 	 26.843 	 65.2164
| 17> H 	 4.71313 	 26.0071 	 64.8478
| 18> H 	 4.72731 	 27.2618 	 65.9744
| 19> C 	 5.45108 	 27.9432 	 64.2588
| 20> H 	 5.73915 	 28.8751 	 64.7616
| 21> H 	 6.15744 	 27.7812 	 63.4616
| 22> H 	 4.54354 	 28.2122 	 63.7577
| 23> S 	 9.26763 	 27.4229 	 71.4149
| 24> C 	 9.52699 	 28.9969 	 71.941
| 25> C 	 8.43524 	 29.8045 	 71.6983
| 26> C 	 7.46497 	 29.141 	 70.9006
| 27> C 	 7.93692 	 27.9225 	 70.4203
| 28> H 	 8.40122 	 30.7562 	 72.1209
| 29> C 	 6.06477 	 29.767 	 70.7272
| 30> H 	 5.31403 	 29.0155 	 70.3486
| 31> H 	 6.25073 	 30.4696 	 69.9188
| 32> C 	 5.45947 	 30.3037 	 72.0199
| 33> H 	 5.83761 	 31.2905 	 72.2693
| 34> H 	 5.78235 	 29.6149 	 72.7902
| 35> C 	 3.93906 	 30.2661 	 71.8657
| 36> H 	 3.64419 	 29.2166 	 71.729
| 37> H 	 3.66925 	 30.9521 	 71.044
| 38> H 	 3.37659 	 30.5303 	 72.7724
| 39> H 	 6.26822 	 24.2059 	 67.5479
| 40> H 	 10.3576 	 29.3474 	 72.5668
| 41> *
| 42>
| 43>                          ****END OF INPUT****

CARTESIAN COORDINATES (ANGSTROEM)
---------------------------------
  S      6.800470   25.260400   69.836400
  C      6.456010   25.133100   68.115900
  C      6.705350   26.236400   67.395100
  C      7.038120   27.315600   68.180400
  C      7.241220   27.033800   69.497300
  H      7.422650   28.318100   67.792200
  C      6.703930   26.354200   65.878100
  H      7.122920   25.412400   65.494700
  H      7.530140   27.046100   65.706800
  C      5.364120   26.843000   65.216400
  H      4.713130   26.007100   64.847800
  H      4.727310   27.261800   65.974400
  C      5.451080   27.943200   64.258800
  H      5.739150   28.875100   64.761600
  H      6.157440   27.781200   63.461600
  H      4.543540   28.212200   63.757700
  S      9.267630   27.422900   71.414900
  C      9.526990   28.996900   71.941000
  C      8.435240   29.804500   71.698300
  C      7.464970   29.141000   70.900600
  C      7.936920   27.922500   70.420300
  H      8.401220   30.756200   72.120900
  C      6.064770   29.767000   70.727200
  H      5.314030   29.015500   70.348600
  H      6.250730   30.469600   69.918800
  C      5.459470   30.303700   72.019900
  H      5.837610   31.290500   72.269300
  H      5.782350   29.614900   72.790200
  C      3.939060   30.266100   71.865700
  H      3.644190   29.216600   71.729000
  H      3.669250   30.952100   71.044000
  H      3.376590   30.530300   72.772400
  H      6.268220   24.205900   67.547900
  H     10.357600   29.347400   72.566800

 Total Charge           Charge          ....    0
 Multiplicity           Mult            ....    1
 Number of Electrons    NEL             ....  134
 Basis Dimension        Dim             ....  322

ORBITAL ENERGIES
----------------

  NO   OCC          E(Eh)            E(eV)
   0   2.0000     -88.966890     -2420.9122
   1   2.0000     -88.964066     -2420.8353
   2   2.0000     -10.331266      -281.1280
   3   2.0000     -10.320642      -280.8390
   4   2.0000     -10.312127      -280.6072
   5   2.0000     -10.308765      -280.5158
   6   2.0000     -10.301422      -280.3159
   7   2.0000     -10.295961      -280.1673
   8   2.0000     -10.291197      -280.0377
   9   2.0000     -10.291122      -280.0357
  10   2.0000     -10.288591      -279.9668
  11   2.0000     -10.286343      -279.9056
  12   2.0000     -10.284615      -279.8586
  13   2.0000     -10.284318      -279.8505
  14   2.0000     -10.280732      -279.7530
  15   2.0000     -10.271155      -279.4923
  16   2.0000      -8.080425      -219.8795
  17   2.0000      -8.079949      -219.8666
  18   2.0000      -6.038721      -164.3219
  19   2.0000      -6.038582      -164.3182
  20   2.0000      -6.035037      -164.2217
  21   2.0000      -6.034968      -164.2198
  22   2.0000      -6.031041      -164.1130
  23   2.0000      -6.030342      -164.0940
  24   2.0000      -1.010925       -27.5087
  25   2.0000      -0.988762       -26.9056
  26   2.0000      -0.912568       -24.8322
  27   2.0000      -0.909558       -24.7503
  28   2.0000      -0.872541       -23.7431
  29   2.0000      -0.854906       -23.2632
  30   2.0000      -0.849287       -23.1103
  31   2.0000      -0.815344       -22.1866
  32   2.0000      -0.780201       -21.2304
  33   2.0000      -0.768047       -20.8996
  34   2.0000      -0.704515       -19.1708
  35   2.0000      -0.703932       -19.1550
  36   2.0000      -0.698697       -19.0125
  37   2.0000      -0.653464       -17.7816
  38   2.0000      -0.633311       -17.2333
  39   2.0000      -0.616919       -16.7872
  40   2.0000      -0.596845       -16.2410
  41   2.0000      -0.574876       -15.6432
  42   2.0000      -0.566152       -15.4058
  43   2.0000      -0.554848       -15.0982
  44   2.0000      -0.529796       -14.4165
  45   2.0000      -0.528179       -14.3725
  46   2.0000      -0.522952       -14.2302
  47   2.0000      -0.509879       -13.8745
  48   2.0000      -0.502620       -13.6770
  49   2.0000      -0.494328       -13.4513
  50   2.0000      -0.489552       -13.3214
  51   2.0000      -0.472337       -12.8529
  52   2.0000      -0.467098       -12.7104
  53   2.0000      -0.464058       -12.6277
  54   2.0000      -0.458002       -12.4629
  55   2.0000      -0.449638       -12.2353
  56   2.0000      -0.444349       -12.0914
  57   2.0000      -0.434271       -11.8171
  58   2.0000      -0.432538       -11.7700
  59   2.0000      -0.428618       -11.6633
  60   2.0000      -0.425871       -11.5885
  61   2.0000      -0.416648       -11.3376
  62   2.0000      -0.408760       -11.1229
  63   2.0000      -0.347451        -9.4546
  64   2.0000      -0.332263        -9.0413
  65   2.0000      -0.325645        -8.8612
  66   2.0000      -0.288336        -7.8460
  67   0.0000       0.029680         0.8076
  68   0.0000       0.062326         1.6960
  69   0.0000       0.107317         2.9203
  70   0.0000       0.119183         3.2431
  71   0.0000       0.136218         3.7067

MULLIKEN ATOMIC CHARGES
-----------------------
   0 S :    0.090441
   1 C :   -0.111382
   2 C :   -0.109146
   3 C :    0.000324
   4 C :   -0.146116
   5 H :    0.039747
   6 C :    0.080632
   7 H :    0.025535
   8 H :    0.020582
   9 C :   -0.037463
  10 H :    0.035651
  11 H :    0.024844
  12 C :   -0.044338
  13 H :    0.024110
  14 H :    0.022642
  15 H :    0.023504
  16 S :    0.125547
  17 C :   -0.091187
  18 C :   -0.019071
  19 C :   -0.069924
  20 C :   -0.169925
  21 H :   -0.006317
  22 C :    0.058804
  23 H :    0.034702
  24 H :    0.037107
  25 C :   -0.066282
  26 H :    0.030784
  27 H :    0.037957
  28 C :   -0.063571
  29 H :    0.040130
  30 H :    0.044745
  31 H :    0.032037
  32 H :    0.044071
  33 H :    0.060826
Sum of atomic charges:   -0.0000000

LOEWDIN ATOMIC CHARGES
----------------------
   0 S :    0.345287
   1 C :   -0.191749
   2 C :   -0.078965
   3 C :   -0.064947
   4 C :   -0.154744
   5 H :    0.045726
   6 C :   -0.024197
   7 H :    0.032703
   8 H :    0.032209
   9 C :   -0.048300
  10 H :    0.031190
  11 H :    0.027506
  12 C :   -0.066324
  13 H :    0.026296
  14 H :    0.019298
  15 H :    0.025974
  16 S :    0.438392
  17 C :   -0.203589
  18 C :   -0.073120
  19 C :   -0.048776
  20 C :   -0.217881
  21 H :    0.020846
  22 C :   -0.033988
  23 H :    0.035814
  24 H :    0.031523
  25 C :   -0.040856
  26 H :    0.020578
  27 H :    0.027142
  28 C :   -0.065917
  29 H :    0.029292
  30 H :    0.030231
  31 H :    0.025275
  32 H :    0.033172
  33 H :    0.034899

  Mayer bond orders larger than 0.100000
B(  0-S ,  1-C ) :   1.1130 B(  0-S ,  4-C ) :   1.1000 B(  1-C ,  2-C ) :   1.6797
B(  1-C , 32-H ) :   0.9497 B(  2-C ,  3-C ) :   1.2334 B(  2-C ,  6-C ) :   1.0135
B(  3-C ,  4-C ) :   1.6254 B(  3-C ,  5-H ) :   0.9723 B(  4-C , 20-C ) :   1.0788
B(  6-C ,  7-H ) :   0.9381 B(  6-C ,  8-H ) :   0.9492 B(  6-C ,  9-C ) :   1.0220
B(  9-C , 10-H ) :   0.9534 B(  9-C , 11-H ) :   0.9615 B(  9-C , 12-C ) :   1.0940
B( 12-C , 13-H ) :   0.9724 B( 12-C , 14-H ) :   0.9749 B( 12-C , 15-H ) :   0.9679
B( 16-S , 17-C ) :   1.1871 B( 16-S , 20-C ) :   1.1335 B( 17-C , 18-C ) :   1.5765
B( 17-C , 33-H ) :   0.9652 B( 18-C , 19-C ) :   1.2550 B( 18-C , 21-H ) :   1.0058
B( 19-C , 20-C ) :   1.5632 B( 19-C , 22-C ) :   1.0226 B( 22-C , 23-H ) :   0.9435
B( 22-C , 24-H ) :   0.9273 B( 22-C , 25-C ) :   1.0527 B( 25-C , 26-H ) :   0.9461
B( 25-C , 27-H ) :   0.9609 B( 25-C , 28-C ) :   1.0923 B( 28-C , 29-H ) :   0.9728
B( 28-C , 30-H ) :   0.9741 B( 28-C , 31-H ) :   0.9734

Dispersion correction           -0.013733361
FINAL SINGLE POINT ENERGY     -1339.852479313955

DIPOLE MOMENT
-------------
                                X             Y             Z
Electronic contribution:     17.59853     -14.84039      14.75221
Nuclear contribution   :    -17.77704      15.36248     -14.98253
                        -----------------------------------------
Total Dipole Moment    :     -0.17851       0.52208      -0.23032
                        -----------------------------------------
Magnitude (a.u.)       :      0.59790
Magnitude (Debye)      :      1.51974

Rotational constants in cm-1:     0.017127     0.008161     0.006748
Rotational constants in MHz :   513.450294   244.657149   202.295849

                             ****ORCA TERMINATED NORMALLY****
TOTAL RUN TIME: 0 days 0 hours 0 minutes 33 seconds 346 msec
