                         Program Version 4.2.1 -  RELEASE  -
|  1> ! wB97X-D3 SP def2-SVP
|  2> %pal
|  3> nprocs 16
|  4> end
|  5>
|  6> * xyz 0 1
|  7> S 	 0.0676473 	 24.8242 	 34.0219
|  8> C 	 -0.818058 	 25.5885 	 32.7177
|  9> C 	 -2.02823 	 24.9971 	 32.5627
| 10> C 	 -2.22301 	 23.8928 	 33.4369
| 11> C 	 -1.16643 	 23.6393 	 34.2182
| 12> H 	 -3.09194 	 23.3184 	 33.4416
| 13> C 	 -3.10859 	 25.4085 	 31.6293
| 14> H 	 -3.85113 	 24.6683 	 31.3165
| 15> H 	 -2.54051 	 25.7386 	 30.7054
| 16> C 	 -3.88279 	 26.639 	 32.0408
| 17> H 	 -4.3529 	 26.4705 	 33.0513
| 18> H 	 -3.22151 	 27.489 	 32.1361
| 19> C 	 -5.16322 	 27.0026 	 31.1539
| 20> H 	 -6.12354 	 26.4413 	 31.3049
| 21> H 	 -5.42599 	 28.0968 	 31.2893
| 22> H 	 -4.92178 	 26.9511 	 30.1043
| 23> S 	 -0.349555 	 22.9975 	 36.7597
| 24> C 	 -0.548508 	 21.4141 	 37.4222
| 25> C 	 -1.38272 	 20.7062 	 36.6308
| 26> C 	 -1.62617 	 21.3224 	 35.3648
| 27> C 	 -1.05546 	 22.5887 	 35.2681
| 28> H 	 -1.64517 	 19.6695 	 36.972
| 29> C 	 -2.30688 	 20.4998 	 34.26
| 30> H 	 -2.39658 	 21.0903 	 33.317
| 31> H 	 -3.34599 	 20.5363 	 34.637
| 32> C 	 -1.94312 	 19.0832 	 33.9448
| 33> H 	 -2.62693 	 18.6118 	 33.1419
| 34> H 	 -2.02569 	 18.4798 	 34.8493
| 35> C 	 -0.438499 	 18.7958 	 33.437
| 36> H 	 -0.170505 	 19.1785 	 32.446
| 37> H 	 -0.38414 	 17.7232 	 33.4012
| 38> H 	 0.256587 	 18.9502 	 34.2777
| 39> H 	 -0.44048 	 26.4249 	 32.1366
| 40> H 	 -0.296222 	 21.0512 	 38.4181
| 41> *
| 42>
| 43>                          ****END OF INPUT****

CARTESIAN COORDINATES (ANGSTROEM)
---------------------------------
  S      0.067647   24.824200   34.021900
  C     -0.818058   25.588500   32.717700
  C     -2.028230   24.997100   32.562700
  C     -2.223010   23.892800   33.436900
  C     -1.166430   23.639300   34.218200
  H     -3.091940   23.318400   33.441600
  C     -3.108590   25.408500   31.629300
  H     -3.851130   24.668300   31.316500
  H     -2.540510   25.738600   30.705400
  C     -3.882790   26.639000   32.040800
  H     -4.352900   26.470500   33.051300
  H     -3.221510   27.489000   32.136100
  C     -5.163220   27.002600   31.153900
  H     -6.123540   26.441300   31.304900
  H     -5.425990   28.096800   31.289300
  H     -4.921780   26.951100   30.104300
  S     -0.349555   22.997500   36.759700
  C     -0.548508   21.414100   37.422200
  C     -1.382720   20.706200   36.630800
  C     -1.626170   21.322400   35.364800
  C     -1.055460   22.588700   35.268100
  H     -1.645170   19.669500   36.972000
  C     -2.306880   20.499800   34.260000
  H     -2.396580   21.090300   33.317000
  H     -3.345990   20.536300   34.637000
  C     -1.943120   19.083200   33.944800
  H     -2.626930   18.611800   33.141900
  H     -2.025690   18.479800   34.849300
  C     -0.438499   18.795800   33.437000
  H     -0.170505   19.178500   32.446000
  H     -0.384140   17.723200   33.401200
  H      0.256587   18.950200   34.277700
  H     -0.440480   26.424900   32.136600
  H     -0.296222   21.051200   38.418100

 Total Charge           Charge          ....    0
 Multiplicity           Mult            ....    1
 Number of Electrons    NEL             ....  134
 Basis Dimension        Dim             ....  322

ORBITAL ENERGIES
----------------

  NO   OCC          E(Eh)            E(eV)
   0   2.0000     -88.965066     -2420.8625
   1   2.0000     -88.963320     -2420.8150
   2   2.0000     -10.327272      -281.0194
   3   2.0000     -10.326641      -281.0022
   4   2.0000     -10.312729      -280.6236
   5   2.0000     -10.312499      -280.6174
   6   2.0000     -10.305072      -280.4153
   7   2.0000     -10.297663      -280.2136
   8   2.0000     -10.296652      -280.1862
   9   2.0000     -10.293671      -280.1050
  10   2.0000     -10.293485      -280.1000
  11   2.0000     -10.293393      -280.0975
  12   2.0000     -10.292366      -280.0695
  13   2.0000     -10.288105      -279.9536
  14   2.0000     -10.283052      -279.8161
  15   2.0000     -10.278239      -279.6851
  16   2.0000      -8.080499      -219.8816
  17   2.0000      -8.079440      -219.8527
  18   2.0000      -6.039037      -164.3305
  19   2.0000      -6.037946      -164.3009
  20   2.0000      -6.034936      -164.2189
  21   2.0000      -6.033693      -164.1851
  22   2.0000      -6.031161      -164.1162
  23   2.0000      -6.030175      -164.0894
  24   2.0000      -1.017848       -27.6970
  25   2.0000      -0.996653       -27.1203
  26   2.0000      -0.913516       -24.8580
  27   2.0000      -0.903422       -24.5834
  28   2.0000      -0.870870       -23.6976
  29   2.0000      -0.850460       -23.1422
  30   2.0000      -0.840474       -22.8705
  31   2.0000      -0.821196       -22.3459
  32   2.0000      -0.782958       -21.3054
  33   2.0000      -0.775539       -21.1035
  34   2.0000      -0.705028       -19.1848
  35   2.0000      -0.699922       -19.0458
  36   2.0000      -0.690535       -18.7904
  37   2.0000      -0.657828       -17.9004
  38   2.0000      -0.641147       -17.4465
  39   2.0000      -0.628292       -17.0967
  40   2.0000      -0.595413       -16.2020
  41   2.0000      -0.578410       -15.7393
  42   2.0000      -0.557335       -15.1659
  43   2.0000      -0.544103       -14.8058
  44   2.0000      -0.538889       -14.6639
  45   2.0000      -0.520805       -14.1718
  46   2.0000      -0.520177       -14.1547
  47   2.0000      -0.514016       -13.9871
  48   2.0000      -0.504176       -13.7193
  49   2.0000      -0.499337       -13.5877
  50   2.0000      -0.490431       -13.3453
  51   2.0000      -0.478886       -13.0312
  52   2.0000      -0.473491       -12.8843
  53   2.0000      -0.469254       -12.7690
  54   2.0000      -0.457120       -12.4389
  55   2.0000      -0.456147       -12.4124
  56   2.0000      -0.438824       -11.9410
  57   2.0000      -0.435844       -11.8599
  58   2.0000      -0.433851       -11.8057
  59   2.0000      -0.426344       -11.6014
  60   2.0000      -0.418287       -11.3822
  61   2.0000      -0.405587       -11.0366
  62   2.0000      -0.403463       -10.9788
  63   2.0000      -0.359541        -9.7836
  64   2.0000      -0.332532        -9.0487
  65   2.0000      -0.327539        -8.9128
  66   2.0000      -0.293104        -7.9758
  67   0.0000       0.031922         0.8686
  68   0.0000       0.084124         2.2891
  69   0.0000       0.110238         2.9997
  70   0.0000       0.120570         3.2809
  71   0.0000       0.139177         3.7872

MULLIKEN ATOMIC CHARGES
-----------------------
   0 S :    0.104014
   1 C :   -0.133079
   2 C :   -0.048218
   3 C :    0.022435
   4 C :   -0.102705
   5 H :   -0.018126
   6 C :    0.051992
   7 H :    0.027924
   8 H :    0.029119
   9 C :   -0.082966
  10 H :    0.035296
  11 H :    0.027986
  12 C :   -0.087306
  13 H :    0.050100
  14 H :    0.039874
  15 H :    0.023320
  16 S :    0.102180
  17 C :   -0.085377
  18 C :   -0.070824
  19 C :   -0.058357
  20 C :   -0.116001
  21 H :    0.036132
  22 C :    0.063280
  23 H :    0.024511
  24 H :    0.035755
  25 C :   -0.096903
  26 H :    0.047045
  27 H :    0.022197
  28 C :   -0.050585
  29 H :    0.049423
  30 H :    0.015945
  31 H :    0.038220
  32 H :    0.046902
  33 H :    0.056795
Sum of atomic charges:    0.0000000

LOEWDIN ATOMIC CHARGES
----------------------
   0 S :    0.411267
   1 C :   -0.192779
   2 C :   -0.061598
   3 C :   -0.059376
   4 C :   -0.187671
   5 H :    0.021460
   6 C :   -0.041294
   7 H :    0.031290
   8 H :    0.038457
   9 C :   -0.040699
  10 H :    0.028618
  11 H :    0.020586
  12 C :   -0.081110
  13 H :    0.030985
  14 H :    0.034811
  15 H :    0.017248
  16 S :    0.429159
  17 C :   -0.195198
  18 C :   -0.080174
  19 C :   -0.063496
  20 C :   -0.209729
  21 H :    0.039315
  22 C :   -0.048206
  23 H :    0.031148
  24 H :    0.040067
  25 C :   -0.045151
  26 H :    0.037743
  27 H :    0.019882
  28 C :   -0.070679
  29 H :    0.027058
  30 H :    0.022422
  31 H :    0.030311
  32 H :    0.030332
  33 H :    0.035000

  Mayer bond orders larger than 0.100000
B(  0-S ,  1-C ) :   1.1256 B(  0-S ,  4-C ) :   1.1565 B(  1-C ,  2-C ) :   1.6171
B(  1-C , 32-H ) :   0.9720 B(  2-C ,  3-C ) :   1.2339 B(  2-C ,  6-C ) :   1.0292
B(  3-C ,  4-C ) :   1.5760 B(  3-C ,  5-H ) :   1.0127 B(  4-C , 20-C ) :   1.0057
B(  6-C ,  7-H ) :   0.9472 B(  6-C ,  8-H ) :   0.9283 B(  6-C ,  9-C ) :   1.0687
B(  9-C , 10-H ) :   0.9573 B(  9-C , 11-H ) :   0.9587 B(  9-C , 12-C ) :   1.0627
B( 12-C , 13-H ) :   0.9782 B( 12-C , 14-H ) :   0.9763 B( 12-C , 15-H ) :   0.9765
B( 16-S , 17-C ) :   1.1511 B( 16-S , 20-C ) :   1.1598 B( 17-C , 18-C ) :   1.6277
B( 17-C , 33-H ) :   0.9646 B( 18-C , 19-C ) :   1.2419 B( 18-C , 21-H ) :   0.9803
B( 19-C , 20-C ) :   1.5965 B( 19-C , 22-C ) :   1.0223 B( 22-C , 23-H ) :   0.9372
B( 22-C , 24-H ) :   0.9231 B( 22-C , 25-C ) :   1.0850 B( 25-C , 26-H ) :   0.9524
B( 25-C , 27-H ) :   0.9497 B( 25-C , 28-C ) :   1.0768 B( 28-C , 29-H ) :   0.9774
B( 28-C , 30-H ) :   0.9726 B( 28-C , 31-H ) :   0.9734

Dispersion correction           -0.013615705
FINAL SINGLE POINT ENERGY     -1339.870423162792

DIPOLE MOMENT
-------------
                                X             Y             Z
Electronic contribution:     17.07822       6.04623      17.38104
Nuclear contribution   :    -17.59790      -6.34442     -17.63305
                        -----------------------------------------
Total Dipole Moment    :     -0.51968      -0.29819      -0.25201
                        -----------------------------------------
Magnitude (a.u.)       :      0.64999
Magnitude (Debye)      :      1.65214

Rotational constants in cm-1:     0.020289     0.007472     0.006368
Rotational constants in MHz :   608.258206   224.005646   190.922589

                             ****ORCA TERMINATED NORMALLY****
TOTAL RUN TIME: 0 days 0 hours 0 minutes 33 seconds 770 msec
