                         Program Version 4.2.1 -  RELEASE  -
|  1> ! wB97X-D3 SP def2-SVP
|  2> %pal
|  3> nprocs 16
|  4> end
|  5>
|  6> * xyz 0 1
|  7> S 	 18.4119 	 0.877339 	 70.0555
|  8> C 	 17.2033 	 -0.00646041 	 69.0371
|  9> C 	 17.5531 	 0.0495326 	 67.7024
| 10> C 	 18.7686 	 0.809393 	 67.4582
| 11> C 	 19.3845 	 1.28125 	 68.6445
| 12> H 	 19.2559 	 0.912329 	 66.5702
| 13> C 	 16.7574 	 -0.578841 	 66.6309
| 14> H 	 17.2436 	 -1.49079 	 66.4501
| 15> H 	 16.9002 	 -0.00414821 	 65.6637
| 16> C 	 15.2865 	 -0.784183 	 66.906
| 17> H 	 14.7757 	 -1.41341 	 66.1503
| 18> H 	 15.3837 	 -1.38343 	 67.8386
| 19> C 	 14.495 	 0.49641 	 67.1407
| 20> H 	 13.4482 	 0.317237 	 67.4866
| 21> H 	 14.9826 	 1.1609 	 67.8353
| 22> H 	 14.3648 	 1.01488 	 66.1653
| 23> S 	 21.7682 	 1.83886 	 70.04
| 24> C 	 22.8341 	 3.1519 	 69.6029
| 25> C 	 22.2302 	 3.8107 	 68.5393
| 26> C 	 21.0254 	 3.21622 	 68.0334
| 27> C 	 20.5544 	 2.12357 	 68.7976
| 28> H 	 22.5711 	 4.68172 	 68.1546
| 29> C 	 20.2747 	 3.8329 	 66.912
| 30> H 	 19.6831 	 3.04731 	 66.3277
| 31> H 	 21.175 	 4.1033 	 66.2537
| 32> C 	 19.3027 	 4.95756 	 67.2983
| 33> H 	 18.5984 	 4.46228 	 68.0075
| 34> H 	 18.7872 	 5.14827 	 66.3952
| 35> C 	 19.8917 	 6.2322 	 67.9534
| 36> H 	 20.6561 	 6.63922 	 67.3847
| 37> H 	 20.3809 	 6.00052 	 68.9022
| 38> H 	 19.119 	 6.92733 	 68.1119
| 39> H 	 16.2528 	 -0.239564 	 69.4531
| 40> H 	 23.6874 	 3.50158 	 70.1379
| 41> *
| 42>
| 43>                          ****END OF INPUT****

CARTESIAN COORDINATES (ANGSTROEM)
---------------------------------
  S     18.411900    0.877339   70.055500
  C     17.203300   -0.006460   69.037100
  C     17.553100    0.049533   67.702400
  C     18.768600    0.809393   67.458200
  C     19.384500    1.281250   68.644500
  H     19.255900    0.912329   66.570200
  C     16.757400   -0.578841   66.630900
  H     17.243600   -1.490790   66.450100
  H     16.900200   -0.004148   65.663700
  C     15.286500   -0.784183   66.906000
  H     14.775700   -1.413410   66.150300
  H     15.383700   -1.383430   67.838600
  C     14.495000    0.496410   67.140700
  H     13.448200    0.317237   67.486600
  H     14.982600    1.160900   67.835300
  H     14.364800    1.014880   66.165300
  S     21.768200    1.838860   70.040000
  C     22.834100    3.151900   69.602900
  C     22.230200    3.810700   68.539300
  C     21.025400    3.216220   68.033400
  C     20.554400    2.123570   68.797600
  H     22.571100    4.681720   68.154600
  C     20.274700    3.832900   66.912000
  H     19.683100    3.047310   66.327700
  H     21.175000    4.103300   66.253700
  C     19.302700    4.957560   67.298300
  H     18.598400    4.462280   68.007500
  H     18.787200    5.148270   66.395200
  C     19.891700    6.232200   67.953400
  H     20.656100    6.639220   67.384700
  H     20.380900    6.000520   68.902200
  H     19.119000    6.927330   68.111900
  H     16.252800   -0.239564   69.453100
  H     23.687400    3.501580   70.137900

 Total Charge           Charge          ....    0
 Multiplicity           Mult            ....    1
 Number of Electrons    NEL             ....  134
 Basis Dimension        Dim             ....  322

ORBITAL ENERGIES
----------------

  NO   OCC          E(Eh)            E(eV)
   0   2.0000     -88.966057     -2420.8895
   1   2.0000     -88.964364     -2420.8434
   2   2.0000     -10.340074      -281.3677
   3   2.0000     -10.330755      -281.1141
   4   2.0000     -10.321019      -280.8492
   5   2.0000     -10.316484      -280.7258
   6   2.0000     -10.307837      -280.4905
   7   2.0000     -10.301706      -280.3237
   8   2.0000     -10.297142      -280.1995
   9   2.0000     -10.296548      -280.1833
  10   2.0000     -10.292087      -280.0619
  11   2.0000     -10.290329      -280.0141
  12   2.0000     -10.289004      -279.9780
  13   2.0000     -10.286009      -279.8965
  14   2.0000     -10.281709      -279.7795
  15   2.0000     -10.269151      -279.4378
  16   2.0000      -8.079853      -219.8640
  17   2.0000      -8.078846      -219.8366
  18   2.0000      -6.038456      -164.3147
  19   2.0000      -6.037428      -164.2868
  20   2.0000      -6.034443      -164.2055
  21   2.0000      -6.033125      -164.1697
  22   2.0000      -6.030612      -164.1013
  23   2.0000      -6.029763      -164.0782
  24   2.0000      -1.002537       -27.2804
  25   2.0000      -0.980407       -26.6782
  26   2.0000      -0.921986       -25.0885
  27   2.0000      -0.908532       -24.7224
  28   2.0000      -0.868711       -23.6388
  29   2.0000      -0.849950       -23.1283
  30   2.0000      -0.843705       -22.9584
  31   2.0000      -0.815685       -22.1959
  32   2.0000      -0.788218       -21.4485
  33   2.0000      -0.776952       -21.1419
  34   2.0000      -0.714922       -19.4540
  35   2.0000      -0.706591       -19.2273
  36   2.0000      -0.692135       -18.8340
  37   2.0000      -0.668654       -18.1950
  38   2.0000      -0.645733       -17.5713
  39   2.0000      -0.609907       -16.5964
  40   2.0000      -0.589179       -16.0324
  41   2.0000      -0.583800       -15.8860
  42   2.0000      -0.561829       -15.2881
  43   2.0000      -0.551514       -15.0075
  44   2.0000      -0.548964       -14.9381
  45   2.0000      -0.541773       -14.7424
  46   2.0000      -0.523452       -14.2438
  47   2.0000      -0.521978       -14.2037
  48   2.0000      -0.504775       -13.7356
  49   2.0000      -0.497820       -13.5464
  50   2.0000      -0.485304       -13.2058
  51   2.0000      -0.478906       -13.0317
  52   2.0000      -0.475658       -12.9433
  53   2.0000      -0.471067       -12.8184
  54   2.0000      -0.461169       -12.5490
  55   2.0000      -0.446039       -12.1373
  56   2.0000      -0.444374       -12.0920
  57   2.0000      -0.439937       -11.9713
  58   2.0000      -0.431843       -11.7510
  59   2.0000      -0.426090       -11.5945
  60   2.0000      -0.424357       -11.5473
  61   2.0000      -0.409168       -11.1340
  62   2.0000      -0.402038       -10.9400
  63   2.0000      -0.352435        -9.5902
  64   2.0000      -0.329848        -8.9756
  65   2.0000      -0.326383        -8.8813
  66   2.0000      -0.288564        -7.8522
  67   0.0000       0.018868         0.5134
  68   0.0000       0.070218         1.9107
  69   0.0000       0.106948         2.9102
  70   0.0000       0.116348         3.1660
  71   0.0000       0.131451         3.5770

MULLIKEN ATOMIC CHARGES
-----------------------
   0 S :    0.092475
   1 C :   -0.138103
   2 C :   -0.097710
   3 C :    0.051094
   4 C :   -0.137435
   5 H :   -0.013672
   6 C :    0.093693
   7 H :    0.035265
   8 H :    0.023155
   9 C :   -0.102341
  10 H :    0.038717
  11 H :    0.030839
  12 C :   -0.058889
  13 H :    0.040978
  14 H :    0.041557
  15 H :    0.031591
  16 S :    0.097108
  17 C :   -0.069220
  18 C :    0.003856
  19 C :   -0.060889
  20 C :   -0.131640
  21 H :   -0.029141
  22 C :   -0.018004
  23 H :    0.029953
  24 H :    0.037022
  25 C :   -0.037378
  26 H :    0.038925
  27 H :    0.024128
  28 C :   -0.008857
  29 H :    0.010720
  30 H :    0.036051
  31 H :    0.031261
  32 H :    0.056525
  33 H :    0.058366
Sum of atomic charges:    0.0000000

LOEWDIN ATOMIC CHARGES
----------------------
   0 S :    0.379951
   1 C :   -0.185941
   2 C :   -0.050939
   3 C :   -0.053339
   4 C :   -0.174374
   5 H :    0.012949
   6 C :   -0.035300
   7 H :    0.034294
   8 H :    0.032189
   9 C :   -0.047904
  10 H :    0.030781
  11 H :    0.025594
  12 C :   -0.070202
  13 H :    0.031292
  14 H :    0.022900
  15 H :    0.029407
  16 S :    0.407598
  17 C :   -0.180845
  18 C :   -0.061743
  19 C :   -0.061330
  20 C :   -0.206547
  21 H :    0.009245
  22 C :   -0.049013
  23 H :    0.037024
  24 H :    0.037285
  25 C :   -0.030923
  26 H :    0.034220
  27 H :    0.018967
  28 C :   -0.056057
  29 H :    0.013780
  30 H :    0.030144
  31 H :    0.024115
  32 H :    0.021075
  33 H :    0.031647

  Mayer bond orders larger than 0.100000
B(  0-S ,  1-C ) :   1.1094 B(  0-S ,  4-C ) :   1.1591 B(  1-C ,  2-C ) :   1.6158
B(  1-C , 32-H ) :   0.9654 B(  2-C ,  3-C ) :   1.2248 B(  2-C ,  6-C ) :   1.0126
B(  3-C ,  4-C ) :   1.5596 B(  3-C ,  5-H ) :   1.0040 B(  4-C , 20-C ) :   1.0619
B(  6-C ,  7-H ) :   0.9225 B(  6-C ,  8-H ) :   0.9389 B(  6-C ,  9-C ) :   1.0775
B(  9-C , 10-H ) :   0.9536 B(  9-C , 11-H ) :   0.9457 B(  9-C , 12-C ) :   1.0797
B( 12-C , 13-H ) :   0.9741 B( 12-C , 14-H ) :   0.9740 B( 12-C , 15-H ) :   0.9719
B( 16-S , 17-C ) :   1.1650 B( 16-S , 20-C ) :   1.1414 B( 17-C , 18-C ) :   1.5517
B( 17-C , 20-C ) :   0.1045 B( 17-C , 33-H ) :   0.9745 B( 18-C , 19-C ) :   1.2889
B( 18-C , 21-H ) :   1.0004 B( 19-C , 20-C ) :   1.5333 B( 19-C , 22-C ) :   1.0447
B( 22-C , 23-H ) :   0.9345 B( 22-C , 24-H ) :   0.9317 B( 22-C , 25-C ) :   1.0650
B( 25-C , 26-H ) :   0.9513 B( 25-C , 27-H ) :   0.9559 B( 25-C , 28-C ) :   1.0820
B( 28-C , 29-H ) :   0.9741 B( 28-C , 30-H ) :   0.9689 B( 28-C , 31-H ) :   0.9722

Dispersion correction           -0.014796806
FINAL SINGLE POINT ENERGY     -1339.868425968525

DIPOLE MOMENT
-------------
                                X             Y             Z
Electronic contribution:     16.95311      -8.44609      16.58132
Nuclear contribution   :    -17.23168       8.75386     -17.18192
                        -----------------------------------------
Total Dipole Moment    :     -0.27857       0.30777      -0.60060
                        -----------------------------------------
Magnitude (a.u.)       :      0.73010
Magnitude (Debye)      :      1.85576

Rotational constants in cm-1:     0.022561     0.008069     0.006697
Rotational constants in MHz :   676.348683   241.894408   200.768727

                             ****ORCA TERMINATED NORMALLY****
TOTAL RUN TIME: 0 days 0 hours 0 minutes 36 seconds 711 msec
