                         Program Version 4.2.1 -  RELEASE  -
|  1> ! wB97X-D3 SP def2-SVP
|  2> %pal
|  3> nprocs 16
|  4> end
|  5>
|  6> * xyz 0 1
|  7> S 	 16.0628 	 11.7329 	 89.7279
|  8> C 	 17.6108 	 11.5938 	 88.8559
|  9> C 	 17.4103 	 11.7631 	 87.5129
| 10> C 	 16.0497 	 11.7979 	 87.1879
| 11> C 	 15.1532 	 11.858 	 88.294
| 12> H 	 15.6742 	 11.9588 	 86.1701
| 13> C 	 18.4719 	 11.8077 	 86.4455
| 14> H 	 18.1688 	 11.3971 	 85.4703
| 15> H 	 19.2366 	 11.1686 	 86.7332
| 16> C 	 18.9902 	 13.1878 	 86.2166
| 17> H 	 19.0642 	 13.8068 	 87.104
| 18> H 	 20.0004 	 13.1314 	 85.7894
| 19> C 	 18.0625 	 13.8769 	 85.1745
| 20> H 	 18.4174 	 14.942 	 85.1633
| 21> H 	 18.0866 	 13.3024 	 84.1717
| 22> H 	 17.0065 	 13.8969 	 85.3033
| 23> S 	 13.3248 	 13.8293 	 88.2411
| 24> C 	 11.6589 	 13.5073 	 88.2757
| 25> C 	 11.3932 	 12.1821 	 88.437
| 26> C 	 12.5933 	 11.3381 	 88.3519
| 27> C 	 13.7081 	 12.126 	 88.3488
| 28> H 	 10.368 	 11.9499 	 88.45
| 29> C 	 12.5777 	 9.86535 	 88.3758
| 30> H 	 13.309 	 9.62486 	 87.616
| 31> H 	 11.5911 	 9.4627 	 88.0372
| 32> C 	 12.8784 	 9.13826 	 89.7219
| 33> H 	 13.5995 	 9.72202 	 90.2738
| 34> H 	 13.2792 	 8.14348 	 89.5833
| 35> C 	 11.619 	 8.78862 	 90.596
| 36> H 	 10.8294 	 8.21723 	 90.0434
| 37> H 	 11.2606 	 9.66428 	 91.1125
| 38> H 	 11.9504 	 8.13295 	 91.3707
| 39> H 	 18.6085 	 11.4247 	 89.312
| 40> H 	 10.9554 	 14.3166 	 88.3659
| 41> *
| 42>
| 43>                          ****END OF INPUT****

CARTESIAN COORDINATES (ANGSTROEM)
---------------------------------
  S     16.062800   11.732900   89.727900
  C     17.610800   11.593800   88.855900
  C     17.410300   11.763100   87.512900
  C     16.049700   11.797900   87.187900
  C     15.153200   11.858000   88.294000
  H     15.674200   11.958800   86.170100
  C     18.471900   11.807700   86.445500
  H     18.168800   11.397100   85.470300
  H     19.236600   11.168600   86.733200
  C     18.990200   13.187800   86.216600
  H     19.064200   13.806800   87.104000
  H     20.000400   13.131400   85.789400
  C     18.062500   13.876900   85.174500
  H     18.417400   14.942000   85.163300
  H     18.086600   13.302400   84.171700
  H     17.006500   13.896900   85.303300
  S     13.324800   13.829300   88.241100
  C     11.658900   13.507300   88.275700
  C     11.393200   12.182100   88.437000
  C     12.593300   11.338100   88.351900
  C     13.708100   12.126000   88.348800
  H     10.368000   11.949900   88.450000
  C     12.577700    9.865350   88.375800
  H     13.309000    9.624860   87.616000
  H     11.591100    9.462700   88.037200
  C     12.878400    9.138260   89.721900
  H     13.599500    9.722020   90.273800
  H     13.279200    8.143480   89.583300
  C     11.619000    8.788620   90.596000
  H     10.829400    8.217230   90.043400
  H     11.260600    9.664280   91.112500
  H     11.950400    8.132950   91.370700
  H     18.608500   11.424700   89.312000
  H     10.955400   14.316600   88.365900

 Total Charge           Charge          ....    0
 Multiplicity           Mult            ....    1
 Number of Electrons    NEL             ....  134
 Basis Dimension        Dim             ....  322

ORBITAL ENERGIES
----------------

  NO   OCC          E(Eh)            E(eV)
   0   2.0000     -88.968033     -2420.9432
   1   2.0000     -88.959064     -2420.6992
   2   2.0000     -10.329351      -281.0759
   3   2.0000     -10.322662      -280.8939
   4   2.0000     -10.316585      -280.7285
   5   2.0000     -10.308988      -280.5218
   6   2.0000     -10.305284      -280.4210
   7   2.0000     -10.296519      -280.1825
   8   2.0000     -10.293713      -280.1062
   9   2.0000     -10.289403      -279.9889
  10   2.0000     -10.289190      -279.9831
  11   2.0000     -10.285583      -279.8849
  12   2.0000     -10.284607      -279.8584
  13   2.0000     -10.283536      -279.8292
  14   2.0000     -10.282881      -279.8114
  15   2.0000     -10.275977      -279.6236
  16   2.0000      -8.082591      -219.9385
  17   2.0000      -8.075385      -219.7424
  18   2.0000      -6.041027      -164.3847
  19   2.0000      -6.036906      -164.2726
  20   2.0000      -6.033781      -164.1875
  21   2.0000      -6.033642      -164.1837
  22   2.0000      -6.029652      -164.0752
  23   2.0000      -6.026176      -163.9806
  24   2.0000      -1.010597       -27.4997
  25   2.0000      -0.989066       -26.9139
  26   2.0000      -0.920709       -25.0538
  27   2.0000      -0.906000       -24.6535
  28   2.0000      -0.868980       -23.6461
  29   2.0000      -0.848901       -23.0998
  30   2.0000      -0.842168       -22.9166
  31   2.0000      -0.810762       -22.0620
  32   2.0000      -0.785320       -21.3697
  33   2.0000      -0.774046       -21.0629
  34   2.0000      -0.706327       -19.2201
  35   2.0000      -0.702307       -19.1108
  36   2.0000      -0.690433       -18.7876
  37   2.0000      -0.663047       -18.0424
  38   2.0000      -0.639541       -17.4028
  39   2.0000      -0.617291       -16.7973
  40   2.0000      -0.593690       -16.1551
  41   2.0000      -0.579901       -15.7799
  42   2.0000      -0.554506       -15.0889
  43   2.0000      -0.550736       -14.9863
  44   2.0000      -0.547483       -14.8978
  45   2.0000      -0.537602       -14.6289
  46   2.0000      -0.515968       -14.0402
  47   2.0000      -0.513148       -13.9635
  48   2.0000      -0.500244       -13.6123
  49   2.0000      -0.492099       -13.3907
  50   2.0000      -0.485478       -13.2105
  51   2.0000      -0.477458       -12.9923
  52   2.0000      -0.467521       -12.7219
  53   2.0000      -0.465768       -12.6742
  54   2.0000      -0.464427       -12.6377
  55   2.0000      -0.448666       -12.2088
  56   2.0000      -0.444897       -12.1063
  57   2.0000      -0.433888       -11.8067
  58   2.0000      -0.429381       -11.6841
  59   2.0000      -0.424535       -11.5522
  60   2.0000      -0.420265       -11.4360
  61   2.0000      -0.410579       -11.1724
  62   2.0000      -0.409297       -11.1375
  63   2.0000      -0.336698        -9.1620
  64   2.0000      -0.325595        -8.8599
  65   2.0000      -0.321606        -8.7513
  66   2.0000      -0.312564        -8.5053
  67   0.0000       0.044695         1.2162
  68   0.0000       0.057279         1.5586
  69   0.0000       0.118135         3.2146
  70   0.0000       0.119574         3.2538
  71   0.0000       0.130842         3.5604

MULLIKEN ATOMIC CHARGES
-----------------------
   0 S :    0.124996
   1 C :   -0.143790
   2 C :   -0.086858
   3 C :    0.049753
   4 C :   -0.188103
   5 H :    0.012335
   6 C :    0.102087
   7 H :    0.017855
   8 H :   -0.001432
   9 C :   -0.043099
  10 H :    0.034036
  11 H :    0.032533
  12 C :   -0.096970
  13 H :    0.044733
  14 H :    0.032891
  15 H :    0.029983
  16 S :    0.115110
  17 C :   -0.091529
  18 C :   -0.018051
  19 C :   -0.020533
  20 C :   -0.185755
  21 H :    0.001748
  22 C :    0.087163
  23 H :    0.033110
  24 H :    0.017294
  25 C :   -0.056150
  26 H :    0.020740
  27 H :    0.027398
  28 C :   -0.062969
  29 H :    0.038734
  30 H :    0.035445
  31 H :    0.024737
  32 H :    0.057122
  33 H :    0.055436
Sum of atomic charges:    0.0000000

LOEWDIN ATOMIC CHARGES
----------------------
   0 S :    0.430690
   1 C :   -0.198136
   2 C :   -0.064037
   3 C :   -0.066960
   4 C :   -0.221109
   5 H :    0.029678
   6 C :   -0.027580
   7 H :    0.032437
   8 H :    0.019299
   9 C :   -0.035345
  10 H :    0.024951
  11 H :    0.028012
  12 C :   -0.074771
  13 H :    0.032050
  14 H :    0.031859
  15 H :    0.016642
  16 S :    0.424900
  17 C :   -0.193334
  18 C :   -0.070652
  19 C :   -0.047629
  20 C :   -0.209549
  21 H :    0.024382
  22 C :   -0.036965
  23 H :    0.037488
  24 H :    0.033482
  25 C :   -0.031783
  26 H :    0.017255
  27 H :    0.025355
  28 C :   -0.066938
  29 H :    0.028864
  30 H :    0.021822
  31 H :    0.022799
  32 H :    0.036349
  33 H :    0.026477

  Mayer bond orders larger than 0.100000
B(  0-S ,  1-C ) :   1.1482 B(  0-S ,  4-C ) :   1.1965 B(  1-C ,  2-C ) :   1.5832
B(  1-C ,  4-C ) :   0.1136 B(  1-C , 32-H ) :   0.9652 B(  2-C ,  3-C ) :   1.2872
B(  2-C ,  6-C ) :   1.0202 B(  3-C ,  4-C ) :   1.5313 B(  3-C ,  5-H ) :   0.9912
B(  4-C , 20-C ) :   0.9864 B(  6-C ,  7-H ) :   0.9444 B(  6-C ,  8-H ) :   0.9306
B(  6-C ,  9-C ) :   1.0706 B(  9-C , 10-H ) :   0.9580 B(  9-C , 11-H ) :   0.9517
B(  9-C , 12-C ) :   1.0682 B( 12-C , 13-H ) :   0.9737 B( 12-C , 14-H ) :   0.9729
B( 12-C , 15-H ) :   0.9778 B( 16-S , 17-C ) :   1.1653 B( 16-S , 20-C ) :   1.1506
B( 17-C , 18-C ) :   1.6367 B( 17-C , 33-H ) :   0.9645 B( 18-C , 19-C ) :   1.1862
B( 18-C , 21-H ) :   0.9988 B( 19-C , 20-C ) :   1.6323 B( 19-C , 22-C ) :   1.0663
B( 22-C , 23-H ) :   0.9190 B( 22-C , 24-H ) :   0.9335 B( 22-C , 25-C ) :   1.0591
B( 25-C , 26-H ) :   0.9568 B( 25-C , 27-H ) :   0.9592 B( 25-C , 28-C ) :   1.0808
B( 28-C , 29-H ) :   0.9739 B( 28-C , 30-H ) :   0.9777 B( 28-C , 31-H ) :   0.9750

Dispersion correction           -0.014591504
FINAL SINGLE POINT ENERGY     -1339.870148551689

DIPOLE MOMENT
-------------
                                X             Y             Z
Electronic contribution:     -3.95027       9.24578       7.33230
Nuclear contribution   :      4.03221      -9.45519      -7.55414
                        -----------------------------------------
Total Dipole Moment    :      0.08194      -0.20941      -0.22184
                        -----------------------------------------
Magnitude (a.u.)       :      0.31588
Magnitude (Debye)      :      0.80291

Rotational constants in cm-1:     0.022250     0.008228     0.006859
Rotational constants in MHz :   667.032734   246.663888   205.624790

                             ****ORCA TERMINATED NORMALLY****
TOTAL RUN TIME: 0 days 0 hours 0 minutes 34 seconds 767 msec
