                         Program Version 4.2.1 -  RELEASE  -
|  1> ! wB97X-D3 SP def2-SVP
|  2> %pal
|  3> nprocs 16
|  4> end
|  5>
|  6> * xyz 0 1
|  7> S 	 -2.61219 	 -12.0525 	 52.643
|  8> C 	 -3.45749 	 -12.5044 	 51.1848
|  9> C 	 -4.00482 	 -13.7901 	 51.1727
| 10> C 	 -3.79331 	 -14.4416 	 52.4368
| 11> C 	 -3.01702 	 -13.637 	 53.274
| 12> H 	 -4.02661 	 -15.4293 	 52.8474
| 13> C 	 -4.70053 	 -14.4557 	 49.9958
| 14> H 	 -3.97204 	 -15.1619 	 49.4593
| 15> H 	 -4.9628 	 -13.6448 	 49.3464
| 16> C 	 -5.98237 	 -15.1887 	 50.3415
| 17> H 	 -6.44076 	 -15.5696 	 49.4282
| 18> H 	 -5.68345 	 -16.0447 	 50.9773
| 19> C 	 -6.9962 	 -14.3733 	 51.2183
| 20> H 	 -7.66127 	 -13.7841 	 50.602
| 21> H 	 -7.54533 	 -15.1481 	 51.7989
| 22> H 	 -6.51273 	 -13.6831 	 51.9097
| 23> S 	 -1.04091 	 -13.6289 	 55.166
| 24> C 	 -1.2494 	 -14.5643 	 56.6474
| 25> C 	 -2.55617 	 -15.0058 	 56.7591
| 26> C 	 -3.37298 	 -14.7531 	 55.5776
| 27> C 	 -2.66575 	 -13.9835 	 54.6438
| 28> H 	 -2.68044 	 -15.6238 	 57.628
| 29> C 	 -4.75169 	 -15.2876 	 55.3539
| 30> H 	 -5.19304 	 -14.694 	 54.5848
| 31> H 	 -5.24686 	 -15.0191 	 56.2123
| 32> C 	 -4.9519 	 -16.776 	 55.2187
| 33> H 	 -4.54368 	 -17.1972 	 56.1505
| 34> H 	 -4.27218 	 -17.2304 	 54.5403
| 35> C 	 -6.39588 	 -17.1351 	 54.9026
| 36> H 	 -7.10103 	 -16.5293 	 55.4926
| 37> H 	 -6.65914 	 -18.1723 	 55.033
| 38> H 	 -6.64699 	 -16.9064 	 53.8569
| 39> H 	 -3.5315 	 -11.7408 	 50.4202
| 40> H 	 -0.422792 	 -14.9431 	 57.2584
| 41> *
| 42>
| 43>                          ****END OF INPUT****

CARTESIAN COORDINATES (ANGSTROEM)
---------------------------------
  S     -2.612190  -12.052500   52.643000
  C     -3.457490  -12.504400   51.184800
  C     -4.004820  -13.790100   51.172700
  C     -3.793310  -14.441600   52.436800
  C     -3.017020  -13.637000   53.274000
  H     -4.026610  -15.429300   52.847400
  C     -4.700530  -14.455700   49.995800
  H     -3.972040  -15.161900   49.459300
  H     -4.962800  -13.644800   49.346400
  C     -5.982370  -15.188700   50.341500
  H     -6.440760  -15.569600   49.428200
  H     -5.683450  -16.044700   50.977300
  C     -6.996200  -14.373300   51.218300
  H     -7.661270  -13.784100   50.602000
  H     -7.545330  -15.148100   51.798900
  H     -6.512730  -13.683100   51.909700
  S     -1.040910  -13.628900   55.166000
  C     -1.249400  -14.564300   56.647400
  C     -2.556170  -15.005800   56.759100
  C     -3.372980  -14.753100   55.577600
  C     -2.665750  -13.983500   54.643800
  H     -2.680440  -15.623800   57.628000
  C     -4.751690  -15.287600   55.353900
  H     -5.193040  -14.694000   54.584800
  H     -5.246860  -15.019100   56.212300
  C     -4.951900  -16.776000   55.218700
  H     -4.543680  -17.197200   56.150500
  H     -4.272180  -17.230400   54.540300
  C     -6.395880  -17.135100   54.902600
  H     -7.101030  -16.529300   55.492600
  H     -6.659140  -18.172300   55.033000
  H     -6.646990  -16.906400   53.856900
  H     -3.531500  -11.740800   50.420200
  H     -0.422792  -14.943100   57.258400

 Total Charge           Charge          ....    0
 Multiplicity           Mult            ....    1
 Number of Electrons    NEL             ....  134
 Basis Dimension        Dim             ....  322

ORBITAL ENERGIES
----------------

  NO   OCC          E(Eh)            E(eV)
   0   2.0000     -88.969356     -2420.9792
   1   2.0000     -88.962457     -2420.7915
   2   2.0000     -10.328749      -281.0595
   3   2.0000     -10.324658      -280.9482
   4   2.0000     -10.318479      -280.7801
   5   2.0000     -10.315063      -280.6871
   6   2.0000     -10.307849      -280.4908
   7   2.0000     -10.307197      -280.4731
   8   2.0000     -10.297496      -280.2091
   9   2.0000     -10.297247      -280.2023
  10   2.0000     -10.295036      -280.1422
  11   2.0000     -10.289686      -279.9966
  12   2.0000     -10.286605      -279.9127
  13   2.0000     -10.283017      -279.8151
  14   2.0000     -10.279342      -279.7151
  15   2.0000     -10.278817      -279.7008
  16   2.0000      -8.084266      -219.9841
  17   2.0000      -8.077360      -219.7961
  18   2.0000      -6.042587      -164.4271
  19   2.0000      -6.038946      -164.3281
  20   2.0000      -6.035889      -164.2449
  21   2.0000      -6.035042      -164.2218
  22   2.0000      -6.031814      -164.1340
  23   2.0000      -6.028127      -164.0337
  24   2.0000      -1.005602       -27.3638
  25   2.0000      -0.980215       -26.6730
  26   2.0000      -0.919306       -25.0156
  27   2.0000      -0.911688       -24.8083
  28   2.0000      -0.867968       -23.6186
  29   2.0000      -0.853851       -23.2345
  30   2.0000      -0.843969       -22.9656
  31   2.0000      -0.814284       -22.1578
  32   2.0000      -0.785310       -21.3694
  33   2.0000      -0.772552       -21.0222
  34   2.0000      -0.714646       -19.4465
  35   2.0000      -0.702137       -19.1061
  36   2.0000      -0.690127       -18.7793
  37   2.0000      -0.660752       -17.9800
  38   2.0000      -0.639269       -17.3954
  39   2.0000      -0.621383       -16.9087
  40   2.0000      -0.595528       -16.2051
  41   2.0000      -0.570639       -15.5279
  42   2.0000      -0.558179       -15.1888
  43   2.0000      -0.550458       -14.9787
  44   2.0000      -0.540396       -14.7049
  45   2.0000      -0.530548       -14.4369
  46   2.0000      -0.520340       -14.1592
  47   2.0000      -0.513437       -13.9713
  48   2.0000      -0.505264       -13.7489
  49   2.0000      -0.493741       -13.4354
  50   2.0000      -0.490820       -13.3559
  51   2.0000      -0.484360       -13.1801
  52   2.0000      -0.470389       -12.7999
  53   2.0000      -0.464621       -12.6430
  54   2.0000      -0.460976       -12.5438
  55   2.0000      -0.448451       -12.2030
  56   2.0000      -0.447883       -12.1875
  57   2.0000      -0.443624       -12.0716
  58   2.0000      -0.432088       -11.7577
  59   2.0000      -0.426574       -11.6077
  60   2.0000      -0.425340       -11.5741
  61   2.0000      -0.415752       -11.3132
  62   2.0000      -0.412844       -11.2341
  63   2.0000      -0.352597        -9.5946
  64   2.0000      -0.335091        -9.1183
  65   2.0000      -0.327600        -8.9145
  66   2.0000      -0.283084        -7.7031
  67   0.0000       0.028246         0.7686
  68   0.0000       0.070110         1.9078
  69   0.0000       0.105263         2.8643
  70   0.0000       0.115048         3.1306
  71   0.0000       0.118684         3.2296

MULLIKEN ATOMIC CHARGES
-----------------------
   0 S :    0.117666
   1 C :   -0.129824
   2 C :   -0.085737
   3 C :   -0.010015
   4 C :   -0.144884
   5 H :    0.017574
   6 C :    0.100257
   7 H :    0.061721
   8 H :    0.008276
   9 C :   -0.107668
  10 H :    0.037875
  11 H :    0.029782
  12 C :   -0.067398
  13 H :    0.032202
  14 H :    0.040886
  15 H :    0.053901
  16 S :    0.091057
  17 C :   -0.120295
  18 C :   -0.031326
  19 C :   -0.057472
  20 C :   -0.132470
  21 H :    0.017941
  22 C :    0.091841
  23 H :    0.018384
  24 H :    0.000704
  25 C :   -0.045031
  26 H :    0.015725
  27 H :    0.016505
  28 C :   -0.024787
  29 H :    0.027050
  30 H :    0.034777
  31 H :    0.026263
  32 H :    0.044287
  33 H :    0.072232
Sum of atomic charges:   -0.0000000

LOEWDIN ATOMIC CHARGES
----------------------
   0 S :    0.405694
   1 C :   -0.198777
   2 C :   -0.058892
   3 C :   -0.066295
   4 C :   -0.184487
   5 H :    0.038298
   6 C :   -0.035242
   7 H :    0.045574
   8 H :    0.024345
   9 C :   -0.044750
  10 H :    0.027144
  11 H :    0.021452
  12 C :   -0.066485
  13 H :    0.022272
  14 H :    0.030591
  15 H :    0.027833
  16 S :    0.391757
  17 C :   -0.186075
  18 C :   -0.071382
  19 C :   -0.051244
  20 C :   -0.200685
  21 H :    0.030594
  22 C :   -0.033743
  23 H :    0.027194
  24 H :    0.025129
  25 C :   -0.039804
  26 H :    0.026634
  27 H :    0.016287
  28 C :   -0.061218
  29 H :    0.027597
  30 H :    0.026106
  31 H :    0.027189
  32 H :    0.021141
  33 H :    0.036248

  Mayer bond orders larger than 0.100000
B(  0-S ,  1-C ) :   1.1365 B(  0-S ,  4-C ) :   1.1565 B(  1-C ,  2-C ) :   1.6153
B(  1-C , 32-H ) :   0.9682 B(  2-C ,  3-C ) :   1.1942 B(  2-C ,  6-C ) :   1.0186
B(  3-C ,  4-C ) :   1.5926 B(  3-C ,  5-H ) :   0.9903 B(  4-C , 20-C ) :   1.0374
B(  6-C ,  7-H ) :   0.9368 B(  6-C ,  8-H ) :   0.9339 B(  6-C ,  9-C ) :   1.0741
B(  9-C , 10-H ) :   0.9572 B(  9-C , 11-H ) :   0.9566 B(  9-C , 12-C ) :   1.0646
B( 12-C , 13-H ) :   0.9765 B( 12-C , 14-H ) :   0.9775 B( 12-C , 15-H ) :   0.9732
B( 16-S , 17-C ) :   1.1431 B( 16-S , 20-C ) :   1.1364 B( 17-C , 18-C ) :   1.6398
B( 17-C , 33-H ) :   0.9633 B( 18-C , 19-C ) :   1.1990 B( 18-C , 21-H ) :   0.9921
B( 19-C , 20-C ) :   1.5999 B( 19-C , 22-C ) :   1.0477 B( 22-C , 23-H ) :   0.9340
B( 22-C , 24-H ) :   0.9043 B( 22-C , 25-C ) :   1.0587 B( 25-C , 26-H ) :   0.9449
B( 25-C , 27-H ) :   0.9524 B( 25-C , 28-C ) :   1.0785 B( 28-C , 29-H ) :   0.9728
B( 28-C , 30-H ) :   0.9730 B( 28-C , 31-H ) :   0.9720

Dispersion correction           -0.015670253
FINAL SINGLE POINT ENERGY     -1339.880235970377

DIPOLE MOMENT
-------------
                                X             Y             Z
Electronic contribution:     25.86503      17.84127       6.21661
Nuclear contribution   :    -26.33001     -18.41935      -6.29329
                        -----------------------------------------
Total Dipole Moment    :     -0.46498      -0.57808      -0.07667
                        -----------------------------------------
Magnitude (a.u.)       :      0.74584
Magnitude (Debye)      :      1.89576

Rotational constants in cm-1:     0.017117     0.011151     0.007201
Rotational constants in MHz :   513.162760   334.311794   215.891348

                             ****ORCA TERMINATED NORMALLY****
TOTAL RUN TIME: 0 days 0 hours 0 minutes 33 seconds 46 msec
