                         Program Version 4.2.1 -  RELEASE  -
|  1> ! wB97X-D3 SP def2-SVP
|  2> %pal
|  3> nprocs 16
|  4> end
|  5>
|  6> * xyz 0 1
|  7> S 	 -30.2257 	 63.1854 	 106.568
|  8> C 	 -31.0845 	 64.5994 	 105.953
|  9> C 	 -32.4596 	 64.4404 	 106.13
| 10> C 	 -32.7772 	 63.1586 	 106.69
| 11> C 	 -31.6806 	 62.3764 	 107.016
| 12> H 	 -33.714 	 62.6688 	 106.948
| 13> C 	 -33.557 	 65.3525 	 105.611
| 14> H 	 -34.5443 	 64.7667 	 105.524
| 15> H 	 -33.2272 	 65.5652 	 104.57
| 16> C 	 -33.7488 	 66.6881 	 106.322
| 17> H 	 -33.7717 	 66.6426 	 107.386
| 18> H 	 -32.8177 	 67.2025 	 106.164
| 19> C 	 -34.8689 	 67.5127 	 105.697
| 20> H 	 -35.7987 	 66.9238 	 105.541
| 21> H 	 -35.0969 	 68.4164 	 106.292
| 22> H 	 -34.5864 	 67.9013 	 104.765
| 23> S 	 -32.1582 	 60.9331 	 109.21
| 24> C 	 -31.7898 	 59.1779 	 109.278
| 25> C 	 -31.3936 	 58.7769 	 107.99
| 26> C 	 -31.5053 	 59.8116 	 106.96
| 27> C 	 -31.7517 	 61.0544 	 107.512
| 28> H 	 -31.1444 	 57.7256 	 107.881
| 29> C 	 -31.0993 	 59.4164 	 105.534
| 30> H 	 -30.6685 	 58.375 	 105.499
| 31> H 	 -30.2633 	 60.0302 	 105.165
| 32> C 	 -32.2438 	 59.6643 	 104.487
| 33> H 	 -32.6009 	 60.6387 	 104.758
| 34> H 	 -32.9691 	 58.9752 	 104.763
| 35> C 	 -31.8778 	 59.4877 	 102.97
| 36> H 	 -31.0169 	 60.1046 	 102.718
| 37> H 	 -32.642 	 59.7152 	 102.255
| 38> H 	 -31.6322 	 58.369 	 102.848
| 39> H 	 -30.7161 	 65.3988 	 105.276
| 40> H 	 -32.0136 	 58.5671 	 110.128
| 41> *
| 42>
| 43>                          ****END OF INPUT****

CARTESIAN COORDINATES (ANGSTROEM)
---------------------------------
  S    -30.225700   63.185400  106.568000
  C    -31.084500   64.599400  105.953000
  C    -32.459600   64.440400  106.130000
  C    -32.777200   63.158600  106.690000
  C    -31.680600   62.376400  107.016000
  H    -33.714000   62.668800  106.948000
  C    -33.557000   65.352500  105.611000
  H    -34.544300   64.766700  105.524000
  H    -33.227200   65.565200  104.570000
  C    -33.748800   66.688100  106.322000
  H    -33.771700   66.642600  107.386000
  H    -32.817700   67.202500  106.164000
  C    -34.868900   67.512700  105.697000
  H    -35.798700   66.923800  105.541000
  H    -35.096900   68.416400  106.292000
  H    -34.586400   67.901300  104.765000
  S    -32.158200   60.933100  109.210000
  C    -31.789800   59.177900  109.278000
  C    -31.393600   58.776900  107.990000
  C    -31.505300   59.811600  106.960000
  C    -31.751700   61.054400  107.512000
  H    -31.144400   57.725600  107.881000
  C    -31.099300   59.416400  105.534000
  H    -30.668500   58.375000  105.499000
  H    -30.263300   60.030200  105.165000
  C    -32.243800   59.664300  104.487000
  H    -32.600900   60.638700  104.758000
  H    -32.969100   58.975200  104.763000
  C    -31.877800   59.487700  102.970000
  H    -31.016900   60.104600  102.718000
  H    -32.642000   59.715200  102.255000
  H    -31.632200   58.369000  102.848000
  H    -30.716100   65.398800  105.276000
  H    -32.013600   58.567100  110.128000

 Total Charge           Charge          ....    0
 Multiplicity           Mult            ....    1
 Number of Electrons    NEL             ....  134
 Basis Dimension        Dim             ....  322

ORBITAL ENERGIES
----------------

  NO   OCC          E(Eh)            E(eV)
   0   2.0000     -88.969878     -2420.9935
   1   2.0000     -88.962942     -2420.8047
   2   2.0000     -10.326576      -281.0004
   3   2.0000     -10.323575      -280.9188
   4   2.0000     -10.323124      -280.9065
   5   2.0000     -10.320540      -280.8362
   6   2.0000     -10.312228      -280.6100
   7   2.0000     -10.306017      -280.4410
   8   2.0000     -10.301918      -280.3294
   9   2.0000     -10.300506      -280.2910
  10   2.0000     -10.297385      -280.2061
  11   2.0000     -10.293862      -280.1102
  12   2.0000     -10.284393      -279.8526
  13   2.0000     -10.282159      -279.7918
  14   2.0000     -10.279519      -279.7199
  15   2.0000     -10.277957      -279.6774
  16   2.0000      -8.084278      -219.9844
  17   2.0000      -8.077265      -219.7936
  18   2.0000      -6.042818      -164.4334
  19   2.0000      -6.038673      -164.3206
  20   2.0000      -6.035845      -164.2437
  21   2.0000      -6.035163      -164.2251
  22   2.0000      -6.031733      -164.1318
  23   2.0000      -6.028047      -164.0315
  24   2.0000      -1.008256       -27.4360
  25   2.0000      -0.979274       -26.6474
  26   2.0000      -0.913689       -24.8627
  27   2.0000      -0.898692       -24.4547
  28   2.0000      -0.874128       -23.7862
  29   2.0000      -0.850298       -23.1378
  30   2.0000      -0.841118       -22.8880
  31   2.0000      -0.811779       -22.0896
  32   2.0000      -0.780165       -21.2294
  33   2.0000      -0.769728       -20.9454
  34   2.0000      -0.709146       -19.2969
  35   2.0000      -0.706735       -19.2312
  36   2.0000      -0.692526       -18.8446
  37   2.0000      -0.666225       -18.1289
  38   2.0000      -0.643210       -17.5026
  39   2.0000      -0.611229       -16.6324
  40   2.0000      -0.590894       -16.0790
  41   2.0000      -0.571502       -15.5514
  42   2.0000      -0.562617       -15.3096
  43   2.0000      -0.558299       -15.1921
  44   2.0000      -0.523360       -14.2414
  45   2.0000      -0.522730       -14.2242
  46   2.0000      -0.516722       -14.0607
  47   2.0000      -0.511484       -13.9182
  48   2.0000      -0.503073       -13.6893
  49   2.0000      -0.500365       -13.6156
  50   2.0000      -0.493359       -13.4250
  51   2.0000      -0.484814       -13.1925
  52   2.0000      -0.470027       -12.7901
  53   2.0000      -0.467073       -12.7097
  54   2.0000      -0.457346       -12.4450
  55   2.0000      -0.443535       -12.0692
  56   2.0000      -0.440603       -11.9894
  57   2.0000      -0.438572       -11.9341
  58   2.0000      -0.425420       -11.5763
  59   2.0000      -0.424370       -11.5477
  60   2.0000      -0.420188       -11.4339
  61   2.0000      -0.417059       -11.3488
  62   2.0000      -0.413458       -11.2508
  63   2.0000      -0.333763        -9.0822
  64   2.0000      -0.331049        -9.0083
  65   2.0000      -0.322600        -8.7784
  66   2.0000      -0.308833        -8.4038
  67   0.0000       0.031137         0.8473
  68   0.0000       0.056652         1.5416
  69   0.0000       0.109775         2.9871
  70   0.0000       0.117884         3.2078
  71   0.0000       0.122043         3.3210

MULLIKEN ATOMIC CHARGES
-----------------------
   0 S :    0.133158
   1 C :   -0.132088
   2 C :   -0.061210
   3 C :    0.037391
   4 C :   -0.173266
   5 H :    0.013582
   6 C :    0.003936
   7 H :    0.040069
   8 H :    0.032584
   9 C :   -0.038636
  10 H :    0.027084
  11 H :    0.011504
  12 C :   -0.029159
  13 H :    0.034029
  14 H :    0.036031
  15 H :    0.014136
  16 S :    0.100123
  17 C :   -0.101193
  18 C :   -0.048510
  19 C :    0.006079
  20 C :   -0.200415
  21 H :    0.029301
  22 C :    0.039800
  23 H :    0.026749
  24 H :    0.026678
  25 C :   -0.060731
  26 H :    0.030397
  27 H :    0.014989
  28 C :   -0.052703
  29 H :    0.035419
  30 H :    0.039016
  31 H :    0.038066
  32 H :    0.064756
  33 H :    0.063036
Sum of atomic charges:   -0.0000000

LOEWDIN ATOMIC CHARGES
----------------------
   0 S :    0.423368
   1 C :   -0.208064
   2 C :   -0.062822
   3 C :   -0.061571
   4 C :   -0.218970
   5 H :    0.033028
   6 C :   -0.036944
   7 H :    0.035833
   8 H :    0.034874
   9 C :   -0.041599
  10 H :    0.021505
  11 H :    0.023216
  12 C :   -0.062078
  13 H :    0.027922
  14 H :    0.031555
  15 H :    0.017066
  16 S :    0.393646
  17 C :   -0.172186
  18 C :   -0.066977
  19 C :   -0.051094
  20 C :   -0.202084
  21 H :    0.031745
  22 C :   -0.033513
  23 H :    0.031148
  24 H :    0.028124
  25 C :   -0.033681
  26 H :    0.020899
  27 H :    0.013368
  28 C :   -0.067017
  29 H :    0.024402
  30 H :    0.024129
  31 H :    0.035054
  32 H :    0.039950
  33 H :    0.027765

  Mayer bond orders larger than 0.100000
B(  0-S ,  1-C ) :   1.1420 B(  0-S ,  4-C ) :   1.1506 B(  1-C ,  2-C ) :   1.6009
B(  1-C , 32-H ) :   0.9608 B(  2-C ,  3-C ) :   1.2399 B(  2-C ,  6-C ) :   1.0092
B(  3-C ,  4-C ) :   1.5703 B(  3-C ,  5-H ) :   0.9921 B(  4-C , 20-C ) :   1.0426
B(  6-C ,  7-H ) :   0.9513 B(  6-C ,  8-H ) :   0.9413 B(  6-C ,  9-C ) :   1.0563
B(  9-C , 10-H ) :   0.9602 B(  9-C , 11-H ) :   0.9482 B(  9-C , 12-C ) :   1.0829
B( 12-C , 13-H ) :   0.9756 B( 12-C , 14-H ) :   0.9730 B( 12-C , 15-H ) :   0.9734
B( 16-S , 17-C ) :   1.1407 B( 16-S , 20-C ) :   1.1448 B( 17-C , 18-C ) :   1.6146
B( 17-C , 20-C ) :   0.1051 B( 17-C , 33-H ) :   0.9729 B( 18-C , 19-C ) :   1.2204
B( 18-C , 21-H ) :   0.9862 B( 19-C , 20-C ) :   1.5920 B( 19-C , 22-C ) :   1.0432
B( 22-C , 23-H ) :   0.9431 B( 22-C , 24-H ) :   0.9379 B( 22-C , 25-C ) :   1.0342
B( 25-C , 26-H ) :   0.9630 B( 25-C , 27-H ) :   0.9589 B( 25-C , 28-C ) :   1.0736
B( 28-C , 29-H ) :   0.9768 B( 28-C , 30-H ) :   0.9770 B( 28-C , 31-H ) :   0.9750

Dispersion correction           -0.014014615
FINAL SINGLE POINT ENERGY     -1339.867425251316

DIPOLE MOMENT
-------------
                                X             Y             Z
Electronic contribution:     11.66881      -7.36943      19.42635
Nuclear contribution   :    -11.94140       7.33573     -19.88491
                        -----------------------------------------
Total Dipole Moment    :     -0.27259      -0.03370      -0.45857
                        -----------------------------------------
Magnitude (a.u.)       :      0.53453
Magnitude (Debye)      :      1.35868

Rotational constants in cm-1:     0.018955     0.007752     0.006541
Rotational constants in MHz :   568.246675   232.388791   196.096849

                             ****ORCA TERMINATED NORMALLY****
TOTAL RUN TIME: 0 days 0 hours 0 minutes 29 seconds 166 msec
