                         Program Version 4.2.1 -  RELEASE  -
|  1> ! wB97X-D3 SP def2-SVP
|  2> %pal
|  3> nprocs 16
|  4> end
|  5>
|  6> * xyz 0 1
|  7> S 	 49.213 	 24.8852 	 88.5839
|  8> C 	 49.3405 	 25.9229 	 89.9622
|  9> C 	 50.2366 	 25.4919 	 90.8792
| 10> C 	 51.0492 	 24.4618 	 90.2779
| 11> C 	 50.721 	 24.1604 	 88.9858
| 12> H 	 51.9406 	 24.035 	 90.6842
| 13> C 	 50.3517 	 25.992 	 92.3138
| 14> H 	 50.4126 	 25.2479 	 93.0422
| 15> H 	 49.4119 	 26.3617 	 92.5431
| 16> C 	 51.5241 	 27.0086 	 92.5715
| 17> H 	 51.8385 	 26.9093 	 93.6131
| 18> H 	 52.4111 	 26.7637 	 92.001
| 19> C 	 50.9769 	 28.341 	 92.16
| 20> H 	 50.2431 	 28.7518 	 92.9626
| 21> H 	 51.8719 	 29.0546 	 92.127
| 22> H 	 50.4791 	 28.3495 	 91.1971
| 23> S 	 50.3082 	 22.1475 	 87.2009
| 24> C 	 51.5223 	 21.0393 	 86.7485
| 25> C 	 52.769 	 21.4035 	 87.2165
| 26> C 	 52.7096 	 22.5551 	 88.1143
| 27> C 	 51.4352 	 23.1237 	 88.1536
| 28> H 	 53.6156 	 20.8427 	 86.8514
| 29> C 	 53.9964 	 22.9627 	 88.8067
| 30> H 	 54.8722 	 22.2851 	 88.3862
| 31> H 	 53.9003 	 22.6778 	 89.8481
| 32> C 	 54.3685 	 24.498 	 88.8498
| 33> H 	 55.2005 	 24.757 	 89.4499
| 34> H 	 53.6002 	 25.0236 	 89.4722
| 35> C 	 54.5911 	 25.036 	 87.4442
| 36> H 	 54.8777 	 26.1138 	 87.5985
| 37> H 	 53.5592 	 24.851 	 86.9588
| 38> H 	 55.2771 	 24.6136 	 86.7293
| 39> H 	 48.5446 	 26.5866 	 90.2918
| 40> H 	 51.3321 	 20.3224 	 85.8983
| 41> *
| 42>
| 43>                          ****END OF INPUT****

CARTESIAN COORDINATES (ANGSTROEM)
---------------------------------
  S     49.213000   24.885200   88.583900
  C     49.340500   25.922900   89.962200
  C     50.236600   25.491900   90.879200
  C     51.049200   24.461800   90.277900
  C     50.721000   24.160400   88.985800
  H     51.940600   24.035000   90.684200
  C     50.351700   25.992000   92.313800
  H     50.412600   25.247900   93.042200
  H     49.411900   26.361700   92.543100
  C     51.524100   27.008600   92.571500
  H     51.838500   26.909300   93.613100
  H     52.411100   26.763700   92.001000
  C     50.976900   28.341000   92.160000
  H     50.243100   28.751800   92.962600
  H     51.871900   29.054600   92.127000
  H     50.479100   28.349500   91.197100
  S     50.308200   22.147500   87.200900
  C     51.522300   21.039300   86.748500
  C     52.769000   21.403500   87.216500
  C     52.709600   22.555100   88.114300
  C     51.435200   23.123700   88.153600
  H     53.615600   20.842700   86.851400
  C     53.996400   22.962700   88.806700
  H     54.872200   22.285100   88.386200
  H     53.900300   22.677800   89.848100
  C     54.368500   24.498000   88.849800
  H     55.200500   24.757000   89.449900
  H     53.600200   25.023600   89.472200
  C     54.591100   25.036000   87.444200
  H     54.877700   26.113800   87.598500
  H     53.559200   24.851000   86.958800
  H     55.277100   24.613600   86.729300
  H     48.544600   26.586600   90.291800
  H     51.332100   20.322400   85.898300

 Total Charge           Charge          ....    0
 Multiplicity           Mult            ....    1
 Number of Electrons    NEL             ....  134
 Basis Dimension        Dim             ....  322

ORBITAL ENERGIES
----------------

  NO   OCC          E(Eh)            E(eV)
   0   2.0000     -88.967423     -2420.9267
   1   2.0000     -88.963084     -2420.8086
   2   2.0000     -10.336072      -281.2588
   3   2.0000     -10.331298      -281.1289
   4   2.0000     -10.318726      -280.7868
   5   2.0000     -10.314636      -280.6755
   6   2.0000     -10.309678      -280.5406
   7   2.0000     -10.304710      -280.4054
   8   2.0000     -10.301610      -280.3211
   9   2.0000     -10.297636      -280.2129
  10   2.0000     -10.290022      -280.0057
  11   2.0000     -10.288805      -279.9726
  12   2.0000     -10.288196      -279.9560
  13   2.0000     -10.286763      -279.9170
  14   2.0000     -10.285223      -279.8751
  15   2.0000     -10.278873      -279.7023
  16   2.0000      -8.083098      -219.9523
  17   2.0000      -8.078842      -219.8365
  18   2.0000      -6.041663      -164.4020
  19   2.0000      -6.037754      -164.2957
  20   2.0000      -6.037305      -164.2834
  21   2.0000      -6.033467      -164.1790
  22   2.0000      -6.033170      -164.1709
  23   2.0000      -6.029638      -164.0748
  24   2.0000      -1.012985       -27.5647
  25   2.0000      -0.990054       -26.9407
  26   2.0000      -0.916390       -24.9362
  27   2.0000      -0.904141       -24.6029
  28   2.0000      -0.868952       -23.6454
  29   2.0000      -0.851251       -23.1637
  30   2.0000      -0.845464       -23.0063
  31   2.0000      -0.815507       -22.1911
  32   2.0000      -0.782188       -21.2844
  33   2.0000      -0.773018       -21.0349
  34   2.0000      -0.709667       -19.3110
  35   2.0000      -0.701763       -19.0959
  36   2.0000      -0.683838       -18.6082
  37   2.0000      -0.665754       -18.1161
  38   2.0000      -0.639729       -17.4079
  39   2.0000      -0.621886       -16.9224
  40   2.0000      -0.588124       -16.0037
  41   2.0000      -0.575771       -15.6675
  42   2.0000      -0.553401       -15.0588
  43   2.0000      -0.548129       -14.9154
  44   2.0000      -0.539541       -14.6816
  45   2.0000      -0.535083       -14.5603
  46   2.0000      -0.521148       -14.1812
  47   2.0000      -0.506287       -13.7768
  48   2.0000      -0.501502       -13.6466
  49   2.0000      -0.496836       -13.5196
  50   2.0000      -0.489970       -13.3328
  51   2.0000      -0.482916       -13.1408
  52   2.0000      -0.474670       -12.9164
  53   2.0000      -0.466991       -12.7075
  54   2.0000      -0.460405       -12.5283
  55   2.0000      -0.450929       -12.2704
  56   2.0000      -0.445347       -12.1185
  57   2.0000      -0.438153       -11.9227
  58   2.0000      -0.430434       -11.7127
  59   2.0000      -0.425466       -11.5775
  60   2.0000      -0.420626       -11.4458
  61   2.0000      -0.410870       -11.1803
  62   2.0000      -0.395226       -10.7546
  63   2.0000      -0.358475        -9.7546
  64   2.0000      -0.332512        -9.0481
  65   2.0000      -0.325254        -8.8506
  66   2.0000      -0.291999        -7.9457
  67   0.0000       0.025093         0.6828
  68   0.0000       0.075256         2.0478
  69   0.0000       0.100474         2.7340
  70   0.0000       0.120833         3.2880
  71   0.0000       0.127783         3.4771

MULLIKEN ATOMIC CHARGES
-----------------------
   0 S :    0.113370
   1 C :   -0.102685
   2 C :   -0.111625
   3 C :    0.023444
   4 C :   -0.111986
   5 H :   -0.009254
   6 C :    0.117813
   7 H :    0.004229
   8 H :   -0.011124
   9 C :   -0.041693
  10 H :    0.029889
  11 H :    0.030113
  12 C :   -0.093728
  13 H :    0.043855
  14 H :    0.037892
  15 H :    0.043762
  16 S :    0.079282
  17 C :   -0.105267
  18 C :   -0.044079
  19 C :   -0.067883
  20 C :   -0.115327
  21 H :    0.024218
  22 C :    0.011297
  23 H :    0.043613
  24 H :    0.041356
  25 C :   -0.048021
  26 H :    0.010743
  27 H :    0.028805
  28 C :   -0.083755
  29 H :    0.042769
  30 H :    0.055838
  31 H :    0.036060
  32 H :    0.045567
  33 H :    0.082513
Sum of atomic charges:   -0.0000000

LOEWDIN ATOMIC CHARGES
----------------------
   0 S :    0.414768
   1 C :   -0.203616
   2 C :   -0.056529
   3 C :   -0.061729
   4 C :   -0.198369
   5 H :    0.021824
   6 C :   -0.020221
   7 H :    0.023904
   8 H :    0.020083
   9 C :   -0.036532
  10 H :    0.025571
  11 H :    0.023104
  12 C :   -0.073160
  13 H :    0.033573
  14 H :    0.028994
  15 H :    0.023935
  16 S :    0.408371
  17 C :   -0.205288
  18 C :   -0.074246
  19 C :   -0.060114
  20 C :   -0.183707
  21 H :    0.033058
  22 C :   -0.039756
  23 H :    0.043150
  24 H :    0.030070
  25 C :   -0.048683
  26 H :    0.016209
  27 H :    0.031133
  28 C :   -0.078804
  29 H :    0.032088
  30 H :    0.039985
  31 H :    0.022027
  32 H :    0.027387
  33 H :    0.041518

  Mayer bond orders larger than 0.100000
B(  0-S ,  1-C ) :   1.1298 B(  0-S ,  4-C ) :   1.1494 B(  1-C ,  2-C ) :   1.6521
B(  1-C , 32-H ) :   0.9548 B(  2-C ,  3-C ) :   1.2176 B(  2-C ,  6-C ) :   1.0251
B(  3-C ,  4-C ) :   1.5869 B(  3-C ,  5-H ) :   1.0000 B(  4-C , 20-C ) :   1.0217
B(  6-C ,  7-H ) :   0.9372 B(  6-C ,  8-H ) :   0.9325 B(  6-C ,  9-C ) :   1.0505
B(  9-C , 10-H ) :   0.9551 B(  9-C , 11-H ) :   0.9624 B(  9-C , 12-C ) :   1.0721
B( 12-C , 13-H ) :   0.9744 B( 12-C , 14-H ) :   0.9731 B( 12-C , 15-H ) :   0.9743
B( 16-S , 17-C ) :   1.1761 B( 16-S , 20-C ) :   1.1357 B( 17-C , 18-C ) :   1.6182
B( 17-C , 33-H ) :   0.9541 B( 18-C , 19-C ) :   1.2246 B( 18-C , 21-H ) :   0.9909
B( 19-C , 20-C ) :   1.6051 B( 19-C , 22-C ) :   1.0337 B( 22-C , 23-H ) :   0.9429
B( 22-C , 24-H ) :   0.9274 B( 22-C , 25-C ) :   1.0719 B( 25-C , 26-H ) :   0.9530
B( 25-C , 27-H ) :   0.9430 B( 25-C , 28-C ) :   1.0651 B( 28-C , 29-H ) :   0.9734
B( 28-C , 30-H ) :   0.9729 B( 28-C , 31-H ) :   0.9792

Dispersion correction           -0.014985090
FINAL SINGLE POINT ENERGY     -1339.848260507271

DIPOLE MOMENT
-------------
                                X             Y             Z
Electronic contribution:    -17.71215     -16.04178     -14.46699
Nuclear contribution   :     18.15428      16.02679      14.97044
                        -----------------------------------------
Total Dipole Moment    :      0.44214      -0.01499       0.50345
                        -----------------------------------------
Magnitude (a.u.)       :      0.67020
Magnitude (Debye)      :      1.70352

Rotational constants in cm-1:     0.020804     0.009021     0.007034
Rotational constants in MHz :   623.699932   270.441863   210.873450

                             ****ORCA TERMINATED NORMALLY****
TOTAL RUN TIME: 0 days 0 hours 0 minutes 31 seconds 76 msec
