                         Program Version 4.2.1 -  RELEASE  -
|  1> ! wB97X-D3 SP def2-SVP
|  2> %pal
|  3> nprocs 16
|  4> end
|  5>
|  6> * xyz 0 1
|  7> S 	 -26.6462 	 58.6231 	 109.092
|  8> C 	 -26.0008 	 60.1677 	 108.652
|  9> C 	 -27.0305 	 61.0781 	 108.265
| 10> C 	 -28.3211 	 60.4766 	 108.349
| 11> C 	 -28.291 	 59.204 	 108.763
| 12> H 	 -29.301 	 60.9168 	 108.115
| 13> C 	 -26.7672 	 62.4908 	 107.77
| 14> H 	 -25.8109 	 62.7398 	 108.141
| 15> H 	 -27.3792 	 63.2158 	 108.386
| 16> C 	 -26.9312 	 62.6236 	 106.231
| 17> H 	 -27.9213 	 62.5623 	 105.986
| 18> H 	 -26.6092 	 63.6019 	 105.87
| 19> C 	 -26.2721 	 61.4727 	 105.408
| 20> H 	 -26.3084 	 61.737 	 104.386
| 21> H 	 -25.2416 	 61.2938 	 105.807
| 22> H 	 -26.8723 	 60.558 	 105.442
| 23> S 	 -30.3008 	 58.1031 	 107.288
| 24> C 	 -31.4128 	 56.9304 	 108.05
| 25> C 	 -30.9266 	 56.5799 	 109.302
| 26> C 	 -29.7746 	 57.3233 	 109.689
| 27> C 	 -29.4301 	 58.2951 	 108.739
| 28> H 	 -31.5162 	 55.8482 	 109.875
| 29> C 	 -29.0688 	 56.9307 	 110.958
| 30> H 	 -29.1663 	 57.8398 	 111.532
| 31> H 	 -28.0425 	 56.6778 	 110.737
| 32> C 	 -29.6896 	 55.753 	 111.771
| 33> H 	 -29.5184 	 54.8736 	 111.092
| 34> H 	 -30.7689 	 55.9172 	 111.968
| 35> C 	 -28.9747 	 55.457 	 113.149
| 36> H 	 -27.9841 	 55.1945 	 112.867
| 37> H 	 -29.3972 	 54.639 	 113.708
| 38> H 	 -28.983 	 56.2816 	 113.744
| 39> H 	 -24.8996 	 60.3637 	 108.576
| 40> H 	 -32.2723 	 56.5139 	 107.511
| 41> *
| 42>
| 43>                          ****END OF INPUT****

CARTESIAN COORDINATES (ANGSTROEM)
---------------------------------
  S    -26.646200   58.623100  109.092000
  C    -26.000800   60.167700  108.652000
  C    -27.030500   61.078100  108.265000
  C    -28.321100   60.476600  108.349000
  C    -28.291000   59.204000  108.763000
  H    -29.301000   60.916800  108.115000
  C    -26.767200   62.490800  107.770000
  H    -25.810900   62.739800  108.141000
  H    -27.379200   63.215800  108.386000
  C    -26.931200   62.623600  106.231000
  H    -27.921300   62.562300  105.986000
  H    -26.609200   63.601900  105.870000
  C    -26.272100   61.472700  105.408000
  H    -26.308400   61.737000  104.386000
  H    -25.241600   61.293800  105.807000
  H    -26.872300   60.558000  105.442000
  S    -30.300800   58.103100  107.288000
  C    -31.412800   56.930400  108.050000
  C    -30.926600   56.579900  109.302000
  C    -29.774600   57.323300  109.689000
  C    -29.430100   58.295100  108.739000
  H    -31.516200   55.848200  109.875000
  C    -29.068800   56.930700  110.958000
  H    -29.166300   57.839800  111.532000
  H    -28.042500   56.677800  110.737000
  C    -29.689600   55.753000  111.771000
  H    -29.518400   54.873600  111.092000
  H    -30.768900   55.917200  111.968000
  C    -28.974700   55.457000  113.149000
  H    -27.984100   55.194500  112.867000
  H    -29.397200   54.639000  113.708000
  H    -28.983000   56.281600  113.744000
  H    -24.899600   60.363700  108.576000
  H    -32.272300   56.513900  107.511000

 Total Charge           Charge          ....    0
 Multiplicity           Mult            ....    1
 Number of Electrons    NEL             ....  134
 Basis Dimension        Dim             ....  322

ORBITAL ENERGIES
----------------

  NO   OCC          E(Eh)            E(eV)
   0   2.0000     -88.966542     -2420.9027
   1   2.0000     -88.964952     -2420.8594
   2   2.0000     -10.323247      -280.9098
   3   2.0000     -10.320789      -280.8429
   4   2.0000     -10.320518      -280.8356
   5   2.0000     -10.318497      -280.7806
   6   2.0000     -10.304396      -280.3969
   7   2.0000     -10.300485      -280.2904
   8   2.0000     -10.295663      -280.1592
   9   2.0000     -10.293649      -280.1044
  10   2.0000     -10.292381      -280.0699
  11   2.0000     -10.290675      -280.0235
  12   2.0000     -10.288951      -279.9766
  13   2.0000     -10.281371      -279.7703
  14   2.0000     -10.274559      -279.5850
  15   2.0000     -10.270113      -279.4640
  16   2.0000      -8.080933      -219.8934
  17   2.0000      -8.079774      -219.8618
  18   2.0000      -6.039426      -164.3411
  19   2.0000      -6.038230      -164.3086
  20   2.0000      -6.035519      -164.2348
  21   2.0000      -6.034262      -164.2006
  22   2.0000      -6.031735      -164.1319
  23   2.0000      -6.030603      -164.1011
  24   2.0000      -1.007577       -27.4176
  25   2.0000      -0.982183       -26.7266
  26   2.0000      -0.906557       -24.6687
  27   2.0000      -0.905599       -24.6426
  28   2.0000      -0.868051       -23.6209
  29   2.0000      -0.849451       -23.1147
  30   2.0000      -0.844050       -22.9678
  31   2.0000      -0.814912       -22.1749
  32   2.0000      -0.782773       -21.3003
  33   2.0000      -0.767062       -20.8728
  34   2.0000      -0.706839       -19.2341
  35   2.0000      -0.704153       -19.1610
  36   2.0000      -0.687121       -18.6975
  37   2.0000      -0.656202       -17.8562
  38   2.0000      -0.633521       -17.2390
  39   2.0000      -0.617542       -16.8042
  40   2.0000      -0.595278       -16.1983
  41   2.0000      -0.576669       -15.6920
  42   2.0000      -0.559562       -15.2265
  43   2.0000      -0.550195       -14.9716
  44   2.0000      -0.540087       -14.6965
  45   2.0000      -0.523319       -14.2402
  46   2.0000      -0.519016       -14.1232
  47   2.0000      -0.511783       -13.9263
  48   2.0000      -0.506321       -13.7777
  49   2.0000      -0.493416       -13.4265
  50   2.0000      -0.487348       -13.2614
  51   2.0000      -0.472014       -12.8442
  52   2.0000      -0.465230       -12.6595
  53   2.0000      -0.463820       -12.6212
  54   2.0000      -0.455549       -12.3961
  55   2.0000      -0.451779       -12.2935
  56   2.0000      -0.446263       -12.1434
  57   2.0000      -0.444873       -12.1056
  58   2.0000      -0.436120       -11.8674
  59   2.0000      -0.423642       -11.5279
  60   2.0000      -0.419504       -11.4153
  61   2.0000      -0.413459       -11.2508
  62   2.0000      -0.408938       -11.1278
  63   2.0000      -0.348021        -9.4701
  64   2.0000      -0.335955        -9.1418
  65   2.0000      -0.322727        -8.7819
  66   2.0000      -0.287688        -7.8284
  67   0.0000       0.030553         0.8314
  68   0.0000       0.071216         1.9379
  69   0.0000       0.110425         3.0048
  70   0.0000       0.117066         3.1855
  71   0.0000       0.130198         3.5429

MULLIKEN ATOMIC CHARGES
-----------------------
   0 S :    0.106738
   1 C :   -0.138341
   2 C :   -0.125191
   3 C :    0.002095
   4 C :   -0.137700
   5 H :    0.024501
   6 C :    0.094508
   7 H :   -0.001726
   8 H :    0.036200
   9 C :   -0.037581
  10 H :    0.007620
  11 H :    0.028667
  12 C :   -0.051076
  13 H :    0.026270
  14 H :    0.034732
  15 H :    0.042112
  16 S :    0.109941
  17 C :   -0.113574
  18 C :   -0.048061
  19 C :   -0.069424
  20 C :   -0.146654
  21 H :    0.033821
  22 C :    0.094058
  23 H :    0.036122
  24 H :    0.036063
  25 C :   -0.163983
  26 H :    0.042540
  27 H :    0.045062
  28 C :    0.034092
  29 H :    0.018390
  30 H :    0.031702
  31 H :    0.013300
  32 H :    0.070703
  33 H :    0.064069
Sum of atomic charges:   -0.0000000

LOEWDIN ATOMIC CHARGES
----------------------
   0 S :    0.404461
   1 C :   -0.211678
   2 C :   -0.058994
   3 C :   -0.068031
   4 C :   -0.185201
   5 H :    0.039110
   6 C :   -0.033705
   7 H :    0.020141
   8 H :    0.038995
   9 C :   -0.031382
  10 H :    0.011571
  11 H :    0.024204
  12 C :   -0.060948
  13 H :    0.020575
  14 H :    0.027015
  15 H :    0.029552
  16 S :    0.416451
  17 C :   -0.182797
  18 C :   -0.074460
  19 C :   -0.060777
  20 C :   -0.219373
  21 H :    0.037837
  22 C :   -0.035941
  23 H :    0.035939
  24 H :    0.025323
  25 C :   -0.041525
  26 H :    0.028651
  27 H :    0.022593
  28 C :   -0.047756
  29 H :    0.022550
  30 H :    0.027822
  31 H :    0.011308
  32 H :    0.037016
  33 H :    0.031453

  Mayer bond orders larger than 0.100000
B(  0-S ,  1-C ) :   1.1507 B(  0-S ,  4-C ) :   1.1312 B(  1-C ,  2-C ) :   1.5963
B(  1-C , 32-H ) :   0.9596 B(  2-C ,  3-C ) :   1.2160 B(  2-C ,  6-C ) :   1.0296
B(  3-C ,  4-C ) :   1.5926 B(  3-C ,  5-H ) :   1.0000 B(  4-C , 20-C ) :   1.0507
B(  6-C ,  7-H ) :   0.9362 B(  6-C ,  8-H ) :   0.9439 B(  6-C ,  9-C ) :   1.0491
B(  9-C , 10-H ) :   0.9559 B(  9-C , 11-H ) :   0.9611 B(  9-C , 12-C ) :   1.0793
B( 12-C , 13-H ) :   0.9730 B( 12-C , 14-H ) :   0.9799 B( 12-C , 15-H ) :   0.9700
B( 16-S , 17-C ) :   1.1538 B( 16-S , 20-C ) :   1.1606 B( 17-C , 18-C ) :   1.5744
B( 17-C , 20-C ) :   0.1014 B( 17-C , 33-H ) :   0.9654 B( 18-C , 19-C ) :   1.2724
B( 18-C , 21-H ) :   0.9817 B( 19-C , 20-C ) :   1.5512 B( 19-C , 22-C ) :   1.0191
B( 22-C , 23-H ) :   0.9167 B( 22-C , 24-H ) :   0.9309 B( 22-C , 25-C ) :   1.0956
B( 25-C , 26-H ) :   0.9534 B( 25-C , 27-H ) :   0.9497 B( 25-C , 28-C ) :   1.0721
B( 28-C , 29-H ) :   0.9740 B( 28-C , 30-H ) :   0.9740 B( 28-C , 31-H ) :   0.9769

Dispersion correction           -0.014460290
FINAL SINGLE POINT ENERGY     -1339.871116406955

DIPOLE MOMENT
-------------
                                X             Y             Z
Electronic contribution:     -4.20515      -2.64431      -5.68112
Nuclear contribution   :      4.15515       2.69728       5.78420
                        -----------------------------------------
Total Dipole Moment    :     -0.04999       0.05297       0.10307
                        -----------------------------------------
Magnitude (a.u.)       :      0.12621
Magnitude (Debye)      :      0.32079

Rotational constants in cm-1:     0.024145     0.007752     0.006297
Rotational constants in MHz :   723.839317   232.389971   188.788649

                             ****ORCA TERMINATED NORMALLY****
TOTAL RUN TIME: 0 days 0 hours 0 minutes 29 seconds 666 msec
