                         Program Version 4.2.1 -  RELEASE  -
|  1> ! wB97X-D3 SP def2-SVP
|  2> %pal
|  3> nprocs 16
|  4> end
|  5>
|  6> * xyz 0 1
|  7> S 	 5.56688 	 -2.77259 	 87.9017
|  8> C 	 6.99736 	 -1.8721 	 87.4369
|  9> C 	 7.98104 	 -2.73726 	 86.955
| 10> C 	 7.46374 	 -4.02948 	 86.6468
| 11> C 	 6.14675 	 -4.21268 	 87.0024
| 12> H 	 8.02093 	 -4.83485 	 86.1857
| 13> C 	 9.43163 	 -2.43627 	 86.758
| 14> H 	 10.0844 	 -3.05435 	 87.4483
| 15> H 	 9.59029 	 -1.4638 	 87.237
| 16> C 	 10.005 	 -2.4906 	 85.2525
| 17> H 	 9.9409 	 -3.5688 	 85.0622
| 18> H 	 9.31025 	 -1.94135 	 84.6404
| 19> C 	 11.4643 	 -2.00004 	 85.1716
| 20> H 	 11.9647 	 -2.08957 	 84.2499
| 21> H 	 11.5848 	 -0.993598 	 85.4761
| 22> H 	 12.0236 	 -2.57055 	 85.9203
| 23> S 	 4.88296 	 -6.17549 	 88.4355
| 24> C 	 4.16376 	 -7.50157 	 87.6173
| 25> C 	 4.49568 	 -7.54597 	 86.2656
| 26> C 	 5.23793 	 -6.35893 	 85.848
| 27> C 	 5.31806 	 -5.40516 	 86.8855
| 28> H 	 4.16445 	 -8.29686 	 85.6205
| 29> C 	 5.70618 	 -6.17127 	 84.4183
| 30> H 	 6.31377 	 -5.32125 	 84.284
| 31> H 	 4.86672 	 -5.97528 	 83.789
| 32> C 	 6.53555 	 -7.28333 	 83.9088
| 33> H 	 5.9943 	 -8.07644 	 83.4163
| 34> H 	 7.05766 	 -7.77809 	 84.6294
| 35> C 	 7.48357 	 -6.85139 	 82.7969
| 36> H 	 6.97783 	 -6.38364 	 81.9957
| 37> H 	 7.84849 	 -7.73661 	 82.2724
| 38> H 	 8.33631 	 -6.26128 	 83.1039
| 39> H 	 7.12035 	 -0.819972 	 87.6692
| 40> H 	 3.57482 	 -8.2849 	 88.1205
| 41> *
| 42>
| 43>                          ****END OF INPUT****

CARTESIAN COORDINATES (ANGSTROEM)
---------------------------------
  S      5.566880   -2.772590   87.901700
  C      6.997360   -1.872100   87.436900
  C      7.981040   -2.737260   86.955000
  C      7.463740   -4.029480   86.646800
  C      6.146750   -4.212680   87.002400
  H      8.020930   -4.834850   86.185700
  C      9.431630   -2.436270   86.758000
  H     10.084400   -3.054350   87.448300
  H      9.590290   -1.463800   87.237000
  C     10.005000   -2.490600   85.252500
  H      9.940900   -3.568800   85.062200
  H      9.310250   -1.941350   84.640400
  C     11.464300   -2.000040   85.171600
  H     11.964700   -2.089570   84.249900
  H     11.584800   -0.993598   85.476100
  H     12.023600   -2.570550   85.920300
  S      4.882960   -6.175490   88.435500
  C      4.163760   -7.501570   87.617300
  C      4.495680   -7.545970   86.265600
  C      5.237930   -6.358930   85.848000
  C      5.318060   -5.405160   86.885500
  H      4.164450   -8.296860   85.620500
  C      5.706180   -6.171270   84.418300
  H      6.313770   -5.321250   84.284000
  H      4.866720   -5.975280   83.789000
  C      6.535550   -7.283330   83.908800
  H      5.994300   -8.076440   83.416300
  H      7.057660   -7.778090   84.629400
  C      7.483570   -6.851390   82.796900
  H      6.977830   -6.383640   81.995700
  H      7.848490   -7.736610   82.272400
  H      8.336310   -6.261280   83.103900
  H      7.120350   -0.819972   87.669200
  H      3.574820   -8.284900   88.120500

 Total Charge           Charge          ....    0
 Multiplicity           Mult            ....    1
 Number of Electrons    NEL             ....  134
 Basis Dimension        Dim             ....  322

ORBITAL ENERGIES
----------------

  NO   OCC          E(Eh)            E(eV)
   0   2.0000     -88.963475     -2420.8192
   1   2.0000     -88.963381     -2420.8167
   2   2.0000     -10.330071      -281.0955
   3   2.0000     -10.327634      -281.0292
   4   2.0000     -10.319170      -280.7989
   5   2.0000     -10.317643      -280.7573
   6   2.0000     -10.310024      -280.5500
   7   2.0000     -10.302275      -280.3392
   8   2.0000     -10.297566      -280.2110
   9   2.0000     -10.295096      -280.1438
  10   2.0000     -10.293742      -280.1069
  11   2.0000     -10.293045      -280.0880
  12   2.0000     -10.281403      -279.7712
  13   2.0000     -10.275504      -279.6107
  14   2.0000     -10.272882      -279.5393
  15   2.0000     -10.272389      -279.5259
  16   2.0000      -8.078410      -219.8247
  17   2.0000      -8.077706      -219.8055
  18   2.0000      -6.036909      -164.2727
  19   2.0000      -6.036269      -164.2552
  20   2.0000      -6.033009      -164.1665
  21   2.0000      -6.032399      -164.1499
  22   2.0000      -6.029022      -164.0580
  23   2.0000      -6.028323      -164.0390
  24   2.0000      -1.001327       -27.2475
  25   2.0000      -0.979796       -26.6616
  26   2.0000      -0.922415       -25.1002
  27   2.0000      -0.903100       -24.5746
  28   2.0000      -0.867688       -23.6110
  29   2.0000      -0.853087       -23.2137
  30   2.0000      -0.846319       -23.0295
  31   2.0000      -0.813016       -22.1233
  32   2.0000      -0.785662       -21.3790
  33   2.0000      -0.768840       -20.9212
  34   2.0000      -0.713524       -19.4160
  35   2.0000      -0.707086       -19.2408
  36   2.0000      -0.693853       -18.8807
  37   2.0000      -0.658274       -17.9125
  38   2.0000      -0.641657       -17.4604
  39   2.0000      -0.622153       -16.9297
  40   2.0000      -0.603063       -16.4102
  41   2.0000      -0.577709       -15.7203
  42   2.0000      -0.569166       -15.4878
  43   2.0000      -0.554188       -15.0802
  44   2.0000      -0.527020       -14.3409
  45   2.0000      -0.525017       -14.2864
  46   2.0000      -0.519362       -14.1326
  47   2.0000      -0.511774       -13.9261
  48   2.0000      -0.505786       -13.7631
  49   2.0000      -0.495208       -13.4753
  50   2.0000      -0.491498       -13.3743
  51   2.0000      -0.483908       -13.1678
  52   2.0000      -0.474677       -12.9166
  53   2.0000      -0.465822       -12.6757
  54   2.0000      -0.457556       -12.4507
  55   2.0000      -0.452454       -12.3119
  56   2.0000      -0.443790       -12.0761
  57   2.0000      -0.440592       -11.9891
  58   2.0000      -0.432063       -11.7570
  59   2.0000      -0.427771       -11.6402
  60   2.0000      -0.421352       -11.4656
  61   2.0000      -0.417984       -11.3739
  62   2.0000      -0.416290       -11.3278
  63   2.0000      -0.345483        -9.4011
  64   2.0000      -0.327217        -8.9040
  65   2.0000      -0.326407        -8.8820
  66   2.0000      -0.289734        -7.8841
  67   0.0000       0.027011         0.7350
  68   0.0000       0.062737         1.7072
  69   0.0000       0.104759         2.8506
  70   0.0000       0.113219         3.0808
  71   0.0000       0.125286         3.4092

MULLIKEN ATOMIC CHARGES
-----------------------
   0 S :    0.097634
   1 C :   -0.116214
   2 C :   -0.080359
   3 C :    0.040650
   4 C :   -0.169075
   5 H :    0.013794
   6 C :    0.009605
   7 H :    0.042160
   8 H :    0.005117
   9 C :   -0.066141
  10 H :    0.035053
  11 H :    0.038019
  12 C :   -0.008586
  13 H :    0.031709
  14 H :    0.020247
  15 H :    0.019214
  16 S :    0.098470
  17 C :   -0.088753
  18 C :   -0.007275
  19 C :   -0.077115
  20 C :   -0.118515
  21 H :    0.000130
  22 C :    0.135597
  23 H :    0.000075
  24 H :    0.031339
  25 C :   -0.050301
  26 H :    0.015195
  27 H :    0.007436
  28 C :   -0.051051
  29 H :    0.016463
  30 H :    0.018784
  31 H :    0.035393
  32 H :    0.052979
  33 H :    0.068321
Sum of atomic charges:    0.0000000

LOEWDIN ATOMIC CHARGES
----------------------
   0 S :    0.383146
   1 C :   -0.189398
   2 C :   -0.067760
   3 C :   -0.057327
   4 C :   -0.182814
   5 H :    0.031288
   6 C :   -0.043095
   7 H :    0.037930
   8 H :    0.023813
   9 C :   -0.029488
  10 H :    0.024103
  11 H :    0.021977
  12 C :   -0.061182
  13 H :    0.021693
  14 H :    0.021496
  15 H :    0.028503
  16 S :    0.404389
  17 C :   -0.190693
  18 C :   -0.066218
  19 C :   -0.040266
  20 C :   -0.197534
  21 H :    0.021441
  22 C :   -0.027982
  23 H :    0.024745
  24 H :    0.035255
  25 C :   -0.035544
  26 H :    0.024738
  27 H :    0.012826
  28 C :   -0.059845
  29 H :    0.019715
  30 H :    0.028145
  31 H :    0.020951
  32 H :    0.028477
  33 H :    0.034516

  Mayer bond orders larger than 0.100000
B(  0-S ,  1-C ) :   1.1393 B(  0-S ,  4-C ) :   1.1361 B(  1-C ,  2-C ) :   1.6008
B(  1-C , 32-H ) :   0.9692 B(  2-C ,  3-C ) :   1.2253 B(  2-C ,  6-C ) :   1.0422
B(  3-C ,  4-C ) :   1.5862 B(  3-C ,  5-H ) :   0.9935 B(  4-C , 20-C ) :   1.0294
B(  6-C ,  7-H ) :   0.9383 B(  6-C ,  8-H ) :   0.9401 B(  6-C ,  9-C ) :   1.0296
B(  9-C , 10-H ) :   0.9585 B(  9-C , 11-H ) :   0.9629 B(  9-C , 12-C ) :   1.0794
B( 12-C , 13-H ) :   0.9759 B( 12-C , 14-H ) :   0.9758 B( 12-C , 15-H ) :   0.9710
B( 16-S , 17-C ) :   1.1674 B( 16-S , 20-C ) :   1.1339 B( 17-C , 18-C ) :   1.5970
B( 17-C , 33-H ) :   0.9642 B( 18-C , 19-C ) :   1.2222 B( 18-C , 21-H ) :   1.0027
B( 19-C , 20-C ) :   1.5971 B( 19-C , 22-C ) :   1.0539 B( 22-C , 23-H ) :   0.9397
B( 22-C , 24-H ) :   0.9203 B( 22-C , 25-C ) :   1.0555 B( 25-C , 26-H ) :   0.9428
B( 25-C , 27-H ) :   0.9601 B( 25-C , 28-C ) :   1.1041 B( 28-C , 29-H ) :   0.9696
B( 28-C , 30-H ) :   0.9712 B( 28-C , 31-H ) :   0.9740

Dispersion correction           -0.013906785
FINAL SINGLE POINT ENERGY     -1339.863625459005

DIPOLE MOMENT
-------------
                                X             Y             Z
Electronic contribution:    -23.20453       0.59758      22.80684
Nuclear contribution   :     23.74638      -0.84296     -23.32607
                        -----------------------------------------
Total Dipole Moment    :      0.54185      -0.24538      -0.51924
                        -----------------------------------------
Magnitude (a.u.)       :      0.78957
Magnitude (Debye)      :      2.00693

Rotational constants in cm-1:     0.016541     0.009224     0.006410
Rotational constants in MHz :   495.896014   276.518083   192.159041

                             ****ORCA TERMINATED NORMALLY****
TOTAL RUN TIME: 0 days 0 hours 0 minutes 33 seconds 749 msec
