                         Program Version 4.2.1 -  RELEASE  -
|  1> ! wB97X-D3 SP def2-SVP
|  2> %pal
|  3> nprocs 16
|  4> end
|  5>
|  6> * xyz 0 1
|  7> S 	 -31.5115 	 34.7569 	 38.2854
|  8> C 	 -30.5769 	 36.1067 	 37.7181
|  9> C 	 -29.2216 	 35.8946 	 37.693
| 10> C 	 -28.8502 	 34.7644 	 38.4662
| 11> C 	 -29.981 	 34.0482 	 38.9362
| 12> H 	 -27.8637 	 34.3498 	 38.7104
| 13> C 	 -28.2182 	 36.8604 	 37.2821
| 14> H 	 -27.3131 	 36.2877 	 37.1895
| 15> H 	 -27.92 	 37.4528 	 38.1511
| 16> C 	 -28.4343 	 37.7405 	 36.0334
| 17> H 	 -27.4323 	 37.9868 	 35.7365
| 18> H 	 -28.8309 	 36.9997 	 35.3139
| 19> C 	 -29.2471 	 39.0532 	 36.3058
| 20> H 	 -29.2556 	 39.5941 	 35.3222
| 21> H 	 -30.2842 	 38.9033 	 36.6761
| 22> H 	 -28.7497 	 39.6226 	 37.0903
| 23> S 	 -30.1781 	 31.3207 	 39.1954
| 24> C 	 -30.0689 	 30.5858 	 40.6644
| 25> C 	 -29.938 	 31.5324 	 41.7028
| 26> C 	 -29.8069 	 32.8807 	 41.2465
| 27> C 	 -30.0065 	 32.9301 	 39.8786
| 28> H 	 -29.8458 	 31.1572 	 42.6881
| 29> C 	 -29.5672 	 34.058 	 42.2094
| 30> H 	 -30.5455 	 34.6345 	 42.2265
| 31> H 	 -28.9221 	 34.7344 	 41.7497
| 32> C 	 -28.9802 	 33.6939 	 43.5727
| 33> H 	 -29.6946 	 33.0025 	 44.0156
| 34> H 	 -29.0466 	 34.5791 	 44.173
| 35> C 	 -27.5499 	 33.1518 	 43.4819
| 36> H 	 -27.2396 	 32.7623 	 44.4589
| 37> H 	 -26.781 	 33.9152 	 43.1661
| 38> H 	 -27.4971 	 32.2672 	 42.8661
| 39> H 	 -30.9937 	 36.8987 	 37.0667
| 40> H 	 -30.0818 	 29.5842 	 40.822
| 41> *
| 42>
| 43>                          ****END OF INPUT****

CARTESIAN COORDINATES (ANGSTROEM)
---------------------------------
  S    -31.511500   34.756900   38.285400
  C    -30.576900   36.106700   37.718100
  C    -29.221600   35.894600   37.693000
  C    -28.850200   34.764400   38.466200
  C    -29.981000   34.048200   38.936200
  H    -27.863700   34.349800   38.710400
  C    -28.218200   36.860400   37.282100
  H    -27.313100   36.287700   37.189500
  H    -27.920000   37.452800   38.151100
  C    -28.434300   37.740500   36.033400
  H    -27.432300   37.986800   35.736500
  H    -28.830900   36.999700   35.313900
  C    -29.247100   39.053200   36.305800
  H    -29.255600   39.594100   35.322200
  H    -30.284200   38.903300   36.676100
  H    -28.749700   39.622600   37.090300
  S    -30.178100   31.320700   39.195400
  C    -30.068900   30.585800   40.664400
  C    -29.938000   31.532400   41.702800
  C    -29.806900   32.880700   41.246500
  C    -30.006500   32.930100   39.878600
  H    -29.845800   31.157200   42.688100
  C    -29.567200   34.058000   42.209400
  H    -30.545500   34.634500   42.226500
  H    -28.922100   34.734400   41.749700
  C    -28.980200   33.693900   43.572700
  H    -29.694600   33.002500   44.015600
  H    -29.046600   34.579100   44.173000
  C    -27.549900   33.151800   43.481900
  H    -27.239600   32.762300   44.458900
  H    -26.781000   33.915200   43.166100
  H    -27.497100   32.267200   42.866100
  H    -30.993700   36.898700   37.066700
  H    -30.081800   29.584200   40.822000

 Total Charge           Charge          ....    0
 Multiplicity           Mult            ....    1
 Number of Electrons    NEL             ....  134
 Basis Dimension        Dim             ....  322

ORBITAL ENERGIES
----------------

  NO   OCC          E(Eh)            E(eV)
   0   2.0000     -88.964395     -2420.8443
   1   2.0000     -88.962170     -2420.7837
   2   2.0000     -10.330951      -281.1195
   3   2.0000     -10.318828      -280.7896
   4   2.0000     -10.308203      -280.5005
   5   2.0000     -10.304018      -280.3866
   6   2.0000     -10.303826      -280.3814
   7   2.0000     -10.297971      -280.2220
   8   2.0000     -10.292812      -280.0817
   9   2.0000     -10.291067      -280.0342
  10   2.0000     -10.290615      -280.0219
  11   2.0000     -10.289181      -279.9829
  12   2.0000     -10.287401      -279.9344
  13   2.0000     -10.285827      -279.8916
  14   2.0000     -10.282012      -279.7878
  15   2.0000     -10.281546      -279.7751
  16   2.0000      -8.078914      -219.8384
  17   2.0000      -8.078497      -219.8271
  18   2.0000      -6.037088      -164.2775
  19   2.0000      -6.036898      -164.2724
  20   2.0000      -6.033295      -164.1743
  21   2.0000      -6.032975      -164.1656
  22   2.0000      -6.030072      -164.0866
  23   2.0000      -6.029214      -164.0633
  24   2.0000      -1.006218       -27.3806
  25   2.0000      -0.984614       -26.7927
  26   2.0000      -0.912429       -24.8284
  27   2.0000      -0.911708       -24.8088
  28   2.0000      -0.864432       -23.5224
  29   2.0000      -0.850908       -23.1544
  30   2.0000      -0.845510       -23.0075
  31   2.0000      -0.806048       -21.9337
  32   2.0000      -0.786700       -21.4072
  33   2.0000      -0.775022       -21.0894
  34   2.0000      -0.707781       -19.2597
  35   2.0000      -0.707199       -19.2439
  36   2.0000      -0.697761       -18.9870
  37   2.0000      -0.655079       -17.8256
  38   2.0000      -0.635577       -17.2949
  39   2.0000      -0.610936       -16.6244
  40   2.0000      -0.600882       -16.3508
  41   2.0000      -0.578925       -15.7534
  42   2.0000      -0.550195       -14.9716
  43   2.0000      -0.539956       -14.6930
  44   2.0000      -0.537359       -14.6223
  45   2.0000      -0.533461       -14.5162
  46   2.0000      -0.521922       -14.2022
  47   2.0000      -0.510906       -13.9025
  48   2.0000      -0.502080       -13.6623
  49   2.0000      -0.491686       -13.3795
  50   2.0000      -0.485576       -13.2132
  51   2.0000      -0.483883       -13.1671
  52   2.0000      -0.476382       -12.9630
  53   2.0000      -0.466953       -12.7064
  54   2.0000      -0.463061       -12.6005
  55   2.0000      -0.445419       -12.1205
  56   2.0000      -0.441627       -12.0173
  57   2.0000      -0.440406       -11.9840
  58   2.0000      -0.432804       -11.7772
  59   2.0000      -0.424389       -11.5482
  60   2.0000      -0.421628       -11.4731
  61   2.0000      -0.419828       -11.4241
  62   2.0000      -0.414078       -11.2676
  63   2.0000      -0.332716        -9.0537
  64   2.0000      -0.328776        -8.9464
  65   2.0000      -0.318113        -8.6563
  66   2.0000      -0.299432        -8.1480
  67   0.0000       0.041779         1.1369
  68   0.0000       0.054491         1.4828
  69   0.0000       0.112481         3.0608
  70   0.0000       0.124086         3.3765
  71   0.0000       0.129091         3.5127

MULLIKEN ATOMIC CHARGES
-----------------------
   0 S :    0.111878
   1 C :   -0.127085
   2 C :   -0.074276
   3 C :    0.039816
   4 C :   -0.188089
   5 H :    0.024872
   6 C :    0.034075
   7 H :    0.005851
   8 H :    0.030625
   9 C :   -0.055061
  10 H :    0.023308
  11 H :    0.039380
  12 C :   -0.065917
  13 H :    0.053252
  14 H :    0.041067
  15 H :    0.035730
  16 S :    0.135072
  17 C :   -0.047393
  18 C :   -0.065114
  19 C :   -0.016166
  20 C :   -0.214952
  21 H :    0.001371
  22 C :    0.098843
  23 H :    0.051303
  24 H :   -0.000475
  25 C :   -0.052966
  26 H :    0.029205
  27 H :    0.024378
  28 C :   -0.055213
  29 H :    0.028246
  30 H :    0.045744
  31 H :    0.035141
  32 H :    0.057553
  33 H :    0.015996
Sum of atomic charges:    0.0000000

LOEWDIN ATOMIC CHARGES
----------------------
   0 S :    0.386569
   1 C :   -0.207102
   2 C :   -0.073186
   3 C :   -0.050644
   4 C :   -0.181335
   5 H :    0.037886
   6 C :   -0.044546
   7 H :    0.029052
   8 H :    0.035511
   9 C :   -0.039930
  10 H :    0.025288
  11 H :    0.029884
  12 C :   -0.068375
  13 H :    0.035340
  14 H :    0.025571
  15 H :    0.027243
  16 S :    0.456979
  17 C :   -0.201567
  18 C :   -0.078051
  19 C :   -0.044526
  20 C :   -0.221060
  21 H :    0.019891
  22 C :   -0.029002
  23 H :    0.046498
  24 H :    0.019364
  25 C :   -0.040648
  26 H :    0.023556
  27 H :    0.025628
  28 C :   -0.067867
  29 H :    0.027628
  30 H :    0.034197
  31 H :    0.024388
  32 H :    0.028763
  33 H :    0.008603

  Mayer bond orders larger than 0.100000
B(  0-S ,  1-C ) :   1.1390 B(  0-S ,  4-C ) :   1.1413 B(  1-C ,  2-C ) :   1.6196
B(  1-C ,  4-C ) :   0.1023 B(  1-C , 32-H ) :   0.9489 B(  2-C ,  3-C ) :   1.2133
B(  2-C ,  6-C ) :   1.0475 B(  3-C ,  4-C ) :   1.5959 B(  3-C ,  5-H ) :   0.9915
B(  4-C , 20-C ) :   1.0198 B(  6-C ,  7-H ) :   0.9272 B(  6-C ,  8-H ) :   0.9246
B(  6-C ,  9-C ) :   1.0638 B(  9-C , 10-H ) :   0.9528 B(  9-C , 11-H ) :   0.9623
B(  9-C , 12-C ) :   1.0623 B( 12-C , 13-H ) :   0.9739 B( 12-C , 14-H ) :   0.9763
B( 12-C , 15-H ) :   0.9723 B( 16-S , 17-C ) :   1.2061 B( 16-S , 20-C ) :   1.1693
B( 17-C , 18-C ) :   1.5540 B( 17-C , 20-C ) :   0.1036 B( 17-C , 33-H ) :   0.9792
B( 18-C , 19-C ) :   1.2613 B( 18-C , 21-H ) :   0.9929 B( 19-C , 20-C ) :   1.5799
B( 19-C , 22-C ) :   1.0216 B( 22-C , 23-H ) :   0.9284 B( 22-C , 24-H ) :   0.9252
B( 22-C , 25-C ) :   1.0791 B( 25-C , 26-H ) :   0.9485 B( 25-C , 27-H ) :   0.9500
B( 25-C , 28-C ) :   1.0773 B( 28-C , 29-H ) :   0.9717 B( 28-C , 30-H ) :   0.9726
B( 28-C , 31-H ) :   0.9738

Dispersion correction           -0.014323581
FINAL SINGLE POINT ENERGY     -1339.867184531928

DIPOLE MOMENT
-------------
                                X             Y             Z
Electronic contribution:    -14.30503     -17.79990      -6.87285
Nuclear contribution   :     14.86884      18.09132       7.13911
                        -----------------------------------------
Total Dipole Moment    :      0.56382       0.29143       0.26626
                        -----------------------------------------
Magnitude (a.u.)       :      0.68827
Magnitude (Debye)      :      1.74944

Rotational constants in cm-1:     0.022577     0.007286     0.006221
Rotational constants in MHz :   676.845751   218.427820   186.498015

                             ****ORCA TERMINATED NORMALLY****
TOTAL RUN TIME: 0 days 0 hours 0 minutes 33 seconds 549 msec
