                         Program Version 4.2.1 -  RELEASE  -
|  1> ! wB97X-D3 SP def2-SVP
|  2> %pal
|  3> nprocs 16
|  4> end
|  5>
|  6> * xyz 0 1
|  7> S 	 4.85908 	 -17.0306 	 85.2128
|  8> C 	 4.05422 	 -18.6348 	 85.371
|  9> C 	 4.92504 	 -19.645 	 85.0812
| 10> C 	 6.25641 	 -19.1984 	 84.7871
| 11> C 	 6.39326 	 -17.7659 	 84.7596
| 12> H 	 7.08737 	 -19.8642 	 84.5463
| 13> C 	 4.6008 	 -21.0882 	 85.2105
| 14> H 	 5.2692 	 -21.6322 	 84.4489
| 15> H 	 3.58464 	 -21.0458 	 84.8187
| 16> C 	 4.74711 	 -21.7173 	 86.6222
| 17> H 	 5.78542 	 -21.8484 	 87.002
| 18> H 	 4.1164 	 -21.1802 	 87.312
| 19> C 	 4.19108 	 -23.1331 	 86.8396
| 20> H 	 3.23642 	 -23.2247 	 86.2571
| 21> H 	 4.80489 	 -23.9245 	 86.4702
| 22> H 	 4.08659 	 -23.2982 	 87.9232
| 23> S 	 7.36763 	 -15.2326 	 84.3308
| 24> C 	 8.92425 	 -14.9677 	 83.6062
| 25> C 	 9.64029 	 -16.1633 	 83.5353
| 26> C 	 8.87708 	 -17.2772 	 84.0899
| 27> C 	 7.58737 	 -17.0043 	 84.3623
| 28> H 	 10.6878 	 -16.2203 	 83.2517
| 29> C 	 9.49224 	 -18.6442 	 84.24
| 30> H 	 9.0956 	 -19.0214 	 85.272
| 31> H 	 10.5634 	 -18.5159 	 84.3891
| 32> C 	 9.3934 	 -19.5521 	 83.0181
| 33> H 	 9.91634 	 -19.2435 	 82.1083
| 34> H 	 8.33873 	 -19.6088 	 82.7373
| 35> C 	 10.0017 	 -20.9606 	 83.2481
| 36> H 	 11.0201 	 -20.8532 	 83.6191
| 37> H 	 9.87515 	 -21.7349 	 82.4479
| 38> H 	 9.45231 	 -21.4991 	 84.0381
| 39> H 	 3.0631 	 -18.7928 	 85.7002
| 40> H 	 9.34856 	 -13.9602 	 83.4714
| 41> *
| 42>
| 43>                          ****END OF INPUT****

CARTESIAN COORDINATES (ANGSTROEM)
---------------------------------
  S      4.859080  -17.030600   85.212800
  C      4.054220  -18.634800   85.371000
  C      4.925040  -19.645000   85.081200
  C      6.256410  -19.198400   84.787100
  C      6.393260  -17.765900   84.759600
  H      7.087370  -19.864200   84.546300
  C      4.600800  -21.088200   85.210500
  H      5.269200  -21.632200   84.448900
  H      3.584640  -21.045800   84.818700
  C      4.747110  -21.717300   86.622200
  H      5.785420  -21.848400   87.002000
  H      4.116400  -21.180200   87.312000
  C      4.191080  -23.133100   86.839600
  H      3.236420  -23.224700   86.257100
  H      4.804890  -23.924500   86.470200
  H      4.086590  -23.298200   87.923200
  S      7.367630  -15.232600   84.330800
  C      8.924250  -14.967700   83.606200
  C      9.640290  -16.163300   83.535300
  C      8.877080  -17.277200   84.089900
  C      7.587370  -17.004300   84.362300
  H     10.687800  -16.220300   83.251700
  C      9.492240  -18.644200   84.240000
  H      9.095600  -19.021400   85.272000
  H     10.563400  -18.515900   84.389100
  C      9.393400  -19.552100   83.018100
  H      9.916340  -19.243500   82.108300
  H      8.338730  -19.608800   82.737300
  C     10.001700  -20.960600   83.248100
  H     11.020100  -20.853200   83.619100
  H      9.875150  -21.734900   82.447900
  H      9.452310  -21.499100   84.038100
  H      3.063100  -18.792800   85.700200
  H      9.348560  -13.960200   83.471400

 Total Charge           Charge          ....    0
 Multiplicity           Mult            ....    1
 Number of Electrons    NEL             ....  134
 Basis Dimension        Dim             ....  322

ORBITAL ENERGIES
----------------

  NO   OCC          E(Eh)            E(eV)
   0   2.0000     -88.970849     -2421.0199
   1   2.0000     -88.961553     -2420.7669
   2   2.0000     -10.342758      -281.4408
   3   2.0000     -10.330383      -281.1040
   4   2.0000     -10.324059      -280.9319
   5   2.0000     -10.314910      -280.6830
   6   2.0000     -10.303743      -280.3791
   7   2.0000     -10.301237      -280.3109
   8   2.0000     -10.300900      -280.3017
   9   2.0000     -10.300039      -280.2783
  10   2.0000     -10.299644      -280.2676
  11   2.0000     -10.299329      -280.2590
  12   2.0000     -10.291982      -280.0591
  13   2.0000     -10.291944      -280.0580
  14   2.0000     -10.285023      -279.8697
  15   2.0000     -10.279938      -279.7313
  16   2.0000      -8.084184      -219.9818
  17   2.0000      -8.076559      -219.7743
  18   2.0000      -6.042956      -164.4372
  19   2.0000      -6.038887      -164.3265
  20   2.0000      -6.035193      -164.2259
  21   2.0000      -6.034743      -164.2137
  22   2.0000      -6.031140      -164.1157
  23   2.0000      -6.027059      -164.0046
  24   2.0000      -1.004407       -27.3313
  25   2.0000      -0.980938       -26.6927
  26   2.0000      -0.912402       -24.8277
  27   2.0000      -0.910719       -24.7819
  28   2.0000      -0.870744       -23.6942
  29   2.0000      -0.854208       -23.2442
  30   2.0000      -0.843221       -22.9452
  31   2.0000      -0.813276       -22.1304
  32   2.0000      -0.780169       -21.2295
  33   2.0000      -0.773841       -21.0573
  34   2.0000      -0.709018       -19.2934
  35   2.0000      -0.698887       -19.0177
  36   2.0000      -0.697149       -18.9704
  37   2.0000      -0.670067       -18.2335
  38   2.0000      -0.636133       -17.3101
  39   2.0000      -0.616303       -16.7705
  40   2.0000      -0.593228       -16.1426
  41   2.0000      -0.573064       -15.5939
  42   2.0000      -0.565506       -15.3882
  43   2.0000      -0.558867       -15.2076
  44   2.0000      -0.533418       -14.5150
  45   2.0000      -0.529090       -14.3973
  46   2.0000      -0.522721       -14.2240
  47   2.0000      -0.512785       -13.9536
  48   2.0000      -0.508379       -13.8337
  49   2.0000      -0.498619       -13.5681
  50   2.0000      -0.494082       -13.4447
  51   2.0000      -0.485147       -13.2015
  52   2.0000      -0.471450       -12.8288
  53   2.0000      -0.464253       -12.6330
  54   2.0000      -0.454635       -12.3712
  55   2.0000      -0.450418       -12.2565
  56   2.0000      -0.442945       -12.0531
  57   2.0000      -0.434647       -11.8274
  58   2.0000      -0.433044       -11.7837
  59   2.0000      -0.422083       -11.4855
  60   2.0000      -0.414086       -11.2678
  61   2.0000      -0.413128       -11.2418
  62   2.0000      -0.409141       -11.1333
  63   2.0000      -0.363832        -9.9004
  64   2.0000      -0.334843        -9.1115
  65   2.0000      -0.325349        -8.8532
  66   2.0000      -0.283815        -7.7230
  67   0.0000       0.013965         0.3800
  68   0.0000       0.082504         2.2450
  69   0.0000       0.090110         2.4520
  70   0.0000       0.113634         3.0921
  71   0.0000       0.132199         3.5973

MULLIKEN ATOMIC CHARGES
-----------------------
   0 S :    0.102500
   1 C :   -0.113506
   2 C :   -0.067503
   3 C :   -0.011243
   4 C :   -0.098206
   5 H :    0.006879
   6 C :    0.043363
   7 H :    0.036820
   8 H :    0.027893
   9 C :   -0.052977
  10 H :    0.041317
  11 H :    0.025015
  12 C :   -0.066969
  13 H :    0.029473
  14 H :    0.023944
  15 H :    0.042561
  16 S :    0.072613
  17 C :   -0.085014
  18 C :   -0.020495
  19 C :   -0.098778
  20 C :   -0.088830
  21 H :    0.024228
  22 C :    0.004522
  23 H :    0.059640
  24 H :    0.013070
  25 C :   -0.053004
  26 H :    0.036389
  27 H :    0.027113
  28 C :   -0.061174
  29 H :    0.034196
  30 H :    0.046056
  31 H :    0.014121
  32 H :    0.031502
  33 H :    0.074487
Sum of atomic charges:   -0.0000000

LOEWDIN ATOMIC CHARGES
----------------------
   0 S :    0.384697
   1 C :   -0.178323
   2 C :   -0.065270
   3 C :   -0.070275
   4 C :   -0.180073
   5 H :    0.029624
   6 C :   -0.039132
   7 H :    0.038551
   8 H :    0.034821
   9 C :   -0.041805
  10 H :    0.033063
  11 H :    0.024425
  12 C :   -0.067826
  13 H :    0.026933
  14 H :    0.015056
  15 H :    0.030793
  16 S :    0.382255
  17 C :   -0.182773
  18 C :   -0.071403
  19 C :   -0.062572
  20 C :   -0.176803
  21 H :    0.032989
  22 C :   -0.042318
  23 H :    0.046818
  24 H :    0.028153
  25 C :   -0.043827
  26 H :    0.031158
  27 H :    0.021026
  28 C :   -0.075811
  29 H :    0.024807
  30 H :    0.033821
  31 H :    0.020204
  32 H :    0.021944
  33 H :    0.037073

  Mayer bond orders larger than 0.100000
B(  0-S ,  1-C ) :   1.1104 B(  0-S ,  4-C ) :   1.1524 B(  1-C ,  2-C ) :   1.6160
B(  1-C , 32-H ) :   0.9739 B(  2-C ,  3-C ) :   1.2536 B(  2-C ,  6-C ) :   1.0225
B(  3-C ,  4-C ) :   1.5287 B(  3-C ,  5-H ) :   0.9848 B(  4-C , 20-C ) :   1.0925
B(  6-C ,  7-H ) :   0.9374 B(  6-C ,  8-H ) :   0.9342 B(  6-C ,  9-C ) :   1.0677
B(  9-C , 10-H ) :   0.9567 B(  9-C , 11-H ) :   0.9587 B(  9-C , 12-C ) :   1.0759
B( 12-C , 13-H ) :   0.9740 B( 12-C , 14-H ) :   0.9777 B( 12-C , 15-H ) :   0.9771
B( 16-S , 17-C ) :   1.1613 B( 16-S , 20-C ) :   1.1019 B( 17-C , 18-C ) :   1.6042
B( 17-C , 33-H ) :   0.9648 B( 18-C , 19-C ) :   1.2251 B( 18-C , 21-H ) :   0.9877
B( 19-C , 20-C ) :   1.6291 B( 19-C , 22-C ) :   1.0500 B( 22-C , 23-H ) :   0.9388
B( 22-C , 24-H ) :   0.9235 B( 22-C , 25-C ) :   1.0529 B( 25-C , 26-H ) :   0.9535
B( 25-C , 27-H ) :   0.9559 B( 25-C , 28-C ) :   1.0716 B( 28-C , 29-H ) :   0.9724
B( 28-C , 30-H ) :   0.9736 B( 28-C , 31-H ) :   0.9743

Dispersion correction           -0.013876784
FINAL SINGLE POINT ENERGY     -1339.865770163580

DIPOLE MOMENT
-------------
                                X             Y             Z
Electronic contribution:     -5.52719      32.51822      -1.52220
Nuclear contribution   :      5.89714     -33.15420       1.57324
                        -----------------------------------------
Total Dipole Moment    :      0.36995      -0.63599       0.05104
                        -----------------------------------------
Magnitude (a.u.)       :      0.73752
Magnitude (Debye)      :      1.87464

Rotational constants in cm-1:     0.018553     0.008728     0.006158
Rotational constants in MHz :   556.202685   261.651523   184.618548

                             ****ORCA TERMINATED NORMALLY****
TOTAL RUN TIME: 0 days 0 hours 0 minutes 34 seconds 849 msec
