                         Program Version 4.2.1 -  RELEASE  -
|  1> ! wB97X-D3 SP def2-SVP
|  2> %pal
|  3> nprocs 16
|  4> end
|  5>
|  6> * xyz 0 1
|  7> S 	 38.8747 	 30.738 	 55.5469
|  8> C 	 38.2758 	 32.3891 	 55.5398
|  9> C 	 36.9644 	 32.3802 	 56.0874
| 10> C 	 36.719 	 31.2004 	 56.8102
| 11> C 	 37.7528 	 30.287 	 56.7887
| 12> H 	 35.8722 	 31.0875 	 57.481
| 13> C 	 35.953 	 33.5527 	 56.0359
| 14> H 	 36.3045 	 34.3535 	 56.6544
| 15> H 	 35.0824 	 33.2936 	 56.5669
| 16> C 	 35.6701 	 34.1339 	 54.6054
| 17> H 	 34.698 	 34.5936 	 54.6245
| 18> H 	 36.3691 	 34.7907 	 54.2071
| 19> C 	 35.3644 	 33.0142 	 53.5817
| 20> H 	 34.5976 	 32.3442 	 53.9091
| 21> H 	 34.9377 	 33.3314 	 52.6778
| 22> H 	 36.0535 	 32.2145 	 53.3826
| 23> S 	 38.2052 	 27.5885 	 56.5054
| 24> C 	 38.2512 	 26.5439 	 57.9238
| 25> C 	 37.7839 	 27.2155 	 58.9866
| 26> C 	 37.6233 	 28.6233 	 58.7252
| 27> C 	 37.8304 	 29.0075 	 57.4229
| 28> H 	 37.5121 	 26.7249 	 59.9339
| 29> C 	 37.2509 	 29.7301 	 59.7903
| 30> H 	 37.0006 	 29.1732 	 60.7235
| 31> H 	 36.4524 	 30.4243 	 59.5274
| 32> C 	 38.3884 	 30.6913 	 60.1155
| 33> H 	 38.7158 	 31.1946 	 59.2086
| 34> H 	 39.2909 	 30.1395 	 60.3981
| 35> C 	 37.9699 	 31.8584 	 61.0309
| 36> H 	 37.5413 	 31.4723 	 61.9853
| 37> H 	 37.0802 	 32.4525 	 60.6782
| 38> H 	 38.7783 	 32.4823 	 61.3497
| 39> H 	 38.5583 	 33.1423 	 54.8514
| 40> H 	 38.5764 	 25.5365 	 57.9671
| 41> *
| 42>
| 43>                          ****END OF INPUT****

CARTESIAN COORDINATES (ANGSTROEM)
---------------------------------
  S     38.874700   30.738000   55.546900
  C     38.275800   32.389100   55.539800
  C     36.964400   32.380200   56.087400
  C     36.719000   31.200400   56.810200
  C     37.752800   30.287000   56.788700
  H     35.872200   31.087500   57.481000
  C     35.953000   33.552700   56.035900
  H     36.304500   34.353500   56.654400
  H     35.082400   33.293600   56.566900
  C     35.670100   34.133900   54.605400
  H     34.698000   34.593600   54.624500
  H     36.369100   34.790700   54.207100
  C     35.364400   33.014200   53.581700
  H     34.597600   32.344200   53.909100
  H     34.937700   33.331400   52.677800
  H     36.053500   32.214500   53.382600
  S     38.205200   27.588500   56.505400
  C     38.251200   26.543900   57.923800
  C     37.783900   27.215500   58.986600
  C     37.623300   28.623300   58.725200
  C     37.830400   29.007500   57.422900
  H     37.512100   26.724900   59.933900
  C     37.250900   29.730100   59.790300
  H     37.000600   29.173200   60.723500
  H     36.452400   30.424300   59.527400
  C     38.388400   30.691300   60.115500
  H     38.715800   31.194600   59.208600
  H     39.290900   30.139500   60.398100
  C     37.969900   31.858400   61.030900
  H     37.541300   31.472300   61.985300
  H     37.080200   32.452500   60.678200
  H     38.778300   32.482300   61.349700
  H     38.558300   33.142300   54.851400
  H     38.576400   25.536500   57.967100

 Total Charge           Charge          ....    0
 Multiplicity           Mult            ....    1
 Number of Electrons    NEL             ....  134
 Basis Dimension        Dim             ....  322

ORBITAL ENERGIES
----------------

  NO   OCC          E(Eh)            E(eV)
   0   2.0000     -88.968991     -2420.9693
   1   2.0000     -88.962781     -2420.8004
   2   2.0000     -10.329589      -281.0824
   3   2.0000     -10.322748      -280.8962
   4   2.0000     -10.314717      -280.6777
   5   2.0000     -10.314294      -280.6662
   6   2.0000     -10.307146      -280.4717
   7   2.0000     -10.303956      -280.3849
   8   2.0000     -10.296459      -280.1809
   9   2.0000     -10.294987      -280.1408
  10   2.0000     -10.294584      -280.1299
  11   2.0000     -10.294533      -280.1285
  12   2.0000     -10.288892      -279.9750
  13   2.0000     -10.279949      -279.7316
  14   2.0000     -10.279190      -279.7110
  15   2.0000     -10.264066      -279.2994
  16   2.0000      -8.083706      -219.9688
  17   2.0000      -8.077932      -219.8117
  18   2.0000      -6.042180      -164.4161
  19   2.0000      -6.038348      -164.3118
  20   2.0000      -6.036583      -164.2638
  21   2.0000      -6.034349      -164.2030
  22   2.0000      -6.032392      -164.1497
  23   2.0000      -6.028492      -164.0436
  24   2.0000      -1.014188       -27.5975
  25   2.0000      -0.989032       -26.9129
  26   2.0000      -0.910391       -24.7730
  27   2.0000      -0.902804       -24.5666
  28   2.0000      -0.874467       -23.7955
  29   2.0000      -0.851753       -23.1774
  30   2.0000      -0.840334       -22.8666
  31   2.0000      -0.817660       -22.2496
  32   2.0000      -0.788268       -21.4499
  33   2.0000      -0.770671       -20.9710
  34   2.0000      -0.716760       -19.5040
  35   2.0000      -0.710354       -19.3297
  36   2.0000      -0.689595       -18.7648
  37   2.0000      -0.664010       -18.0686
  38   2.0000      -0.641167       -17.4470
  39   2.0000      -0.620521       -16.8852
  40   2.0000      -0.597500       -16.2588
  41   2.0000      -0.576421       -15.6852
  42   2.0000      -0.561018       -15.2661
  43   2.0000      -0.553069       -15.0498
  44   2.0000      -0.547290       -14.8925
  45   2.0000      -0.520864       -14.1734
  46   2.0000      -0.514097       -13.9893
  47   2.0000      -0.510334       -13.8869
  48   2.0000      -0.505326       -13.7506
  49   2.0000      -0.501329       -13.6419
  50   2.0000      -0.492185       -13.3930
  51   2.0000      -0.481332       -13.0977
  52   2.0000      -0.472060       -12.8454
  53   2.0000      -0.466642       -12.6980
  54   2.0000      -0.455982       -12.4079
  55   2.0000      -0.449234       -12.2243
  56   2.0000      -0.443257       -12.0616
  57   2.0000      -0.436323       -11.8730
  58   2.0000      -0.434075       -11.8118
  59   2.0000      -0.430926       -11.7261
  60   2.0000      -0.417657       -11.3650
  61   2.0000      -0.415126       -11.2961
  62   2.0000      -0.399504       -10.8711
  63   2.0000      -0.350939        -9.5495
  64   2.0000      -0.333552        -9.0764
  65   2.0000      -0.328003        -8.9254
  66   2.0000      -0.290967        -7.9176
  67   0.0000       0.018191         0.4950
  68   0.0000       0.067239         1.8297
  69   0.0000       0.101446         2.7605
  70   0.0000       0.124094         3.3768
  71   0.0000       0.135218         3.6795

MULLIKEN ATOMIC CHARGES
-----------------------
   0 S :    0.115555
   1 C :   -0.080306
   2 C :   -0.134913
   3 C :    0.034490
   4 C :   -0.157997
   5 H :    0.014812
   6 C :    0.107590
   7 H :    0.034712
   8 H :    0.001710
   9 C :   -0.037313
  10 H :    0.029745
  11 H :    0.030213
  12 C :   -0.046642
  13 H :   -0.000452
  14 H :    0.016467
  15 H :    0.026271
  16 S :    0.093904
  17 C :   -0.077707
  18 C :   -0.027909
  19 C :   -0.052617
  20 C :   -0.128952
  21 H :    0.030743
  22 C :    0.055470
  23 H :    0.019994
  24 H :    0.018365
  25 C :   -0.073879
  26 H :    0.040980
  27 H :    0.026883
  28 C :   -0.056130
  29 H :    0.013506
  30 H :    0.034297
  31 H :    0.039234
  32 H :    0.041869
  33 H :    0.048008
Sum of atomic charges:   -0.0000000

LOEWDIN ATOMIC CHARGES
----------------------
   0 S :    0.421751
   1 C :   -0.194402
   2 C :   -0.053329
   3 C :   -0.062656
   4 C :   -0.195610
   5 H :    0.030408
   6 C :   -0.025248
   7 H :    0.035219
   8 H :    0.024391
   9 C :   -0.026699
  10 H :    0.032633
  11 H :    0.015085
  12 C :   -0.076455
  13 H :    0.025071
  14 H :    0.018342
  15 H :    0.023243
  16 S :    0.399313
  17 C :   -0.173440
  18 C :   -0.073271
  19 C :   -0.061009
  20 C :   -0.202128
  21 H :    0.038562
  22 C :   -0.030562
  23 H :    0.028902
  24 H :    0.024384
  25 C :   -0.046846
  26 H :    0.026061
  27 H :    0.024836
  28 C :   -0.072096
  29 H :    0.021938
  30 H :    0.030420
  31 H :    0.025301
  32 H :    0.019835
  33 H :    0.028056

  Mayer bond orders larger than 0.100000
B(  0-S ,  1-C ) :   1.1473 B(  0-S ,  4-C ) :   1.1596 B(  1-C ,  2-C ) :   1.5609
B(  1-C ,  4-C ) :   0.1192 B(  1-C , 32-H ) :   0.9714 B(  2-C ,  3-C ) :   1.2893
B(  2-C ,  6-C ) :   1.0173 B(  3-C ,  4-C ) :   1.5199 B(  3-C ,  5-H ) :   0.9918
B(  4-C , 20-C ) :   1.0741 B(  6-C ,  7-H ) :   0.9372 B(  6-C ,  8-H ) :   0.9388
B(  6-C ,  9-C ) :   1.0696 B(  9-C , 10-H ) :   0.9557 B(  9-C , 11-H ) :   0.9640
B(  9-C , 12-C ) :   1.0697 B( 12-C , 13-H ) :   0.9673 B( 12-C , 14-H ) :   0.9764
B( 12-C , 15-H ) :   0.9685 B( 16-S , 17-C ) :   1.1408 B( 16-S , 20-C ) :   1.1307
B( 17-C , 18-C ) :   1.6192 B( 17-C , 33-H ) :   0.9711 B( 18-C , 19-C ) :   1.2483
B( 18-C , 21-H ) :   0.9854 B( 19-C , 20-C ) :   1.6097 B( 19-C , 22-C ) :   1.0375
B( 22-C , 23-H ) :   0.9339 B( 22-C , 24-H ) :   0.9431 B( 22-C , 25-C ) :   1.0615
B( 25-C , 26-H ) :   0.9535 B( 25-C , 27-H ) :   0.9514 B( 25-C , 28-C ) :   1.0769
B( 28-C , 29-H ) :   0.9729 B( 28-C , 30-H ) :   0.9705 B( 28-C , 31-H ) :   0.9743

Dispersion correction           -0.015123414
FINAL SINGLE POINT ENERGY     -1339.850970011940

DIPOLE MOMENT
-------------
                                X             Y             Z
Electronic contribution:     11.56731     -19.75937      -8.36553
Nuclear contribution   :    -12.03498      20.10186       8.67279
                        -----------------------------------------
Total Dipole Moment    :     -0.46767       0.34249       0.30726
                        -----------------------------------------
Magnitude (a.u.)       :      0.65606
Magnitude (Debye)      :      1.66758

Rotational constants in cm-1:     0.019823     0.009043     0.007122
Rotational constants in MHz :   594.276894   271.099245   213.524557

                             ****ORCA TERMINATED NORMALLY****
TOTAL RUN TIME: 0 days 0 hours 0 minutes 33 seconds 912 msec
