                         Program Version 4.2.1 -  RELEASE  -
|  1> ! wB97X-D3 SP def2-SVP
|  2> %pal
|  3> nprocs 16
|  4> end
|  5>
|  6> * xyz 0 1
|  7> S 	 42.7929 	 12.8928 	 88.7624
|  8> C 	 43.2873 	 11.2553 	 88.5217
|  9> C 	 42.2289 	 10.5082 	 88.0843
| 10> C 	 41.1172 	 11.3285 	 87.7575
| 11> C 	 41.1546 	 12.654 	 88.1689
| 12> H 	 40.2346 	 10.9318 	 87.2619
| 13> C 	 42.2961 	 8.91036 	 87.8118
| 14> H 	 43.2727 	 8.63571 	 87.5605
| 15> H 	 41.7073 	 8.64878 	 86.934
| 16> C 	 41.8567 	 8.10146 	 89.0753
| 17> H 	 40.7692 	 8.11013 	 89.3073
| 18> H 	 42.1197 	 7.04698 	 88.8257
| 19> C 	 42.7404 	 8.34339 	 90.3249
| 20> H 	 42.6154 	 9.36288 	 90.6402
| 21> H 	 42.5039 	 7.63658 	 91.1074
| 22> H 	 43.7915 	 8.37987 	 90.0279
| 23> S 	 40.6538 	 15.2974 	 87.6613
| 24> C 	 39.0172 	 15.8137 	 87.4748
| 25> C 	 38.1434 	 14.7607 	 87.5022
| 26> C 	 38.766 	 13.5342 	 87.9463
| 27> C 	 40.1291 	 13.6668 	 88.0203
| 28> H 	 37.1343 	 15.013 	 87.3351
| 29> C 	 37.9522 	 12.2866 	 88.1418
| 30> H 	 38.2574 	 11.5249 	 87.3739
| 31> H 	 36.9286 	 12.4811 	 88.0003
| 32> C 	 38.0256 	 11.71 	 89.581
| 33> H 	 37.8232 	 12.5252 	 90.2647
| 34> H 	 38.9966 	 11.3325 	 89.7143
| 35> C 	 37.0415 	 10.5398 	 89.844
| 36> H 	 37.2628 	 10.0794 	 90.7808
| 37> H 	 37.252 	 9.8762 	 88.9901
| 38> H 	 36.0325 	 10.9701 	 89.7855
| 39> H 	 44.2635 	 10.7377 	 88.8292
| 40> H 	 38.7137 	 16.8096 	 87.1688
| 41> *
| 42>
| 43>                          ****END OF INPUT****

CARTESIAN COORDINATES (ANGSTROEM)
---------------------------------
  S     42.792900   12.892800   88.762400
  C     43.287300   11.255300   88.521700
  C     42.228900   10.508200   88.084300
  C     41.117200   11.328500   87.757500
  C     41.154600   12.654000   88.168900
  H     40.234600   10.931800   87.261900
  C     42.296100    8.910360   87.811800
  H     43.272700    8.635710   87.560500
  H     41.707300    8.648780   86.934000
  C     41.856700    8.101460   89.075300
  H     40.769200    8.110130   89.307300
  H     42.119700    7.046980   88.825700
  C     42.740400    8.343390   90.324900
  H     42.615400    9.362880   90.640200
  H     42.503900    7.636580   91.107400
  H     43.791500    8.379870   90.027900
  S     40.653800   15.297400   87.661300
  C     39.017200   15.813700   87.474800
  C     38.143400   14.760700   87.502200
  C     38.766000   13.534200   87.946300
  C     40.129100   13.666800   88.020300
  H     37.134300   15.013000   87.335100
  C     37.952200   12.286600   88.141800
  H     38.257400   11.524900   87.373900
  H     36.928600   12.481100   88.000300
  C     38.025600   11.710000   89.581000
  H     37.823200   12.525200   90.264700
  H     38.996600   11.332500   89.714300
  C     37.041500   10.539800   89.844000
  H     37.262800   10.079400   90.780800
  H     37.252000    9.876200   88.990100
  H     36.032500   10.970100   89.785500
  H     44.263500   10.737700   88.829200
  H     38.713700   16.809600   87.168800

 Total Charge           Charge          ....    0
 Multiplicity           Mult            ....    1
 Number of Electrons    NEL             ....  134
 Basis Dimension        Dim             ....  322

ORBITAL ENERGIES
----------------

  NO   OCC          E(Eh)            E(eV)
   0   2.0000     -88.966400     -2420.8988
   1   2.0000     -88.965805     -2420.8826
   2   2.0000     -10.332072      -281.1500
   3   2.0000     -10.327971      -281.0384
   4   2.0000     -10.318471      -280.7799
   5   2.0000     -10.315258      -280.6924
   6   2.0000     -10.305559      -280.4285
   7   2.0000     -10.302777      -280.3528
   8   2.0000     -10.300694      -280.2961
   9   2.0000     -10.294222      -280.1200
  10   2.0000     -10.292631      -280.0767
  11   2.0000     -10.291779      -280.0536
  12   2.0000     -10.291432      -280.0441
  13   2.0000     -10.278201      -279.6841
  14   2.0000     -10.276877      -279.6480
  15   2.0000     -10.275675      -279.6153
  16   2.0000      -8.081241      -219.9017
  17   2.0000      -8.081121      -219.8985
  18   2.0000      -6.039790      -164.3510
  19   2.0000      -6.039720      -164.3491
  20   2.0000      -6.035715      -164.2402
  21   2.0000      -6.035478      -164.2337
  22   2.0000      -6.031913      -164.1367
  23   2.0000      -6.031855      -164.1351
  24   2.0000      -1.011988       -27.5376
  25   2.0000      -0.989658       -26.9300
  26   2.0000      -0.911119       -24.7928
  27   2.0000      -0.903340       -24.5811
  28   2.0000      -0.872791       -23.7499
  29   2.0000      -0.854016       -23.2389
  30   2.0000      -0.840382       -22.8680
  31   2.0000      -0.814858       -22.1734
  32   2.0000      -0.785875       -21.3848
  33   2.0000      -0.776708       -21.1353
  34   2.0000      -0.709348       -19.3024
  35   2.0000      -0.694460       -18.8972
  36   2.0000      -0.687557       -18.7094
  37   2.0000      -0.667296       -18.1581
  38   2.0000      -0.632965       -17.2238
  39   2.0000      -0.622992       -16.9525
  40   2.0000      -0.596049       -16.2193
  41   2.0000      -0.574402       -15.6303
  42   2.0000      -0.569361       -15.4931
  43   2.0000      -0.550036       -14.9672
  44   2.0000      -0.543331       -14.7848
  45   2.0000      -0.525132       -14.2896
  46   2.0000      -0.517579       -14.0840
  47   2.0000      -0.515661       -14.0318
  48   2.0000      -0.506118       -13.7722
  49   2.0000      -0.498834       -13.5740
  50   2.0000      -0.493506       -13.4290
  51   2.0000      -0.482511       -13.1298
  52   2.0000      -0.474795       -12.9198
  53   2.0000      -0.466251       -12.6873
  54   2.0000      -0.460473       -12.5301
  55   2.0000      -0.444779       -12.1030
  56   2.0000      -0.442090       -12.0299
  57   2.0000      -0.437991       -11.9183
  58   2.0000      -0.435556       -11.8521
  59   2.0000      -0.425166       -11.5693
  60   2.0000      -0.422026       -11.4839
  61   2.0000      -0.417211       -11.3529
  62   2.0000      -0.401909       -10.9365
  63   2.0000      -0.360464        -9.8087
  64   2.0000      -0.333587        -9.0774
  65   2.0000      -0.330046        -8.9810
  66   2.0000      -0.288385        -7.8474
  67   0.0000       0.022347         0.6081
  68   0.0000       0.084875         2.3096
  69   0.0000       0.106087         2.8868
  70   0.0000       0.121513         3.3065
  71   0.0000       0.125336         3.4106

MULLIKEN ATOMIC CHARGES
-----------------------
   0 S :    0.106878
   1 C :   -0.139464
   2 C :   -0.114832
   3 C :    0.012752
   4 C :   -0.129083
   5 H :   -0.006341
   6 C :    0.098636
   7 H :    0.007808
   8 H :    0.029767
   9 C :   -0.107085
  10 H :    0.044817
  11 H :    0.030534
  12 C :   -0.045637
  13 H :    0.034735
  14 H :    0.047561
  15 H :    0.015644
  16 S :    0.109005
  17 C :   -0.087196
  18 C :   -0.026065
  19 C :   -0.050027
  20 C :   -0.114949
  21 H :    0.005649
  22 C :    0.060769
  23 H :    0.043066
  24 H :   -0.005898
  25 C :   -0.085789
  26 H :    0.030700
  27 H :    0.026797
  28 C :   -0.028034
  29 H :    0.040619
  30 H :    0.027172
  31 H :    0.035128
  32 H :    0.076645
  33 H :    0.055719
Sum of atomic charges:   -0.0000000

LOEWDIN ATOMIC CHARGES
----------------------
   0 S :    0.409372
   1 C :   -0.218822
   2 C :   -0.071079
   3 C :   -0.070120
   4 C :   -0.192725
   5 H :    0.025181
   6 C :   -0.014861
   7 H :    0.019481
   8 H :    0.031231
   9 C :   -0.044496
  10 H :    0.025897
  11 H :    0.026011
  12 C :   -0.065946
  13 H :    0.021573
  14 H :    0.028328
  15 H :    0.022572
  16 S :    0.412667
  17 C :   -0.185904
  18 C :   -0.065585
  19 C :   -0.050545
  20 C :   -0.193526
  21 H :    0.026177
  22 C :   -0.030676
  23 H :    0.033069
  24 H :    0.020279
  25 C :   -0.031515
  26 H :    0.022577
  27 H :    0.013854
  28 C :   -0.058636
  29 H :    0.024290
  30 H :    0.026597
  31 H :    0.025279
  32 H :    0.049690
  33 H :    0.030313

  Mayer bond orders larger than 0.100000
B(  0-S ,  1-C ) :   1.1470 B(  0-S ,  4-C ) :   1.1442 B(  1-C ,  2-C ) :   1.6060
B(  1-C , 32-H ) :   0.9530 B(  2-C ,  3-C ) :   1.2813 B(  2-C ,  6-C ) :   1.0010
B(  3-C ,  4-C ) :   1.5428 B(  3-C ,  5-H ) :   0.9871 B(  4-C , 20-C ) :   1.0811
B(  6-C ,  7-H ) :   0.9454 B(  6-C ,  8-H ) :   0.9498 B(  6-C ,  9-C ) :   1.0696
B(  9-C , 10-H ) :   0.9604 B(  9-C , 11-H ) :   0.9578 B(  9-C , 12-C ) :   1.0696
B( 12-C , 13-H ) :   0.9723 B( 12-C , 14-H ) :   0.9746 B( 12-C , 15-H ) :   0.9720
B( 16-S , 17-C ) :   1.1542 B( 16-S , 20-C ) :   1.1331 B( 17-C , 18-C ) :   1.6338
B( 17-C , 33-H ) :   0.9644 B( 18-C , 19-C ) :   1.2194 B( 18-C , 21-H ) :   0.9967
B( 19-C , 20-C ) :   1.5947 B( 19-C , 22-C ) :   1.0578 B( 22-C , 23-H ) :   0.9253
B( 22-C , 24-H ) :   0.9266 B( 22-C , 25-C ) :   1.0605 B( 25-C , 26-H ) :   0.9560
B( 25-C , 27-H ) :   0.9545 B( 25-C , 28-C ) :   1.0837 B( 28-C , 29-H ) :   0.9751
B( 28-C , 30-H ) :   0.9743 B( 28-C , 31-H ) :   0.9773

Dispersion correction           -0.014890297
FINAL SINGLE POINT ENERGY     -1339.875578808828

DIPOLE MOMENT
-------------
                                X             Y             Z
Electronic contribution:     10.40288      27.46488      -7.96740
Nuclear contribution   :    -10.83747     -27.98897       7.87250
                        -----------------------------------------
Total Dipole Moment    :     -0.43459      -0.52409      -0.09490
                        -----------------------------------------
Magnitude (a.u.)       :      0.68741
Magnitude (Debye)      :      1.74727

Rotational constants in cm-1:     0.019313     0.009534     0.006934
Rotational constants in MHz :   578.981861   285.808688   207.889140

                             ****ORCA TERMINATED NORMALLY****
TOTAL RUN TIME: 0 days 0 hours 0 minutes 31 seconds 777 msec
