                         Program Version 4.2.1 -  RELEASE  -
|  1> ! wB97X-D3 SP def2-SVP
|  2> %pal
|  3> nprocs 16
|  4> end
|  5>
|  6> * xyz 0 1
|  7> S 	 -4.99156 	 -12.8728 	 84.1876
|  8> C 	 -3.72717 	 -14.0286 	 84.7644
|  9> C 	 -4.24018 	 -14.7727 	 85.8275
| 10> C 	 -5.64286 	 -14.6244 	 85.9707
| 11> C 	 -6.19479 	 -13.6862 	 85.1356
| 12> H 	 -6.21881 	 -15.1026 	 86.7449
| 13> C 	 -3.48791 	 -15.7666 	 86.7018
| 14> H 	 -3.93811 	 -15.7037 	 87.7259
| 15> H 	 -2.47378 	 -15.5207 	 86.8823
| 16> C 	 -3.4019 	 -17.229 	 86.2178
| 17> H 	 -4.43057 	 -17.5826 	 85.9452
| 18> H 	 -2.80741 	 -17.2014 	 85.2973
| 19> C 	 -2.83485 	 -18.22 	 87.2113
| 20> H 	 -2.70363 	 -19.1787 	 86.7623
| 21> H 	 -1.78254 	 -18.0046 	 87.3571
| 22> H 	 -3.33634 	 -18.237 	 88.1484
| 23> S 	 -7.80052 	 -11.5352 	 85.6369
| 24> C 	 -9.51675 	 -11.8129 	 85.9014
| 25> C 	 -9.87935 	 -13.1494 	 85.736
| 26> C 	 -8.75429 	 -13.9443 	 85.3379
| 27> C 	 -7.5424 	 -13.2242 	 85.2474
| 28> H 	 -10.939 	 -13.4676 	 85.8139
| 29> C 	 -8.89059 	 -15.4059 	 85.1891
| 30> H 	 -7.95176 	 -15.917 	 84.9002
| 31> H 	 -9.5797 	 -15.6147 	 84.4101
| 32> C 	 -9.45305 	 -16.1568 	 86.3994
| 33> H 	 -10.4333 	 -15.7039 	 86.6613
| 34> H 	 -8.81182 	 -15.9916 	 87.2609
| 35> C 	 -9.7335 	 -17.6808 	 86.2456
| 36> H 	 -8.87714 	 -18.1761 	 85.8318
| 37> H 	 -10.5473 	 -17.8377 	 85.5793
| 38> H 	 -9.85515 	 -18.2775 	 87.1066
| 39> H 	 -2.66848 	 -13.9435 	 84.3756
| 40> H 	 -10.2617 	 -11.0371 	 86.2146
| 41> *
| 42>
| 43>                          ****END OF INPUT****

CARTESIAN COORDINATES (ANGSTROEM)
---------------------------------
  S     -4.991560  -12.872800   84.187600
  C     -3.727170  -14.028600   84.764400
  C     -4.240180  -14.772700   85.827500
  C     -5.642860  -14.624400   85.970700
  C     -6.194790  -13.686200   85.135600
  H     -6.218810  -15.102600   86.744900
  C     -3.487910  -15.766600   86.701800
  H     -3.938110  -15.703700   87.725900
  H     -2.473780  -15.520700   86.882300
  C     -3.401900  -17.229000   86.217800
  H     -4.430570  -17.582600   85.945200
  H     -2.807410  -17.201400   85.297300
  C     -2.834850  -18.220000   87.211300
  H     -2.703630  -19.178700   86.762300
  H     -1.782540  -18.004600   87.357100
  H     -3.336340  -18.237000   88.148400
  S     -7.800520  -11.535200   85.636900
  C     -9.516750  -11.812900   85.901400
  C     -9.879350  -13.149400   85.736000
  C     -8.754290  -13.944300   85.337900
  C     -7.542400  -13.224200   85.247400
  H    -10.939000  -13.467600   85.813900
  C     -8.890590  -15.405900   85.189100
  H     -7.951760  -15.917000   84.900200
  H     -9.579700  -15.614700   84.410100
  C     -9.453050  -16.156800   86.399400
  H    -10.433300  -15.703900   86.661300
  H     -8.811820  -15.991600   87.260900
  C     -9.733500  -17.680800   86.245600
  H     -8.877140  -18.176100   85.831800
  H    -10.547300  -17.837700   85.579300
  H     -9.855150  -18.277500   87.106600
  H     -2.668480  -13.943500   84.375600
  H    -10.261700  -11.037100   86.214600

 Total Charge           Charge          ....    0
 Multiplicity           Mult            ....    1
 Number of Electrons    NEL             ....  134
 Basis Dimension        Dim             ....  322

ORBITAL ENERGIES
----------------

  NO   OCC          E(Eh)            E(eV)
   0   2.0000     -88.967579     -2420.9309
   1   2.0000     -88.967315     -2420.9237
   2   2.0000     -10.326437      -280.9966
   3   2.0000     -10.325996      -280.9846
   4   2.0000     -10.325759      -280.9782
   5   2.0000     -10.322949      -280.9017
   6   2.0000     -10.306547      -280.4554
   7   2.0000     -10.304381      -280.3965
   8   2.0000     -10.299128      -280.2535
   9   2.0000     -10.292342      -280.0689
  10   2.0000     -10.291177      -280.0372
  11   2.0000     -10.289385      -279.9884
  12   2.0000     -10.288456      -279.9631
  13   2.0000     -10.284840      -279.8647
  14   2.0000     -10.273725      -279.5623
  15   2.0000     -10.271889      -279.5123
  16   2.0000      -8.082047      -219.9237
  17   2.0000      -8.081572      -219.9108
  18   2.0000      -6.040569      -164.3722
  19   2.0000      -6.040162      -164.3612
  20   2.0000      -6.036595      -164.2641
  21   2.0000      -6.036202      -164.2534
  22   2.0000      -6.032796      -164.1607
  23   2.0000      -6.032235      -164.1455
  24   2.0000      -1.007284       -27.4096
  25   2.0000      -0.980386       -26.6777
  26   2.0000      -0.912807       -24.8388
  27   2.0000      -0.909596       -24.7514
  28   2.0000      -0.871383       -23.7115
  29   2.0000      -0.852739       -23.2042
  30   2.0000      -0.847719       -23.0676
  31   2.0000      -0.812830       -22.1182
  32   2.0000      -0.786993       -21.4152
  33   2.0000      -0.772550       -21.0221
  34   2.0000      -0.706662       -19.2293
  35   2.0000      -0.699334       -19.0298
  36   2.0000      -0.694708       -18.9040
  37   2.0000      -0.659048       -17.9336
  38   2.0000      -0.640361       -17.4251
  39   2.0000      -0.623831       -16.9753
  40   2.0000      -0.597856       -16.2685
  41   2.0000      -0.570111       -15.5135
  42   2.0000      -0.567917       -15.4538
  43   2.0000      -0.559147       -15.2152
  44   2.0000      -0.525614       -14.3027
  45   2.0000      -0.522837       -14.2271
  46   2.0000      -0.518668       -14.1137
  47   2.0000      -0.509861       -13.8740
  48   2.0000      -0.504167       -13.7191
  49   2.0000      -0.501292       -13.6408
  50   2.0000      -0.494529       -13.4568
  51   2.0000      -0.479121       -13.0375
  52   2.0000      -0.471033       -12.8175
  53   2.0000      -0.467231       -12.7140
  54   2.0000      -0.458771       -12.4838
  55   2.0000      -0.455368       -12.3912
  56   2.0000      -0.450271       -12.2525
  57   2.0000      -0.436207       -11.8698
  58   2.0000      -0.433814       -11.8047
  59   2.0000      -0.424094       -11.5402
  60   2.0000      -0.420817       -11.4510
  61   2.0000      -0.415036       -11.2937
  62   2.0000      -0.413161       -11.2427
  63   2.0000      -0.347556        -9.4575
  64   2.0000      -0.332989        -9.0611
  65   2.0000      -0.329274        -8.9600
  66   2.0000      -0.288349        -7.8464
  67   0.0000       0.027386         0.7452
  68   0.0000       0.065781         1.7900
  69   0.0000       0.102612         2.7922
  70   0.0000       0.124024         3.3749
  71   0.0000       0.126533         3.4431

MULLIKEN ATOMIC CHARGES
-----------------------
   0 S :    0.096397
   1 C :   -0.156988
   2 C :   -0.047972
   3 C :    0.023401
   4 C :   -0.141006
   5 H :    0.010873
   6 C :    0.053344
   7 H :    0.024778
   8 H :    0.005880
   9 C :   -0.084381
  10 H :    0.026406
  11 H :    0.027508
  12 C :   -0.006761
  13 H :    0.026071
  14 H :    0.012517
  15 H :    0.035868
  16 S :    0.111390
  17 C :   -0.116570
  18 C :   -0.051019
  19 C :   -0.021699
  20 C :   -0.135739
  21 H :    0.041067
  22 C :    0.080099
  23 H :    0.028241
  24 H :    0.013948
  25 C :   -0.111149
  26 H :    0.025489
  27 H :    0.024954
  28 C :   -0.006794
  29 H :    0.010632
  30 H :    0.024544
  31 H :    0.024333
  32 H :    0.077567
  33 H :    0.074772
Sum of atomic charges:   -0.0000000

LOEWDIN ATOMIC CHARGES
----------------------
   0 S :    0.389235
   1 C :   -0.188607
   2 C :   -0.058239
   3 C :   -0.058033
   4 C :   -0.197851
   5 H :    0.031521
   6 C :   -0.035790
   7 H :    0.033567
   8 H :    0.021864
   9 C :   -0.039695
  10 H :    0.022522
  11 H :    0.025481
  12 C :   -0.063368
  13 H :    0.028528
  14 H :    0.024767
  15 H :    0.023164
  16 S :    0.405576
  17 C :   -0.191404
  18 C :   -0.073696
  19 C :   -0.053339
  20 C :   -0.199770
  21 H :    0.040461
  22 C :   -0.037284
  23 H :    0.032121
  24 H :    0.028074
  25 C :   -0.037670
  26 H :    0.021930
  27 H :    0.018472
  28 C :   -0.062164
  29 H :    0.022382
  30 H :    0.021619
  31 H :    0.024569
  32 H :    0.041059
  33 H :    0.039998

  Mayer bond orders larger than 0.100000
B(  0-S ,  1-C ) :   1.1239 B(  0-S ,  4-C ) :   1.1511 B(  1-C ,  2-C ) :   1.5930
B(  1-C , 32-H ) :   0.9670 B(  2-C ,  3-C ) :   1.2473 B(  2-C ,  6-C ) :   1.0312
B(  3-C ,  4-C ) :   1.5509 B(  3-C ,  5-H ) :   0.9973 B(  4-C , 20-C ) :   1.0539
B(  6-C ,  7-H ) :   0.9400 B(  6-C ,  8-H ) :   0.9393 B(  6-C ,  9-C ) :   1.0579
B(  9-C , 10-H ) :   0.9573 B(  9-C , 11-H ) :   0.9530 B(  9-C , 12-C ) :   1.0922
B( 12-C , 13-H ) :   0.9673 B( 12-C , 14-H ) :   0.9674 B( 12-C , 15-H ) :   0.9751
B( 16-S , 17-C ) :   1.1584 B( 16-S , 20-C ) :   1.1338 B( 17-C , 18-C ) :   1.6096
B( 17-C , 33-H ) :   0.9595 B( 18-C , 19-C ) :   1.2343 B( 18-C , 21-H ) :   0.9828
B( 19-C , 20-C ) :   1.5817 B( 19-C , 22-C ) :   1.0717 B( 22-C , 23-H ) :   0.9316
B( 22-C , 24-H ) :   0.9191 B( 22-C , 25-C ) :   1.0579 B( 25-C , 26-H ) :   0.9526
B( 25-C , 27-H ) :   0.9585 B( 25-C , 28-C ) :   1.0793 B( 28-C , 29-H ) :   0.9714
B( 28-C , 30-H ) :   0.9759 B( 28-C , 31-H ) :   0.9742

Dispersion correction           -0.013850870
FINAL SINGLE POINT ENERGY     -1339.881208131330

DIPOLE MOMENT
-------------
                                X             Y             Z
Electronic contribution:     -0.88142      31.40425     -10.43632
Nuclear contribution   :      0.86556     -32.03405      10.82435
                        -----------------------------------------
Total Dipole Moment    :     -0.01585      -0.62980       0.38803
                        -----------------------------------------
Magnitude (a.u.)       :      0.73991
Magnitude (Debye)      :      1.88069

Rotational constants in cm-1:     0.016317     0.009294     0.006380
Rotational constants in MHz :   489.175803   278.634120   191.279793

                             ****ORCA TERMINATED NORMALLY****
TOTAL RUN TIME: 0 days 0 hours 0 minutes 32 seconds 248 msec
