                         Program Version 4.2.1 -  RELEASE  -
|  1> ! wB97X-D3 SP def2-SVP
|  2> %pal
|  3> nprocs 16
|  4> end
|  5>
|  6> * xyz 0 1
|  7> S 	 8.41591 	 23.4301 	 54.0148
|  8> C 	 10.1614 	 23.3619 	 53.8208
|  9> C 	 10.7774 	 23.6917 	 55.0362
| 10> C 	 9.82916 	 23.9785 	 56.0884
| 11> C 	 8.51772 	 23.7884 	 55.6922
| 12> H 	 10.14 	 24.4679 	 57.0431
| 13> C 	 12.3346 	 23.8995 	 55.2239
| 14> H 	 12.8019 	 22.9311 	 55.5409
| 15> H 	 12.3694 	 24.6416 	 56.0418
| 16> C 	 13.1462 	 24.3437 	 53.9755
| 17> H 	 14.1835 	 24.4391 	 54.3281
| 18> H 	 13.1311 	 23.5149 	 53.2313
| 19> C 	 12.7039 	 25.704 	 53.2124
| 20> H 	 12.9779 	 25.7031 	 52.1615
| 21> H 	 11.6467 	 25.8543 	 53.1932
| 22> H 	 13.1181 	 26.5552 	 53.7748
| 23> S 	 6.58861 	 25.6742 	 55.5315
| 24> C 	 5.38276 	 25.7339 	 56.8077
| 25> C 	 5.80378 	 24.9403 	 57.9136
| 26> C 	 7.00699 	 24.1727 	 57.6489
| 27> C 	 7.38509 	 24.3872 	 56.3599
| 28> H 	 5.3077 	 24.9273 	 58.8597
| 29> C 	 7.4657 	 23.1668 	 58.6067
| 30> H 	 8.16677 	 22.4244 	 58.2454
| 31> H 	 6.60191 	 22.5046 	 58.8884
| 32> C 	 8.0728 	 23.8118 	 59.8614
| 33> H 	 7.40172 	 24.5333 	 60.2806
| 34> H 	 8.87746 	 24.4063 	 59.5369
| 35> C 	 8.36676 	 22.841 	 61.048
| 36> H 	 7.46085 	 22.4188 	 61.5122
| 37> H 	 9.00748 	 23.2179 	 61.8118
| 38> H 	 9.02522 	 22.0443 	 60.636
| 39> H 	 10.7014 	 23.0471 	 52.9382
| 40> H 	 4.51662 	 26.3373 	 56.9224
| 41> *
| 42>
| 43>                          ****END OF INPUT****

CARTESIAN COORDINATES (ANGSTROEM)
---------------------------------
  S      8.415910   23.430100   54.014800
  C     10.161400   23.361900   53.820800
  C     10.777400   23.691700   55.036200
  C      9.829160   23.978500   56.088400
  C      8.517720   23.788400   55.692200
  H     10.140000   24.467900   57.043100
  C     12.334600   23.899500   55.223900
  H     12.801900   22.931100   55.540900
  H     12.369400   24.641600   56.041800
  C     13.146200   24.343700   53.975500
  H     14.183500   24.439100   54.328100
  H     13.131100   23.514900   53.231300
  C     12.703900   25.704000   53.212400
  H     12.977900   25.703100   52.161500
  H     11.646700   25.854300   53.193200
  H     13.118100   26.555200   53.774800
  S      6.588610   25.674200   55.531500
  C      5.382760   25.733900   56.807700
  C      5.803780   24.940300   57.913600
  C      7.006990   24.172700   57.648900
  C      7.385090   24.387200   56.359900
  H      5.307700   24.927300   58.859700
  C      7.465700   23.166800   58.606700
  H      8.166770   22.424400   58.245400
  H      6.601910   22.504600   58.888400
  C      8.072800   23.811800   59.861400
  H      7.401720   24.533300   60.280600
  H      8.877460   24.406300   59.536900
  C      8.366760   22.841000   61.048000
  H      7.460850   22.418800   61.512200
  H      9.007480   23.217900   61.811800
  H      9.025220   22.044300   60.636000
  H     10.701400   23.047100   52.938200
  H      4.516620   26.337300   56.922400

 Total Charge           Charge          ....    0
 Multiplicity           Mult            ....    1
 Number of Electrons    NEL             ....  134
 Basis Dimension        Dim             ....  322

ORBITAL ENERGIES
----------------

  NO   OCC          E(Eh)            E(eV)
   0   2.0000     -88.968426     -2420.9539
   1   2.0000     -88.967451     -2420.9274
   2   2.0000     -10.323926      -280.9283
   3   2.0000     -10.319021      -280.7948
   4   2.0000     -10.316955      -280.7386
   5   2.0000     -10.316499      -280.7262
   6   2.0000     -10.307115      -280.4708
   7   2.0000     -10.305268      -280.4206
   8   2.0000     -10.299991      -280.2770
   9   2.0000     -10.299921      -280.2751
  10   2.0000     -10.295401      -280.1521
  11   2.0000     -10.295113      -280.1443
  12   2.0000     -10.289617      -279.9947
  13   2.0000     -10.282359      -279.7972
  14   2.0000     -10.281653      -279.7780
  15   2.0000     -10.279698      -279.7248
  16   2.0000      -8.083108      -219.9526
  17   2.0000      -8.082422      -219.9339
  18   2.0000      -6.041696      -164.4029
  19   2.0000      -6.040953      -164.3827
  20   2.0000      -6.037713      -164.2945
  21   2.0000      -6.036773      -164.2690
  22   2.0000      -6.033684      -164.1849
  23   2.0000      -6.033255      -164.1732
  24   2.0000      -1.011769       -27.5316
  25   2.0000      -0.981629       -26.7115
  26   2.0000      -0.912909       -24.8415
  27   2.0000      -0.898455       -24.4482
  28   2.0000      -0.863014       -23.4838
  29   2.0000      -0.851926       -23.1821
  30   2.0000      -0.840802       -22.8794
  31   2.0000      -0.805892       -21.9294
  32   2.0000      -0.783402       -21.3175
  33   2.0000      -0.775150       -21.0929
  34   2.0000      -0.707334       -19.2475
  35   2.0000      -0.704195       -19.1621
  36   2.0000      -0.694739       -18.9048
  37   2.0000      -0.665159       -18.0999
  38   2.0000      -0.635365       -17.2892
  39   2.0000      -0.611156       -16.6304
  40   2.0000      -0.597614       -16.2619
  41   2.0000      -0.567013       -15.4292
  42   2.0000      -0.563189       -15.3252
  43   2.0000      -0.546043       -14.8586
  44   2.0000      -0.533202       -14.5092
  45   2.0000      -0.522648       -14.2220
  46   2.0000      -0.515339       -14.0231
  47   2.0000      -0.511492       -13.9184
  48   2.0000      -0.507829       -13.8187
  49   2.0000      -0.497961       -13.5502
  50   2.0000      -0.486781       -13.2460
  51   2.0000      -0.479755       -13.0548
  52   2.0000      -0.468187       -12.7400
  53   2.0000      -0.464983       -12.6528
  54   2.0000      -0.456309       -12.4168
  55   2.0000      -0.450396       -12.2559
  56   2.0000      -0.446061       -12.1379
  57   2.0000      -0.434656       -11.8276
  58   2.0000      -0.432686       -11.7740
  59   2.0000      -0.429822       -11.6961
  60   2.0000      -0.423305       -11.5187
  61   2.0000      -0.414533       -11.2800
  62   2.0000      -0.413006       -11.2385
  63   2.0000      -0.345841        -9.4108
  64   2.0000      -0.332656        -9.0520
  65   2.0000      -0.323952        -8.8152
  66   2.0000      -0.292133        -7.9493
  67   0.0000       0.030773         0.8374
  68   0.0000       0.069373         1.8877
  69   0.0000       0.108107         2.9417
  70   0.0000       0.118920         3.2360
  71   0.0000       0.127975         3.4824

MULLIKEN ATOMIC CHARGES
-----------------------
   0 S :    0.106565
   1 C :   -0.121629
   2 C :   -0.116800
   3 C :    0.012735
   4 C :   -0.150487
   5 H :    0.037892
   6 C :    0.058300
   7 H :    0.054284
   8 H :    0.028545
   9 C :   -0.116171
  10 H :    0.041954
  11 H :    0.033602
  12 C :   -0.055026
  13 H :    0.036984
  14 H :    0.035519
  15 H :    0.038385
  16 S :    0.132630
  17 C :   -0.075474
  18 C :   -0.040822
  19 C :   -0.008958
  20 C :   -0.156514
  21 H :    0.011804
  22 C :    0.050514
  23 H :    0.021562
  24 H :    0.033579
  25 C :   -0.073052
  26 H :    0.017481
  27 H :    0.010481
  28 C :   -0.037515
  29 H :    0.043745
  30 H :    0.028532
  31 H :    0.023790
  32 H :    0.050528
  33 H :    0.043038
Sum of atomic charges:    0.0000000

LOEWDIN ATOMIC CHARGES
----------------------
   0 S :    0.422398
   1 C :   -0.201680
   2 C :   -0.063378
   3 C :   -0.065489
   4 C :   -0.209589
   5 H :    0.038551
   6 C :   -0.032986
   7 H :    0.041270
   8 H :    0.028796
   9 C :   -0.045796
  10 H :    0.029251
  11 H :    0.022658
  12 C :   -0.069476
  13 H :    0.027415
  14 H :    0.021980
  15 H :    0.028397
  16 S :    0.415695
  17 C :   -0.190471
  18 C :   -0.052474
  19 C :   -0.063652
  20 C :   -0.201995
  21 H :    0.023610
  22 C :   -0.034676
  23 H :    0.028337
  24 H :    0.037819
  25 C :   -0.035214
  26 H :    0.018565
  27 H :    0.016763
  28 C :   -0.067417
  29 H :    0.029648
  30 H :    0.023268
  31 H :    0.027346
  32 H :    0.028734
  33 H :    0.023789

  Mayer bond orders larger than 0.100000
B(  0-S ,  1-C ) :   1.1382 B(  0-S ,  4-C ) :   1.1663 B(  1-C ,  2-C ) :   1.5985
B(  1-C , 32-H ) :   0.9697 B(  2-C ,  3-C ) :   1.2803 B(  2-C ,  6-C ) :   0.9928
B(  3-C ,  4-C ) :   1.5415 B(  3-C ,  5-H ) :   0.9793 B(  4-C , 20-C ) :   1.0258
B(  6-C ,  7-H ) :   0.9378 B(  6-C ,  8-H ) :   0.9507 B(  6-C ,  9-C ) :   1.0757
B(  9-C , 10-H ) :   0.9593 B(  9-C , 11-H ) :   0.9572 B(  9-C , 12-C ) :   1.0557
B( 12-C , 13-H ) :   0.9790 B( 12-C , 14-H ) :   0.9796 B( 12-C , 15-H ) :   0.9791
B( 16-S , 17-C ) :   1.1274 B( 16-S , 20-C ) :   1.1495 B( 17-C , 18-C ) :   1.6260
B( 17-C , 33-H ) :   0.9732 B( 18-C , 19-C ) :   1.2181 B( 18-C , 21-H ) :   0.9852
B( 19-C , 20-C ) :   1.6109 B( 19-C , 22-C ) :   1.0652 B( 22-C , 23-H ) :   0.9299
B( 22-C , 24-H ) :   0.9381 B( 22-C , 25-C ) :   1.0407 B( 25-C , 26-H ) :   0.9608
B( 25-C , 27-H ) :   0.9533 B( 25-C , 28-C ) :   1.0761 B( 28-C , 29-H ) :   0.9754
B( 28-C , 30-H ) :   0.9745 B( 28-C , 31-H ) :   0.9730

Dispersion correction           -0.014259851
FINAL SINGLE POINT ENERGY     -1339.869736860693

DIPOLE MOMENT
-------------
                                X             Y             Z
Electronic contribution:    -18.74659       2.23401     -13.80777
Nuclear contribution   :     19.20624      -2.16805      14.21939
                        -----------------------------------------
Total Dipole Moment    :      0.45965       0.06595       0.41162
                        -----------------------------------------
Magnitude (a.u.)       :      0.62053
Magnitude (Debye)      :      1.57727

Rotational constants in cm-1:     0.019146     0.008296     0.006564
Rotational constants in MHz :   573.970828   248.720663   196.786801

                             ****ORCA TERMINATED NORMALLY****
TOTAL RUN TIME: 0 days 0 hours 0 minutes 34 seconds 264 msec
