                         Program Version 4.2.1 -  RELEASE  -
|  1> ! wB97X-D3 SP def2-SVP
|  2> %pal
|  3> nprocs 16
|  4> end
|  5>
|  6> * xyz 0 1
|  7> S 	 6.81611 	 -1.75096 	 91.594
|  8> C 	 7.55923 	 -0.169383 	 91.3757
|  9> C 	 7.76563 	 0.167561 	 90.0522
| 10> C 	 7.19438 	 -0.869402 	 89.187
| 11> C 	 6.63429 	 -1.93526 	 89.8787
| 12> H 	 7.30022 	 -1.04912 	 88.1435
| 13> C 	 8.29621 	 1.40183 	 89.3926
| 14> H 	 7.5315 	 2.01709 	 88.9205
| 15> H 	 8.97105 	 1.09187 	 88.5432
| 16> C 	 9.13726 	 2.27144 	 90.3915
| 17> H 	 8.42867 	 2.66939 	 91.0792
| 18> H 	 9.76133 	 1.5531 	 90.9815
| 19> C 	 10.0023 	 3.28459 	 89.707
| 20> H 	 10.7246 	 2.77948 	 89.0446
| 21> H 	 9.3672 	 3.78017 	 88.9258
| 22> H 	 10.5395 	 4.0037 	 90.4047
| 23> S 	 6.80275 	 -4.7272 	 89.7029
| 24> C 	 5.99657 	 -5.55558 	 88.4504
| 25> C 	 5.12671 	 -4.70856 	 87.8226
| 26> C 	 5.22101 	 -3.32947 	 88.2046
| 27> C 	 6.05847 	 -3.14222 	 89.2721
| 28> H 	 4.51791 	 -5.14094 	 87.0381
| 29> C 	 4.31818 	 -2.25023 	 87.4898
| 30> H 	 3.81179 	 -2.71198 	 86.7221
| 31> H 	 4.8697 	 -1.46742 	 87.0578
| 32> C 	 3.13817 	 -1.60484 	 88.3343
| 33> H 	 3.51916 	 -1.42788 	 89.3936
| 34> H 	 2.38507 	 -2.33693 	 88.4423
| 35> C 	 2.64144 	 -0.374992 	 87.7368
| 36> H 	 2.02207 	 0.12299 	 88.4133
| 37> H 	 2.16646 	 -0.576526 	 86.6974
| 38> H 	 3.42654 	 0.416113 	 87.5632
| 39> H 	 7.84325 	 0.488614 	 92.196
| 40> H 	 6.17444 	 -6.63361 	 88.3308
| 41> *
| 42>
| 43>                          ****END OF INPUT****

CARTESIAN COORDINATES (ANGSTROEM)
---------------------------------
  S      6.816110   -1.750960   91.594000
  C      7.559230   -0.169383   91.375700
  C      7.765630    0.167561   90.052200
  C      7.194380   -0.869402   89.187000
  C      6.634290   -1.935260   89.878700
  H      7.300220   -1.049120   88.143500
  C      8.296210    1.401830   89.392600
  H      7.531500    2.017090   88.920500
  H      8.971050    1.091870   88.543200
  C      9.137260    2.271440   90.391500
  H      8.428670    2.669390   91.079200
  H      9.761330    1.553100   90.981500
  C     10.002300    3.284590   89.707000
  H     10.724600    2.779480   89.044600
  H      9.367200    3.780170   88.925800
  H     10.539500    4.003700   90.404700
  S      6.802750   -4.727200   89.702900
  C      5.996570   -5.555580   88.450400
  C      5.126710   -4.708560   87.822600
  C      5.221010   -3.329470   88.204600
  C      6.058470   -3.142220   89.272100
  H      4.517910   -5.140940   87.038100
  C      4.318180   -2.250230   87.489800
  H      3.811790   -2.711980   86.722100
  H      4.869700   -1.467420   87.057800
  C      3.138170   -1.604840   88.334300
  H      3.519160   -1.427880   89.393600
  H      2.385070   -2.336930   88.442300
  C      2.641440   -0.374992   87.736800
  H      2.022070    0.122990   88.413300
  H      2.166460   -0.576526   86.697400
  H      3.426540    0.416113   87.563200
  H      7.843250    0.488614   92.196000
  H      6.174440   -6.633610   88.330800

 Total Charge           Charge          ....    0
 Multiplicity           Mult            ....    1
 Number of Electrons    NEL             ....  134
 Basis Dimension        Dim             ....  322

ORBITAL ENERGIES
----------------

  NO   OCC          E(Eh)            E(eV)
   0   2.0000     -88.967183     -2420.9201
   1   2.0000     -88.959711     -2420.7168
   2   2.0000     -10.329267      -281.0736
   3   2.0000     -10.329090      -281.0688
   4   2.0000     -10.317393      -280.7505
   5   2.0000     -10.316833      -280.7353
   6   2.0000     -10.308780      -280.5162
   7   2.0000     -10.306827      -280.4630
   8   2.0000     -10.299273      -280.2575
   9   2.0000     -10.292639      -280.0769
  10   2.0000     -10.292009      -280.0598
  11   2.0000     -10.287811      -279.9456
  12   2.0000     -10.286685      -279.9149
  13   2.0000     -10.286308      -279.9047
  14   2.0000     -10.281432      -279.7720
  15   2.0000     -10.278530      -279.6930
  16   2.0000      -8.082007      -219.9226
  17   2.0000      -8.075160      -219.7363
  18   2.0000      -6.040572      -164.3723
  19   2.0000      -6.036591      -164.2640
  20   2.0000      -6.033642      -164.1837
  21   2.0000      -6.032620      -164.1559
  22   2.0000      -6.029449      -164.0696
  23   2.0000      -6.026006      -163.9760
  24   2.0000      -1.005291       -27.3554
  25   2.0000      -0.984298       -26.7841
  26   2.0000      -0.914440       -24.8832
  27   2.0000      -0.908274       -24.7154
  28   2.0000      -0.869444       -23.6588
  29   2.0000      -0.854991       -23.2655
  30   2.0000      -0.846436       -23.0327
  31   2.0000      -0.810147       -22.0452
  32   2.0000      -0.783430       -21.3182
  33   2.0000      -0.773867       -21.0580
  34   2.0000      -0.711218       -19.3532
  35   2.0000      -0.696563       -18.9544
  36   2.0000      -0.685483       -18.6529
  37   2.0000      -0.662872       -18.0377
  38   2.0000      -0.641913       -17.4673
  39   2.0000      -0.610136       -16.6027
  40   2.0000      -0.598394       -16.2831
  41   2.0000      -0.571166       -15.5422
  42   2.0000      -0.566122       -15.4049
  43   2.0000      -0.562916       -15.3177
  44   2.0000      -0.528457       -14.3800
  45   2.0000      -0.524416       -14.2701
  46   2.0000      -0.516828       -14.0636
  47   2.0000      -0.512748       -13.9526
  48   2.0000      -0.501785       -13.6543
  49   2.0000      -0.498424       -13.5628
  50   2.0000      -0.493435       -13.4270
  51   2.0000      -0.487292       -13.2599
  52   2.0000      -0.480236       -13.0679
  53   2.0000      -0.467356       -12.7174
  54   2.0000      -0.455531       -12.3956
  55   2.0000      -0.453770       -12.3477
  56   2.0000      -0.446275       -12.1438
  57   2.0000      -0.433588       -11.7985
  58   2.0000      -0.424147       -11.5416
  59   2.0000      -0.419898       -11.4260
  60   2.0000      -0.417487       -11.3604
  61   2.0000      -0.414423       -11.2770
  62   2.0000      -0.408994       -11.1293
  63   2.0000      -0.349055        -9.4983
  64   2.0000      -0.331013        -9.0073
  65   2.0000      -0.328264        -8.9325
  66   2.0000      -0.295227        -8.0335
  67   0.0000       0.033690         0.9168
  68   0.0000       0.069268         1.8849
  69   0.0000       0.113977         3.1015
  70   0.0000       0.117643         3.2012
  71   0.0000       0.131258         3.5717

MULLIKEN ATOMIC CHARGES
-----------------------
   0 S :    0.112957
   1 C :   -0.132089
   2 C :   -0.065618
   3 C :    0.022274
   4 C :   -0.154345
   5 H :    0.011522
   6 C :    0.020616
   7 H :    0.047872
   8 H :    0.035636
   9 C :   -0.097430
  10 H :    0.029283
  11 H :    0.035619
  12 C :   -0.040488
  13 H :    0.028437
  14 H :    0.025701
  15 H :    0.057070
  16 S :    0.085062
  17 C :   -0.108956
  18 C :   -0.030422
  19 C :   -0.045394
  20 C :   -0.140848
  21 H :    0.018084
  22 C :    0.132421
  23 H :   -0.010678
  24 H :    0.007814
  25 C :   -0.081470
  26 H :    0.041921
  27 H :    0.020385
  28 C :   -0.044343
  29 H :    0.023473
  30 H :    0.041071
  31 H :    0.029154
  32 H :    0.051542
  33 H :    0.074166
Sum of atomic charges:   -0.0000000

LOEWDIN ATOMIC CHARGES
----------------------
   0 S :    0.404575
   1 C :   -0.197254
   2 C :   -0.059035
   3 C :   -0.059593
   4 C :   -0.196193
   5 H :    0.027867
   6 C :   -0.033074
   7 H :    0.033982
   8 H :    0.037062
   9 C :   -0.048780
  10 H :    0.017521
  11 H :    0.026529
  12 C :   -0.073813
  13 H :    0.026758
  14 H :    0.028605
  15 H :    0.036568
  16 S :    0.395469
  17 C :   -0.193865
  18 C :   -0.080482
  19 C :   -0.051823
  20 C :   -0.185464
  21 H :    0.030639
  22 C :   -0.013250
  23 H :    0.016793
  24 H :    0.019957
  25 C :   -0.039477
  26 H :    0.032116
  27 H :    0.017663
  28 C :   -0.070691
  29 H :    0.020806
  30 H :    0.034251
  31 H :    0.029969
  32 H :    0.029012
  33 H :    0.036653

  Mayer bond orders larger than 0.100000
B(  0-S ,  1-C ) :   1.1209 B(  0-S ,  4-C ) :   1.1409 B(  1-C ,  2-C ) :   1.6448
B(  1-C , 32-H ) :   0.9640 B(  2-C ,  3-C ) :   1.1971 B(  2-C ,  6-C ) :   1.0215
B(  3-C ,  4-C ) :   1.6209 B(  3-C ,  5-H ) :   0.9923 B(  4-C , 20-C ) :   1.0188
B(  6-C ,  7-H ) :   0.9347 B(  6-C ,  8-H ) :   0.9426 B(  6-C ,  9-C ) :   1.0628
B(  9-C , 10-H ) :   0.9499 B(  9-C , 11-H ) :   0.9593 B(  9-C , 12-C ) :   1.0848
B( 12-C , 13-H ) :   0.9722 B( 12-C , 14-H ) :   0.9690 B( 12-C , 15-H ) :   0.9708
B( 16-S , 17-C ) :   1.1756 B( 16-S , 20-C ) :   1.1267 B( 17-C , 18-C ) :   1.5930
B( 17-C , 33-H ) :   0.9665 B( 18-C , 19-C ) :   1.2366 B( 18-C , 21-H ) :   0.9929
B( 19-C , 20-C ) :   1.6232 B( 19-C , 22-C ) :   1.0305 B( 22-C , 23-H ) :   0.9298
B( 22-C , 24-H ) :   0.9420 B( 22-C , 25-C ) :   1.0509 B( 25-C , 26-H ) :   0.9575
B( 25-C , 27-H ) :   0.9539 B( 25-C , 28-C ) :   1.0990 B( 28-C , 29-H ) :   0.9665
B( 28-C , 30-H ) :   0.9688 B( 28-C , 31-H ) :   0.9685

Dispersion correction           -0.013677192
FINAL SINGLE POINT ENERGY     -1339.872214469737

DIPOLE MOMENT
-------------
                                X             Y             Z
Electronic contribution:      2.89239     -25.24235      11.30417
Nuclear contribution   :     -2.97742      25.60980     -11.81532
                        -----------------------------------------
Total Dipole Moment    :     -0.08503       0.36745      -0.51115
                        -----------------------------------------
Magnitude (a.u.)       :      0.63524
Magnitude (Debye)      :      1.61464

Rotational constants in cm-1:     0.018975     0.007806     0.006386
Rotational constants in MHz :   568.857437   234.027223   191.455940

                             ****ORCA TERMINATED NORMALLY****
TOTAL RUN TIME: 0 days 0 hours 0 minutes 32 seconds 663 msec
