                         Program Version 4.2.1 -  RELEASE  -
|  1> ! wB97X-D3 SP def2-SVP
|  2> %pal
|  3> nprocs 16
|  4> end
|  5>
|  6> * xyz 0 1
|  7> S 	 -40.0901 	 52.4019 	 102.004
|  8> C 	 -38.7746 	 53.4067 	 101.504
|  9> C 	 -37.5815 	 52.7605 	 101.563
| 10> C 	 -37.7915 	 51.3819 	 101.98
| 11> C 	 -39.0607 	 51.0171 	 102.285
| 12> H 	 -37.0355 	 50.6306 	 102.037
| 13> C 	 -36.1685 	 53.3756 	 101.295
| 14> H 	 -36.2488 	 54.2625 	 100.733
| 15> H 	 -35.5492 	 52.6367 	 100.717
| 16> C 	 -35.322 	 53.6086 	 102.576
| 17> H 	 -35.5851 	 52.772 	 103.214
| 18> H 	 -34.2231 	 53.572 	 102.485
| 19> C 	 -35.7146 	 54.9093 	 103.294
| 20> H 	 -35.4623 	 55.8236 	 102.853
| 21> H 	 -36.8367 	 54.9117 	 103.544
| 22> H 	 -35.318 	 54.8998 	 104.291
| 23> S 	 -39.3412 	 48.3925 	 101.617
| 24> C 	 -40.0294 	 47.2713 	 102.735
| 25> C 	 -40.3152 	 47.8714 	 103.948
| 26> C 	 -39.8963 	 49.272 	 104.004
| 27> C 	 -39.4723 	 49.7039 	 102.756
| 28> H 	 -40.8855 	 47.3329 	 104.709
| 29> C 	 -40.1633 	 50.0402 	 105.287
| 30> H 	 -40.316 	 49.3319 	 106.034
| 31> H 	 -41.0545 	 50.5906 	 105.315
| 32> C 	 -38.9128 	 50.9416 	 105.57
| 33> H 	 -38.5723 	 51.4713 	 104.718
| 34> H 	 -38.0322 	 50.3061 	 105.849
| 35> C 	 -39.1496 	 51.895 	 106.803
| 36> H 	 -39.4906 	 51.2941 	 107.642
| 37> H 	 -39.9224 	 52.6654 	 106.731
| 38> H 	 -38.2495 	 52.4439 	 107.094
| 39> H 	 -38.8078 	 54.4555 	 101.23
| 40> H 	 -40.2353 	 46.1909 	 102.438
| 41> *
| 42>
| 43>                          ****END OF INPUT****

CARTESIAN COORDINATES (ANGSTROEM)
---------------------------------
  S    -40.090100   52.401900  102.004000
  C    -38.774600   53.406700  101.504000
  C    -37.581500   52.760500  101.563000
  C    -37.791500   51.381900  101.980000
  C    -39.060700   51.017100  102.285000
  H    -37.035500   50.630600  102.037000
  C    -36.168500   53.375600  101.295000
  H    -36.248800   54.262500  100.733000
  H    -35.549200   52.636700  100.717000
  C    -35.322000   53.608600  102.576000
  H    -35.585100   52.772000  103.214000
  H    -34.223100   53.572000  102.485000
  C    -35.714600   54.909300  103.294000
  H    -35.462300   55.823600  102.853000
  H    -36.836700   54.911700  103.544000
  H    -35.318000   54.899800  104.291000
  S    -39.341200   48.392500  101.617000
  C    -40.029400   47.271300  102.735000
  C    -40.315200   47.871400  103.948000
  C    -39.896300   49.272000  104.004000
  C    -39.472300   49.703900  102.756000
  H    -40.885500   47.332900  104.709000
  C    -40.163300   50.040200  105.287000
  H    -40.316000   49.331900  106.034000
  H    -41.054500   50.590600  105.315000
  C    -38.912800   50.941600  105.570000
  H    -38.572300   51.471300  104.718000
  H    -38.032200   50.306100  105.849000
  C    -39.149600   51.895000  106.803000
  H    -39.490600   51.294100  107.642000
  H    -39.922400   52.665400  106.731000
  H    -38.249500   52.443900  107.094000
  H    -38.807800   54.455500  101.230000
  H    -40.235300   46.190900  102.438000

 Total Charge           Charge          ....    0
 Multiplicity           Mult            ....    1
 Number of Electrons    NEL             ....  134
 Basis Dimension        Dim             ....  322

ORBITAL ENERGIES
----------------

  NO   OCC          E(Eh)            E(eV)
   0   2.0000     -88.965565     -2420.8761
   1   2.0000     -88.965196     -2420.8661
   2   2.0000     -10.326696      -281.0037
   3   2.0000     -10.325818      -280.9798
   4   2.0000     -10.321854      -280.8719
   5   2.0000     -10.312934      -280.6292
   6   2.0000     -10.307569      -280.4832
   7   2.0000     -10.303754      -280.3794
   8   2.0000     -10.298054      -280.2243
   9   2.0000     -10.297124      -280.1990
  10   2.0000     -10.290626      -280.0222
  11   2.0000     -10.289280      -279.9855
  12   2.0000     -10.285905      -279.8937
  13   2.0000     -10.285509      -279.8829
  14   2.0000     -10.274940      -279.5953
  15   2.0000     -10.274019      -279.5703
  16   2.0000      -8.080954      -219.8939
  17   2.0000      -8.080187      -219.8731
  18   2.0000      -6.039471      -164.3424
  19   2.0000      -6.038834      -164.3250
  20   2.0000      -6.035254      -164.2276
  21   2.0000      -6.034596      -164.2097
  22   2.0000      -6.031785      -164.1332
  23   2.0000      -6.030822      -164.1070
  24   2.0000      -1.010217       -27.4894
  25   2.0000      -0.987484       -26.8708
  26   2.0000      -0.907078       -24.6828
  27   2.0000      -0.903908       -24.5966
  28   2.0000      -0.872694       -23.7472
  29   2.0000      -0.844613       -22.9831
  30   2.0000      -0.841363       -22.8947
  31   2.0000      -0.812924       -22.1208
  32   2.0000      -0.784095       -21.3363
  33   2.0000      -0.774854       -21.0849
  34   2.0000      -0.711198       -19.3527
  35   2.0000      -0.700261       -19.0551
  36   2.0000      -0.689958       -18.7747
  37   2.0000      -0.660168       -17.9641
  38   2.0000      -0.642449       -17.4819
  39   2.0000      -0.619471       -16.8567
  40   2.0000      -0.597339       -16.2544
  41   2.0000      -0.569702       -15.5024
  42   2.0000      -0.557142       -15.1606
  43   2.0000      -0.546237       -14.8639
  44   2.0000      -0.537729       -14.6324
  45   2.0000      -0.519823       -14.1451
  46   2.0000      -0.518017       -14.0959
  47   2.0000      -0.516394       -14.0518
  48   2.0000      -0.499961       -13.6046
  49   2.0000      -0.496169       -13.5015
  50   2.0000      -0.493354       -13.4248
  51   2.0000      -0.480214       -13.0673
  52   2.0000      -0.475314       -12.9339
  53   2.0000      -0.467290       -12.7156
  54   2.0000      -0.461568       -12.5599
  55   2.0000      -0.444895       -12.1062
  56   2.0000      -0.437618       -11.9082
  57   2.0000      -0.436617       -11.8810
  58   2.0000      -0.433477       -11.7955
  59   2.0000      -0.424253       -11.5445
  60   2.0000      -0.419974       -11.4281
  61   2.0000      -0.414203       -11.2710
  62   2.0000      -0.413172       -11.2430
  63   2.0000      -0.337353        -9.1798
  64   2.0000      -0.332234        -9.0406
  65   2.0000      -0.326061        -8.8726
  66   2.0000      -0.308860        -8.4045
  67   0.0000       0.043603         1.1865
  68   0.0000       0.063903         1.7389
  69   0.0000       0.112264         3.0549
  70   0.0000       0.121301         3.3008
  71   0.0000       0.132488         3.6052

MULLIKEN ATOMIC CHARGES
-----------------------
   0 S :    0.119615
   1 C :   -0.115141
   2 C :   -0.090076
   3 C :    0.030767
   4 C :   -0.172771
   5 H :   -0.001495
   6 C :    0.088445
   7 H :    0.011622
   8 H :    0.036586
   9 C :   -0.071252
  10 H :    0.024744
  11 H :    0.039410
  12 C :   -0.060541
  13 H :    0.028159
  14 H :    0.032896
  15 H :    0.022324
  16 S :    0.122817
  17 C :   -0.123232
  18 C :   -0.041474
  19 C :   -0.035934
  20 C :   -0.187124
  21 H :    0.028575
  22 C :    0.155538
  23 H :   -0.007125
  24 H :    0.027743
  25 C :   -0.107740
  26 H :    0.049075
  27 H :    0.034227
  28 C :   -0.046893
  29 H :    0.018756
  30 H :    0.027277
  31 H :    0.031931
  32 H :    0.045641
  33 H :    0.084647
Sum of atomic charges:    0.0000000

LOEWDIN ATOMIC CHARGES
----------------------
   0 S :    0.409779
   1 C :   -0.198477
   2 C :   -0.065603
   3 C :   -0.059663
   4 C :   -0.205052
   5 H :    0.023253
   6 C :   -0.023342
   7 H :    0.018974
   8 H :    0.038454
   9 C :   -0.042095
  10 H :    0.025338
  11 H :    0.026922
  12 C :   -0.071065
  13 H :    0.013816
  14 H :    0.034009
  15 H :    0.023783
  16 S :    0.424488
  17 C :   -0.203142
  18 C :   -0.077193
  19 C :   -0.044597
  20 C :   -0.205314
  21 H :    0.033583
  22 C :   -0.017654
  23 H :    0.022148
  24 H :    0.027726
  25 C :   -0.031777
  26 H :    0.018398
  27 H :    0.031455
  28 C :   -0.072709
  29 H :    0.021504
  30 H :    0.021939
  31 H :    0.025422
  32 H :    0.032572
  33 H :    0.044120

  Mayer bond orders larger than 0.100000
B(  0-S ,  1-C ) :   1.1406 B(  0-S ,  4-C ) :   1.1252 B(  1-C ,  2-C ) :   1.6433
B(  1-C , 32-H ) :   0.9608 B(  2-C ,  3-C ) :   1.2133 B(  2-C ,  6-C ) :   1.0290
B(  3-C ,  4-C ) :   1.6192 B(  3-C ,  5-H ) :   0.9973 B(  4-C , 20-C ) :   1.0218
B(  6-C ,  7-H ) :   0.9469 B(  6-C ,  8-H ) :   0.9411 B(  6-C ,  9-C ) :   1.0529
B(  9-C , 10-H ) :   0.9555 B(  9-C , 11-H ) :   0.9593 B(  9-C , 12-C ) :   1.0815
B( 12-C , 13-H ) :   0.9791 B( 12-C , 14-H ) :   0.9729 B( 12-C , 15-H ) :   0.9709
B( 16-S , 17-C ) :   1.1640 B( 16-S , 20-C ) :   1.1499 B( 17-C , 18-C ) :   1.6133
B( 17-C , 33-H ) :   0.9574 B( 18-C , 19-C ) :   1.2324 B( 18-C , 21-H ) :   0.9852
B( 19-C , 20-C ) :   1.5988 B( 19-C , 22-C ) :   1.0412 B( 22-C , 23-H ) :   0.9195
B( 22-C , 24-H ) :   0.9381 B( 22-C , 25-C ) :   1.0445 B( 25-C , 26-H ) :   0.9650
B( 25-C , 27-H ) :   0.9551 B( 25-C , 28-C ) :   1.0762 B( 28-C , 29-H ) :   0.9731
B( 28-C , 30-H ) :   0.9779 B( 28-C , 31-H ) :   0.9758

Dispersion correction           -0.015198671
FINAL SINGLE POINT ENERGY     -1339.879832471735

DIPOLE MOMENT
-------------
                                X             Y             Z
Electronic contribution:    -14.24306     -15.11279     -17.29545
Nuclear contribution   :     14.51328      15.15576      17.63795
                        -----------------------------------------
Total Dipole Moment    :      0.27022       0.04298       0.34250
                        -----------------------------------------
Magnitude (a.u.)       :      0.43837
Magnitude (Debye)      :      1.11425

Rotational constants in cm-1:     0.019235     0.009116     0.007560
Rotational constants in MHz :   576.640049   273.302957   226.643586

                             ****ORCA TERMINATED NORMALLY****
TOTAL RUN TIME: 0 days 0 hours 0 minutes 32 seconds 786 msec
