                         Program Version 4.2.1 -  RELEASE  -
|  1> ! wB97X-D3 SP def2-SVP
|  2> %pal
|  3> nprocs 16
|  4> end
|  5>
|  6> * xyz 0 1
|  7> S 	 65.9164 	 17.4955 	 73.0984
|  8> C 	 66.9233 	 16.6571 	 71.9231
|  9> C 	 68.104 	 16.2353 	 72.545
| 10> C 	 68.1946 	 16.6679 	 73.9267
| 11> C 	 67.1015 	 17.4048 	 74.3597
| 12> H 	 69.0005 	 16.4812 	 74.6758
| 13> C 	 69.1465 	 15.3707 	 71.8781
| 14> H 	 68.7599 	 15.0064 	 70.9117
| 15> H 	 69.3561 	 14.5096 	 72.5246
| 16> C 	 70.4885 	 16.0839 	 71.7763
| 17> H 	 70.8485 	 16.5906 	 72.6848
| 18> H 	 71.1002 	 15.2251 	 71.7108
| 19> C 	 70.6229 	 16.8616 	 70.4599
| 20> H 	 71.647 	 17.1604 	 70.2954
| 21> H 	 70.2377 	 16.2237 	 69.6495
| 22> H 	 69.9745 	 17.6802 	 70.4718
| 23> S 	 65.3998 	 18.8766 	 75.8879
| 24> C 	 65.8247 	 19.3046 	 77.5392
| 25> C 	 66.8859 	 18.6038 	 78.0215
| 26> C 	 67.5616 	 17.9053 	 76.9424
| 27> C 	 66.8413 	 17.958 	 75.7273
| 28> H 	 67.309 	 18.6788 	 79.026
| 29> C 	 68.9115 	 17.1762 	 77.2423
| 30> H 	 69.2162 	 17.6013 	 78.1973
| 31> H 	 69.6279 	 17.5721 	 76.4425
| 32> C 	 68.7597 	 15.6239 	 77.4143
| 33> H 	 67.8704 	 15.1988 	 76.8915
| 34> H 	 68.7228 	 15.3344 	 78.4766
| 35> C 	 69.9404 	 14.8765 	 76.8304
| 36> H 	 69.9748 	 13.8419 	 77.1747
| 37> H 	 70.8919 	 15.2735 	 76.8945
| 38> H 	 69.7962 	 14.7448 	 75.7502
| 39> H 	 66.6751 	 16.3996 	 70.8452
| 40> H 	 65.1211 	 19.8384 	 78.232
| 41> *
| 42>
| 43>                          ****END OF INPUT****

CARTESIAN COORDINATES (ANGSTROEM)
---------------------------------
  S     65.916400   17.495500   73.098400
  C     66.923300   16.657100   71.923100
  C     68.104000   16.235300   72.545000
  C     68.194600   16.667900   73.926700
  C     67.101500   17.404800   74.359700
  H     69.000500   16.481200   74.675800
  C     69.146500   15.370700   71.878100
  H     68.759900   15.006400   70.911700
  H     69.356100   14.509600   72.524600
  C     70.488500   16.083900   71.776300
  H     70.848500   16.590600   72.684800
  H     71.100200   15.225100   71.710800
  C     70.622900   16.861600   70.459900
  H     71.647000   17.160400   70.295400
  H     70.237700   16.223700   69.649500
  H     69.974500   17.680200   70.471800
  S     65.399800   18.876600   75.887900
  C     65.824700   19.304600   77.539200
  C     66.885900   18.603800   78.021500
  C     67.561600   17.905300   76.942400
  C     66.841300   17.958000   75.727300
  H     67.309000   18.678800   79.026000
  C     68.911500   17.176200   77.242300
  H     69.216200   17.601300   78.197300
  H     69.627900   17.572100   76.442500
  C     68.759700   15.623900   77.414300
  H     67.870400   15.198800   76.891500
  H     68.722800   15.334400   78.476600
  C     69.940400   14.876500   76.830400
  H     69.974800   13.841900   77.174700
  H     70.891900   15.273500   76.894500
  H     69.796200   14.744800   75.750200
  H     66.675100   16.399600   70.845200
  H     65.121100   19.838400   78.232000

 Total Charge           Charge          ....    0
 Multiplicity           Mult            ....    1
 Number of Electrons    NEL             ....  134
 Basis Dimension        Dim             ....  322

ORBITAL ENERGIES
----------------

  NO   OCC          E(Eh)            E(eV)
   0   2.0000     -88.967126     -2420.9186
   1   2.0000     -88.965267     -2420.8680
   2   2.0000     -10.334074      -281.2044
   3   2.0000     -10.332503      -281.1617
   4   2.0000     -10.320335      -280.8306
   5   2.0000     -10.319913      -280.8191
   6   2.0000     -10.309126      -280.5256
   7   2.0000     -10.306689      -280.4593
   8   2.0000     -10.303991      -280.3858
   9   2.0000     -10.297481      -280.2087
  10   2.0000     -10.296652      -280.1861
  11   2.0000     -10.294916      -280.1389
  12   2.0000     -10.293165      -280.0913
  13   2.0000     -10.280363      -279.7429
  14   2.0000     -10.272063      -279.5170
  15   2.0000     -10.271095      -279.4907
  16   2.0000      -8.082447      -219.9346
  17   2.0000      -8.079938      -219.8663
  18   2.0000      -6.040994      -164.3838
  19   2.0000      -6.038663      -164.3204
  20   2.0000      -6.036944      -164.2736
  21   2.0000      -6.034377      -164.2037
  22   2.0000      -6.033064      -164.1680
  23   2.0000      -6.030576      -164.1003
  24   2.0000      -1.006627       -27.3917
  25   2.0000      -0.982987       -26.7484
  26   2.0000      -0.916717       -24.9451
  27   2.0000      -0.905739       -24.6464
  28   2.0000      -0.868668       -23.6377
  29   2.0000      -0.852033       -23.1850
  30   2.0000      -0.841396       -22.8955
  31   2.0000      -0.815441       -22.1893
  32   2.0000      -0.781717       -21.2716
  33   2.0000      -0.771875       -21.0038
  34   2.0000      -0.709204       -19.2984
  35   2.0000      -0.700004       -19.0481
  36   2.0000      -0.684985       -18.6394
  37   2.0000      -0.664018       -18.0688
  38   2.0000      -0.633506       -17.2386
  39   2.0000      -0.617503       -16.8031
  40   2.0000      -0.589905       -16.0521
  41   2.0000      -0.568747       -15.4764
  42   2.0000      -0.561635       -15.2829
  43   2.0000      -0.551709       -15.0128
  44   2.0000      -0.533276       -14.5112
  45   2.0000      -0.530658       -14.4399
  46   2.0000      -0.522905       -14.2290
  47   2.0000      -0.510085       -13.8801
  48   2.0000      -0.499769       -13.5994
  49   2.0000      -0.495475       -13.4826
  50   2.0000      -0.490245       -13.3402
  51   2.0000      -0.485739       -13.2176
  52   2.0000      -0.473110       -12.8740
  53   2.0000      -0.469630       -12.7793
  54   2.0000      -0.456088       -12.4108
  55   2.0000      -0.453589       -12.3428
  56   2.0000      -0.447490       -12.1768
  57   2.0000      -0.442344       -12.0368
  58   2.0000      -0.432935       -11.7808
  59   2.0000      -0.430727       -11.7207
  60   2.0000      -0.416657       -11.3378
  61   2.0000      -0.413012       -11.2386
  62   2.0000      -0.402701       -10.9581
  63   2.0000      -0.362080        -9.8527
  64   2.0000      -0.335365        -9.1258
  65   2.0000      -0.322231        -8.7684
  66   2.0000      -0.283648        -7.7185
  67   0.0000       0.021732         0.5914
  68   0.0000       0.088133         2.3982
  69   0.0000       0.094125         2.5613
  70   0.0000       0.113139         3.0787
  71   0.0000       0.137546         3.7428

MULLIKEN ATOMIC CHARGES
-----------------------
   0 S :    0.089070
   1 C :   -0.137074
   2 C :   -0.085794
   3 C :   -0.015896
   4 C :   -0.087009
   5 H :   -0.004845
   6 C :    0.049010
   7 H :    0.019411
   8 H :    0.034187
   9 C :   -0.074847
  10 H :    0.038608
  11 H :    0.007587
  12 C :   -0.000790
  13 H :    0.037596
  14 H :    0.016654
  15 H :    0.019934
  16 S :    0.098092
  17 C :   -0.094038
  18 C :   -0.020784
  19 C :   -0.128490
  20 C :   -0.108307
  21 H :    0.028452
  22 C :    0.032200
  23 H :    0.017467
  24 H :    0.066808
  25 C :   -0.055748
  26 H :    0.057377
  27 H :    0.039666
  28 C :   -0.051209
  29 H :    0.026160
  30 H :    0.018847
  31 H :    0.022537
  32 H :    0.072475
  33 H :    0.072694
Sum of atomic charges:    0.0000000

LOEWDIN ATOMIC CHARGES
----------------------
   0 S :    0.396585
   1 C :   -0.217131
   2 C :   -0.060561
   3 C :   -0.082841
   4 C :   -0.188843
   5 H :    0.032981
   6 C :   -0.027529
   7 H :    0.030175
   8 H :    0.034547
   9 C :   -0.041034
  10 H :    0.027699
  11 H :    0.017003
  12 C :   -0.054348
  13 H :    0.025421
  14 H :    0.026456
  15 H :    0.017239
  16 S :    0.413544
  17 C :   -0.190004
  18 C :   -0.071882
  19 C :   -0.058814
  20 C :   -0.204700
  21 H :    0.036479
  22 C :   -0.036390
  23 H :    0.029746
  24 H :    0.041110
  25 C :   -0.041249
  26 H :    0.036737
  27 H :    0.029520
  28 C :   -0.068565
  29 H :    0.028373
  30 H :    0.012261
  31 H :    0.023518
  32 H :    0.046065
  33 H :    0.038431

  Mayer bond orders larger than 0.100000
B(  0-S ,  1-C ) :   1.1201 B(  0-S ,  4-C ) :   1.1528 B(  1-C ,  2-C ) :   1.6128
B(  1-C , 32-H ) :   0.9602 B(  2-C ,  3-C ) :   1.2271 B(  2-C ,  6-C ) :   1.0403
B(  3-C ,  4-C ) :   1.5888 B(  3-C ,  5-H ) :   0.9751 B(  4-C , 20-C ) :   1.0541
B(  6-C ,  7-H ) :   0.9408 B(  6-C ,  8-H ) :   0.9426 B(  6-C ,  9-C ) :   1.0641
B(  9-C , 10-H ) :   0.9565 B(  9-C , 11-H ) :   0.9546 B(  9-C , 12-C ) :   1.0735
B( 12-C , 13-H ) :   0.9749 B( 12-C , 14-H ) :   0.9717 B( 12-C , 15-H ) :   0.9777
B( 16-S , 17-C ) :   1.1515 B( 16-S , 20-C ) :   1.1455 B( 17-C , 18-C ) :   1.6237
B( 17-C , 33-H ) :   0.9562 B( 18-C , 19-C ) :   1.2613 B( 18-C , 21-H ) :   0.9790
B( 19-C , 20-C ) :   1.5827 B( 19-C , 22-C ) :   1.0277 B( 22-C , 23-H ) :   0.9295
B( 22-C , 24-H ) :   0.9472 B( 22-C , 25-C ) :   1.0281 B( 25-C , 26-H ) :   0.9676
B( 25-C , 27-H ) :   0.9604 B( 25-C , 28-C ) :   1.0743 B( 28-C , 29-H ) :   0.9680
B( 28-C , 30-H ) :   0.9774 B( 28-C , 31-H ) :   0.9720

Dispersion correction           -0.014741031
FINAL SINGLE POINT ENERGY     -1339.869415160293

DIPOLE MOMENT
-------------
                                X             Y             Z
Electronic contribution:    -26.20391      14.72140       3.27273
Nuclear contribution   :     26.82085     -15.15569      -2.99115
                        -----------------------------------------
Total Dipole Moment    :      0.61694      -0.43429       0.28157
                        -----------------------------------------
Magnitude (a.u.)       :      0.80530
Magnitude (Debye)      :      2.04691

Rotational constants in cm-1:     0.018823     0.009403     0.006883
Rotational constants in MHz :   564.297090   281.896720   206.357733

                             ****ORCA TERMINATED NORMALLY****
TOTAL RUN TIME: 0 days 0 hours 0 minutes 31 seconds 762 msec
