                         Program Version 4.2.1 -  RELEASE  -
|  1> ! wB97X-D3 SP def2-SVP
|  2> %pal
|  3> nprocs 16
|  4> end
|  5>
|  6> * xyz 0 1
|  7> S 	 -48.5937 	 9.62474 	 85.5791
|  8> C 	 -48.4654 	 10.84 	 86.8112
|  9> C 	 -49.3346 	 10.538 	 87.8709
| 10> C 	 -50.1999 	 9.50496 	 87.5688
| 11> C 	 -50.0567 	 8.95451 	 86.3309
| 12> H 	 -50.9538 	 9.21229 	 88.2404
| 13> C 	 -49.4657 	 11.2727 	 89.1509
| 14> H 	 -50.5027 	 11.6644 	 89.0526
| 15> H 	 -48.8299 	 12.1417 	 89.2417
| 16> C 	 -49.3519 	 10.4479 	 90.4553
| 17> H 	 -49.4652 	 11.0568 	 91.3594
| 18> H 	 -50.1394 	 9.64763 	 90.3641
| 19> C 	 -48.0128 	 9.75011 	 90.7162
| 20> H 	 -47.7871 	 9.09918 	 89.9201
| 21> H 	 -47.1835 	 10.5385 	 90.7601
| 22> H 	 -48.0244 	 9.0708 	 91.5931
| 23> S 	 -50.2869 	 7.19977 	 84.2078
| 24> C 	 -51.8056 	 6.33695 	 83.8993
| 25> C 	 -52.8494 	 6.82589 	 84.7129
| 26> C 	 -52.4223 	 7.88214 	 85.5805
| 27> C 	 -51.0359 	 8.12857 	 85.6028
| 28> H 	 -53.8956 	 6.48789 	 84.5964
| 29> C 	 -53.4365 	 8.56676 	 86.4852
| 30> H 	 -53.2688 	 9.62275 	 86.246
| 31> H 	 -53.0337 	 8.49158 	 87.4444
| 32> C 	 -54.9176 	 8.15599 	 86.4492
| 33> H 	 -54.9654 	 7.11502 	 86.4806
| 34> H 	 -55.2952 	 8.38466 	 85.4232
| 35> C 	 -55.673 	 8.80469 	 87.589
| 36> H 	 -56.6809 	 8.4394 	 87.7493
| 37> H 	 -55.5969 	 9.83451 	 87.5073
| 38> H 	 -55.2041 	 8.54335 	 88.5332
| 39> H 	 -47.8717 	 11.7965 	 86.6575
| 40> H 	 -51.9091 	 5.46373 	 83.2209
| 41> *
| 42>
| 43>                          ****END OF INPUT****

CARTESIAN COORDINATES (ANGSTROEM)
---------------------------------
  S    -48.593700    9.624740   85.579100
  C    -48.465400   10.840000   86.811200
  C    -49.334600   10.538000   87.870900
  C    -50.199900    9.504960   87.568800
  C    -50.056700    8.954510   86.330900
  H    -50.953800    9.212290   88.240400
  C    -49.465700   11.272700   89.150900
  H    -50.502700   11.664400   89.052600
  H    -48.829900   12.141700   89.241700
  C    -49.351900   10.447900   90.455300
  H    -49.465200   11.056800   91.359400
  H    -50.139400    9.647630   90.364100
  C    -48.012800    9.750110   90.716200
  H    -47.787100    9.099180   89.920100
  H    -47.183500   10.538500   90.760100
  H    -48.024400    9.070800   91.593100
  S    -50.286900    7.199770   84.207800
  C    -51.805600    6.336950   83.899300
  C    -52.849400    6.825890   84.712900
  C    -52.422300    7.882140   85.580500
  C    -51.035900    8.128570   85.602800
  H    -53.895600    6.487890   84.596400
  C    -53.436500    8.566760   86.485200
  H    -53.268800    9.622750   86.246000
  H    -53.033700    8.491580   87.444400
  C    -54.917600    8.155990   86.449200
  H    -54.965400    7.115020   86.480600
  H    -55.295200    8.384660   85.423200
  C    -55.673000    8.804690   87.589000
  H    -56.680900    8.439400   87.749300
  H    -55.596900    9.834510   87.507300
  H    -55.204100    8.543350   88.533200
  H    -47.871700   11.796500   86.657500
  H    -51.909100    5.463730   83.220900

 Total Charge           Charge          ....    0
 Multiplicity           Mult            ....    1
 Number of Electrons    NEL             ....  134
 Basis Dimension        Dim             ....  322

ORBITAL ENERGIES
----------------

  NO   OCC          E(Eh)            E(eV)
   0   2.0000     -88.966140     -2420.8917
   1   2.0000     -88.963343     -2420.8156
   2   2.0000     -10.337709      -281.3034
   3   2.0000     -10.335101      -281.2324
   4   2.0000     -10.327101      -281.0147
   5   2.0000     -10.320513      -280.8354
   6   2.0000     -10.311729      -280.5964
   7   2.0000     -10.300597      -280.2935
   8   2.0000     -10.298932      -280.2482
   9   2.0000     -10.293944      -280.1125
  10   2.0000     -10.293357      -280.0965
  11   2.0000     -10.289578      -279.9937
  12   2.0000     -10.288277      -279.9582
  13   2.0000     -10.286191      -279.9015
  14   2.0000     -10.278143      -279.6825
  15   2.0000     -10.276229      -279.6304
  16   2.0000      -8.080947      -219.8938
  17   2.0000      -8.076672      -219.7774
  18   2.0000      -6.039523      -164.3438
  19   2.0000      -6.035510      -164.2346
  20   2.0000      -6.035331      -164.2297
  21   2.0000      -6.031560      -164.1271
  22   2.0000      -6.031414      -164.1231
  23   2.0000      -6.027338      -164.0122
  24   2.0000      -1.006375       -27.3848
  25   2.0000      -0.977183       -26.5905
  26   2.0000      -0.915970       -24.9248
  27   2.0000      -0.911796       -24.8112
  28   2.0000      -0.865273       -23.5453
  29   2.0000      -0.856637       -23.3103
  30   2.0000      -0.848459       -23.0877
  31   2.0000      -0.813890       -22.1471
  32   2.0000      -0.782754       -21.2998
  33   2.0000      -0.771016       -20.9804
  34   2.0000      -0.720167       -19.5967
  35   2.0000      -0.701220       -19.0812
  36   2.0000      -0.691372       -18.8132
  37   2.0000      -0.653670       -17.7873
  38   2.0000      -0.638258       -17.3679
  39   2.0000      -0.632209       -17.2033
  40   2.0000      -0.594656       -16.1814
  41   2.0000      -0.574796       -15.6410
  42   2.0000      -0.563648       -15.3376
  43   2.0000      -0.550802       -14.9881
  44   2.0000      -0.546232       -14.8637
  45   2.0000      -0.533973       -14.5301
  46   2.0000      -0.520623       -14.1669
  47   2.0000      -0.508238       -13.8299
  48   2.0000      -0.501972       -13.6593
  49   2.0000      -0.500249       -13.6125
  50   2.0000      -0.489454       -13.3187
  51   2.0000      -0.483307       -13.1515
  52   2.0000      -0.475009       -12.9257
  53   2.0000      -0.467390       -12.7183
  54   2.0000      -0.454661       -12.3720
  55   2.0000      -0.454162       -12.3584
  56   2.0000      -0.444069       -12.0837
  57   2.0000      -0.441207       -12.0058
  58   2.0000      -0.434261       -11.8168
  59   2.0000      -0.428851       -11.6696
  60   2.0000      -0.422445       -11.4953
  61   2.0000      -0.413263       -11.2455
  62   2.0000      -0.408176       -11.1070
  63   2.0000      -0.356684        -9.7059
  64   2.0000      -0.335316        -9.1244
  65   2.0000      -0.326154        -8.8751
  66   2.0000      -0.274670        -7.4741
  67   0.0000       0.014117         0.3841
  68   0.0000       0.065201         1.7742
  69   0.0000       0.090839         2.4719
  70   0.0000       0.119652         3.2559
  71   0.0000       0.135549         3.6885

MULLIKEN ATOMIC CHARGES
-----------------------
   0 S :    0.104342
   1 C :   -0.162170
   2 C :   -0.063517
   3 C :   -0.023660
   4 C :   -0.068462
   5 H :   -0.007488
   6 C :    0.066853
   7 H :    0.041502
   8 H :    0.013071
   9 C :   -0.096213
  10 H :    0.040849
  11 H :    0.030007
  12 C :   -0.061605
  13 H :    0.027270
  14 H :    0.037053
  15 H :    0.042156
  16 S :    0.063122
  17 C :   -0.085536
  18 C :   -0.062818
  19 C :   -0.053507
  20 C :   -0.139760
  21 H :    0.037439
  22 C :    0.032647
  23 H :    0.036569
  24 H :    0.012968
  25 C :   -0.055142
  26 H :    0.017718
  27 H :    0.035021
  28 C :    0.014310
  29 H :    0.033234
  30 H :    0.020845
  31 H :    0.016141
  32 H :    0.082719
  33 H :    0.074042
Sum of atomic charges:   -0.0000000

LOEWDIN ATOMIC CHARGES
----------------------
   0 S :    0.395870
   1 C :   -0.211830
   2 C :   -0.067647
   3 C :   -0.067724
   4 C :   -0.177223
   5 H :    0.022786
   6 C :   -0.035112
   7 H :    0.041515
   8 H :    0.025123
   9 C :   -0.043606
  10 H :    0.028365
  11 H :    0.024087
  12 C :   -0.070293
  13 H :    0.017018
  14 H :    0.031242
  15 H :    0.031334
  16 S :    0.356095
  17 C :   -0.176180
  18 C :   -0.084076
  19 C :   -0.050010
  20 C :   -0.167230
  21 H :    0.038440
  22 C :   -0.032998
  23 H :    0.039415
  24 H :    0.019809
  25 C :   -0.036815
  26 H :    0.013998
  27 H :    0.029050
  28 C :   -0.052743
  29 H :    0.029135
  30 H :    0.018756
  31 H :    0.027324
  32 H :    0.046155
  33 H :    0.037971

  Mayer bond orders larger than 0.100000
B(  0-S ,  1-C ) :   1.1453 B(  0-S ,  4-C ) :   1.1392 B(  1-C ,  2-C ) :   1.5703
B(  1-C , 32-H ) :   0.9599 B(  2-C ,  3-C ) :   1.2628 B(  2-C ,  6-C ) :   1.0236
B(  3-C ,  4-C ) :   1.5493 B(  3-C ,  5-H ) :   1.0113 B(  4-C , 20-C ) :   1.0781
B(  6-C ,  7-H ) :   0.9362 B(  6-C ,  8-H ) :   0.9436 B(  6-C ,  9-C ) :   1.0695
B(  9-C , 10-H ) :   0.9587 B(  9-C , 11-H ) :   0.9532 B(  9-C , 12-C ) :   1.0741
B( 12-C , 13-H ) :   0.9748 B( 12-C , 14-H ) :   0.9732 B( 12-C , 15-H ) :   0.9734
B( 16-S , 17-C ) :   1.1616 B( 16-S , 20-C ) :   1.1022 B( 17-C , 18-C ) :   1.5908
B( 17-C , 20-C ) :   0.1080 B( 17-C , 33-H ) :   0.9591 B( 18-C , 19-C ) :   1.2584
B( 18-C , 21-H ) :   0.9759 B( 19-C , 20-C ) :   1.5885 B( 19-C , 22-C ) :   1.0054
B( 22-C , 23-H ) :   0.9239 B( 22-C , 24-H ) :   0.9388 B( 22-C , 25-C ) :   1.0777
B( 25-C , 26-H ) :   0.9455 B( 25-C , 27-H ) :   0.9488 B( 25-C , 28-C ) :   1.0860
B( 28-C , 29-H ) :   0.9705 B( 28-C , 30-H ) :   0.9750 B( 28-C , 31-H ) :   0.9694

Dispersion correction           -0.013629083
FINAL SINGLE POINT ENERGY     -1339.855994124762

DIPOLE MOMENT
-------------
                                X             Y             Z
Electronic contribution:     14.69172      -6.33876     -23.68932
Nuclear contribution   :    -15.34160       6.57262      24.21971
                        -----------------------------------------
Total Dipole Moment    :     -0.64988       0.23386       0.53039
                        -----------------------------------------
Magnitude (a.u.)       :      0.87083
Magnitude (Debye)      :      2.21347

Rotational constants in cm-1:     0.016688     0.008902     0.006369
Rotational constants in MHz :   500.300742   266.888915   190.930703

                             ****ORCA TERMINATED NORMALLY****
TOTAL RUN TIME: 0 days 0 hours 0 minutes 29 seconds 434 msec
