                         Program Version 4.2.1 -  RELEASE  -
|  1> ! wB97X-D3 SP def2-SVP
|  2> %pal
|  3> nprocs 16
|  4> end
|  5>
|  6> * xyz 0 1
|  7> S 	 56.5733 	 17.1292 	 61.5861
|  8> C 	 58.2015 	 17.3357 	 62.1232
|  9> C 	 59.0469 	 16.4202 	 61.5005
| 10> C 	 58.3672 	 15.5807 	 60.553
| 11> C 	 56.9825 	 15.747 	 60.4784
| 12> H 	 58.7897 	 14.7895 	 60.0405
| 13> C 	 60.5164 	 16.456 	 61.7486
| 14> H 	 60.7826 	 17.5326 	 61.8548
| 15> H 	 61.0688 	 15.9721 	 60.9502
| 16> C 	 60.9943 	 15.651 	 63.018
| 17> H 	 62.0559 	 15.7678 	 63.2789
| 18> H 	 60.457 	 16.0423 	 63.8715
| 19> C 	 60.7779 	 14.1463 	 62.8855
| 20> H 	 59.836 	 13.7446 	 62.498
| 21> H 	 61.5822 	 13.9489 	 62.2132
| 22> H 	 60.9751 	 13.5102 	 63.732
| 23> S 	 54.392 	 15.0585 	 60.7046
| 24> C 	 53.6902 	 13.907 	 59.6019
| 25> C 	 54.5822 	 13.4527 	 58.6694
| 26> C 	 55.8596 	 13.9929 	 58.8985
| 27> C 	 55.9204 	 14.9605 	 59.9094
| 28> H 	 54.2143 	 12.6602 	 58.0492
| 29> C 	 57.0494 	 13.4924 	 58.0192
| 30> H 	 56.8308 	 12.4091 	 57.9045
| 31> H 	 57.9867 	 13.536 	 58.6599
| 32> C 	 57.4345 	 14.2345 	 56.7031
| 33> H 	 56.7324 	 14.067 	 55.8392
| 34> H 	 58.425 	 13.6998 	 56.3734
| 35> C 	 57.6892 	 15.7497 	 56.8628
| 36> H 	 58.1082 	 15.9688 	 55.9102
| 37> H 	 58.4813 	 15.9382 	 57.5498
| 38> H 	 56.8325 	 16.3084 	 57.1277
| 39> H 	 58.6318 	 18.1107 	 62.7891
| 40> H 	 52.664 	 13.5611 	 59.7715
| 41> *
| 42>
| 43>                          ****END OF INPUT****

CARTESIAN COORDINATES (ANGSTROEM)
---------------------------------
  S     56.573300   17.129200   61.586100
  C     58.201500   17.335700   62.123200
  C     59.046900   16.420200   61.500500
  C     58.367200   15.580700   60.553000
  C     56.982500   15.747000   60.478400
  H     58.789700   14.789500   60.040500
  C     60.516400   16.456000   61.748600
  H     60.782600   17.532600   61.854800
  H     61.068800   15.972100   60.950200
  C     60.994300   15.651000   63.018000
  H     62.055900   15.767800   63.278900
  H     60.457000   16.042300   63.871500
  C     60.777900   14.146300   62.885500
  H     59.836000   13.744600   62.498000
  H     61.582200   13.948900   62.213200
  H     60.975100   13.510200   63.732000
  S     54.392000   15.058500   60.704600
  C     53.690200   13.907000   59.601900
  C     54.582200   13.452700   58.669400
  C     55.859600   13.992900   58.898500
  C     55.920400   14.960500   59.909400
  H     54.214300   12.660200   58.049200
  C     57.049400   13.492400   58.019200
  H     56.830800   12.409100   57.904500
  H     57.986700   13.536000   58.659900
  C     57.434500   14.234500   56.703100
  H     56.732400   14.067000   55.839200
  H     58.425000   13.699800   56.373400
  C     57.689200   15.749700   56.862800
  H     58.108200   15.968800   55.910200
  H     58.481300   15.938200   57.549800
  H     56.832500   16.308400   57.127700
  H     58.631800   18.110700   62.789100
  H     52.664000   13.561100   59.771500

 Total Charge           Charge          ....    0
 Multiplicity           Mult            ....    1
 Number of Electrons    NEL             ....  134
 Basis Dimension        Dim             ....  322

ORBITAL ENERGIES
----------------

  NO   OCC          E(Eh)            E(eV)
   0   2.0000     -88.966564     -2420.9033
   1   2.0000     -88.966011     -2420.8882
   2   2.0000     -10.338677      -281.3297
   3   2.0000     -10.329877      -281.0902
   4   2.0000     -10.317110      -280.7428
   5   2.0000     -10.316466      -280.7253
   6   2.0000     -10.307694      -280.4866
   7   2.0000     -10.301869      -280.3281
   8   2.0000     -10.301342      -280.3138
   9   2.0000     -10.300454      -280.2896
  10   2.0000     -10.296219      -280.1743
  11   2.0000     -10.293987      -280.1136
  12   2.0000     -10.293133      -280.0904
  13   2.0000     -10.288270      -279.9581
  14   2.0000     -10.271074      -279.4901
  15   2.0000     -10.266078      -279.3542
  16   2.0000      -8.081641      -219.9126
  17   2.0000      -8.080487      -219.8812
  18   2.0000      -6.040031      -164.3576
  19   2.0000      -6.039106      -164.3324
  20   2.0000      -6.035997      -164.2478
  21   2.0000      -6.035040      -164.2218
  22   2.0000      -6.032473      -164.1519
  23   2.0000      -6.031227      -164.1180
  24   2.0000      -1.010855       -27.5068
  25   2.0000      -0.984117       -26.7792
  26   2.0000      -0.910949       -24.7882
  27   2.0000      -0.899091       -24.4655
  28   2.0000      -0.875617       -23.8267
  29   2.0000      -0.852047       -23.1854
  30   2.0000      -0.844685       -22.9850
  31   2.0000      -0.820455       -22.3257
  32   2.0000      -0.783297       -21.3146
  33   2.0000      -0.769638       -20.9429
  34   2.0000      -0.709689       -19.3116
  35   2.0000      -0.701077       -19.0773
  36   2.0000      -0.686618       -18.6838
  37   2.0000      -0.665992       -18.1226
  38   2.0000      -0.637875       -17.3574
  39   2.0000      -0.620629       -16.8882
  40   2.0000      -0.589791       -16.0490
  41   2.0000      -0.579037       -15.7564
  42   2.0000      -0.553954       -15.0738
  43   2.0000      -0.549565       -14.9544
  44   2.0000      -0.546101       -14.8602
  45   2.0000      -0.538227       -14.6459
  46   2.0000      -0.515624       -14.0309
  47   2.0000      -0.508895       -13.8477
  48   2.0000      -0.505374       -13.7519
  49   2.0000      -0.499586       -13.5944
  50   2.0000      -0.496167       -13.5014
  51   2.0000      -0.472832       -12.8664
  52   2.0000      -0.469999       -12.7893
  53   2.0000      -0.466725       -12.7002
  54   2.0000      -0.460603       -12.5336
  55   2.0000      -0.449284       -12.2256
  56   2.0000      -0.439545       -11.9606
  57   2.0000      -0.436797       -11.8858
  58   2.0000      -0.429513       -11.6876
  59   2.0000      -0.426346       -11.6015
  60   2.0000      -0.414425       -11.2771
  61   2.0000      -0.409659       -11.1474
  62   2.0000      -0.406535       -11.0624
  63   2.0000      -0.366482        -9.9725
  64   2.0000      -0.338170        -9.2021
  65   2.0000      -0.326471        -8.8837
  66   2.0000      -0.279132        -7.5956
  67   0.0000       0.015986         0.4350
  68   0.0000       0.078234         2.1289
  69   0.0000       0.100946         2.7469
  70   0.0000       0.111245         3.0271
  71   0.0000       0.137316         3.7365

MULLIKEN ATOMIC CHARGES
-----------------------
   0 S :    0.090607
   1 C :   -0.108572
   2 C :   -0.110240
   3 C :    0.064534
   4 C :   -0.126087
   5 H :   -0.033418
   6 C :    0.048564
   7 H :    0.041906
   8 H :    0.017500
   9 C :   -0.050919
  10 H :    0.032703
  11 H :    0.014608
  12 C :   -0.063386
  13 H :    0.043027
  14 H :    0.012475
  15 H :    0.029794
  16 S :    0.099275
  17 C :   -0.112008
  18 C :   -0.014401
  19 C :   -0.060614
  20 C :   -0.105418
  21 H :    0.020283
  22 C :    0.029967
  23 H :    0.033186
  24 H :    0.028407
  25 C :   -0.115895
  26 H :    0.038303
  27 H :    0.038921
  28 C :   -0.000100
  29 H :    0.022083
  30 H :    0.017733
  31 H :    0.051103
  32 H :    0.061155
  33 H :    0.064925
Sum of atomic charges:    0.0000000

LOEWDIN ATOMIC CHARGES
----------------------
   0 S :    0.384894
   1 C :   -0.207630
   2 C :   -0.066929
   3 C :   -0.058499
   4 C :   -0.162044
   5 H :    0.011484
   6 C :   -0.030453
   7 H :    0.038238
   8 H :    0.026776
   9 C :   -0.036031
  10 H :    0.026659
  11 H :    0.012919
  12 C :   -0.072533
  13 H :    0.026733
  14 H :    0.021998
  15 H :    0.026100
  16 S :    0.421521
  17 C :   -0.182431
  18 C :   -0.072243
  19 C :   -0.061215
  20 C :   -0.207732
  21 H :    0.036507
  22 C :   -0.043293
  23 H :    0.034080
  24 H :    0.031504
  25 C :   -0.044477
  26 H :    0.024177
  27 H :    0.033487
  28 C :   -0.055768
  29 H :    0.026825
  30 H :    0.021173
  31 H :    0.025455
  32 H :    0.040422
  33 H :    0.030326

  Mayer bond orders larger than 0.100000
B(  0-S ,  1-C ) :   1.1408 B(  0-S ,  4-C ) :   1.1321 B(  1-C ,  2-C ) :   1.5978
B(  1-C , 32-H ) :   0.9595 B(  2-C ,  3-C ) :   1.2577 B(  2-C ,  6-C ) :   1.0315
B(  3-C ,  4-C ) :   1.5499 B(  3-C ,  5-H ) :   0.9952 B(  4-C , 20-C ) :   1.1008
B(  6-C ,  7-H ) :   0.9431 B(  6-C ,  8-H ) :   0.9445 B(  6-C ,  9-C ) :   1.0593
B(  9-C , 10-H ) :   0.9619 B(  9-C , 11-H ) :   0.9584 B(  9-C , 12-C ) :   1.0561
B( 12-C , 13-H ) :   0.9779 B( 12-C , 14-H ) :   0.9787 B( 12-C , 15-H ) :   0.9738
B( 16-S , 17-C ) :   1.1695 B( 16-S , 20-C ) :   1.1472 B( 17-C , 18-C ) :   1.5879
B( 17-C , 20-C ) :   0.1000 B( 17-C , 33-H ) :   0.9653 B( 18-C , 19-C ) :   1.2564
B( 18-C , 21-H ) :   0.9997 B( 19-C , 20-C ) :   1.5522 B( 19-C , 22-C ) :   1.0242
B( 22-C , 23-H ) :   0.9358 B( 22-C , 24-H ) :   0.9425 B( 22-C , 25-C ) :   1.0584
B( 25-C , 26-H ) :   0.9588 B( 25-C , 27-H ) :   0.9548 B( 25-C , 28-C ) :   1.0689
B( 28-C , 29-H ) :   0.9694 B( 28-C , 30-H ) :   0.9734 B( 28-C , 31-H ) :   0.9751

Dispersion correction           -0.015041291
FINAL SINGLE POINT ENERGY     -1339.867752696285

DIPOLE MOMENT
-------------
                                X             Y             Z
Electronic contribution:    -23.60842       7.39023       6.98122
Nuclear contribution   :     24.03863      -7.80381      -7.16687
                        -----------------------------------------
Total Dipole Moment    :      0.43020      -0.41358      -0.18565
                        -----------------------------------------
Magnitude (a.u.)       :      0.62497
Magnitude (Debye)      :      1.58855

Rotational constants in cm-1:     0.019152     0.009069     0.007554
Rotational constants in MHz :   574.158048   271.882758   226.470688

                             ****ORCA TERMINATED NORMALLY****
TOTAL RUN TIME: 0 days 0 hours 0 minutes 30 seconds 869 msec
