                         Program Version 4.2.1 -  RELEASE  -
|  1> ! wB97X-D3 SP def2-SVP
|  2> %pal
|  3> nprocs 16
|  4> end
|  5>
|  6> * xyz 0 1
|  7> S 	 35.9667 	 -8.00541 	 70.0953
|  8> C 	 36.0088 	 -6.3904 	 70.8197
|  9> C 	 37.1056 	 -5.67376 	 70.4781
| 10> C 	 37.9379 	 -6.47363 	 69.5986
| 11> C 	 37.4104 	 -7.66328 	 69.1706
| 12> H 	 38.9 	 -6.14696 	 69.1936
| 13> C 	 37.5713 	 -4.33522 	 71.0589
| 14> H 	 37.4306 	 -4.28026 	 72.1998
| 15> H 	 36.7678 	 -3.66636 	 70.7186
| 16> C 	 38.8633 	 -3.66733 	 70.5239
| 17> H 	 39.7094 	 -4.39474 	 70.6955
| 18> H 	 38.5594 	 -3.34765 	 69.4995
| 19> C 	 39.1032 	 -2.37794 	 71.2798
| 20> H 	 40.0298 	 -1.9854 	 71.0348
| 21> H 	 38.2956 	 -1.68202 	 71.0898
| 22> H 	 39.0871 	 -2.63438 	 72.3732
| 23> S 	 37.6489 	 -10.2906 	 68.6949
| 24> C 	 38.6463 	 -10.8103 	 67.377
| 25> C 	 39.1677 	 -9.75244 	 66.667
| 26> C 	 38.7603 	 -8.5066 	 67.1302
| 27> C 	 37.9761 	 -8.65759 	 68.2926
| 28> H 	 39.7399 	 -9.92401 	 65.763
| 29> C 	 39.2258 	 -7.24393 	 66.3567
| 30> H 	 40.3367 	 -7.14518 	 66.2597
| 31> H 	 38.8564 	 -6.30668 	 66.8887
| 32> C 	 38.5508 	 -7.14785 	 64.9599
| 33> H 	 37.4584 	 -7.23411 	 65.0983
| 34> H 	 38.8286 	 -7.89605 	 64.278
| 35> C 	 38.9416 	 -5.88667 	 64.2437
| 36> H 	 38.6332 	 -5.70482 	 63.2022
| 37> H 	 40 	 -5.73999 	 64.2175
| 38> H 	 38.5647 	 -5.02406 	 64.8432
| 39> H 	 35.3454 	 -6.02574 	 71.5993
| 40> H 	 38.8685 	 -11.8613 	 67.1495
| 41> *
| 42>
| 43>                          ****END OF INPUT****

CARTESIAN COORDINATES (ANGSTROEM)
---------------------------------
  S     35.966700   -8.005410   70.095300
  C     36.008800   -6.390400   70.819700
  C     37.105600   -5.673760   70.478100
  C     37.937900   -6.473630   69.598600
  C     37.410400   -7.663280   69.170600
  H     38.900000   -6.146960   69.193600
  C     37.571300   -4.335220   71.058900
  H     37.430600   -4.280260   72.199800
  H     36.767800   -3.666360   70.718600
  C     38.863300   -3.667330   70.523900
  H     39.709400   -4.394740   70.695500
  H     38.559400   -3.347650   69.499500
  C     39.103200   -2.377940   71.279800
  H     40.029800   -1.985400   71.034800
  H     38.295600   -1.682020   71.089800
  H     39.087100   -2.634380   72.373200
  S     37.648900  -10.290600   68.694900
  C     38.646300  -10.810300   67.377000
  C     39.167700   -9.752440   66.667000
  C     38.760300   -8.506600   67.130200
  C     37.976100   -8.657590   68.292600
  H     39.739900   -9.924010   65.763000
  C     39.225800   -7.243930   66.356700
  H     40.336700   -7.145180   66.259700
  H     38.856400   -6.306680   66.888700
  C     38.550800   -7.147850   64.959900
  H     37.458400   -7.234110   65.098300
  H     38.828600   -7.896050   64.278000
  C     38.941600   -5.886670   64.243700
  H     38.633200   -5.704820   63.202200
  H     40.000000   -5.739990   64.217500
  H     38.564700   -5.024060   64.843200
  H     35.345400   -6.025740   71.599300
  H     38.868500  -11.861300   67.149500

 Total Charge           Charge          ....    0
 Multiplicity           Mult            ....    1
 Number of Electrons    NEL             ....  134
 Basis Dimension        Dim             ....  322

ORBITAL ENERGIES
----------------

  NO   OCC          E(Eh)            E(eV)
   0   2.0000     -88.969753     -2420.9901
   1   2.0000     -88.962424     -2420.7906
   2   2.0000     -10.326578      -281.0005
   3   2.0000     -10.324263      -280.9375
   4   2.0000     -10.314859      -280.6816
   5   2.0000     -10.309261      -280.5292
   6   2.0000     -10.305832      -280.4359
   7   2.0000     -10.304390      -280.3967
   8   2.0000     -10.300856      -280.3005
   9   2.0000     -10.300705      -280.2964
  10   2.0000     -10.297996      -280.2227
  11   2.0000     -10.289698      -279.9969
  12   2.0000     -10.288746      -279.9710
  13   2.0000     -10.282688      -279.8062
  14   2.0000     -10.277568      -279.6669
  15   2.0000     -10.275860      -279.6204
  16   2.0000      -8.085460      -220.0166
  17   2.0000      -8.077103      -219.7891
  18   2.0000      -6.043790      -164.4599
  19   2.0000      -6.039865      -164.3531
  20   2.0000      -6.036327      -164.2568
  21   2.0000      -6.035763      -164.2415
  22   2.0000      -6.031821      -164.1342
  23   2.0000      -6.027518      -164.0171
  24   2.0000      -1.012973       -27.5644
  25   2.0000      -0.985557       -26.8184
  26   2.0000      -0.915133       -24.9020
  27   2.0000      -0.909908       -24.7598
  28   2.0000      -0.876003       -23.8373
  29   2.0000      -0.857161       -23.3245
  30   2.0000      -0.842810       -22.9340
  31   2.0000      -0.811683       -22.0870
  32   2.0000      -0.780802       -21.2467
  33   2.0000      -0.771352       -20.9895
  34   2.0000      -0.708757       -19.2862
  35   2.0000      -0.697087       -18.9687
  36   2.0000      -0.687051       -18.6956
  37   2.0000      -0.661585       -18.0027
  38   2.0000      -0.635335       -17.2883
  39   2.0000      -0.617568       -16.8049
  40   2.0000      -0.600107       -16.3297
  41   2.0000      -0.581089       -15.8122
  42   2.0000      -0.568006       -15.4562
  43   2.0000      -0.562499       -15.3064
  44   2.0000      -0.528343       -14.3769
  45   2.0000      -0.520315       -14.1585
  46   2.0000      -0.516528       -14.0554
  47   2.0000      -0.505444       -13.7538
  48   2.0000      -0.501359       -13.6427
  49   2.0000      -0.496230       -13.5031
  50   2.0000      -0.494824       -13.4649
  51   2.0000      -0.482788       -13.1373
  52   2.0000      -0.467482       -12.7208
  53   2.0000      -0.462157       -12.5759
  54   2.0000      -0.458077       -12.4649
  55   2.0000      -0.453766       -12.3476
  56   2.0000      -0.446735       -12.1563
  57   2.0000      -0.437836       -11.9141
  58   2.0000      -0.429914       -11.6986
  59   2.0000      -0.429138       -11.6774
  60   2.0000      -0.421108       -11.4589
  61   2.0000      -0.418145       -11.3783
  62   2.0000      -0.414124       -11.2689
  63   2.0000      -0.355565        -9.6754
  64   2.0000      -0.338497        -9.2110
  65   2.0000      -0.325734        -8.8637
  66   2.0000      -0.282105        -7.6765
  67   0.0000       0.025005         0.6804
  68   0.0000       0.080310         2.1854
  69   0.0000       0.101153         2.7525
  70   0.0000       0.123208         3.3527
  71   0.0000       0.136406         3.7118

MULLIKEN ATOMIC CHARGES
-----------------------
   0 S :    0.086411
   1 C :   -0.130809
   2 C :   -0.042538
   3 C :   -0.019289
   4 C :   -0.114053
   5 H :    0.016536
   6 C :   -0.015905
   7 H :    0.043772
   8 H :    0.029395
   9 C :   -0.104681
  10 H :    0.059695
  11 H :    0.046039
  12 C :   -0.000573
  13 H :    0.023508
  14 H :    0.028200
  15 H :    0.028842
  16 S :    0.120532
  17 C :   -0.098628
  18 C :   -0.032568
  19 C :   -0.012152
  20 C :   -0.152495
  21 H :    0.018517
  22 C :    0.014496
  23 H :    0.046535
  24 H :    0.032013
  25 C :   -0.060556
  26 H :    0.044712
  27 H :    0.018293
  28 C :   -0.048713
  29 H :    0.039426
  30 H :    0.014087
  31 H :    0.021351
  32 H :    0.040464
  33 H :    0.060136
Sum of atomic charges:   -0.0000000

LOEWDIN ATOMIC CHARGES
----------------------
   0 S :    0.381853
   1 C :   -0.192434
   2 C :   -0.064554
   3 C :   -0.071487
   4 C :   -0.190101
   5 H :    0.027233
   6 C :   -0.048409
   7 H :    0.036425
   8 H :    0.035743
   9 C :   -0.046195
  10 H :    0.032872
  11 H :    0.035192
  12 C :   -0.055446
  13 H :    0.016282
  14 H :    0.025142
  15 H :    0.029775
  16 S :    0.435003
  17 C :   -0.195906
  18 C :   -0.068038
  19 C :   -0.058339
  20 C :   -0.205904
  21 H :    0.032887
  22 C :   -0.031098
  23 H :    0.035072
  24 H :    0.035021
  25 C :   -0.041220
  26 H :    0.032415
  27 H :    0.014355
  28 C :   -0.070810
  29 H :    0.029178
  30 H :    0.019085
  31 H :    0.025585
  32 H :    0.028750
  33 H :    0.032074

  Mayer bond orders larger than 0.100000
B(  0-S ,  1-C ) :   1.1165 B(  0-S ,  4-C ) :   1.1266 B(  1-C ,  2-C ) :   1.6589
B(  1-C , 32-H ) :   0.9681 B(  2-C ,  3-C ) :   1.2293 B(  2-C ,  6-C ) :   0.9874
B(  3-C ,  4-C ) :   1.5959 B(  3-C ,  5-H ) :   0.9819 B(  4-C , 20-C ) :   1.0678
B(  6-C ,  7-H ) :   0.9459 B(  6-C ,  8-H ) :   0.9357 B(  6-C ,  9-C ) :   1.0707
B(  9-C , 10-H ) :   0.9477 B(  9-C , 11-H ) :   0.9518 B(  9-C , 12-C ) :   1.0897
B( 12-C , 13-H ) :   0.9707 B( 12-C , 14-H ) :   0.9735 B( 12-C , 15-H ) :   0.9729
B( 16-S , 17-C ) :   1.1587 B( 16-S , 20-C ) :   1.1664 B( 17-C , 18-C ) :   1.5872
B( 17-C , 20-C ) :   0.1042 B( 17-C , 33-H ) :   0.9666 B( 18-C , 19-C ) :   1.2753
B( 18-C , 21-H ) :   0.9896 B( 19-C , 20-C ) :   1.5486 B( 19-C , 22-C ) :   1.0347
B( 22-C , 23-H ) :   0.9429 B( 22-C , 24-H ) :   0.9359 B( 22-C , 25-C ) :   1.0529
B( 25-C , 26-H ) :   0.9548 B( 25-C , 27-H ) :   0.9551 B( 25-C , 28-C ) :   1.0849
B( 28-C , 29-H ) :   0.9739 B( 28-C , 30-H ) :   0.9693 B( 28-C , 31-H ) :   0.9725

Dispersion correction           -0.013264166
FINAL SINGLE POINT ENERGY     -1339.874321875001

DIPOLE MOMENT
-------------
                                X             Y             Z
Electronic contribution:    -12.04563     -27.85163       8.84049
Nuclear contribution   :     12.50057      28.38658      -9.06915
                        -----------------------------------------
Total Dipole Moment    :      0.45494       0.53495      -0.22866
                        -----------------------------------------
Magnitude (a.u.)       :      0.73853
Magnitude (Debye)      :      1.87720

Rotational constants in cm-1:     0.016143     0.008938     0.006400
Rotational constants in MHz :   483.951706   267.944093   191.880913

                             ****ORCA TERMINATED NORMALLY****
TOTAL RUN TIME: 0 days 0 hours 0 minutes 29 seconds 724 msec
