                         Program Version 4.2.1 -  RELEASE  -
|  1> ! wB97X-D3 SP def2-SVP
|  2> %pal
|  3> nprocs 16
|  4> end
|  5>
|  6> * xyz 0 1
|  7> S 	 2.35118 	 -16.4768 	 86.9144
|  8> C 	 2.05692 	 -17.4118 	 85.4358
|  9> C 	 3.22271 	 -17.5686 	 84.7006
| 10> C 	 4.41824 	 -17.2104 	 85.4323
| 11> C 	 4.09039 	 -16.5966 	 86.6383
| 12> H 	 5.40822 	 -17.3019 	 84.9843
| 13> C 	 3.27901 	 -18.1329 	 83.279
| 14> H 	 2.48629 	 -18.7859 	 83.0717
| 15> H 	 4.24144 	 -18.672 	 83.2415
| 16> C 	 3.33948 	 -17.0274 	 82.2257
| 17> H 	 2.59593 	 -16.2732 	 82.3529
| 18> H 	 4.31169 	 -16.541 	 82.2104
| 19> C 	 3.04859 	 -17.5847 	 80.8165
| 20> H 	 3.24893 	 -16.7274 	 80.1353
| 21> H 	 3.70513 	 -18.3697 	 80.5577
| 22> H 	 2.0129 	 -17.7752 	 80.7331
| 23> S 	 5.9586 	 -16.9267 	 88.6599
| 24> C 	 6.66358 	 -15.4782 	 89.4459
| 25> C 	 6.31101 	 -14.3592 	 88.7572
| 26> C 	 5.36857 	 -14.6397 	 87.6929
| 27> C 	 5.09851 	 -15.9763 	 87.4649
| 28> H 	 6.70905 	 -13.4854 	 89.2512
| 29> C 	 4.68042 	 -13.4681 	 86.9955
| 30> H 	 5.14765 	 -12.6261 	 87.4876
| 31> H 	 3.67784 	 -13.6038 	 87.3677
| 32> C 	 4.80694 	 -13.2941 	 85.4816
| 33> H 	 4.54042 	 -14.169 	 84.8208
| 34> H 	 5.78934 	 -13.0368 	 85.1894
| 35> C 	 3.81678 	 -12.2043 	 84.9819
| 36> H 	 2.80892 	 -12.2525 	 85.4647
| 37> H 	 3.53712 	 -12.2395 	 83.9331
| 38> H 	 4.30347 	 -11.2547 	 85.0007
| 39> H 	 1.08682 	 -17.5509 	 85.0157
| 40> H 	 7.27999 	 -15.597 	 90.3297
| 41> *
| 42>
| 43>                          ****END OF INPUT****

CARTESIAN COORDINATES (ANGSTROEM)
---------------------------------
  S      2.351180  -16.476800   86.914400
  C      2.056920  -17.411800   85.435800
  C      3.222710  -17.568600   84.700600
  C      4.418240  -17.210400   85.432300
  C      4.090390  -16.596600   86.638300
  H      5.408220  -17.301900   84.984300
  C      3.279010  -18.132900   83.279000
  H      2.486290  -18.785900   83.071700
  H      4.241440  -18.672000   83.241500
  C      3.339480  -17.027400   82.225700
  H      2.595930  -16.273200   82.352900
  H      4.311690  -16.541000   82.210400
  C      3.048590  -17.584700   80.816500
  H      3.248930  -16.727400   80.135300
  H      3.705130  -18.369700   80.557700
  H      2.012900  -17.775200   80.733100
  S      5.958600  -16.926700   88.659900
  C      6.663580  -15.478200   89.445900
  C      6.311010  -14.359200   88.757200
  C      5.368570  -14.639700   87.692900
  C      5.098510  -15.976300   87.464900
  H      6.709050  -13.485400   89.251200
  C      4.680420  -13.468100   86.995500
  H      5.147650  -12.626100   87.487600
  H      3.677840  -13.603800   87.367700
  C      4.806940  -13.294100   85.481600
  H      4.540420  -14.169000   84.820800
  H      5.789340  -13.036800   85.189400
  C      3.816780  -12.204300   84.981900
  H      2.808920  -12.252500   85.464700
  H      3.537120  -12.239500   83.933100
  H      4.303470  -11.254700   85.000700
  H      1.086820  -17.550900   85.015700
  H      7.279990  -15.597000   90.329700

 Total Charge           Charge          ....    0
 Multiplicity           Mult            ....    1
 Number of Electrons    NEL             ....  134
 Basis Dimension        Dim             ....  322

ORBITAL ENERGIES
----------------

  NO   OCC          E(Eh)            E(eV)
   0   2.0000     -88.970924     -2421.0219
   1   2.0000     -88.956134     -2420.6195
   2   2.0000     -10.331831      -281.1434
   3   2.0000     -10.320296      -280.8295
   4   2.0000     -10.317566      -280.7553
   5   2.0000     -10.313398      -280.6418
   6   2.0000     -10.303787      -280.3803
   7   2.0000     -10.302894      -280.3560
   8   2.0000     -10.298707      -280.2421
   9   2.0000     -10.293707      -280.1060
  10   2.0000     -10.290097      -280.0078
  11   2.0000     -10.286560      -279.9115
  12   2.0000     -10.284168      -279.8464
  13   2.0000     -10.282936      -279.8129
  14   2.0000     -10.274171      -279.5744
  15   2.0000     -10.272313      -279.5238
  16   2.0000      -8.084543      -219.9916
  17   2.0000      -8.070741      -219.6160
  18   2.0000      -6.043147      -164.4424
  19   2.0000      -6.039306      -164.3379
  20   2.0000      -6.035176      -164.2255
  21   2.0000      -6.029312      -164.0659
  22   2.0000      -6.025157      -163.9529
  23   2.0000      -6.021543      -163.8545
  24   2.0000      -1.001390       -27.2492
  25   2.0000      -0.978117       -26.6159
  26   2.0000      -0.914110       -24.8742
  27   2.0000      -0.901649       -24.5351
  28   2.0000      -0.871861       -23.7245
  29   2.0000      -0.850114       -23.1328
  30   2.0000      -0.842635       -22.9293
  31   2.0000      -0.816451       -22.2168
  32   2.0000      -0.781028       -21.2529
  33   2.0000      -0.766549       -20.8589
  34   2.0000      -0.710072       -19.3221
  35   2.0000      -0.699675       -19.0391
  36   2.0000      -0.693120       -18.8607
  37   2.0000      -0.660471       -17.9723
  38   2.0000      -0.640236       -17.4217
  39   2.0000      -0.620634       -16.8883
  40   2.0000      -0.585996       -15.9458
  41   2.0000      -0.578089       -15.7306
  42   2.0000      -0.566481       -15.4147
  43   2.0000      -0.562203       -15.2983
  44   2.0000      -0.524348       -14.2682
  45   2.0000      -0.520557       -14.1651
  46   2.0000      -0.517970       -14.0947
  47   2.0000      -0.515747       -14.0342
  48   2.0000      -0.509257       -13.8576
  49   2.0000      -0.500210       -13.6114
  50   2.0000      -0.491107       -13.3637
  51   2.0000      -0.477258       -12.9868
  52   2.0000      -0.472082       -12.8460
  53   2.0000      -0.464207       -12.6317
  54   2.0000      -0.457103       -12.4384
  55   2.0000      -0.449703       -12.2370
  56   2.0000      -0.439285       -11.9535
  57   2.0000      -0.437423       -11.9029
  58   2.0000      -0.433345       -11.7919
  59   2.0000      -0.427961       -11.6454
  60   2.0000      -0.415041       -11.2938
  61   2.0000      -0.413599       -11.2546
  62   2.0000      -0.400273       -10.8920
  63   2.0000      -0.335787        -9.1372
  64   2.0000      -0.332646        -9.0518
  65   2.0000      -0.318064        -8.6550
  66   2.0000      -0.305243        -8.3061
  67   0.0000       0.040187         1.0935
  68   0.0000       0.053563         1.4575
  69   0.0000       0.106250         2.8912
  70   0.0000       0.120241         3.2719
  71   0.0000       0.131409         3.5758

MULLIKEN ATOMIC CHARGES
-----------------------
   0 S :    0.116501
   1 C :   -0.108285
   2 C :   -0.106991
   3 C :    0.037315
   4 C :   -0.139711
   5 H :    0.026417
   6 C :    0.093746
   7 H :    0.010191
   8 H :    0.027064
   9 C :   -0.089991
  10 H :    0.022120
  11 H :    0.027491
  12 C :   -0.028463
  13 H :    0.030473
  14 H :    0.028736
  15 H :    0.028748
  16 S :    0.078688
  17 C :   -0.123187
  18 C :   -0.015338
  19 C :   -0.078300
  20 C :   -0.150673
  21 H :    0.024135
  22 C :    0.118703
  23 H :    0.011006
  24 H :    0.029305
  25 C :   -0.048837
  26 H :    0.044982
  27 H :    0.016482
  28 C :   -0.068295
  29 H :    0.040892
  30 H :    0.016418
  31 H :    0.024110
  32 H :    0.040175
  33 H :    0.064375
Sum of atomic charges:   -0.0000000

LOEWDIN ATOMIC CHARGES
----------------------
   0 S :    0.395522
   1 C :   -0.193650
   2 C :   -0.054163
   3 C :   -0.051674
   4 C :   -0.188668
   5 H :    0.036848
   6 C :   -0.025736
   7 H :    0.021257
   8 H :    0.035026
   9 C :   -0.036148
  10 H :    0.019275
  11 H :    0.021942
  12 C :   -0.056090
  13 H :    0.031967
  14 H :    0.017627
  15 H :    0.019130
  16 S :    0.377628
  17 C :   -0.162820
  18 C :   -0.082114
  19 C :   -0.052308
  20 C :   -0.208334
  21 H :    0.037736
  22 C :   -0.028631
  23 H :    0.030814
  24 H :    0.030925
  25 C :   -0.038738
  26 H :    0.032671
  27 H :    0.018504
  28 C :   -0.073096
  29 H :    0.031708
  30 H :    0.022959
  31 H :    0.019434
  32 H :    0.021875
  33 H :    0.029321

  Mayer bond orders larger than 0.100000
B(  0-S ,  1-C ) :   1.1192 B(  0-S ,  4-C ) :   1.1439 B(  1-C ,  2-C ) :   1.6333
B(  1-C , 32-H ) :   0.9686 B(  2-C ,  3-C ) :   1.2346 B(  2-C ,  6-C ) :   1.0283
B(  3-C ,  4-C ) :   1.5715 B(  3-C ,  5-H ) :   0.9880 B(  4-C , 20-C ) :   1.0424
B(  6-C ,  7-H ) :   0.9471 B(  6-C ,  8-H ) :   0.9356 B(  6-C ,  9-C ) :   1.0634
B(  9-C , 10-H ) :   0.9602 B(  9-C , 11-H ) :   0.9556 B(  9-C , 12-C ) :   1.0895
B( 12-C , 13-H ) :   0.9741 B( 12-C , 14-H ) :   0.9748 B( 12-C , 15-H ) :   0.9776
B( 16-S , 17-C ) :   1.1559 B( 16-S , 20-C ) :   1.1252 B( 17-C , 18-C ) :   1.6301
B( 17-C , 33-H ) :   0.9663 B( 18-C , 19-C ) :   1.2066 B( 18-C , 21-H ) :   0.9933
B( 19-C , 20-C ) :   1.6198 B( 19-C , 22-C ) :   1.0223 B( 22-C , 23-H ) :   0.9300
B( 22-C , 24-H ) :   0.9303 B( 22-C , 25-C ) :   1.0655 B( 25-C , 26-H ) :   0.9619
B( 25-C , 27-H ) :   0.9566 B( 25-C , 28-C ) :   1.0709 B( 28-C , 29-H ) :   0.9766
B( 28-C , 30-H ) :   0.9750 B( 28-C , 31-H ) :   0.9783

Dispersion correction           -0.014803570
FINAL SINGLE POINT ENERGY     -1339.865257107712

DIPOLE MOMENT
-------------
                                X             Y             Z
Electronic contribution:      3.32359     -10.45118      26.87323
Nuclear contribution   :     -3.29188      10.82165     -27.42294
                        -----------------------------------------
Total Dipole Moment    :      0.03171       0.37048      -0.54971
                        -----------------------------------------
Magnitude (a.u.)       :      0.66365
Magnitude (Debye)      :      1.68687

Rotational constants in cm-1:     0.019465     0.008485     0.007161
Rotational constants in MHz :   583.534276   254.369486   214.678847

                             ****ORCA TERMINATED NORMALLY****
TOTAL RUN TIME: 0 days 0 hours 0 minutes 32 seconds 809 msec
