                         Program Version 4.2.1 -  RELEASE  -
|  1> ! wB97X-D3 SP def2-SVP
|  2> %pal
|  3> nprocs 16
|  4> end
|  5>
|  6> * xyz 0 1
|  7> S 	 31.0969 	 27.4187 	 54.1782
|  8> C 	 30.2157 	 27.4291 	 52.6962
|  9> C 	 30.0027 	 26.1511 	 52.2388
| 10> C 	 30.6728 	 25.1493 	 53.0879
| 11> C 	 31.3656 	 25.7009 	 54.207
| 12> H 	 30.518 	 24.0757 	 52.9891
| 13> C 	 29.1452 	 25.7671 	 51.076
| 14> H 	 29.6335 	 25.0463 	 50.3923
| 15> H 	 29.0749 	 26.6326 	 50.3998
| 16> C 	 27.8123 	 25.0195 	 51.4935
| 17> H 	 28.1429 	 24.129 	 52.0459
| 18> H 	 27.1815 	 25.5835 	 52.2041
| 19> C 	 26.9833 	 24.4117 	 50.3881
| 20> H 	 27.4488 	 23.5708 	 49.9043
| 21> H 	 26.0203 	 24.0148 	 50.5625
| 22> H 	 26.8002 	 25.2715 	 49.7058
| 23> S 	 32.5409 	 26.0527 	 56.7254
| 24> C 	 33.5893 	 24.8025 	 57.343
| 25> C 	 33.5717 	 23.7554 	 56.4791
| 26> C 	 32.7878 	 23.9369 	 55.3235
| 27> C 	 32.2457 	 25.1776 	 55.2334
| 28> H 	 34.1166 	 22.8555 	 56.6483
| 29> C 	 32.8005 	 22.831 	 54.3579
| 30> H 	 31.8244 	 22.4154 	 54.1309
| 31> H 	 33.2402 	 21.8133 	 54.8304
| 32> C 	 33.4661 	 23.1791 	 53.0733
| 33> H 	 34.5185 	 23.3175 	 53.4043
| 34> H 	 33.1395 	 24.0597 	 52.5262
| 35> C 	 33.4359 	 22.0336 	 52.055
| 36> H 	 32.4439 	 21.8771 	 51.6052
| 37> H 	 33.8202 	 21.1165 	 52.496
| 38> H 	 34.0107 	 22.3235 	 51.1816
| 39> H 	 29.7993 	 28.3532 	 52.2974
| 40> H 	 34.3019 	 24.8525 	 58.1588
| 41> *
| 42>
| 43>                          ****END OF INPUT****

CARTESIAN COORDINATES (ANGSTROEM)
---------------------------------
  S     31.096900   27.418700   54.178200
  C     30.215700   27.429100   52.696200
  C     30.002700   26.151100   52.238800
  C     30.672800   25.149300   53.087900
  C     31.365600   25.700900   54.207000
  H     30.518000   24.075700   52.989100
  C     29.145200   25.767100   51.076000
  H     29.633500   25.046300   50.392300
  H     29.074900   26.632600   50.399800
  C     27.812300   25.019500   51.493500
  H     28.142900   24.129000   52.045900
  H     27.181500   25.583500   52.204100
  C     26.983300   24.411700   50.388100
  H     27.448800   23.570800   49.904300
  H     26.020300   24.014800   50.562500
  H     26.800200   25.271500   49.705800
  S     32.540900   26.052700   56.725400
  C     33.589300   24.802500   57.343000
  C     33.571700   23.755400   56.479100
  C     32.787800   23.936900   55.323500
  C     32.245700   25.177600   55.233400
  H     34.116600   22.855500   56.648300
  C     32.800500   22.831000   54.357900
  H     31.824400   22.415400   54.130900
  H     33.240200   21.813300   54.830400
  C     33.466100   23.179100   53.073300
  H     34.518500   23.317500   53.404300
  H     33.139500   24.059700   52.526200
  C     33.435900   22.033600   52.055000
  H     32.443900   21.877100   51.605200
  H     33.820200   21.116500   52.496000
  H     34.010700   22.323500   51.181600
  H     29.799300   28.353200   52.297400
  H     34.301900   24.852500   58.158800

 Total Charge           Charge          ....    0
 Multiplicity           Mult            ....    1
 Number of Electrons    NEL             ....  134
 Basis Dimension        Dim             ....  322

ORBITAL ENERGIES
----------------

  NO   OCC          E(Eh)            E(eV)
   0   2.0000     -88.967802     -2420.9370
   1   2.0000     -88.962361     -2420.7889
   2   2.0000     -10.337125      -281.2875
   3   2.0000     -10.328688      -281.0579
   4   2.0000     -10.317040      -280.7409
   5   2.0000     -10.315441      -280.6974
   6   2.0000     -10.306750      -280.4609
   7   2.0000     -10.304145      -280.3900
   8   2.0000     -10.300289      -280.2851
   9   2.0000     -10.296342      -280.1777
  10   2.0000     -10.294558      -280.1292
  11   2.0000     -10.292884      -280.0836
  12   2.0000     -10.286336      -279.9054
  13   2.0000     -10.281554      -279.7753
  14   2.0000     -10.276220      -279.6302
  15   2.0000     -10.275526      -279.6113
  16   2.0000      -8.082539      -219.9371
  17   2.0000      -8.078144      -219.8175
  18   2.0000      -6.041282      -164.3916
  19   2.0000      -6.037034      -164.2760
  20   2.0000      -6.036670      -164.2661
  21   2.0000      -6.033052      -164.1677
  22   2.0000      -6.032384      -164.1495
  23   2.0000      -6.028944      -164.0559
  24   2.0000      -1.014379       -27.6027
  25   2.0000      -0.988824       -26.9073
  26   2.0000      -0.918979       -25.0067
  27   2.0000      -0.910631       -24.7795
  28   2.0000      -0.875866       -23.8335
  29   2.0000      -0.855690       -23.2845
  30   2.0000      -0.846204       -23.0264
  31   2.0000      -0.817106       -22.2346
  32   2.0000      -0.782770       -21.3002
  33   2.0000      -0.774740       -21.0817
  34   2.0000      -0.712954       -19.4005
  35   2.0000      -0.701399       -19.0860
  36   2.0000      -0.689216       -18.7545
  37   2.0000      -0.669753       -18.2249
  38   2.0000      -0.640861       -17.4387
  39   2.0000      -0.622428       -16.9371
  40   2.0000      -0.605863       -16.4864
  41   2.0000      -0.572357       -15.5746
  42   2.0000      -0.569008       -15.4835
  43   2.0000      -0.559917       -15.2361
  44   2.0000      -0.529611       -14.4115
  45   2.0000      -0.525782       -14.3072
  46   2.0000      -0.517346       -14.0777
  47   2.0000      -0.514172       -13.9913
  48   2.0000      -0.509982       -13.8773
  49   2.0000      -0.507929       -13.8215
  50   2.0000      -0.495103       -13.4724
  51   2.0000      -0.491404       -13.3718
  52   2.0000      -0.472391       -12.8544
  53   2.0000      -0.464097       -12.6287
  54   2.0000      -0.456779       -12.4296
  55   2.0000      -0.453462       -12.3393
  56   2.0000      -0.443979       -12.0813
  57   2.0000      -0.434989       -11.8367
  58   2.0000      -0.426302       -11.6003
  59   2.0000      -0.423403       -11.5214
  60   2.0000      -0.415885       -11.3168
  61   2.0000      -0.411355       -11.1935
  62   2.0000      -0.405998       -11.0478
  63   2.0000      -0.364678        -9.9234
  64   2.0000      -0.334248        -9.0954
  65   2.0000      -0.324732        -8.8364
  66   2.0000      -0.286606        -7.7989
  67   0.0000       0.016478         0.4484
  68   0.0000       0.087122         2.3707
  69   0.0000       0.101298         2.7565
  70   0.0000       0.118667         3.2291
  71   0.0000       0.128984         3.5098

MULLIKEN ATOMIC CHARGES
-----------------------
   0 S :    0.083990
   1 C :   -0.112831
   2 C :   -0.081325
   3 C :    0.002102
   4 C :   -0.148265
   5 H :    0.020253
   6 C :    0.055908
   7 H :    0.023693
   8 H :    0.021641
   9 C :   -0.081407
  10 H :    0.024619
  11 H :    0.040329
  12 C :   -0.039065
  13 H :    0.026583
  14 H :    0.024576
  15 H :    0.029616
  16 S :    0.102699
  17 C :   -0.066613
  18 C :   -0.027120
  19 C :   -0.031546
  20 C :   -0.077155
  21 H :    0.002572
  22 C :    0.001836
  23 H :    0.016253
  24 H :    0.033152
  25 C :   -0.090090
  26 H :    0.028316
  27 H :    0.054367
  28 C :   -0.031288
  29 H :    0.023045
  30 H :    0.027252
  31 H :    0.029035
  32 H :    0.055405
  33 H :    0.059463
Sum of atomic charges:   -0.0000000

LOEWDIN ATOMIC CHARGES
----------------------
   0 S :    0.416348
   1 C :   -0.201220
   2 C :   -0.064975
   3 C :   -0.070038
   4 C :   -0.184574
   5 H :    0.027509
   6 C :   -0.037192
   7 H :    0.033921
   8 H :    0.029821
   9 C :   -0.041195
  10 H :    0.024554
  11 H :    0.027164
  12 C :   -0.071190
  13 H :    0.023388
  14 H :    0.023655
  15 H :    0.029267
  16 S :    0.403911
  17 C :   -0.182254
  18 C :   -0.066199
  19 C :   -0.061379
  20 C :   -0.195078
  21 H :    0.026049
  22 C :   -0.043855
  23 H :    0.020772
  24 H :    0.042760
  25 C :   -0.045006
  26 H :    0.029181
  27 H :    0.029611
  28 C :   -0.064104
  29 H :    0.023031
  30 H :    0.021618
  31 H :    0.026993
  32 H :    0.032151
  33 H :    0.036557

  Mayer bond orders larger than 0.100000
B(  0-S ,  1-C ) :   1.1454 B(  0-S ,  4-C ) :   1.1645 B(  1-C ,  2-C ) :   1.5996
B(  1-C , 32-H ) :   0.9700 B(  2-C ,  3-C ) :   1.2420 B(  2-C ,  6-C ) :   1.0481
B(  3-C ,  4-C ) :   1.5397 B(  3-C ,  5-H ) :   0.9817 B(  4-C , 20-C ) :   1.0768
B(  6-C ,  7-H ) :   0.9373 B(  6-C ,  8-H ) :   0.9405 B(  6-C ,  9-C ) :   1.0363
B(  9-C , 10-H ) :   0.9574 B(  9-C , 11-H ) :   0.9598 B(  9-C , 12-C ) :   1.0801
B( 12-C , 13-H ) :   0.9740 B( 12-C , 14-H ) :   0.9729 B( 12-C , 15-H ) :   0.9750
B( 16-S , 17-C ) :   1.1434 B( 16-S , 20-C ) :   1.1198 B( 17-C , 18-C ) :   1.6023
B( 17-C , 33-H ) :   0.9648 B( 18-C , 19-C ) :   1.2672 B( 18-C , 21-H ) :   0.9928
B( 19-C , 20-C ) :   1.5935 B( 19-C , 22-C ) :   1.0504 B( 22-C , 23-H ) :   0.9197
B( 22-C , 24-H ) :   0.9351 B( 22-C , 25-C ) :   1.0582 B( 25-C , 26-H ) :   0.9489
B( 25-C , 27-H ) :   0.9516 B( 25-C , 28-C ) :   1.0950 B( 28-C , 29-H ) :   0.9713
B( 28-C , 30-H ) :   0.9726 B( 28-C , 31-H ) :   0.9721

Dispersion correction           -0.014159759
FINAL SINGLE POINT ENERGY     -1339.869874418729

DIPOLE MOMENT
-------------
                                X             Y             Z
Electronic contribution:      8.51147      19.54100      23.42742
Nuclear contribution   :     -8.59148     -20.09206     -23.81366
                        -----------------------------------------
Total Dipole Moment    :     -0.08000      -0.55106      -0.38624
                        -----------------------------------------
Magnitude (a.u.)       :      0.67768
Magnitude (Debye)      :      1.72253

Rotational constants in cm-1:     0.018947     0.008777     0.006649
Rotational constants in MHz :   568.005464   263.133528   199.343194

                             ****ORCA TERMINATED NORMALLY****
TOTAL RUN TIME: 0 days 0 hours 0 minutes 36 seconds 255 msec
