                         Program Version 4.2.1 -  RELEASE  -
|  1> ! wB97X-D3 SP def2-SVP
|  2> %pal
|  3> nprocs 16
|  4> end
|  5>
|  6> * xyz 0 1
|  7> S 	 34.8615 	 29.5935 	 53.423
|  8> C 	 35.6269 	 31.0984 	 53.0232
|  9> C 	 36.2273 	 31.6007 	 54.172
| 10> C 	 36.0582 	 30.7605 	 55.3127
| 11> C 	 35.3504 	 29.6044 	 55.0944
| 12> H 	 36.316 	 31.0533 	 56.3851
| 13> C 	 36.8271 	 33.0029 	 54.3382
| 14> H 	 37.1919 	 33.4499 	 53.3708
| 15> H 	 37.7582 	 32.9236 	 54.9317
| 16> C 	 35.8253 	 34.1013 	 54.7864
| 17> H 	 35.0889 	 34.3409 	 54.0171
| 18> H 	 35.176 	 33.6792 	 55.6439
| 19> C 	 36.6226 	 35.3042 	 55.2837
| 20> H 	 37.3503 	 35.1901 	 56.073
| 21> H 	 37.0189 	 35.9256 	 54.4932
| 22> H 	 35.9267 	 35.9469 	 55.6903
| 23> S 	 33.2864 	 27.9133 	 55.6648
| 24> C 	 33.2715 	 26.9634 	 57.0522
| 25> C 	 34.3764 	 27.2666 	 57.8828
| 26> C 	 35.3073 	 28.1893 	 57.2961
| 27> C 	 34.8419 	 28.6297 	 56.0636
| 28> H 	 34.5472 	 26.8584 	 58.8398
| 29> C 	 36.5075 	 28.7218 	 58.0705
| 30> H 	 36.1525 	 29.4172 	 58.8243
| 31> H 	 37.2627 	 29.0985 	 57.342
| 32> C 	 37.2405 	 27.6185 	 58.9419
| 33> H 	 37.7771 	 26.8989 	 58.3053
| 34> H 	 36.5428 	 27.1219 	 59.5712
| 35> C 	 38.2139 	 28.2212 	 59.9757
| 36> H 	 38.4057 	 27.5044 	 60.8342
| 37> H 	 37.8662 	 29.1408 	 60.4069
| 38> H 	 39.2036 	 28.3738 	 59.4972
| 39> H 	 35.4655 	 31.6569 	 52.0735
| 40> H 	 32.5165 	 26.2796 	 57.3826
| 41> *
| 42>
| 43>                          ****END OF INPUT****

CARTESIAN COORDINATES (ANGSTROEM)
---------------------------------
  S     34.861500   29.593500   53.423000
  C     35.626900   31.098400   53.023200
  C     36.227300   31.600700   54.172000
  C     36.058200   30.760500   55.312700
  C     35.350400   29.604400   55.094400
  H     36.316000   31.053300   56.385100
  C     36.827100   33.002900   54.338200
  H     37.191900   33.449900   53.370800
  H     37.758200   32.923600   54.931700
  C     35.825300   34.101300   54.786400
  H     35.088900   34.340900   54.017100
  H     35.176000   33.679200   55.643900
  C     36.622600   35.304200   55.283700
  H     37.350300   35.190100   56.073000
  H     37.018900   35.925600   54.493200
  H     35.926700   35.946900   55.690300
  S     33.286400   27.913300   55.664800
  C     33.271500   26.963400   57.052200
  C     34.376400   27.266600   57.882800
  C     35.307300   28.189300   57.296100
  C     34.841900   28.629700   56.063600
  H     34.547200   26.858400   58.839800
  C     36.507500   28.721800   58.070500
  H     36.152500   29.417200   58.824300
  H     37.262700   29.098500   57.342000
  C     37.240500   27.618500   58.941900
  H     37.777100   26.898900   58.305300
  H     36.542800   27.121900   59.571200
  C     38.213900   28.221200   59.975700
  H     38.405700   27.504400   60.834200
  H     37.866200   29.140800   60.406900
  H     39.203600   28.373800   59.497200
  H     35.465500   31.656900   52.073500
  H     32.516500   26.279600   57.382600

 Total Charge           Charge          ....    0
 Multiplicity           Mult            ....    1
 Number of Electrons    NEL             ....  134
 Basis Dimension        Dim             ....  322

ORBITAL ENERGIES
----------------

  NO   OCC          E(Eh)            E(eV)
   0   2.0000     -88.968335     -2420.9515
   1   2.0000     -88.963282     -2420.8140
   2   2.0000     -10.329458      -281.0788
   3   2.0000     -10.329151      -281.0705
   4   2.0000     -10.316405      -280.7236
   5   2.0000     -10.315937      -280.7109
   6   2.0000     -10.305133      -280.4169
   7   2.0000     -10.302020      -280.3322
   8   2.0000     -10.301554      -280.3195
   9   2.0000     -10.295557      -280.1563
  10   2.0000     -10.295316      -280.1498
  11   2.0000     -10.295101      -280.1439
  12   2.0000     -10.292112      -280.0626
  13   2.0000     -10.288688      -279.9694
  14   2.0000     -10.283461      -279.8272
  15   2.0000     -10.269822      -279.4561
  16   2.0000      -8.083981      -219.9763
  17   2.0000      -8.078391      -219.8242
  18   2.0000      -6.042381      -164.4216
  19   2.0000      -6.038218      -164.3083
  20   2.0000      -6.036930      -164.2732
  21   2.0000      -6.034938      -164.2190
  22   2.0000      -6.032735      -164.1591
  23   2.0000      -6.029195      -164.0627
  24   2.0000      -1.010500       -27.4971
  25   2.0000      -0.987573       -26.8732
  26   2.0000      -0.908583       -24.7238
  27   2.0000      -0.906509       -24.6674
  28   2.0000      -0.869573       -23.6623
  29   2.0000      -0.855395       -23.2765
  30   2.0000      -0.843078       -22.9413
  31   2.0000      -0.811347       -22.0779
  32   2.0000      -0.781559       -21.2673
  33   2.0000      -0.771342       -20.9893
  34   2.0000      -0.704146       -19.1608
  35   2.0000      -0.698012       -18.9939
  36   2.0000      -0.696107       -18.9420
  37   2.0000      -0.661220       -17.9927
  38   2.0000      -0.637906       -17.3583
  39   2.0000      -0.617557       -16.8046
  40   2.0000      -0.597621       -16.2621
  41   2.0000      -0.576105       -15.6766
  42   2.0000      -0.564055       -15.3487
  43   2.0000      -0.554281       -15.0828
  44   2.0000      -0.523514       -14.2455
  45   2.0000      -0.521099       -14.1798
  46   2.0000      -0.516319       -14.0498
  47   2.0000      -0.514436       -13.9985
  48   2.0000      -0.507113       -13.7992
  49   2.0000      -0.496505       -13.5106
  50   2.0000      -0.495207       -13.4753
  51   2.0000      -0.483960       -13.1692
  52   2.0000      -0.469493       -12.7755
  53   2.0000      -0.464057       -12.6276
  54   2.0000      -0.460276       -12.5248
  55   2.0000      -0.454122       -12.3573
  56   2.0000      -0.451653       -12.2901
  57   2.0000      -0.439705       -11.9650
  58   2.0000      -0.439092       -11.9483
  59   2.0000      -0.422286       -11.4910
  60   2.0000      -0.415556       -11.3079
  61   2.0000      -0.411537       -11.1985
  62   2.0000      -0.401315       -10.9203
  63   2.0000      -0.357972        -9.7409
  64   2.0000      -0.331779        -9.0282
  65   2.0000      -0.327587        -8.9141
  66   2.0000      -0.284934        -7.7534
  67   0.0000       0.024706         0.6723
  68   0.0000       0.083253         2.2654
  69   0.0000       0.107753         2.9321
  70   0.0000       0.120216         3.2713
  71   0.0000       0.136430         3.7125

MULLIKEN ATOMIC CHARGES
-----------------------
   0 S :    0.092341
   1 C :   -0.131141
   2 C :   -0.070123
   3 C :   -0.025486
   4 C :   -0.122562
   5 H :    0.040507
   6 C :    0.020511
   7 H :    0.020938
   8 H :    0.036775
   9 C :   -0.095867
  10 H :    0.035729
  11 H :    0.036515
  12 C :   -0.003769
  13 H :    0.033594
  14 H :    0.024769
  15 H :    0.004742
  16 S :    0.123295
  17 C :   -0.069544
  18 C :   -0.040479
  19 C :   -0.033614
  20 C :   -0.145941
  21 H :   -0.001691
  22 C :    0.047739
  23 H :    0.042969
  24 H :    0.050843
  25 C :   -0.096469
  26 H :    0.043828
  27 H :    0.023413
  28 C :   -0.070589
  29 H :    0.041579
  30 H :    0.025842
  31 H :    0.036947
  32 H :    0.070592
  33 H :    0.053807
Sum of atomic charges:    0.0000000

LOEWDIN ATOMIC CHARGES
----------------------
   0 S :    0.409059
   1 C :   -0.211429
   2 C :   -0.068782
   3 C :   -0.082140
   4 C :   -0.196179
   5 H :    0.042125
   6 C :   -0.041421
   7 H :    0.032054
   8 H :    0.032159
   9 C :   -0.039124
  10 H :    0.027068
  11 H :    0.028277
  12 C :   -0.065720
  13 H :    0.027378
  14 H :    0.026328
  15 H :    0.019148
  16 S :    0.439322
  17 C :   -0.206164
  18 C :   -0.066930
  19 C :   -0.057563
  20 C :   -0.194770
  21 H :    0.018718
  22 C :   -0.029710
  23 H :    0.034757
  24 H :    0.038789
  25 C :   -0.038287
  26 H :    0.028750
  27 H :    0.014857
  28 C :   -0.070404
  29 H :    0.033111
  30 H :    0.018207
  31 H :    0.026858
  32 H :    0.041817
  33 H :    0.029840

  Mayer bond orders larger than 0.100000
B(  0-S ,  1-C ) :   1.1385 B(  0-S ,  4-C ) :   1.1570 B(  1-C ,  2-C ) :   1.5883
B(  1-C , 32-H ) :   0.9671 B(  2-C ,  3-C ) :   1.2643 B(  2-C ,  6-C ) :   1.0288
B(  3-C ,  4-C ) :   1.5585 B(  3-C ,  5-H ) :   0.9781 B(  4-C , 20-C ) :   1.0589
B(  6-C ,  7-H ) :   0.9440 B(  6-C ,  8-H ) :   0.9517 B(  6-C ,  9-C ) :   1.0447
B(  9-C , 10-H ) :   0.9541 B(  9-C , 11-H ) :   0.9619 B(  9-C , 12-C ) :   1.0785
B( 12-C , 13-H ) :   0.9758 B( 12-C , 14-H ) :   0.9702 B( 12-C , 15-H ) :   0.9652
B( 16-S , 17-C ) :   1.1798 B( 16-S , 20-C ) :   1.1508 B( 17-C , 18-C ) :   1.5627
B( 17-C , 33-H ) :   0.9711 B( 18-C , 19-C ) :   1.2719 B( 18-C , 21-H ) :   0.9912
B( 19-C , 20-C ) :   1.5733 B( 19-C , 22-C ) :   1.0476 B( 22-C , 23-H ) :   0.9329
B( 22-C , 24-H ) :   0.9341 B( 22-C , 25-C ) :   1.0645 B( 25-C , 26-H ) :   0.9600
B( 25-C , 27-H ) :   0.9571 B( 25-C , 28-C ) :   1.0778 B( 28-C , 29-H ) :   0.9777
B( 28-C , 30-H ) :   0.9735 B( 28-C , 31-H ) :   0.9769

Dispersion correction           -0.013159435
FINAL SINGLE POINT ENERGY     -1339.876247771041

DIPOLE MOMENT
-------------
                                X             Y             Z
Electronic contribution:    -17.95531     -17.04950     -16.77433
Nuclear contribution   :     18.11319      17.50444      17.35070
                        -----------------------------------------
Total Dipole Moment    :      0.15788       0.45493       0.57636
                        -----------------------------------------
Magnitude (a.u.)       :      0.75106
Magnitude (Debye)      :      1.90903

Rotational constants in cm-1:     0.016497     0.008292     0.006114
Rotational constants in MHz :   494.552934   248.583037   183.296783

                             ****ORCA TERMINATED NORMALLY****
TOTAL RUN TIME: 0 days 0 hours 0 minutes 31 seconds 646 msec
