                         Program Version 4.2.1 -  RELEASE  -
|  1> ! wB97X-D3 SP def2-SVP
|  2> %pal
|  3> nprocs 16
|  4> end
|  5>
|  6> * xyz 0 1
|  7> S 	 56.6718 	 15.2578 	 78.7795
|  8> C 	 57.7545 	 16.1737 	 77.658
|  9> C 	 58.7568 	 15.3562 	 77.2324
| 10> C 	 58.6441 	 14.0069 	 77.6835
| 11> C 	 57.4921 	 13.7725 	 78.4335
| 12> H 	 59.3539 	 13.1492 	 77.547
| 13> C 	 59.8942 	 15.7691 	 76.4455
| 14> H 	 59.5811 	 16.7666 	 75.9994
| 15> H 	 59.9416 	 14.9894 	 75.7534
| 16> C 	 61.2209 	 16.0279 	 77.2668
| 17> H 	 61.2166 	 15.4166 	 78.1349
| 18> H 	 62.0225 	 15.7413 	 76.6987
| 19> C 	 61.3298 	 17.4982 	 77.6824
| 20> H 	 60.5437 	 17.7627 	 78.3244
| 21> H 	 62.3205 	 17.5817 	 78.1799
| 22> H 	 61.507 	 18.2036 	 76.8446
| 23> S 	 57.0325 	 12.1966 	 80.7091
| 24> C 	 56.879 	 10.4539 	 80.5825
| 25> C 	 56.7569 	 10.1399 	 79.274
| 26> C 	 56.8111 	 11.25 	 78.4133
| 27> C 	 57.0474 	 12.4444 	 79.0124
| 28> H 	 56.6011 	 9.10664 	 79.1156
| 29> C 	 56.7141 	 11.0138 	 76.9481
| 30> H 	 56.0402 	 10.1013 	 76.8491
| 31> H 	 57.7362 	 10.8125 	 76.6208
| 32> C 	 56.0207 	 12.1263 	 76.1806
| 33> H 	 56.6717 	 13.0773 	 75.9955
| 34> H 	 55.0882 	 12.3969 	 76.7317
| 35> C 	 55.4997 	 11.556 	 74.8232
| 36> H 	 56.2458 	 11.2639 	 74.1047
| 37> H 	 54.7706 	 12.3086 	 74.3428
| 38> H 	 54.9314 	 10.6314 	 74.9132
| 39> H 	 57.681 	 17.1832 	 77.311
| 40> H 	 56.7936 	 9.82961 	 81.4191
| 41> *
| 42>
| 43>                          ****END OF INPUT****

CARTESIAN COORDINATES (ANGSTROEM)
---------------------------------
  S     56.671800   15.257800   78.779500
  C     57.754500   16.173700   77.658000
  C     58.756800   15.356200   77.232400
  C     58.644100   14.006900   77.683500
  C     57.492100   13.772500   78.433500
  H     59.353900   13.149200   77.547000
  C     59.894200   15.769100   76.445500
  H     59.581100   16.766600   75.999400
  H     59.941600   14.989400   75.753400
  C     61.220900   16.027900   77.266800
  H     61.216600   15.416600   78.134900
  H     62.022500   15.741300   76.698700
  C     61.329800   17.498200   77.682400
  H     60.543700   17.762700   78.324400
  H     62.320500   17.581700   78.179900
  H     61.507000   18.203600   76.844600
  S     57.032500   12.196600   80.709100
  C     56.879000   10.453900   80.582500
  C     56.756900   10.139900   79.274000
  C     56.811100   11.250000   78.413300
  C     57.047400   12.444400   79.012400
  H     56.601100    9.106640   79.115600
  C     56.714100   11.013800   76.948100
  H     56.040200   10.101300   76.849100
  H     57.736200   10.812500   76.620800
  C     56.020700   12.126300   76.180600
  H     56.671700   13.077300   75.995500
  H     55.088200   12.396900   76.731700
  C     55.499700   11.556000   74.823200
  H     56.245800   11.263900   74.104700
  H     54.770600   12.308600   74.342800
  H     54.931400   10.631400   74.913200
  H     57.681000   17.183200   77.311000
  H     56.793600    9.829610   81.419100

 Total Charge           Charge          ....    0
 Multiplicity           Mult            ....    1
 Number of Electrons    NEL             ....  134
 Basis Dimension        Dim             ....  322

ORBITAL ENERGIES
----------------

  NO   OCC          E(Eh)            E(eV)
   0   2.0000     -88.966833     -2420.9106
   1   2.0000     -88.957947     -2420.6688
   2   2.0000     -10.336919      -281.2819
   3   2.0000     -10.323904      -280.9277
   4   2.0000     -10.313492      -280.6444
   5   2.0000     -10.312045      -280.6050
   6   2.0000     -10.297339      -280.2049
   7   2.0000     -10.294705      -280.1332
   8   2.0000     -10.294317      -280.1226
   9   2.0000     -10.290144      -280.0091
  10   2.0000     -10.289516      -279.9920
  11   2.0000     -10.286405      -279.9073
  12   2.0000     -10.285809      -279.8911
  13   2.0000     -10.281274      -279.7677
  14   2.0000     -10.278457      -279.6910
  15   2.0000     -10.277245      -279.6580
  16   2.0000      -8.080822      -219.8903
  17   2.0000      -8.073822      -219.6999
  18   2.0000      -6.039450      -164.3418
  19   2.0000      -6.035447      -164.2329
  20   2.0000      -6.032288      -164.1469
  21   2.0000      -6.031473      -164.1247
  22   2.0000      -6.028073      -164.0322
  23   2.0000      -6.024637      -163.9387
  24   2.0000      -1.012312       -27.5464
  25   2.0000      -0.990270       -26.9466
  26   2.0000      -0.917634       -24.9701
  27   2.0000      -0.907657       -24.6986
  28   2.0000      -0.870614       -23.6906
  29   2.0000      -0.849652       -23.1202
  30   2.0000      -0.844297       -22.9745
  31   2.0000      -0.819623       -22.3031
  32   2.0000      -0.780112       -21.2279
  33   2.0000      -0.767939       -20.8967
  34   2.0000      -0.714749       -19.4493
  35   2.0000      -0.706489       -19.2245
  36   2.0000      -0.686267       -18.6743
  37   2.0000      -0.664667       -18.0865
  38   2.0000      -0.637113       -17.3367
  39   2.0000      -0.618266       -16.8239
  40   2.0000      -0.591478       -16.0949
  41   2.0000      -0.580259       -15.7897
  42   2.0000      -0.566282       -15.4093
  43   2.0000      -0.562989       -15.3197
  44   2.0000      -0.538373       -14.6499
  45   2.0000      -0.526968       -14.3395
  46   2.0000      -0.518136       -14.0992
  47   2.0000      -0.512986       -13.9590
  48   2.0000      -0.502129       -13.6636
  49   2.0000      -0.497118       -13.5273
  50   2.0000      -0.487774       -13.2730
  51   2.0000      -0.481405       -13.0997
  52   2.0000      -0.477233       -12.9862
  53   2.0000      -0.462114       -12.5748
  54   2.0000      -0.457922       -12.4607
  55   2.0000      -0.449252       -12.2248
  56   2.0000      -0.436250       -11.8710
  57   2.0000      -0.434661       -11.8277
  58   2.0000      -0.426242       -11.5986
  59   2.0000      -0.424616       -11.5544
  60   2.0000      -0.420892       -11.4530
  61   2.0000      -0.415363       -11.3026
  62   2.0000      -0.406116       -11.0510
  63   2.0000      -0.345044        -9.3891
  64   2.0000      -0.328329        -8.9343
  65   2.0000      -0.323758        -8.8099
  66   2.0000      -0.303197        -8.2504
  67   0.0000       0.036759         1.0003
  68   0.0000       0.066583         1.8118
  69   0.0000       0.111715         3.0399
  70   0.0000       0.122708         3.3390
  71   0.0000       0.135304         3.6818

MULLIKEN ATOMIC CHARGES
-----------------------
   0 S :    0.105475
   1 C :   -0.108981
   2 C :   -0.103675
   3 C :    0.012202
   4 C :   -0.163447
   5 H :    0.033702
   6 C :    0.065683
   7 H :    0.022712
   8 H :    0.015706
   9 C :   -0.002817
  10 H :    0.024248
  11 H :    0.008799
  12 C :   -0.065421
  13 H :    0.038976
  14 H :    0.031557
  15 H :    0.035989
  16 S :    0.088035
  17 C :   -0.080948
  18 C :   -0.024462
  19 C :   -0.046694
  20 C :   -0.125142
  21 H :    0.004645
  22 C :    0.056250
  23 H :    0.029784
  24 H :    0.042396
  25 C :   -0.107218
  26 H :    0.074712
  27 H :    0.040692
  28 C :   -0.064391
  29 H :    0.024318
  30 H :    0.042873
  31 H :    0.019714
  32 H :    0.034908
  33 H :    0.039820
Sum of atomic charges:   -0.0000000

LOEWDIN ATOMIC CHARGES
----------------------
   0 S :    0.391291
   1 C :   -0.186405
   2 C :   -0.068598
   3 C :   -0.075371
   4 C :   -0.185345
   5 H :    0.040923
   6 C :   -0.029486
   7 H :    0.036259
   8 H :    0.023855
   9 C :   -0.019530
  10 H :    0.023074
  11 H :    0.012681
  12 C :   -0.062759
  13 H :    0.019053
  14 H :    0.032524
  15 H :    0.028300
  16 S :    0.409542
  17 C :   -0.163551
  18 C :   -0.073011
  19 C :   -0.068663
  20 C :   -0.214601
  21 H :    0.029481
  22 C :   -0.037341
  23 H :    0.039575
  24 H :    0.034189
  25 C :   -0.051801
  26 H :    0.041776
  27 H :    0.032103
  28 C :   -0.076902
  29 H :    0.018303
  30 H :    0.033592
  31 H :    0.019356
  32 H :    0.026994
  33 H :    0.020494

  Mayer bond orders larger than 0.100000
B(  0-S ,  1-C ) :   1.1038 B(  0-S ,  4-C ) :   1.1689 B(  1-C ,  2-C ) :   1.6353
B(  1-C , 32-H ) :   0.9669 B(  2-C ,  3-C ) :   1.2065 B(  2-C ,  6-C ) :   1.0335
B(  3-C ,  4-C ) :   1.5946 B(  3-C ,  5-H ) :   0.9866 B(  4-C , 20-C ) :   0.9790
B(  6-C ,  7-H ) :   0.9413 B(  6-C ,  8-H ) :   0.9299 B(  6-C ,  9-C ) :   1.0470
B(  9-C , 10-H ) :   0.9593 B(  9-C , 11-H ) :   0.9548 B(  9-C , 12-C ) :   1.0882
B( 12-C , 13-H ) :   0.9775 B( 12-C , 14-H ) :   0.9704 B( 12-C , 15-H ) :   0.9740
B( 16-S , 17-C ) :   1.1664 B( 16-S , 20-C ) :   1.1425 B( 17-C , 18-C ) :   1.5968
B( 17-C , 33-H ) :   0.9767 B( 18-C , 19-C ) :   1.2374 B( 18-C , 21-H ) :   1.0085
B( 19-C , 20-C ) :   1.6083 B( 19-C , 22-C ) :   1.0316 B( 22-C , 23-H ) :   0.9424
B( 22-C , 24-H ) :   0.9213 B( 22-C , 25-C ) :   1.0710 B( 25-C , 26-H ) :   0.9404
B( 25-C , 27-H ) :   0.9594 B( 25-C , 28-C ) :   1.0770 B( 28-C , 29-H ) :   0.9746
B( 28-C , 30-H ) :   0.9763 B( 28-C , 31-H ) :   0.9735

Dispersion correction           -0.014891340
FINAL SINGLE POINT ENERGY     -1339.856398006858

DIPOLE MOMENT
-------------
                                X             Y             Z
Electronic contribution:     -9.89778      -3.32729      20.32163
Nuclear contribution   :     10.35700       3.03889     -20.73268
                        -----------------------------------------
Total Dipole Moment    :      0.45922      -0.28840      -0.41105
                        -----------------------------------------
Magnitude (a.u.)       :      0.68046
Magnitude (Debye)      :      1.72958

Rotational constants in cm-1:     0.019521     0.008525     0.007198
Rotational constants in MHz :   585.215771   255.561769   215.805138

                             ****ORCA TERMINATED NORMALLY****
TOTAL RUN TIME: 0 days 0 hours 0 minutes 30 seconds 719 msec
