                         Program Version 4.2.1 -  RELEASE  -
|  1> ! wB97X-D3 SP def2-SVP
|  2> %pal
|  3> nprocs 16
|  4> end
|  5>
|  6> * xyz 0 1
|  7> S 	 7.82121 	 -19.5742 	 82.8584
|  8> C 	 7.84109 	 -20.8028 	 84.0457
|  9> C 	 7.11068 	 -20.4372 	 85.1586
| 10> C 	 6.62799 	 -19.0864 	 85.1026
| 11> C 	 6.82646 	 -18.4674 	 83.8685
| 12> H 	 6.11152 	 -18.5564 	 85.8861
| 13> C 	 6.93425 	 -21.172 	 86.4886
| 14> H 	 7.37354 	 -20.5992 	 87.3143
| 15> H 	 7.44915 	 -22.1245 	 86.4436
| 16> C 	 5.49622 	 -21.4423 	 86.8818
| 17> H 	 5.48045 	 -21.8776 	 87.8862
| 18> H 	 5.09588 	 -20.4878 	 86.9082
| 19> C 	 4.69411 	 -22.389 	 85.9807
| 20> H 	 4.64084 	 -21.955 	 84.9713
| 21> H 	 5.2955 	 -23.3187 	 85.8405
| 22> H 	 3.74156 	 -22.5735 	 86.4362
| 23> S 	 5.1426 	 -16.9822 	 82.3351
| 24> C 	 5.1641 	 -15.2767 	 82.4242
| 25> C 	 6.15949 	 -14.8197 	 83.3532
| 26> C 	 6.81481 	 -15.8955 	 84.017
| 27> C 	 6.45072 	 -17.1224 	 83.4739
| 28> H 	 6.33542 	 -13.7323 	 83.4582
| 29> C 	 7.80942 	 -15.6995 	 85.2085
| 30> H 	 8.04251 	 -16.6604 	 85.5378
| 31> H 	 7.28683 	 -15.1486 	 86.0122
| 32> C 	 9.08891 	 -15.0054 	 84.8715
| 33> H 	 9.78869 	 -14.9827 	 85.7652
| 34> H 	 8.72335 	 -13.9678 	 84.6989
| 35> C 	 9.8131 	 -15.5094 	 83.6448
| 36> H 	 9.33113 	 -15.2197 	 82.688
| 37> H 	 9.9871 	 -16.5728 	 83.6969
| 38> H 	 10.8011 	 -15.0899 	 83.5974
| 39> H 	 8.4889 	 -21.6504 	 84.056
| 40> H 	 4.64743 	 -14.5523 	 81.7865
| 41> *
| 42>
| 43>                          ****END OF INPUT****

CARTESIAN COORDINATES (ANGSTROEM)
---------------------------------
  S      7.821210  -19.574200   82.858400
  C      7.841090  -20.802800   84.045700
  C      7.110680  -20.437200   85.158600
  C      6.627990  -19.086400   85.102600
  C      6.826460  -18.467400   83.868500
  H      6.111520  -18.556400   85.886100
  C      6.934250  -21.172000   86.488600
  H      7.373540  -20.599200   87.314300
  H      7.449150  -22.124500   86.443600
  C      5.496220  -21.442300   86.881800
  H      5.480450  -21.877600   87.886200
  H      5.095880  -20.487800   86.908200
  C      4.694110  -22.389000   85.980700
  H      4.640840  -21.955000   84.971300
  H      5.295500  -23.318700   85.840500
  H      3.741560  -22.573500   86.436200
  S      5.142600  -16.982200   82.335100
  C      5.164100  -15.276700   82.424200
  C      6.159490  -14.819700   83.353200
  C      6.814810  -15.895500   84.017000
  C      6.450720  -17.122400   83.473900
  H      6.335420  -13.732300   83.458200
  C      7.809420  -15.699500   85.208500
  H      8.042510  -16.660400   85.537800
  H      7.286830  -15.148600   86.012200
  C      9.088910  -15.005400   84.871500
  H      9.788690  -14.982700   85.765200
  H      8.723350  -13.967800   84.698900
  C      9.813100  -15.509400   83.644800
  H      9.331130  -15.219700   82.688000
  H      9.987100  -16.572800   83.696900
  H     10.801100  -15.089900   83.597400
  H      8.488900  -21.650400   84.056000
  H      4.647430  -14.552300   81.786500

 Total Charge           Charge          ....    0
 Multiplicity           Mult            ....    1
 Number of Electrons    NEL             ....  134
 Basis Dimension        Dim             ....  322

ORBITAL ENERGIES
----------------

  NO   OCC          E(Eh)            E(eV)
   0   2.0000     -88.969621     -2420.9865
   1   2.0000     -88.966440     -2420.8999
   2   2.0000     -10.332469      -281.1608
   3   2.0000     -10.324611      -280.9470
   4   2.0000     -10.320701      -280.8405
   5   2.0000     -10.313991      -280.6580
   6   2.0000     -10.307505      -280.4815
   7   2.0000     -10.301392      -280.3151
   8   2.0000     -10.300086      -280.2796
   9   2.0000     -10.296474      -280.1813
  10   2.0000     -10.289094      -279.9805
  11   2.0000     -10.286846      -279.9193
  12   2.0000     -10.286632      -279.9135
  13   2.0000     -10.276261      -279.6313
  14   2.0000     -10.274943      -279.5954
  15   2.0000     -10.269370      -279.4438
  16   2.0000      -8.084894      -220.0012
  17   2.0000      -8.081044      -219.8964
  18   2.0000      -6.043236      -164.4448
  19   2.0000      -6.039571      -164.3451
  20   2.0000      -6.039178      -164.3344
  21   2.0000      -6.035954      -164.2467
  22   2.0000      -6.035384      -164.2312
  23   2.0000      -6.031967      -164.1382
  24   2.0000      -1.006757       -27.3952
  25   2.0000      -0.985605       -26.8197
  26   2.0000      -0.913056       -24.8455
  27   2.0000      -0.912833       -24.8395
  28   2.0000      -0.869930       -23.6720
  29   2.0000      -0.848296       -23.0833
  30   2.0000      -0.844213       -22.9722
  31   2.0000      -0.808749       -22.0072
  32   2.0000      -0.787276       -21.4229
  33   2.0000      -0.775371       -21.0989
  34   2.0000      -0.706226       -19.2174
  35   2.0000      -0.690740       -18.7960
  36   2.0000      -0.689990       -18.7756
  37   2.0000      -0.654530       -17.8107
  38   2.0000      -0.643055       -17.4984
  39   2.0000      -0.623274       -16.9602
  40   2.0000      -0.594214       -16.1694
  41   2.0000      -0.566755       -15.4222
  42   2.0000      -0.556403       -15.1405
  43   2.0000      -0.553038       -15.0489
  44   2.0000      -0.544453       -14.8153
  45   2.0000      -0.541901       -14.7459
  46   2.0000      -0.516197       -14.0464
  47   2.0000      -0.512370       -13.9423
  48   2.0000      -0.504681       -13.7331
  49   2.0000      -0.496942       -13.5225
  50   2.0000      -0.493237       -13.4217
  51   2.0000      -0.476607       -12.9691
  52   2.0000      -0.471695       -12.8355
  53   2.0000      -0.465570       -12.6688
  54   2.0000      -0.454242       -12.3605
  55   2.0000      -0.444938       -12.1074
  56   2.0000      -0.443650       -12.0723
  57   2.0000      -0.437333       -11.9004
  58   2.0000      -0.433480       -11.7956
  59   2.0000      -0.421535       -11.4705
  60   2.0000      -0.418211       -11.3801
  61   2.0000      -0.413551       -11.2533
  62   2.0000      -0.408722       -11.1219
  63   2.0000      -0.340263        -9.2590
  64   2.0000      -0.333888        -9.0855
  65   2.0000      -0.326352        -8.8805
  66   2.0000      -0.299749        -8.1566
  67   0.0000       0.037384         1.0173
  68   0.0000       0.056293         1.5318
  69   0.0000       0.113692         3.0937
  70   0.0000       0.116396         3.1673
  71   0.0000       0.132756         3.6125

MULLIKEN ATOMIC CHARGES
-----------------------
   0 S :    0.113813
   1 C :   -0.099416
   2 C :   -0.101658
   3 C :    0.039665
   4 C :   -0.175786
   5 H :    0.022410
   6 C :    0.068152
   7 H :    0.038136
   8 H :    0.002896
   9 C :   -0.069733
  10 H :    0.028067
  11 H :    0.005596
  12 C :   -0.042108
  13 H :    0.042957
  14 H :    0.024922
  15 H :    0.040506
  16 S :    0.139743
  17 C :   -0.103897
  18 C :   -0.079943
  19 C :   -0.035586
  20 C :   -0.192039
  21 H :    0.034928
  22 C :    0.138459
  23 H :   -0.002760
  24 H :    0.038549
  25 C :   -0.118266
  26 H :    0.042427
  27 H :    0.023190
  28 C :   -0.025465
  29 H :    0.044981
  30 H :    0.026943
  31 H :    0.021856
  32 H :    0.043812
  33 H :    0.064650
Sum of atomic charges:    0.0000000

LOEWDIN ATOMIC CHARGES
----------------------
   0 S :    0.406178
   1 C :   -0.204454
   2 C :   -0.069428
   3 C :   -0.052859
   4 C :   -0.189435
   5 H :    0.031065
   6 C :   -0.030181
   7 H :    0.035646
   8 H :    0.020432
   9 C :   -0.039645
  10 H :    0.025716
  11 H :    0.009547
  12 C :   -0.061769
  13 H :    0.029322
  14 H :    0.027036
  15 H :    0.024836
  16 S :    0.444215
  17 C :   -0.208520
  18 C :   -0.078834
  19 C :   -0.046635
  20 C :   -0.217285
  21 H :    0.035241
  22 C :   -0.023492
  23 H :    0.015289
  24 H :    0.036866
  25 C :   -0.049516
  26 H :    0.032011
  27 H :    0.022607
  28 C :   -0.067218
  29 H :    0.032844
  30 H :    0.023578
  31 H :    0.024620
  32 H :    0.028459
  33 H :    0.033761

  Mayer bond orders larger than 0.100000
B(  0-S ,  1-C ) :   1.1516 B(  0-S ,  4-C ) :   1.1425 B(  1-C ,  2-C ) :   1.6081
B(  1-C , 32-H ) :   0.9672 B(  2-C ,  3-C ) :   1.2317 B(  2-C ,  6-C ) :   1.0263
B(  3-C ,  4-C ) :   1.5804 B(  3-C ,  5-H ) :   0.9930 B(  4-C , 20-C ) :   1.0209
B(  6-C ,  7-H ) :   0.9429 B(  6-C ,  8-H ) :   0.9379 B(  6-C ,  9-C ) :   1.0761
B(  9-C , 10-H ) :   0.9534 B(  9-C , 11-H ) :   0.9548 B(  9-C , 12-C ) :   1.0796
B( 12-C , 13-H ) :   0.9736 B( 12-C , 14-H ) :   0.9740 B( 12-C , 15-H ) :   0.9744
B( 16-S , 17-C ) :   1.1842 B( 16-S , 20-C ) :   1.1680 B( 17-C , 18-C ) :   1.5760
B( 17-C , 20-C ) :   0.1111 B( 17-C , 33-H ) :   0.9649 B( 18-C , 19-C ) :   1.2576
B( 18-C , 21-H ) :   0.9848 B( 19-C , 20-C ) :   1.5760 B( 19-C , 22-C ) :   1.0232
B( 22-C , 23-H ) :   0.9214 B( 22-C , 24-H ) :   0.9409 B( 22-C , 25-C ) :   1.0751
B( 25-C , 26-H ) :   0.9554 B( 25-C , 27-H ) :   0.9550 B( 25-C , 28-C ) :   1.0866
B( 28-C , 29-H ) :   0.9668 B( 28-C , 30-H ) :   0.9741 B( 28-C , 31-H ) :   0.9699

Dispersion correction           -0.015121687
FINAL SINGLE POINT ENERGY     -1339.885476628739

DIPOLE MOMENT
-------------
                                X             Y             Z
Electronic contribution:     -5.32805       2.46616     -16.95138
Nuclear contribution   :      5.48721      -2.28917      17.51585
                        -----------------------------------------
Total Dipole Moment    :      0.15916       0.17699       0.56447
                        -----------------------------------------
Magnitude (a.u.)       :      0.61261
Magnitude (Debye)      :      1.55712

Rotational constants in cm-1:     0.020436     0.008358     0.007540
Rotational constants in MHz :   612.646692   250.571176   226.042062

                             ****ORCA TERMINATED NORMALLY****
TOTAL RUN TIME: 0 days 0 hours 0 minutes 34 seconds 646 msec
