                         Program Version 4.2.1 -  RELEASE  -
|  1> ! wB97X-D3 SP def2-SVP
|  2> %pal
|  3> nprocs 16
|  4> end
|  5>
|  6> * xyz 0 1
|  7> S 	 -26.0646 	 63.585 	 104.213
|  8> C 	 -27.6845 	 64.377 	 104.057
|  9> C 	 -28.6971 	 63.4825 	 104.454
| 10> C 	 -28.1724 	 62.262 	 104.951
| 11> C 	 -26.8189 	 62.0671 	 104.732
| 12> H 	 -28.8301 	 61.3952 	 105.168
| 13> C 	 -30.2033 	 63.7184 	 104.479
| 14> H 	 -30.8279 	 63.04 	 103.889
| 15> H 	 -30.4578 	 64.6022 	 104.045
| 16> C 	 -30.786 	 63.8432 	 105.927
| 17> H 	 -30.5504 	 62.9051 	 106.549
| 18> H 	 -30.2529 	 64.7135 	 106.378
| 19> C 	 -32.2893 	 64.0534 	 106.05
| 20> H 	 -32.6439 	 63.9696 	 107.08
| 21> H 	 -32.5378 	 64.9951 	 105.599
| 22> H 	 -32.8673 	 63.216 	 105.584
| 23> S 	 -25.2188 	 60.5138 	 106.366
| 24> C 	 -24.6285 	 58.965 	 105.628
| 25> C 	 -24.9335 	 58.8227 	 104.293
| 26> C 	 -25.7858 	 59.8364 	 103.825
| 27> C 	 -26.0783 	 60.8165 	 104.806
| 28> H 	 -24.5274 	 57.9735 	 103.747
| 29> C 	 -26.0691 	 60.0787 	 102.358
| 30> H 	 -25.4496 	 60.8948 	 101.876
| 31> H 	 -27.122 	 60.4188 	 102.383
| 32> C 	 -26.0848 	 58.7229 	 101.573
| 33> H 	 -25.0861 	 58.1583 	 101.682
| 34> H 	 -26.1081 	 58.9638 	 100.522
| 35> C 	 -27.2751 	 57.7753 	 101.949
| 36> H 	 -27.2865 	 57.4078 	 102.934
| 37> H 	 -27.2401 	 56.9025 	 101.279
| 38> H 	 -28.205 	 58.2977 	 101.795
| 39> H 	 -27.7788 	 65.3814 	 103.612
| 40> H 	 -24.2223 	 58.17 	 106.218
| 41> *
| 42>
| 43>                          ****END OF INPUT****

CARTESIAN COORDINATES (ANGSTROEM)
---------------------------------
  S    -26.064600   63.585000  104.213000
  C    -27.684500   64.377000  104.057000
  C    -28.697100   63.482500  104.454000
  C    -28.172400   62.262000  104.951000
  C    -26.818900   62.067100  104.732000
  H    -28.830100   61.395200  105.168000
  C    -30.203300   63.718400  104.479000
  H    -30.827900   63.040000  103.889000
  H    -30.457800   64.602200  104.045000
  C    -30.786000   63.843200  105.927000
  H    -30.550400   62.905100  106.549000
  H    -30.252900   64.713500  106.378000
  C    -32.289300   64.053400  106.050000
  H    -32.643900   63.969600  107.080000
  H    -32.537800   64.995100  105.599000
  H    -32.867300   63.216000  105.584000
  S    -25.218800   60.513800  106.366000
  C    -24.628500   58.965000  105.628000
  C    -24.933500   58.822700  104.293000
  C    -25.785800   59.836400  103.825000
  C    -26.078300   60.816500  104.806000
  H    -24.527400   57.973500  103.747000
  C    -26.069100   60.078700  102.358000
  H    -25.449600   60.894800  101.876000
  H    -27.122000   60.418800  102.383000
  C    -26.084800   58.722900  101.573000
  H    -25.086100   58.158300  101.682000
  H    -26.108100   58.963800  100.522000
  C    -27.275100   57.775300  101.949000
  H    -27.286500   57.407800  102.934000
  H    -27.240100   56.902500  101.279000
  H    -28.205000   58.297700  101.795000
  H    -27.778800   65.381400  103.612000
  H    -24.222300   58.170000  106.218000

 Total Charge           Charge          ....    0
 Multiplicity           Mult            ....    1
 Number of Electrons    NEL             ....  134
 Basis Dimension        Dim             ....  322

ORBITAL ENERGIES
----------------

  NO   OCC          E(Eh)            E(eV)
   0   2.0000     -88.966522     -2420.9021
   1   2.0000     -88.965945     -2420.8864
   2   2.0000     -10.330725      -281.1133
   3   2.0000     -10.329968      -281.0927
   4   2.0000     -10.326286      -280.9925
   5   2.0000     -10.319676      -280.8127
   6   2.0000     -10.308487      -280.5082
   7   2.0000     -10.305688      -280.4320
   8   2.0000     -10.296798      -280.1901
   9   2.0000     -10.295596      -280.1574
  10   2.0000     -10.295165      -280.1457
  11   2.0000     -10.294272      -280.1214
  12   2.0000     -10.293600      -280.1031
  13   2.0000     -10.289295      -279.9859
  14   2.0000     -10.280515      -279.7470
  15   2.0000     -10.276621      -279.6411
  16   2.0000      -8.079517      -219.8548
  17   2.0000      -8.079433      -219.8525
  18   2.0000      -6.037977      -164.3017
  19   2.0000      -6.037934      -164.3005
  20   2.0000      -6.034455      -164.2059
  21   2.0000      -6.034122      -164.1968
  22   2.0000      -6.030280      -164.0923
  23   2.0000      -6.030210      -164.0904
  24   2.0000      -0.995763       -27.0961
  25   2.0000      -0.973622       -26.4936
  26   2.0000      -0.907835       -24.7034
  27   2.0000      -0.900385       -24.5007
  28   2.0000      -0.865542       -23.5526
  29   2.0000      -0.844465       -22.9791
  30   2.0000      -0.841310       -22.8932
  31   2.0000      -0.812648       -22.1133
  32   2.0000      -0.784204       -21.3393
  33   2.0000      -0.768239       -20.9049
  34   2.0000      -0.705470       -19.1968
  35   2.0000      -0.696778       -18.9603
  36   2.0000      -0.689481       -18.7617
  37   2.0000      -0.655330       -17.8324
  38   2.0000      -0.641462       -17.4551
  39   2.0000      -0.619420       -16.8553
  40   2.0000      -0.593751       -16.1568
  41   2.0000      -0.564471       -15.3600
  42   2.0000      -0.560389       -15.2490
  43   2.0000      -0.549819       -14.9613
  44   2.0000      -0.530451       -14.4343
  45   2.0000      -0.522889       -14.2285
  46   2.0000      -0.515674       -14.0322
  47   2.0000      -0.509064       -13.8523
  48   2.0000      -0.501306       -13.6412
  49   2.0000      -0.492534       -13.4025
  50   2.0000      -0.490327       -13.3425
  51   2.0000      -0.482715       -13.1353
  52   2.0000      -0.467404       -12.7187
  53   2.0000      -0.458658       -12.4807
  54   2.0000      -0.454179       -12.3588
  55   2.0000      -0.450661       -12.2631
  56   2.0000      -0.444376       -12.0921
  57   2.0000      -0.438387       -11.9291
  58   2.0000      -0.424515       -11.5516
  59   2.0000      -0.422625       -11.5002
  60   2.0000      -0.418582       -11.3902
  61   2.0000      -0.417901       -11.3717
  62   2.0000      -0.412633       -11.2283
  63   2.0000      -0.337257        -9.1772
  64   2.0000      -0.332190        -9.0393
  65   2.0000      -0.315111        -8.5746
  66   2.0000      -0.305145        -8.3034
  67   0.0000       0.034411         0.9364
  68   0.0000       0.042890         1.1671
  69   0.0000       0.101678         2.7668
  70   0.0000       0.114519         3.1162
  71   0.0000       0.124340         3.3835

MULLIKEN ATOMIC CHARGES
-----------------------
   0 S :    0.098703
   1 C :   -0.144429
   2 C :   -0.076021
   3 C :    0.050024
   4 C :   -0.177795
   5 H :    0.033002
   6 C :    0.124224
   7 H :    0.025420
   8 H :   -0.023727
   9 C :   -0.145076
  10 H :    0.041640
  11 H :    0.040887
  12 C :   -0.036226
  13 H :    0.038643
  14 H :    0.031317
  15 H :    0.028883
  16 S :    0.097020
  17 C :   -0.089303
  18 C :   -0.041787
  19 C :   -0.013612
  20 C :   -0.177728
  21 H :    0.028181
  22 C :    0.056774
  23 H :    0.068246
  24 H :    0.032494
  25 C :   -0.113857
  26 H :    0.035347
  27 H :    0.026885
  28 C :   -0.033149
  29 H :    0.032321
  30 H :    0.036177
  31 H :    0.028318
  32 H :    0.066120
  33 H :    0.052083
Sum of atomic charges:    0.0000000

LOEWDIN ATOMIC CHARGES
----------------------
   0 S :    0.373049
   1 C :   -0.182479
   2 C :   -0.058701
   3 C :   -0.060778
   4 C :   -0.194502
   5 H :    0.039573
   6 C :   -0.029143
   7 H :    0.031377
   8 H :    0.013528
   9 C :   -0.045039
  10 H :    0.027498
  11 H :    0.028607
  12 C :   -0.070093
  13 H :    0.031000
  14 H :    0.020530
  15 H :    0.028493
  16 S :    0.363269
  17 C :   -0.155761
  18 C :   -0.072801
  19 C :   -0.054177
  20 C :   -0.185476
  21 H :    0.036999
  22 C :   -0.037225
  23 H :    0.043787
  24 H :    0.037011
  25 C :   -0.046072
  26 H :    0.025508
  27 H :    0.021544
  28 C :   -0.059943
  29 H :    0.018764
  30 H :    0.030877
  31 H :    0.024332
  32 H :    0.033590
  33 H :    0.022853

  Mayer bond orders larger than 0.100000
B(  0-S ,  1-C ) :   1.1308 B(  0-S ,  4-C ) :   1.1371 B(  1-C ,  2-C ) :   1.6039
B(  1-C ,  4-C ) :   0.1019 B(  1-C , 32-H ) :   0.9674 B(  2-C ,  3-C ) :   1.2411
B(  2-C ,  6-C ) :   1.0385 B(  3-C ,  4-C ) :   1.6002 B(  3-C ,  5-H ) :   0.9784
B(  4-C , 20-C ) :   1.0226 B(  6-C ,  7-H ) :   0.9392 B(  6-C ,  8-H ) :   0.9293
B(  6-C ,  9-C ) :   1.0431 B(  9-C , 10-H ) :   0.9592 B(  9-C , 11-H ) :   0.9564
B(  9-C , 12-C ) :   1.0871 B( 12-C , 13-H ) :   0.9726 B( 12-C , 14-H ) :   0.9748
B( 12-C , 15-H ) :   0.9710 B( 16-S , 17-C ) :   1.1436 B( 16-S , 20-C ) :   1.1371
B( 17-C , 18-C ) :   1.6262 B( 17-C , 20-C ) :   0.1122 B( 17-C , 33-H ) :   0.9638
B( 18-C , 19-C ) :   1.2331 B( 18-C , 21-H ) :   0.9843 B( 19-C , 20-C ) :   1.5974
B( 19-C , 22-C ) :   1.0227 B( 22-C , 23-H ) :   0.9421 B( 22-C , 24-H ) :   0.9260
B( 22-C , 25-C ) :   1.0703 B( 25-C , 26-H ) :   0.9512 B( 25-C , 27-H ) :   0.9567
B( 25-C , 28-C ) :   1.0690 B( 28-C , 29-H ) :   0.9765 B( 28-C , 30-H ) :   0.9748
B( 28-C , 31-H ) :   0.9745

Dispersion correction           -0.014171909
FINAL SINGLE POINT ENERGY     -1339.863887322590

DIPOLE MOMENT
-------------
                                X             Y             Z
Electronic contribution:     21.99748       5.27765       9.14274
Nuclear contribution   :    -22.49855      -5.51028      -9.56403
                        -----------------------------------------
Total Dipole Moment    :     -0.50107      -0.23264      -0.42129
                        -----------------------------------------
Magnitude (a.u.)       :      0.69475
Magnitude (Debye)      :      1.76591

Rotational constants in cm-1:     0.019120     0.007372     0.006731
Rotational constants in MHz :   573.216123   221.007239   201.781731

                             ****ORCA TERMINATED NORMALLY****
TOTAL RUN TIME: 0 days 0 hours 0 minutes 29 seconds 332 msec
