                         Program Version 4.2.1 -  RELEASE  -
|  1> ! wB97X-D3 SP def2-SVP
|  2> %pal
|  3> nprocs 16
|  4> end
|  5>
|  6> * xyz 0 1
|  7> S 	 -64.7473 	 58.6074 	 125.052
|  8> C 	 -66.0974 	 58.117 	 126.073
|  9> C 	 -65.8049 	 56.8833 	 126.607
| 10> C 	 -64.4931 	 56.406 	 126.289
| 11> C 	 -63.8074 	 57.205 	 125.441
| 12> H 	 -64.0316 	 55.5778 	 126.736
| 13> C 	 -66.7102 	 56.2543 	 127.636
| 14> H 	 -67.1145 	 57.1109 	 128.141
| 15> H 	 -66.031 	 55.7569 	 128.293
| 16> C 	 -67.8807 	 55.3711 	 127.037
| 17> H 	 -68.5441 	 56.0615 	 126.589
| 18> H 	 -67.5599 	 54.7492 	 126.187
| 19> C 	 -68.6257 	 54.4527 	 128.018
| 20> H 	 -68.8066 	 55.0607 	 128.872
| 21> H 	 -69.571 	 54.1174 	 127.572
| 22> H 	 -68.0161 	 53.5021 	 128.337
| 23> S 	 -61.4851 	 58.4489 	 124.557
| 24> C 	 -60.0831 	 57.4716 	 124.191
| 25> C 	 -60.2223 	 56.171 	 124.635
| 26> C 	 -61.5561 	 55.8701 	 125.003
| 27> C 	 -62.3681 	 57.0151 	 125.064
| 28> H 	 -59.3631 	 55.525 	 124.547
| 29> C 	 -62.0429 	 54.4967 	 125.418
| 30> H 	 -62.8932 	 54.3836 	 124.73
| 31> H 	 -62.3121 	 54.5375 	 126.433
| 32> C 	 -61.1002 	 53.322 	 125.267
| 33> H 	 -60.0658 	 53.6524 	 125.616
| 34> H 	 -61.0262 	 53.1546 	 124.198
| 35> C 	 -61.3478 	 52.1083 	 126.105
| 36> H 	 -61.9594 	 52.393 	 126.971
| 37> H 	 -60.4998 	 51.5364 	 126.474
| 38> H 	 -61.8816 	 51.3504 	 125.454
| 39> H 	 -66.9771 	 58.7371 	 126.293
| 40> H 	 -59.1527 	 57.8919 	 123.86
| 41> *
| 42>
| 43>                          ****END OF INPUT****

CARTESIAN COORDINATES (ANGSTROEM)
---------------------------------
  S    -64.747300   58.607400  125.052000
  C    -66.097400   58.117000  126.073000
  C    -65.804900   56.883300  126.607000
  C    -64.493100   56.406000  126.289000
  C    -63.807400   57.205000  125.441000
  H    -64.031600   55.577800  126.736000
  C    -66.710200   56.254300  127.636000
  H    -67.114500   57.110900  128.141000
  H    -66.031000   55.756900  128.293000
  C    -67.880700   55.371100  127.037000
  H    -68.544100   56.061500  126.589000
  H    -67.559900   54.749200  126.187000
  C    -68.625700   54.452700  128.018000
  H    -68.806600   55.060700  128.872000
  H    -69.571000   54.117400  127.572000
  H    -68.016100   53.502100  128.337000
  S    -61.485100   58.448900  124.557000
  C    -60.083100   57.471600  124.191000
  C    -60.222300   56.171000  124.635000
  C    -61.556100   55.870100  125.003000
  C    -62.368100   57.015100  125.064000
  H    -59.363100   55.525000  124.547000
  C    -62.042900   54.496700  125.418000
  H    -62.893200   54.383600  124.730000
  H    -62.312100   54.537500  126.433000
  C    -61.100200   53.322000  125.267000
  H    -60.065800   53.652400  125.616000
  H    -61.026200   53.154600  124.198000
  C    -61.347800   52.108300  126.105000
  H    -61.959400   52.393000  126.971000
  H    -60.499800   51.536400  126.474000
  H    -61.881600   51.350400  125.454000
  H    -66.977100   58.737100  126.293000
  H    -59.152700   57.891900  123.860000

 Total Charge           Charge          ....    0
 Multiplicity           Mult            ....    1
 Number of Electrons    NEL             ....  134
 Basis Dimension        Dim             ....  322

ORBITAL ENERGIES
----------------

  NO   OCC          E(Eh)            E(eV)
   0   2.0000     -88.966717     -2420.9074
   1   2.0000     -88.963524     -2420.8206
   2   2.0000     -10.331258      -281.1278
   3   2.0000     -10.329203      -281.0719
   4   2.0000     -10.315278      -280.6930
   5   2.0000     -10.314595      -280.6744
   6   2.0000     -10.306621      -280.4574
   7   2.0000     -10.298013      -280.2232
   8   2.0000     -10.293880      -280.1107
   9   2.0000     -10.290188      -280.0102
  10   2.0000     -10.288959      -279.9768
  11   2.0000     -10.288573      -279.9663
  12   2.0000     -10.286616      -279.9130
  13   2.0000     -10.285000      -279.8691
  14   2.0000     -10.284616      -279.8586
  15   2.0000     -10.284408      -279.8530
  16   2.0000      -8.081300      -219.9034
  17   2.0000      -8.078384      -219.8240
  18   2.0000      -6.039751      -164.3500
  19   2.0000      -6.037031      -164.2760
  20   2.0000      -6.035847      -164.2437
  21   2.0000      -6.032836      -164.1618
  22   2.0000      -6.032137      -164.1428
  23   2.0000      -6.029025      -164.0581
  24   2.0000      -1.007994       -27.4289
  25   2.0000      -0.986615       -26.8472
  26   2.0000      -0.918294       -24.9881
  27   2.0000      -0.907147       -24.6847
  28   2.0000      -0.867362       -23.6021
  29   2.0000      -0.857593       -23.3363
  30   2.0000      -0.845849       -23.0167
  31   2.0000      -0.820448       -22.3255
  32   2.0000      -0.784470       -21.3465
  33   2.0000      -0.769857       -20.9489
  34   2.0000      -0.705372       -19.1941
  35   2.0000      -0.700638       -19.0653
  36   2.0000      -0.697629       -18.9834
  37   2.0000      -0.652520       -17.7560
  38   2.0000      -0.641017       -17.4430
  39   2.0000      -0.623732       -16.9726
  40   2.0000      -0.599304       -16.3079
  41   2.0000      -0.582223       -15.8431
  42   2.0000      -0.565255       -15.3814
  43   2.0000      -0.557513       -15.1707
  44   2.0000      -0.530320       -14.4307
  45   2.0000      -0.526586       -14.3291
  46   2.0000      -0.520586       -14.1659
  47   2.0000      -0.516404       -14.0521
  48   2.0000      -0.507441       -13.8082
  49   2.0000      -0.497707       -13.5433
  50   2.0000      -0.494988       -13.4693
  51   2.0000      -0.485388       -13.2081
  52   2.0000      -0.471403       -12.8275
  53   2.0000      -0.466251       -12.6873
  54   2.0000      -0.459750       -12.5104
  55   2.0000      -0.455629       -12.3983
  56   2.0000      -0.452076       -12.3016
  57   2.0000      -0.436462       -11.8767
  58   2.0000      -0.435645       -11.8545
  59   2.0000      -0.426406       -11.6031
  60   2.0000      -0.417794       -11.3687
  61   2.0000      -0.410755       -11.1772
  62   2.0000      -0.399407       -10.8684
  63   2.0000      -0.356910        -9.7120
  64   2.0000      -0.334510        -9.1025
  65   2.0000      -0.327524        -8.9124
  66   2.0000      -0.285276        -7.7628
  67   0.0000       0.022894         0.6230
  68   0.0000       0.087032         2.3682
  69   0.0000       0.100896         2.7455
  70   0.0000       0.128907         3.5077
  71   0.0000       0.135010         3.6738

MULLIKEN ATOMIC CHARGES
-----------------------
   0 S :    0.092939
   1 C :   -0.141509
   2 C :   -0.086620
   3 C :   -0.001127
   4 C :   -0.081382
   5 H :   -0.026664
   6 C :    0.086870
   7 H :    0.020172
   8 H :    0.013765
   9 C :   -0.062146
  10 H :    0.012607
  11 H :    0.032708
  12 C :   -0.056302
  13 H :    0.025204
  14 H :    0.040583
  15 H :    0.049107
  16 S :    0.103852
  17 C :   -0.085828
  18 C :   -0.041526
  19 C :   -0.079078
  20 C :   -0.138146
  21 H :    0.022513
  22 C :    0.068467
  23 H :    0.047988
  24 H :    0.040182
  25 C :   -0.097963
  26 H :    0.031100
  27 H :    0.033585
  28 C :   -0.039867
  29 H :    0.030098
  30 H :    0.039057
  31 H :    0.036113
  32 H :    0.061843
  33 H :    0.049405
Sum of atomic charges:    0.0000000

LOEWDIN ATOMIC CHARGES
----------------------
   0 S :    0.396909
   1 C :   -0.199313
   2 C :   -0.059246
   3 C :   -0.069920
   4 C :   -0.189127
   5 H :    0.020597
   6 C :   -0.025906
   7 H :    0.029332
   8 H :    0.024030
   9 C :   -0.039121
  10 H :    0.018007
  11 H :    0.025765
  12 C :   -0.069066
  13 H :    0.018074
  14 H :    0.028670
  15 H :    0.036533
  16 S :    0.404331
  17 C :   -0.180140
  18 C :   -0.073450
  19 C :   -0.054994
  20 C :   -0.189749
  21 H :    0.032692
  22 C :   -0.031355
  23 H :    0.043556
  24 H :    0.021918
  25 C :   -0.051703
  26 H :    0.028840
  27 H :    0.024893
  28 C :   -0.069415
  29 H :    0.026831
  30 H :    0.027992
  31 H :    0.033285
  32 H :    0.036014
  33 H :    0.024237

  Mayer bond orders larger than 0.100000
B(  0-S ,  1-C ) :   1.1243 B(  0-S ,  4-C ) :   1.1468 B(  1-C ,  2-C ) :   1.6087
B(  1-C , 32-H ) :   0.9685 B(  2-C ,  3-C ) :   1.2346 B(  2-C ,  6-C ) :   1.0184
B(  3-C ,  4-C ) :   1.5683 B(  3-C ,  5-H ) :   1.0054 B(  4-C , 20-C ) :   1.0538
B(  6-C ,  7-H ) :   0.9414 B(  6-C ,  8-H ) :   0.9461 B(  6-C ,  9-C ) :   1.0414
B(  9-C , 10-H ) :   0.9529 B(  9-C , 11-H ) :   0.9628 B(  9-C , 12-C ) :   1.0826
B( 12-C , 13-H ) :   0.9748 B( 12-C , 14-H ) :   0.9735 B( 12-C , 15-H ) :   0.9759
B( 16-S , 17-C ) :   1.1652 B( 16-S , 20-C ) :   1.1435 B( 17-C , 18-C ) :   1.5976
B( 17-C , 20-C ) :   0.1023 B( 17-C , 33-H ) :   0.9647 B( 18-C , 19-C ) :   1.2585
B( 18-C , 21-H ) :   0.9869 B( 19-C , 20-C ) :   1.5833 B( 19-C , 22-C ) :   1.0205
B( 22-C , 23-H ) :   0.9244 B( 22-C , 24-H ) :   0.9227 B( 22-C , 25-C ) :   1.0940
B( 25-C , 26-H ) :   0.9481 B( 25-C , 27-H ) :   0.9547 B( 25-C , 28-C ) :   1.0722
B( 28-C , 29-H ) :   0.9724 B( 28-C , 30-H ) :   0.9782 B( 28-C , 31-H ) :   0.9727

Dispersion correction           -0.013115715
FINAL SINGLE POINT ENERGY     -1339.870070473703

DIPOLE MOMENT
-------------
                                X             Y             Z
Electronic contribution:     10.30140      28.06778     -12.18567
Nuclear contribution   :    -10.28817     -28.66974      12.55916
                        -----------------------------------------
Total Dipole Moment    :      0.01323      -0.60197       0.37349
                        -----------------------------------------
Magnitude (a.u.)       :      0.70854
Magnitude (Debye)      :      1.80097

Rotational constants in cm-1:     0.016759     0.008583     0.005799
Rotational constants in MHz :   502.431013   257.324556   173.849379

                             ****ORCA TERMINATED NORMALLY****
TOTAL RUN TIME: 0 days 0 hours 0 minutes 32 seconds 993 msec
