                         Program Version 4.2.1 -  RELEASE  -
|  1> ! wB97X-D3 SP def2-SVP
|  2> %pal
|  3> nprocs 16
|  4> end
|  5>
|  6> * xyz 0 1
|  7> S 	 -48.0851 	 30.1863 	 92.3165
|  8> C 	 -48.3889 	 28.48 	 92.3447
|  9> C 	 -48.1847 	 27.9486 	 91.117
| 10> C 	 -47.8639 	 28.9352 	 90.1454
| 11> C 	 -48.0303 	 30.2417 	 90.5962
| 12> H 	 -47.6533 	 28.722 	 89.1324
| 13> C 	 -48.1776 	 26.4919 	 90.8439
| 14> H 	 -47.779 	 25.9371 	 91.6976
| 15> H 	 -47.53 	 26.2518 	 90.0804
| 16> C 	 -49.5232 	 25.8351 	 90.3717
| 17> H 	 -49.9535 	 26.1578 	 89.4185
| 18> H 	 -49.4222 	 24.7774 	 90.3221
| 19> C 	 -50.5271 	 26.0793 	 91.5189
| 20> H 	 -50.9245 	 27.1612 	 91.6016
| 21> H 	 -51.3134 	 25.3301 	 91.517
| 22> H 	 -49.9622 	 25.9256 	 92.4337
| 23> S 	 -46.0793 	 32.1036 	 89.8396
| 24> C 	 -46.3603 	 33.0311 	 88.3701
| 25> C 	 -47.6474 	 32.9103 	 87.9581
| 26> C 	 -48.4419 	 31.9651 	 88.7061
| 27> C 	 -47.7763 	 31.4403 	 89.8482
| 28> H 	 -48.0753 	 33.4013 	 87.1507
| 29> C 	 -49.7304 	 31.4429 	 88.3002
| 30> H 	 -49.6168 	 30.354 	 88.2537
| 31> H 	 -49.8882 	 31.7051 	 87.2391
| 32> C 	 -50.9533 	 31.9575 	 89.1359
| 33> H 	 -51.1031 	 33.0381 	 88.9909
| 34> H 	 -50.6951 	 31.7682 	 90.1071
| 35> C 	 -52.3223 	 31.2337 	 88.8158
| 36> H 	 -52.3207 	 30.1714 	 88.954
| 37> H 	 -52.6427 	 31.3859 	 87.7443
| 38> H 	 -53.0345 	 31.8074 	 89.4357
| 39> H 	 -48.4527 	 27.8587 	 93.254
| 40> H 	 -45.7492 	 33.7936 	 87.9848
| 41> *
| 42>
| 43>                          ****END OF INPUT****

CARTESIAN COORDINATES (ANGSTROEM)
---------------------------------
  S    -48.085100   30.186300   92.316500
  C    -48.388900   28.480000   92.344700
  C    -48.184700   27.948600   91.117000
  C    -47.863900   28.935200   90.145400
  C    -48.030300   30.241700   90.596200
  H    -47.653300   28.722000   89.132400
  C    -48.177600   26.491900   90.843900
  H    -47.779000   25.937100   91.697600
  H    -47.530000   26.251800   90.080400
  C    -49.523200   25.835100   90.371700
  H    -49.953500   26.157800   89.418500
  H    -49.422200   24.777400   90.322100
  C    -50.527100   26.079300   91.518900
  H    -50.924500   27.161200   91.601600
  H    -51.313400   25.330100   91.517000
  H    -49.962200   25.925600   92.433700
  S    -46.079300   32.103600   89.839600
  C    -46.360300   33.031100   88.370100
  C    -47.647400   32.910300   87.958100
  C    -48.441900   31.965100   88.706100
  C    -47.776300   31.440300   89.848200
  H    -48.075300   33.401300   87.150700
  C    -49.730400   31.442900   88.300200
  H    -49.616800   30.354000   88.253700
  H    -49.888200   31.705100   87.239100
  C    -50.953300   31.957500   89.135900
  H    -51.103100   33.038100   88.990900
  H    -50.695100   31.768200   90.107100
  C    -52.322300   31.233700   88.815800
  H    -52.320700   30.171400   88.954000
  H    -52.642700   31.385900   87.744300
  H    -53.034500   31.807400   89.435700
  H    -48.452700   27.858700   93.254000
  H    -45.749200   33.793600   87.984800

 Total Charge           Charge          ....    0
 Multiplicity           Mult            ....    1
 Number of Electrons    NEL             ....  134
 Basis Dimension        Dim             ....  322

ORBITAL ENERGIES
----------------

  NO   OCC          E(Eh)            E(eV)
   0   2.0000     -88.964762     -2420.8543
   1   2.0000     -88.962191     -2420.7843
   2   2.0000     -10.328296      -281.0472
   3   2.0000     -10.327222      -281.0180
   4   2.0000     -10.316151      -280.7167
   5   2.0000     -10.312465      -280.6164
   6   2.0000     -10.303930      -280.3842
   7   2.0000     -10.295489      -280.1545
   8   2.0000     -10.292813      -280.0817
   9   2.0000     -10.288997      -279.9778
  10   2.0000     -10.287543      -279.9383
  11   2.0000     -10.286539      -279.9110
  12   2.0000     -10.286441      -279.9083
  13   2.0000     -10.284101      -279.8446
  14   2.0000     -10.282210      -279.7932
  15   2.0000     -10.277874      -279.6752
  16   2.0000      -8.080376      -219.8782
  17   2.0000      -8.075812      -219.7540
  18   2.0000      -6.038763      -164.3231
  19   2.0000      -6.034791      -164.2150
  20   2.0000      -6.034503      -164.2072
  21   2.0000      -6.031169      -164.1165
  22   2.0000      -6.030442      -164.0967
  23   2.0000      -6.026463      -163.9884
  24   2.0000      -1.011299       -27.5188
  25   2.0000      -0.982761       -26.7423
  26   2.0000      -0.916386       -24.9361
  27   2.0000      -0.905703       -24.6454
  28   2.0000      -0.872471       -23.7412
  29   2.0000      -0.848809       -23.0973
  30   2.0000      -0.844695       -22.9853
  31   2.0000      -0.815113       -22.1803
  32   2.0000      -0.782739       -21.2994
  33   2.0000      -0.768452       -20.9106
  34   2.0000      -0.715728       -19.4759
  35   2.0000      -0.699984       -19.0475
  36   2.0000      -0.694938       -18.9102
  37   2.0000      -0.664311       -18.0768
  38   2.0000      -0.645304       -17.5596
  39   2.0000      -0.620438       -16.8830
  40   2.0000      -0.594423       -16.1751
  41   2.0000      -0.575473       -15.6594
  42   2.0000      -0.562808       -15.3148
  43   2.0000      -0.549536       -14.9536
  44   2.0000      -0.547846       -14.9076
  45   2.0000      -0.530253       -14.4289
  46   2.0000      -0.516765       -14.0619
  47   2.0000      -0.509728       -13.8704
  48   2.0000      -0.505783       -13.7631
  49   2.0000      -0.503963       -13.7135
  50   2.0000      -0.491883       -13.3848
  51   2.0000      -0.476830       -12.9752
  52   2.0000      -0.471467       -12.8293
  53   2.0000      -0.461246       -12.5511
  54   2.0000      -0.455888       -12.4053
  55   2.0000      -0.446473       -12.1491
  56   2.0000      -0.441487       -12.0135
  57   2.0000      -0.439844       -11.9688
  58   2.0000      -0.434624       -11.8267
  59   2.0000      -0.424827       -11.5601
  60   2.0000      -0.419242       -11.4082
  61   2.0000      -0.415180       -11.2976
  62   2.0000      -0.411991       -11.2109
  63   2.0000      -0.337550        -9.1852
  64   2.0000      -0.327673        -8.9164
  65   2.0000      -0.321635        -8.7521
  66   2.0000      -0.305648        -8.3171
  67   0.0000       0.031376         0.8538
  68   0.0000       0.050090         1.3630
  69   0.0000       0.109822         2.9884
  70   0.0000       0.120207         3.2710
  71   0.0000       0.128658         3.5010

MULLIKEN ATOMIC CHARGES
-----------------------
   0 S :    0.115040
   1 C :   -0.123534
   2 C :   -0.080987
   3 C :    0.068286
   4 C :   -0.178680
   5 H :   -0.000238
   6 C :    0.069531
   7 H :    0.028870
   8 H :   -0.000455
   9 C :   -0.049002
  10 H :    0.034512
  11 H :    0.022489
  12 C :   -0.081894
  13 H :    0.063565
  14 H :    0.030525
  15 H :    0.006129
  16 S :    0.086280
  17 C :   -0.052665
  18 C :    0.009261
  19 C :   -0.088480
  20 C :   -0.132039
  21 H :   -0.010376
  22 C :    0.063003
  23 H :    0.027542
  24 H :    0.006922
  25 C :   -0.041348
  26 H :    0.034558
  27 H :    0.016314
  28 C :   -0.060233
  29 H :    0.038963
  30 H :    0.029839
  31 H :    0.041876
  32 H :    0.059812
  33 H :    0.046613
Sum of atomic charges:    0.0000000

LOEWDIN ATOMIC CHARGES
----------------------
   0 S :    0.428723
   1 C :   -0.199395
   2 C :   -0.070799
   3 C :   -0.042192
   4 C :   -0.214935
   5 H :    0.023696
   6 C :   -0.027427
   7 H :    0.033423
   8 H :    0.019540
   9 C :   -0.031140
  10 H :    0.023496
  11 H :    0.021362
  12 C :   -0.073516
  13 H :    0.036872
  14 H :    0.020031
  15 H :    0.015898
  16 S :    0.372064
  17 C :   -0.166854
  18 C :   -0.064715
  19 C :   -0.043396
  20 C :   -0.191794
  21 H :    0.019821
  22 C :   -0.043660
  23 H :    0.034909
  24 H :    0.027801
  25 C :   -0.021464
  26 H :    0.029374
  27 H :    0.010533
  28 C :   -0.066213
  29 H :    0.021209
  30 H :    0.026951
  31 H :    0.031414
  32 H :    0.035579
  33 H :    0.024802

  Mayer bond orders larger than 0.100000
B(  0-S ,  1-C ) :   1.1512 B(  0-S ,  4-C ) :   1.1593 B(  1-C ,  2-C ) :   1.5882
B(  1-C , 32-H ) :   0.9654 B(  2-C ,  3-C ) :   1.2667 B(  2-C ,  6-C ) :   1.0343
B(  3-C ,  4-C ) :   1.5358 B(  3-C ,  5-H ) :   1.0015 B(  4-C , 20-C ) :   1.0329
B(  6-C ,  7-H ) :   0.9417 B(  6-C ,  8-H ) :   0.9328 B(  6-C ,  9-C ) :   1.0754
B(  9-C , 10-H ) :   0.9589 B(  9-C , 11-H ) :   0.9539 B(  9-C , 12-C ) :   1.0753
B( 12-C , 13-H ) :   0.9709 B( 12-C , 14-H ) :   0.9748 B( 12-C , 15-H ) :   0.9731
B( 16-S , 17-C ) :   1.1556 B( 16-S , 20-C ) :   1.1136 B( 17-C , 18-C ) :   1.6063
B( 17-C , 33-H ) :   0.9640 B( 18-C , 19-C ) :   1.2585 B( 18-C , 21-H ) :   0.9954
B( 19-C , 20-C ) :   1.5784 B( 19-C , 22-C ) :   1.0692 B( 22-C , 23-H ) :   0.9225
B( 22-C , 24-H ) :   0.9247 B( 22-C , 25-C ) :   1.0518 B( 25-C , 26-H ) :   0.9567
B( 25-C , 27-H ) :   0.9611 B( 25-C , 28-C ) :   1.0772 B( 28-C , 29-H ) :   0.9779
B( 28-C , 30-H ) :   0.9765 B( 28-C , 31-H ) :   0.9760

Dispersion correction           -0.014772240
FINAL SINGLE POINT ENERGY     -1339.858430411127

DIPOLE MOMENT
-------------
                                X             Y             Z
Electronic contribution:     22.10453      15.51994       6.74619
Nuclear contribution   :    -22.33539     -15.96043      -7.22752
                        -----------------------------------------
Total Dipole Moment    :     -0.23085      -0.44050      -0.48134
                        -----------------------------------------
Magnitude (a.u.)       :      0.69211
Magnitude (Debye)      :      1.75920

Rotational constants in cm-1:     0.018518     0.009191     0.007318
Rotational constants in MHz :   555.149056   275.530357   219.398562

                             ****ORCA TERMINATED NORMALLY****
TOTAL RUN TIME: 0 days 0 hours 0 minutes 31 seconds 180 msec
