                         Program Version 4.2.1 -  RELEASE  -
|  1> ! wB97X-D3 SP def2-SVP
|  2> %pal
|  3> nprocs 16
|  4> end
|  5>
|  6> * xyz 0 1
|  7> S 	 2.8187 	 -13.3198 	 76.3366
|  8> C 	 3.45322 	 -13.742 	 74.8101
|  9> C 	 2.58018 	 -13.4676 	 73.7452
| 10> C 	 1.31252 	 -12.9669 	 74.2231
| 11> C 	 1.28624 	 -12.9527 	 75.6246
| 12> H 	 0.362574 	 -12.7845 	 73.6828
| 13> C 	 2.90473 	 -13.7415 	 72.3326
| 14> H 	 3.30682 	 -14.7585 	 72.1462
| 15> H 	 3.78374 	 -13.1031 	 72.0095
| 16> C 	 1.70928 	 -13.4874 	 71.4009
| 17> H 	 0.809897 	 -14.0613 	 71.6196
| 18> H 	 1.40195 	 -12.4714 	 71.5655
| 19> C 	 2.12449 	 -13.4953 	 69.8851
| 20> H 	 2.38441 	 -14.4935 	 69.473
| 21> H 	 1.55984 	 -12.933 	 69.1672
| 22> H 	 3.00156 	 -12.8047 	 69.6837
| 23> S 	 -1.00572 	 -13.8694 	 76.5437
| 24> C 	 -1.81405 	 -12.8907 	 77.7595
| 25> C 	 -1.22361 	 -11.6687 	 77.9347
| 26> C 	 -0.000874064 	 -11.5423 	 77.2604
| 27> C 	 0.159269 	 -12.5912 	 76.4468
| 28> H 	 -1.76545 	 -11.0525 	 78.6216
| 29> C 	 0.845732 	 -10.3506 	 77.4425
| 30> H 	 0.273984 	 -9.46226 	 77.1374
| 31> H 	 1.75299 	 -10.4373 	 76.8029
| 32> C 	 1.41448 	 -10.0528 	 78.7975
| 33> H 	 1.95167 	 -10.9636 	 79.1441
| 34> H 	 0.690639 	 -9.80893 	 79.5404
| 35> C 	 2.4627 	 -8.89828 	 78.7691
| 36> H 	 2.0207 	 -7.87807 	 78.8194
| 37> H 	 3.15442 	 -8.92001 	 77.8998
| 38> H 	 2.96046 	 -8.9634 	 79.7248
| 39> H 	 4.44666 	 -14.2942 	 74.6663
| 40> H 	 -2.68349 	 -13.2354 	 78.2439
| 41> *
| 42>
| 43>                          ****END OF INPUT****

CARTESIAN COORDINATES (ANGSTROEM)
---------------------------------
  S      2.818700  -13.319800   76.336600
  C      3.453220  -13.742000   74.810100
  C      2.580180  -13.467600   73.745200
  C      1.312520  -12.966900   74.223100
  C      1.286240  -12.952700   75.624600
  H      0.362574  -12.784500   73.682800
  C      2.904730  -13.741500   72.332600
  H      3.306820  -14.758500   72.146200
  H      3.783740  -13.103100   72.009500
  C      1.709280  -13.487400   71.400900
  H      0.809897  -14.061300   71.619600
  H      1.401950  -12.471400   71.565500
  C      2.124490  -13.495300   69.885100
  H      2.384410  -14.493500   69.473000
  H      1.559840  -12.933000   69.167200
  H      3.001560  -12.804700   69.683700
  S     -1.005720  -13.869400   76.543700
  C     -1.814050  -12.890700   77.759500
  C     -1.223610  -11.668700   77.934700
  C     -0.000874  -11.542300   77.260400
  C      0.159269  -12.591200   76.446800
  H     -1.765450  -11.052500   78.621600
  C      0.845732  -10.350600   77.442500
  H      0.273984   -9.462260   77.137400
  H      1.752990  -10.437300   76.802900
  C      1.414480  -10.052800   78.797500
  H      1.951670  -10.963600   79.144100
  H      0.690639   -9.808930   79.540400
  C      2.462700   -8.898280   78.769100
  H      2.020700   -7.878070   78.819400
  H      3.154420   -8.920010   77.899800
  H      2.960460   -8.963400   79.724800
  H      4.446660  -14.294200   74.666300
  H     -2.683490  -13.235400   78.243900

 Total Charge           Charge          ....    0
 Multiplicity           Mult            ....    1
 Number of Electrons    NEL             ....  134
 Basis Dimension        Dim             ....  322

ORBITAL ENERGIES
----------------

  NO   OCC          E(Eh)            E(eV)
   0   2.0000     -88.967204     -2420.9207
   1   2.0000     -88.962427     -2420.7907
   2   2.0000     -10.319943      -280.8199
   3   2.0000     -10.313206      -280.6366
   4   2.0000     -10.312457      -280.6162
   5   2.0000     -10.308659      -280.5129
   6   2.0000     -10.301051      -280.3059
   7   2.0000     -10.296671      -280.1867
   8   2.0000     -10.294448      -280.1262
   9   2.0000     -10.293120      -280.0900
  10   2.0000     -10.289159      -279.9823
  11   2.0000     -10.286771      -279.9173
  12   2.0000     -10.286587      -279.9123
  13   2.0000     -10.284109      -279.8448
  14   2.0000     -10.283827      -279.8372
  15   2.0000     -10.280823      -279.7554
  16   2.0000      -8.082537      -219.9370
  17   2.0000      -8.077856      -219.8096
  18   2.0000      -6.040785      -164.3781
  19   2.0000      -6.036916      -164.2728
  20   2.0000      -6.036134      -164.2516
  21   2.0000      -6.033621      -164.1832
  22   2.0000      -6.032493      -164.1525
  23   2.0000      -6.028591      -164.0463
  24   2.0000      -1.014704       -27.6115
  25   2.0000      -0.987738       -26.8777
  26   2.0000      -0.914117       -24.8744
  27   2.0000      -0.911465       -24.8022
  28   2.0000      -0.869449       -23.6589
  29   2.0000      -0.855056       -23.2673
  30   2.0000      -0.844931       -22.9917
  31   2.0000      -0.811491       -22.0818
  32   2.0000      -0.782960       -21.3054
  33   2.0000      -0.768298       -20.9064
  34   2.0000      -0.715867       -19.4797
  35   2.0000      -0.697024       -18.9670
  36   2.0000      -0.683499       -18.5989
  37   2.0000      -0.666021       -18.1234
  38   2.0000      -0.637435       -17.3455
  39   2.0000      -0.617327       -16.7983
  40   2.0000      -0.604000       -16.4357
  41   2.0000      -0.570266       -15.5177
  42   2.0000      -0.562941       -15.3184
  43   2.0000      -0.561178       -15.2704
  44   2.0000      -0.528965       -14.3939
  45   2.0000      -0.517649       -14.0859
  46   2.0000      -0.515579       -14.0296
  47   2.0000      -0.508394       -13.8341
  48   2.0000      -0.506042       -13.7701
  49   2.0000      -0.496381       -13.5072
  50   2.0000      -0.481278       -13.0962
  51   2.0000      -0.473177       -12.8758
  52   2.0000      -0.468986       -12.7618
  53   2.0000      -0.464012       -12.6264
  54   2.0000      -0.456033       -12.4093
  55   2.0000      -0.451433       -12.2841
  56   2.0000      -0.447683       -12.1821
  57   2.0000      -0.437071       -11.8933
  58   2.0000      -0.429725       -11.6934
  59   2.0000      -0.423555       -11.5255
  60   2.0000      -0.422598       -11.4995
  61   2.0000      -0.416339       -11.3292
  62   2.0000      -0.415493       -11.3062
  63   2.0000      -0.336320        -9.1517
  64   2.0000      -0.335744        -9.1361
  65   2.0000      -0.322730        -8.7819
  66   2.0000      -0.295078        -8.0295
  67   0.0000       0.047585         1.2948
  68   0.0000       0.060633         1.6499
  69   0.0000       0.106350         2.8939
  70   0.0000       0.118321         3.2197
  71   0.0000       0.133387         3.6296

MULLIKEN ATOMIC CHARGES
-----------------------
   0 S :    0.143155
   1 C :   -0.156143
   2 C :   -0.063009
   3 C :    0.008447
   4 C :   -0.184534
   5 H :    0.031992
   6 C :    0.034535
   7 H :    0.036872
   8 H :    0.042732
   9 C :   -0.075164
  10 H :    0.044240
  11 H :    0.027130
  12 C :   -0.062820
  13 H :    0.043174
  14 H :    0.023585
  15 H :    0.017586
  16 S :    0.115284
  17 C :   -0.093096
  18 C :   -0.024294
  19 C :    0.036691
  20 C :   -0.195958
  21 H :    0.007722
  22 C :    0.069557
  23 H :    0.033135
  24 H :    0.019612
  25 C :   -0.084993
  26 H :    0.030300
  27 H :    0.022654
  28 C :   -0.058926
  29 H :    0.030997
  30 H :    0.042969
  31 H :    0.031310
  32 H :    0.071067
  33 H :    0.034189
Sum of atomic charges:    0.0000000

LOEWDIN ATOMIC CHARGES
----------------------
   0 S :    0.439950
   1 C :   -0.231499
   2 C :   -0.065659
   3 C :   -0.071311
   4 C :   -0.207538
   5 H :    0.040131
   6 C :   -0.041252
   7 H :    0.034751
   8 H :    0.042010
   9 C :   -0.041231
  10 H :    0.026419
  11 H :    0.024053
  12 C :   -0.081888
  13 H :    0.025902
  14 H :    0.024187
  15 H :    0.033095
  16 S :    0.408029
  17 C :   -0.168893
  18 C :   -0.061909
  19 C :   -0.062088
  20 C :   -0.202680
  21 H :    0.030445
  22 C :   -0.038177
  23 H :    0.036940
  24 H :    0.030784
  25 C :   -0.038410
  26 H :    0.026936
  27 H :    0.017572
  28 C :   -0.067978
  29 H :    0.026419
  30 H :    0.028350
  31 H :    0.026974
  32 H :    0.042643
  33 H :    0.014925

  Mayer bond orders larger than 0.100000
B(  0-S ,  1-C ) :   1.1556 B(  0-S ,  4-C ) :   1.1733 B(  1-C ,  2-C ) :   1.5926
B(  1-C , 32-H ) :   0.9610 B(  2-C ,  3-C ) :   1.2505 B(  2-C ,  6-C ) :   1.0236
B(  3-C ,  4-C ) :   1.5545 B(  3-C ,  5-H ) :   0.9840 B(  4-C , 20-C ) :   0.9966
B(  6-C ,  7-H ) :   0.9380 B(  6-C ,  8-H ) :   0.9313 B(  6-C ,  9-C ) :   1.0871
B(  9-C , 10-H ) :   0.9558 B(  9-C , 11-H ) :   0.9427 B(  9-C , 12-C ) :   1.0707
B( 12-C , 13-H ) :   0.9783 B( 12-C , 14-H ) :   0.9736 B( 12-C , 15-H ) :   0.9671
B( 16-S , 17-C ) :   1.1402 B( 16-S , 20-C ) :   1.1490 B( 17-C , 18-C ) :   1.6498
B( 17-C , 33-H ) :   0.9731 B( 18-C , 19-C ) :   1.1628 B( 18-C , 21-H ) :   0.9990
B( 19-C , 20-C ) :   1.6448 B( 19-C , 22-C ) :   1.0678 B( 22-C , 23-H ) :   0.9258
B( 22-C , 24-H ) :   0.9215 B( 22-C , 25-C ) :   1.0726 B( 25-C , 26-H ) :   0.9543
B( 25-C , 27-H ) :   0.9491 B( 25-C , 28-C ) :   1.0852 B( 28-C , 29-H ) :   0.9746
B( 28-C , 30-H ) :   0.9748 B( 28-C , 31-H ) :   0.9746

Dispersion correction           -0.013861807
FINAL SINGLE POINT ENERGY     -1339.867602603572

DIPOLE MOMENT
-------------
                                X             Y             Z
Electronic contribution:     -7.74783     -12.89349      11.45458
Nuclear contribution   :      7.74838      13.18102     -11.52637
                        -----------------------------------------
Total Dipole Moment    :      0.00055       0.28753      -0.07180
                        -----------------------------------------
Magnitude (a.u.)       :      0.29636
Magnitude (Debye)      :      0.75329

Rotational constants in cm-1:     0.019858     0.007845     0.006638
Rotational constants in MHz :   595.341084   235.180389   198.990127

                             ****ORCA TERMINATED NORMALLY****
TOTAL RUN TIME: 0 days 0 hours 0 minutes 34 seconds 88 msec
