                         Program Version 4.2.1 -  RELEASE  -
|  1> ! wB97X-D3 SP def2-SVP
|  2> %pal
|  3> nprocs 16
|  4> end
|  5>
|  6> * xyz 0 1
|  7> S 	 52.2626 	 -3.24086 	 87.2748
|  8> C 	 52.1289 	 -3.69798 	 88.9253
|  9> C 	 51.9091 	 -2.56917 	 89.7568
| 10> C 	 51.6605 	 -1.38125 	 88.9749
| 11> C 	 51.9171 	 -1.52988 	 87.6471
| 12> H 	 51.2907 	 -0.430327 	 89.2584
| 13> C 	 51.7962 	 -2.62312 	 91.2631
| 14> H 	 51.4224 	 -3.63782 	 91.5462
| 15> H 	 51.0717 	 -1.89746 	 91.6424
| 16> C 	 53.0599 	 -2.40792 	 92.0823
| 17> H 	 53.8559 	 -3.05996 	 91.6654
| 18> H 	 53.4267 	 -1.39222 	 92.0951
| 19> C 	 52.7582 	 -2.83712 	 93.588
| 20> H 	 51.9214 	 -2.24906 	 93.9706
| 21> H 	 52.3811 	 -3.86129 	 93.6655
| 22> H 	 53.65 	 -2.68064 	 94.216
| 23> S 	 50.1068 	 -1.19963 	 85.5493
| 24> C 	 50.4689 	 0.194964 	 84.495
| 25> C 	 51.3146 	 1.11548 	 85.0864
| 26> C 	 51.8034 	 0.65246 	 86.315
| 27> C 	 51.4505 	 -0.679014 	 86.5919
| 28> H 	 51.6006 	 1.98901 	 84.6563
| 29> C 	 52.7031 	 1.53701 	 87.1149
| 30> H 	 52.2378 	 1.67244 	 88.1255
| 31> H 	 52.625 	 2.56259 	 86.7271
| 32> C 	 54.1421 	 1.23195 	 87.1543
| 33> H 	 54.5574 	 0.955114 	 86.2022
| 34> H 	 54.3828 	 0.313405 	 87.7552
| 35> C 	 54.9946 	 2.44178 	 87.5725
| 36> H 	 54.8772 	 2.6231 	 88.6508
| 37> H 	 54.738 	 3.36271 	 87.0697
| 38> H 	 56.017 	 2.01814 	 87.3685
| 39> H 	 52.3339 	 -4.66906 	 89.3541
| 40> H 	 49.905 	 0.404952 	 83.6407
| 41> *
| 42>
| 43>                          ****END OF INPUT****

CARTESIAN COORDINATES (ANGSTROEM)
---------------------------------
  S     52.262600   -3.240860   87.274800
  C     52.128900   -3.697980   88.925300
  C     51.909100   -2.569170   89.756800
  C     51.660500   -1.381250   88.974900
  C     51.917100   -1.529880   87.647100
  H     51.290700   -0.430327   89.258400
  C     51.796200   -2.623120   91.263100
  H     51.422400   -3.637820   91.546200
  H     51.071700   -1.897460   91.642400
  C     53.059900   -2.407920   92.082300
  H     53.855900   -3.059960   91.665400
  H     53.426700   -1.392220   92.095100
  C     52.758200   -2.837120   93.588000
  H     51.921400   -2.249060   93.970600
  H     52.381100   -3.861290   93.665500
  H     53.650000   -2.680640   94.216000
  S     50.106800   -1.199630   85.549300
  C     50.468900    0.194964   84.495000
  C     51.314600    1.115480   85.086400
  C     51.803400    0.652460   86.315000
  C     51.450500   -0.679014   86.591900
  H     51.600600    1.989010   84.656300
  C     52.703100    1.537010   87.114900
  H     52.237800    1.672440   88.125500
  H     52.625000    2.562590   86.727100
  C     54.142100    1.231950   87.154300
  H     54.557400    0.955114   86.202200
  H     54.382800    0.313405   87.755200
  C     54.994600    2.441780   87.572500
  H     54.877200    2.623100   88.650800
  H     54.738000    3.362710   87.069700
  H     56.017000    2.018140   87.368500
  H     52.333900   -4.669060   89.354100
  H     49.905000    0.404952   83.640700

 Total Charge           Charge          ....    0
 Multiplicity           Mult            ....    1
 Number of Electrons    NEL             ....  134
 Basis Dimension        Dim             ....  322

ORBITAL ENERGIES
----------------

  NO   OCC          E(Eh)            E(eV)
   0   2.0000     -88.966811     -2420.9100
   1   2.0000     -88.966103     -2420.8907
   2   2.0000     -10.323902      -280.9276
   3   2.0000     -10.323454      -280.9155
   4   2.0000     -10.318224      -280.7732
   5   2.0000     -10.313382      -280.6414
   6   2.0000     -10.306519      -280.4546
   7   2.0000     -10.297155      -280.1998
   8   2.0000     -10.294127      -280.1174
   9   2.0000     -10.293670      -280.1050
  10   2.0000     -10.290182      -280.0101
  11   2.0000     -10.288042      -279.9519
  12   2.0000     -10.284590      -279.8579
  13   2.0000     -10.283704      -279.8338
  14   2.0000     -10.280150      -279.7371
  15   2.0000     -10.279653      -279.7236
  16   2.0000      -8.080783      -219.8893
  17   2.0000      -8.080387      -219.8785
  18   2.0000      -6.039303      -164.3378
  19   2.0000      -6.038845      -164.3253
  20   2.0000      -6.035331      -164.2297
  21   2.0000      -6.035205      -164.2263
  22   2.0000      -6.031607      -164.1284
  23   2.0000      -6.031003      -164.1119
  24   2.0000      -1.004842       -27.3431
  25   2.0000      -0.980480       -26.6802
  26   2.0000      -0.914975       -24.8977
  27   2.0000      -0.908962       -24.7341
  28   2.0000      -0.871447       -23.7133
  29   2.0000      -0.853715       -23.2308
  30   2.0000      -0.845425       -23.0052
  31   2.0000      -0.813504       -22.1366
  32   2.0000      -0.779413       -21.2089
  33   2.0000      -0.764904       -20.8141
  34   2.0000      -0.708023       -19.2663
  35   2.0000      -0.699902       -19.0453
  36   2.0000      -0.690402       -18.7868
  37   2.0000      -0.668811       -18.1993
  38   2.0000      -0.649454       -17.6725
  39   2.0000      -0.616221       -16.7682
  40   2.0000      -0.601400       -16.3649
  41   2.0000      -0.573681       -15.6107
  42   2.0000      -0.565341       -15.3837
  43   2.0000      -0.556289       -15.1374
  44   2.0000      -0.536078       -14.5874
  45   2.0000      -0.521121       -14.1804
  46   2.0000      -0.515327       -14.0228
  47   2.0000      -0.508912       -13.8482
  48   2.0000      -0.504910       -13.7393
  49   2.0000      -0.496870       -13.5205
  50   2.0000      -0.493506       -13.4290
  51   2.0000      -0.478650       -13.0247
  52   2.0000      -0.468830       -12.7575
  53   2.0000      -0.463679       -12.6173
  54   2.0000      -0.457478       -12.4486
  55   2.0000      -0.451684       -12.2909
  56   2.0000      -0.443686       -12.0733
  57   2.0000      -0.437731       -11.9113
  58   2.0000      -0.437179       -11.8963
  59   2.0000      -0.423259       -11.5175
  60   2.0000      -0.419896       -11.4260
  61   2.0000      -0.418857       -11.3977
  62   2.0000      -0.403351       -10.9757
  63   2.0000      -0.350073        -9.5260
  64   2.0000      -0.331524        -9.0212
  65   2.0000      -0.321029        -8.7357
  66   2.0000      -0.288713        -7.8563
  67   0.0000       0.024763         0.6738
  68   0.0000       0.059858         1.6288
  69   0.0000       0.103202         2.8083
  70   0.0000       0.120765         3.2862
  71   0.0000       0.127402         3.4668

MULLIKEN ATOMIC CHARGES
-----------------------
   0 S :    0.108839
   1 C :   -0.100655
   2 C :   -0.079974
   3 C :    0.054760
   4 C :   -0.172019
   5 H :    0.001294
   6 C :    0.032040
   7 H :    0.022439
   8 H :    0.025120
   9 C :   -0.065562
  10 H :    0.032319
  11 H :    0.032650
  12 C :   -0.068975
  13 H :    0.026065
  14 H :    0.030252
  15 H :    0.046910
  16 S :    0.113046
  17 C :   -0.067344
  18 C :    0.013714
  19 C :   -0.028494
  20 C :   -0.158541
  21 H :   -0.022584
  22 C :    0.074384
  23 H :    0.029023
  24 H :   -0.002256
  25 C :   -0.072357
  26 H :    0.016975
  27 H :    0.042140
  28 C :   -0.061232
  29 H :    0.031196
  30 H :    0.035377
  31 H :    0.045862
  32 H :    0.049716
  33 H :    0.035871
Sum of atomic charges:    0.0000000

LOEWDIN ATOMIC CHARGES
----------------------
   0 S :    0.408208
   1 C :   -0.201239
   2 C :   -0.063850
   3 C :   -0.045736
   4 C :   -0.192986
   5 H :    0.027452
   6 C :   -0.040475
   7 H :    0.033147
   8 H :    0.030325
   9 C :   -0.036637
  10 H :    0.024683
  11 H :    0.021350
  12 C :   -0.068229
  13 H :    0.023234
  14 H :    0.023436
  15 H :    0.028665
  16 S :    0.384970
  17 C :   -0.160200
  18 C :   -0.052713
  19 C :   -0.050969
  20 C :   -0.195822
  21 H :    0.015581
  22 C :   -0.042567
  23 H :    0.034717
  24 H :    0.029098
  25 C :   -0.047833
  26 H :    0.021633
  27 H :    0.032190
  28 C :   -0.064088
  29 H :    0.023411
  30 H :    0.021016
  31 H :    0.037270
  32 H :    0.028908
  33 H :    0.014050

  Mayer bond orders larger than 0.100000
B(  0-S ,  1-C ) :   1.1584 B(  0-S ,  4-C ) :   1.1304 B(  1-C ,  2-C ) :   1.5884
B(  1-C , 32-H ) :   0.9666 B(  2-C ,  3-C ) :   1.2307 B(  2-C ,  6-C ) :   1.0318
B(  3-C ,  4-C ) :   1.5897 B(  3-C ,  5-H ) :   0.9936 B(  4-C , 20-C ) :   1.0592
B(  6-C ,  7-H ) :   0.9455 B(  6-C ,  8-H ) :   0.9415 B(  6-C ,  9-C ) :   1.0603
B(  9-C , 10-H ) :   0.9574 B(  9-C , 11-H ) :   0.9560 B(  9-C , 12-C ) :   1.0703
B( 12-C , 13-H ) :   0.9751 B( 12-C , 14-H ) :   0.9766 B( 12-C , 15-H ) :   0.9762
B( 16-S , 17-C ) :   1.1485 B( 16-S , 20-C ) :   1.1370 B( 17-C , 18-C ) :   1.5872
B( 17-C , 20-C ) :   0.1038 B( 17-C , 33-H ) :   0.9723 B( 18-C , 19-C ) :   1.2678
B( 18-C , 21-H ) :   1.0068 B( 19-C , 20-C ) :   1.5705 B( 19-C , 22-C ) :   1.0503
B( 22-C , 23-H ) :   0.9169 B( 22-C , 24-H ) :   0.9302 B( 22-C , 25-C ) :   1.0725
B( 25-C , 26-H ) :   0.9569 B( 25-C , 27-H ) :   0.9447 B( 25-C , 28-C ) :   1.0769
B( 28-C , 29-H ) :   0.9766 B( 28-C , 30-H ) :   0.9742 B( 28-C , 31-H ) :   0.9780

Dispersion correction           -0.013822581
FINAL SINGLE POINT ENERGY     -1339.864855329324

DIPOLE MOMENT
-------------
                                X             Y             Z
Electronic contribution:    -14.33156     -10.87251     -23.34000
Nuclear contribution   :     14.42861      11.27043      23.79850
                        -----------------------------------------
Total Dipole Moment    :      0.09705       0.39792       0.45850
                        -----------------------------------------
Magnitude (a.u.)       :      0.61480
Magnitude (Debye)      :      1.56271

Rotational constants in cm-1:     0.018392     0.008311     0.006412
Rotational constants in MHz :   551.380490   249.170560   192.232965

                             ****ORCA TERMINATED NORMALLY****
TOTAL RUN TIME: 0 days 0 hours 0 minutes 28 seconds 132 msec
