                         Program Version 4.2.1 -  RELEASE  -
|  1> ! wB97X-D3 SP def2-SVP
|  2> %pal
|  3> nprocs 16
|  4> end
|  5>
|  6> * xyz 0 1
|  7> S 	 -12.2406 	 -9.15715 	 85.0172
|  8> C 	 -12.7812 	 -10.6705 	 84.4034
|  9> C 	 -12.4221 	 -11.7599 	 85.257
| 10> C 	 -11.8843 	 -11.243 	 86.4964
| 11> C 	 -11.6684 	 -9.91105 	 86.4447
| 12> H 	 -11.5614 	 -11.7349 	 87.4192
| 13> C 	 -12.637 	 -13.2334 	 84.9471
| 14> H 	 -12.9818 	 -13.2269 	 83.8943
| 15> H 	 -13.4614 	 -13.6168 	 85.5541
| 16> C 	 -11.4763 	 -14.1442 	 85.2266
| 17> H 	 -10.5686 	 -13.7521 	 84.7591
| 18> H 	 -11.4019 	 -14.0584 	 86.3032
| 19> C 	 -11.6566 	 -15.5273 	 84.6948
| 20> H 	 -10.7461 	 -16.0608 	 84.9407
| 21> H 	 -12.5325 	 -16.099 	 85.0482
| 22> H 	 -11.7147 	 -15.5124 	 83.6148
| 23> S 	 -12.0248 	 -7.90892 	 88.3175
| 24> C 	 -10.7447 	 -7.42375 	 89.2798
| 25> C 	 -9.57036 	 -8.13313 	 89.0134
| 26> C 	 -9.76151 	 -9.13229 	 88.0487
| 27> C 	 -10.9972 	 -9.12841 	 87.5267
| 28> H 	 -8.63415 	 -7.86461 	 89.5224
| 29> C 	 -8.63857 	 -10.1263 	 87.7313
| 30> H 	 -9.06721 	 -10.9789 	 87.1845
| 31> H 	 -8.25715 	 -10.6258 	 88.6367
| 32> C 	 -7.50367 	 -9.53504 	 86.9724
| 33> H 	 -7.99088 	 -8.84007 	 86.2107
| 34> H 	 -7.08679 	 -10.2729 	 86.3826
| 35> C 	 -6.335 	 -8.86936 	 87.6899
| 36> H 	 -6.71655 	 -8.09474 	 88.4803
| 37> H 	 -5.46087 	 -8.54802 	 87.1725
| 38> H 	 -5.90332 	 -9.56607 	 88.3624
| 39> H 	 -13.175 	 -10.7382 	 83.4036
| 40> H 	 -10.8089 	 -6.53064 	 89.9045
| 41> *
| 42>
| 43>                          ****END OF INPUT****

CARTESIAN COORDINATES (ANGSTROEM)
---------------------------------
  S    -12.240600   -9.157150   85.017200
  C    -12.781200  -10.670500   84.403400
  C    -12.422100  -11.759900   85.257000
  C    -11.884300  -11.243000   86.496400
  C    -11.668400   -9.911050   86.444700
  H    -11.561400  -11.734900   87.419200
  C    -12.637000  -13.233400   84.947100
  H    -12.981800  -13.226900   83.894300
  H    -13.461400  -13.616800   85.554100
  C    -11.476300  -14.144200   85.226600
  H    -10.568600  -13.752100   84.759100
  H    -11.401900  -14.058400   86.303200
  C    -11.656600  -15.527300   84.694800
  H    -10.746100  -16.060800   84.940700
  H    -12.532500  -16.099000   85.048200
  H    -11.714700  -15.512400   83.614800
  S    -12.024800   -7.908920   88.317500
  C    -10.744700   -7.423750   89.279800
  C     -9.570360   -8.133130   89.013400
  C     -9.761510   -9.132290   88.048700
  C    -10.997200   -9.128410   87.526700
  H     -8.634150   -7.864610   89.522400
  C     -8.638570  -10.126300   87.731300
  H     -9.067210  -10.978900   87.184500
  H     -8.257150  -10.625800   88.636700
  C     -7.503670   -9.535040   86.972400
  H     -7.990880   -8.840070   86.210700
  H     -7.086790  -10.272900   86.382600
  C     -6.335000   -8.869360   87.689900
  H     -6.716550   -8.094740   88.480300
  H     -5.460870   -8.548020   87.172500
  H     -5.903320   -9.566070   88.362400
  H    -13.175000  -10.738200   83.403600
  H    -10.808900   -6.530640   89.904500

 Total Charge           Charge          ....    0
 Multiplicity           Mult            ....    1
 Number of Electrons    NEL             ....  134
 Basis Dimension        Dim             ....  322

ORBITAL ENERGIES
----------------

  NO   OCC          E(Eh)            E(eV)
   0   2.0000     -88.965995     -2420.8878
   1   2.0000     -88.961620     -2420.7687
   2   2.0000     -10.321589      -280.8647
   3   2.0000     -10.321206      -280.8543
   4   2.0000     -10.314546      -280.6731
   5   2.0000     -10.311790      -280.5981
   6   2.0000     -10.308463      -280.5075
   7   2.0000     -10.297045      -280.1968
   8   2.0000     -10.291527      -280.0467
   9   2.0000     -10.291228      -280.0386
  10   2.0000     -10.289971      -280.0043
  11   2.0000     -10.289910      -280.0027
  12   2.0000     -10.283119      -279.8179
  13   2.0000     -10.280022      -279.7336
  14   2.0000     -10.279745      -279.7261
  15   2.0000     -10.277803      -279.6732
  16   2.0000      -8.081921      -219.9203
  17   2.0000      -8.077737      -219.8064
  18   2.0000      -6.040148      -164.3608
  19   2.0000      -6.036292      -164.2559
  20   2.0000      -6.035943      -164.2463
  21   2.0000      -6.032889      -164.1632
  22   2.0000      -6.032030      -164.1399
  23   2.0000      -6.028753      -164.0507
  24   2.0000      -1.012176       -27.5427
  25   2.0000      -0.990750       -26.9597
  26   2.0000      -0.919803       -25.0291
  27   2.0000      -0.914868       -24.8948
  28   2.0000      -0.866723       -23.5847
  29   2.0000      -0.855549       -23.2807
  30   2.0000      -0.850150       -23.1338
  31   2.0000      -0.812616       -22.1124
  32   2.0000      -0.790788       -21.5184
  33   2.0000      -0.773820       -21.0567
  34   2.0000      -0.705294       -19.1920
  35   2.0000      -0.697241       -18.9729
  36   2.0000      -0.684919       -18.6376
  37   2.0000      -0.660645       -17.9771
  38   2.0000      -0.647970       -17.6322
  39   2.0000      -0.616806       -16.7842
  40   2.0000      -0.602328       -16.3902
  41   2.0000      -0.580715       -15.8021
  42   2.0000      -0.559872       -15.2349
  43   2.0000      -0.550359       -14.9760
  44   2.0000      -0.538980       -14.6664
  45   2.0000      -0.527214       -14.3462
  46   2.0000      -0.517106       -14.0712
  47   2.0000      -0.511263       -13.9122
  48   2.0000      -0.507215       -13.8020
  49   2.0000      -0.494896       -13.4668
  50   2.0000      -0.490959       -13.3597
  51   2.0000      -0.482280       -13.1235
  52   2.0000      -0.476051       -12.9540
  53   2.0000      -0.468175       -12.7397
  54   2.0000      -0.461350       -12.5540
  55   2.0000      -0.453246       -12.3334
  56   2.0000      -0.449183       -12.2229
  57   2.0000      -0.432842       -11.7782
  58   2.0000      -0.431172       -11.7328
  59   2.0000      -0.426409       -11.6032
  60   2.0000      -0.418962       -11.4005
  61   2.0000      -0.417628       -11.3642
  62   2.0000      -0.404330       -11.0024
  63   2.0000      -0.339450        -9.2369
  64   2.0000      -0.337486        -9.1834
  65   2.0000      -0.323059        -8.7909
  66   2.0000      -0.300250        -8.1702
  67   0.0000       0.044673         1.2156
  68   0.0000       0.067697         1.8421
  69   0.0000       0.120728         3.2852
  70   0.0000       0.123709         3.3663
  71   0.0000       0.129330         3.5193

MULLIKEN ATOMIC CHARGES
-----------------------
   0 S :    0.130798
   1 C :   -0.127780
   2 C :   -0.094033
   3 C :    0.031301
   4 C :   -0.160123
   5 H :    0.024273
   6 C :    0.075821
   7 H :    0.010237
   8 H :    0.034605
   9 C :   -0.086131
  10 H :    0.029161
  11 H :    0.028399
  12 C :   -0.025641
  13 H :    0.032996
  14 H :    0.033815
  15 H :    0.026065
  16 S :    0.114098
  17 C :   -0.094271
  18 C :   -0.062606
  19 C :    0.007927
  20 C :   -0.216488
  21 H :    0.023911
  22 C :    0.076342
  23 H :    0.016030
  24 H :    0.025498
  25 C :   -0.045693
  26 H :    0.037465
  27 H :    0.007894
  28 C :   -0.030028
  29 H :    0.024585
  30 H :    0.037777
  31 H :    0.002138
  32 H :    0.049373
  33 H :    0.062286
Sum of atomic charges:   -0.0000000

LOEWDIN ATOMIC CHARGES
----------------------
   0 S :    0.435257
   1 C :   -0.211818
   2 C :   -0.053299
   3 C :   -0.070543
   4 C :   -0.209421
   5 H :    0.036710
   6 C :   -0.036472
   7 H :    0.027229
   8 H :    0.033602
   9 C :   -0.043791
  10 H :    0.027446
  11 H :    0.023345
  12 C :   -0.062726
  13 H :    0.029056
  14 H :    0.026849
  15 H :    0.025584
  16 S :    0.424598
  17 C :   -0.205581
  18 C :   -0.079744
  19 C :   -0.057712
  20 C :   -0.193297
  21 H :    0.032144
  22 C :   -0.027233
  23 H :    0.033598
  24 H :    0.031385
  25 C :   -0.045030
  26 H :    0.034563
  27 H :    0.016623
  28 C :   -0.072004
  29 H :    0.031916
  30 H :    0.026927
  31 H :    0.018295
  32 H :    0.023268
  33 H :    0.030276

  Mayer bond orders larger than 0.100000
B(  0-S ,  1-C ) :   1.1540 B(  0-S ,  4-C ) :   1.1731 B(  1-C ,  2-C ) :   1.5934
B(  1-C , 32-H ) :   0.9690 B(  2-C ,  3-C ) :   1.2118 B(  2-C ,  6-C ) :   1.0348
B(  3-C ,  4-C ) :   1.6117 B(  3-C ,  5-H ) :   0.9852 B(  4-C , 20-C ) :   0.9726
B(  6-C ,  7-H ) :   0.9385 B(  6-C ,  8-H ) :   0.9339 B(  6-C ,  9-C ) :   1.0611
B(  9-C , 10-H ) :   0.9549 B(  9-C , 11-H ) :   0.9498 B(  9-C , 12-C ) :   1.0980
B( 12-C , 13-H ) :   0.9714 B( 12-C , 14-H ) :   0.9718 B( 12-C , 15-H ) :   0.9711
B( 16-S , 17-C ) :   1.1899 B( 16-S , 20-C ) :   1.1485 B( 17-C , 18-C ) :   1.5878
B( 17-C , 33-H ) :   0.9642 B( 18-C , 19-C ) :   1.2342 B( 18-C , 21-H ) :   0.9890
B( 19-C , 20-C ) :   1.6438 B( 19-C , 22-C ) :   1.0396 B( 22-C , 23-H ) :   0.9249
B( 22-C , 24-H ) :   0.9372 B( 22-C , 25-C ) :   1.0735 B( 25-C , 26-H ) :   0.9512
B( 25-C , 27-H ) :   0.9502 B( 25-C , 28-C ) :   1.0764 B( 28-C , 29-H ) :   0.9711
B( 28-C , 30-H ) :   0.9723 B( 28-C , 31-H ) :   0.9647

Dispersion correction           -0.014050179
FINAL SINGLE POINT ENERGY     -1339.875911227542

DIPOLE MOMENT
-------------
                                X             Y             Z
Electronic contribution:    -17.08074      21.47005       3.08760
Nuclear contribution   :     17.51391     -22.00946      -3.11573
                        -----------------------------------------
Total Dipole Moment    :      0.43317      -0.53941      -0.02814
                        -----------------------------------------
Magnitude (a.u.)       :      0.69238
Magnitude (Debye)      :      1.75990

Rotational constants in cm-1:     0.018443     0.008252     0.006570
Rotational constants in MHz :   552.908579   247.384549   196.962175

                             ****ORCA TERMINATED NORMALLY****
TOTAL RUN TIME: 0 days 0 hours 0 minutes 31 seconds 400 msec
