                         Program Version 4.2.1 -  RELEASE  -
|  1> ! wB97X-D3 SP def2-SVP
|  2> %pal
|  3> nprocs 16
|  4> end
|  5>
|  6> * xyz 0 1
|  7> S 	 4.63743 	 -21.5924 	 63.2947
|  8> C 	 5.47562 	 -20.0939 	 62.9141
|  9> C 	 4.53952 	 -19.1153 	 62.456
| 10> C 	 3.19163 	 -19.6242 	 62.5428
| 11> C 	 3.08892 	 -20.9517 	 62.9586
| 12> H 	 2.2727 	 -18.9777 	 62.3255
| 13> C 	 4.92027 	 -17.6894 	 62.0401
| 14> H 	 4.71944 	 -17.4236 	 61.0121
| 15> H 	 5.97351 	 -17.6421 	 62.184
| 16> C 	 4.134 	 -16.642 	 62.8228
| 17> H 	 4.02333 	 -15.7626 	 62.1495
| 18> H 	 3.12187 	 -16.9397 	 62.8489
| 19> C 	 4.68948 	 -16.2687 	 64.1658
| 20> H 	 5.72261 	 -15.9966 	 64.2091
| 21> H 	 4.03883 	 -15.4572 	 64.6263
| 22> H 	 4.61255 	 -17.0665 	 64.8424
| 23> S 	 1.76895 	 -23.3489 	 62.2995
| 24> C 	 0.0625148 	 -23.2239 	 62.4968
| 25> C 	 -0.301156 	 -22.2784 	 63.4416
| 26> C 	 0.745871 	 -21.3659 	 63.7919
| 27> C 	 1.90277 	 -21.7386 	 63.1413
| 28> H 	 -1.39723 	 -22.1929 	 63.709
| 29> C 	 0.634984 	 -20.1617 	 64.6689
| 30> H 	 -0.318169 	 -19.6819 	 64.4295
| 31> H 	 1.50555 	 -19.4678 	 64.4417
| 32> C 	 0.671178 	 -20.5085 	 66.181
| 33> H 	 -0.0251306 	 -21.2454 	 66.4622
| 34> H 	 0.333161 	 -19.6125 	 66.7641
| 35> C 	 2.08304 	 -20.9632 	 66.7238
| 36> H 	 2.80549 	 -20.1536 	 66.6836
| 37> H 	 2.46767 	 -21.8892 	 66.2149
| 38> H 	 2.01688 	 -21.2622 	 67.7955
| 39> H 	 6.57483 	 -19.9123 	 62.9534
| 40> H 	 -0.748116 	 -23.8312 	 61.9821
| 41> *
| 42>
| 43>                          ****END OF INPUT****

CARTESIAN COORDINATES (ANGSTROEM)
---------------------------------
  S      4.637430  -21.592400   63.294700
  C      5.475620  -20.093900   62.914100
  C      4.539520  -19.115300   62.456000
  C      3.191630  -19.624200   62.542800
  C      3.088920  -20.951700   62.958600
  H      2.272700  -18.977700   62.325500
  C      4.920270  -17.689400   62.040100
  H      4.719440  -17.423600   61.012100
  H      5.973510  -17.642100   62.184000
  C      4.134000  -16.642000   62.822800
  H      4.023330  -15.762600   62.149500
  H      3.121870  -16.939700   62.848900
  C      4.689480  -16.268700   64.165800
  H      5.722610  -15.996600   64.209100
  H      4.038830  -15.457200   64.626300
  H      4.612550  -17.066500   64.842400
  S      1.768950  -23.348900   62.299500
  C      0.062515  -23.223900   62.496800
  C     -0.301156  -22.278400   63.441600
  C      0.745871  -21.365900   63.791900
  C      1.902770  -21.738600   63.141300
  H     -1.397230  -22.192900   63.709000
  C      0.634984  -20.161700   64.668900
  H     -0.318169  -19.681900   64.429500
  H      1.505550  -19.467800   64.441700
  C      0.671178  -20.508500   66.181000
  H     -0.025131  -21.245400   66.462200
  H      0.333161  -19.612500   66.764100
  C      2.083040  -20.963200   66.723800
  H      2.805490  -20.153600   66.683600
  H      2.467670  -21.889200   66.214900
  H      2.016880  -21.262200   67.795500
  H      6.574830  -19.912300   62.953400
  H     -0.748116  -23.831200   61.982100

 Total Charge           Charge          ....    0
 Multiplicity           Mult            ....    1
 Number of Electrons    NEL             ....  134
 Basis Dimension        Dim             ....  322

ORBITAL ENERGIES
----------------

  NO   OCC          E(Eh)            E(eV)
   0   2.0000     -88.967412     -2420.9264
   1   2.0000     -88.966931     -2420.9133
   2   2.0000     -10.326543      -280.9995
   3   2.0000     -10.326128      -280.9882
   4   2.0000     -10.322633      -280.8931
   5   2.0000     -10.320613      -280.8381
   6   2.0000     -10.307586      -280.4837
   7   2.0000     -10.305016      -280.4137
   8   2.0000     -10.300463      -280.2898
   9   2.0000     -10.299137      -280.2538
  10   2.0000     -10.297807      -280.2176
  11   2.0000     -10.289663      -279.9960
  12   2.0000     -10.289363      -279.9878
  13   2.0000     -10.282648      -279.8051
  14   2.0000     -10.279764      -279.7266
  15   2.0000     -10.273311      -279.5510
  16   2.0000      -8.081932      -219.9205
  17   2.0000      -8.081880      -219.9191
  18   2.0000      -6.040436      -164.3686
  19   2.0000      -6.040408      -164.3679
  20   2.0000      -6.036804      -164.2698
  21   2.0000      -6.036239      -164.2544
  22   2.0000      -6.032868      -164.1627
  23   2.0000      -6.032231      -164.1454
  24   2.0000      -1.006588       -27.3906
  25   2.0000      -0.981384       -26.7048
  26   2.0000      -0.916607       -24.9421
  27   2.0000      -0.906075       -24.6555
  28   2.0000      -0.866226       -23.5712
  29   2.0000      -0.847919       -23.0731
  30   2.0000      -0.839750       -22.8508
  31   2.0000      -0.807617       -21.9764
  32   2.0000      -0.786524       -21.4024
  33   2.0000      -0.772689       -21.0259
  34   2.0000      -0.713081       -19.4039
  35   2.0000      -0.697640       -18.9838
  36   2.0000      -0.690036       -18.7768
  37   2.0000      -0.650193       -17.6926
  38   2.0000      -0.637603       -17.3501
  39   2.0000      -0.616280       -16.7698
  40   2.0000      -0.592388       -16.1197
  41   2.0000      -0.565903       -15.3990
  42   2.0000      -0.553033       -15.0488
  43   2.0000      -0.545904       -14.8548
  44   2.0000      -0.537142       -14.6164
  45   2.0000      -0.530926       -14.4472
  46   2.0000      -0.522031       -14.2052
  47   2.0000      -0.509776       -13.8717
  48   2.0000      -0.500610       -13.6223
  49   2.0000      -0.493572       -13.4308
  50   2.0000      -0.482239       -13.1224
  51   2.0000      -0.481047       -13.0900
  52   2.0000      -0.471704       -12.8357
  53   2.0000      -0.465050       -12.6547
  54   2.0000      -0.456257       -12.4154
  55   2.0000      -0.447676       -12.1819
  56   2.0000      -0.441330       -12.0092
  57   2.0000      -0.435839       -11.8598
  58   2.0000      -0.433949       -11.8084
  59   2.0000      -0.429199       -11.6791
  60   2.0000      -0.425020       -11.5654
  61   2.0000      -0.416999       -11.3471
  62   2.0000      -0.407610       -11.0916
  63   2.0000      -0.344567        -9.3761
  64   2.0000      -0.332589        -9.0502
  65   2.0000      -0.328802        -8.9471
  66   2.0000      -0.284144        -7.7320
  67   0.0000       0.028672         0.7802
  68   0.0000       0.058544         1.5931
  69   0.0000       0.105542         2.8719
  70   0.0000       0.117202         3.1892
  71   0.0000       0.127095         3.4584

MULLIKEN ATOMIC CHARGES
-----------------------
   0 S :    0.115232
   1 C :   -0.139250
   2 C :   -0.122754
   3 C :   -0.000562
   4 C :   -0.163728
   5 H :    0.045838
   6 C :    0.111798
   7 H :    0.033695
   8 H :    0.003252
   9 C :   -0.079703
  10 H :    0.017281
  11 H :    0.006511
  12 C :   -0.011437
  13 H :    0.025617
  14 H :    0.036596
  15 H :    0.016337
  16 S :    0.115242
  17 C :   -0.115163
  18 C :   -0.064386
  19 C :   -0.022928
  20 C :   -0.160462
  21 H :    0.037038
  22 C :    0.073908
  23 H :    0.027227
  24 H :    0.042746
  25 C :   -0.065065
  26 H :    0.018517
  27 H :    0.032945
  28 C :   -0.080143
  29 H :    0.037210
  30 H :    0.049103
  31 H :    0.034272
  32 H :    0.065270
  33 H :    0.079946
Sum of atomic charges:   -0.0000000

LOEWDIN ATOMIC CHARGES
----------------------
   0 S :    0.425200
   1 C :   -0.216250
   2 C :   -0.059033
   3 C :   -0.081517
   4 C :   -0.208445
   5 H :    0.040600
   6 C :   -0.024238
   7 H :    0.034595
   8 H :    0.023601
   9 C :   -0.042767
  10 H :    0.025044
  11 H :    0.017208
  12 C :   -0.062023
  13 H :    0.022447
  14 H :    0.036069
  15 H :    0.019109
  16 S :    0.379931
  17 C :   -0.197919
  18 C :   -0.082815
  19 C :   -0.047954
  20 C :   -0.181646
  21 H :    0.039380
  22 C :   -0.033736
  23 H :    0.031923
  24 H :    0.041700
  25 C :   -0.036746
  26 H :    0.015437
  27 H :    0.028880
  28 C :   -0.071822
  29 H :    0.022221
  30 H :    0.030977
  31 H :    0.029168
  32 H :    0.037062
  33 H :    0.046358

  Mayer bond orders larger than 0.100000
B(  0-S ,  1-C ) :   1.1429 B(  0-S ,  4-C ) :   1.1719 B(  1-C ,  2-C ) :   1.5827
B(  1-C ,  4-C ) :   0.1035 B(  1-C , 32-H ) :   0.9624 B(  2-C ,  3-C ) :   1.2664
B(  2-C ,  6-C ) :   1.0284 B(  3-C ,  4-C ) :   1.5527 B(  3-C ,  5-H ) :   0.9716
B(  4-C , 20-C ) :   1.0492 B(  6-C ,  7-H ) :   0.9382 B(  6-C ,  8-H ) :   0.9428
B(  6-C ,  9-C ) :   1.0692 B(  9-C , 10-H ) :   0.9542 B(  9-C , 11-H ) :   0.9512
B(  9-C , 12-C ) :   1.0796 B( 12-C , 13-H ) :   0.9741 B( 12-C , 14-H ) :   0.9702
B( 12-C , 15-H ) :   0.9730 B( 16-S , 17-C ) :   1.1463 B( 16-S , 20-C ) :   1.1023
B( 17-C , 18-C ) :   1.6498 B( 17-C , 33-H ) :   0.9559 B( 18-C , 19-C ) :   1.1969
B( 18-C , 21-H ) :   0.9776 B( 19-C , 20-C ) :   1.6177 B( 19-C , 22-C ) :   1.0446
B( 22-C , 23-H ) :   0.9254 B( 22-C , 24-H ) :   0.9302 B( 22-C , 25-C ) :   1.0697
B( 25-C , 26-H ) :   0.9592 B( 25-C , 27-H ) :   0.9554 B( 25-C , 28-C ) :   1.0717
B( 28-C , 29-H ) :   0.9775 B( 28-C , 30-H ) :   0.9750 B( 28-C , 31-H ) :   0.9740

Dispersion correction           -0.015435006
FINAL SINGLE POINT ENERGY     -1339.872429883676

DIPOLE MOMENT
-------------
                                X             Y             Z
Electronic contribution:      1.04209     -24.18535     -12.85907
Nuclear contribution   :     -1.39785      24.77298      12.98042
                        -----------------------------------------
Total Dipole Moment    :     -0.35576       0.58764       0.12135
                        -----------------------------------------
Magnitude (a.u.)       :      0.69757
Magnitude (Debye)      :      1.77309

Rotational constants in cm-1:     0.019781     0.009283     0.007807
Rotational constants in MHz :   593.016628   278.298276   234.060574

                             ****ORCA TERMINATED NORMALLY****
TOTAL RUN TIME: 0 days 0 hours 0 minutes 36 seconds 969 msec
