                         Program Version 4.2.1 -  RELEASE  -
|  1> ! wB97X-D3 SP def2-SVP
|  2> %pal
|  3> nprocs 16
|  4> end
|  5>
|  6> * xyz 0 1
|  7> S 	 40.3624 	 21.9718 	 85.1299
|  8> C 	 39.1542 	 22.3476 	 86.31
|  9> C 	 39.2049 	 23.7393 	 86.6144
| 10> C 	 40.3578 	 24.3606 	 86.0102
| 11> C 	 41.1398 	 23.5674 	 85.2097
| 12> H 	 40.5485 	 25.4465 	 86.1175
| 13> C 	 38.2104 	 24.3899 	 87.4626
| 14> H 	 38.1696 	 25.3614 	 87.0024
| 15> H 	 38.6401 	 24.5636 	 88.435
| 16> C 	 36.8808 	 23.7698 	 87.536
| 17> H 	 36.4071 	 23.721 	 86.5251
| 18> H 	 36.8851 	 22.8327 	 88.0295
| 19> C 	 35.9632 	 24.5372 	 88.3997
| 20> H 	 34.8976 	 24.1669 	 88.2782
| 21> H 	 36.2686 	 24.45 	 89.5146
| 22> H 	 35.9102 	 25.6027 	 88.1673
| 23> S 	 43.8474 	 23.5911 	 85.5495
| 24> C 	 44.8465 	 24.2358 	 84.2999
| 25> C 	 44.1146 	 24.5518 	 83.1915
| 26> C 	 42.7556 	 24.3893 	 83.3617
| 27> C 	 42.4139 	 23.8858 	 84.5949
| 28> H 	 44.6809 	 24.9681 	 82.2842
| 29> C 	 41.7342 	 24.6517 	 82.2647
| 30> H 	 40.7239 	 24.5445 	 82.681
| 31> H 	 41.7556 	 23.8111 	 81.5524
| 32> C 	 41.7827 	 26.0297 	 81.5921
| 33> H 	 42.48 	 26.0608 	 80.671
| 34> H 	 42.198 	 26.7943 	 82.2635
| 35> C 	 40.4913 	 26.5872 	 81.0494
| 36> H 	 40.7352 	 27.6352 	 80.7072
| 37> H 	 39.7707 	 26.7422 	 81.8836
| 38> H 	 40.0236 	 26 	 80.3338
| 39> H 	 38.303 	 21.8199 	 86.6621
| 40> H 	 45.9013 	 24.3649 	 84.2535
| 41> *
| 42>
| 43>                          ****END OF INPUT****

CARTESIAN COORDINATES (ANGSTROEM)
---------------------------------
  S     40.362400   21.971800   85.129900
  C     39.154200   22.347600   86.310000
  C     39.204900   23.739300   86.614400
  C     40.357800   24.360600   86.010200
  C     41.139800   23.567400   85.209700
  H     40.548500   25.446500   86.117500
  C     38.210400   24.389900   87.462600
  H     38.169600   25.361400   87.002400
  H     38.640100   24.563600   88.435000
  C     36.880800   23.769800   87.536000
  H     36.407100   23.721000   86.525100
  H     36.885100   22.832700   88.029500
  C     35.963200   24.537200   88.399700
  H     34.897600   24.166900   88.278200
  H     36.268600   24.450000   89.514600
  H     35.910200   25.602700   88.167300
  S     43.847400   23.591100   85.549500
  C     44.846500   24.235800   84.299900
  C     44.114600   24.551800   83.191500
  C     42.755600   24.389300   83.361700
  C     42.413900   23.885800   84.594900
  H     44.680900   24.968100   82.284200
  C     41.734200   24.651700   82.264700
  H     40.723900   24.544500   82.681000
  H     41.755600   23.811100   81.552400
  C     41.782700   26.029700   81.592100
  H     42.480000   26.060800   80.671000
  H     42.198000   26.794300   82.263500
  C     40.491300   26.587200   81.049400
  H     40.735200   27.635200   80.707200
  H     39.770700   26.742200   81.883600
  H     40.023600   26.000000   80.333800
  H     38.303000   21.819900   86.662100
  H     45.901300   24.364900   84.253500

 Total Charge           Charge          ....    0
 Multiplicity           Mult            ....    1
 Number of Electrons    NEL             ....  134
 Basis Dimension        Dim             ....  322

ORBITAL ENERGIES
----------------

  NO   OCC          E(Eh)            E(eV)
   0   2.0000     -88.965811     -2420.8828
   1   2.0000     -88.963260     -2420.8134
   2   2.0000     -10.328080      -281.0413
   3   2.0000     -10.321883      -280.8727
   4   2.0000     -10.310990      -280.5763
   5   2.0000     -10.310477      -280.5623
   6   2.0000     -10.298585      -280.2387
   7   2.0000     -10.297258      -280.2026
   8   2.0000     -10.295998      -280.1684
   9   2.0000     -10.290425      -280.0167
  10   2.0000     -10.290398      -280.0160
  11   2.0000     -10.289813      -280.0001
  12   2.0000     -10.286319      -279.9050
  13   2.0000     -10.282875      -279.8112
  14   2.0000     -10.282692      -279.8063
  15   2.0000     -10.276473      -279.6370
  16   2.0000      -8.080950      -219.8938
  17   2.0000      -8.077526      -219.8007
  18   2.0000      -6.039374      -164.3397
  19   2.0000      -6.036052      -164.2493
  20   2.0000      -6.035338      -164.2299
  21   2.0000      -6.032019      -164.1396
  22   2.0000      -6.031818      -164.1341
  23   2.0000      -6.028349      -164.0397
  24   2.0000      -1.010244       -27.4901
  25   2.0000      -0.986034       -26.8314
  26   2.0000      -0.931593       -25.3499
  27   2.0000      -0.907256       -24.6877
  28   2.0000      -0.872580       -23.7441
  29   2.0000      -0.855083       -23.2680
  30   2.0000      -0.852345       -23.1935
  31   2.0000      -0.817317       -22.2403
  32   2.0000      -0.781881       -21.2761
  33   2.0000      -0.768079       -20.9005
  34   2.0000      -0.714100       -19.4317
  35   2.0000      -0.696046       -18.9404
  36   2.0000      -0.693547       -18.8724
  37   2.0000      -0.651959       -17.7407
  38   2.0000      -0.635333       -17.2883
  39   2.0000      -0.614001       -16.7078
  40   2.0000      -0.598627       -16.2895
  41   2.0000      -0.589241       -16.0341
  42   2.0000      -0.575513       -15.6605
  43   2.0000      -0.559324       -15.2200
  44   2.0000      -0.534296       -14.5389
  45   2.0000      -0.527319       -14.3491
  46   2.0000      -0.519741       -14.1429
  47   2.0000      -0.516132       -14.0447
  48   2.0000      -0.508685       -13.8420
  49   2.0000      -0.502016       -13.6605
  50   2.0000      -0.490810       -13.3556
  51   2.0000      -0.478696       -13.0260
  52   2.0000      -0.469074       -12.7641
  53   2.0000      -0.463542       -12.6136
  54   2.0000      -0.453184       -12.3318
  55   2.0000      -0.447142       -12.1673
  56   2.0000      -0.441202       -12.0057
  57   2.0000      -0.434846       -11.8328
  58   2.0000      -0.432474       -11.7682
  59   2.0000      -0.427597       -11.6355
  60   2.0000      -0.425280       -11.5725
  61   2.0000      -0.413032       -11.2392
  62   2.0000      -0.403975       -10.9927
  63   2.0000      -0.338065        -9.1992
  64   2.0000      -0.329415        -8.9638
  65   2.0000      -0.316816        -8.6210
  66   2.0000      -0.308162        -8.3855
  67   0.0000       0.047979         1.3056
  68   0.0000       0.050677         1.3790
  69   0.0000       0.117145         3.1877
  70   0.0000       0.125611         3.4180
  71   0.0000       0.136319         3.7094

MULLIKEN ATOMIC CHARGES
-----------------------
   0 S :    0.116023
   1 C :   -0.089714
   2 C :   -0.154453
   3 C :    0.044696
   4 C :   -0.177651
   5 H :    0.020639
   6 C :    0.109362
   7 H :    0.012236
   8 H :    0.032938
   9 C :   -0.081433
  10 H :    0.042427
  11 H :    0.031097
  12 C :   -0.081509
  13 H :    0.041444
  14 H :    0.039989
  15 H :    0.024445
  16 S :    0.134478
  17 C :   -0.071599
  18 C :   -0.083307
  19 C :    0.000114
  20 C :   -0.193946
  21 H :    0.045595
  22 C :    0.106984
  23 H :    0.015951
  24 H :    0.041168
  25 C :   -0.119756
  26 H :    0.032434
  27 H :    0.034681
  28 C :   -0.048138
  29 H :    0.038991
  30 H :    0.028983
  31 H :    0.028356
  32 H :    0.038669
  33 H :    0.039807
Sum of atomic charges:   -0.0000000

LOEWDIN ATOMIC CHARGES
----------------------
   0 S :    0.404562
   1 C :   -0.207007
   2 C :   -0.064072
   3 C :   -0.060885
   4 C :   -0.200660
   5 H :    0.035711
   6 C :   -0.038508
   7 H :    0.034574
   8 H :    0.035977
   9 C :   -0.050730
  10 H :    0.035415
  11 H :    0.024152
  12 C :   -0.069346
  13 H :    0.032266
  14 H :    0.031805
  15 H :    0.018972
  16 S :    0.430252
  17 C :   -0.187689
  18 C :   -0.085834
  19 C :   -0.054942
  20 C :   -0.209031
  21 H :    0.047131
  22 C :   -0.034308
  23 H :    0.030666
  24 H :    0.037872
  25 C :   -0.052985
  26 H :    0.028207
  27 H :    0.026689
  28 C :   -0.062984
  29 H :    0.036045
  30 H :    0.024967
  31 H :    0.013032
  32 H :    0.023770
  33 H :    0.026914

  Mayer bond orders larger than 0.100000
B(  0-S ,  1-C ) :   1.1500 B(  0-S ,  4-C ) :   1.1354 B(  1-C ,  2-C ) :   1.5850
B(  1-C , 32-H ) :   0.9611 B(  2-C ,  3-C ) :   1.2627 B(  2-C ,  6-C ) :   1.0215
B(  3-C ,  4-C ) :   1.5853 B(  3-C ,  5-H ) :   0.9876 B(  4-C , 20-C ) :   1.0113
B(  6-C ,  7-H ) :   0.9261 B(  6-C ,  8-H ) :   0.9180 B(  6-C ,  9-C ) :   1.1011
B(  9-C , 10-H ) :   0.9503 B(  9-C , 11-H ) :   0.9351 B(  9-C , 12-C ) :   1.0987
B( 12-C , 13-H ) :   0.9716 B( 12-C , 14-H ) :   0.9714 B( 12-C , 15-H ) :   0.9711
B( 16-S , 17-C ) :   1.1694 B( 16-S , 20-C ) :   1.1521 B( 17-C , 18-C ) :   1.6092
B( 17-C , 20-C ) :   0.1058 B( 17-C , 33-H ) :   0.9655 B( 18-C , 19-C ) :   1.2621
B( 18-C , 21-H ) :   0.9775 B( 19-C , 20-C ) :   1.5976 B( 19-C , 22-C ) :   1.0465
B( 22-C , 23-H ) :   0.9322 B( 22-C , 24-H ) :   0.9282 B( 22-C , 25-C ) :   1.0409
B( 25-C , 26-H ) :   0.9483 B( 25-C , 27-H ) :   0.9633 B( 25-C , 28-C ) :   1.1009
B( 28-C , 29-H ) :   0.9732 B( 28-C , 30-H ) :   0.9708 B( 28-C , 31-H ) :   0.9766

Dispersion correction           -0.013482646
FINAL SINGLE POINT ENERGY     -1339.870578906287

DIPOLE MOMENT
-------------
                                X             Y             Z
Electronic contribution:     21.12456     -15.43529       3.72041
Nuclear contribution   :    -21.45963      15.94869      -3.82296
                        -----------------------------------------
Total Dipole Moment    :     -0.33507       0.51340      -0.10255
                        -----------------------------------------
Magnitude (a.u.)       :      0.62159
Magnitude (Debye)      :      1.57995

Rotational constants in cm-1:     0.019658     0.007439     0.006158
Rotational constants in MHz :   589.343455   223.025893   184.610035

                             ****ORCA TERMINATED NORMALLY****
TOTAL RUN TIME: 0 days 0 hours 0 minutes 29 seconds 118 msec
