                         Program Version 4.2.1 -  RELEASE  -
|  1> ! wB97X-D3 SP def2-SVP
|  2> %pal
|  3> nprocs 16
|  4> end
|  5>
|  6> * xyz 0 1
|  7> S 	 -89.0786 	 47.5014 	 129.705
|  8> C 	 -90.3675 	 47.9263 	 128.647
|  9> C 	 -89.8853 	 48.3226 	 127.458
| 10> C 	 -88.4747 	 48.0916 	 127.31
| 11> C 	 -87.861 	 47.6936 	 128.502
| 12> H 	 -88.0432 	 48.2307 	 126.328
| 13> C 	 -90.669 	 49.0552 	 126.4
| 14> H 	 -90.0457 	 49.9552 	 126.279
| 15> H 	 -91.5145 	 49.4026 	 126.962
| 16> C 	 -90.9619 	 48.2342 	 125.124
| 17> H 	 -91.3708 	 48.9793 	 124.447
| 18> H 	 -89.9918 	 47.9389 	 124.703
| 19> C 	 -91.9247 	 47.0291 	 125.188
| 20> H 	 -92.8691 	 47.3977 	 125.294
| 21> H 	 -91.8807 	 46.4932 	 124.21
| 22> H 	 -91.7419 	 46.4214 	 126.026
| 23> S 	 -86.0177 	 45.6744 	 129.05
| 24> C 	 -84.48 	 46.0948 	 129.769
| 25> C 	 -84.2529 	 47.3891 	 129.512
| 26> C 	 -85.3555 	 48.1977 	 129.086
| 27> C 	 -86.4486 	 47.3555 	 128.749
| 28> H 	 -83.258 	 47.7276 	 129.699
| 29> C 	 -85.2284 	 49.6752 	 128.726
| 30> H 	 -85.5282 	 50.3094 	 129.565
| 31> H 	 -86.0097 	 49.905 	 128.088
| 32> C 	 -83.8452 	 50.112 	 128.151
| 33> H 	 -83.542 	 49.4295 	 127.298
| 34> H 	 -83.0324 	 49.9909 	 128.924
| 35> C 	 -83.8427 	 51.5827 	 127.651
| 36> H 	 -82.904 	 52.0683 	 127.827
| 37> H 	 -84.6062 	 52.0966 	 128.213
| 38> H 	 -84.2702 	 51.6435 	 126.67
| 39> H 	 -91.3865 	 48.0489 	 128.994
| 40> H 	 -83.7602 	 45.318 	 130.02
| 41> *
| 42>
| 43>                          ****END OF INPUT****

CARTESIAN COORDINATES (ANGSTROEM)
---------------------------------
  S    -89.078600   47.501400  129.705000
  C    -90.367500   47.926300  128.647000
  C    -89.885300   48.322600  127.458000
  C    -88.474700   48.091600  127.310000
  C    -87.861000   47.693600  128.502000
  H    -88.043200   48.230700  126.328000
  C    -90.669000   49.055200  126.400000
  H    -90.045700   49.955200  126.279000
  H    -91.514500   49.402600  126.962000
  C    -90.961900   48.234200  125.124000
  H    -91.370800   48.979300  124.447000
  H    -89.991800   47.938900  124.703000
  C    -91.924700   47.029100  125.188000
  H    -92.869100   47.397700  125.294000
  H    -91.880700   46.493200  124.210000
  H    -91.741900   46.421400  126.026000
  S    -86.017700   45.674400  129.050000
  C    -84.480000   46.094800  129.769000
  C    -84.252900   47.389100  129.512000
  C    -85.355500   48.197700  129.086000
  C    -86.448600   47.355500  128.749000
  H    -83.258000   47.727600  129.699000
  C    -85.228400   49.675200  128.726000
  H    -85.528200   50.309400  129.565000
  H    -86.009700   49.905000  128.088000
  C    -83.845200   50.112000  128.151000
  H    -83.542000   49.429500  127.298000
  H    -83.032400   49.990900  128.924000
  C    -83.842700   51.582700  127.651000
  H    -82.904000   52.068300  127.827000
  H    -84.606200   52.096600  128.213000
  H    -84.270200   51.643500  126.670000
  H    -91.386500   48.048900  128.994000
  H    -83.760200   45.318000  130.020000

 Total Charge           Charge          ....    0
 Multiplicity           Mult            ....    1
 Number of Electrons    NEL             ....  134
 Basis Dimension        Dim             ....  322

ORBITAL ENERGIES
----------------

  NO   OCC          E(Eh)            E(eV)
   0   2.0000     -88.960121     -2420.7280
   1   2.0000     -88.958522     -2420.6844
   2   2.0000     -10.330101      -281.0963
   3   2.0000     -10.329101      -281.0691
   4   2.0000     -10.312876      -280.6276
   5   2.0000     -10.307872      -280.4915
   6   2.0000     -10.305607      -280.4298
   7   2.0000     -10.298361      -280.2326
   8   2.0000     -10.292909      -280.0843
   9   2.0000     -10.290130      -280.0087
  10   2.0000     -10.289682      -279.9965
  11   2.0000     -10.289391      -279.9886
  12   2.0000     -10.289287      -279.9857
  13   2.0000     -10.286824      -279.9187
  14   2.0000     -10.275641      -279.6144
  15   2.0000     -10.271072      -279.4901
  16   2.0000      -8.076128      -219.7626
  17   2.0000      -8.073583      -219.6934
  18   2.0000      -6.034675      -164.2118
  19   2.0000      -6.032074      -164.1411
  20   2.0000      -6.030297      -164.0927
  21   2.0000      -6.028001      -164.0303
  22   2.0000      -6.026901      -164.0003
  23   2.0000      -6.024369      -163.9314
  24   2.0000      -1.007897       -27.4263
  25   2.0000      -0.987752       -26.8781
  26   2.0000      -0.911615       -24.8063
  27   2.0000      -0.904229       -24.6053
  28   2.0000      -0.870276       -23.6814
  29   2.0000      -0.848187       -23.0803
  30   2.0000      -0.844665       -22.9845
  31   2.0000      -0.817203       -22.2372
  32   2.0000      -0.786450       -21.4004
  33   2.0000      -0.774223       -21.0677
  34   2.0000      -0.711417       -19.3586
  35   2.0000      -0.704038       -19.1579
  36   2.0000      -0.695370       -18.9220
  37   2.0000      -0.647347       -17.6152
  38   2.0000      -0.638334       -17.3699
  39   2.0000      -0.623625       -16.9697
  40   2.0000      -0.600720       -16.3464
  41   2.0000      -0.569748       -15.5036
  42   2.0000      -0.560842       -15.2613
  43   2.0000      -0.549250       -14.9459
  44   2.0000      -0.543297       -14.7839
  45   2.0000      -0.533569       -14.5191
  46   2.0000      -0.518858       -14.1189
  47   2.0000      -0.508689       -13.8421
  48   2.0000      -0.501176       -13.6377
  49   2.0000      -0.499852       -13.6017
  50   2.0000      -0.488069       -13.2810
  51   2.0000      -0.481428       -13.1003
  52   2.0000      -0.474383       -12.9086
  53   2.0000      -0.470182       -12.7943
  54   2.0000      -0.455452       -12.3935
  55   2.0000      -0.450366       -12.2551
  56   2.0000      -0.444564       -12.0972
  57   2.0000      -0.441651       -12.0179
  58   2.0000      -0.432146       -11.7593
  59   2.0000      -0.424244       -11.5443
  60   2.0000      -0.418967       -11.4007
  61   2.0000      -0.415617       -11.3095
  62   2.0000      -0.407970       -11.1014
  63   2.0000      -0.333145        -9.0653
  64   2.0000      -0.328408        -8.9364
  65   2.0000      -0.321037        -8.7359
  66   2.0000      -0.307110        -8.3569
  67   0.0000       0.039358         1.0710
  68   0.0000       0.062266         1.6944
  69   0.0000       0.116282         3.1642
  70   0.0000       0.119303         3.2464
  71   0.0000       0.142601         3.8804

MULLIKEN ATOMIC CHARGES
-----------------------
   0 S :    0.120227
   1 C :   -0.129559
   2 C :   -0.134172
   3 C :    0.043348
   4 C :   -0.146695
   5 H :    0.009603
   6 C :    0.071816
   7 H :    0.037282
   8 H :    0.002686
   9 C :   -0.075874
  10 H :    0.027933
  11 H :    0.025251
  12 C :    0.011204
  13 H :    0.005449
  14 H :    0.044517
  15 H :    0.030834
  16 S :    0.093199
  17 C :   -0.100102
  18 C :   -0.024755
  19 C :   -0.026079
  20 C :   -0.179652
  21 H :    0.007804
  22 C :    0.126412
  23 H :    0.028510
  24 H :   -0.008327
  25 C :   -0.147264
  26 H :    0.048209
  27 H :    0.042462
  28 C :   -0.003367
  29 H :    0.041278
  30 H :    0.012364
  31 H :    0.030568
  32 H :    0.047296
  33 H :    0.067593
Sum of atomic charges:   -0.0000000

LOEWDIN ATOMIC CHARGES
----------------------
   0 S :    0.430346
   1 C :   -0.208890
   2 C :   -0.075673
   3 C :   -0.061865
   4 C :   -0.208144
   5 H :    0.028521
   6 C :   -0.032569
   7 H :    0.039499
   8 H :    0.024003
   9 C :   -0.037440
  10 H :    0.024249
  11 H :    0.021963
  12 C :   -0.050444
  13 H :    0.012702
  14 H :    0.038443
  15 H :    0.021511
  16 S :    0.398142
  17 C :   -0.182047
  18 C :   -0.074420
  19 C :   -0.045403
  20 C :   -0.202666
  21 H :    0.025890
  22 C :   -0.032182
  23 H :    0.036568
  24 H :    0.019771
  25 C :   -0.043603
  26 H :    0.030302
  27 H :    0.025636
  28 C :   -0.062144
  29 H :    0.027412
  30 H :    0.023710
  31 H :    0.026389
  32 H :    0.028621
  33 H :    0.033813

  Mayer bond orders larger than 0.100000
B(  0-S ,  1-C ) :   1.1408 B(  0-S ,  4-C ) :   1.1775 B(  1-C ,  2-C ) :   1.6179
B(  1-C , 32-H ) :   0.9668 B(  2-C ,  3-C ) :   1.2579 B(  2-C ,  6-C ) :   1.0007
B(  3-C ,  4-C ) :   1.5519 B(  3-C ,  5-H ) :   0.9952 B(  4-C , 20-C ) :   1.0049
B(  6-C ,  7-H ) :   0.9418 B(  6-C ,  8-H ) :   0.9416 B(  6-C ,  9-C ) :   1.0569
B(  9-C , 10-H ) :   0.9564 B(  9-C , 11-H ) :   0.9602 B(  9-C , 12-C ) :   1.0707
B( 12-C , 13-H ) :   0.9726 B( 12-C , 14-H ) :   0.9726 B( 12-C , 15-H ) :   0.9771
B( 16-S , 17-C ) :   1.1532 B( 16-S , 20-C ) :   1.1640 B( 17-C , 18-C ) :   1.6141
B( 17-C , 33-H ) :   0.9635 B( 18-C , 19-C ) :   1.2411 B( 18-C , 21-H ) :   0.9885
B( 19-C , 20-C ) :   1.5741 B( 19-C , 22-C ) :   1.0365 B( 22-C , 23-H ) :   0.9103
B( 22-C , 24-H ) :   0.9331 B( 22-C , 25-C ) :   1.0656 B( 25-C , 26-H ) :   0.9623
B( 25-C , 27-H ) :   0.9526 B( 25-C , 28-C ) :   1.0730 B( 28-C , 29-H ) :   0.9759
B( 28-C , 30-H ) :   0.9731 B( 28-C , 31-H ) :   0.9730

Dispersion correction           -0.013674873
FINAL SINGLE POINT ENERGY     -1339.865932691147

DIPOLE MOMENT
-------------
                                X             Y             Z
Electronic contribution:      1.62501     -16.87205      16.80275
Nuclear contribution   :     -1.57916      17.43267     -17.20199
                        -----------------------------------------
Total Dipole Moment    :      0.04584       0.56062      -0.39924
                        -----------------------------------------
Magnitude (a.u.)       :      0.68977
Magnitude (Debye)      :      1.75326

Rotational constants in cm-1:     0.018824     0.007751     0.006332
Rotational constants in MHz :   564.339496   232.365040   189.819819

                             ****ORCA TERMINATED NORMALLY****
TOTAL RUN TIME: 0 days 0 hours 0 minutes 32 seconds 160 msec
