                         Program Version 4.2.1 -  RELEASE  -
|  1> ! wB97X-D3 SP def2-SVP
|  2> %pal
|  3> nprocs 16
|  4> end
|  5>
|  6> * xyz 0 1
|  7> S 	 -91.2752 	 57.2841 	 128.582
|  8> C 	 -90.2269 	 56.3506 	 129.651
|  9> C 	 -89.3847 	 55.4884 	 128.929
| 10> C 	 -89.6527 	 55.5661 	 127.5
| 11> C 	 -90.6939 	 56.4572 	 127.139
| 12> H 	 -89.2003 	 55.0175 	 126.565
| 13> C 	 -88.4255 	 54.5258 	 129.576
| 14> H 	 -87.5562 	 55.1613 	 130.066
| 15> H 	 -87.9739 	 53.9092 	 128.854
| 16> C 	 -89.0412 	 53.6487 	 130.689
| 17> H 	 -89.5701 	 54.1267 	 131.459
| 18> H 	 -89.765 	 53.1315 	 130.152
| 19> C 	 -87.9837 	 52.6814 	 131.195
| 20> H 	 -87.1491 	 53.1475 	 131.703
| 21> H 	 -88.4788 	 51.9794 	 131.832
| 22> H 	 -87.5179 	 52.1061 	 130.396
| 23> S 	 -91.5093 	 58.4352 	 125.435
| 24> C 	 -92.4317 	 57.8975 	 124.06
| 25> C 	 -92.2037 	 56.6105 	 123.78
| 26> C 	 -91.5342 	 55.9404 	 124.833
| 27> C 	 -91.2008 	 56.7763 	 125.86
| 28> H 	 -92.5633 	 56.0923 	 122.861
| 29> C 	 -91.5356 	 54.4104 	 124.946
| 30> H 	 -92.4774 	 53.9375 	 124.597
| 31> H 	 -91.2343 	 54.0699 	 125.887
| 32> C 	 -90.4828 	 53.7459 	 123.977
| 33> H 	 -89.4589 	 54.1988 	 124.083
| 34> H 	 -90.8234 	 53.6788 	 122.968
| 35> C 	 -90.1765 	 52.2746 	 124.328
| 36> H 	 -90.9914 	 51.5705 	 124.025
| 37> H 	 -89.7942 	 52.0971 	 125.388
| 38> H 	 -89.3853 	 51.9726 	 123.647
| 39> H 	 -90.1581 	 56.3668 	 130.69
| 40> H 	 -92.7889 	 58.5812 	 123.358
| 41> *
| 42>
| 43>                          ****END OF INPUT****

CARTESIAN COORDINATES (ANGSTROEM)
---------------------------------
  S    -91.275200   57.284100  128.582000
  C    -90.226900   56.350600  129.651000
  C    -89.384700   55.488400  128.929000
  C    -89.652700   55.566100  127.500000
  C    -90.693900   56.457200  127.139000
  H    -89.200300   55.017500  126.565000
  C    -88.425500   54.525800  129.576000
  H    -87.556200   55.161300  130.066000
  H    -87.973900   53.909200  128.854000
  C    -89.041200   53.648700  130.689000
  H    -89.570100   54.126700  131.459000
  H    -89.765000   53.131500  130.152000
  C    -87.983700   52.681400  131.195000
  H    -87.149100   53.147500  131.703000
  H    -88.478800   51.979400  131.832000
  H    -87.517900   52.106100  130.396000
  S    -91.509300   58.435200  125.435000
  C    -92.431700   57.897500  124.060000
  C    -92.203700   56.610500  123.780000
  C    -91.534200   55.940400  124.833000
  C    -91.200800   56.776300  125.860000
  H    -92.563300   56.092300  122.861000
  C    -91.535600   54.410400  124.946000
  H    -92.477400   53.937500  124.597000
  H    -91.234300   54.069900  125.887000
  C    -90.482800   53.745900  123.977000
  H    -89.458900   54.198800  124.083000
  H    -90.823400   53.678800  122.968000
  C    -90.176500   52.274600  124.328000
  H    -90.991400   51.570500  124.025000
  H    -89.794200   52.097100  125.388000
  H    -89.385300   51.972600  123.647000
  H    -90.158100   56.366800  130.690000
  H    -92.788900   58.581200  123.358000

 Total Charge           Charge          ....    0
 Multiplicity           Mult            ....    1
 Number of Electrons    NEL             ....  134
 Basis Dimension        Dim             ....  322

ORBITAL ENERGIES
----------------

  NO   OCC          E(Eh)            E(eV)
   0   2.0000     -88.968026     -2420.9431
   1   2.0000     -88.963248     -2420.8130
   2   2.0000     -10.329517      -281.0804
   3   2.0000     -10.320967      -280.8478
   4   2.0000     -10.313317      -280.6396
   5   2.0000     -10.308790      -280.5164
   6   2.0000     -10.308759      -280.5156
   7   2.0000     -10.307898      -280.4922
   8   2.0000     -10.299261      -280.2571
   9   2.0000     -10.297379      -280.2059
  10   2.0000     -10.293165      -280.0913
  11   2.0000     -10.291751      -280.0528
  12   2.0000     -10.290234      -280.0115
  13   2.0000     -10.285277      -279.8766
  14   2.0000     -10.279207      -279.7114
  15   2.0000     -10.275450      -279.6092
  16   2.0000      -8.081906      -219.9198
  17   2.0000      -8.078904      -219.8382
  18   2.0000      -6.040516      -164.3708
  19   2.0000      -6.037359      -164.2849
  20   2.0000      -6.036371      -164.2580
  21   2.0000      -6.033529      -164.1807
  22   2.0000      -6.032751      -164.1595
  23   2.0000      -6.029400      -164.0683
  24   2.0000      -1.013753       -27.5856
  25   2.0000      -0.981580       -26.7101
  26   2.0000      -0.917433       -24.9646
  27   2.0000      -0.906026       -24.6542
  28   2.0000      -0.877298       -23.8725
  29   2.0000      -0.853673       -23.2296
  30   2.0000      -0.844524       -22.9807
  31   2.0000      -0.813598       -22.1391
  32   2.0000      -0.781532       -21.2666
  33   2.0000      -0.771359       -20.9897
  34   2.0000      -0.715754       -19.4766
  35   2.0000      -0.706580       -19.2270
  36   2.0000      -0.689956       -18.7747
  37   2.0000      -0.663723       -18.0608
  38   2.0000      -0.639287       -17.3959
  39   2.0000      -0.609735       -16.5917
  40   2.0000      -0.598676       -16.2908
  41   2.0000      -0.577355       -15.7106
  42   2.0000      -0.573897       -15.6165
  43   2.0000      -0.562738       -15.3129
  44   2.0000      -0.525624       -14.3029
  45   2.0000      -0.524678       -14.2772
  46   2.0000      -0.520065       -14.1517
  47   2.0000      -0.510010       -13.8781
  48   2.0000      -0.504300       -13.7227
  49   2.0000      -0.498392       -13.5619
  50   2.0000      -0.494996       -13.4695
  51   2.0000      -0.478014       -13.0074
  52   2.0000      -0.472388       -12.8543
  53   2.0000      -0.469609       -12.7787
  54   2.0000      -0.459186       -12.4951
  55   2.0000      -0.453866       -12.3503
  56   2.0000      -0.449774       -12.2390
  57   2.0000      -0.435440       -11.8489
  58   2.0000      -0.429629       -11.6908
  59   2.0000      -0.424447       -11.5498
  60   2.0000      -0.423589       -11.5264
  61   2.0000      -0.416824       -11.3424
  62   2.0000      -0.415149       -11.2968
  63   2.0000      -0.353324        -9.6144
  64   2.0000      -0.331908        -9.0317
  65   2.0000      -0.327222        -8.9042
  66   2.0000      -0.287261        -7.8168
  67   0.0000       0.022521         0.6128
  68   0.0000       0.073802         2.0083
  69   0.0000       0.107472         2.9245
  70   0.0000       0.120804         3.2873
  71   0.0000       0.123169         3.3516

MULLIKEN ATOMIC CHARGES
-----------------------
   0 S :    0.120536
   1 C :   -0.085296
   2 C :   -0.087724
   3 C :    0.003063
   4 C :   -0.184258
   5 H :    0.045625
   6 C :    0.040380
   7 H :    0.049478
   8 H :    0.007076
   9 C :   -0.042502
  10 H :    0.022470
  11 H :    0.014227
  12 C :   -0.026757
  13 H :    0.028985
  14 H :    0.028113
  15 H :    0.021059
  16 S :    0.103904
  17 C :   -0.061001
  18 C :   -0.035743
  19 C :   -0.013032
  20 C :   -0.149508
  21 H :    0.032270
  22 C :    0.101006
  23 H :    0.035833
  24 H :    0.002604
  25 C :   -0.122423
  26 H :    0.042297
  27 H :    0.029449
  28 C :   -0.089161
  29 H :    0.035030
  30 H :    0.046159
  31 H :    0.029344
  32 H :    0.020535
  33 H :    0.037960
Sum of atomic charges:   -0.0000000

LOEWDIN ATOMIC CHARGES
----------------------
   0 S :    0.405235
   1 C :   -0.188284
   2 C :   -0.061556
   3 C :   -0.079408
   4 C :   -0.193711
   5 H :    0.048355
   6 C :   -0.031558
   7 H :    0.042295
   8 H :    0.021051
   9 C :   -0.030361
  10 H :    0.017286
  11 H :    0.020080
  12 C :   -0.058559
  13 H :    0.023886
  14 H :    0.024113
  15 H :    0.025501
  16 S :    0.402792
  17 C :   -0.171367
  18 C :   -0.066820
  19 C :   -0.055979
  20 C :   -0.202147
  21 H :    0.039895
  22 C :   -0.020029
  23 H :    0.036092
  24 H :    0.016241
  25 C :   -0.042478
  26 H :    0.026928
  27 H :    0.018807
  28 C :   -0.078741
  29 H :    0.025353
  30 H :    0.028769
  31 H :    0.025297
  32 H :    0.016094
  33 H :    0.016928

  Mayer bond orders larger than 0.100000
B(  0-S ,  1-C ) :   1.1353 B(  0-S ,  4-C ) :   1.1452 B(  1-C ,  2-C ) :   1.5956
B(  1-C ,  4-C ) :   0.1049 B(  1-C , 32-H ) :   0.9774 B(  2-C ,  3-C ) :   1.2395
B(  2-C ,  6-C ) :   1.0283 B(  3-C ,  4-C ) :   1.5516 B(  3-C ,  5-H ) :   0.9695
B(  4-C , 20-C ) :   1.0922 B(  6-C ,  7-H ) :   0.9339 B(  6-C ,  8-H ) :   0.9471
B(  6-C ,  9-C ) :   1.0572 B(  9-C , 10-H ) :   0.9563 B(  9-C , 11-H ) :   0.9517
B(  9-C , 12-C ) :   1.0915 B( 12-C , 13-H ) :   0.9757 B( 12-C , 14-H ) :   0.9728
B( 12-C , 15-H ) :   0.9713 B( 16-S , 17-C ) :   1.1369 B( 16-S , 20-C ) :   1.1300
B( 17-C , 18-C ) :   1.6386 B( 17-C , 33-H ) :   0.9702 B( 18-C , 19-C ) :   1.2304
B( 18-C , 21-H ) :   0.9830 B( 19-C , 20-C ) :   1.6005 B( 19-C , 22-C ) :   1.0574
B( 22-C , 23-H ) :   0.9411 B( 22-C , 24-H ) :   0.9340 B( 22-C , 25-C ) :   1.0449
B( 25-C , 26-H ) :   0.9590 B( 25-C , 27-H ) :   0.9561 B( 25-C , 28-C ) :   1.0895
B( 28-C , 29-H ) :   0.9726 B( 28-C , 30-H ) :   0.9722 B( 28-C , 31-H ) :   0.9744

Dispersion correction           -0.013775324
FINAL SINGLE POINT ENERGY     -1339.858332800332

DIPOLE MOMENT
-------------
                                X             Y             Z
Electronic contribution:    -12.61965      30.12087      -3.58693
Nuclear contribution   :     12.80506     -30.81670       3.40661
                        -----------------------------------------
Total Dipole Moment    :      0.18540      -0.69583      -0.18032
                        -----------------------------------------
Magnitude (a.u.)       :      0.74234
Magnitude (Debye)      :      1.88688

Rotational constants in cm-1:     0.018725     0.008593     0.006148
Rotational constants in MHz :   561.370314   257.614145   184.311322

                             ****ORCA TERMINATED NORMALLY****
TOTAL RUN TIME: 0 days 0 hours 0 minutes 34 seconds 982 msec
