                         Program Version 4.2.1 -  RELEASE  -
|  1> ! wB97X-D3 SP def2-SVP
|  2> %pal
|  3> nprocs 16
|  4> end
|  5>
|  6> * xyz 0 1
|  7> S 	 -8.52684 	 -7.50001 	 86.2234
|  8> C 	 -8.32566 	 -9.14255 	 85.7108
|  9> C 	 -7.04317 	 -9.39441 	 85.2371
| 10> C 	 -6.14669 	 -8.36848 	 85.5824
| 11> C 	 -6.81512 	 -7.20599 	 85.9579
| 12> H 	 -5.08383 	 -8.39046 	 85.5444
| 13> C 	 -6.67539 	 -10.6462 	 84.4429
| 14> H 	 -7.59221 	 -11.3047 	 84.5445
| 15> H 	 -5.8685 	 -11.1802 	 84.9242
| 16> C 	 -6.3758 	 -10.4663 	 82.9561
| 17> H 	 -7.29778 	 -10.0513 	 82.4019
| 18> H 	 -5.48611 	 -9.83914 	 82.6384
| 19> C 	 -5.95603 	 -11.8484 	 82.4774
| 20> H 	 -5.80345 	 -11.8616 	 81.4309
| 21> H 	 -4.94251 	 -12.0363 	 82.8895
| 22> H 	 -6.60296 	 -12.6731 	 82.8435
| 23> S 	 -6.46641 	 -5.57479 	 88.1087
| 24> C 	 -5.33395 	 -4.27466 	 88.0182
| 25> C 	 -4.85846 	 -4.16751 	 86.7408
| 26> C 	 -5.29505 	 -5.15529 	 85.8348
| 27> C 	 -6.23864 	 -5.92365 	 86.4281
| 28> H 	 -4.17479 	 -3.44835 	 86.4951
| 29> C 	 -4.76135 	 -5.29896 	 84.4278
| 30> H 	 -4.487 	 -4.34005 	 84.0622
| 31> H 	 -5.51366 	 -5.86319 	 83.8326
| 32> C 	 -3.36783 	 -6.08063 	 84.196
| 33> H 	 -3.31149 	 -6.94691 	 84.866
| 34> H 	 -2.61642 	 -5.4319 	 84.5509
| 35> C 	 -3.23729 	 -6.49654 	 82.6209
| 36> H 	 -3.5613 	 -5.76532 	 81.9724
| 37> H 	 -3.81392 	 -7.43395 	 82.5141
| 38> H 	 -2.2077 	 -6.61836 	 82.442
| 39> H 	 -9.08587 	 -9.89 	 85.5219
| 40> H 	 -4.89445 	 -3.70533 	 88.8503
| 41> *
| 42>
| 43>                          ****END OF INPUT****

CARTESIAN COORDINATES (ANGSTROEM)
---------------------------------
  S     -8.526840   -7.500010   86.223400
  C     -8.325660   -9.142550   85.710800
  C     -7.043170   -9.394410   85.237100
  C     -6.146690   -8.368480   85.582400
  C     -6.815120   -7.205990   85.957900
  H     -5.083830   -8.390460   85.544400
  C     -6.675390  -10.646200   84.442900
  H     -7.592210  -11.304700   84.544500
  H     -5.868500  -11.180200   84.924200
  C     -6.375800  -10.466300   82.956100
  H     -7.297780  -10.051300   82.401900
  H     -5.486110   -9.839140   82.638400
  C     -5.956030  -11.848400   82.477400
  H     -5.803450  -11.861600   81.430900
  H     -4.942510  -12.036300   82.889500
  H     -6.602960  -12.673100   82.843500
  S     -6.466410   -5.574790   88.108700
  C     -5.333950   -4.274660   88.018200
  C     -4.858460   -4.167510   86.740800
  C     -5.295050   -5.155290   85.834800
  C     -6.238640   -5.923650   86.428100
  H     -4.174790   -3.448350   86.495100
  C     -4.761350   -5.298960   84.427800
  H     -4.487000   -4.340050   84.062200
  H     -5.513660   -5.863190   83.832600
  C     -3.367830   -6.080630   84.196000
  H     -3.311490   -6.946910   84.866000
  H     -2.616420   -5.431900   84.550900
  C     -3.237290   -6.496540   82.620900
  H     -3.561300   -5.765320   81.972400
  H     -3.813920   -7.433950   82.514100
  H     -2.207700   -6.618360   82.442000
  H     -9.085870   -9.890000   85.521900
  H     -4.894450   -3.705330   88.850300

 Total Charge           Charge          ....    0
 Multiplicity           Mult            ....    1
 Number of Electrons    NEL             ....  134
 Basis Dimension        Dim             ....  322

ORBITAL ENERGIES
----------------

  NO   OCC          E(Eh)            E(eV)
   0   2.0000     -88.967065     -2420.9169
   1   2.0000     -88.963268     -2420.8136
   2   2.0000     -10.328302      -281.0474
   3   2.0000     -10.318055      -280.7685
   4   2.0000     -10.313176      -280.6358
   5   2.0000     -10.308919      -280.5199
   6   2.0000     -10.298572      -280.2384
   7   2.0000     -10.297926      -280.2208
   8   2.0000     -10.296629      -280.1855
   9   2.0000     -10.294997      -280.1411
  10   2.0000     -10.294006      -280.1141
  11   2.0000     -10.293400      -280.0976
  12   2.0000     -10.291178      -280.0372
  13   2.0000     -10.281028      -279.7610
  14   2.0000     -10.280914      -279.7579
  15   2.0000     -10.278671      -279.6969
  16   2.0000      -8.081710      -219.9145
  17   2.0000      -8.078820      -219.8359
  18   2.0000      -6.040144      -164.3607
  19   2.0000      -6.037279      -164.2827
  20   2.0000      -6.036269      -164.2552
  21   2.0000      -6.033164      -164.1707
  22   2.0000      -6.032531      -164.1535
  23   2.0000      -6.029614      -164.0741
  24   2.0000      -1.011888       -27.5349
  25   2.0000      -0.988261       -26.8919
  26   2.0000      -0.914129       -24.8747
  27   2.0000      -0.898761       -24.4565
  28   2.0000      -0.868339       -23.6287
  29   2.0000      -0.852136       -23.1878
  30   2.0000      -0.848099       -23.0779
  31   2.0000      -0.814473       -22.1629
  32   2.0000      -0.782500       -21.2929
  33   2.0000      -0.768948       -20.9241
  34   2.0000      -0.709063       -19.2946
  35   2.0000      -0.697959       -18.9924
  36   2.0000      -0.690503       -18.7896
  37   2.0000      -0.667220       -18.1560
  38   2.0000      -0.641159       -17.4468
  39   2.0000      -0.619271       -16.8512
  40   2.0000      -0.594913       -16.1884
  41   2.0000      -0.573251       -15.5990
  42   2.0000      -0.567097       -15.4315
  43   2.0000      -0.560129       -15.2419
  44   2.0000      -0.527178       -14.3452
  45   2.0000      -0.523425       -14.2431
  46   2.0000      -0.517363       -14.0782
  47   2.0000      -0.509043       -13.8518
  48   2.0000      -0.506488       -13.7822
  49   2.0000      -0.497158       -13.5284
  50   2.0000      -0.491357       -13.3705
  51   2.0000      -0.479587       -13.0502
  52   2.0000      -0.471785       -12.8379
  53   2.0000      -0.465293       -12.6613
  54   2.0000      -0.457984       -12.4624
  55   2.0000      -0.447066       -12.1653
  56   2.0000      -0.445766       -12.1299
  57   2.0000      -0.442154       -12.0316
  58   2.0000      -0.433616       -11.7993
  59   2.0000      -0.428813       -11.6686
  60   2.0000      -0.423888       -11.5346
  61   2.0000      -0.421332       -11.4650
  62   2.0000      -0.413779       -11.2595
  63   2.0000      -0.344825        -9.3832
  64   2.0000      -0.328381        -8.9357
  65   2.0000      -0.327412        -8.9093
  66   2.0000      -0.293910        -7.9977
  67   0.0000       0.037605         1.0233
  68   0.0000       0.068278         1.8579
  69   0.0000       0.117437         3.1956
  70   0.0000       0.121077         3.2947
  71   0.0000       0.124074         3.3762

MULLIKEN ATOMIC CHARGES
-----------------------
   0 S :    0.114538
   1 C :   -0.102384
   2 C :   -0.093105
   3 C :    0.057941
   4 C :   -0.178301
   5 H :   -0.004471
   6 C :    0.042091
   7 H :    0.023906
   8 H :    0.026669
   9 C :   -0.108038
  10 H :    0.048514
  11 H :    0.048550
  12 C :   -0.040190
  13 H :    0.025963
  14 H :    0.025249
  15 H :    0.035952
  16 S :    0.118875
  17 C :   -0.092602
  18 C :   -0.007428
  19 C :   -0.019115
  20 C :   -0.147685
  21 H :   -0.027579
  22 C :    0.054201
  23 H :    0.016835
  24 H :    0.043199
  25 C :   -0.088813
  26 H :    0.026625
  27 H :    0.016905
  28 C :   -0.026840
  29 H :    0.024658
  30 H :    0.051192
  31 H :    0.028918
  32 H :    0.040735
  33 H :    0.065035
Sum of atomic charges:   -0.0000000

LOEWDIN ATOMIC CHARGES
----------------------
   0 S :    0.411242
   1 C :   -0.209824
   2 C :   -0.064974
   3 C :   -0.055539
   4 C :   -0.186882
   5 H :    0.026085
   6 C :   -0.033375
   7 H :    0.036982
   8 H :    0.027863
   9 C :   -0.050578
  10 H :    0.032645
  11 H :    0.031510
  12 C :   -0.066020
  13 H :    0.018475
  14 H :    0.027785
  15 H :    0.026027
  16 S :    0.424222
  17 C :   -0.195342
  18 C :   -0.063323
  19 C :   -0.060603
  20 C :   -0.209361
  21 H :    0.012910
  22 C :   -0.027361
  23 H :    0.025621
  24 H :    0.035716
  25 C :   -0.027041
  26 H :    0.017081
  27 H :    0.011309
  28 C :   -0.049662
  29 H :    0.015012
  30 H :    0.033147
  31 H :    0.022059
  32 H :    0.025849
  33 H :    0.038345

  Mayer bond orders larger than 0.100000
B(  0-S ,  1-C ) :   1.1399 B(  0-S ,  4-C ) :   1.1590 B(  1-C ,  2-C ) :   1.6217
B(  1-C , 32-H ) :   0.9585 B(  2-C ,  3-C ) :   1.2387 B(  2-C ,  6-C ) :   1.0184
B(  3-C ,  4-C ) :   1.5720 B(  3-C ,  5-H ) :   0.9967 B(  4-C , 20-C ) :   0.9869
B(  6-C ,  7-H ) :   0.9377 B(  6-C ,  8-H ) :   0.9432 B(  6-C ,  9-C ) :   1.0602
B(  9-C , 10-H ) :   0.9529 B(  9-C , 11-H ) :   0.9538 B(  9-C , 12-C ) :   1.0718
B( 12-C , 13-H ) :   0.9719 B( 12-C , 14-H ) :   0.9731 B( 12-C , 15-H ) :   0.9726
B( 16-S , 17-C ) :   1.1539 B( 16-S , 20-C ) :   1.1546 B( 17-C , 18-C ) :   1.6042
B( 17-C , 33-H ) :   0.9643 B( 18-C , 19-C ) :   1.2442 B( 18-C , 21-H ) :   1.0022
B( 19-C , 20-C ) :   1.6146 B( 19-C , 22-C ) :   1.0597 B( 22-C , 23-H ) :   0.9320
B( 22-C , 24-H ) :   0.9385 B( 22-C , 25-C ) :   1.0448 B( 25-C , 26-H ) :   0.9629
B( 25-C , 27-H ) :   0.9608 B( 25-C , 28-C ) :   1.0596 B( 28-C , 29-H ) :   0.9788
B( 28-C , 30-H ) :   0.9786 B( 28-C , 31-H ) :   0.9768

Dispersion correction           -0.014411516
FINAL SINGLE POINT ENERGY     -1339.862619101574

DIPOLE MOMENT
-------------
                                X             Y             Z
Electronic contribution:    -16.59509      14.65836      24.88124
Nuclear contribution   :     17.28208     -14.88575     -25.35388
                        -----------------------------------------
Total Dipole Moment    :      0.68699      -0.22739      -0.47264
                        -----------------------------------------
Magnitude (a.u.)       :      0.86432
Magnitude (Debye)      :      2.19692

Rotational constants in cm-1:     0.017968     0.009505     0.006637
Rotational constants in MHz :   538.654745   284.952313   198.984668

                             ****ORCA TERMINATED NORMALLY****
TOTAL RUN TIME: 0 days 0 hours 0 minutes 32 seconds 898 msec
