                         Program Version 4.2.1 -  RELEASE  -
|  1> ! wB97X-D3 SP def2-SVP
|  2> %pal
|  3> nprocs 16
|  4> end
|  5>
|  6> * xyz 0 1
|  7> S 	 32.818 	 0.109438 	 66.9306
|  8> C 	 34.1744 	 1.1898 	 66.7476
|  9> C 	 34.4861 	 1.82157 	 67.9049
| 10> C 	 33.8283 	 1.17586 	 69.0446
| 11> C 	 32.9387 	 0.179622 	 68.7105
| 12> H 	 33.9194 	 1.45218 	 70.1028
| 13> C 	 35.5038 	 2.91874 	 68.0247
| 14> H 	 35.7978 	 3.24539 	 67.0441
| 15> H 	 36.4346 	 2.57939 	 68.4757
| 16> C 	 34.9802 	 4.18493 	 68.7173
| 17> H 	 34.9593 	 3.98918 	 69.7964
| 18> H 	 35.6661 	 4.98326 	 68.5297
| 19> C 	 33.5905 	 4.66564 	 68.3175
| 20> H 	 33.2135 	 5.4592 	 69.0436
| 21> H 	 33.7008 	 5.1077 	 67.3075
| 22> H 	 32.7595 	 3.94139 	 68.3619
| 23> S 	 30.5026 	 -0.743368 	 69.3358
| 24> C 	 30.2637 	 -1.39419 	 70.9406
| 25> C 	 31.4703 	 -1.78573 	 71.4947
| 26> C 	 32.5703 	 -1.15413 	 70.8545
| 27> C 	 32.1971 	 -0.594712 	 69.6529
| 28> H 	 31.5158 	 -2.50408 	 72.2843
| 29> C 	 33.9696 	 -1.24376 	 71.4138
| 30> H 	 34.5547 	 -0.98442 	 70.5538
| 31> H 	 34.2552 	 -2.31299 	 71.7257
| 32> C 	 34.4128 	 -0.247726 	 72.4919
| 33> H 	 33.6991 	 0.599985 	 72.4882
| 34> H 	 35.3964 	 0.094386 	 72.352
| 35> C 	 34.3795 	 -0.872648 	 73.9235
| 36> H 	 35.0148 	 -0.297969 	 74.5428
| 37> H 	 34.7097 	 -1.85068 	 73.9218
| 38> H 	 33.3615 	 -0.858891 	 74.1773
| 39> H 	 34.5736 	 1.46696 	 65.7973
| 40> H 	 29.3571 	 -1.82419 	 71.1627
| 41> *
| 42>
| 43>                          ****END OF INPUT****

CARTESIAN COORDINATES (ANGSTROEM)
---------------------------------
  S     32.818000    0.109438   66.930600
  C     34.174400    1.189800   66.747600
  C     34.486100    1.821570   67.904900
  C     33.828300    1.175860   69.044600
  C     32.938700    0.179622   68.710500
  H     33.919400    1.452180   70.102800
  C     35.503800    2.918740   68.024700
  H     35.797800    3.245390   67.044100
  H     36.434600    2.579390   68.475700
  C     34.980200    4.184930   68.717300
  H     34.959300    3.989180   69.796400
  H     35.666100    4.983260   68.529700
  C     33.590500    4.665640   68.317500
  H     33.213500    5.459200   69.043600
  H     33.700800    5.107700   67.307500
  H     32.759500    3.941390   68.361900
  S     30.502600   -0.743368   69.335800
  C     30.263700   -1.394190   70.940600
  C     31.470300   -1.785730   71.494700
  C     32.570300   -1.154130   70.854500
  C     32.197100   -0.594712   69.652900
  H     31.515800   -2.504080   72.284300
  C     33.969600   -1.243760   71.413800
  H     34.554700   -0.984420   70.553800
  H     34.255200   -2.312990   71.725700
  C     34.412800   -0.247726   72.491900
  H     33.699100    0.599985   72.488200
  H     35.396400    0.094386   72.352000
  C     34.379500   -0.872648   73.923500
  H     35.014800   -0.297969   74.542800
  H     34.709700   -1.850680   73.921800
  H     33.361500   -0.858891   74.177300
  H     34.573600    1.466960   65.797300
  H     29.357100   -1.824190   71.162700

 Total Charge           Charge          ....    0
 Multiplicity           Mult            ....    1
 Number of Electrons    NEL             ....  134
 Basis Dimension        Dim             ....  322

ORBITAL ENERGIES
----------------

  NO   OCC          E(Eh)            E(eV)
   0   2.0000     -88.964535     -2420.8481
   1   2.0000     -88.963471     -2420.8191
   2   2.0000     -10.329351      -281.0759
   3   2.0000     -10.324337      -280.9395
   4   2.0000     -10.310800      -280.5711
   5   2.0000     -10.310774      -280.5704
   6   2.0000     -10.302260      -280.3387
   7   2.0000     -10.301133      -280.3081
   8   2.0000     -10.296846      -280.1914
   9   2.0000     -10.294765      -280.1348
  10   2.0000     -10.291244      -280.0390
  11   2.0000     -10.289826      -280.0004
  12   2.0000     -10.284409      -279.8530
  13   2.0000     -10.283652      -279.8324
  14   2.0000     -10.281267      -279.7675
  15   2.0000     -10.263665      -279.2885
  16   2.0000      -8.080192      -219.8732
  17   2.0000      -8.078083      -219.8158
  18   2.0000      -6.038594      -164.3185
  19   2.0000      -6.036818      -164.2702
  20   2.0000      -6.034808      -164.2155
  21   2.0000      -6.032798      -164.1608
  22   2.0000      -6.030765      -164.1055
  23   2.0000      -6.028427      -164.0418
  24   2.0000      -1.012285       -27.5457
  25   2.0000      -0.986224       -26.8365
  26   2.0000      -0.913641       -24.8614
  27   2.0000      -0.910272       -24.7698
  28   2.0000      -0.876691       -23.8560
  29   2.0000      -0.855882       -23.2897
  30   2.0000      -0.839984       -22.8571
  31   2.0000      -0.817412       -22.2429
  32   2.0000      -0.785820       -21.3832
  33   2.0000      -0.775752       -21.1093
  34   2.0000      -0.710871       -19.3438
  35   2.0000      -0.697064       -18.9681
  36   2.0000      -0.692890       -18.8545
  37   2.0000      -0.669217       -18.2103
  38   2.0000      -0.640998       -17.4424
  39   2.0000      -0.619462       -16.8564
  40   2.0000      -0.598965       -16.2987
  41   2.0000      -0.569192       -15.4885
  42   2.0000      -0.562518       -15.3069
  43   2.0000      -0.558310       -15.1924
  44   2.0000      -0.543554       -14.7908
  45   2.0000      -0.540245       -14.7008
  46   2.0000      -0.517938       -14.0938
  47   2.0000      -0.517486       -14.0815
  48   2.0000      -0.506676       -13.7873
  49   2.0000      -0.501099       -13.6356
  50   2.0000      -0.490834       -13.3563
  51   2.0000      -0.474445       -12.9103
  52   2.0000      -0.470871       -12.8130
  53   2.0000      -0.466800       -12.7023
  54   2.0000      -0.460298       -12.5254
  55   2.0000      -0.453364       -12.3367
  56   2.0000      -0.444896       -12.1062
  57   2.0000      -0.438532       -11.9330
  58   2.0000      -0.434167       -11.8143
  59   2.0000      -0.425733       -11.5848
  60   2.0000      -0.419518       -11.4157
  61   2.0000      -0.409635       -11.1467
  62   2.0000      -0.406817       -11.0700
  63   2.0000      -0.357071        -9.7164
  64   2.0000      -0.330485        -8.9930
  65   2.0000      -0.326388        -8.8815
  66   2.0000      -0.290129        -7.8948
  67   0.0000       0.026891         0.7318
  68   0.0000       0.066871         1.8197
  69   0.0000       0.108091         2.9413
  70   0.0000       0.113273         3.0823
  71   0.0000       0.128006         3.4832

MULLIKEN ATOMIC CHARGES
-----------------------
   0 S :    0.096896
   1 C :   -0.108040
   2 C :   -0.089973
   3 C :   -0.007797
   4 C :   -0.120130
   5 H :    0.017125
   6 C :    0.116230
   7 H :   -0.003834
   8 H :    0.038810
   9 C :   -0.089683
  10 H :    0.028700
  11 H :    0.028668
  12 C :   -0.083887
  13 H :    0.039927
  14 H :    0.035524
  15 H :    0.052227
  16 S :    0.098730
  17 C :   -0.057281
  18 C :   -0.024259
  19 C :   -0.062482
  20 C :   -0.136736
  21 H :    0.016838
  22 C :    0.037204
  23 H :    0.020958
  24 H :    0.043429
  25 C :   -0.087191
  26 H :    0.042676
  27 H :    0.021754
  28 C :    0.016448
  29 H :    0.023829
  30 H :    0.004632
  31 H :    0.021600
  32 H :    0.037592
  33 H :    0.031493
Sum of atomic charges:    0.0000000

LOEWDIN ATOMIC CHARGES
----------------------
   0 S :    0.376321
   1 C :   -0.184518
   2 C :   -0.062450
   3 C :   -0.063374
   4 C :   -0.182126
   5 H :    0.032683
   6 C :   -0.028856
   7 H :    0.023691
   8 H :    0.034277
   9 C :   -0.043231
  10 H :    0.020731
  11 H :    0.024001
  12 C :   -0.073949
  13 H :    0.034572
  14 H :    0.026606
  15 H :    0.029031
  16 S :    0.413087
  17 C :   -0.172878
  18 C :   -0.054324
  19 C :   -0.059302
  20 C :   -0.196316
  21 H :    0.029089
  22 C :   -0.038630
  23 H :    0.030111
  24 H :    0.039034
  25 C :   -0.033270
  26 H :    0.026899
  27 H :    0.015299
  28 C :   -0.046627
  29 H :    0.021411
  30 H :    0.011077
  31 H :    0.020697
  32 H :    0.023994
  33 H :    0.007241

  Mayer bond orders larger than 0.100000
B(  0-S ,  1-C ) :   1.1231 B(  0-S ,  4-C ) :   1.1110 B(  1-C ,  2-C ) :   1.6539
B(  1-C , 32-H ) :   0.9662 B(  2-C ,  3-C ) :   1.1754 B(  2-C ,  6-C ) :   1.0380
B(  3-C ,  4-C ) :   1.6050 B(  3-C ,  5-H ) :   0.9944 B(  4-C , 20-C ) :   1.0639
B(  6-C ,  7-H ) :   0.9320 B(  6-C ,  8-H ) :   0.9402 B(  6-C ,  9-C ) :   1.0645
B(  9-C , 10-H ) :   0.9556 B(  9-C , 11-H ) :   0.9586 B(  9-C , 12-C ) :   1.0838
B( 12-C , 13-H ) :   0.9730 B( 12-C , 14-H ) :   0.9769 B( 12-C , 15-H ) :   0.9689
B( 16-S , 17-C ) :   1.1555 B( 16-S , 20-C ) :   1.1430 B( 17-C , 18-C ) :   1.6066
B( 17-C , 20-C ) :   0.1038 B( 17-C , 33-H ) :   0.9714 B( 18-C , 19-C ) :   1.2240
B( 18-C , 21-H ) :   0.9930 B( 19-C , 20-C ) :   1.5972 B( 19-C , 22-C ) :   1.0570
B( 22-C , 23-H ) :   0.9215 B( 22-C , 24-H ) :   0.9435 B( 22-C , 25-C ) :   1.0505
B( 25-C , 26-H ) :   0.9566 B( 25-C , 27-H ) :   0.9625 B( 25-C , 28-C ) :   1.0745
B( 28-C , 29-H ) :   0.9743 B( 28-C , 30-H ) :   0.9771 B( 28-C , 31-H ) :   0.9794

Dispersion correction           -0.014851884
FINAL SINGLE POINT ENERGY     -1339.865118051369

DIPOLE MOMENT
-------------
                                X             Y             Z
Electronic contribution:    -16.34852     -13.47093     -15.85735
Nuclear contribution   :     16.83118      13.64428      16.24805
                        -----------------------------------------
Total Dipole Moment    :      0.48266       0.17334       0.39071
                        -----------------------------------------
Magnitude (a.u.)       :      0.64471
Magnitude (Debye)      :      1.63873

Rotational constants in cm-1:     0.017472     0.009552     0.007279
Rotational constants in MHz :   523.787238   286.356808   218.233156

                             ****ORCA TERMINATED NORMALLY****
TOTAL RUN TIME: 0 days 0 hours 0 minutes 30 seconds 904 msec
