                         Program Version 4.2.1 -  RELEASE  -
|  1> ! wB97X-D3 SP def2-SVP
|  2> %pal
|  3> nprocs 16
|  4> end
|  5>
|  6> * xyz 0 1
|  7> S 	 -27.4584 	 -2.384 	 101.267
|  8> C 	 -27.4601 	 -2.91337 	 102.925
|  9> C 	 -28.6804 	 -3.40746 	 103.272
| 10> C 	 -29.6794 	 -2.96638 	 102.362
| 11> C 	 -29.1523 	 -2.38393 	 101.224
| 12> H 	 -30.6785 	 -3.24903 	 102.472
| 13> C 	 -28.9422 	 -4.17234 	 104.533
| 14> H 	 -30.0247 	 -4.11588 	 104.675
| 15> H 	 -28.4904 	 -3.51226 	 105.385
| 16> C 	 -28.3989 	 -5.56348 	 104.647
| 17> H 	 -27.3664 	 -5.64265 	 104.295
| 18> H 	 -28.3429 	 -5.90795 	 105.671
| 19> C 	 -29.1223 	 -6.49957 	 103.694
| 20> H 	 -28.7892 	 -6.4745 	 102.632
| 21> H 	 -29.0974 	 -7.50252 	 104.16
| 22> H 	 -30.2293 	 -6.26536 	 103.685
| 23> S 	 -29.2072 	 -2.15122 	 98.4727
| 24> C 	 -30.7312 	 -1.67072 	 97.7162
| 25> C 	 -31.6216 	 -1.14411 	 98.6396
| 26> C 	 -31.1134 	 -1.24102 	 99.9621
| 27> C 	 -29.9019 	 -1.83147 	 100.07
| 28> H 	 -32.5393 	 -0.672946 	 98.4223
| 29> C 	 -32.092 	 -0.749772 	 101.061
| 30> H 	 -32.6058 	 0.231496 	 100.856
| 31> H 	 -31.5851 	 -0.50804 	 102.013
| 32> C 	 -33.1224 	 -1.91257 	 101.272
| 33> H 	 -32.607 	 -2.86198 	 101.456
| 34> H 	 -33.5323 	 -2.07711 	 100.249
| 35> C 	 -34.1028 	 -1.6823 	 102.467
| 36> H 	 -34.9014 	 -2.40303 	 102.533
| 37> H 	 -34.6531 	 -0.720896 	 102.43
| 38> H 	 -33.7524 	 -1.67581 	 103.485
| 39> H 	 -26.6543 	 -2.90581 	 103.526
| 40> H 	 -30.9641 	 -1.61499 	 96.6538
| 41> *
| 42>
| 43>                          ****END OF INPUT****

CARTESIAN COORDINATES (ANGSTROEM)
---------------------------------
  S    -27.458400   -2.384000  101.267000
  C    -27.460100   -2.913370  102.925000
  C    -28.680400   -3.407460  103.272000
  C    -29.679400   -2.966380  102.362000
  C    -29.152300   -2.383930  101.224000
  H    -30.678500   -3.249030  102.472000
  C    -28.942200   -4.172340  104.533000
  H    -30.024700   -4.115880  104.675000
  H    -28.490400   -3.512260  105.385000
  C    -28.398900   -5.563480  104.647000
  H    -27.366400   -5.642650  104.295000
  H    -28.342900   -5.907950  105.671000
  C    -29.122300   -6.499570  103.694000
  H    -28.789200   -6.474500  102.632000
  H    -29.097400   -7.502520  104.160000
  H    -30.229300   -6.265360  103.685000
  S    -29.207200   -2.151220   98.472700
  C    -30.731200   -1.670720   97.716200
  C    -31.621600   -1.144110   98.639600
  C    -31.113400   -1.241020   99.962100
  C    -29.901900   -1.831470  100.070000
  H    -32.539300   -0.672946   98.422300
  C    -32.092000   -0.749772  101.061000
  H    -32.605800    0.231496  100.856000
  H    -31.585100   -0.508040  102.013000
  C    -33.122400   -1.912570  101.272000
  H    -32.607000   -2.861980  101.456000
  H    -33.532300   -2.077110  100.249000
  C    -34.102800   -1.682300  102.467000
  H    -34.901400   -2.403030  102.533000
  H    -34.653100   -0.720896  102.430000
  H    -33.752400   -1.675810  103.485000
  H    -26.654300   -2.905810  103.526000
  H    -30.964100   -1.614990   96.653800

 Total Charge           Charge          ....    0
 Multiplicity           Mult            ....    1
 Number of Electrons    NEL             ....  134
 Basis Dimension        Dim             ....  322

ORBITAL ENERGIES
----------------

  NO   OCC          E(Eh)            E(eV)
   0   2.0000     -88.966811     -2420.9100
   1   2.0000     -88.965270     -2420.8681
   2   2.0000     -10.328264      -281.0464
   3   2.0000     -10.328066      -281.0410
   4   2.0000     -10.321191      -280.8539
   5   2.0000     -10.300529      -280.2917
   6   2.0000     -10.300205      -280.2828
   7   2.0000     -10.299800      -280.2718
   8   2.0000     -10.297108      -280.1986
   9   2.0000     -10.295977      -280.1678
  10   2.0000     -10.294795      -280.1356
  11   2.0000     -10.290823      -280.0275
  12   2.0000     -10.286933      -279.9217
  13   2.0000     -10.284246      -279.8486
  14   2.0000     -10.281471      -279.7731
  15   2.0000     -10.280851      -279.7562
  16   2.0000      -8.081426      -219.9068
  17   2.0000      -8.081101      -219.8979
  18   2.0000      -6.039846      -164.3526
  19   2.0000      -6.039809      -164.3516
  20   2.0000      -6.035873      -164.2445
  21   2.0000      -6.035808      -164.2427
  22   2.0000      -6.032107      -164.1420
  23   2.0000      -6.031539      -164.1265
  24   2.0000      -1.013850       -27.5883
  25   2.0000      -0.989336       -26.9212
  26   2.0000      -0.919179       -25.0121
  27   2.0000      -0.900911       -24.5150
  28   2.0000      -0.869729       -23.6665
  29   2.0000      -0.851080       -23.1591
  30   2.0000      -0.844439       -22.9783
  31   2.0000      -0.815499       -22.1909
  32   2.0000      -0.781124       -21.2555
  33   2.0000      -0.774393       -21.0723
  34   2.0000      -0.708032       -19.2665
  35   2.0000      -0.704224       -19.1629
  36   2.0000      -0.695981       -18.9386
  37   2.0000      -0.671405       -18.2699
  38   2.0000      -0.647454       -17.6181
  39   2.0000      -0.617015       -16.7898
  40   2.0000      -0.595667       -16.2089
  41   2.0000      -0.576567       -15.6892
  42   2.0000      -0.558011       -15.1842
  43   2.0000      -0.550192       -14.9715
  44   2.0000      -0.538738       -14.6598
  45   2.0000      -0.525621       -14.3029
  46   2.0000      -0.514498       -14.0002
  47   2.0000      -0.509531       -13.8650
  48   2.0000      -0.506074       -13.7710
  49   2.0000      -0.497485       -13.5373
  50   2.0000      -0.495233       -13.4760
  51   2.0000      -0.478438       -13.0190
  52   2.0000      -0.473251       -12.8778
  53   2.0000      -0.467539       -12.7224
  54   2.0000      -0.465294       -12.6613
  55   2.0000      -0.451084       -12.2746
  56   2.0000      -0.439873       -11.9696
  57   2.0000      -0.436372       -11.8743
  58   2.0000      -0.432948       -11.7811
  59   2.0000      -0.426851       -11.6152
  60   2.0000      -0.419573       -11.4172
  61   2.0000      -0.412061       -11.2128
  62   2.0000      -0.409530       -11.1439
  63   2.0000      -0.352825        -9.6009
  64   2.0000      -0.334581        -9.1044
  65   2.0000      -0.329138        -8.9563
  66   2.0000      -0.285469        -7.7680
  67   0.0000       0.027381         0.7451
  68   0.0000       0.068614         1.8671
  69   0.0000       0.098153         2.6709
  70   0.0000       0.119148         3.2422
  71   0.0000       0.132967         3.6182

MULLIKEN ATOMIC CHARGES
-----------------------
   0 S :    0.111997
   1 C :   -0.082142
   2 C :   -0.086061
   3 C :    0.029083
   4 C :   -0.099297
   5 H :   -0.028903
   6 C :    0.021056
   7 H :    0.020311
   8 H :    0.044294
   9 C :   -0.024099
  10 H :    0.027012
  11 H :    0.030360
  12 C :   -0.093630
  13 H :    0.063670
  14 H :    0.037225
  15 H :    0.022439
  16 S :    0.091949
  17 C :   -0.077415
  18 C :   -0.020999
  19 C :   -0.067760
  20 C :   -0.111133
  21 H :    0.008115
  22 C :    0.028058
  23 H :    0.039758
  24 H :    0.027305
  25 C :   -0.073655
  26 H :    0.034202
  27 H :    0.027848
  28 C :   -0.028875
  29 H :    0.024081
  30 H :    0.022400
  31 H :    0.027593
  32 H :   -0.004240
  33 H :    0.059454
Sum of atomic charges:    0.0000000

LOEWDIN ATOMIC CHARGES
----------------------
   0 S :    0.429245
   1 C :   -0.177543
   2 C :   -0.060162
   3 C :   -0.064051
   4 C :   -0.199421
   5 H :    0.017742
   6 C :   -0.038929
   7 H :    0.026188
   8 H :    0.043607
   9 C :   -0.047948
  10 H :    0.029331
  11 H :    0.025769
  12 C :   -0.074497
  13 H :    0.034925
  14 H :    0.030643
  15 H :    0.023441
  16 S :    0.382145
  17 C :   -0.175119
  18 C :   -0.063906
  19 C :   -0.060096
  20 C :   -0.183993
  21 H :    0.025855
  22 C :   -0.033221
  23 H :    0.034741
  24 H :    0.026853
  25 C :   -0.040165
  26 H :    0.024430
  27 H :    0.029134
  28 C :   -0.077066
  29 H :    0.024712
  30 H :    0.027018
  31 H :    0.025781
  32 H :    0.002294
  33 H :    0.032262

  Mayer bond orders larger than 0.100000
B(  0-S ,  1-C ) :   1.1423 B(  0-S ,  4-C ) :   1.1714 B(  1-C ,  2-C ) :   1.5871
B(  1-C , 32-H ) :   0.9877 B(  2-C ,  3-C ) :   1.2594 B(  2-C ,  6-C ) :   1.0157
B(  3-C ,  4-C ) :   1.5409 B(  3-C ,  5-H ) :   1.0059 B(  4-C , 20-C ) :   1.0116
B(  6-C ,  7-H ) :   0.9467 B(  6-C ,  8-H ) :   0.9359 B(  6-C ,  9-C ) :   1.0767
B(  9-C , 10-H ) :   0.9516 B(  9-C , 11-H ) :   0.9567 B(  9-C , 12-C ) :   1.0603
B( 12-C , 13-H ) :   0.9753 B( 12-C , 14-H ) :   0.9731 B( 12-C , 15-H ) :   0.9778
B( 16-S , 17-C ) :   1.1447 B( 16-S , 20-C ) :   1.1092 B( 17-C , 18-C ) :   1.6158
B( 17-C , 33-H ) :   0.9651 B( 18-C , 19-C ) :   1.2266 B( 18-C , 21-H ) :   0.9920
B( 19-C , 20-C ) :   1.6726 B( 19-C , 22-C ) :   1.0348 B( 22-C , 23-H ) :   0.9455
B( 22-C , 24-H ) :   0.9429 B( 22-C , 25-C ) :   1.0409 B( 25-C , 26-H ) :   0.9550
B( 25-C , 27-H ) :   0.9563 B( 25-C , 28-C ) :   1.0599 B( 28-C , 29-H ) :   0.9745
B( 28-C , 30-H ) :   0.9741 B( 28-C , 31-H ) :   0.9761

Dispersion correction           -0.014577889
FINAL SINGLE POINT ENERGY     -1339.860379153431

DIPOLE MOMENT
-------------
                                X             Y             Z
Electronic contribution:     18.10458       9.56589     -19.68080
Nuclear contribution   :    -18.58953      -9.69204      20.14144
                        -----------------------------------------
Total Dipole Moment    :     -0.48495      -0.12615       0.46064
                        -----------------------------------------
Magnitude (a.u.)       :      0.68065
Magnitude (Debye)      :      1.73007

Rotational constants in cm-1:     0.017666     0.009371     0.007010
Rotational constants in MHz :   529.620353   280.927668   210.151162

                             ****ORCA TERMINATED NORMALLY****
TOTAL RUN TIME: 0 days 0 hours 0 minutes 30 seconds 937 msec
