                         Program Version 4.2.1 -  RELEASE  -
|  1> ! wB97X-D3 SP def2-SVP
|  2> %pal
|  3> nprocs 16
|  4> end
|  5>
|  6> * xyz 0 1
|  7> S 	 -44.2527 	 17.3715 	 79.3424
|  8> C 	 -43.8578 	 19.0436 	 79.2414
|  9> C 	 -43.6298 	 19.5179 	 77.9797
| 10> C 	 -43.7974 	 18.5681 	 76.9389
| 11> C 	 -43.9565 	 17.3191 	 77.5623
| 12> H 	 -43.6328 	 18.7939 	 75.8836
| 13> C 	 -43.1396 	 20.8903 	 77.7168
| 14> H 	 -43.6483 	 21.5776 	 78.4612
| 15> H 	 -43.5193 	 21.213 	 76.722
| 16> C 	 -41.5638 	 20.9853 	 77.8842
| 17> H 	 -41.4031 	 20.4687 	 78.7931
| 18> H 	 -41.1829 	 20.3543 	 77.0689
| 19> C 	 -41.1046 	 22.4661 	 77.7906
| 20> H 	 -41.7382 	 23.1505 	 78.2837
| 21> H 	 -40.1033 	 22.481 	 78.2468
| 22> H 	 -41.1629 	 22.5741 	 76.7063
| 23> S 	 -45.7807 	 15.3267 	 77.0493
| 24> C 	 -45.1358 	 13.8389 	 76.4299
| 25> C 	 -43.8272 	 13.9371 	 76.052
| 26> C 	 -43.2887 	 15.2386 	 76.1391
| 27> C 	 -44.1783 	 16.014 	 76.8998
| 28> H 	 -43.3179 	 13.0834 	 75.561
| 29> C 	 -41.9333 	 15.7932 	 75.6213
| 30> H 	 -42.2015 	 16.7588 	 75.2623
| 31> H 	 -41.5358 	 15.2225 	 74.8329
| 32> C 	 -40.8857 	 15.8222 	 76.7452
| 33> H 	 -40.702 	 14.7983 	 77.1114
| 34> H 	 -41.2091 	 16.5113 	 77.5818
| 35> C 	 -39.5735 	 16.3997 	 76.2301
| 36> H 	 -39.6837 	 17.4469 	 75.9518
| 37> H 	 -39.0508 	 15.8108 	 75.4785
| 38> H 	 -38.8364 	 16.4791 	 76.9769
| 39> H 	 -43.5682 	 19.641 	 80.1014
| 40> H 	 -45.6693 	 12.8358 	 76.4115
| 41> *
| 42>
| 43>                          ****END OF INPUT****

CARTESIAN COORDINATES (ANGSTROEM)
---------------------------------
  S    -44.252700   17.371500   79.342400
  C    -43.857800   19.043600   79.241400
  C    -43.629800   19.517900   77.979700
  C    -43.797400   18.568100   76.938900
  C    -43.956500   17.319100   77.562300
  H    -43.632800   18.793900   75.883600
  C    -43.139600   20.890300   77.716800
  H    -43.648300   21.577600   78.461200
  H    -43.519300   21.213000   76.722000
  C    -41.563800   20.985300   77.884200
  H    -41.403100   20.468700   78.793100
  H    -41.182900   20.354300   77.068900
  C    -41.104600   22.466100   77.790600
  H    -41.738200   23.150500   78.283700
  H    -40.103300   22.481000   78.246800
  H    -41.162900   22.574100   76.706300
  S    -45.780700   15.326700   77.049300
  C    -45.135800   13.838900   76.429900
  C    -43.827200   13.937100   76.052000
  C    -43.288700   15.238600   76.139100
  C    -44.178300   16.014000   76.899800
  H    -43.317900   13.083400   75.561000
  C    -41.933300   15.793200   75.621300
  H    -42.201500   16.758800   75.262300
  H    -41.535800   15.222500   74.832900
  C    -40.885700   15.822200   76.745200
  H    -40.702000   14.798300   77.111400
  H    -41.209100   16.511300   77.581800
  C    -39.573500   16.399700   76.230100
  H    -39.683700   17.446900   75.951800
  H    -39.050800   15.810800   75.478500
  H    -38.836400   16.479100   76.976900
  H    -43.568200   19.641000   80.101400
  H    -45.669300   12.835800   76.411500

 Total Charge           Charge          ....    0
 Multiplicity           Mult            ....    1
 Number of Electrons    NEL             ....  134
 Basis Dimension        Dim             ....  322

ORBITAL ENERGIES
----------------

  NO   OCC          E(Eh)            E(eV)
   0   2.0000     -88.970574     -2421.0124
   1   2.0000     -88.964416     -2420.8448
   2   2.0000     -10.335518      -281.2438
   3   2.0000     -10.319159      -280.7986
   4   2.0000     -10.312198      -280.6092
   5   2.0000     -10.304813      -280.4082
   6   2.0000     -10.300759      -280.2979
   7   2.0000     -10.300412      -280.2885
   8   2.0000     -10.293411      -280.0979
   9   2.0000     -10.291804      -280.0542
  10   2.0000     -10.288928      -279.9760
  11   2.0000     -10.288925      -279.9759
  12   2.0000     -10.288551      -279.9657
  13   2.0000     -10.288094      -279.9533
  14   2.0000     -10.281053      -279.7617
  15   2.0000     -10.269339      -279.4429
  16   2.0000      -8.084778      -219.9980
  17   2.0000      -8.079339      -219.8500
  18   2.0000      -6.043146      -164.4424
  19   2.0000      -6.039629      -164.3467
  20   2.0000      -6.037710      -164.2944
  21   2.0000      -6.035441      -164.2327
  22   2.0000      -6.034017      -164.1939
  23   2.0000      -6.030047      -164.0859
  24   2.0000      -1.004646       -27.3378
  25   2.0000      -0.984310       -26.7844
  26   2.0000      -0.908911       -24.7327
  27   2.0000      -0.907962       -24.7069
  28   2.0000      -0.861441       -23.4410
  29   2.0000      -0.855550       -23.2807
  30   2.0000      -0.849041       -23.1036
  31   2.0000      -0.811623       -22.0854
  32   2.0000      -0.783151       -21.3106
  33   2.0000      -0.762347       -20.7445
  34   2.0000      -0.703691       -19.1484
  35   2.0000      -0.701369       -19.0852
  36   2.0000      -0.689369       -18.7587
  37   2.0000      -0.653695       -17.7880
  38   2.0000      -0.635774       -17.3003
  39   2.0000      -0.615871       -16.7587
  40   2.0000      -0.591161       -16.0863
  41   2.0000      -0.573826       -15.6146
  42   2.0000      -0.571323       -15.5465
  43   2.0000      -0.549442       -14.9511
  44   2.0000      -0.525722       -14.3056
  45   2.0000      -0.519669       -14.1409
  46   2.0000      -0.516929       -14.0663
  47   2.0000      -0.508582       -13.8392
  48   2.0000      -0.506300       -13.7771
  49   2.0000      -0.490643       -13.3511
  50   2.0000      -0.485910       -13.2223
  51   2.0000      -0.481450       -13.1009
  52   2.0000      -0.472080       -12.8460
  53   2.0000      -0.463782       -12.6201
  54   2.0000      -0.458266       -12.4701
  55   2.0000      -0.449206       -12.2235
  56   2.0000      -0.444768       -12.1028
  57   2.0000      -0.436174       -11.8689
  58   2.0000      -0.430723       -11.7206
  59   2.0000      -0.427290       -11.6272
  60   2.0000      -0.425325       -11.5737
  61   2.0000      -0.420518       -11.4429
  62   2.0000      -0.414848       -11.2886
  63   2.0000      -0.344010        -9.3610
  64   2.0000      -0.330174        -8.9845
  65   2.0000      -0.320915        -8.7325
  66   2.0000      -0.287775        -7.8307
  67   0.0000       0.032163         0.8752
  68   0.0000       0.058198         1.5837
  69   0.0000       0.107002         2.9117
  70   0.0000       0.116104         3.1594
  71   0.0000       0.129496         3.5238

MULLIKEN ATOMIC CHARGES
-----------------------
   0 S :    0.125118
   1 C :   -0.109327
   2 C :   -0.101139
   3 C :    0.050188
   4 C :   -0.178371
   5 H :    0.032822
   6 C :   -0.005017
   7 H :    0.031378
   8 H :    0.022116
   9 C :   -0.071914
  10 H :    0.015325
  11 H :    0.030276
  12 C :   -0.002991
  13 H :    0.028541
  14 H :    0.047044
  15 H :    0.037246
  16 S :    0.126650
  17 C :   -0.111976
  18 C :   -0.057294
  19 C :   -0.032918
  20 C :   -0.202256
  21 H :    0.023935
  22 C :    0.154837
  23 H :    0.004435
  24 H :    0.004128
  25 C :   -0.107028
  26 H :    0.034986
  27 H :    0.053542
  28 C :   -0.017457
  29 H :    0.021349
  30 H :    0.025257
  31 H :    0.010477
  32 H :    0.045001
  33 H :    0.073037
Sum of atomic charges:   -0.0000000

LOEWDIN ATOMIC CHARGES
----------------------
   0 S :    0.403316
   1 C :   -0.214401
   2 C :   -0.070737
   3 C :   -0.054577
   4 C :   -0.168766
   5 H :    0.038479
   6 C :   -0.040466
   7 H :    0.031516
   8 H :    0.025601
   9 C :   -0.031165
  10 H :    0.012660
  11 H :    0.024933
  12 C :   -0.057846
  13 H :    0.018139
  14 H :    0.032891
  15 H :    0.033324
  16 S :    0.410929
  17 C :   -0.209568
  18 C :   -0.082080
  19 C :   -0.049868
  20 C :   -0.208718
  21 H :    0.035649
  22 C :   -0.016413
  23 H :    0.024985
  24 H :    0.023229
  25 C :   -0.037081
  26 H :    0.026980
  27 H :    0.034985
  28 C :   -0.070480
  29 H :    0.024769
  30 H :    0.022808
  31 H :    0.019196
  32 H :    0.025520
  33 H :    0.042257

  Mayer bond orders larger than 0.100000
B(  0-S ,  1-C ) :   1.1248 B(  0-S ,  4-C ) :   1.1579 B(  1-C ,  2-C ) :   1.6392
B(  1-C , 32-H ) :   0.9552 B(  2-C ,  3-C ) :   1.2341 B(  2-C ,  6-C ) :   1.0358
B(  3-C ,  4-C ) :   1.5711 B(  3-C ,  5-H ) :   0.9859 B(  4-C , 20-C ) :   1.0136
B(  6-C ,  7-H ) :   0.9421 B(  6-C ,  8-H ) :   0.9419 B(  6-C ,  9-C ) :   1.0390
B(  9-C , 10-H ) :   0.9609 B(  9-C , 11-H ) :   0.9604 B(  9-C , 12-C ) :   1.0549
B( 12-C , 13-H ) :   0.9794 B( 12-C , 14-H ) :   0.9755 B( 12-C , 15-H ) :   0.9779
B( 16-S , 17-C ) :   1.1365 B( 16-S , 20-C ) :   1.1707 B( 17-C , 18-C ) :   1.6299
B( 17-C , 20-C ) :   0.1004 B( 17-C , 33-H ) :   0.9557 B( 18-C , 19-C ) :   1.2543
B( 18-C , 21-H ) :   0.9800 B( 19-C , 20-C ) :   1.5768 B( 19-C , 22-C ) :   1.0301
B( 22-C , 23-H ) :   0.9281 B( 22-C , 24-H ) :   0.9323 B( 22-C , 25-C ) :   1.0705
B( 25-C , 26-H ) :   0.9552 B( 25-C , 27-H ) :   0.9527 B( 25-C , 28-C ) :   1.0935
B( 28-C , 29-H ) :   0.9704 B( 28-C , 30-H ) :   0.9710 B( 28-C , 31-H ) :   0.9688

Dispersion correction           -0.014910033
FINAL SINGLE POINT ENERGY     -1339.859776772891

DIPOLE MOMENT
-------------
                                X             Y             Z
Electronic contribution:    -25.49764     -16.43690       6.47721
Nuclear contribution   :     26.09484      16.71381      -6.70797
                        -----------------------------------------
Total Dipole Moment    :      0.59720       0.27691      -0.23075
                        -----------------------------------------
Magnitude (a.u.)       :      0.69755
Magnitude (Debye)      :      1.77303

Rotational constants in cm-1:     0.019851     0.009034     0.006951
Rotational constants in MHz :   595.120440   270.835192   208.378896

                             ****ORCA TERMINATED NORMALLY****
TOTAL RUN TIME: 0 days 0 hours 0 minutes 30 seconds 45 msec
