                         Program Version 4.2.1 -  RELEASE  -
|  1> ! wB97X-D3 SP def2-SVP
|  2> %pal
|  3> nprocs 16
|  4> end
|  5>
|  6> * xyz 0 1
|  7> S 	 -96.5905 	 40.6554 	 125.436
|  8> C 	 -97.8088 	 40.7329 	 126.635
|  9> C 	 -97.436 	 41.6728 	 127.598
| 10> C 	 -96.3151 	 42.484 	 127.207
| 11> C 	 -95.7503 	 42.1131 	 126
| 12> H 	 -95.9876 	 43.3238 	 127.755
| 13> C 	 -98.0805 	 41.8876 	 128.997
| 14> H 	 -99.0383 	 41.3595 	 129.028
| 15> H 	 -98.3651 	 42.9008 	 128.946
| 16> C 	 -97.2229 	 41.781 	 130.261
| 17> H 	 -96.2669 	 42.214 	 130.058
| 18> H 	 -97.6818 	 42.2917 	 131.145
| 19> C 	 -97.134 	 40.3396 	 130.707
| 20> H 	 -96.2749 	 40.056 	 130.212
| 21> H 	 -97.0698 	 40.3642 	 131.791
| 22> H 	 -97.9111 	 39.6121 	 130.423
| 23> S 	 -93.2337 	 41.5353 	 124.98
| 24> C 	 -92.4488 	 42.802 	 124.036
| 25> C 	 -93.1469 	 44.019 	 124.102
| 26> C 	 -94.3208 	 43.9941 	 124.866
| 27> C 	 -94.5348 	 42.6721 	 125.354
| 28> H 	 -92.7965 	 44.8827 	 123.66
| 29> C 	 -95.1744 	 45.2057 	 125.049
| 30> H 	 -94.5361 	 46.0214 	 125.388
| 31> H 	 -95.756 	 45.1882 	 125.958
| 32> C 	 -96.1901 	 45.521 	 123.904
| 33> H 	 -96.7112 	 44.616 	 123.592
| 34> H 	 -95.5873 	 45.7637 	 123.048
| 35> C 	 -97.1266 	 46.7006 	 124.224
| 36> H 	 -97.4755 	 46.6929 	 125.244
| 37> H 	 -97.9461 	 46.6619 	 123.577
| 38> H 	 -96.6874 	 47.7015 	 124.051
| 39> H 	 -98.5738 	 40.0983 	 126.75
| 40> H 	 -91.5537 	 42.605 	 123.41
| 41> *
| 42>
| 43>                          ****END OF INPUT****

CARTESIAN COORDINATES (ANGSTROEM)
---------------------------------
  S    -96.590500   40.655400  125.436000
  C    -97.808800   40.732900  126.635000
  C    -97.436000   41.672800  127.598000
  C    -96.315100   42.484000  127.207000
  C    -95.750300   42.113100  126.000000
  H    -95.987600   43.323800  127.755000
  C    -98.080500   41.887600  128.997000
  H    -99.038300   41.359500  129.028000
  H    -98.365100   42.900800  128.946000
  C    -97.222900   41.781000  130.261000
  H    -96.266900   42.214000  130.058000
  H    -97.681800   42.291700  131.145000
  C    -97.134000   40.339600  130.707000
  H    -96.274900   40.056000  130.212000
  H    -97.069800   40.364200  131.791000
  H    -97.911100   39.612100  130.423000
  S    -93.233700   41.535300  124.980000
  C    -92.448800   42.802000  124.036000
  C    -93.146900   44.019000  124.102000
  C    -94.320800   43.994100  124.866000
  C    -94.534800   42.672100  125.354000
  H    -92.796500   44.882700  123.660000
  C    -95.174400   45.205700  125.049000
  H    -94.536100   46.021400  125.388000
  H    -95.756000   45.188200  125.958000
  C    -96.190100   45.521000  123.904000
  H    -96.711200   44.616000  123.592000
  H    -95.587300   45.763700  123.048000
  C    -97.126600   46.700600  124.224000
  H    -97.475500   46.692900  125.244000
  H    -97.946100   46.661900  123.577000
  H    -96.687400   47.701500  124.051000
  H    -98.573800   40.098300  126.750000
  H    -91.553700   42.605000  123.410000

 Total Charge           Charge          ....    0
 Multiplicity           Mult            ....    1
 Number of Electrons    NEL             ....  134
 Basis Dimension        Dim             ....  322

ORBITAL ENERGIES
----------------

  NO   OCC          E(Eh)            E(eV)
   0   2.0000     -88.971904     -2421.0486
   1   2.0000     -88.963558     -2420.8215
   2   2.0000     -10.333011      -281.1755
   3   2.0000     -10.331659      -281.1387
   4   2.0000     -10.322622      -280.8928
   5   2.0000     -10.305678      -280.4317
   6   2.0000     -10.304762      -280.4068
   7   2.0000     -10.302803      -280.3535
   8   2.0000     -10.290642      -280.0226
   9   2.0000     -10.290201      -280.0106
  10   2.0000     -10.289471      -279.9908
  11   2.0000     -10.286926      -279.9215
  12   2.0000     -10.286546      -279.9112
  13   2.0000     -10.285545      -279.8839
  14   2.0000     -10.274838      -279.5926
  15   2.0000     -10.264248      -279.3044
  16   2.0000      -8.085832      -220.0267
  17   2.0000      -8.078459      -219.8261
  18   2.0000      -6.044206      -164.4712
  19   2.0000      -6.040469      -164.3695
  20   2.0000      -6.037031      -164.2760
  21   2.0000      -6.036777      -164.2690
  22   2.0000      -6.032832      -164.1617
  23   2.0000      -6.029252      -164.0643
  24   2.0000      -1.001892       -27.2629
  25   2.0000      -0.981786       -26.7157
  26   2.0000      -0.911255       -24.7965
  27   2.0000      -0.907030       -24.6815
  28   2.0000      -0.866373       -23.5752
  29   2.0000      -0.855541       -23.2804
  30   2.0000      -0.846957       -23.0469
  31   2.0000      -0.812680       -22.1141
  32   2.0000      -0.784280       -21.3414
  33   2.0000      -0.771667       -20.9981
  34   2.0000      -0.710964       -19.3463
  35   2.0000      -0.698297       -19.0016
  36   2.0000      -0.693556       -18.8726
  37   2.0000      -0.663552       -18.0562
  38   2.0000      -0.645950       -17.5772
  39   2.0000      -0.622920       -16.9505
  40   2.0000      -0.601926       -16.3792
  41   2.0000      -0.571604       -15.5541
  42   2.0000      -0.557576       -15.1724
  43   2.0000      -0.552546       -15.0355
  44   2.0000      -0.536678       -14.6037
  45   2.0000      -0.529532       -14.4093
  46   2.0000      -0.520312       -14.1584
  47   2.0000      -0.510149       -13.8818
  48   2.0000      -0.505117       -13.7449
  49   2.0000      -0.499484       -13.5917
  50   2.0000      -0.494290       -13.4503
  51   2.0000      -0.482287       -13.1237
  52   2.0000      -0.470994       -12.8164
  53   2.0000      -0.462949       -12.5975
  54   2.0000      -0.453792       -12.3483
  55   2.0000      -0.451474       -12.2852
  56   2.0000      -0.445496       -12.1226
  57   2.0000      -0.443391       -12.0653
  58   2.0000      -0.440370       -11.9831
  59   2.0000      -0.431755       -11.7487
  60   2.0000      -0.416313       -11.3284
  61   2.0000      -0.408736       -11.1223
  62   2.0000      -0.400318       -10.8932
  63   2.0000      -0.344336        -9.3699
  64   2.0000      -0.337452        -9.1825
  65   2.0000      -0.320603        -8.7240
  66   2.0000      -0.288311        -7.8453
  67   0.0000       0.028089         0.7643
  68   0.0000       0.063552         1.7293
  69   0.0000       0.109035         2.9670
  70   0.0000       0.124510         3.3881
  71   0.0000       0.129521         3.5245

MULLIKEN ATOMIC CHARGES
-----------------------
   0 S :    0.107315
   1 C :   -0.055308
   2 C :   -0.116402
   3 C :    0.039206
   4 C :   -0.139257
   5 H :    0.002067
   6 C :    0.078712
   7 H :    0.013782
   8 H :    0.014041
   9 C :   -0.074264
  10 H :    0.028180
  11 H :    0.033809
  12 C :   -0.027344
  13 H :    0.021210
  14 H :    0.029278
  15 H :    0.033995
  16 S :    0.119825
  17 C :   -0.112144
  18 C :    0.002269
  19 C :   -0.014675
  20 C :   -0.186296
  21 H :   -0.014291
  22 C :    0.066496
  23 H :    0.023257
  24 H :   -0.007352
  25 C :   -0.056242
  26 H :    0.040938
  27 H :    0.018027
  28 C :   -0.017410
  29 H :    0.027006
  30 H :    0.022298
  31 H :    0.031433
  32 H :   -0.005056
  33 H :    0.072898
Sum of atomic charges:    0.0000000

LOEWDIN ATOMIC CHARGES
----------------------
   0 S :    0.410465
   1 C :   -0.193265
   2 C :   -0.058092
   3 C :   -0.062491
   4 C :   -0.188599
   5 H :    0.022293
   6 C :   -0.031913
   7 H :    0.027142
   8 H :    0.025626
   9 C :   -0.035342
  10 H :    0.021687
  11 H :    0.028869
  12 C :   -0.063217
  13 H :    0.020053
  14 H :    0.024976
  15 H :    0.027548
  16 S :    0.404844
  17 C :   -0.189494
  18 C :   -0.058113
  19 C :   -0.051480
  20 C :   -0.192244
  21 H :    0.018479
  22 C :   -0.040864
  23 H :    0.035316
  24 H :    0.025027
  25 C :   -0.030970
  26 H :    0.030662
  27 H :    0.020702
  28 C :   -0.060586
  29 H :    0.022860
  30 H :    0.021257
  31 H :    0.029898
  32 H :    0.003671
  33 H :    0.035298

  Mayer bond orders larger than 0.100000
B(  0-S ,  1-C ) :   1.1448 B(  0-S ,  4-C ) :   1.1503 B(  1-C ,  2-C ) :   1.5904
B(  1-C , 32-H ) :   0.9855 B(  2-C ,  3-C ) :   1.2493 B(  2-C ,  6-C ) :   1.0147
B(  3-C ,  4-C ) :   1.5606 B(  3-C ,  5-H ) :   0.9977 B(  4-C , 20-C ) :   1.0369
B(  6-C ,  7-H ) :   0.9468 B(  6-C ,  8-H ) :   0.9310 B(  6-C ,  9-C ) :   1.0756
B(  9-C , 10-H ) :   0.9580 B(  9-C , 11-H ) :   0.9637 B(  9-C , 12-C ) :   1.0517
B( 12-C , 13-H ) :   0.9810 B( 12-C , 14-H ) :   0.9800 B( 12-C , 15-H ) :   0.9797
B( 16-S , 17-C ) :   1.1527 B( 16-S , 20-C ) :   1.1665 B( 17-C , 18-C ) :   1.5711
B( 17-C , 20-C ) :   0.1079 B( 17-C , 33-H ) :   0.9647 B( 18-C , 19-C ) :   1.2817
B( 18-C , 21-H ) :   0.9982 B( 19-C , 20-C ) :   1.5437 B( 19-C , 22-C ) :   1.0538
B( 22-C , 23-H ) :   0.9284 B( 22-C , 24-H ) :   0.9245 B( 22-C , 25-C ) :   1.0452
B( 25-C , 26-H ) :   0.9590 B( 25-C , 27-H ) :   0.9557 B( 25-C , 28-C ) :   1.0777
B( 28-C , 29-H ) :   0.9764 B( 28-C , 30-H ) :   0.9736 B( 28-C , 31-H ) :   0.9748

Dispersion correction           -0.013937306
FINAL SINGLE POINT ENERGY     -1339.851605833257

DIPOLE MOMENT
-------------
                                X             Y             Z
Electronic contribution:     12.79998     -15.10368     -13.19824
Nuclear contribution   :    -12.96254      15.64921      13.42945
                        -----------------------------------------
Total Dipole Moment    :     -0.16256       0.54554       0.23121
                        -----------------------------------------
Magnitude (a.u.)       :      0.61441
Magnitude (Debye)      :      1.56169

Rotational constants in cm-1:     0.017680     0.008385     0.006885
Rotational constants in MHz :   530.043226   251.363538   206.396836

                             ****ORCA TERMINATED NORMALLY****
TOTAL RUN TIME: 0 days 0 hours 0 minutes 33 seconds 741 msec
