                         Program Version 4.2.1 -  RELEASE  -
|  1> ! wB97X-D3 SP def2-SVP
|  2> %pal
|  3> nprocs 16
|  4> end
|  5>
|  6> * xyz 0 1
|  7> S 	 -20.7131 	 0.743938 	 77.6001
|  8> C 	 -20.3371 	 -0.800485 	 76.9188
|  9> C 	 -21.1826 	 -1.11526 	 75.9182
| 10> C 	 -22.201 	 -0.110006 	 75.7482
| 11> C 	 -22.0943 	 0.966739 	 76.6001
| 12> H 	 -23.0153 	 -0.0629446 	 75.0317
| 13> C 	 -21.1247 	 -2.21575 	 74.9061
| 14> H 	 -22.0054 	 -2.27129 	 74.2293
| 15> H 	 -21.0382 	 -3.16373 	 75.4063
| 16> C 	 -19.8401 	 -2.18913 	 74.1468
| 17> H 	 -19 	 -2.19557 	 74.7845
| 18> H 	 -19.6827 	 -3.1553 	 73.6707
| 19> C 	 -19.6249 	 -0.948396 	 73.1969
| 20> H 	 -18.5517 	 -1.01108 	 72.8687
| 21> H 	 -20.1669 	 -1.03156 	 72.2586
| 22> H 	 -19.7818 	 -0.0421893 	 73.7939
| 23> S 	 -22.0924 	 3.59443 	 75.8032
| 24> C 	 -23.6188 	 4.40211 	 75.681
| 25> C 	 -24.6458 	 3.67266 	 76.1828
| 26> C 	 -24.2242 	 2.35656 	 76.5715
| 27> C 	 -22.8522 	 2.1779 	 76.4729
| 28> H 	 -25.636 	 4.03447 	 76.314
| 29> C 	 -25.2266 	 1.33488 	 77.1796
| 30> H 	 -24.9542 	 0.436775 	 76.675
| 31> H 	 -26.2192 	 1.62895 	 76.8624
| 32> C 	 -25.2898 	 1.12295 	 78.7393
| 33> H 	 -25.5103 	 2.08123 	 79.1508
| 34> H 	 -24.2588 	 0.983499 	 79.143
| 35> C 	 -26.165 	 -0.0261176 	 79.2164
| 36> H 	 -26.0244 	 -0.215665 	 80.2976
| 37> H 	 -25.8904 	 -0.915209 	 78.6923
| 38> H 	 -27.2573 	 0.19569 	 79.1132
| 39> H 	 -19.5023 	 -1.46089 	 77.098
| 40> H 	 -23.7442 	 5.39369 	 75.2595
| 41> *
| 42>
| 43>                          ****END OF INPUT****

CARTESIAN COORDINATES (ANGSTROEM)
---------------------------------
  S    -20.713100    0.743938   77.600100
  C    -20.337100   -0.800485   76.918800
  C    -21.182600   -1.115260   75.918200
  C    -22.201000   -0.110006   75.748200
  C    -22.094300    0.966739   76.600100
  H    -23.015300   -0.062945   75.031700
  C    -21.124700   -2.215750   74.906100
  H    -22.005400   -2.271290   74.229300
  H    -21.038200   -3.163730   75.406300
  C    -19.840100   -2.189130   74.146800
  H    -19.000000   -2.195570   74.784500
  H    -19.682700   -3.155300   73.670700
  C    -19.624900   -0.948396   73.196900
  H    -18.551700   -1.011080   72.868700
  H    -20.166900   -1.031560   72.258600
  H    -19.781800   -0.042189   73.793900
  S    -22.092400    3.594430   75.803200
  C    -23.618800    4.402110   75.681000
  C    -24.645800    3.672660   76.182800
  C    -24.224200    2.356560   76.571500
  C    -22.852200    2.177900   76.472900
  H    -25.636000    4.034470   76.314000
  C    -25.226600    1.334880   77.179600
  H    -24.954200    0.436775   76.675000
  H    -26.219200    1.628950   76.862400
  C    -25.289800    1.122950   78.739300
  H    -25.510300    2.081230   79.150800
  H    -24.258800    0.983499   79.143000
  C    -26.165000   -0.026118   79.216400
  H    -26.024400   -0.215665   80.297600
  H    -25.890400   -0.915209   78.692300
  H    -27.257300    0.195690   79.113200
  H    -19.502300   -1.460890   77.098000
  H    -23.744200    5.393690   75.259500

 Total Charge           Charge          ....    0
 Multiplicity           Mult            ....    1
 Number of Electrons    NEL             ....  134
 Basis Dimension        Dim             ....  322

ORBITAL ENERGIES
----------------

  NO   OCC          E(Eh)            E(eV)
   0   2.0000     -88.966735     -2420.9079
   1   2.0000     -88.965282     -2420.8684
   2   2.0000     -10.322552      -280.8909
   3   2.0000     -10.322124      -280.8793
   4   2.0000     -10.314490      -280.6715
   5   2.0000     -10.309208      -280.5278
   6   2.0000     -10.303227      -280.3651
   7   2.0000     -10.295659      -280.1591
   8   2.0000     -10.289704      -279.9971
   9   2.0000     -10.289505      -279.9917
  10   2.0000     -10.289274      -279.9854
  11   2.0000     -10.288606      -279.9672
  12   2.0000     -10.284190      -279.8470
  13   2.0000     -10.280149      -279.7371
  14   2.0000     -10.279579      -279.7216
  15   2.0000     -10.278367      -279.6886
  16   2.0000      -8.082078      -219.9245
  17   2.0000      -8.080749      -219.8884
  18   2.0000      -6.040604      -164.3732
  19   2.0000      -6.039192      -164.3348
  20   2.0000      -6.036392      -164.2586
  21   2.0000      -6.035191      -164.2259
  22   2.0000      -6.032887      -164.1632
  23   2.0000      -6.031484      -164.1250
  24   2.0000      -1.014088       -27.5947
  25   2.0000      -0.991110       -26.9695
  26   2.0000      -0.919330       -25.0162
  27   2.0000      -0.899451       -24.4753
  28   2.0000      -0.874287       -23.7906
  29   2.0000      -0.850765       -23.1505
  30   2.0000      -0.842794       -22.9336
  31   2.0000      -0.814580       -22.1658
  32   2.0000      -0.785091       -21.3634
  33   2.0000      -0.773752       -21.0549
  34   2.0000      -0.709588       -19.3089
  35   2.0000      -0.702342       -19.1117
  36   2.0000      -0.692265       -18.8375
  37   2.0000      -0.665038       -18.0966
  38   2.0000      -0.641842       -17.4654
  39   2.0000      -0.610640       -16.6164
  40   2.0000      -0.593590       -16.1524
  41   2.0000      -0.580782       -15.8039
  42   2.0000      -0.559361       -15.2210
  43   2.0000      -0.552893       -15.0450
  44   2.0000      -0.540280       -14.7018
  45   2.0000      -0.521897       -14.2016
  46   2.0000      -0.514170       -13.9913
  47   2.0000      -0.510440       -13.8898
  48   2.0000      -0.506176       -13.7738
  49   2.0000      -0.501484       -13.6461
  50   2.0000      -0.489457       -13.3188
  51   2.0000      -0.483532       -13.1576
  52   2.0000      -0.473720       -12.8906
  53   2.0000      -0.469074       -12.7641
  54   2.0000      -0.462711       -12.5910
  55   2.0000      -0.448932       -12.2161
  56   2.0000      -0.437910       -11.9161
  57   2.0000      -0.431595       -11.7443
  58   2.0000      -0.430967       -11.7272
  59   2.0000      -0.424039       -11.5387
  60   2.0000      -0.417792       -11.3687
  61   2.0000      -0.416373       -11.3301
  62   2.0000      -0.411244       -11.1905
  63   2.0000      -0.345265        -9.3951
  64   2.0000      -0.330181        -8.9847
  65   2.0000      -0.327976        -8.9247
  66   2.0000      -0.300308        -8.1718
  67   0.0000       0.039477         1.0742
  68   0.0000       0.065580         1.7845
  69   0.0000       0.123773         3.3680
  70   0.0000       0.128810         3.5051
  71   0.0000       0.129613         3.5270

MULLIKEN ATOMIC CHARGES
-----------------------
   0 S :    0.120631
   1 C :   -0.110169
   2 C :   -0.090259
   3 C :    0.025105
   4 C :   -0.185334
   5 H :    0.014460
   6 C :    0.120223
   7 H :    0.033885
   8 H :    0.017390
   9 C :   -0.090502
  10 H :    0.003789
  11 H :    0.014303
  12 C :   -0.062358
  13 H :    0.031522
  14 H :    0.036411
  15 H :    0.058542
  16 S :    0.119106
  17 C :   -0.091701
  18 C :   -0.005715
  19 C :   -0.083226
  20 C :   -0.148301
  21 H :    0.006729
  22 C :    0.106856
  23 H :    0.008127
  24 H :    0.008305
  25 C :   -0.055218
  26 H :    0.011834
  27 H :    0.027876
  28 C :   -0.046183
  29 H :    0.039471
  30 H :    0.032948
  31 H :    0.037457
  32 H :    0.036540
  33 H :    0.057458
Sum of atomic charges:   -0.0000000

LOEWDIN ATOMIC CHARGES
----------------------
   0 S :    0.427283
   1 C :   -0.206027
   2 C :   -0.065547
   3 C :   -0.060066
   4 C :   -0.212669
   5 H :    0.029832
   6 C :   -0.032017
   7 H :    0.035388
   8 H :    0.033633
   9 C :   -0.042116
  10 H :    0.014555
  11 H :    0.021473
  12 C :   -0.067801
  13 H :    0.030930
  14 H :    0.022703
  15 H :    0.031603
  16 S :    0.419192
  17 C :   -0.185762
  18 C :   -0.070463
  19 C :   -0.049936
  20 C :   -0.208683
  21 H :    0.027963
  22 C :   -0.025101
  23 H :    0.022881
  24 H :    0.024139
  25 C :   -0.041692
  26 H :    0.017047
  27 H :    0.028359
  28 C :   -0.065915
  29 H :    0.032841
  30 H :    0.023750
  31 H :    0.028624
  32 H :    0.030896
  33 H :    0.030701

  Mayer bond orders larger than 0.100000
B(  0-S ,  1-C ) :   1.1323 B(  0-S ,  4-C ) :   1.1528 B(  1-C ,  2-C ) :   1.6288
B(  1-C , 32-H ) :   0.9634 B(  2-C ,  3-C ) :   1.2281 B(  2-C ,  6-C ) :   1.0232
B(  3-C ,  4-C ) :   1.5872 B(  3-C ,  5-H ) :   0.9934 B(  4-C , 20-C ) :   1.0269
B(  6-C ,  7-H ) :   0.9491 B(  6-C ,  8-H ) :   0.9184 B(  6-C ,  9-C ) :   1.0852
B(  9-C , 10-H ) :   0.9549 B(  9-C , 11-H ) :   0.9516 B(  9-C , 12-C ) :   1.0651
B( 12-C , 13-H ) :   0.9752 B( 12-C , 14-H ) :   0.9786 B( 12-C , 15-H ) :   0.9749
B( 16-S , 17-C ) :   1.1638 B( 16-S , 20-C ) :   1.1416 B( 17-C , 18-C ) :   1.6024
B( 17-C , 33-H ) :   0.9650 B( 18-C , 19-C ) :   1.2493 B( 18-C , 21-H ) :   0.9971
B( 19-C , 20-C ) :   1.6056 B( 19-C , 22-C ) :   1.0371 B( 22-C , 23-H ) :   0.9244
B( 22-C , 24-H ) :   0.9356 B( 22-C , 25-C ) :   1.0598 B( 25-C , 26-H ) :   0.9537
B( 25-C , 27-H ) :   0.9556 B( 25-C , 28-C ) :   1.0794 B( 28-C , 29-H ) :   0.9724
B( 28-C , 30-H ) :   0.9751 B( 28-C , 31-H ) :   0.9759

Dispersion correction           -0.014670159
FINAL SINGLE POINT ENERGY     -1339.882652812153

DIPOLE MOMENT
-------------
                                X             Y             Z
Electronic contribution:      8.03960      16.76333       3.33656
Nuclear contribution   :     -8.32658     -17.10920      -3.56585
                        -----------------------------------------
Total Dipole Moment    :     -0.28699      -0.34587      -0.22929
                        -----------------------------------------
Magnitude (a.u.)       :      0.50454
Magnitude (Debye)      :      1.28244

Rotational constants in cm-1:     0.018240     0.008985     0.007300
Rotational constants in MHz :   546.826594   269.374725   218.851620

                             ****ORCA TERMINATED NORMALLY****
TOTAL RUN TIME: 0 days 0 hours 0 minutes 34 seconds 462 msec
