                         Program Version 4.2.1 -  RELEASE  -
|  1> ! wB97X-D3 SP def2-SVP
|  2> %pal
|  3> nprocs 16
|  4> end
|  5>
|  6> * xyz 0 1
|  7> S 	 -95.8343 	 52.9678 	 124.531
|  8> C 	 -94.3681 	 52.2789 	 125.151
|  9> C 	 -94.6314 	 51.5443 	 126.271
| 10> C 	 -96.0454 	 51.5225 	 126.612
| 11> C 	 -96.8317 	 52.1136 	 125.72
| 12> H 	 -96.5447 	 51.0113 	 127.407
| 13> C 	 -93.5561 	 50.8189 	 127.173
| 14> H 	 -93.9933 	 50.799 	 128.183
| 15> H 	 -92.7283 	 51.4468 	 127.037
| 16> C 	 -93.1125 	 49.4415 	 126.756
| 17> H 	 -92.5559 	 49.4937 	 125.749
| 18> H 	 -92.3211 	 49.0007 	 127.334
| 19> C 	 -94.3241 	 48.4346 	 126.678
| 20> H 	 -94.6168 	 48.3779 	 127.726
| 21> H 	 -95.1457 	 48.847 	 126.032
| 22> H 	 -94.0002 	 47.4177 	 126.339
| 23> S 	 -99.1567 	 53.5661 	 125.836
| 24> C 	 -100.678 	 52.8058 	 125.93
| 25> C 	 -100.56 	 51.4479 	 125.644
| 26> C 	 -99.2217 	 51.0116 	 125.515
| 27> C 	 -98.3011 	 52.0641 	 125.481
| 28> H 	 -101.454 	 50.8268 	 125.443
| 29> C 	 -98.935 	 49.5729 	 125.354
| 30> H 	 -98.0047 	 49.4561 	 124.904
| 31> H 	 -99.6405 	 49.1681 	 124.693
| 32> C 	 -98.8172 	 48.8279 	 126.575
| 33> H 	 -99.7584 	 48.722 	 127.135
| 34> H 	 -98.2066 	 49.3177 	 127.346
| 35> C 	 -98.3311 	 47.3929 	 126.41
| 36> H 	 -98.411 	 46.8797 	 127.42
| 37> H 	 -97.289 	 47.3627 	 126.027
| 38> H 	 -98.8303 	 46.8394 	 125.663
| 39> H 	 -93.3707 	 52.2378 	 124.73
| 40> H 	 -101.669 	 53.262 	 125.967
| 41> *
| 42>
| 43>                          ****END OF INPUT****

CARTESIAN COORDINATES (ANGSTROEM)
---------------------------------
  S    -95.834300   52.967800  124.531000
  C    -94.368100   52.278900  125.151000
  C    -94.631400   51.544300  126.271000
  C    -96.045400   51.522500  126.612000
  C    -96.831700   52.113600  125.720000
  H    -96.544700   51.011300  127.407000
  C    -93.556100   50.818900  127.173000
  H    -93.993300   50.799000  128.183000
  H    -92.728300   51.446800  127.037000
  C    -93.112500   49.441500  126.756000
  H    -92.555900   49.493700  125.749000
  H    -92.321100   49.000700  127.334000
  C    -94.324100   48.434600  126.678000
  H    -94.616800   48.377900  127.726000
  H    -95.145700   48.847000  126.032000
  H    -94.000200   47.417700  126.339000
  S    -99.156700   53.566100  125.836000
  C    -100.678000   52.805800  125.930000
  C    -100.560000   51.447900  125.644000
  C    -99.221700   51.011600  125.515000
  C    -98.301100   52.064100  125.481000
  H    -101.454000   50.826800  125.443000
  C    -98.935000   49.572900  125.354000
  H    -98.004700   49.456100  124.904000
  H    -99.640500   49.168100  124.693000
  C    -98.817200   48.827900  126.575000
  H    -99.758400   48.722000  127.135000
  H    -98.206600   49.317700  127.346000
  C    -98.331100   47.392900  126.410000
  H    -98.411000   46.879700  127.420000
  H    -97.289000   47.362700  126.027000
  H    -98.830300   46.839400  125.663000
  H    -93.370700   52.237800  124.730000
  H    -101.669000   53.262000  125.967000

 Total Charge           Charge          ....    0
 Multiplicity           Mult            ....    1
 Number of Electrons    NEL             ....  134
 Basis Dimension        Dim             ....  322

ORBITAL ENERGIES
----------------

  NO   OCC          E(Eh)            E(eV)
   0   2.0000     -88.966313     -2420.8965
   1   2.0000     -88.959922     -2420.7226
   2   2.0000     -10.329839      -281.0892
   3   2.0000     -10.328444      -281.0512
   4   2.0000     -10.319027      -280.7950
   5   2.0000     -10.312912      -280.6286
   6   2.0000     -10.303994      -280.3859
   7   2.0000     -10.303804      -280.3808
   8   2.0000     -10.294547      -280.1289
   9   2.0000     -10.293707      -280.1060
  10   2.0000     -10.291998      -280.0595
  11   2.0000     -10.291104      -280.0352
  12   2.0000     -10.285612      -279.8857
  13   2.0000     -10.280165      -279.7375
  14   2.0000     -10.278952      -279.7045
  15   2.0000     -10.273833      -279.5652
  16   2.0000      -8.081603      -219.9116
  17   2.0000      -8.075094      -219.7345
  18   2.0000      -6.040110      -164.3598
  19   2.0000      -6.035798      -164.2424
  20   2.0000      -6.033767      -164.1872
  21   2.0000      -6.032547      -164.1539
  22   2.0000      -6.029513      -164.0714
  23   2.0000      -6.025651      -163.9663
  24   2.0000      -1.010349       -27.4930
  25   2.0000      -0.989994       -26.9391
  26   2.0000      -0.930250       -25.3134
  27   2.0000      -0.908802       -24.7298
  28   2.0000      -0.869518       -23.6608
  29   2.0000      -0.855705       -23.2849
  30   2.0000      -0.840112       -22.8606
  31   2.0000      -0.818315       -22.2675
  32   2.0000      -0.786108       -21.3911
  33   2.0000      -0.774758       -21.0822
  34   2.0000      -0.705415       -19.1953
  35   2.0000      -0.698575       -19.0092
  36   2.0000      -0.696094       -18.9417
  37   2.0000      -0.663154       -18.0453
  38   2.0000      -0.644408       -17.5352
  39   2.0000      -0.618195       -16.8219
  40   2.0000      -0.602255       -16.3882
  41   2.0000      -0.572138       -15.5687
  42   2.0000      -0.570468       -15.5232
  43   2.0000      -0.553951       -15.0738
  44   2.0000      -0.545818       -14.8525
  45   2.0000      -0.538181       -14.6446
  46   2.0000      -0.518542       -14.1103
  47   2.0000      -0.510692       -13.8966
  48   2.0000      -0.508436       -13.8352
  49   2.0000      -0.501529       -13.6473
  50   2.0000      -0.493107       -13.4181
  51   2.0000      -0.478388       -13.0176
  52   2.0000      -0.470023       -12.7900
  53   2.0000      -0.465266       -12.6605
  54   2.0000      -0.460130       -12.5208
  55   2.0000      -0.452452       -12.3118
  56   2.0000      -0.446128       -12.1397
  57   2.0000      -0.441485       -12.0134
  58   2.0000      -0.431507       -11.7419
  59   2.0000      -0.420802       -11.4506
  60   2.0000      -0.419092       -11.4041
  61   2.0000      -0.406921       -11.0729
  62   2.0000      -0.404501       -11.0070
  63   2.0000      -0.346153        -9.4193
  64   2.0000      -0.331699        -9.0260
  65   2.0000      -0.329066        -8.9543
  66   2.0000      -0.302628        -8.2349
  67   0.0000       0.036884         1.0037
  68   0.0000       0.060816         1.6549
  69   0.0000       0.115471         3.1421
  70   0.0000       0.120384         3.2758
  71   0.0000       0.128652         3.5008

MULLIKEN ATOMIC CHARGES
-----------------------
   0 S :    0.094655
   1 C :   -0.090860
   2 C :   -0.147160
   3 C :    0.036924
   4 C :   -0.144871
   5 H :   -0.001997
   6 C :    0.113648
   7 H :    0.034194
   8 H :    0.015376
   9 C :   -0.082061
  10 H :    0.021106
  11 H :    0.028325
  12 C :   -0.097006
  13 H :    0.028822
  14 H :    0.068155
  15 H :    0.044656
  16 S :    0.111991
  17 C :   -0.079777
  18 C :   -0.061740
  19 C :   -0.075872
  20 C :   -0.119416
  21 H :    0.032362
  22 C :    0.176482
  23 H :   -0.008479
  24 H :    0.006324
  25 C :   -0.088990
  26 H :    0.013459
  27 H :    0.016227
  28 C :   -0.043963
  29 H :    0.047609
  30 H :    0.025832
  31 H :    0.015865
  32 H :    0.046284
  33 H :    0.063897
Sum of atomic charges:   -0.0000000

LOEWDIN ATOMIC CHARGES
----------------------
   0 S :    0.390147
   1 C :   -0.199788
   2 C :   -0.062588
   3 C :   -0.066275
   4 C :   -0.183478
   5 H :    0.028031
   6 C :   -0.023388
   7 H :    0.033474
   8 H :    0.025887
   9 C :   -0.048646
  10 H :    0.024730
  11 H :    0.021139
  12 C :   -0.072281
  13 H :    0.023027
  14 H :    0.031136
  15 H :    0.029095
  16 S :    0.430855
  17 C :   -0.198180
  18 C :   -0.080686
  19 C :   -0.043826
  20 C :   -0.207245
  21 H :    0.036879
  22 C :   -0.029633
  23 H :    0.026512
  24 H :    0.029223
  25 C :   -0.044397
  26 H :    0.022176
  27 H :    0.023507
  28 C :   -0.064523
  29 H :    0.037153
  30 H :    0.025287
  31 H :    0.015916
  32 H :    0.034632
  33 H :    0.036125

  Mayer bond orders larger than 0.100000
B(  0-S ,  1-C ) :   1.1258 B(  0-S ,  4-C ) :   1.1318 B(  1-C ,  2-C ) :   1.6769
B(  1-C , 32-H ) :   0.9628 B(  2-C ,  3-C ) :   1.1736 B(  2-C ,  6-C ) :   0.9954
B(  3-C ,  4-C ) :   1.6669 B(  3-C ,  5-H ) :   1.0030 B(  4-C , 20-C ) :   0.9498
B(  6-C ,  7-H ) :   0.9461 B(  6-C ,  8-H ) :   0.9352 B(  6-C ,  9-C ) :   1.0805
B(  9-C , 10-H ) :   0.9519 B(  9-C , 11-H ) :   0.9563 B(  9-C , 12-C ) :   1.0613
B( 12-C , 13-H ) :   0.9769 B( 12-C , 14-H ) :   0.9710 B( 12-C , 15-H ) :   0.9750
B( 16-S , 17-C ) :   1.1950 B( 16-S , 20-C ) :   1.1441 B( 17-C , 18-C ) :   1.5673
B( 17-C , 20-C ) :   0.1033 B( 17-C , 33-H ) :   0.9614 B( 18-C , 19-C ) :   1.2714
B( 18-C , 21-H ) :   0.9842 B( 19-C , 20-C ) :   1.5868 B( 19-C , 22-C ) :   1.0567
B( 22-C , 23-H ) :   0.9180 B( 22-C , 24-H ) :   0.9165 B( 22-C , 25-C ) :   1.0761
B( 25-C , 26-H ) :   0.9431 B( 25-C , 27-H ) :   0.9447 B( 25-C , 28-C ) :   1.0909
B( 28-C , 29-H ) :   0.9729 B( 28-C , 30-H ) :   0.9698 B( 28-C , 31-H ) :   0.9697

Dispersion correction           -0.015815642
FINAL SINGLE POINT ENERGY     -1339.862268053309

DIPOLE MOMENT
-------------
                                X             Y             Z
Electronic contribution:     -8.43654      29.33826      -8.51552
Nuclear contribution   :      8.42580     -30.05404       8.75112
                        -----------------------------------------
Total Dipole Moment    :     -0.01074      -0.71578       0.23560
                        -----------------------------------------
Magnitude (a.u.)       :      0.75363
Magnitude (Debye)      :      1.91558

Rotational constants in cm-1:     0.017918     0.010517     0.007194
Rotational constants in MHz :   537.159860   315.291408   215.665980

                             ****ORCA TERMINATED NORMALLY****
TOTAL RUN TIME: 0 days 0 hours 0 minutes 36 seconds 929 msec
