                         Program Version 4.2.1 -  RELEASE  -
|  1> ! wB97X-D3 SP def2-SVP
|  2> %pal
|  3> nprocs 16
|  4> end
|  5>
|  6> * xyz 0 1
|  7> S 	 44.5729 	 6.96664 	 101.604
|  8> C 	 45.7357 	 7.85161 	 102.478
|  9> C 	 46.4065 	 8.81814 	 101.773
| 10> C 	 45.9434 	 8.8561 	 100.408
| 11> C 	 44.8811 	 7.98992 	 100.221
| 12> H 	 46.3866 	 9.38545 	 99.5628
| 13> C 	 47.4286 	 9.81763 	 102.316
| 14> H 	 47.0291 	 10.0107 	 103.361
| 15> H 	 47.3932 	 10.7274 	 101.771
| 16> C 	 48.776 	 9.24038 	 102.341
| 17> H 	 48.989 	 8.58186 	 103.209
| 18> H 	 48.9608 	 8.53732 	 101.519
| 19> C 	 49.8488 	 10.291 	 102.224
| 20> H 	 50.1308 	 10.6051 	 103.248
| 21> H 	 50.8095 	 9.88345 	 101.774
| 22> H 	 49.5915 	 11.1393 	 101.634
| 23> S 	 43.7212 	 6.12819 	 98.6271
| 24> C 	 43.0653 	 6.57305 	 97.1318
| 25> C 	 43.2208 	 7.9062 	 96.8196
| 26> C 	 43.9742 	 8.59864 	 97.7954
| 27> C 	 44.1402 	 7.83414 	 98.9185
| 28> H 	 42.7865 	 8.34328 	 95.9023
| 29> C 	 44.4328 	 10.0513 	 97.7256
| 30> H 	 45.5917 	 9.90668 	 97.7563
| 31> H 	 44.3539 	 10.6026 	 98.6957
| 32> C 	 43.9231 	 10.9179 	 96.533
| 33> H 	 44.2597 	 10.4533 	 95.6058
| 34> H 	 44.4377 	 11.83 	 96.5052
| 35> C 	 42.457 	 11.2636 	 96.5035
| 36> H 	 41.7485 	 10.4351 	 96.342
| 37> H 	 42.352 	 12.0726 	 95.7267
| 38> H 	 42.1038 	 11.8113 	 97.3467
| 39> H 	 45.9162 	 7.56494 	 103.577
| 40> H 	 42.6008 	 5.79303 	 96.4915
| 41> *
| 42>
| 43>                          ****END OF INPUT****

CARTESIAN COORDINATES (ANGSTROEM)
---------------------------------
  S     44.572900    6.966640  101.604000
  C     45.735700    7.851610  102.478000
  C     46.406500    8.818140  101.773000
  C     45.943400    8.856100  100.408000
  C     44.881100    7.989920  100.221000
  H     46.386600    9.385450   99.562800
  C     47.428600    9.817630  102.316000
  H     47.029100   10.010700  103.361000
  H     47.393200   10.727400  101.771000
  C     48.776000    9.240380  102.341000
  H     48.989000    8.581860  103.209000
  H     48.960800    8.537320  101.519000
  C     49.848800   10.291000  102.224000
  H     50.130800   10.605100  103.248000
  H     50.809500    9.883450  101.774000
  H     49.591500   11.139300  101.634000
  S     43.721200    6.128190   98.627100
  C     43.065300    6.573050   97.131800
  C     43.220800    7.906200   96.819600
  C     43.974200    8.598640   97.795400
  C     44.140200    7.834140   98.918500
  H     42.786500    8.343280   95.902300
  C     44.432800   10.051300   97.725600
  H     45.591700    9.906680   97.756300
  H     44.353900   10.602600   98.695700
  C     43.923100   10.917900   96.533000
  H     44.259700   10.453300   95.605800
  H     44.437700   11.830000   96.505200
  C     42.457000   11.263600   96.503500
  H     41.748500   10.435100   96.342000
  H     42.352000   12.072600   95.726700
  H     42.103800   11.811300   97.346700
  H     45.916200    7.564940  103.577000
  H     42.600800    5.793030   96.491500

 Total Charge           Charge          ....    0
 Multiplicity           Mult            ....    1
 Number of Electrons    NEL             ....  134
 Basis Dimension        Dim             ....  322

ORBITAL ENERGIES
----------------

  NO   OCC          E(Eh)            E(eV)
   0   2.0000     -88.967155     -2420.9194
   1   2.0000     -88.960557     -2420.7398
   2   2.0000     -10.328559      -281.0544
   3   2.0000     -10.322785      -280.8973
   4   2.0000     -10.313396      -280.6418
   5   2.0000     -10.312860      -280.6272
   6   2.0000     -10.306502      -280.4542
   7   2.0000     -10.303537      -280.3735
   8   2.0000     -10.299618      -280.2668
   9   2.0000     -10.293937      -280.1123
  10   2.0000     -10.292128      -280.0630
  11   2.0000     -10.290600      -280.0215
  12   2.0000     -10.288126      -279.9541
  13   2.0000     -10.280923      -279.7581
  14   2.0000     -10.280369      -279.7430
  15   2.0000     -10.277595      -279.6676
  16   2.0000      -8.082778      -219.9436
  17   2.0000      -8.076458      -219.7716
  18   2.0000      -6.041204      -164.3895
  19   2.0000      -6.037302      -164.2833
  20   2.0000      -6.034703      -164.2126
  21   2.0000      -6.033443      -164.1783
  22   2.0000      -6.030942      -164.1103
  23   2.0000      -6.027301      -164.0112
  24   2.0000      -1.009551       -27.4713
  25   2.0000      -0.989491       -26.9254
  26   2.0000      -0.921065       -25.0635
  27   2.0000      -0.908898       -24.7324
  28   2.0000      -0.864823       -23.5330
  29   2.0000      -0.858772       -23.3684
  30   2.0000      -0.848226       -23.0814
  31   2.0000      -0.810043       -22.0424
  32   2.0000      -0.785519       -21.3750
  33   2.0000      -0.769731       -20.9455
  34   2.0000      -0.708542       -19.2804
  35   2.0000      -0.698634       -19.0108
  36   2.0000      -0.684938       -18.6381
  37   2.0000      -0.660846       -17.9825
  38   2.0000      -0.636191       -17.3116
  39   2.0000      -0.619113       -16.8469
  40   2.0000      -0.598036       -16.2734
  41   2.0000      -0.572983       -15.5917
  42   2.0000      -0.555001       -15.1023
  43   2.0000      -0.546889       -14.8816
  44   2.0000      -0.543651       -14.7935
  45   2.0000      -0.528294       -14.3756
  46   2.0000      -0.520326       -14.1588
  47   2.0000      -0.510614       -13.8945
  48   2.0000      -0.497557       -13.5392
  49   2.0000      -0.495918       -13.4946
  50   2.0000      -0.484542       -13.1851
  51   2.0000      -0.479797       -13.0559
  52   2.0000      -0.476488       -12.9659
  53   2.0000      -0.470687       -12.8080
  54   2.0000      -0.456300       -12.4166
  55   2.0000      -0.452343       -12.3089
  56   2.0000      -0.447513       -12.1775
  57   2.0000      -0.442501       -12.0411
  58   2.0000      -0.435531       -11.8514
  59   2.0000      -0.427396       -11.6300
  60   2.0000      -0.420044       -11.4300
  61   2.0000      -0.416580       -11.3357
  62   2.0000      -0.398990       -10.8571
  63   2.0000      -0.352122        -9.5817
  64   2.0000      -0.331997        -9.0341
  65   2.0000      -0.329254        -8.9594
  66   2.0000      -0.281884        -7.6705
  67   0.0000       0.030851         0.8395
  68   0.0000       0.081109         2.2071
  69   0.0000       0.102772         2.7966
  70   0.0000       0.122329         3.3287
  71   0.0000       0.132835         3.6146

MULLIKEN ATOMIC CHARGES
-----------------------
   0 S :    0.120083
   1 C :   -0.159298
   2 C :   -0.085012
   3 C :   -0.025255
   4 C :   -0.116639
   5 H :    0.012237
   6 C :    0.101968
   7 H :    0.040017
   8 H :    0.013911
   9 C :   -0.073654
  10 H :    0.030614
  11 H :    0.031101
  12 C :   -0.063094
  13 H :    0.030968
  14 H :    0.034511
  15 H :    0.025766
  16 S :    0.085816
  17 C :   -0.093923
  18 C :   -0.050791
  19 C :   -0.036059
  20 C :   -0.128137
  21 H :    0.028395
  22 C :   -0.036482
  23 H :    0.053812
  24 H :    0.047362
  25 C :   -0.006691
  26 H :    0.024508
  27 H :    0.010288
  28 C :   -0.051844
  29 H :    0.043603
  30 H :    0.032093
  31 H :    0.022230
  32 H :    0.071063
  33 H :    0.066534
Sum of atomic charges:    0.0000000

LOEWDIN ATOMIC CHARGES
----------------------
   0 S :    0.417685
   1 C :   -0.226440
   2 C :   -0.059896
   3 C :   -0.073452
   4 C :   -0.190866
   5 H :    0.031345
   6 C :   -0.027455
   7 H :    0.042674
   8 H :    0.024303
   9 C :   -0.054173
  10 H :    0.030540
  11 H :    0.026305
  12 C :   -0.067795
  13 H :    0.026817
  14 H :    0.031994
  15 H :    0.016762
  16 S :    0.406344
  17 C :   -0.201687
  18 C :   -0.082554
  19 C :   -0.060536
  20 C :   -0.180346
  21 H :    0.036779
  22 C :   -0.042642
  23 H :    0.042733
  24 H :    0.036325
  25 C :   -0.043111
  26 H :    0.026372
  27 H :    0.023796
  28 C :   -0.067924
  29 H :    0.025818
  30 H :    0.035971
  31 H :    0.023027
  32 H :    0.040087
  33 H :    0.033201

  Mayer bond orders larger than 0.100000
B(  0-S ,  1-C ) :   1.1395 B(  0-S ,  4-C ) :   1.1568 B(  1-C ,  2-C ) :   1.6338
B(  1-C , 32-H ) :   0.9530 B(  2-C ,  3-C ) :   1.2292 B(  2-C ,  6-C ) :   1.0147
B(  3-C ,  4-C ) :   1.5804 B(  3-C ,  5-H ) :   0.9878 B(  4-C , 20-C ) :   1.0234
B(  6-C ,  7-H ) :   0.9347 B(  6-C ,  8-H ) :   0.9493 B(  6-C ,  9-C ) :   1.0547
B(  9-C , 10-H ) :   0.9478 B(  9-C , 11-H ) :   0.9646 B(  9-C , 12-C ) :   1.0796
B( 12-C , 13-H ) :   0.9748 B( 12-C , 14-H ) :   0.9768 B( 12-C , 15-H ) :   0.9790
B( 16-S , 17-C ) :   1.1818 B( 16-S , 20-C ) :   1.1342 B( 17-C , 18-C ) :   1.5920
B( 17-C , 33-H ) :   0.9604 B( 18-C , 19-C ) :   1.2400 B( 18-C , 21-H ) :   0.9848
B( 19-C , 20-C ) :   1.6288 B( 19-C , 22-C ) :   1.0171 B( 22-C , 23-H ) :   0.9223
B( 22-C , 24-H ) :   0.9444 B( 22-C , 25-C ) :   1.0706 B( 25-C , 26-H ) :   0.9464
B( 25-C , 27-H ) :   0.9444 B( 25-C , 28-C ) :   1.0853 B( 28-C , 29-H ) :   0.9752
B( 28-C , 30-H ) :   0.9704 B( 28-C , 31-H ) :   0.9692

Dispersion correction           -0.013639028
FINAL SINGLE POINT ENERGY     -1339.868144936971

DIPOLE MOMENT
-------------
                                X             Y             Z
Electronic contribution:    -13.40462     -23.79198       3.48883
Nuclear contribution   :     13.74826      24.35422      -3.68629
                        -----------------------------------------
Total Dipole Moment    :      0.34363       0.56224      -0.19746
                        -----------------------------------------
Magnitude (a.u.)       :      0.68788
Magnitude (Debye)      :      1.74846

Rotational constants in cm-1:     0.018991     0.007984     0.006142
Rotational constants in MHz :   569.345192   239.363814   184.122435

                             ****ORCA TERMINATED NORMALLY****
TOTAL RUN TIME: 0 days 0 hours 0 minutes 29 seconds 307 msec
