                         Program Version 4.2.1 -  RELEASE  -
|  1> ! wB97X-D3 SP def2-SVP
|  2> %pal
|  3> nprocs 16
|  4> end
|  5>
|  6> * xyz 0 1
|  7> S 	 33.1052 	 20.3398 	 50.1752
|  8> C 	 32.6468 	 20.6159 	 51.8759
|  9> C 	 33.4175 	 19.9261 	 52.7521
| 10> C 	 34.2231 	 18.9934 	 52.0756
| 11> C 	 34.2435 	 19.1235 	 50.6878
| 12> H 	 34.9015 	 18.2201 	 52.4891
| 13> C 	 33.1879 	 19.8409 	 54.1917
| 14> H 	 33.5131 	 20.6566 	 54.8212
| 15> H 	 33.7462 	 18.9784 	 54.5736
| 16> C 	 31.7151 	 19.6036 	 54.6617
| 17> H 	 31.0166 	 20.1494 	 53.9596
| 18> H 	 31.4572 	 18.5051 	 54.4328
| 19> C 	 31.5512 	 19.9913 	 56.1223
| 20> H 	 32.1146 	 19.3825 	 56.7536
| 21> H 	 31.9478 	 21.0151 	 56.2385
| 22> H 	 30.5333 	 20.0014 	 56.4952
| 23> S 	 34.5605 	 18.0311 	 48.1496
| 24> C 	 36.1246 	 17.4071 	 47.631
| 25> C 	 36.9944 	 17.5212 	 48.6782
| 26> C 	 36.5173 	 18.1136 	 49.8332
| 27> C 	 35.2251 	 18.5563 	 49.7206
| 28> H 	 38.0227 	 17.0724 	 48.6876
| 29> C 	 37.4895 	 18.4611 	 51.002
| 30> H 	 38.0814 	 17.5702 	 51.0845
| 31> H 	 37.0097 	 18.6231 	 51.9307
| 32> C 	 38.4627 	 19.5825 	 50.5925
| 33> H 	 37.938 	 20.4748 	 50.4826
| 34> H 	 38.9835 	 19.4071 	 49.6063
| 35> C 	 39.5659 	 19.8228 	 51.5844
| 36> H 	 40.4869 	 20.2814 	 51.1431
| 37> H 	 39.8076 	 18.9112 	 52.0983
| 38> H 	 39.1374 	 20.5265 	 52.3287
| 39> H 	 31.9218 	 21.3601 	 52.1613
| 40> H 	 36.2782 	 16.8817 	 46.6671
| 41> *
| 42>
| 43>                          ****END OF INPUT****

CARTESIAN COORDINATES (ANGSTROEM)
---------------------------------
  S     33.105200   20.339800   50.175200
  C     32.646800   20.615900   51.875900
  C     33.417500   19.926100   52.752100
  C     34.223100   18.993400   52.075600
  C     34.243500   19.123500   50.687800
  H     34.901500   18.220100   52.489100
  C     33.187900   19.840900   54.191700
  H     33.513100   20.656600   54.821200
  H     33.746200   18.978400   54.573600
  C     31.715100   19.603600   54.661700
  H     31.016600   20.149400   53.959600
  H     31.457200   18.505100   54.432800
  C     31.551200   19.991300   56.122300
  H     32.114600   19.382500   56.753600
  H     31.947800   21.015100   56.238500
  H     30.533300   20.001400   56.495200
  S     34.560500   18.031100   48.149600
  C     36.124600   17.407100   47.631000
  C     36.994400   17.521200   48.678200
  C     36.517300   18.113600   49.833200
  C     35.225100   18.556300   49.720600
  H     38.022700   17.072400   48.687600
  C     37.489500   18.461100   51.002000
  H     38.081400   17.570200   51.084500
  H     37.009700   18.623100   51.930700
  C     38.462700   19.582500   50.592500
  H     37.938000   20.474800   50.482600
  H     38.983500   19.407100   49.606300
  C     39.565900   19.822800   51.584400
  H     40.486900   20.281400   51.143100
  H     39.807600   18.911200   52.098300
  H     39.137400   20.526500   52.328700
  H     31.921800   21.360100   52.161300
  H     36.278200   16.881700   46.667100

 Total Charge           Charge          ....    0
 Multiplicity           Mult            ....    1
 Number of Electrons    NEL             ....  134
 Basis Dimension        Dim             ....  322

ORBITAL ENERGIES
----------------

  NO   OCC          E(Eh)            E(eV)
   0   2.0000     -88.967442     -2420.9272
   1   2.0000     -88.962449     -2420.7913
   2   2.0000     -10.331836      -281.1436
   3   2.0000     -10.330406      -281.1046
   4   2.0000     -10.322453      -280.8882
   5   2.0000     -10.313759      -280.6516
   6   2.0000     -10.300088      -280.2796
   7   2.0000     -10.296966      -280.1947
   8   2.0000     -10.296799      -280.1901
   9   2.0000     -10.295521      -280.1554
  10   2.0000     -10.293375      -280.0970
  11   2.0000     -10.292672      -280.0778
  12   2.0000     -10.288923      -279.9758
  13   2.0000     -10.279895      -279.7302
  14   2.0000     -10.277402      -279.6623
  15   2.0000     -10.276463      -279.6368
  16   2.0000      -8.081867      -219.9188
  17   2.0000      -8.076795      -219.7808
  18   2.0000      -6.040267      -164.3640
  19   2.0000      -6.036512      -164.2618
  20   2.0000      -6.035285      -164.2284
  21   2.0000      -6.032657      -164.1569
  22   2.0000      -6.031367      -164.1218
  23   2.0000      -6.027585      -164.0189
  24   2.0000      -1.007738       -27.4220
  25   2.0000      -0.988984       -26.9116
  26   2.0000      -0.916321       -24.9344
  27   2.0000      -0.911174       -24.7943
  28   2.0000      -0.869036       -23.6477
  29   2.0000      -0.854720       -23.2581
  30   2.0000      -0.847097       -23.0507
  31   2.0000      -0.812762       -22.1164
  32   2.0000      -0.783244       -21.3131
  33   2.0000      -0.775199       -21.0942
  34   2.0000      -0.707526       -19.2528
  35   2.0000      -0.698205       -18.9991
  36   2.0000      -0.693306       -18.8658
  37   2.0000      -0.664792       -18.0899
  38   2.0000      -0.642655       -17.4875
  39   2.0000      -0.618274       -16.8241
  40   2.0000      -0.600554       -16.3419
  41   2.0000      -0.573037       -15.5931
  42   2.0000      -0.566628       -15.4187
  43   2.0000      -0.557512       -15.1707
  44   2.0000      -0.529854       -14.4181
  45   2.0000      -0.522695       -14.2233
  46   2.0000      -0.519495       -14.1362
  47   2.0000      -0.514043       -13.9878
  48   2.0000      -0.508183       -13.8284
  49   2.0000      -0.495516       -13.4837
  50   2.0000      -0.491053       -13.3622
  51   2.0000      -0.482734       -13.1358
  52   2.0000      -0.477396       -12.9906
  53   2.0000      -0.465736       -12.6733
  54   2.0000      -0.456885       -12.4325
  55   2.0000      -0.451734       -12.2923
  56   2.0000      -0.443620       -12.0715
  57   2.0000      -0.437034       -11.8923
  58   2.0000      -0.434924       -11.8349
  59   2.0000      -0.429324       -11.6825
  60   2.0000      -0.416578       -11.3357
  61   2.0000      -0.414607       -11.2820
  62   2.0000      -0.409810       -11.1515
  63   2.0000      -0.351388        -9.5617
  64   2.0000      -0.334751        -9.1090
  65   2.0000      -0.332732        -9.0541
  66   2.0000      -0.289541        -7.8788
  67   0.0000       0.023105         0.6287
  68   0.0000       0.074503         2.0273
  69   0.0000       0.101245         2.7550
  70   0.0000       0.118628         3.2280
  71   0.0000       0.135532         3.6880

MULLIKEN ATOMIC CHARGES
-----------------------
   0 S :    0.106238
   1 C :   -0.132701
   2 C :   -0.019438
   3 C :   -0.025380
   4 C :   -0.118489
   5 H :    0.027799
   6 C :    0.052967
   7 H :    0.023080
   8 H :    0.021247
   9 C :   -0.129746
  10 H :    0.032898
  11 H :    0.041007
  12 C :   -0.016360
  13 H :    0.020115
  14 H :    0.027434
  15 H :    0.037632
  16 S :    0.076199
  17 C :   -0.097006
  18 C :   -0.048695
  19 C :   -0.053248
  20 C :   -0.138017
  21 H :    0.030640
  22 C :    0.107588
  23 H :    0.010107
  24 H :    0.007413
  25 C :   -0.075789
  26 H :    0.020955
  27 H :    0.032049
  28 C :   -0.046667
  29 H :    0.045491
  30 H :    0.020558
  31 H :    0.032441
  32 H :    0.050844
  33 H :    0.076834
Sum of atomic charges:    0.0000000

LOEWDIN ATOMIC CHARGES
----------------------
   0 S :    0.398931
   1 C :   -0.175522
   2 C :   -0.071072
   3 C :   -0.068088
   4 C :   -0.192688
   5 H :    0.035293
   6 C :   -0.036757
   7 H :    0.028198
   8 H :    0.032654
   9 C :   -0.043528
  10 H :    0.022832
  11 H :    0.030723
  12 C :   -0.062729
  13 H :    0.017669
  14 H :    0.028460
  15 H :    0.028822
  16 S :    0.379862
  17 C :   -0.181955
  18 C :   -0.079571
  19 C :   -0.062536
  20 C :   -0.183183
  21 H :    0.038904
  22 C :   -0.014236
  23 H :    0.026328
  24 H :    0.019875
  25 C :   -0.040510
  26 H :    0.017170
  27 H :    0.029767
  28 C :   -0.068405
  29 H :    0.032644
  30 H :    0.018049
  31 H :    0.028850
  32 H :    0.024888
  33 H :    0.040862

  Mayer bond orders larger than 0.100000
B(  0-S ,  1-C ) :   1.1347 B(  0-S ,  4-C ) :   1.1576 B(  1-C ,  2-C ) :   1.6080
B(  1-C , 32-H ) :   0.9678 B(  2-C ,  3-C ) :   1.2411 B(  2-C ,  6-C ) :   1.0352
B(  3-C ,  4-C ) :   1.5910 B(  3-C ,  5-H ) :   0.9808 B(  4-C , 20-C ) :   1.0102
B(  6-C ,  7-H ) :   0.9332 B(  6-C ,  8-H ) :   0.9436 B(  6-C ,  9-C ) :   1.0453
B(  9-C , 10-H ) :   0.9615 B(  9-C , 11-H ) :   0.9561 B(  9-C , 12-C ) :   1.0709
B( 12-C , 13-H ) :   0.9744 B( 12-C , 14-H ) :   0.9721 B( 12-C , 15-H ) :   0.9725
B( 16-S , 17-C ) :   1.1487 B( 16-S , 20-C ) :   1.1370 B( 17-C , 18-C ) :   1.5842
B( 17-C , 20-C ) :   0.1053 B( 17-C , 33-H ) :   0.9679 B( 18-C , 19-C ) :   1.2764
B( 18-C , 21-H ) :   0.9750 B( 19-C , 20-C ) :   1.6102 B( 19-C , 22-C ) :   1.0325
B( 22-C , 23-H ) :   0.9242 B( 22-C , 24-H ) :   0.9405 B( 22-C , 25-C ) :   1.0691
B( 25-C , 26-H ) :   0.9592 B( 25-C , 27-H ) :   0.9570 B( 25-C , 28-C ) :   1.0753
B( 28-C , 29-H ) :   0.9755 B( 28-C , 30-H ) :   0.9754 B( 28-C , 31-H ) :   0.9763

Dispersion correction           -0.013398514
FINAL SINGLE POINT ENERGY     -1339.874309490202

DIPOLE MOMENT
-------------
                                X             Y             Z
Electronic contribution:     -9.60068      -3.24823     -25.78184
Nuclear contribution   :      9.99934       3.16896      26.37634
                        -----------------------------------------
Total Dipole Moment    :      0.39866      -0.07927       0.59451
                        -----------------------------------------
Magnitude (a.u.)       :      0.72017
Magnitude (Debye)      :      1.83053

Rotational constants in cm-1:     0.019466     0.007677     0.006076
Rotational constants in MHz :   583.585867   230.149940   182.163729

                             ****ORCA TERMINATED NORMALLY****
TOTAL RUN TIME: 0 days 0 hours 0 minutes 33 seconds 938 msec
