                         Program Version 4.2.1 -  RELEASE  -
|  1> ! wB97X-D3 SP def2-SVP
|  2> %pal
|  3> nprocs 16
|  4> end
|  5>
|  6> * xyz 0 1
|  7> S 	 -39.9194 	 37.4667 	 76.057
|  8> C 	 -41.3869 	 36.6753 	 76.6035
|  9> C 	 -41.1636 	 35.6755 	 77.5158
| 10> C 	 -39.7553 	 35.5098 	 77.8146
| 11> C 	 -38.9939 	 36.2193 	 76.8696
| 12> H 	 -39.2806 	 34.7235 	 78.4025
| 13> C 	 -42.1664 	 34.901 	 78.3512
| 14> H 	 -43.0411 	 34.9409 	 77.8115
| 15> H 	 -42.3049 	 35.4593 	 79.3304
| 16> C 	 -41.9274 	 33.4154 	 78.5687
| 17> H 	 -41.0837 	 33.4567 	 79.2387
| 18> H 	 -42.7641 	 32.9004 	 79.1308
| 19> C 	 -41.7622 	 32.6587 	 77.2452
| 20> H 	 -42.7196 	 32.6689 	 76.7111
| 21> H 	 -40.9918 	 33.1065 	 76.6906
| 22> H 	 -41.4855 	 31.6016 	 77.42
| 23> S 	 -36.6485 	 37.503 	 75.9982
| 24> C 	 -35.2065 	 36.5375 	 75.7738
| 25> C 	 -35.4383 	 35.2044 	 76.1458
| 26> C 	 -36.7925 	 34.9159 	 76.5543
| 27> C 	 -37.5651 	 36.0886 	 76.6271
| 28> H 	 -34.7348 	 34.4336 	 75.9712
| 29> C 	 -37.2432 	 33.4809 	 76.8587
| 30> H 	 -37.5231 	 33.307 	 77.915
| 31> H 	 -36.3556 	 32.8242 	 76.7861
| 32> C 	 -38.2718 	 32.8141 	 75.8796
| 33> H 	 -38.963 	 33.5616 	 75.483
| 34> H 	 -38.8193 	 32.0759 	 76.4967
| 35> C 	 -37.5159 	 32.1373 	 74.6891
| 36> H 	 -37.0488 	 32.8421 	 73.9963
| 37> H 	 -38.2904 	 31.5688 	 74.1898
| 38> H 	 -36.7133 	 31.4168 	 75.0711
| 39> H 	 -42.282 	 36.9782 	 76.3421
| 40> H 	 -34.3198 	 36.8362 	 75.1976
| 41> *
| 42>
| 43>                          ****END OF INPUT****

CARTESIAN COORDINATES (ANGSTROEM)
---------------------------------
  S    -39.919400   37.466700   76.057000
  C    -41.386900   36.675300   76.603500
  C    -41.163600   35.675500   77.515800
  C    -39.755300   35.509800   77.814600
  C    -38.993900   36.219300   76.869600
  H    -39.280600   34.723500   78.402500
  C    -42.166400   34.901000   78.351200
  H    -43.041100   34.940900   77.811500
  H    -42.304900   35.459300   79.330400
  C    -41.927400   33.415400   78.568700
  H    -41.083700   33.456700   79.238700
  H    -42.764100   32.900400   79.130800
  C    -41.762200   32.658700   77.245200
  H    -42.719600   32.668900   76.711100
  H    -40.991800   33.106500   76.690600
  H    -41.485500   31.601600   77.420000
  S    -36.648500   37.503000   75.998200
  C    -35.206500   36.537500   75.773800
  C    -35.438300   35.204400   76.145800
  C    -36.792500   34.915900   76.554300
  C    -37.565100   36.088600   76.627100
  H    -34.734800   34.433600   75.971200
  C    -37.243200   33.480900   76.858700
  H    -37.523100   33.307000   77.915000
  H    -36.355600   32.824200   76.786100
  C    -38.271800   32.814100   75.879600
  H    -38.963000   33.561600   75.483000
  H    -38.819300   32.075900   76.496700
  C    -37.515900   32.137300   74.689100
  H    -37.048800   32.842100   73.996300
  H    -38.290400   31.568800   74.189800
  H    -36.713300   31.416800   75.071100
  H    -42.282000   36.978200   76.342100
  H    -34.319800   36.836200   75.197600

 Total Charge           Charge          ....    0
 Multiplicity           Mult            ....    1
 Number of Electrons    NEL             ....  134
 Basis Dimension        Dim             ....  322

ORBITAL ENERGIES
----------------

  NO   OCC          E(Eh)            E(eV)
   0   2.0000     -88.969391     -2420.9802
   1   2.0000     -88.967620     -2420.9320
   2   2.0000     -10.333143      -281.1791
   3   2.0000     -10.332172      -281.1527
   4   2.0000     -10.323386      -280.9136
   5   2.0000     -10.310361      -280.5592
   6   2.0000     -10.303564      -280.3742
   7   2.0000     -10.302994      -280.3587
   8   2.0000     -10.298728      -280.2426
   9   2.0000     -10.296227      -280.1746
  10   2.0000     -10.295992      -280.1682
  11   2.0000     -10.292946      -280.0853
  12   2.0000     -10.288823      -279.9731
  13   2.0000     -10.287426      -279.9351
  14   2.0000     -10.284487      -279.8551
  15   2.0000     -10.276191      -279.6294
  16   2.0000      -8.083221      -219.9556
  17   2.0000      -8.082419      -219.9338
  18   2.0000      -6.041889      -164.4082
  19   2.0000      -6.040938      -164.3823
  20   2.0000      -6.037835      -164.2979
  21   2.0000      -6.037206      -164.2807
  22   2.0000      -6.033914      -164.1912
  23   2.0000      -6.032892      -164.1633
  24   2.0000      -1.003040       -27.2941
  25   2.0000      -0.978623       -26.6297
  26   2.0000      -0.916520       -24.9398
  27   2.0000      -0.902446       -24.5568
  28   2.0000      -0.868050       -23.6208
  29   2.0000      -0.850159       -23.1340
  30   2.0000      -0.841179       -22.8896
  31   2.0000      -0.811320       -22.0771
  32   2.0000      -0.784385       -21.3442
  33   2.0000      -0.773790       -21.0559
  34   2.0000      -0.711792       -19.3688
  35   2.0000      -0.699888       -19.0449
  36   2.0000      -0.689117       -18.7518
  37   2.0000      -0.662022       -18.0145
  38   2.0000      -0.642387       -17.4802
  39   2.0000      -0.622120       -16.9288
  40   2.0000      -0.596691       -16.2368
  41   2.0000      -0.562232       -15.2991
  42   2.0000      -0.556140       -15.1333
  43   2.0000      -0.550365       -14.9762
  44   2.0000      -0.544166       -14.8075
  45   2.0000      -0.539254       -14.6738
  46   2.0000      -0.515788       -14.0353
  47   2.0000      -0.504983       -13.7413
  48   2.0000      -0.501813       -13.6550
  49   2.0000      -0.499201       -13.5839
  50   2.0000      -0.489226       -13.3125
  51   2.0000      -0.483579       -13.1588
  52   2.0000      -0.471699       -12.8356
  53   2.0000      -0.466135       -12.6842
  54   2.0000      -0.457999       -12.4628
  55   2.0000      -0.453248       -12.3335
  56   2.0000      -0.444504       -12.0956
  57   2.0000      -0.440366       -11.9830
  58   2.0000      -0.430702       -11.7200
  59   2.0000      -0.425117       -11.5680
  60   2.0000      -0.420607       -11.4453
  61   2.0000      -0.415183       -11.2977
  62   2.0000      -0.407599       -11.0913
  63   2.0000      -0.352453        -9.5907
  64   2.0000      -0.335223        -9.1219
  65   2.0000      -0.329196        -8.9579
  66   2.0000      -0.282253        -7.6805
  67   0.0000       0.013543         0.3685
  68   0.0000       0.075849         2.0640
  69   0.0000       0.093532         2.5451
  70   0.0000       0.115742         3.1495
  71   0.0000       0.123461         3.3595

MULLIKEN ATOMIC CHARGES
-----------------------
   0 S :    0.103279
   1 C :   -0.033695
   2 C :   -0.125107
   3 C :    0.023959
   4 C :   -0.155855
   5 H :    0.018236
   6 C :    0.106558
   7 H :   -0.015614
   8 H :    0.060758
   9 C :   -0.100876
  10 H :    0.021795
  11 H :    0.040460
  12 C :   -0.036961
  13 H :    0.035650
  14 H :    0.021676
  15 H :    0.038211
  16 S :    0.093007
  17 C :   -0.099210
  18 C :   -0.011147
  19 C :   -0.048229
  20 C :   -0.127048
  21 H :    0.006742
  22 C :    0.023178
  23 H :    0.043669
  24 H :    0.005614
  25 C :   -0.100289
  26 H :    0.073872
  27 H :    0.037021
  28 C :   -0.068572
  29 H :    0.049787
  30 H :    0.037770
  31 H :    0.037819
  32 H :   -0.030348
  33 H :    0.073891
Sum of atomic charges:    0.0000000

LOEWDIN ATOMIC CHARGES
----------------------
   0 S :    0.395335
   1 C :   -0.170466
   2 C :   -0.054048
   3 C :   -0.065107
   4 C :   -0.177824
   5 H :    0.030825
   6 C :   -0.032133
   7 H :    0.012901
   8 H :    0.046132
   9 C :   -0.044986
  10 H :    0.015234
  11 H :    0.032831
  12 C :   -0.059708
  13 H :    0.030421
  14 H :    0.016055
  15 H :    0.029199
  16 S :    0.384175
  17 C :   -0.191595
  18 C :   -0.066337
  19 C :   -0.053161
  20 C :   -0.184446
  21 H :    0.023303
  22 C :   -0.040535
  23 H :    0.029986
  24 H :    0.029621
  25 C :   -0.037939
  26 H :    0.029118
  27 H :    0.027945
  28 C :   -0.068156
  29 H :    0.028039
  30 H :    0.025564
  31 H :    0.029050
  32 H :   -0.007675
  33 H :    0.038380

  Mayer bond orders larger than 0.100000
B(  0-S ,  1-C ) :   1.1152 B(  0-S ,  4-C ) :   1.1471 B(  1-C ,  2-C ) :   1.6464
B(  1-C , 32-H ) :   0.9840 B(  2-C ,  3-C ) :   1.1942 B(  2-C ,  6-C ) :   1.0188
B(  3-C ,  4-C ) :   1.5764 B(  3-C ,  5-H ) :   0.9821 B(  4-C , 20-C ) :   1.0939
B(  6-C ,  7-H ) :   0.9282 B(  6-C ,  8-H ) :   0.9382 B(  6-C ,  9-C ) :   1.0641
B(  9-C , 10-H ) :   0.9565 B(  9-C , 11-H ) :   0.9563 B(  9-C , 12-C ) :   1.0724
B( 12-C , 13-H ) :   0.9695 B( 12-C , 14-H ) :   0.9722 B( 12-C , 15-H ) :   0.9707
B( 16-S , 17-C ) :   1.1535 B( 16-S , 20-C ) :   1.1231 B( 17-C , 18-C ) :   1.5958
B( 17-C , 33-H ) :   0.9631 B( 18-C , 19-C ) :   1.2717 B( 18-C , 21-H ) :   0.9857
B( 19-C , 20-C ) :   1.5709 B( 19-C , 22-C ) :   1.0339 B( 22-C , 23-H ) :   0.9430
B( 22-C , 24-H ) :   0.9339 B( 22-C , 25-C ) :   1.0439 B( 25-C , 26-H ) :   0.9506
B( 25-C , 27-H ) :   0.9509 B( 25-C , 28-C ) :   1.0725 B( 28-C , 29-H ) :   0.9776
B( 28-C , 30-H ) :   0.9756 B( 28-C , 31-H ) :   0.9732

Dispersion correction           -0.016316677
FINAL SINGLE POINT ENERGY     -1339.862533235978

DIPOLE MOMENT
-------------
                                X             Y             Z
Electronic contribution:      9.48893      29.08764      -2.93685
Nuclear contribution   :     -9.63221     -29.83143       2.94581
                        -----------------------------------------
Total Dipole Moment    :     -0.14328      -0.74379       0.00896
                        -----------------------------------------
Magnitude (a.u.)       :      0.75752
Magnitude (Debye)      :      1.92545

Rotational constants in cm-1:     0.018562     0.010812     0.007633
Rotational constants in MHz :   556.470867   324.122209   228.837843

                             ****ORCA TERMINATED NORMALLY****
TOTAL RUN TIME: 0 days 0 hours 0 minutes 31 seconds 836 msec
