                         Program Version 4.2.1 -  RELEASE  -
|  1> ! wB97X-D3 SP def2-SVP
|  2> %pal
|  3> nprocs 16
|  4> end
|  5>
|  6> * xyz 0 1
|  7> S 	 42.6277 	 13.5487 	 86.5045
|  8> C 	 43.8116 	 14.5733 	 87.3081
|  9> C 	 45.1151 	 14.357 	 86.9068
| 10> C 	 45.1213 	 13.6298 	 85.6093
| 11> C 	 43.8264 	 13.3049 	 85.1634
| 12> H 	 45.9365 	 13.4213 	 84.952
| 13> C 	 46.3383 	 14.8307 	 87.5785
| 14> H 	 46.9702 	 13.9608 	 87.4973
| 15> H 	 46.1511 	 15.0473 	 88.6213
| 16> C 	 46.9283 	 16.1392 	 87.0127
| 17> H 	 47.9595 	 16.1848 	 87.427
| 18> H 	 46.835 	 16.0431 	 85.9081
| 19> C 	 46.2421 	 17.4566 	 87.4354
| 20> H 	 46.3701 	 17.5458 	 88.5101
| 21> H 	 46.7109 	 18.2931 	 86.9248
| 22> H 	 45.181 	 17.4411 	 87.1539
| 23> S 	 42.5031 	 11.1598 	 84.1161
| 24> C 	 42.39 	 10.9576 	 82.3868
| 25> C 	 43.0737 	 11.9555 	 81.7055
| 26> C 	 43.7631 	 12.8731 	 82.5968
| 27> C 	 43.4449 	 12.5917 	 83.9428
| 28> H 	 42.9322 	 11.9497 	 80.6597
| 29> C 	 44.4837 	 14.119 	 82.0208
| 30> H 	 45.5013 	 13.9382 	 81.6661
| 31> H 	 44.6725 	 14.7954 	 82.9197
| 32> C 	 43.7883 	 14.9544 	 80.8928
| 33> H 	 43.6503 	 14.2971 	 80.0708
| 34> H 	 44.4335 	 15.7729 	 80.6295
| 35> C 	 42.4388 	 15.5632 	 81.3011
| 36> H 	 41.8547 	 14.6764 	 81.627
| 37> H 	 41.9725 	 15.8533 	 80.37
| 38> H 	 42.3598 	 16.275 	 82.0758
| 39> H 	 43.6172 	 14.9331 	 88.2773
| 40> H 	 41.8345 	 10.2093 	 81.8612
| 41> *
| 42>
| 43>                          ****END OF INPUT****

CARTESIAN COORDINATES (ANGSTROEM)
---------------------------------
  S     42.627700   13.548700   86.504500
  C     43.811600   14.573300   87.308100
  C     45.115100   14.357000   86.906800
  C     45.121300   13.629800   85.609300
  C     43.826400   13.304900   85.163400
  H     45.936500   13.421300   84.952000
  C     46.338300   14.830700   87.578500
  H     46.970200   13.960800   87.497300
  H     46.151100   15.047300   88.621300
  C     46.928300   16.139200   87.012700
  H     47.959500   16.184800   87.427000
  H     46.835000   16.043100   85.908100
  C     46.242100   17.456600   87.435400
  H     46.370100   17.545800   88.510100
  H     46.710900   18.293100   86.924800
  H     45.181000   17.441100   87.153900
  S     42.503100   11.159800   84.116100
  C     42.390000   10.957600   82.386800
  C     43.073700   11.955500   81.705500
  C     43.763100   12.873100   82.596800
  C     43.444900   12.591700   83.942800
  H     42.932200   11.949700   80.659700
  C     44.483700   14.119000   82.020800
  H     45.501300   13.938200   81.666100
  H     44.672500   14.795400   82.919700
  C     43.788300   14.954400   80.892800
  H     43.650300   14.297100   80.070800
  H     44.433500   15.772900   80.629500
  C     42.438800   15.563200   81.301100
  H     41.854700   14.676400   81.627000
  H     41.972500   15.853300   80.370000
  H     42.359800   16.275000   82.075800
  H     43.617200   14.933100   88.277300
  H     41.834500   10.209300   81.861200

 Total Charge           Charge          ....    0
 Multiplicity           Mult            ....    1
 Number of Electrons    NEL             ....  134
 Basis Dimension        Dim             ....  322

ORBITAL ENERGIES
----------------

  NO   OCC          E(Eh)            E(eV)
   0   2.0000     -88.968907     -2420.9670
   1   2.0000     -88.964329     -2420.8425
   2   2.0000     -10.337991      -281.3110
   3   2.0000     -10.330664      -281.1116
   4   2.0000     -10.315762      -280.7062
   5   2.0000     -10.313035      -280.6319
   6   2.0000     -10.310068      -280.5512
   7   2.0000     -10.306632      -280.4577
   8   2.0000     -10.303328      -280.3678
   9   2.0000     -10.297216      -280.2015
  10   2.0000     -10.294658      -280.1319
  11   2.0000     -10.292868      -280.0832
  12   2.0000     -10.289892      -280.0022
  13   2.0000     -10.284403      -279.8528
  14   2.0000     -10.279594      -279.7220
  15   2.0000     -10.268219      -279.4124
  16   2.0000      -8.084073      -219.9788
  17   2.0000      -8.078205      -219.8191
  18   2.0000      -6.042532      -164.4257
  19   2.0000      -6.038507      -164.3161
  20   2.0000      -6.036819      -164.2702
  21   2.0000      -6.034873      -164.2172
  22   2.0000      -6.033268      -164.1736
  23   2.0000      -6.028477      -164.0432
  24   2.0000      -1.002685       -27.2844
  25   2.0000      -0.977921       -26.6106
  26   2.0000      -0.914084       -24.8735
  27   2.0000      -0.902072       -24.5466
  28   2.0000      -0.868609       -23.6361
  29   2.0000      -0.848442       -23.0873
  30   2.0000      -0.843019       -22.9397
  31   2.0000      -0.815465       -22.1899
  32   2.0000      -0.783295       -21.3145
  33   2.0000      -0.772997       -21.0343
  34   2.0000      -0.708275       -19.2731
  35   2.0000      -0.693344       -18.8668
  36   2.0000      -0.692746       -18.8506
  37   2.0000      -0.657351       -17.8874
  38   2.0000      -0.641717       -17.4620
  39   2.0000      -0.620050       -16.8724
  40   2.0000      -0.596013       -16.2184
  41   2.0000      -0.573015       -15.5925
  42   2.0000      -0.554014       -15.0755
  43   2.0000      -0.545535       -14.8447
  44   2.0000      -0.542379       -14.7589
  45   2.0000      -0.538206       -14.6453
  46   2.0000      -0.520515       -14.1639
  47   2.0000      -0.514543       -14.0014
  48   2.0000      -0.499707       -13.5977
  49   2.0000      -0.495214       -13.4755
  50   2.0000      -0.492928       -13.4133
  51   2.0000      -0.473672       -12.8893
  52   2.0000      -0.471469       -12.8293
  53   2.0000      -0.465171       -12.6579
  54   2.0000      -0.459524       -12.5043
  55   2.0000      -0.449215       -12.2238
  56   2.0000      -0.442760       -12.0481
  57   2.0000      -0.436754       -11.8847
  58   2.0000      -0.428697       -11.6654
  59   2.0000      -0.425565       -11.5802
  60   2.0000      -0.418703       -11.3935
  61   2.0000      -0.414841       -11.2884
  62   2.0000      -0.410881       -11.1806
  63   2.0000      -0.349707        -9.5160
  64   2.0000      -0.331511        -9.0209
  65   2.0000      -0.324300        -8.8246
  66   2.0000      -0.290484        -7.9045
  67   0.0000       0.023563         0.6412
  68   0.0000       0.063095         1.7169
  69   0.0000       0.101461         2.7609
  70   0.0000       0.121848         3.3157
  71   0.0000       0.126201         3.4341

MULLIKEN ATOMIC CHARGES
-----------------------
   0 S :    0.084960
   1 C :   -0.069305
   2 C :   -0.134907
   3 C :    0.049010
   4 C :   -0.159513
   5 H :    0.013329
   6 C :    0.091947
   7 H :    0.035727
   8 H :    0.010238
   9 C :   -0.096254
  10 H :    0.040457
  11 H :    0.034369
  12 C :   -0.048052
  13 H :    0.028887
  14 H :    0.041401
  15 H :    0.040765
  16 S :    0.118729
  17 C :   -0.092568
  18 C :   -0.036670
  19 C :   -0.014366
  20 C :   -0.158576
  21 H :    0.009343
  22 C :    0.021552
  23 H :    0.035787
  24 H :    0.030172
  25 C :   -0.061738
  26 H :    0.023565
  27 H :    0.029012
  28 C :   -0.039248
  29 H :    0.030435
  30 H :    0.026999
  31 H :    0.036308
  32 H :    0.029868
  33 H :    0.048339
Sum of atomic charges:   -0.0000000

LOEWDIN ATOMIC CHARGES
----------------------
   0 S :    0.361181
   1 C :   -0.187634
   2 C :   -0.053923
   3 C :   -0.051906
   4 C :   -0.167148
   5 H :    0.027908
   6 C :   -0.037077
   7 H :    0.037100
   8 H :    0.027636
   9 C :   -0.039432
  10 H :    0.028771
  11 H :    0.025162
  12 C :   -0.063934
  13 H :    0.022431
  14 H :    0.029454
  15 H :    0.027343
  16 S :    0.422019
  17 C :   -0.186551
  18 C :   -0.066615
  19 C :   -0.056175
  20 C :   -0.209185
  21 H :    0.025804
  22 C :   -0.042105
  23 H :    0.030233
  24 H :    0.033876
  25 C :   -0.032138
  26 H :    0.017723
  27 H :    0.024002
  28 C :   -0.064271
  29 H :    0.031201
  30 H :    0.025651
  31 H :    0.020082
  32 H :    0.014203
  33 H :    0.026317

  Mayer bond orders larger than 0.100000
B(  0-S ,  1-C ) :   1.1157 B(  0-S ,  4-C ) :   1.1211 B(  1-C ,  2-C ) :   1.6583
B(  1-C , 32-H ) :   0.9633 B(  2-C ,  3-C ) :   1.1670 B(  2-C ,  6-C ) :   1.0424
B(  3-C ,  4-C ) :   1.6057 B(  3-C ,  5-H ) :   0.9945 B(  4-C , 20-C ) :   1.0561
B(  6-C ,  7-H ) :   0.9324 B(  6-C ,  8-H ) :   0.9336 B(  6-C ,  9-C ) :   1.0571
B(  9-C , 10-H ) :   0.9552 B(  9-C , 11-H ) :   0.9587 B(  9-C , 12-C ) :   1.0821
B( 12-C , 13-H ) :   0.9745 B( 12-C , 14-H ) :   0.9730 B( 12-C , 15-H ) :   0.9739
B( 16-S , 17-C ) :   1.1460 B( 16-S , 20-C ) :   1.1591 B( 17-C , 18-C ) :   1.6339
B( 17-C , 33-H ) :   0.9684 B( 18-C , 19-C ) :   1.2128 B( 18-C , 21-H ) :   0.9952
B( 19-C , 20-C ) :   1.5798 B( 19-C , 22-C ) :   1.0356 B( 22-C , 23-H ) :   0.9373
B( 22-C , 24-H ) :   0.9371 B( 22-C , 25-C ) :   1.0745 B( 25-C , 26-H ) :   0.9536
B( 25-C , 27-H ) :   0.9529 B( 25-C , 28-C ) :   1.0788 B( 28-C , 29-H ) :   0.9730
B( 28-C , 30-H ) :   0.9730 B( 28-C , 31-H ) :   0.9789

Dispersion correction           -0.014410150
FINAL SINGLE POINT ENERGY     -1339.866820292771

DIPOLE MOMENT
-------------
                                X             Y             Z
Electronic contribution:    -13.21065     -22.10961       5.77042
Nuclear contribution   :     13.68407      22.35579      -5.96885
                        -----------------------------------------
Total Dipole Moment    :      0.47343       0.24618      -0.19843
                        -----------------------------------------
Magnitude (a.u.)       :      0.56931
Magnitude (Debye)      :      1.44707

Rotational constants in cm-1:     0.019569     0.008450     0.006787
Rotational constants in MHz :   586.659387   253.312121   203.454847

                             ****ORCA TERMINATED NORMALLY****
TOTAL RUN TIME: 0 days 0 hours 0 minutes 30 seconds 44 msec
