                         Program Version 4.2.1 -  RELEASE  -
|  1> ! wB97X-D3 SP def2-SVP
|  2> %pal
|  3> nprocs 16
|  4> end
|  5>
|  6> * xyz 0 1
|  7> S 	 16.1474 	 29.4202 	 64.7344
|  8> C 	 16.6837 	 30.6125 	 63.6137
|  9> C 	 17.4621 	 31.5621 	 64.2362
| 10> C 	 17.7448 	 31.253 	 65.5888
| 11> C 	 17.0436 	 30.1638 	 66.0551
| 12> H 	 18.2907 	 31.8739 	 66.3292
| 13> C 	 18.2699 	 32.7237 	 63.5345
| 14> H 	 18.3682 	 32.4978 	 62.5358
| 15> H 	 19.2622 	 32.64 	 63.973
| 16> C 	 17.6619 	 34.0973 	 63.8362
| 17> H 	 16.5846 	 34.0644 	 63.73
| 18> H 	 17.75 	 34.235 	 64.9009
| 19> C 	 18.2359 	 35.1978 	 63.0851
| 20> H 	 18.1285 	 36.1698 	 63.5739
| 21> H 	 19.3327 	 35.0536 	 62.9713
| 22> H 	 17.7981 	 35.2085 	 62.0526
| 23> S 	 15.4692 	 29.8736 	 68.2091
| 24> C 	 16.0698 	 29.1431 	 69.6184
| 25> C 	 17.4058 	 28.9337 	 69.581
| 26> C 	 17.9756 	 29.3308 	 68.2814
| 27> C 	 16.9712 	 29.6219 	 67.4041
| 28> H 	 18.0054 	 28.5909 	 70.387
| 29> C 	 19.4944 	 29.0493 	 67.9888
| 30> H 	 19.7172 	 29.2495 	 67.0052
| 31> H 	 19.5513 	 27.9563 	 68.0924
| 32> C 	 20.4872 	 29.7766 	 68.9226
| 33> H 	 21.4367 	 29.3135 	 68.7055
| 34> H 	 20.2716 	 29.7182 	 69.9731
| 35> C 	 20.6089 	 31.2547 	 68.565
| 36> H 	 20.8823 	 31.4755 	 67.5501
| 37> H 	 21.4489 	 31.5734 	 69.1572
| 38> H 	 19.7687 	 31.8858 	 68.7788
| 39> H 	 16.3365 	 30.5127 	 62.5653
| 40> H 	 15.4772 	 29.044 	 70.5205
| 41> *
| 42>
| 43>                          ****END OF INPUT****

CARTESIAN COORDINATES (ANGSTROEM)
---------------------------------
  S     16.147400   29.420200   64.734400
  C     16.683700   30.612500   63.613700
  C     17.462100   31.562100   64.236200
  C     17.744800   31.253000   65.588800
  C     17.043600   30.163800   66.055100
  H     18.290700   31.873900   66.329200
  C     18.269900   32.723700   63.534500
  H     18.368200   32.497800   62.535800
  H     19.262200   32.640000   63.973000
  C     17.661900   34.097300   63.836200
  H     16.584600   34.064400   63.730000
  H     17.750000   34.235000   64.900900
  C     18.235900   35.197800   63.085100
  H     18.128500   36.169800   63.573900
  H     19.332700   35.053600   62.971300
  H     17.798100   35.208500   62.052600
  S     15.469200   29.873600   68.209100
  C     16.069800   29.143100   69.618400
  C     17.405800   28.933700   69.581000
  C     17.975600   29.330800   68.281400
  C     16.971200   29.621900   67.404100
  H     18.005400   28.590900   70.387000
  C     19.494400   29.049300   67.988800
  H     19.717200   29.249500   67.005200
  H     19.551300   27.956300   68.092400
  C     20.487200   29.776600   68.922600
  H     21.436700   29.313500   68.705500
  H     20.271600   29.718200   69.973100
  C     20.608900   31.254700   68.565000
  H     20.882300   31.475500   67.550100
  H     21.448900   31.573400   69.157200
  H     19.768700   31.885800   68.778800
  H     16.336500   30.512700   62.565300
  H     15.477200   29.044000   70.520500

 Total Charge           Charge          ....    0
 Multiplicity           Mult            ....    1
 Number of Electrons    NEL             ....  134
 Basis Dimension        Dim             ....  322

ORBITAL ENERGIES
----------------

  NO   OCC          E(Eh)            E(eV)
   0   2.0000     -88.960719     -2420.7442
   1   2.0000     -88.959191     -2420.7027
   2   2.0000     -10.324039      -280.9314
   3   2.0000     -10.317168      -280.7444
   4   2.0000     -10.314106      -280.6611
   5   2.0000     -10.309557      -280.5373
   6   2.0000     -10.303610      -280.3755
   7   2.0000     -10.300527      -280.2916
   8   2.0000     -10.292808      -280.0815
   9   2.0000     -10.289240      -279.9845
  10   2.0000     -10.288888      -279.9749
  11   2.0000     -10.287760      -279.9442
  12   2.0000     -10.286737      -279.9163
  13   2.0000     -10.277338      -279.6606
  14   2.0000     -10.275297      -279.6050
  15   2.0000     -10.271591      -279.5042
  16   2.0000      -8.076197      -219.7645
  17   2.0000      -8.076000      -219.7591
  18   2.0000      -6.034555      -164.2086
  19   2.0000      -6.034448      -164.2057
  20   2.0000      -6.030538      -164.0993
  21   2.0000      -6.030382      -164.0950
  22   2.0000      -6.027145      -164.0070
  23   2.0000      -6.026526      -163.9901
  24   2.0000      -1.011716       -27.5302
  25   2.0000      -0.988451       -26.8971
  26   2.0000      -0.914470       -24.8840
  27   2.0000      -0.909561       -24.7504
  28   2.0000      -0.872223       -23.7344
  29   2.0000      -0.851764       -23.1777
  30   2.0000      -0.847288       -23.0559
  31   2.0000      -0.813639       -22.1402
  32   2.0000      -0.785594       -21.3771
  33   2.0000      -0.772381       -21.0175
  34   2.0000      -0.706826       -19.2337
  35   2.0000      -0.698487       -19.0068
  36   2.0000      -0.689791       -18.7702
  37   2.0000      -0.660139       -17.9633
  38   2.0000      -0.644768       -17.5450
  39   2.0000      -0.618993       -16.8437
  40   2.0000      -0.602591       -16.3973
  41   2.0000      -0.567228       -15.4350
  42   2.0000      -0.558824       -15.2064
  43   2.0000      -0.551003       -14.9936
  44   2.0000      -0.545359       -14.8400
  45   2.0000      -0.526943       -14.3388
  46   2.0000      -0.518792       -14.1170
  47   2.0000      -0.512274       -13.9397
  48   2.0000      -0.509608       -13.8671
  49   2.0000      -0.498585       -13.5672
  50   2.0000      -0.494714       -13.4619
  51   2.0000      -0.480335       -13.0706
  52   2.0000      -0.471460       -12.8291
  53   2.0000      -0.464952       -12.6520
  54   2.0000      -0.460485       -12.5304
  55   2.0000      -0.449268       -12.2252
  56   2.0000      -0.446806       -12.1582
  57   2.0000      -0.436457       -11.8766
  58   2.0000      -0.432407       -11.7664
  59   2.0000      -0.430589       -11.7169
  60   2.0000      -0.416427       -11.3316
  61   2.0000      -0.414334       -11.2746
  62   2.0000      -0.409412       -11.1407
  63   2.0000      -0.344090        -9.3632
  64   2.0000      -0.330417        -8.9911
  65   2.0000      -0.323704        -8.8084
  66   2.0000      -0.300288        -8.1712
  67   0.0000       0.042478         1.1559
  68   0.0000       0.072160         1.9636
  69   0.0000       0.114127         3.1055
  70   0.0000       0.119857         3.2615
  71   0.0000       0.132011         3.5922

MULLIKEN ATOMIC CHARGES
-----------------------
   0 S :    0.104579
   1 C :   -0.152301
   2 C :   -0.088517
   3 C :    0.029755
   4 C :   -0.184105
   5 H :    0.026356
   6 C :    0.093868
   7 H :   -0.001681
   8 H :    0.023965
   9 C :   -0.063375
  10 H :    0.025034
  11 H :    0.011689
  12 C :   -0.032836
  13 H :    0.037162
  14 H :    0.023809
  15 H :    0.039251
  16 S :    0.113726
  17 C :   -0.067810
  18 C :   -0.025915
  19 C :   -0.052154
  20 C :   -0.154786
  21 H :    0.005023
  22 C :    0.088777
  23 H :   -0.001590
  24 H :    0.041447
  25 C :   -0.057355
  26 H :    0.027880
  27 H :    0.031823
  28 C :   -0.048150
  29 H :    0.019339
  30 H :    0.024227
  31 H :    0.040448
  32 H :    0.067781
  33 H :    0.054637
Sum of atomic charges:    0.0000000

LOEWDIN ATOMIC CHARGES
----------------------
   0 S :    0.409978
   1 C :   -0.208953
   2 C :   -0.065250
   3 C :   -0.069522
   4 C :   -0.195524
   5 H :    0.038367
   6 C :   -0.012537
   7 H :    0.013070
   8 H :    0.030904
   9 C :   -0.051083
  10 H :    0.024902
  11 H :    0.021543
  12 C :   -0.069269
  13 H :    0.028826
  14 H :    0.026713
  15 H :    0.031914
  16 S :    0.431278
  17 C :   -0.194477
  18 C :   -0.069490
  19 C :   -0.048452
  20 C :   -0.218500
  21 H :    0.023833
  22 C :   -0.019188
  23 H :    0.015561
  24 H :    0.036604
  25 C :   -0.031476
  26 H :    0.027130
  27 H :    0.022591
  28 C :   -0.063012
  29 H :    0.019847
  30 H :    0.027119
  31 H :    0.022388
  32 H :    0.034967
  33 H :    0.029199

  Mayer bond orders larger than 0.100000
B(  0-S ,  1-C ) :   1.1528 B(  0-S ,  4-C ) :   1.1625 B(  1-C ,  2-C ) :   1.5980
B(  1-C ,  4-C ) :   0.1000 B(  1-C , 32-H ) :   0.9696 B(  2-C ,  3-C ) :   1.2496
B(  2-C ,  6-C ) :   1.0074 B(  3-C ,  4-C ) :   1.5942 B(  3-C ,  5-H ) :   0.9842
B(  4-C , 20-C ) :   0.9944 B(  6-C ,  7-H ) :   0.9513 B(  6-C ,  8-H ) :   0.9406
B(  6-C ,  9-C ) :   1.0548 B(  9-C , 10-H ) :   0.9553 B(  9-C , 11-H ) :   0.9499
B(  9-C , 12-C ) :   1.0975 B( 12-C , 13-H ) :   0.9708 B( 12-C , 14-H ) :   0.9682
B( 12-C , 15-H ) :   0.9717 B( 16-S , 17-C ) :   1.1552 B( 16-S , 20-C ) :   1.1534
B( 17-C , 18-C ) :   1.6250 B( 17-C , 33-H ) :   0.9670 B( 18-C , 19-C ) :   1.2051
B( 18-C , 21-H ) :   0.9972 B( 19-C , 20-C ) :   1.6346 B( 19-C , 22-C ) :   1.0255
B( 22-C , 23-H ) :   0.9392 B( 22-C , 24-H ) :   0.9455 B( 22-C , 25-C ) :   1.0674
B( 25-C , 26-H ) :   0.9535 B( 25-C , 27-H ) :   0.9611 B( 25-C , 28-C ) :   1.0783
B( 28-C , 29-H ) :   0.9733 B( 28-C , 30-H ) :   0.9709 B( 28-C , 31-H ) :   0.9757

Dispersion correction           -0.014363410
FINAL SINGLE POINT ENERGY     -1339.878152765216

DIPOLE MOMENT
-------------
                                X             Y             Z
Electronic contribution:    -21.40875     -18.01570       3.12503
Nuclear contribution   :     22.02228      18.31235      -2.97465
                        -----------------------------------------
Total Dipole Moment    :      0.61354       0.29666       0.15038
                        -----------------------------------------
Magnitude (a.u.)       :      0.69789
Magnitude (Debye)      :      1.77389

Rotational constants in cm-1:     0.018255     0.008548     0.006885
Rotational constants in MHz :   547.277196   256.257784   206.403529

                             ****ORCA TERMINATED NORMALLY****
TOTAL RUN TIME: 0 days 0 hours 0 minutes 34 seconds 528 msec
