                         Program Version 4.2.1 -  RELEASE  -
|  1> ! wB97X-D3 SP def2-SVP
|  2> %pal
|  3> nprocs 16
|  4> end
|  5>
|  6> * xyz 0 1
|  7> S 	 -64.9841 	 50.3346 	 125.276
|  8> C 	 -66.354 	 50.4102 	 126.368
|  9> C 	 -66.4131 	 51.602 	 127.092
| 10> C 	 -65.2781 	 52.4257 	 126.769
| 11> C 	 -64.3858 	 51.8873 	 125.875
| 12> H 	 -65.0424 	 53.3451 	 127.197
| 13> C 	 -67.2997 	 51.8797 	 128.214
| 14> H 	 -68.2287 	 51.4192 	 128.095
| 15> H 	 -67.5166 	 52.9554 	 128.166
| 16> C 	 -66.721 	 51.7043 	 129.668
| 17> H 	 -65.8565 	 52.3493 	 129.823
| 18> H 	 -67.3976 	 51.845 	 130.465
| 19> C 	 -66.1188 	 50.3401 	 129.821
| 20> H 	 -66.4834 	 49.6094 	 129.096
| 21> H 	 -65.1176 	 50.4542 	 129.526
| 22> H 	 -66.2275 	 49.8707 	 130.766
| 23> S 	 -61.6781 	 51.5066 	 125.69
| 24> C 	 -60.6203 	 52.6784 	 124.979
| 25> C 	 -61.3388 	 53.8162 	 124.6
| 26> C 	 -62.7817 	 53.6654 	 124.814
| 27> C 	 -63.1096 	 52.4662 	 125.493
| 28> H 	 -60.7737 	 54.6298 	 124.21
| 29> C 	 -63.7853 	 54.7128 	 124.357
| 30> H 	 -63.8445 	 55.3142 	 125.237
| 31> H 	 -64.7226 	 54.261 	 124.187
| 32> C 	 -63.4078 	 55.404 	 123.046
| 33> H 	 -63.1823 	 54.7066 	 122.227
| 34> H 	 -62.405 	 55.8531 	 123.004
| 35> C 	 -64.509 	 56.4154 	 122.745
| 36> H 	 -64.1751 	 57.0567 	 121.971
| 37> H 	 -64.8777 	 56.9928 	 123.567
| 38> H 	 -65.3333 	 55.8828 	 122.262
| 39> H 	 -67.2204 	 49.7401 	 126.426
| 40> H 	 -59.586 	 52.6758 	 124.954
| 41> *
| 42>
| 43>                          ****END OF INPUT****

CARTESIAN COORDINATES (ANGSTROEM)
---------------------------------
  S    -64.984100   50.334600  125.276000
  C    -66.354000   50.410200  126.368000
  C    -66.413100   51.602000  127.092000
  C    -65.278100   52.425700  126.769000
  C    -64.385800   51.887300  125.875000
  H    -65.042400   53.345100  127.197000
  C    -67.299700   51.879700  128.214000
  H    -68.228700   51.419200  128.095000
  H    -67.516600   52.955400  128.166000
  C    -66.721000   51.704300  129.668000
  H    -65.856500   52.349300  129.823000
  H    -67.397600   51.845000  130.465000
  C    -66.118800   50.340100  129.821000
  H    -66.483400   49.609400  129.096000
  H    -65.117600   50.454200  129.526000
  H    -66.227500   49.870700  130.766000
  S    -61.678100   51.506600  125.690000
  C    -60.620300   52.678400  124.979000
  C    -61.338800   53.816200  124.600000
  C    -62.781700   53.665400  124.814000
  C    -63.109600   52.466200  125.493000
  H    -60.773700   54.629800  124.210000
  C    -63.785300   54.712800  124.357000
  H    -63.844500   55.314200  125.237000
  H    -64.722600   54.261000  124.187000
  C    -63.407800   55.404000  123.046000
  H    -63.182300   54.706600  122.227000
  H    -62.405000   55.853100  123.004000
  C    -64.509000   56.415400  122.745000
  H    -64.175100   57.056700  121.971000
  H    -64.877700   56.992800  123.567000
  H    -65.333300   55.882800  122.262000
  H    -67.220400   49.740100  126.426000
  H    -59.586000   52.675800  124.954000

 Total Charge           Charge          ....    0
 Multiplicity           Mult            ....    1
 Number of Electrons    NEL             ....  134
 Basis Dimension        Dim             ....  322

ORBITAL ENERGIES
----------------

  NO   OCC          E(Eh)            E(eV)
   0   2.0000     -88.969037     -2420.9706
   1   2.0000     -88.963725     -2420.8260
   2   2.0000     -10.330107      -281.0965
   3   2.0000     -10.325568      -280.9730
   4   2.0000     -10.316976      -280.7392
   5   2.0000     -10.313115      -280.6341
   6   2.0000     -10.309142      -280.5260
   7   2.0000     -10.299666      -280.2682
   8   2.0000     -10.295678      -280.1597
   9   2.0000     -10.289949      -280.0038
  10   2.0000     -10.287340      -279.9328
  11   2.0000     -10.286917      -279.9212
  12   2.0000     -10.284932      -279.8672
  13   2.0000     -10.281490      -279.7736
  14   2.0000     -10.271857      -279.5114
  15   2.0000     -10.257276      -279.1147
  16   2.0000      -8.083138      -219.9534
  17   2.0000      -8.078856      -219.8369
  18   2.0000      -6.041724      -164.4037
  19   2.0000      -6.037696      -164.2941
  20   2.0000      -6.037395      -164.2859
  21   2.0000      -6.033879      -164.1902
  22   2.0000      -6.033082      -164.1685
  23   2.0000      -6.029789      -164.0789
  24   2.0000      -1.004377       -27.3305
  25   2.0000      -0.981954       -26.7203
  26   2.0000      -0.916887       -24.9498
  27   2.0000      -0.912361       -24.8266
  28   2.0000      -0.870554       -23.6890
  29   2.0000      -0.852679       -23.2026
  30   2.0000      -0.846133       -23.0245
  31   2.0000      -0.818750       -22.2793
  32   2.0000      -0.783427       -21.3181
  33   2.0000      -0.771188       -20.9851
  34   2.0000      -0.713590       -19.4178
  35   2.0000      -0.707362       -19.2483
  36   2.0000      -0.696600       -18.9555
  37   2.0000      -0.654743       -17.8165
  38   2.0000      -0.642471       -17.4825
  39   2.0000      -0.624847       -17.0030
  40   2.0000      -0.597621       -16.2621
  41   2.0000      -0.573642       -15.6096
  42   2.0000      -0.562811       -15.3149
  43   2.0000      -0.557451       -15.1690
  44   2.0000      -0.544564       -14.8183
  45   2.0000      -0.534148       -14.5349
  46   2.0000      -0.520789       -14.1714
  47   2.0000      -0.514738       -14.0067
  48   2.0000      -0.505013       -13.7421
  49   2.0000      -0.502819       -13.6824
  50   2.0000      -0.491945       -13.3865
  51   2.0000      -0.478139       -13.0108
  52   2.0000      -0.474676       -12.9166
  53   2.0000      -0.462911       -12.5964
  54   2.0000      -0.458425       -12.4744
  55   2.0000      -0.450443       -12.2572
  56   2.0000      -0.444462       -12.0944
  57   2.0000      -0.443807       -12.0766
  58   2.0000      -0.433853       -11.8057
  59   2.0000      -0.420664       -11.4468
  60   2.0000      -0.415189       -11.2979
  61   2.0000      -0.412007       -11.2113
  62   2.0000      -0.406668       -11.0660
  63   2.0000      -0.345368        -9.3979
  64   2.0000      -0.328341        -8.9346
  65   2.0000      -0.325461        -8.8562
  66   2.0000      -0.294440        -8.0121
  67   0.0000       0.034130         0.9287
  68   0.0000       0.064459         1.7540
  69   0.0000       0.116028         3.1573
  70   0.0000       0.124405         3.3852
  71   0.0000       0.130207         3.5431

MULLIKEN ATOMIC CHARGES
-----------------------
   0 S :    0.126066
   1 C :   -0.111566
   2 C :   -0.104434
   3 C :    0.051319
   4 C :   -0.157571
   5 H :   -0.017263
   6 C :    0.089996
   7 H :    0.009292
   8 H :    0.022232
   9 C :   -0.049246
  10 H :    0.027090
  11 H :    0.024813
  12 C :   -0.031573
  13 H :    0.011118
  14 H :    0.022155
  15 H :    0.027130
  16 S :    0.110338
  17 C :   -0.061834
  18 C :   -0.049076
  19 C :   -0.060557
  20 C :   -0.166958
  21 H :    0.014659
  22 C :    0.121198
  23 H :    0.037494
  24 H :    0.020632
  25 C :   -0.117844
  26 H :    0.029577
  27 H :    0.020182
  28 C :   -0.001906
  29 H :    0.016141
  30 H :    0.034065
  31 H :    0.029967
  32 H :    0.052563
  33 H :    0.031804
Sum of atomic charges:   -0.0000000

LOEWDIN ATOMIC CHARGES
----------------------
   0 S :    0.399781
   1 C :   -0.197227
   2 C :   -0.065789
   3 C :   -0.047631
   4 C :   -0.191475
   5 H :    0.019982
   6 C :   -0.029382
   7 H :    0.022439
   8 H :    0.035756
   9 C :   -0.030126
  10 H :    0.026136
  11 H :    0.019366
  12 C :   -0.066108
  13 H :    0.022133
  14 H :    0.023643
  15 H :    0.020221
  16 S :    0.423007
  17 C :   -0.181820
  18 C :   -0.072555
  19 C :   -0.044311
  20 C :   -0.219238
  21 H :    0.026289
  22 C :   -0.025795
  23 H :    0.033800
  24 H :    0.028187
  25 C :   -0.046532
  26 H :    0.030961
  27 H :    0.019849
  28 C :   -0.059210
  29 H :    0.021525
  30 H :    0.024634
  31 H :    0.029782
  32 H :    0.032484
  33 H :    0.017224

  Mayer bond orders larger than 0.100000
B(  0-S ,  1-C ) :   1.1366 B(  0-S ,  4-C ) :   1.1311 B(  1-C ,  2-C ) :   1.6110
B(  1-C , 32-H ) :   0.9548 B(  2-C ,  3-C ) :   1.2156 B(  2-C ,  6-C ) :   1.0638
B(  3-C ,  4-C ) :   1.5907 B(  3-C ,  5-H ) :   1.0060 B(  4-C , 20-C ) :   1.0503
B(  6-C ,  7-H ) :   0.9344 B(  6-C ,  8-H ) :   0.9284 B(  6-C ,  9-C ) :   1.0643
B(  9-C , 10-H ) :   0.9641 B(  9-C , 11-H ) :   0.9632 B(  9-C , 12-C ) :   1.0649
B( 12-C , 13-H ) :   0.9739 B( 12-C , 14-H ) :   0.9744 B( 12-C , 15-H ) :   0.9752
B( 16-S , 17-C ) :   1.1706 B( 16-S , 20-C ) :   1.1423 B( 17-C , 18-C ) :   1.6024
B( 17-C , 33-H ) :   0.9727 B( 18-C , 19-C ) :   1.2352 B( 18-C , 21-H ) :   0.9935
B( 19-C , 20-C ) :   1.5732 B( 19-C , 22-C ) :   1.0278 B( 22-C , 23-H ) :   0.9300
B( 22-C , 24-H ) :   0.9347 B( 22-C , 25-C ) :   1.0609 B( 25-C , 26-H ) :   0.9544
B( 25-C , 27-H ) :   0.9524 B( 25-C , 28-C ) :   1.0833 B( 28-C , 29-H ) :   0.9699
B( 28-C , 30-H ) :   0.9752 B( 28-C , 31-H ) :   0.9723

Dispersion correction           -0.014381012
FINAL SINGLE POINT ENERGY     -1339.860486811507

DIPOLE MOMENT
-------------
                                X             Y             Z
Electronic contribution:     11.70237     -14.90501      -5.05798
Nuclear contribution   :    -11.89769      15.49177       5.15323
                        -----------------------------------------
Total Dipole Moment    :     -0.19532       0.58676       0.09525
                        -----------------------------------------
Magnitude (a.u.)       :      0.62571
Magnitude (Debye)      :      1.59043

Rotational constants in cm-1:     0.019549     0.008061     0.006818
Rotational constants in MHz :   586.078790   241.656726   204.389568

                             ****ORCA TERMINATED NORMALLY****
TOTAL RUN TIME: 0 days 0 hours 0 minutes 33 seconds 625 msec
