                         Program Version 4.2.1 -  RELEASE  -
|  1> ! wB97X-D3 SP def2-SVP
|  2> %pal
|  3> nprocs 16
|  4> end
|  5>
|  6> * xyz 0 1
|  7> S 	 -45.7546 	 52.0963 	 106.024
|  8> C 	 -45.2752 	 51.4477 	 104.461
|  9> C 	 -45.4413 	 52.3447 	 103.428
| 10> C 	 -45.7807 	 53.6187 	 103.95
| 11> C 	 -45.8701 	 53.7122 	 105.341
| 12> H 	 -45.9387 	 54.502 	 103.405
| 13> C 	 -45.1556 	 52.0323 	 101.967
| 14> H 	 -45.7559 	 51.1509 	 101.639
| 15> H 	 -44.1037 	 51.6463 	 102.027
| 16> C 	 -45.2622 	 53.155 	 100.971
| 17> H 	 -44.8598 	 54.0869 	 101.313
| 18> H 	 -44.6888 	 52.9575 	 100.07
| 19> C 	 -46.7383 	 53.2717 	 100.479
| 20> H 	 -46.9879 	 54.0706 	 99.7551
| 21> H 	 -47.1163 	 52.3121 	 100.11
| 22> H 	 -47.3362 	 53.4003 	 101.31
| 23> S 	 -45.0936 	 54.7555 	 107.623
| 24> C 	 -45.4075 	 56.4125 	 108.027
| 25> C 	 -46.1478 	 57.0305 	 107.031
| 26> C 	 -46.6298 	 56.101 	 106.016
| 27> C 	 -46.0614 	 54.8093 	 106.185
| 28> H 	 -46.4647 	 58.077 	 107.136
| 29> C 	 -47.569 	 56.5787 	 104.886
| 30> H 	 -47.4835 	 55.8252 	 104.115
| 31> H 	 -47.0878 	 57.5339 	 104.49
| 32> C 	 -49.0665 	 56.7708 	 105.149
| 33> H 	 -49.626 	 55.8817 	 105.564
| 34> H 	 -49.3479 	 57.0249 	 104.143
| 35> C 	 -49.2455 	 58.0597 	 106.092
| 36> H 	 -50.2808 	 58.0585 	 106.365
| 37> H 	 -48.9398 	 58.9609 	 105.694
| 38> H 	 -48.7031 	 57.9319 	 107.046
| 39> H 	 -44.8727 	 50.5205 	 104.314
| 40> H 	 -44.9529 	 56.8657 	 108.882
| 41> *
| 42>
| 43>                          ****END OF INPUT****

CARTESIAN COORDINATES (ANGSTROEM)
---------------------------------
  S    -45.754600   52.096300  106.024000
  C    -45.275200   51.447700  104.461000
  C    -45.441300   52.344700  103.428000
  C    -45.780700   53.618700  103.950000
  C    -45.870100   53.712200  105.341000
  H    -45.938700   54.502000  103.405000
  C    -45.155600   52.032300  101.967000
  H    -45.755900   51.150900  101.639000
  H    -44.103700   51.646300  102.027000
  C    -45.262200   53.155000  100.971000
  H    -44.859800   54.086900  101.313000
  H    -44.688800   52.957500  100.070000
  C    -46.738300   53.271700  100.479000
  H    -46.987900   54.070600   99.755100
  H    -47.116300   52.312100  100.110000
  H    -47.336200   53.400300  101.310000
  S    -45.093600   54.755500  107.623000
  C    -45.407500   56.412500  108.027000
  C    -46.147800   57.030500  107.031000
  C    -46.629800   56.101000  106.016000
  C    -46.061400   54.809300  106.185000
  H    -46.464700   58.077000  107.136000
  C    -47.569000   56.578700  104.886000
  H    -47.483500   55.825200  104.115000
  H    -47.087800   57.533900  104.490000
  C    -49.066500   56.770800  105.149000
  H    -49.626000   55.881700  105.564000
  H    -49.347900   57.024900  104.143000
  C    -49.245500   58.059700  106.092000
  H    -50.280800   58.058500  106.365000
  H    -48.939800   58.960900  105.694000
  H    -48.703100   57.931900  107.046000
  H    -44.872700   50.520500  104.314000
  H    -44.952900   56.865700  108.882000

 Total Charge           Charge          ....    0
 Multiplicity           Mult            ....    1
 Number of Electrons    NEL             ....  134
 Basis Dimension        Dim             ....  322

ORBITAL ENERGIES
----------------

  NO   OCC          E(Eh)            E(eV)
   0   2.0000     -88.963568     -2420.8218
   1   2.0000     -88.962967     -2420.8054
   2   2.0000     -10.325798      -280.9793
   3   2.0000     -10.324594      -280.9465
   4   2.0000     -10.317192      -280.7451
   5   2.0000     -10.310284      -280.5571
   6   2.0000     -10.303225      -280.3650
   7   2.0000     -10.300687      -280.2959
   8   2.0000     -10.299492      -280.2634
   9   2.0000     -10.299204      -280.2556
  10   2.0000     -10.298109      -280.2258
  11   2.0000     -10.296293      -280.1764
  12   2.0000     -10.288633      -279.9679
  13   2.0000     -10.287930      -279.9488
  14   2.0000     -10.274874      -279.5935
  15   2.0000     -10.273813      -279.5647
  16   2.0000      -8.078603      -219.8300
  17   2.0000      -8.078117      -219.8167
  18   2.0000      -6.037049      -164.2764
  19   2.0000      -6.036668      -164.2661
  20   2.0000      -6.032808      -164.1610
  21   2.0000      -6.032726      -164.1588
  22   2.0000      -6.029511      -164.0713
  23   2.0000      -6.028781      -164.0515
  24   2.0000      -1.009281       -27.4639
  25   2.0000      -0.981188       -26.6995
  26   2.0000      -0.916346       -24.9350
  27   2.0000      -0.904627       -24.6161
  28   2.0000      -0.876329       -23.8461
  29   2.0000      -0.847092       -23.0506
  30   2.0000      -0.838001       -22.8032
  31   2.0000      -0.814916       -22.1750
  32   2.0000      -0.786155       -21.3924
  33   2.0000      -0.774326       -21.0705
  34   2.0000      -0.719547       -19.5799
  35   2.0000      -0.702918       -19.1274
  36   2.0000      -0.692912       -18.8551
  37   2.0000      -0.663642       -18.0586
  38   2.0000      -0.641538       -17.4571
  39   2.0000      -0.624495       -16.9934
  40   2.0000      -0.593123       -16.1397
  41   2.0000      -0.568904       -15.4807
  42   2.0000      -0.556335       -15.1386
  43   2.0000      -0.550296       -14.9743
  44   2.0000      -0.535226       -14.5642
  45   2.0000      -0.532018       -14.4769
  46   2.0000      -0.527210       -14.3461
  47   2.0000      -0.512701       -13.9513
  48   2.0000      -0.505029       -13.7425
  49   2.0000      -0.493048       -13.4165
  50   2.0000      -0.491094       -13.3633
  51   2.0000      -0.483408       -13.1542
  52   2.0000      -0.478247       -13.0138
  53   2.0000      -0.463926       -12.6241
  54   2.0000      -0.458105       -12.4657
  55   2.0000      -0.451935       -12.2978
  56   2.0000      -0.446903       -12.1608
  57   2.0000      -0.442998       -12.0546
  58   2.0000      -0.436976       -11.8907
  59   2.0000      -0.426102       -11.5948
  60   2.0000      -0.417678       -11.3656
  61   2.0000      -0.414527       -11.2798
  62   2.0000      -0.409688       -11.1482
  63   2.0000      -0.352254        -9.5853
  64   2.0000      -0.329954        -8.9785
  65   2.0000      -0.327164        -8.9026
  66   2.0000      -0.278833        -7.5874
  67   0.0000       0.017755         0.4831
  68   0.0000       0.077812         2.1174
  69   0.0000       0.106371         2.8945
  70   0.0000       0.112838         3.0705
  71   0.0000       0.140505         3.8233

MULLIKEN ATOMIC CHARGES
-----------------------
   0 S :    0.104432
   1 C :   -0.096061
   2 C :   -0.062004
   3 C :    0.013957
   4 C :   -0.136472
   5 H :   -0.012452
   6 C :    0.023166
   7 H :    0.043448
   8 H :    0.046267
   9 C :   -0.034622
  10 H :    0.026459
  11 H :    0.027538
  12 C :   -0.038526
  13 H :    0.043624
  14 H :    0.019717
  15 H :    0.003683
  16 S :    0.098136
  17 C :   -0.085238
  18 C :   -0.042992
  19 C :   -0.063643
  20 C :   -0.124348
  21 H :    0.032899
  22 C :    0.023264
  23 H :    0.010336
  24 H :    0.041708
  25 C :   -0.047842
  26 H :    0.058533
  27 H :    0.032646
  28 C :   -0.047493
  29 H :    0.029163
  30 H :    0.016553
  31 H :    0.036361
  32 H :    0.003502
  33 H :    0.056303
Sum of atomic charges:   -0.0000000

LOEWDIN ATOMIC CHARGES
----------------------
   0 S :    0.394768
   1 C :   -0.183209
   2 C :   -0.057031
   3 C :   -0.066703
   4 C :   -0.187600
   5 H :    0.017172
   6 C :   -0.036128
   7 H :    0.038637
   8 H :    0.043762
   9 C :   -0.039602
  10 H :    0.022081
  11 H :    0.027999
  12 C :   -0.063518
  13 H :    0.028953
  14 H :    0.026069
  15 H :    0.011365
  16 S :    0.424287
  17 C :   -0.186093
  18 C :   -0.075464
  19 C :   -0.053010
  20 C :   -0.211191
  21 H :    0.033396
  22 C :   -0.039413
  23 H :    0.022215
  24 H :    0.040642
  25 C :   -0.029373
  26 H :    0.037861
  27 H :    0.025795
  28 C :   -0.062309
  29 H :    0.023657
  30 H :    0.011685
  31 H :    0.028349
  32 H :    0.006438
  33 H :    0.025513

  Mayer bond orders larger than 0.100000
B(  0-S ,  1-C ) :   1.1327 B(  0-S ,  4-C ) :   1.1396 B(  1-C ,  2-C ) :   1.6088
B(  1-C ,  4-C ) :   0.1064 B(  1-C , 32-H ) :   0.9831 B(  2-C ,  3-C ) :   1.2573
B(  2-C ,  6-C ) :   0.9961 B(  3-C ,  4-C ) :   1.5551 B(  3-C ,  5-H ) :   0.9916
B(  4-C , 20-C ) :   1.0913 B(  6-C ,  7-H ) :   0.9419 B(  6-C ,  8-H ) :   0.9358
B(  6-C ,  9-C ) :   1.0877 B(  9-C , 10-H ) :   0.9507 B(  9-C , 11-H ) :   0.9526
B(  9-C , 12-C ) :   1.0649 B( 12-C , 13-H ) :   0.9761 B( 12-C , 14-H ) :   0.9714
B( 12-C , 15-H ) :   0.9774 B( 16-S , 17-C ) :   1.1657 B( 16-S , 20-C ) :   1.1443
B( 17-C , 18-C ) :   1.5817 B( 17-C , 33-H ) :   0.9737 B( 18-C , 19-C ) :   1.2555
B( 18-C , 21-H ) :   0.9817 B( 19-C , 20-C ) :   1.5514 B( 19-C , 22-C ) :   1.0291
B( 22-C , 23-H ) :   0.9329 B( 22-C , 24-H ) :   0.9398 B( 22-C , 25-C ) :   1.0671
B( 25-C , 26-H ) :   0.9565 B( 25-C , 27-H ) :   0.9530 B( 25-C , 28-C ) :   1.0716
B( 28-C , 29-H ) :   0.9752 B( 28-C , 30-H ) :   0.9782 B( 28-C , 31-H ) :   0.9731

Dispersion correction           -0.014114039
FINAL SINGLE POINT ENERGY     -1339.861349191370

DIPOLE MOMENT
-------------
                                X             Y             Z
Electronic contribution:     12.26879     -10.94136      22.25552
Nuclear contribution   :    -12.35625      11.33413     -22.79732
                        -----------------------------------------
Total Dipole Moment    :     -0.08745       0.39277      -0.54180
                        -----------------------------------------
Magnitude (a.u.)       :      0.67488
Magnitude (Debye)      :      1.71540

Rotational constants in cm-1:     0.017924     0.009170     0.006725
Rotational constants in MHz :   537.334157   274.902209   201.601419

                             ****ORCA TERMINATED NORMALLY****
TOTAL RUN TIME: 0 days 0 hours 0 minutes 30 seconds 642 msec
