                         Program Version 4.2.1 -  RELEASE  -
|  1> ! wB97X-D3 SP def2-SVP
|  2> %pal
|  3> nprocs 16
|  4> end
|  5>
|  6> * xyz 0 1
|  7> S 	 -39.5044 	 21.9164 	 80.6319
|  8> C 	 -39.5871 	 22.7983 	 82.1876
|  9> C 	 -40.2306 	 24.0087 	 82.0396
| 10> C 	 -40.5813 	 24.221 	 80.7045
| 11> C 	 -40.2848 	 23.2324 	 79.7913
| 12> H 	 -40.8593 	 25.1313 	 80.2299
| 13> C 	 -40.2165 	 25.0922 	 83.1202
| 14> H 	 -40.9803 	 24.8481 	 83.8192
| 15> H 	 -40.4306 	 26.0844 	 82.7306
| 16> C 	 -38.8761 	 25.2285 	 83.8952
| 17> H 	 -38.9615 	 24.278 	 84.4857
| 18> H 	 -38.0647 	 25.1426 	 83.2047
| 19> C 	 -38.7084 	 26.4306 	 84.8405
| 20> H 	 -39.6488 	 26.4548 	 85.3628
| 21> H 	 -37.7525 	 26.292 	 85.537
| 22> H 	 -38.4638 	 27.3266 	 84.3169
| 23> S 	 -39.1784 	 22.4935 	 77.5501
| 24> C 	 -40.0724 	 22.6387 	 76.0017
| 25> C 	 -41.2579 	 23.3609 	 76.2213
| 26> C 	 -41.5925 	 23.6703 	 77.6042
| 27> C 	 -40.5408 	 23.2325 	 78.4147
| 28> H 	 -41.8556 	 23.5138 	 75.3676
| 29> C 	 -42.9693 	 24.0798 	 78.0839
| 30> H 	 -43.0173 	 25.0662 	 77.6064
| 31> H 	 -42.8793 	 24.2324 	 79.1459
| 32> C 	 -44.2036 	 23.1829 	 77.8048
| 33> H 	 -44.3597 	 23.1645 	 76.7058
| 34> H 	 -45.1388 	 23.5949 	 78.304
| 35> C 	 -44.0553 	 21.7807 	 78.2694
| 36> H 	 -45.0271 	 21.3571 	 78.2323
| 37> H 	 -43.7484 	 21.7271 	 79.3038
| 38> H 	 -43.4445 	 21.2515 	 77.5931
| 39> H 	 -39.0124 	 22.4737 	 83.0135
| 40> H 	 -39.7023 	 22.2463 	 74.9722
| 41> *
| 42>
| 43>                          ****END OF INPUT****

CARTESIAN COORDINATES (ANGSTROEM)
---------------------------------
  S    -39.504400   21.916400   80.631900
  C    -39.587100   22.798300   82.187600
  C    -40.230600   24.008700   82.039600
  C    -40.581300   24.221000   80.704500
  C    -40.284800   23.232400   79.791300
  H    -40.859300   25.131300   80.229900
  C    -40.216500   25.092200   83.120200
  H    -40.980300   24.848100   83.819200
  H    -40.430600   26.084400   82.730600
  C    -38.876100   25.228500   83.895200
  H    -38.961500   24.278000   84.485700
  H    -38.064700   25.142600   83.204700
  C    -38.708400   26.430600   84.840500
  H    -39.648800   26.454800   85.362800
  H    -37.752500   26.292000   85.537000
  H    -38.463800   27.326600   84.316900
  S    -39.178400   22.493500   77.550100
  C    -40.072400   22.638700   76.001700
  C    -41.257900   23.360900   76.221300
  C    -41.592500   23.670300   77.604200
  C    -40.540800   23.232500   78.414700
  H    -41.855600   23.513800   75.367600
  C    -42.969300   24.079800   78.083900
  H    -43.017300   25.066200   77.606400
  H    -42.879300   24.232400   79.145900
  C    -44.203600   23.182900   77.804800
  H    -44.359700   23.164500   76.705800
  H    -45.138800   23.594900   78.304000
  C    -44.055300   21.780700   78.269400
  H    -45.027100   21.357100   78.232300
  H    -43.748400   21.727100   79.303800
  H    -43.444500   21.251500   77.593100
  H    -39.012400   22.473700   83.013500
  H    -39.702300   22.246300   74.972200

 Total Charge           Charge          ....    0
 Multiplicity           Mult            ....    1
 Number of Electrons    NEL             ....  134
 Basis Dimension        Dim             ....  322

ORBITAL ENERGIES
----------------

  NO   OCC          E(Eh)            E(eV)
   0   2.0000     -88.964692     -2420.8523
   1   2.0000     -88.964506     -2420.8473
   2   2.0000     -10.331184      -281.1258
   3   2.0000     -10.326867      -281.0083
   4   2.0000     -10.322291      -280.8838
   5   2.0000     -10.313056      -280.6325
   6   2.0000     -10.311666      -280.5947
   7   2.0000     -10.302707      -280.3509
   8   2.0000     -10.298785      -280.2442
   9   2.0000     -10.292428      -280.0712
  10   2.0000     -10.291671      -280.0506
  11   2.0000     -10.291331      -280.0413
  12   2.0000     -10.288807      -279.9727
  13   2.0000     -10.287684      -279.9421
  14   2.0000     -10.285814      -279.8912
  15   2.0000     -10.261710      -279.2353
  16   2.0000      -8.078763      -219.8343
  17   2.0000      -8.078626      -219.8306
  18   2.0000      -6.037319      -164.2838
  19   2.0000      -6.037289      -164.2830
  20   2.0000      -6.033296      -164.1743
  21   2.0000      -6.033253      -164.1732
  22   2.0000      -6.029526      -164.0718
  23   2.0000      -6.029222      -164.0635
  24   2.0000      -1.008341       -27.4384
  25   2.0000      -0.977194       -26.5908
  26   2.0000      -0.913605       -24.8604
  27   2.0000      -0.908956       -24.7339
  28   2.0000      -0.872077       -23.7304
  29   2.0000      -0.856111       -23.2960
  30   2.0000      -0.844212       -22.9722
  31   2.0000      -0.813745       -22.1431
  32   2.0000      -0.785323       -21.3697
  33   2.0000      -0.772794       -21.0288
  34   2.0000      -0.710168       -19.3247
  35   2.0000      -0.699389       -19.0313
  36   2.0000      -0.687132       -18.6978
  37   2.0000      -0.662389       -18.0245
  38   2.0000      -0.643224       -17.5030
  39   2.0000      -0.614897       -16.7322
  40   2.0000      -0.589390       -16.0381
  41   2.0000      -0.571051       -15.5391
  42   2.0000      -0.564445       -15.3593
  43   2.0000      -0.554915       -15.1000
  44   2.0000      -0.553903       -15.0725
  45   2.0000      -0.531737       -14.4693
  46   2.0000      -0.518067       -14.0973
  47   2.0000      -0.512985       -13.9590
  48   2.0000      -0.505503       -13.7554
  49   2.0000      -0.493341       -13.4245
  50   2.0000      -0.490224       -13.3397
  51   2.0000      -0.478060       -13.0087
  52   2.0000      -0.472637       -12.8611
  53   2.0000      -0.467615       -12.7245
  54   2.0000      -0.454746       -12.3743
  55   2.0000      -0.451124       -12.2757
  56   2.0000      -0.440728       -11.9928
  57   2.0000      -0.436199       -11.8696
  58   2.0000      -0.434184       -11.8148
  59   2.0000      -0.422822       -11.5056
  60   2.0000      -0.417958       -11.3732
  61   2.0000      -0.413762       -11.2590
  62   2.0000      -0.403379       -10.9765
  63   2.0000      -0.350761        -9.5447
  64   2.0000      -0.334021        -9.0892
  65   2.0000      -0.329637        -8.9699
  66   2.0000      -0.283779        -7.7220
  67   0.0000       0.017611         0.4792
  68   0.0000       0.073990         2.0134
  69   0.0000       0.100631         2.7383
  70   0.0000       0.120063         3.2671
  71   0.0000       0.135850         3.6967

MULLIKEN ATOMIC CHARGES
-----------------------
   0 S :    0.103354
   1 C :   -0.139128
   2 C :   -0.036868
   3 C :    0.008656
   4 C :   -0.148318
   5 H :    0.002016
   6 C :    0.088479
   7 H :    0.028872
   8 H :    0.016992
   9 C :   -0.131900
  10 H :    0.034771
  11 H :    0.035021
  12 C :   -0.047412
  13 H :    0.037449
  14 H :    0.053748
  15 H :    0.035008
  16 S :    0.083289
  17 C :   -0.125159
  18 C :   -0.038339
  19 C :   -0.046750
  20 C :   -0.154053
  21 H :    0.004618
  22 C :    0.089740
  23 H :    0.035814
  24 H :    0.013802
  25 C :   -0.095785
  26 H :    0.027808
  27 H :    0.041077
  28 C :    0.002393
  29 H :    0.018274
  30 H :    0.032058
  31 H :    0.032008
  32 H :    0.044463
  33 H :    0.094002
Sum of atomic charges:    0.0000000

LOEWDIN ATOMIC CHARGES
----------------------
   0 S :    0.390171
   1 C :   -0.176562
   2 C :   -0.059070
   3 C :   -0.068823
   4 C :   -0.201759
   5 H :    0.026243
   6 C :   -0.025763
   7 H :    0.028173
   8 H :    0.023903
   9 C :   -0.045002
  10 H :    0.025531
  11 H :    0.017624
  12 C :   -0.066967
  13 H :    0.025407
  14 H :    0.045239
  15 H :    0.020633
  16 S :    0.375180
  17 C :   -0.189593
  18 C :   -0.066502
  19 C :   -0.054527
  20 C :   -0.179639
  21 H :    0.021663
  22 C :   -0.034823
  23 H :    0.038025
  24 H :    0.026967
  25 C :   -0.041115
  26 H :    0.024124
  27 H :    0.033539
  28 C :   -0.057204
  29 H :    0.024503
  30 H :    0.027578
  31 H :    0.022789
  32 H :    0.018197
  33 H :    0.051859

  Mayer bond orders larger than 0.100000
B(  0-S ,  1-C ) :   1.1348 B(  0-S ,  4-C ) :   1.1347 B(  1-C ,  2-C ) :   1.5840
B(  1-C ,  4-C ) :   0.1045 B(  1-C , 32-H ) :   0.9751 B(  2-C ,  3-C ) :   1.2590
B(  2-C ,  6-C ) :   1.0148 B(  3-C ,  4-C ) :   1.5692 B(  3-C ,  5-H ) :   0.9953
B(  4-C , 20-C ) :   1.0948 B(  6-C ,  7-H ) :   0.9274 B(  6-C ,  8-H ) :   0.9536
B(  6-C ,  9-C ) :   1.0543 B(  9-C , 10-H ) :   0.9530 B(  9-C , 11-H ) :   0.9662
B(  9-C , 12-C ) :   1.0784 B( 12-C , 13-H ) :   0.9740 B( 12-C , 14-H ) :   0.9728
B( 12-C , 15-H ) :   0.9753 B( 16-S , 17-C ) :   1.1198 B( 16-S , 20-C ) :   1.1282
B( 17-C , 18-C ) :   1.6401 B( 17-C , 33-H ) :   0.9565 B( 18-C , 19-C ) :   1.1883
B( 18-C , 21-H ) :   0.9930 B( 19-C , 20-C ) :   1.5821 B( 19-C , 22-C ) :   1.0357
B( 22-C , 23-H ) :   0.9242 B( 22-C , 24-H ) :   0.9316 B( 22-C , 25-C ) :   1.0697
B( 25-C , 26-H ) :   0.9526 B( 25-C , 27-H ) :   0.9563 B( 25-C , 28-C ) :   1.0872
B( 28-C , 29-H ) :   0.9682 B( 28-C , 30-H ) :   0.9737 B( 28-C , 31-H ) :   0.9709

Dispersion correction           -0.014178240
FINAL SINGLE POINT ENERGY     -1339.855627365224

DIPOLE MOMENT
-------------
                                X             Y             Z
Electronic contribution:     12.21202     -11.79627     -13.38122
Nuclear contribution   :    -12.56199      12.19716      13.43852
                        -----------------------------------------
Total Dipole Moment    :     -0.34997       0.40089       0.05730
                        -----------------------------------------
Magnitude (a.u.)       :      0.53523
Magnitude (Debye)      :      1.36045

Rotational constants in cm-1:     0.022686     0.007363     0.006500
Rotational constants in MHz :   680.115811   220.750940   194.854567

                             ****ORCA TERMINATED NORMALLY****
TOTAL RUN TIME: 0 days 0 hours 0 minutes 28 seconds 499 msec
