                         Program Version 4.2.1 -  RELEASE  -
|  1> ! wB97X-D3 SP def2-SVP
|  2> %pal
|  3> nprocs 16
|  4> end
|  5>
|  6> * xyz 0 1
|  7> S 	 -38.0137 	 20.5705 	 75.4173
|  8> C 	 -39.6327 	 20.3004 	 74.7901
|  9> C 	 -40.4383 	 20.0132 	 75.9208
| 10> C 	 -39.6786 	 19.6381 	 77.0695
| 11> C 	 -38.3211 	 19.9527 	 77.0033
| 12> H 	 -39.9633 	 19.247 	 78.0942
| 13> C 	 -41.9195 	 20.0841 	 76.0535
| 14> H 	 -42.1833 	 20.4902 	 75.1016
| 15> H 	 -42.2068 	 20.8307 	 76.8027
| 16> C 	 -42.7026 	 18.7611 	 76.1876
| 17> H 	 -43.6889 	 18.9527 	 76.3743
| 18> H 	 -42.7525 	 18.352 	 75.2231
| 19> C 	 -42.2348 	 17.6485 	 77.0811
| 20> H 	 -41.3496 	 17.2196 	 76.6681
| 21> H 	 -42.1333 	 18.0015 	 78.1289
| 22> H 	 -43.0279 	 16.8813 	 77.0805
| 23> S 	 -35.995 	 21.0915 	 77.9332
| 24> C 	 -35.0412 	 20.1951 	 79.0908
| 25> C 	 -35.7954 	 19.1884 	 79.6477
| 26> C 	 -37.0752 	 18.9574 	 79.0366
| 27> C 	 -37.3073 	 19.8785 	 78.0249
| 28> H 	 -35.4105 	 18.567 	 80.4636
| 29> C 	 -38.0477 	 17.9037 	 79.458
| 30> H 	 -37.4126 	 17.0108 	 79.7009
| 31> H 	 -38.6345 	 17.6779 	 78.6324
| 32> C 	 -39.0301 	 18.3321 	 80.6347
| 33> H 	 -39.7921 	 19.0909 	 80.4362
| 34> H 	 -38.6436 	 18.6999 	 81.5204
| 35> C 	 -39.8616 	 17.0961 	 81.06
| 36> H 	 -39.3525 	 16.2 	 80.9362
| 37> H 	 -40.7278 	 16.8353 	 80.4554
| 38> H 	 -40.1456 	 17.1144 	 82.103
| 39> H 	 -40.0012 	 20.5709 	 73.8441
| 40> H 	 -34.0418 	 20.3828 	 79.4135
| 41> *
| 42>
| 43>                          ****END OF INPUT****

CARTESIAN COORDINATES (ANGSTROEM)
---------------------------------
  S    -38.013700   20.570500   75.417300
  C    -39.632700   20.300400   74.790100
  C    -40.438300   20.013200   75.920800
  C    -39.678600   19.638100   77.069500
  C    -38.321100   19.952700   77.003300
  H    -39.963300   19.247000   78.094200
  C    -41.919500   20.084100   76.053500
  H    -42.183300   20.490200   75.101600
  H    -42.206800   20.830700   76.802700
  C    -42.702600   18.761100   76.187600
  H    -43.688900   18.952700   76.374300
  H    -42.752500   18.352000   75.223100
  C    -42.234800   17.648500   77.081100
  H    -41.349600   17.219600   76.668100
  H    -42.133300   18.001500   78.128900
  H    -43.027900   16.881300   77.080500
  S    -35.995000   21.091500   77.933200
  C    -35.041200   20.195100   79.090800
  C    -35.795400   19.188400   79.647700
  C    -37.075200   18.957400   79.036600
  C    -37.307300   19.878500   78.024900
  H    -35.410500   18.567000   80.463600
  C    -38.047700   17.903700   79.458000
  H    -37.412600   17.010800   79.700900
  H    -38.634500   17.677900   78.632400
  C    -39.030100   18.332100   80.634700
  H    -39.792100   19.090900   80.436200
  H    -38.643600   18.699900   81.520400
  C    -39.861600   17.096100   81.060000
  H    -39.352500   16.200000   80.936200
  H    -40.727800   16.835300   80.455400
  H    -40.145600   17.114400   82.103000
  H    -40.001200   20.570900   73.844100
  H    -34.041800   20.382800   79.413500

 Total Charge           Charge          ....    0
 Multiplicity           Mult            ....    1
 Number of Electrons    NEL             ....  134
 Basis Dimension        Dim             ....  322

ORBITAL ENERGIES
----------------

  NO   OCC          E(Eh)            E(eV)
   0   2.0000     -88.965807     -2420.8827
   1   2.0000     -88.964146     -2420.8375
   2   2.0000     -10.329597      -281.0826
   3   2.0000     -10.328367      -281.0491
   4   2.0000     -10.316978      -280.7392
   5   2.0000     -10.316541      -280.7274
   6   2.0000     -10.305657      -280.4312
   7   2.0000     -10.303195      -280.3642
   8   2.0000     -10.299010      -280.2503
   9   2.0000     -10.295037      -280.1422
  10   2.0000     -10.294634      -280.1312
  11   2.0000     -10.290666      -280.0233
  12   2.0000     -10.287420      -279.9349
  13   2.0000     -10.276195      -279.6295
  14   2.0000     -10.271308      -279.4965
  15   2.0000     -10.269690      -279.4525
  16   2.0000      -8.080021      -219.8686
  17   2.0000      -8.078788      -219.8350
  18   2.0000      -6.038691      -164.3211
  19   2.0000      -6.037423      -164.2866
  20   2.0000      -6.034624      -164.2105
  21   2.0000      -6.033136      -164.1700
  22   2.0000      -6.030626      -164.1017
  23   2.0000      -6.029562      -164.0727
  24   2.0000      -1.007266       -27.4091
  25   2.0000      -0.982994       -26.7486
  26   2.0000      -0.916228       -24.9318
  27   2.0000      -0.909081       -24.7373
  28   2.0000      -0.872984       -23.7551
  29   2.0000      -0.856598       -23.3092
  30   2.0000      -0.843913       -22.9640
  31   2.0000      -0.816667       -22.2226
  32   2.0000      -0.786336       -21.3973
  33   2.0000      -0.774202       -21.0671
  34   2.0000      -0.719689       -19.5837
  35   2.0000      -0.705791       -19.2056
  36   2.0000      -0.704453       -19.1691
  37   2.0000      -0.661889       -18.0109
  38   2.0000      -0.641514       -17.4565
  39   2.0000      -0.612595       -16.6696
  40   2.0000      -0.595726       -16.2105
  41   2.0000      -0.577607       -15.7175
  42   2.0000      -0.562157       -15.2971
  43   2.0000      -0.548378       -14.9221
  44   2.0000      -0.541018       -14.7218
  45   2.0000      -0.533813       -14.5258
  46   2.0000      -0.518508       -14.1093
  47   2.0000      -0.517099       -14.0710
  48   2.0000      -0.509877       -13.8745
  49   2.0000      -0.506662       -13.7870
  50   2.0000      -0.494138       -13.4462
  51   2.0000      -0.483566       -13.1585
  52   2.0000      -0.472222       -12.8498
  53   2.0000      -0.464447       -12.6383
  54   2.0000      -0.457970       -12.4620
  55   2.0000      -0.451426       -12.2839
  56   2.0000      -0.447059       -12.1651
  57   2.0000      -0.433904       -11.8071
  58   2.0000      -0.432277       -11.7628
  59   2.0000      -0.425439       -11.5768
  60   2.0000      -0.420632       -11.4460
  61   2.0000      -0.420022       -11.4294
  62   2.0000      -0.407088       -11.0774
  63   2.0000      -0.356293        -9.6952
  64   2.0000      -0.330441        -8.9918
  65   2.0000      -0.323737        -8.8093
  66   2.0000      -0.283329        -7.7098
  67   0.0000       0.020015         0.5446
  68   0.0000       0.074018         2.0141
  69   0.0000       0.106909         2.9091
  70   0.0000       0.116800         3.1783
  71   0.0000       0.125664         3.4195

MULLIKEN ATOMIC CHARGES
-----------------------
   0 S :    0.102663
   1 C :   -0.082553
   2 C :   -0.135726
   3 C :   -0.008375
   4 C :   -0.130769
   5 H :    0.015345
   6 C :    0.094825
   7 H :   -0.003013
   8 H :    0.047028
   9 C :   -0.023640
  10 H :   -0.000825
  11 H :    0.002191
  12 C :   -0.047655
  13 H :    0.040527
  14 H :    0.037048
  15 H :    0.030926
  16 S :    0.099211
  17 C :   -0.076909
  18 C :   -0.033620
  19 C :   -0.050576
  20 C :   -0.139006
  21 H :    0.018802
  22 C :    0.077359
  23 H :    0.039748
  24 H :    0.013163
  25 C :   -0.030577
  26 H :    0.035857
  27 H :    0.009041
  28 C :   -0.039209
  29 H :   -0.000823
  30 H :    0.024149
  31 H :    0.029423
  32 H :    0.036534
  33 H :    0.049438
Sum of atomic charges:    0.0000000

LOEWDIN ATOMIC CHARGES
----------------------
   0 S :    0.415382
   1 C :   -0.197263
   2 C :   -0.057834
   3 C :   -0.081461
   4 C :   -0.199912
   5 H :    0.039140
   6 C :   -0.031320
   7 H :    0.027582
   8 H :    0.036844
   9 C :   -0.035222
  10 H :    0.013017
  11 H :    0.021309
  12 C :   -0.061594
  13 H :    0.022940
  14 H :    0.023914
  15 H :    0.031079
  16 S :    0.385790
  17 C :   -0.181623
  18 C :   -0.070963
  19 C :   -0.056988
  20 C :   -0.179605
  21 H :    0.032166
  22 C :   -0.021412
  23 H :    0.041606
  24 H :    0.022160
  25 C :   -0.029688
  26 H :    0.029228
  27 H :    0.016561
  28 C :   -0.067918
  29 H :    0.013898
  30 H :    0.024698
  31 H :    0.026180
  32 H :    0.020729
  33 H :    0.028582

  Mayer bond orders larger than 0.100000
B(  0-S ,  1-C ) :   1.1362 B(  0-S ,  4-C ) :   1.1570 B(  1-C ,  2-C ) :   1.5678
B(  1-C ,  4-C ) :   0.1050 B(  1-C , 32-H ) :   0.9761 B(  2-C ,  3-C ) :   1.2444
B(  2-C ,  6-C ) :   1.0296 B(  3-C ,  4-C ) :   1.5425 B(  3-C ,  5-H ) :   0.9769
B(  4-C , 20-C ) :   1.0819 B(  6-C ,  7-H ) :   0.9284 B(  6-C ,  8-H ) :   0.9413
B(  6-C ,  9-C ) :   1.0726 B(  9-C , 10-H ) :   0.9491 B(  9-C , 11-H ) :   0.9449
B(  9-C , 12-C ) :   1.1111 B( 12-C , 13-H ) :   0.9672 B( 12-C , 14-H ) :   0.9696
B( 12-C , 15-H ) :   0.9668 B( 16-S , 17-C ) :   1.1385 B( 16-S , 20-C ) :   1.1196
B( 17-C , 18-C ) :   1.6194 B( 17-C , 33-H ) :   0.9708 B( 18-C , 19-C ) :   1.2365
B( 18-C , 21-H ) :   0.9850 B( 19-C , 20-C ) :   1.5867 B( 19-C , 22-C ) :   1.0620
B( 22-C , 23-H ) :   0.9314 B( 22-C , 24-H ) :   0.9244 B( 22-C , 25-C ) :   1.0485
B( 25-C , 26-H ) :   0.9537 B( 25-C , 27-H ) :   0.9604 B( 25-C , 28-C ) :   1.0695
B( 28-C , 29-H ) :   0.9696 B( 28-C , 30-H ) :   0.9731 B( 28-C , 31-H ) :   0.9762

Dispersion correction           -0.014992574
FINAL SINGLE POINT ENERGY     -1339.848200213353

DIPOLE MOMENT
-------------
                                X             Y             Z
Electronic contribution:     24.27349      17.79188     -12.21219
Nuclear contribution   :    -24.78388     -18.16527      12.62001
                        -----------------------------------------
Total Dipole Moment    :     -0.51039      -0.37339       0.40782
                        -----------------------------------------
Magnitude (a.u.)       :      0.75249
Magnitude (Debye)      :      1.91267

Rotational constants in cm-1:     0.016851     0.010895     0.006925
Rotational constants in MHz :   505.188216   326.637579   207.608117

                             ****ORCA TERMINATED NORMALLY****
TOTAL RUN TIME: 0 days 0 hours 0 minutes 29 seconds 916 msec
