                         Program Version 4.2.1 -  RELEASE  -
|  1> ! wB97X-D3 SP def2-SVP
|  2> %pal
|  3> nprocs 16
|  4> end
|  5>
|  6> * xyz 0 1
|  7> S 	 6.86026 	 -7.46933 	 84.3483
|  8> C 	 6.53135 	 -6.12473 	 83.2907
|  9> C 	 5.72986 	 -5.24469 	 83.9648
| 10> C 	 5.22786 	 -5.64249 	 85.258
| 11> C 	 5.73874 	 -6.84585 	 85.5599
| 12> H 	 4.56526 	 -5.20166 	 85.904
| 13> C 	 5.36589 	 -3.89694 	 83.3935
| 14> H 	 4.28298 	 -3.70028 	 83.4626
| 15> H 	 5.57799 	 -3.85448 	 82.2886
| 16> C 	 6.15343 	 -2.67572 	 84.0784
| 17> H 	 5.66396 	 -1.71124 	 83.6779
| 18> H 	 5.85302 	 -2.68963 	 85.1777
| 19> C 	 7.66702 	 -2.83286 	 83.9763
| 20> H 	 8.11851 	 -1.99664 	 84.5513
| 21> H 	 8.02062 	 -3.78712 	 84.2938
| 22> H 	 8.14279 	 -2.67793 	 83.0457
| 23> S 	 5.00596 	 -9.44385 	 86.4251
| 24> C 	 4.52039 	 -9.66215 	 88.0778
| 25> C 	 4.7305 	 -8.52284 	 88.7839
| 26> C 	 5.21365 	 -7.38566 	 87.9812
| 27> C 	 5.33104 	 -7.66257 	 86.6489
| 28> H 	 4.80255 	 -8.62189 	 89.8748
| 29> C 	 5.60525 	 -6.13746 	 88.7646
| 30> H 	 4.96193 	 -6.10413 	 89.632
| 31> H 	 5.33399 	 -5.21397 	 88.1853
| 32> C 	 7.00465 	 -6.1893 	 89.2406
| 33> H 	 7.71961 	 -6.06896 	 88.3622
| 34> H 	 7.26472 	 -7.0957 	 89.7108
| 35> C 	 7.30816 	 -5.0635 	 90.2449
| 36> H 	 7.45833 	 -4.10911 	 89.6436
| 37> H 	 8.28445 	 -5.28772 	 90.7682
| 38> H 	 6.42699 	 -4.88057 	 90.9748
| 39> H 	 7.02631 	 -5.8574 	 82.4172
| 40> H 	 4.51111 	 -10.567 	 88.4742
| 41> *
| 42>
| 43>                          ****END OF INPUT****

CARTESIAN COORDINATES (ANGSTROEM)
---------------------------------
  S      6.860260   -7.469330   84.348300
  C      6.531350   -6.124730   83.290700
  C      5.729860   -5.244690   83.964800
  C      5.227860   -5.642490   85.258000
  C      5.738740   -6.845850   85.559900
  H      4.565260   -5.201660   85.904000
  C      5.365890   -3.896940   83.393500
  H      4.282980   -3.700280   83.462600
  H      5.577990   -3.854480   82.288600
  C      6.153430   -2.675720   84.078400
  H      5.663960   -1.711240   83.677900
  H      5.853020   -2.689630   85.177700
  C      7.667020   -2.832860   83.976300
  H      8.118510   -1.996640   84.551300
  H      8.020620   -3.787120   84.293800
  H      8.142790   -2.677930   83.045700
  S      5.005960   -9.443850   86.425100
  C      4.520390   -9.662150   88.077800
  C      4.730500   -8.522840   88.783900
  C      5.213650   -7.385660   87.981200
  C      5.331040   -7.662570   86.648900
  H      4.802550   -8.621890   89.874800
  C      5.605250   -6.137460   88.764600
  H      4.961930   -6.104130   89.632000
  H      5.333990   -5.213970   88.185300
  C      7.004650   -6.189300   89.240600
  H      7.719610   -6.068960   88.362200
  H      7.264720   -7.095700   89.710800
  C      7.308160   -5.063500   90.244900
  H      7.458330   -4.109110   89.643600
  H      8.284450   -5.287720   90.768200
  H      6.426990   -4.880570   90.974800
  H      7.026310   -5.857400   82.417200
  H      4.511110  -10.567000   88.474200

 Total Charge           Charge          ....    0
 Multiplicity           Mult            ....    1
 Number of Electrons    NEL             ....  134
 Basis Dimension        Dim             ....  322

ORBITAL ENERGIES
----------------

  NO   OCC          E(Eh)            E(eV)
   0   2.0000     -88.966109     -2420.8909
   1   2.0000     -88.959478     -2420.7105
   2   2.0000     -10.328897      -281.0636
   3   2.0000     -10.327549      -281.0269
   4   2.0000     -10.309784      -280.5435
   5   2.0000     -10.306611      -280.4572
   6   2.0000     -10.306482      -280.4536
   7   2.0000     -10.303219      -280.3648
   8   2.0000     -10.301918      -280.3295
   9   2.0000     -10.295357      -280.1509
  10   2.0000     -10.295250      -280.1480
  11   2.0000     -10.293201      -280.0922
  12   2.0000     -10.292903      -280.0841
  13   2.0000     -10.290440      -280.0171
  14   2.0000     -10.284439      -279.8538
  15   2.0000     -10.273820      -279.5648
  16   2.0000      -8.080906      -219.8926
  17   2.0000      -8.073848      -219.7006
  18   2.0000      -6.039522      -164.3438
  19   2.0000      -6.035483      -164.2338
  20   2.0000      -6.032592      -164.1552
  21   2.0000      -6.031456      -164.1243
  22   2.0000      -6.028495      -164.0437
  23   2.0000      -6.024264      -163.9286
  24   2.0000      -1.011357       -27.5204
  25   2.0000      -0.984627       -26.7931
  26   2.0000      -0.916640       -24.9430
  27   2.0000      -0.904974       -24.6256
  28   2.0000      -0.878862       -23.9151
  29   2.0000      -0.850280       -23.1373
  30   2.0000      -0.842489       -22.9253
  31   2.0000      -0.821054       -22.3420
  32   2.0000      -0.779373       -21.2078
  33   2.0000      -0.772236       -21.0136
  34   2.0000      -0.715395       -19.4669
  35   2.0000      -0.695815       -18.9341
  36   2.0000      -0.692469       -18.8430
  37   2.0000      -0.665413       -18.1068
  38   2.0000      -0.652580       -17.7576
  39   2.0000      -0.620966       -16.8973
  40   2.0000      -0.601158       -16.3583
  41   2.0000      -0.568564       -15.4714
  42   2.0000      -0.565877       -15.3983
  43   2.0000      -0.545323       -14.8390
  44   2.0000      -0.538396       -14.6505
  45   2.0000      -0.532419       -14.4879
  46   2.0000      -0.519871       -14.1464
  47   2.0000      -0.515722       -14.0335
  48   2.0000      -0.511291       -13.9129
  49   2.0000      -0.501250       -13.6397
  50   2.0000      -0.500023       -13.6063
  51   2.0000      -0.479845       -13.0572
  52   2.0000      -0.467836       -12.7305
  53   2.0000      -0.462326       -12.5805
  54   2.0000      -0.457839       -12.4584
  55   2.0000      -0.447858       -12.1868
  56   2.0000      -0.444428       -12.0935
  57   2.0000      -0.440897       -11.9974
  58   2.0000      -0.430962       -11.7271
  59   2.0000      -0.415931       -11.3181
  60   2.0000      -0.413976       -11.2649
  61   2.0000      -0.412256       -11.2180
  62   2.0000      -0.408713       -11.1216
  63   2.0000      -0.360615        -9.8128
  64   2.0000      -0.329627        -8.9696
  65   2.0000      -0.324908        -8.8412
  66   2.0000      -0.296890        -8.0788
  67   0.0000       0.024684         0.6717
  68   0.0000       0.072765         1.9800
  69   0.0000       0.109157         2.9703
  70   0.0000       0.119655         3.2560
  71   0.0000       0.128703         3.5022

MULLIKEN ATOMIC CHARGES
-----------------------
   0 S :    0.101420
   1 C :   -0.073530
   2 C :   -0.090042
   3 C :    0.056922
   4 C :   -0.135938
   5 H :   -0.014295
   6 C :    0.019929
   7 H :    0.034868
   8 H :    0.026157
   9 C :   -0.109264
  10 H :    0.046228
  11 H :    0.034900
  12 C :   -0.026435
  13 H :    0.033141
  14 H :    0.041007
  15 H :    0.014407
  16 S :    0.076683
  17 C :   -0.023845
  18 C :   -0.046113
  19 C :   -0.058243
  20 C :   -0.138451
  21 H :    0.033940
  22 C :    0.078979
  23 H :    0.011108
  24 H :    0.024108
  25 C :   -0.059956
  26 H :    0.043565
  27 H :    0.017728
  28 C :   -0.097118
  29 H :    0.040881
  30 H :    0.050519
  31 H :    0.045484
  32 H :    0.026046
  33 H :    0.015208
Sum of atomic charges:    0.0000000

LOEWDIN ATOMIC CHARGES
----------------------
   0 S :    0.394586
   1 C :   -0.189568
   2 C :   -0.058592
   3 C :   -0.043971
   4 C :   -0.172851
   5 H :    0.021721
   6 C :   -0.042765
   7 H :    0.029924
   8 H :    0.029059
   9 C :   -0.045689
  10 H :    0.032277
  11 H :    0.026040
  12 C :   -0.070260
  13 H :    0.034205
  14 H :    0.025382
  15 H :    0.018965
  16 S :    0.369149
  17 C :   -0.161602
  18 C :   -0.072059
  19 C :   -0.051029
  20 C :   -0.177459
  21 H :    0.034687
  22 C :   -0.034236
  23 H :    0.026655
  24 H :    0.032251
  25 C :   -0.045094
  26 H :    0.035991
  27 H :    0.017290
  28 C :   -0.078465
  29 H :    0.030034
  30 H :    0.032521
  31 H :    0.031020
  32 H :    0.019531
  33 H :    0.002355

  Mayer bond orders larger than 0.100000
B(  0-S ,  1-C ) :   1.1044 B(  0-S ,  4-C ) :   1.1321 B(  1-C ,  2-C ) :   1.6420
B(  1-C , 32-H ) :   0.9752 B(  2-C ,  3-C ) :   1.1760 B(  2-C ,  6-C ) :   1.0385
B(  3-C ,  4-C ) :   1.6021 B(  3-C ,  5-H ) :   1.0130 B(  4-C , 20-C ) :   1.0773
B(  6-C ,  7-H ) :   0.9443 B(  6-C ,  8-H ) :   0.9486 B(  6-C ,  9-C ) :   1.0524
B(  9-C , 10-H ) :   0.9589 B(  9-C , 11-H ) :   0.9586 B(  9-C , 12-C ) :   1.0633
B( 12-C , 13-H ) :   0.9712 B( 12-C , 14-H ) :   0.9720 B( 12-C , 15-H ) :   0.9750
B( 16-S , 17-C ) :   1.1447 B( 16-S , 20-C ) :   1.0932 B( 17-C , 18-C ) :   1.6524
B( 17-C , 33-H ) :   0.9742 B( 18-C , 19-C ) :   1.2110 B( 18-C , 21-H ) :   0.9777
B( 19-C , 20-C ) :   1.6365 B( 19-C , 22-C ) :   1.0447 B( 22-C , 23-H ) :   0.9272
B( 22-C , 24-H ) :   0.9301 B( 22-C , 25-C ) :   1.0787 B( 25-C , 26-H ) :   0.9486
B( 25-C , 27-H ) :   0.9553 B( 25-C , 28-C ) :   1.0744 B( 28-C , 29-H ) :   0.9758
B( 28-C , 30-H ) :   0.9744 B( 28-C , 31-H ) :   0.9722

Dispersion correction           -0.014588360
FINAL SINGLE POINT ENERGY     -1339.858035038797

DIPOLE MOMENT
-------------
                                X             Y             Z
Electronic contribution:     -6.86563     -26.23928      -8.89045
Nuclear contribution   :      7.03912      26.80462       9.26194
                        -----------------------------------------
Total Dipole Moment    :      0.17349       0.56534       0.37148
                        -----------------------------------------
Magnitude (a.u.)       :      0.69836
Magnitude (Debye)      :      1.77509

Rotational constants in cm-1:     0.018216     0.009429     0.007007
Rotational constants in MHz :   546.101123   282.680133   210.061406

                             ****ORCA TERMINATED NORMALLY****
TOTAL RUN TIME: 0 days 0 hours 0 minutes 32 seconds 570 msec
