                         Program Version 4.2.1 -  RELEASE  -
|  1> ! wB97X-D3 SP def2-SVP
|  2> %pal
|  3> nprocs 16
|  4> end
|  5>
|  6> * xyz 0 1
|  7> S 	 -6.61304 	 30.2864 	 48.1119
|  8> C 	 -5.75542 	 29.1879 	 49.0767
|  9> C 	 -4.56187 	 28.8571 	 48.4558
| 10> C 	 -4.44665 	 29.4681 	 47.1653
| 11> C 	 -5.50044 	 30.254 	 46.853
| 12> H 	 -3.65529 	 29.323 	 46.5083
| 13> C 	 -3.35907 	 28.1503 	 49.1432
| 14> H 	 -3.36197 	 28.2024 	 50.2881
| 15> H 	 -2.40165 	 28.537 	 48.8609
| 16> C 	 -3.3021 	 26.7061 	 48.6614
| 17> H 	 -3.33676 	 26.8831 	 47.6011
| 18> H 	 -2.35614 	 26.2187 	 48.7698
| 19> C 	 -4.43816 	 25.8588 	 49.2549
| 20> H 	 -4.1855 	 25.5856 	 50.2459
| 21> H 	 -5.4076 	 26.271 	 49.2263
| 22> H 	 -4.47715 	 24.9671 	 48.7143
| 23> S 	 -7.44048 	 30.4542 	 44.8288
| 24> C 	 -7.10542 	 31.1921 	 43.2882
| 25> C 	 -5.83955 	 31.705 	 43.319
| 26> C 	 -5.13362 	 31.568 	 44.5688
| 27> C 	 -5.85093 	 30.8821 	 45.4948
| 28> H 	 -5.49496 	 32.4845 	 42.6753
| 29> C 	 -3.74628 	 32.1252 	 44.8915
| 30> H 	 -2.96018 	 31.5982 	 44.3584
| 31> H 	 -3.51899 	 32.0472 	 45.9798
| 32> C 	 -3.58088 	 33.6716 	 44.593
| 33> H 	 -4.12676 	 34.1827 	 45.391
| 34> H 	 -4.08776 	 33.9482 	 43.7107
| 35> C 	 -2.1776 	 34.3205 	 44.3391
| 36> H 	 -1.51418 	 34.1268 	 45.1681
| 37> H 	 -2.2327 	 35.4153 	 44.1846
| 38> H 	 -1.75158 	 33.7827 	 43.4515
| 39> H 	 -5.91128 	 28.9488 	 50.0176
| 40> H 	 -7.67615 	 31.3542 	 42.4355
| 41> *
| 42>
| 43>                          ****END OF INPUT****

CARTESIAN COORDINATES (ANGSTROEM)
---------------------------------
  S     -6.613040   30.286400   48.111900
  C     -5.755420   29.187900   49.076700
  C     -4.561870   28.857100   48.455800
  C     -4.446650   29.468100   47.165300
  C     -5.500440   30.254000   46.853000
  H     -3.655290   29.323000   46.508300
  C     -3.359070   28.150300   49.143200
  H     -3.361970   28.202400   50.288100
  H     -2.401650   28.537000   48.860900
  C     -3.302100   26.706100   48.661400
  H     -3.336760   26.883100   47.601100
  H     -2.356140   26.218700   48.769800
  C     -4.438160   25.858800   49.254900
  H     -4.185500   25.585600   50.245900
  H     -5.407600   26.271000   49.226300
  H     -4.477150   24.967100   48.714300
  S     -7.440480   30.454200   44.828800
  C     -7.105420   31.192100   43.288200
  C     -5.839550   31.705000   43.319000
  C     -5.133620   31.568000   44.568800
  C     -5.850930   30.882100   45.494800
  H     -5.494960   32.484500   42.675300
  C     -3.746280   32.125200   44.891500
  H     -2.960180   31.598200   44.358400
  H     -3.518990   32.047200   45.979800
  C     -3.580880   33.671600   44.593000
  H     -4.126760   34.182700   45.391000
  H     -4.087760   33.948200   43.710700
  C     -2.177600   34.320500   44.339100
  H     -1.514180   34.126800   45.168100
  H     -2.232700   35.415300   44.184600
  H     -1.751580   33.782700   43.451500
  H     -5.911280   28.948800   50.017600
  H     -7.676150   31.354200   42.435500

 Total Charge           Charge          ....    0
 Multiplicity           Mult            ....    1
 Number of Electrons    NEL             ....  134
 Basis Dimension        Dim             ....  322

ORBITAL ENERGIES
----------------

  NO   OCC          E(Eh)            E(eV)
   0   2.0000     -88.966423     -2420.8994
   1   2.0000     -88.965479     -2420.8737
   2   2.0000     -10.332818      -281.1703
   3   2.0000     -10.329508      -281.0802
   4   2.0000     -10.315616      -280.7022
   5   2.0000     -10.303640      -280.3763
   6   2.0000     -10.303011      -280.3592
   7   2.0000     -10.302892      -280.3560
   8   2.0000     -10.299159      -280.2544
   9   2.0000     -10.295751      -280.1616
  10   2.0000     -10.290377      -280.0154
  11   2.0000     -10.288176      -279.9555
  12   2.0000     -10.286272      -279.9037
  13   2.0000     -10.285281      -279.8767
  14   2.0000     -10.278452      -279.6909
  15   2.0000     -10.261617      -279.2328
  16   2.0000      -8.083401      -219.9605
  17   2.0000      -8.079892      -219.8650
  18   2.0000      -6.041742      -164.4042
  19   2.0000      -6.038651      -164.3201
  20   2.0000      -6.037347      -164.2846
  21   2.0000      -6.034454      -164.2058
  22   2.0000      -6.034291      -164.2014
  23   2.0000      -6.030530      -164.0991
  24   2.0000      -1.018918       -27.7262
  25   2.0000      -0.992855       -27.0170
  26   2.0000      -0.914136       -24.8749
  27   2.0000      -0.900432       -24.5020
  28   2.0000      -0.869962       -23.6729
  29   2.0000      -0.851920       -23.1819
  30   2.0000      -0.844917       -22.9914
  31   2.0000      -0.822360       -22.3775
  32   2.0000      -0.788192       -21.4478
  33   2.0000      -0.777477       -21.1562
  34   2.0000      -0.705745       -19.2043
  35   2.0000      -0.701015       -19.0756
  36   2.0000      -0.695871       -18.9356
  37   2.0000      -0.660863       -17.9830
  38   2.0000      -0.654672       -17.8145
  39   2.0000      -0.626428       -17.0460
  40   2.0000      -0.599795       -16.3212
  41   2.0000      -0.578746       -15.7485
  42   2.0000      -0.561472       -15.2784
  43   2.0000      -0.552538       -15.0353
  44   2.0000      -0.545670       -14.8484
  45   2.0000      -0.525357       -14.2957
  46   2.0000      -0.519490       -14.1361
  47   2.0000      -0.514277       -13.9942
  48   2.0000      -0.506864       -13.7925
  49   2.0000      -0.498663       -13.5693
  50   2.0000      -0.492222       -13.3940
  51   2.0000      -0.482965       -13.1421
  52   2.0000      -0.474055       -12.8997
  53   2.0000      -0.470850       -12.8125
  54   2.0000      -0.466032       -12.6814
  55   2.0000      -0.453328       -12.3357
  56   2.0000      -0.445905       -12.1337
  57   2.0000      -0.428549       -11.6614
  58   2.0000      -0.425354       -11.5745
  59   2.0000      -0.424728       -11.5574
  60   2.0000      -0.419610       -11.4182
  61   2.0000      -0.413775       -11.2594
  62   2.0000      -0.412973       -11.2376
  63   2.0000      -0.354001        -9.6329
  64   2.0000      -0.330802        -9.0016
  65   2.0000      -0.329474        -8.9655
  66   2.0000      -0.304268        -8.2796
  67   0.0000       0.037832         1.0295
  68   0.0000       0.072212         1.9650
  69   0.0000       0.111736         3.0405
  70   0.0000       0.126106         3.4315
  71   0.0000       0.132535         3.6065

MULLIKEN ATOMIC CHARGES
-----------------------
   0 S :    0.121970
   1 C :   -0.031766
   2 C :   -0.114303
   3 C :    0.059246
   4 C :   -0.139087
   5 H :   -0.015938
   6 C :    0.045821
   7 H :    0.033911
   8 H :    0.017974
   9 C :   -0.075019
  10 H :    0.012032
  11 H :    0.018795
  12 C :    0.014257
  13 H :    0.015628
  14 H :    0.024620
  15 H :    0.014964
  16 S :    0.100723
  17 C :   -0.048572
  18 C :   -0.022477
  19 C :   -0.069966
  20 C :   -0.132913
  21 H :    0.017167
  22 C :    0.071431
  23 H :    0.028718
  24 H :    0.043314
  25 C :   -0.112696
  26 H :    0.032488
  27 H :    0.016629
  28 C :   -0.061981
  29 H :    0.029728
  30 H :    0.050546
  31 H :    0.036840
  32 H :   -0.017381
  33 H :    0.035297
Sum of atomic charges:   -0.0000000

LOEWDIN ATOMIC CHARGES
----------------------
   0 S :    0.460775
   1 C :   -0.190068
   2 C :   -0.051831
   3 C :   -0.058330
   4 C :   -0.212113
   5 H :    0.020327
   6 C :   -0.029059
   7 H :    0.030372
   8 H :    0.025365
   9 C :   -0.039512
  10 H :    0.020039
  11 H :    0.018647
  12 C :   -0.053006
  13 H :    0.021384
  14 H :    0.020541
  15 H :    0.021176
  16 S :    0.398000
  17 C :   -0.174592
  18 C :   -0.072959
  19 C :   -0.064513
  20 C :   -0.181814
  21 H :    0.025657
  22 C :   -0.028753
  23 H :    0.026712
  24 H :    0.037380
  25 C :   -0.045025
  26 H :    0.024371
  27 H :    0.011985
  28 C :   -0.066192
  29 H :    0.018633
  30 H :    0.033826
  31 H :    0.029601
  32 H :   -0.001810
  33 H :    0.024788

  Mayer bond orders larger than 0.100000
B(  0-S ,  1-C ) :   1.1599 B(  0-S ,  4-C ) :   1.1867 B(  1-C ,  2-C ) :   1.5879
B(  1-C , 32-H ) :   0.9842 B(  2-C ,  3-C ) :   1.2620 B(  2-C ,  6-C ) :   1.0123
B(  3-C ,  4-C ) :   1.5646 B(  3-C ,  5-H ) :   1.0071 B(  4-C , 20-C ) :   0.9558
B(  6-C ,  7-H ) :   0.9546 B(  6-C ,  8-H ) :   0.9489 B(  6-C ,  9-C ) :   1.0600
B(  9-C , 10-H ) :   0.9579 B(  9-C , 11-H ) :   0.9561 B(  9-C , 12-C ) :   1.0754
B( 12-C , 13-H ) :   0.9730 B( 12-C , 14-H ) :   0.9752 B( 12-C , 15-H ) :   0.9700
B( 16-S , 17-C ) :   1.1446 B( 16-S , 20-C ) :   1.1297 B( 17-C , 18-C ) :   1.6340
B( 17-C , 33-H ) :   0.9713 B( 18-C , 19-C ) :   1.2444 B( 18-C , 21-H ) :   0.9731
B( 19-C , 20-C ) :   1.6630 B( 19-C , 22-C ) :   1.0372 B( 22-C , 23-H ) :   0.9382
B( 22-C , 24-H ) :   0.9432 B( 22-C , 25-C ) :   1.0386 B( 25-C , 26-H ) :   0.9582
B( 25-C , 27-H ) :   0.9663 B( 25-C , 28-C ) :   1.0730 B( 28-C , 29-H ) :   0.9791
B( 28-C , 30-H ) :   0.9743 B( 28-C , 31-H ) :   0.9753

Dispersion correction           -0.013775515
FINAL SINGLE POINT ENERGY     -1339.852617172247

DIPOLE MOMENT
-------------
                                X             Y             Z
Electronic contribution:    -22.79126       1.51840      -2.20953
Nuclear contribution   :     23.40406      -1.42873       2.17048
                        -----------------------------------------
Total Dipole Moment    :      0.61280       0.08968      -0.03905
                        -----------------------------------------
Magnitude (a.u.)       :      0.62056
Magnitude (Debye)      :      1.57734

Rotational constants in cm-1:     0.019341     0.007722     0.006378
Rotational constants in MHz :   579.837584   231.489080   191.197982

                             ****ORCA TERMINATED NORMALLY****
TOTAL RUN TIME: 0 days 0 hours 0 minutes 33 seconds 709 msec
