                         Program Version 4.2.1 -  RELEASE  -
|  1> ! wB97X-D3 SP def2-SVP
|  2> %pal
|  3> nprocs 16
|  4> end
|  5>
|  6> * xyz 0 1
|  7> S 	 -1.558 	 -21.3744 	 65.6078
|  8> C 	 -0.599503 	 -21.4348 	 64.1297
|  9> C 	 -0.85697 	 -20.2964 	 63.387
| 10> C 	 -1.62351 	 -19.2803 	 64.1056
| 11> C 	 -2.17173 	 -19.7917 	 65.2426
| 12> H 	 -1.91442 	 -18.2845 	 63.6837
| 13> C 	 -0.252547 	 -20.0594 	 62.0291
| 14> H 	 0.847427 	 -20.4159 	 62.1087
| 15> H 	 -0.138185 	 -19.0368 	 61.9526
| 16> C 	 -0.947122 	 -20.5062 	 60.7568
| 17> H 	 -0.308364 	 -20.3184 	 59.906
| 18> H 	 -1.03429 	 -21.5856 	 60.8106
| 19> C 	 -2.29765 	 -19.7338 	 60.5198
| 20> H 	 -2.85168 	 -20.0444 	 61.3678
| 21> H 	 -2.20226 	 -18.6035 	 60.4068
| 22> H 	 -2.94408 	 -20.0431 	 59.642
| 23> S 	 -4.76644 	 -19.8769 	 66.4441
| 24> C 	 -5.30698 	 -18.466 	 67.4008
| 25> C 	 -4.18929 	 -17.7645 	 67.7807
| 26> C 	 -2.96481 	 -18.0246 	 67.0252
| 27> C 	 -3.11864 	 -19.15 	 66.1853
| 28> H 	 -4.38236 	 -16.943 	 68.4286
| 29> C 	 -1.67703 	 -17.3203 	 67.3644
| 30> H 	 -1.78453 	 -16.2626 	 67.0084
| 31> H 	 -0.94363 	 -17.7782 	 66.6951
| 32> C 	 -1.14998 	 -17.3299 	 68.7963
| 33> H 	 -1.07478 	 -18.3404 	 69.2781
| 34> H 	 -1.86749 	 -16.7435 	 69.396
| 35> C 	 0.176997 	 -16.5799 	 68.865
| 36> H 	 0.014439 	 -15.5447 	 68.6352
| 37> H 	 0.9045 	 -17.0051 	 68.1386
| 38> H 	 0.553245 	 -16.4477 	 69.8367
| 39> H 	 0.091704 	 -22.1096 	 63.8399
| 40> H 	 -6.30531 	 -18.3134 	 67.818
| 41> *
| 42>
| 43>                          ****END OF INPUT****

CARTESIAN COORDINATES (ANGSTROEM)
---------------------------------
  S     -1.558000  -21.374400   65.607800
  C     -0.599503  -21.434800   64.129700
  C     -0.856970  -20.296400   63.387000
  C     -1.623510  -19.280300   64.105600
  C     -2.171730  -19.791700   65.242600
  H     -1.914420  -18.284500   63.683700
  C     -0.252547  -20.059400   62.029100
  H      0.847427  -20.415900   62.108700
  H     -0.138185  -19.036800   61.952600
  C     -0.947122  -20.506200   60.756800
  H     -0.308364  -20.318400   59.906000
  H     -1.034290  -21.585600   60.810600
  C     -2.297650  -19.733800   60.519800
  H     -2.851680  -20.044400   61.367800
  H     -2.202260  -18.603500   60.406800
  H     -2.944080  -20.043100   59.642000
  S     -4.766440  -19.876900   66.444100
  C     -5.306980  -18.466000   67.400800
  C     -4.189290  -17.764500   67.780700
  C     -2.964810  -18.024600   67.025200
  C     -3.118640  -19.150000   66.185300
  H     -4.382360  -16.943000   68.428600
  C     -1.677030  -17.320300   67.364400
  H     -1.784530  -16.262600   67.008400
  H     -0.943630  -17.778200   66.695100
  C     -1.149980  -17.329900   68.796300
  H     -1.074780  -18.340400   69.278100
  H     -1.867490  -16.743500   69.396000
  C      0.176997  -16.579900   68.865000
  H      0.014439  -15.544700   68.635200
  H      0.904500  -17.005100   68.138600
  H      0.553245  -16.447700   69.836700
  H      0.091704  -22.109600   63.839900
  H     -6.305310  -18.313400   67.818000

 Total Charge           Charge          ....    0
 Multiplicity           Mult            ....    1
 Number of Electrons    NEL             ....  134
 Basis Dimension        Dim             ....  322

ORBITAL ENERGIES
----------------

  NO   OCC          E(Eh)            E(eV)
   0   2.0000     -88.965989     -2420.8876
   1   2.0000     -88.962328     -2420.7880
   2   2.0000     -10.337397      -281.2949
   3   2.0000     -10.332376      -281.1582
   4   2.0000     -10.322534      -280.8904
   5   2.0000     -10.311389      -280.5872
   6   2.0000     -10.308918      -280.5199
   7   2.0000     -10.303160      -280.3632
   8   2.0000     -10.300949      -280.3031
   9   2.0000     -10.293643      -280.1043
  10   2.0000     -10.293567      -280.1022
  11   2.0000     -10.291639      -280.0497
  12   2.0000     -10.288582      -279.9665
  13   2.0000     -10.288241      -279.9573
  14   2.0000     -10.284781      -279.8631
  15   2.0000     -10.273955      -279.5685
  16   2.0000      -8.080761      -219.8887
  17   2.0000      -8.075664      -219.7500
  18   2.0000      -6.039393      -164.3402
  19   2.0000      -6.035150      -164.2248
  20   2.0000      -6.034434      -164.2053
  21   2.0000      -6.031481      -164.1249
  22   2.0000      -6.030517      -164.0987
  23   2.0000      -6.026061      -163.9775
  24   2.0000      -1.002235       -27.2722
  25   2.0000      -0.975972       -26.5575
  26   2.0000      -0.912024       -24.8174
  27   2.0000      -0.909039       -24.7362
  28   2.0000      -0.867545       -23.6071
  29   2.0000      -0.847136       -23.0517
  30   2.0000      -0.841041       -22.8859
  31   2.0000      -0.817730       -22.2516
  32   2.0000      -0.780138       -21.2286
  33   2.0000      -0.770348       -20.9622
  34   2.0000      -0.707110       -19.2414
  35   2.0000      -0.706106       -19.2141
  36   2.0000      -0.696840       -18.9620
  37   2.0000      -0.651914       -17.7395
  38   2.0000      -0.643534       -17.5115
  39   2.0000      -0.610819       -16.6212
  40   2.0000      -0.592996       -16.1362
  41   2.0000      -0.575088       -15.6489
  42   2.0000      -0.566762       -15.4224
  43   2.0000      -0.550235       -14.9727
  44   2.0000      -0.542264       -14.7558
  45   2.0000      -0.530361       -14.4319
  46   2.0000      -0.518365       -14.1054
  47   2.0000      -0.507248       -13.8029
  48   2.0000      -0.504607       -13.7311
  49   2.0000      -0.500605       -13.6222
  50   2.0000      -0.485777       -13.2187
  51   2.0000      -0.473965       -12.8973
  52   2.0000      -0.469023       -12.7628
  53   2.0000      -0.461836       -12.5672
  54   2.0000      -0.456085       -12.4107
  55   2.0000      -0.447647       -12.1811
  56   2.0000      -0.444974       -12.1084
  57   2.0000      -0.433628       -11.7996
  58   2.0000      -0.431339       -11.7373
  59   2.0000      -0.420996       -11.4559
  60   2.0000      -0.417292       -11.3551
  61   2.0000      -0.415674       -11.3111
  62   2.0000      -0.410795       -11.1783
  63   2.0000      -0.343418        -9.3449
  64   2.0000      -0.329493        -8.9660
  65   2.0000      -0.324244        -8.8231
  66   2.0000      -0.299536        -8.1508
  67   0.0000       0.035909         0.9771
  68   0.0000       0.053301         1.4504
  69   0.0000       0.106642         2.9019
  70   0.0000       0.115999         3.1565
  71   0.0000       0.127655         3.4737

MULLIKEN ATOMIC CHARGES
-----------------------
   0 S :    0.112411
   1 C :   -0.059969
   2 C :   -0.141618
   3 C :    0.041741
   4 C :   -0.162900
   5 H :    0.036590
   6 C :    0.051036
   7 H :    0.039390
   8 H :   -0.009220
   9 C :   -0.013799
  10 H :    0.026914
  11 H :    0.026025
  12 C :   -0.103998
  13 H :    0.042036
  14 H :    0.046139
  15 H :    0.044635
  16 S :    0.082646
  17 C :   -0.105320
  18 C :   -0.023390
  19 C :   -0.013375
  20 C :   -0.151785
  21 H :    0.014857
  22 C :    0.038805
  23 H :    0.034101
  24 H :    0.023235
  25 C :   -0.075375
  26 H :    0.050101
  27 H :    0.024218
  28 C :   -0.019670
  29 H :    0.011376
  30 H :    0.042405
  31 H :    0.020169
  32 H :    0.001912
  33 H :    0.069677
Sum of atomic charges:   -0.0000000

LOEWDIN ATOMIC CHARGES
----------------------
   0 S :    0.407756
   1 C :   -0.177171
   2 C :   -0.059938
   3 C :   -0.066873
   4 C :   -0.196489
   5 H :    0.042918
   6 C :   -0.040114
   7 H :    0.043266
   8 H :    0.016222
   9 C :   -0.034021
  10 H :    0.022549
  11 H :    0.023047
  12 C :   -0.077251
  13 H :    0.022824
  14 H :    0.032792
  15 H :    0.033299
  16 S :    0.353606
  17 C :   -0.169013
  18 C :   -0.071059
  19 C :   -0.050802
  20 C :   -0.179852
  21 H :    0.024743
  22 C :   -0.039719
  23 H :    0.037721
  24 H :    0.029564
  25 C :   -0.040068
  26 H :    0.032305
  27 H :    0.023481
  28 C :   -0.063202
  29 H :    0.023179
  30 H :    0.031085
  31 H :    0.020903
  32 H :    0.007756
  33 H :    0.036558

  Mayer bond orders larger than 0.100000
B(  0-S ,  1-C ) :   1.1182 B(  0-S ,  4-C ) :   1.1589 B(  1-C ,  2-C ) :   1.6295
B(  1-C , 32-H ) :   0.9853 B(  2-C ,  3-C ) :   1.2121 B(  2-C ,  6-C ) :   1.0242
B(  3-C ,  4-C ) :   1.6039 B(  3-C ,  5-H ) :   0.9857 B(  4-C , 20-C ) :   1.0073
B(  6-C ,  7-H ) :   0.9404 B(  6-C ,  8-H ) :   0.9317 B(  6-C ,  9-C ) :   1.0668
B(  9-C , 10-H ) :   0.9533 B(  9-C , 11-H ) :   0.9580 B(  9-C , 12-C ) :   1.0565
B( 12-C , 13-H ) :   0.9796 B( 12-C , 14-H ) :   0.9753 B( 12-C , 15-H ) :   0.9755
B( 16-S , 17-C ) :   1.1298 B( 16-S , 20-C ) :   1.1163 B( 17-C , 18-C ) :   1.6556
B( 17-C , 33-H ) :   0.9652 B( 18-C , 19-C ) :   1.1920 B( 18-C , 21-H ) :   0.9854
B( 19-C , 20-C ) :   1.6155 B( 19-C , 22-C ) :   1.0527 B( 22-C , 23-H ) :   0.9255
B( 22-C , 24-H ) :   0.9334 B( 22-C , 25-C ) :   1.0663 B( 25-C , 26-H ) :   0.9567
B( 25-C , 27-H ) :   0.9463 B( 25-C , 28-C ) :   1.0895 B( 28-C , 29-H ) :   0.9688
B( 28-C , 30-H ) :   0.9757 B( 28-C , 31-H ) :   0.9696

Dispersion correction           -0.013933495
FINAL SINGLE POINT ENERGY     -1339.857049977013

DIPOLE MOMENT
-------------
                                X             Y             Z
Electronic contribution:    -13.21269     -13.43762       8.22844
Nuclear contribution   :     13.52993      14.00748      -8.28837
                        -----------------------------------------
Total Dipole Moment    :      0.31724       0.56986      -0.05993
                        -----------------------------------------
Magnitude (a.u.)       :      0.65496
Magnitude (Debye)      :      1.66478

Rotational constants in cm-1:     0.018636     0.007868     0.006757
Rotational constants in MHz :   558.701988   235.886983   202.568485

                             ****ORCA TERMINATED NORMALLY****
TOTAL RUN TIME: 0 days 0 hours 0 minutes 33 seconds 730 msec
