                         Program Version 4.2.1 -  RELEASE  -
|  1> ! wB97X-D3 SP def2-SVP
|  2> %pal
|  3> nprocs 16
|  4> end
|  5>
|  6> * xyz 0 1
|  7> S 	 53.2013 	 2.6716 	 87.0217
|  8> C 	 54.7282 	 3.04372 	 87.8035
|  9> C 	 55.7816 	 2.40286 	 87.22
| 10> C 	 55.3721 	 1.7163 	 86.0481
| 11> C 	 54.005 	 1.84664 	 85.7451
| 12> H 	 55.9142 	 0.994605 	 85.4587
| 13> C 	 57.1646 	 2.25699 	 87.8725
| 14> H 	 57.5032 	 1.27055 	 87.7299
| 15> H 	 57.0105 	 2.19838 	 88.9594
| 16> C 	 58.2185 	 3.32832 	 87.4526
| 17> H 	 59.1768 	 3.14156 	 87.8846
| 18> H 	 58.3401 	 3.24639 	 86.3521
| 19> C 	 57.7499 	 4.73698 	 87.852
| 20> H 	 57.7715 	 4.86392 	 88.917
| 21> H 	 58.513 	 5.49801 	 87.4763
| 22> H 	 56.7949 	 5.0856 	 87.4829
| 23> S 	 52.1472 	 2.09507 	 83.7718
| 24> C 	 51.732 	 0.743438 	 82.794
| 25> C 	 52.4107 	 -0.391575 	 83.1653
| 26> C 	 53.3575 	 -0.186643 	 84.2191
| 27> C 	 53.2218 	 1.11011 	 84.7445
| 28> H 	 52.1944 	 -1.3174 	 82.7264
| 29> C 	 54.4442 	 -1.13504 	 84.6225
| 30> H 	 54.7027 	 -0.955746 	 85.7094
| 31> H 	 55.3325 	 -0.836149 	 84.126
| 32> C 	 54.1465 	 -2.62657 	 84.505
| 33> H 	 54.006 	 -2.82938 	 83.4524
| 34> H 	 53.2411 	 -2.89951 	 84.9995
| 35> C 	 55.4173 	 -3.3917 	 85.0892
| 36> H 	 55.3225 	 -4.53266 	 85.0296
| 37> H 	 55.6007 	 -3.13718 	 86.105
| 38> H 	 56.3419 	 -3.03146 	 84.7365
| 39> H 	 54.8134 	 3.63257 	 88.7719
| 40> H 	 51.0628 	 0.651845 	 81.9108
| 41> *
| 42>
| 43>                          ****END OF INPUT****

CARTESIAN COORDINATES (ANGSTROEM)
---------------------------------
  S     53.201300    2.671600   87.021700
  C     54.728200    3.043720   87.803500
  C     55.781600    2.402860   87.220000
  C     55.372100    1.716300   86.048100
  C     54.005000    1.846640   85.745100
  H     55.914200    0.994605   85.458700
  C     57.164600    2.256990   87.872500
  H     57.503200    1.270550   87.729900
  H     57.010500    2.198380   88.959400
  C     58.218500    3.328320   87.452600
  H     59.176800    3.141560   87.884600
  H     58.340100    3.246390   86.352100
  C     57.749900    4.736980   87.852000
  H     57.771500    4.863920   88.917000
  H     58.513000    5.498010   87.476300
  H     56.794900    5.085600   87.482900
  S     52.147200    2.095070   83.771800
  C     51.732000    0.743438   82.794000
  C     52.410700   -0.391575   83.165300
  C     53.357500   -0.186643   84.219100
  C     53.221800    1.110110   84.744500
  H     52.194400   -1.317400   82.726400
  C     54.444200   -1.135040   84.622500
  H     54.702700   -0.955746   85.709400
  H     55.332500   -0.836149   84.126000
  C     54.146500   -2.626570   84.505000
  H     54.006000   -2.829380   83.452400
  H     53.241100   -2.899510   84.999500
  C     55.417300   -3.391700   85.089200
  H     55.322500   -4.532660   85.029600
  H     55.600700   -3.137180   86.105000
  H     56.341900   -3.031460   84.736500
  H     54.813400    3.632570   88.771900
  H     51.062800    0.651845   81.910800

 Total Charge           Charge          ....    0
 Multiplicity           Mult            ....    1
 Number of Electrons    NEL             ....  134
 Basis Dimension        Dim             ....  322

ORBITAL ENERGIES
----------------

  NO   OCC          E(Eh)            E(eV)
   0   2.0000     -88.967218     -2420.9211
   1   2.0000     -88.966003     -2420.8880
   2   2.0000     -10.327093      -281.0145
   3   2.0000     -10.325488      -280.9708
   4   2.0000     -10.316111      -280.7157
   5   2.0000     -10.315693      -280.7043
   6   2.0000     -10.304772      -280.4071
   7   2.0000     -10.300266      -280.2845
   8   2.0000     -10.293377      -280.0970
   9   2.0000     -10.292843      -280.0825
  10   2.0000     -10.292165      -280.0640
  11   2.0000     -10.291280      -280.0400
  12   2.0000     -10.290693      -280.0240
  13   2.0000     -10.288541      -279.9654
  14   2.0000     -10.283371      -279.8248
  15   2.0000     -10.277446      -279.6635
  16   2.0000      -8.082206      -219.9280
  17   2.0000      -8.081158      -219.8995
  18   2.0000      -6.040681      -164.3753
  19   2.0000      -6.039557      -164.3447
  20   2.0000      -6.036609      -164.2645
  21   2.0000      -6.035622      -164.2376
  22   2.0000      -6.033047      -164.1675
  23   2.0000      -6.031993      -164.1389
  24   2.0000      -1.009006       -27.4565
  25   2.0000      -0.987002       -26.8577
  26   2.0000      -0.913262       -24.8511
  27   2.0000      -0.908366       -24.7179
  28   2.0000      -0.867048       -23.5936
  29   2.0000      -0.851210       -23.1626
  30   2.0000      -0.843635       -22.9565
  31   2.0000      -0.810955       -22.0672
  32   2.0000      -0.785468       -21.3737
  33   2.0000      -0.773487       -21.0476
  34   2.0000      -0.719424       -19.5765
  35   2.0000      -0.704345       -19.1662
  36   2.0000      -0.692044       -18.8315
  37   2.0000      -0.655932       -17.8488
  38   2.0000      -0.637951       -17.3595
  39   2.0000      -0.618717       -16.8361
  40   2.0000      -0.596877       -16.2418
  41   2.0000      -0.572792       -15.5865
  42   2.0000      -0.567725       -15.4486
  43   2.0000      -0.546060       -14.8591
  44   2.0000      -0.540098       -14.6968
  45   2.0000      -0.526675       -14.3315
  46   2.0000      -0.520668       -14.1681
  47   2.0000      -0.504158       -13.7188
  48   2.0000      -0.495651       -13.4873
  49   2.0000      -0.494007       -13.4426
  50   2.0000      -0.487078       -13.2541
  51   2.0000      -0.479128       -13.0377
  52   2.0000      -0.474477       -12.9112
  53   2.0000      -0.463890       -12.6231
  54   2.0000      -0.463132       -12.6025
  55   2.0000      -0.453061       -12.3284
  56   2.0000      -0.447807       -12.1855
  57   2.0000      -0.441838       -12.0230
  58   2.0000      -0.428591       -11.6626
  59   2.0000      -0.427124       -11.6226
  60   2.0000      -0.425461       -11.5774
  61   2.0000      -0.422365       -11.4931
  62   2.0000      -0.415580       -11.3085
  63   2.0000      -0.346322        -9.4239
  64   2.0000      -0.334454        -9.1010
  65   2.0000      -0.326870        -8.8946
  66   2.0000      -0.290976        -7.9179
  67   0.0000       0.031152         0.8477
  68   0.0000       0.071272         1.9394
  69   0.0000       0.108235         2.9452
  70   0.0000       0.121525         3.3069
  71   0.0000       0.134178         3.6512

MULLIKEN ATOMIC CHARGES
-----------------------
   0 S :    0.117765
   1 C :   -0.149976
   2 C :   -0.079825
   3 C :    0.018316
   4 C :   -0.143752
   5 H :   -0.004930
   6 C :    0.068478
   7 H :    0.005659
   8 H :    0.021479
   9 C :   -0.031000
  10 H :    0.026749
  11 H :    0.035715
  12 C :   -0.078190
  13 H :    0.022097
  14 H :    0.035634
  15 H :    0.044810
  16 S :    0.120862
  17 C :   -0.080012
  18 C :   -0.045664
  19 C :   -0.001130
  20 C :   -0.167030
  21 H :   -0.003347
  22 C :   -0.024500
  23 H :    0.041737
  24 H :    0.045989
  25 C :   -0.041426
  26 H :    0.031757
  27 H :    0.034925
  28 C :   -0.027993
  29 H :    0.052863
  30 H :    0.010542
  31 H :    0.007543
  32 H :    0.071438
  33 H :    0.064414
Sum of atomic charges:   -0.0000000

LOEWDIN ATOMIC CHARGES
----------------------
   0 S :    0.422070
   1 C :   -0.205124
   2 C :   -0.067152
   3 C :   -0.066328
   4 C :   -0.208532
   5 H :    0.025343
   6 C :   -0.028773
   7 H :    0.022366
   8 H :    0.031013
   9 C :   -0.033121
  10 H :    0.021597
  11 H :    0.028547
  12 C :   -0.071017
  13 H :    0.019275
  14 H :    0.033660
  15 H :    0.023779
  16 S :    0.424749
  17 C :   -0.202426
  18 C :   -0.072082
  19 C :   -0.048955
  20 C :   -0.205947
  21 H :    0.020564
  22 C :   -0.039522
  23 H :    0.038929
  24 H :    0.028194
  25 C :   -0.028559
  26 H :    0.021067
  27 H :    0.024185
  28 C :   -0.067224
  29 H :    0.036205
  30 H :    0.021141
  31 H :    0.018877
  32 H :    0.041261
  33 H :    0.041939

  Mayer bond orders larger than 0.100000
B(  0-S ,  1-C ) :   1.1476 B(  0-S ,  4-C ) :   1.1777 B(  1-C ,  2-C ) :   1.6031
B(  1-C , 32-H ) :   0.9572 B(  2-C ,  3-C ) :   1.2600 B(  2-C ,  6-C ) :   1.0027
B(  3-C ,  4-C ) :   1.5481 B(  3-C ,  5-H ) :   1.0006 B(  4-C , 20-C ) :   1.0132
B(  6-C ,  7-H ) :   0.9424 B(  6-C ,  8-H ) :   0.9483 B(  6-C ,  9-C ) :   1.0618
B(  9-C , 10-H ) :   0.9559 B(  9-C , 11-H ) :   0.9579 B(  9-C , 12-C ) :   1.0776
B( 12-C , 13-H ) :   0.9763 B( 12-C , 14-H ) :   0.9729 B( 12-C , 15-H ) :   0.9747
B( 16-S , 17-C ) :   1.1606 B( 16-S , 20-C ) :   1.1471 B( 17-C , 18-C ) :   1.6101
B( 17-C , 33-H ) :   0.9572 B( 18-C , 19-C ) :   1.2457 B( 18-C , 21-H ) :   0.9968
B( 19-C , 20-C ) :   1.5836 B( 19-C , 22-C ) :   1.0367 B( 22-C , 23-H ) :   0.9352
B( 22-C , 24-H ) :   0.9279 B( 22-C , 25-C ) :   1.0603 B( 25-C , 26-H ) :   0.9485
B( 25-C , 27-H ) :   0.9631 B( 25-C , 28-C ) :   1.0725 B( 28-C , 29-H ) :   0.9756
B( 28-C , 30-H ) :   0.9708 B( 28-C , 31-H ) :   0.9697

Dispersion correction           -0.014021841
FINAL SINGLE POINT ENERGY     -1339.874944361326

DIPOLE MOMENT
-------------
                                X             Y             Z
Electronic contribution:    -23.29772      11.11597      -6.33945
Nuclear contribution   :     23.84761     -11.65504       6.41337
                        -----------------------------------------
Total Dipole Moment    :      0.54989      -0.53907       0.07392
                        -----------------------------------------
Magnitude (a.u.)       :      0.77359
Magnitude (Debye)      :      1.96631

Rotational constants in cm-1:     0.018350     0.008389     0.006380
Rotational constants in MHz :   550.110189   251.509079   191.275521

                             ****ORCA TERMINATED NORMALLY****
TOTAL RUN TIME: 0 days 0 hours 0 minutes 29 seconds 980 msec
