                         Program Version 4.2.1 -  RELEASE  -
|  1> ! wB97X-D3 SP def2-SVP
|  2> %pal
|  3> nprocs 16
|  4> end
|  5>
|  6> * xyz 0 1
|  7> S 	 32.5859 	 26.8566 	 50.9076
|  8> C 	 33.9531 	 27.9218 	 50.4243
|  9> C 	 34.8885 	 28.065 	 51.4488
| 10> C 	 34.605 	 27.147 	 52.5251
| 11> C 	 33.4757 	 26.4194 	 52.3413
| 12> H 	 35.1333 	 27.0423 	 53.3995
| 13> C 	 36.0485 	 29.0004 	 51.5724
| 14> H 	 36.6769 	 29.0146 	 50.6753
| 15> H 	 36.6468 	 28.637 	 52.4386
| 16> C 	 35.5874 	 30.4294 	 51.9391
| 17> H 	 34.9913 	 30.5436 	 52.8158
| 18> H 	 36.4259 	 31.1343 	 52.0538
| 19> C 	 34.8159 	 31.0784 	 50.7391
| 20> H 	 34.488 	 32.0686 	 51.0521
| 21> H 	 35.4091 	 31.0426 	 49.78
| 22> H 	 33.929 	 30.4482 	 50.5544
| 23> S 	 33.1652 	 25.632 	 55.0891
| 24> C 	 32.2464 	 24.1902 	 55.4371
| 25> C 	 31.8556 	 23.6132 	 54.2443
| 26> C 	 32.3172 	 24.2409 	 53.0701
| 27> C 	 32.9641 	 25.4557 	 53.3307
| 28> H 	 31.3684 	 22.6403 	 54.4398
| 29> C 	 31.9598 	 23.5003 	 51.7552
| 30> H 	 32.7941 	 23.4261 	 51.094
| 31> H 	 31.2042 	 24.0976 	 51.2224
| 32> C 	 31.5435 	 22.0026 	 51.8717
| 33> H 	 30.6107 	 21.9915 	 52.4397
| 34> H 	 32.333 	 21.5765 	 52.4134
| 35> C 	 31.3861 	 21.1988 	 50.5099
| 36> H 	 32.2043 	 21.4409 	 49.8334
| 37> H 	 30.5973 	 21.6843 	 50.0045
| 38> H 	 31.149 	 20.1084 	 50.5933
| 39> H 	 34.0021 	 28.5084 	 49.4863
| 40> H 	 32.0392 	 23.6692 	 56.3779
| 41> *
| 42>
| 43>                          ****END OF INPUT****

CARTESIAN COORDINATES (ANGSTROEM)
---------------------------------
  S     32.585900   26.856600   50.907600
  C     33.953100   27.921800   50.424300
  C     34.888500   28.065000   51.448800
  C     34.605000   27.147000   52.525100
  C     33.475700   26.419400   52.341300
  H     35.133300   27.042300   53.399500
  C     36.048500   29.000400   51.572400
  H     36.676900   29.014600   50.675300
  H     36.646800   28.637000   52.438600
  C     35.587400   30.429400   51.939100
  H     34.991300   30.543600   52.815800
  H     36.425900   31.134300   52.053800
  C     34.815900   31.078400   50.739100
  H     34.488000   32.068600   51.052100
  H     35.409100   31.042600   49.780000
  H     33.929000   30.448200   50.554400
  S     33.165200   25.632000   55.089100
  C     32.246400   24.190200   55.437100
  C     31.855600   23.613200   54.244300
  C     32.317200   24.240900   53.070100
  C     32.964100   25.455700   53.330700
  H     31.368400   22.640300   54.439800
  C     31.959800   23.500300   51.755200
  H     32.794100   23.426100   51.094000
  H     31.204200   24.097600   51.222400
  C     31.543500   22.002600   51.871700
  H     30.610700   21.991500   52.439700
  H     32.333000   21.576500   52.413400
  C     31.386100   21.198800   50.509900
  H     32.204300   21.440900   49.833400
  H     30.597300   21.684300   50.004500
  H     31.149000   20.108400   50.593300
  H     34.002100   28.508400   49.486300
  H     32.039200   23.669200   56.377900

 Total Charge           Charge          ....    0
 Multiplicity           Mult            ....    1
 Number of Electrons    NEL             ....  134
 Basis Dimension        Dim             ....  322

ORBITAL ENERGIES
----------------

  NO   OCC          E(Eh)            E(eV)
   0   2.0000     -88.971430     -2421.0357
   1   2.0000     -88.970160     -2421.0011
   2   2.0000     -10.332877      -281.1719
   3   2.0000     -10.328284      -281.0469
   4   2.0000     -10.321165      -280.8532
   5   2.0000     -10.317255      -280.7468
   6   2.0000     -10.307165      -280.4722
   7   2.0000     -10.304889      -280.4103
   8   2.0000     -10.298040      -280.2239
   9   2.0000     -10.292728      -280.0794
  10   2.0000     -10.289340      -279.9872
  11   2.0000     -10.287264      -279.9307
  12   2.0000     -10.286487      -279.9095
  13   2.0000     -10.284679      -279.8603
  14   2.0000     -10.281778      -279.7814
  15   2.0000     -10.279239      -279.7123
  16   2.0000      -8.085022      -220.0046
  17   2.0000      -8.083884      -219.9737
  18   2.0000      -6.043681      -164.4569
  19   2.0000      -6.042542      -164.4259
  20   2.0000      -6.039892      -164.3538
  21   2.0000      -6.038456      -164.3147
  22   2.0000      -6.035502      -164.2344
  23   2.0000      -6.034633      -164.2107
  24   2.0000      -1.004682       -27.3388
  25   2.0000      -0.982995       -26.7487
  26   2.0000      -0.912760       -24.8375
  27   2.0000      -0.903212       -24.5776
  28   2.0000      -0.864815       -23.5328
  29   2.0000      -0.850847       -23.1527
  30   2.0000      -0.842339       -22.9212
  31   2.0000      -0.810998       -22.0684
  32   2.0000      -0.783328       -21.3154
  33   2.0000      -0.774662       -21.0796
  34   2.0000      -0.707604       -19.2549
  35   2.0000      -0.702059       -19.1040
  36   2.0000      -0.693412       -18.8687
  37   2.0000      -0.655413       -17.8347
  38   2.0000      -0.635740       -17.2994
  39   2.0000      -0.617303       -16.7977
  40   2.0000      -0.597284       -16.2529
  41   2.0000      -0.571123       -15.5410
  42   2.0000      -0.570046       -15.5117
  43   2.0000      -0.546496       -14.8709
  44   2.0000      -0.544115       -14.8061
  45   2.0000      -0.523057       -14.2331
  46   2.0000      -0.518592       -14.1116
  47   2.0000      -0.510814       -13.8999
  48   2.0000      -0.500808       -13.6277
  49   2.0000      -0.492808       -13.4100
  50   2.0000      -0.483771       -13.1641
  51   2.0000      -0.475365       -12.9353
  52   2.0000      -0.471693       -12.8354
  53   2.0000      -0.466979       -12.7071
  54   2.0000      -0.456660       -12.4264
  55   2.0000      -0.453516       -12.3408
  56   2.0000      -0.449090       -12.2204
  57   2.0000      -0.442832       -12.0501
  58   2.0000      -0.429001       -11.6737
  59   2.0000      -0.422778       -11.5044
  60   2.0000      -0.420838       -11.4516
  61   2.0000      -0.411606       -11.2004
  62   2.0000      -0.408649       -11.1199
  63   2.0000      -0.350426        -9.5356
  64   2.0000      -0.333577        -9.0771
  65   2.0000      -0.332351        -9.0437
  66   2.0000      -0.288453        -7.8492
  67   0.0000       0.022190         0.6038
  68   0.0000       0.077433         2.1071
  69   0.0000       0.102482         2.7887
  70   0.0000       0.111239         3.0270
  71   0.0000       0.133508         3.6329

MULLIKEN ATOMIC CHARGES
-----------------------
   0 S :    0.110660
   1 C :   -0.147203
   2 C :   -0.075387
   3 C :    0.011457
   4 C :   -0.111324
   5 H :   -0.022724
   6 C :    0.069050
   7 H :    0.039264
   8 H :    0.032807
   9 C :   -0.062617
  10 H :    0.030216
  11 H :    0.033081
  12 C :   -0.094967
  13 H :    0.038492
  14 H :    0.035722
  15 H :    0.036478
  16 S :    0.106134
  17 C :   -0.097604
  18 C :   -0.074474
  19 C :   -0.036520
  20 C :   -0.138147
  21 H :    0.034023
  22 C :    0.056054
  23 H :    0.020447
  24 H :    0.039900
  25 C :   -0.105050
  26 H :    0.042359
  27 H :    0.029986
  28 C :   -0.022898
  29 H :    0.027011
  30 H :    0.013586
  31 H :    0.057719
  32 H :    0.062565
  33 H :    0.061906
Sum of atomic charges:   -0.0000000

LOEWDIN ATOMIC CHARGES
----------------------
   0 S :    0.396286
   1 C :   -0.192919
   2 C :   -0.053221
   3 C :   -0.058852
   4 C :   -0.180868
   5 H :    0.014410
   6 C :   -0.032011
   7 H :    0.034454
   8 H :    0.036674
   9 C :   -0.035610
  10 H :    0.022139
  11 H :    0.025415
  12 C :   -0.072998
  13 H :    0.024799
  14 H :    0.026083
  15 H :    0.021812
  16 S :    0.401476
  17 C :   -0.195246
  18 C :   -0.084229
  19 C :   -0.058156
  20 C :   -0.191680
  21 H :    0.038732
  22 C :   -0.033192
  23 H :    0.025742
  24 H :    0.028313
  25 C :   -0.035084
  26 H :    0.021321
  27 H :    0.016228
  28 C :   -0.066201
  29 H :    0.026719
  30 H :    0.019661
  31 H :    0.037467
  32 H :    0.033094
  33 H :    0.039441

  Mayer bond orders larger than 0.100000
B(  0-S ,  1-C ) :   1.1152 B(  0-S ,  4-C ) :   1.1382 B(  1-C ,  2-C ) :   1.6246
B(  1-C , 32-H ) :   0.9595 B(  2-C ,  3-C ) :   1.2170 B(  2-C ,  6-C ) :   1.0262
B(  3-C ,  4-C ) :   1.5927 B(  3-C ,  5-H ) :   1.0080 B(  4-C , 20-C ) :   1.0698
B(  6-C ,  7-H ) :   0.9416 B(  6-C ,  8-H ) :   0.9388 B(  6-C ,  9-C ) :   1.0653
B(  9-C , 10-H ) :   0.9569 B(  9-C , 11-H ) :   0.9585 B(  9-C , 12-C ) :   1.0719
B( 12-C , 13-H ) :   0.9721 B( 12-C , 14-H ) :   0.9758 B( 12-C , 15-H ) :   0.9706
B( 16-S , 17-C ) :   1.1526 B( 16-S , 20-C ) :   1.1331 B( 17-C , 18-C ) :   1.6137
B( 17-C , 33-H ) :   0.9602 B( 18-C , 19-C ) :   1.2640 B( 18-C , 21-H ) :   0.9742
B( 19-C , 20-C ) :   1.5602 B( 19-C , 22-C ) :   1.0146 B( 22-C , 23-H ) :   0.9337
B( 22-C , 24-H ) :   0.9317 B( 22-C , 25-C ) :   1.0785 B( 25-C , 26-H ) :   0.9466
B( 25-C , 27-H ) :   0.9596 B( 25-C , 28-C ) :   1.0699 B( 28-C , 29-H ) :   0.9724
B( 28-C , 30-H ) :   0.9735 B( 28-C , 31-H ) :   0.9747

Dispersion correction           -0.013776156
FINAL SINGLE POINT ENERGY     -1339.863462366527

DIPOLE MOMENT
-------------
                                X             Y             Z
Electronic contribution:     -2.80829       0.21996      11.52727
Nuclear contribution   :      2.95114      -0.34405     -11.58599
                        -----------------------------------------
Total Dipole Moment    :      0.14285      -0.12410      -0.05873
                        -----------------------------------------
Magnitude (a.u.)       :      0.19813
Magnitude (Debye)      :      0.50361

Rotational constants in cm-1:     0.023672     0.007253     0.005886
Rotational constants in MHz :   709.680638   217.431320   176.444856

                             ****ORCA TERMINATED NORMALLY****
TOTAL RUN TIME: 0 days 0 hours 0 minutes 31 seconds 692 msec
