                         Program Version 4.2.1 -  RELEASE  -
|  1> ! wB97X-D3 SP def2-SVP
|  2> %pal
|  3> nprocs 16
|  4> end
|  5>
|  6> * xyz 0 1
|  7> S 	 11.7613 	 -5.97623 	 64.7893
|  8> C 	 10.2711 	 -6.03163 	 65.7255
|  9> C 	 10.3549 	 -7.00405 	 66.7412
| 10> C 	 11.5936 	 -7.73922 	 66.64
| 11> C 	 12.3405 	 -7.42257 	 65.5666
| 12> H 	 11.9266 	 -8.58202 	 67.2568
| 13> C 	 9.22596 	 -7.5134 	 67.572
| 14> H 	 9.18923 	 -8.56549 	 67.5555
| 15> H 	 8.31873 	 -7.20832 	 67.1177
| 16> C 	 9.1955 	 -6.99739 	 69.0137
| 17> H 	 10.0163 	 -7.44493 	 69.4718
| 18> H 	 9.24723 	 -5.90547 	 69.0103
| 19> C 	 7.9188 	 -7.42551 	 69.8843
| 20> H 	 8.06919 	 -7.34459 	 70.9653
| 21> H 	 7.09638 	 -6.75427 	 69.533
| 22> H 	 7.5591 	 -8.45209 	 69.6078
| 23> S 	 14.7817 	 -8.49835 	 66.3621
| 24> C 	 15.7427 	 -9.48354 	 65.3695
| 25> C 	 15.2735 	 -9.53211 	 64.0809
| 26> C 	 14.1043 	 -8.65933 	 63.911
| 27> C 	 13.6248 	 -8.1079 	 65.0951
| 28> H 	 15.8 	 -10.1492 	 63.3279
| 29> C 	 13.4242 	 -8.55831 	 62.5157
| 30> H 	 12.8848 	 -7.58231 	 62.4581
| 31> H 	 12.7385 	 -9.37474 	 62.2965
| 32> C 	 14.2581 	 -8.45804 	 61.2162
| 33> H 	 14.8904 	 -9.32599 	 61.0736
| 34> H 	 14.9735 	 -7.57473 	 61.2147
| 35> C 	 13.4477 	 -8.3969 	 59.8665
| 36> H 	 12.9235 	 -7.41373 	 59.966
| 37> H 	 12.7441 	 -9.20776 	 59.9621
| 38> H 	 13.9682 	 -8.39831 	 58.982
| 39> H 	 9.30938 	 -5.55124 	 65.4555
| 40> H 	 16.3971 	 -10.3045 	 65.7124
| 41> *
| 42>
| 43>                          ****END OF INPUT****

CARTESIAN COORDINATES (ANGSTROEM)
---------------------------------
  S     11.761300   -5.976230   64.789300
  C     10.271100   -6.031630   65.725500
  C     10.354900   -7.004050   66.741200
  C     11.593600   -7.739220   66.640000
  C     12.340500   -7.422570   65.566600
  H     11.926600   -8.582020   67.256800
  C      9.225960   -7.513400   67.572000
  H      9.189230   -8.565490   67.555500
  H      8.318730   -7.208320   67.117700
  C      9.195500   -6.997390   69.013700
  H     10.016300   -7.444930   69.471800
  H      9.247230   -5.905470   69.010300
  C      7.918800   -7.425510   69.884300
  H      8.069190   -7.344590   70.965300
  H      7.096380   -6.754270   69.533000
  H      7.559100   -8.452090   69.607800
  S     14.781700   -8.498350   66.362100
  C     15.742700   -9.483540   65.369500
  C     15.273500   -9.532110   64.080900
  C     14.104300   -8.659330   63.911000
  C     13.624800   -8.107900   65.095100
  H     15.800000  -10.149200   63.327900
  C     13.424200   -8.558310   62.515700
  H     12.884800   -7.582310   62.458100
  H     12.738500   -9.374740   62.296500
  C     14.258100   -8.458040   61.216200
  H     14.890400   -9.325990   61.073600
  H     14.973500   -7.574730   61.214700
  C     13.447700   -8.396900   59.866500
  H     12.923500   -7.413730   59.966000
  H     12.744100   -9.207760   59.962100
  H     13.968200   -8.398310   58.982000
  H      9.309380   -5.551240   65.455500
  H     16.397100  -10.304500   65.712400

 Total Charge           Charge          ....    0
 Multiplicity           Mult            ....    1
 Number of Electrons    NEL             ....  134
 Basis Dimension        Dim             ....  322

ORBITAL ENERGIES
----------------

  NO   OCC          E(Eh)            E(eV)
   0   2.0000     -88.967663     -2420.9332
   1   2.0000     -88.963883     -2420.8303
   2   2.0000     -10.337383      -281.2945
   3   2.0000     -10.335211      -281.2354
   4   2.0000     -10.321933      -280.8741
   5   2.0000     -10.316547      -280.7275
   6   2.0000     -10.315359      -280.6952
   7   2.0000     -10.306992      -280.4675
   8   2.0000     -10.299879      -280.2740
   9   2.0000     -10.296982      -280.1951
  10   2.0000     -10.295797      -280.1629
  11   2.0000     -10.289336      -279.9871
  12   2.0000     -10.289215      -279.9838
  13   2.0000     -10.284908      -279.8666
  14   2.0000     -10.284763      -279.8626
  15   2.0000     -10.276096      -279.6268
  16   2.0000      -8.082206      -219.9280
  17   2.0000      -8.079549      -219.8557
  18   2.0000      -6.040781      -164.3780
  19   2.0000      -6.038036      -164.3033
  20   2.0000      -6.036815      -164.2701
  21   2.0000      -6.033754      -164.1868
  22   2.0000      -6.032816      -164.1613
  23   2.0000      -6.030432      -164.0964
  24   2.0000      -1.007584       -27.4177
  25   2.0000      -0.988603       -26.9012
  26   2.0000      -0.912650       -24.8345
  27   2.0000      -0.901103       -24.5203
  28   2.0000      -0.864930       -23.5359
  29   2.0000      -0.849105       -23.1053
  30   2.0000      -0.843758       -22.9598
  31   2.0000      -0.817656       -22.2495
  32   2.0000      -0.782036       -21.2803
  33   2.0000      -0.772519       -21.0213
  34   2.0000      -0.703112       -19.1326
  35   2.0000      -0.696799       -18.9609
  36   2.0000      -0.686693       -18.6859
  37   2.0000      -0.658256       -17.9121
  38   2.0000      -0.636779       -17.3276
  39   2.0000      -0.622550       -16.9404
  40   2.0000      -0.597068       -16.2471
  41   2.0000      -0.575977       -15.6731
  42   2.0000      -0.567628       -15.4459
  43   2.0000      -0.564823       -15.3696
  44   2.0000      -0.525975       -14.3125
  45   2.0000      -0.521022       -14.1777
  46   2.0000      -0.519258       -14.1297
  47   2.0000      -0.508806       -13.8453
  48   2.0000      -0.504484       -13.7277
  49   2.0000      -0.502422       -13.6716
  50   2.0000      -0.491309       -13.3692
  51   2.0000      -0.480459       -13.0739
  52   2.0000      -0.467964       -12.7340
  53   2.0000      -0.462906       -12.5963
  54   2.0000      -0.461611       -12.5611
  55   2.0000      -0.452260       -12.3066
  56   2.0000      -0.448375       -12.2009
  57   2.0000      -0.435570       -11.8525
  58   2.0000      -0.426092       -11.5946
  59   2.0000      -0.424385       -11.5481
  60   2.0000      -0.420275       -11.4363
  61   2.0000      -0.417581       -11.3629
  62   2.0000      -0.400094       -10.8871
  63   2.0000      -0.344833        -9.3834
  64   2.0000      -0.331588        -9.0230
  65   2.0000      -0.329402        -8.9635
  66   2.0000      -0.302876        -8.2417
  67   0.0000       0.025680         0.6988
  68   0.0000       0.075641         2.0583
  69   0.0000       0.106698         2.9034
  70   0.0000       0.114644         3.1196
  71   0.0000       0.125398         3.4122

MULLIKEN ATOMIC CHARGES
-----------------------
   0 S :    0.111156
   1 C :   -0.125722
   2 C :   -0.087730
   3 C :    0.010504
   4 C :   -0.121874
   5 H :    0.024226
   6 C :    0.089854
   7 H :    0.018182
   8 H :   -0.003536
   9 C :   -0.065827
  10 H :    0.016214
  11 H :    0.038139
  12 C :   -0.082735
  13 H :    0.053776
  14 H :    0.035765
  15 H :    0.033313
  16 S :    0.096493
  17 C :   -0.085171
  18 C :   -0.066386
  19 C :   -0.026148
  20 C :   -0.142916
  21 H :    0.041417
  22 C :    0.052814
  23 H :    0.027024
  24 H :    0.040718
  25 C :   -0.140900
  26 H :    0.018717
  27 H :    0.037747
  28 C :   -0.025266
  29 H :    0.032303
  30 H :    0.025908
  31 H :    0.029370
  32 H :    0.065266
  33 H :    0.075304
Sum of atomic charges:    0.0000000

LOEWDIN ATOMIC CHARGES
----------------------
   0 S :    0.404126
   1 C :   -0.198400
   2 C :   -0.054620
   3 C :   -0.067330
   4 C :   -0.189029
   5 H :    0.034152
   6 C :   -0.027032
   7 H :    0.025961
   8 H :    0.022883
   9 C :   -0.029414
  10 H :    0.012442
  11 H :    0.026410
  12 C :   -0.073296
  13 H :    0.028886
  14 H :    0.027711
  15 H :    0.026310
  16 S :    0.422930
  17 C :   -0.211751
  18 C :   -0.075645
  19 C :   -0.054119
  20 C :   -0.194436
  21 H :    0.039420
  22 C :   -0.038608
  23 H :    0.029689
  24 H :    0.032627
  25 C :   -0.048754
  26 H :    0.010408
  27 H :    0.025337
  28 C :   -0.053064
  29 H :    0.030251
  30 H :    0.021805
  31 H :    0.015402
  32 H :    0.036707
  33 H :    0.042040

  Mayer bond orders larger than 0.100000
B(  0-S ,  1-C ) :   1.1339 B(  0-S ,  4-C ) :   1.1438 B(  1-C ,  2-C ) :   1.6253
B(  1-C , 32-H ) :   0.9605 B(  2-C ,  3-C ) :   1.2087 B(  2-C ,  6-C ) :   1.0365
B(  3-C ,  4-C ) :   1.6342 B(  3-C ,  5-H ) :   0.9862 B(  4-C , 20-C ) :   0.9837
B(  6-C ,  7-H ) :   0.9421 B(  6-C ,  8-H ) :   0.9378 B(  6-C ,  9-C ) :   1.0541
B(  9-C , 10-H ) :   0.9614 B(  9-C , 11-H ) :   0.9620 B(  9-C , 12-C ) :   1.0670
B( 12-C , 13-H ) :   0.9781 B( 12-C , 14-H ) :   0.9784 B( 12-C , 15-H ) :   0.9764
B( 16-S , 17-C ) :   1.1699 B( 16-S , 20-C ) :   1.1419 B( 17-C , 18-C ) :   1.6246
B( 17-C , 33-H ) :   0.9528 B( 18-C , 19-C ) :   1.2333 B( 18-C , 21-H ) :   0.9852
B( 19-C , 20-C ) :   1.6132 B( 19-C , 22-C ) :   1.0293 B( 22-C , 23-H ) :   0.9439
B( 22-C , 24-H ) :   0.9383 B( 22-C , 25-C ) :   1.0515 B( 25-C , 26-H ) :   0.9534
B( 25-C , 27-H ) :   0.9616 B( 25-C , 28-C ) :   1.0713 B( 28-C , 29-H ) :   0.9795
B( 28-C , 30-H ) :   0.9765 B( 28-C , 31-H ) :   0.9766

Dispersion correction           -0.013045470
FINAL SINGLE POINT ENERGY     -1339.855448792987

DIPOLE MOMENT
-------------
                                X             Y             Z
Electronic contribution:     14.35025       4.35522       4.14161
Nuclear contribution   :    -14.71123      -4.86373      -4.25399
                        -----------------------------------------
Total Dipole Moment    :     -0.36098      -0.50851      -0.11238
                        -----------------------------------------
Magnitude (a.u.)       :      0.63366
Magnitude (Debye)      :      1.61063

Rotational constants in cm-1:     0.021949     0.006713     0.005574
Rotational constants in MHz :   658.013585   201.250850   167.103577

                             ****ORCA TERMINATED NORMALLY****
TOTAL RUN TIME: 0 days 0 hours 0 minutes 32 seconds 21 msec
