                         Program Version 4.2.1 -  RELEASE  -
|  1> ! wB97X-D3 SP def2-SVP
|  2> %pal
|  3> nprocs 16
|  4> end
|  5>
|  6> * xyz 0 1
|  7> S 	 14.1897 	 26.2704 	 46.9283
|  8> C 	 15.7122 	 25.422 	 46.9508
|  9> C 	 15.5851 	 24.2557 	 46.2273
| 10> C 	 14.4164 	 24.135 	 45.5387
| 11> C 	 13.6358 	 25.2379 	 45.6066
| 12> H 	 14.1247 	 23.3125 	 44.8463
| 13> C 	 16.6542 	 23.1357 	 46.0776
| 14> H 	 16.2063 	 22.1664 	 46.1877
| 15> H 	 17.3521 	 23.1586 	 46.8628
| 16> C 	 17.3382 	 23.175 	 44.785
| 17> H 	 17.452 	 24.2292 	 44.348
| 18> H 	 18.332 	 22.8384 	 44.9067
| 19> C 	 16.7524 	 22.2321 	 43.6825
| 20> H 	 15.7375 	 22.6397 	 43.4431
| 21> H 	 17.4079 	 22.2576 	 42.8261
| 22> H 	 16.8614 	 21.1094 	 43.9568
| 23> S 	 12.2625 	 24.8197 	 43.269
| 24> C 	 10.6436 	 25.3901 	 43.0699
| 25> C 	 10.1931 	 26.0147 	 44.2065
| 26> C 	 11.1404 	 25.9667 	 45.3159
| 27> C 	 12.35 	 25.4011 	 44.9156
| 28> H 	 9.13586 	 26.4017 	 44.2053
| 29> C 	 10.89 	 26.5293 	 46.7684
| 30> H 	 11.324 	 27.446 	 46.8576
| 31> H 	 11.344 	 25.785 	 47.4667
| 32> C 	 9.42525 	 26.7114 	 47.1973
| 33> H 	 8.86612 	 25.8025 	 47.2282
| 34> H 	 8.85771 	 27.3919 	 46.5085
| 35> C 	 9.18481 	 27.1146 	 48.6523
| 36> H 	 9.29372 	 28.2451 	 48.7888
| 37> H 	 9.93655 	 26.7151 	 49.332
| 38> H 	 8.20117 	 26.7979 	 49.1344
| 39> H 	 16.4201 	 25.611 	 47.7112
| 40> H 	 9.99785 	 25.1074 	 42.1931
| 41> *
| 42>
| 43>                          ****END OF INPUT****

CARTESIAN COORDINATES (ANGSTROEM)
---------------------------------
  S     14.189700   26.270400   46.928300
  C     15.712200   25.422000   46.950800
  C     15.585100   24.255700   46.227300
  C     14.416400   24.135000   45.538700
  C     13.635800   25.237900   45.606600
  H     14.124700   23.312500   44.846300
  C     16.654200   23.135700   46.077600
  H     16.206300   22.166400   46.187700
  H     17.352100   23.158600   46.862800
  C     17.338200   23.175000   44.785000
  H     17.452000   24.229200   44.348000
  H     18.332000   22.838400   44.906700
  C     16.752400   22.232100   43.682500
  H     15.737500   22.639700   43.443100
  H     17.407900   22.257600   42.826100
  H     16.861400   21.109400   43.956800
  S     12.262500   24.819700   43.269000
  C     10.643600   25.390100   43.069900
  C     10.193100   26.014700   44.206500
  C     11.140400   25.966700   45.315900
  C     12.350000   25.401100   44.915600
  H      9.135860   26.401700   44.205300
  C     10.890000   26.529300   46.768400
  H     11.324000   27.446000   46.857600
  H     11.344000   25.785000   47.466700
  C      9.425250   26.711400   47.197300
  H      8.866120   25.802500   47.228200
  H      8.857710   27.391900   46.508500
  C      9.184810   27.114600   48.652300
  H      9.293720   28.245100   48.788800
  H      9.936550   26.715100   49.332000
  H      8.201170   26.797900   49.134400
  H     16.420100   25.611000   47.711200
  H      9.997850   25.107400   42.193100

 Total Charge           Charge          ....    0
 Multiplicity           Mult            ....    1
 Number of Electrons    NEL             ....  134
 Basis Dimension        Dim             ....  322

ORBITAL ENERGIES
----------------

  NO   OCC          E(Eh)            E(eV)
   0   2.0000     -88.966976     -2420.9145
   1   2.0000     -88.965670     -2420.8789
   2   2.0000     -10.328983      -281.0659
   3   2.0000     -10.328243      -281.0458
   4   2.0000     -10.318775      -280.7881
   5   2.0000     -10.311719      -280.5961
   6   2.0000     -10.309974      -280.5487
   7   2.0000     -10.301177      -280.3093
   8   2.0000     -10.296853      -280.1916
   9   2.0000     -10.295390      -280.1518
  10   2.0000     -10.287345      -279.9329
  11   2.0000     -10.286914      -279.9212
  12   2.0000     -10.286906      -279.9209
  13   2.0000     -10.285994      -279.8961
  14   2.0000     -10.281673      -279.7785
  15   2.0000     -10.280621      -279.7499
  16   2.0000      -8.081299      -219.9033
  17   2.0000      -8.080763      -219.8887
  18   2.0000      -6.039777      -164.3507
  19   2.0000      -6.039252      -164.3364
  20   2.0000      -6.036026      -164.2486
  21   2.0000      -6.035234      -164.2271
  22   2.0000      -6.031955      -164.1378
  23   2.0000      -6.031523      -164.1261
  24   2.0000      -1.012905       -27.5626
  25   2.0000      -0.988915       -26.9097
  26   2.0000      -0.915784       -24.9197
  27   2.0000      -0.906118       -24.6567
  28   2.0000      -0.871153       -23.7053
  29   2.0000      -0.852749       -23.2045
  30   2.0000      -0.842580       -22.9278
  31   2.0000      -0.813840       -22.1457
  32   2.0000      -0.784316       -21.3423
  33   2.0000      -0.773489       -21.0477
  34   2.0000      -0.704167       -19.1614
  35   2.0000      -0.694627       -18.9018
  36   2.0000      -0.690922       -18.8009
  37   2.0000      -0.659679       -17.9508
  38   2.0000      -0.634342       -17.2613
  39   2.0000      -0.623892       -16.9770
  40   2.0000      -0.595990       -16.2177
  41   2.0000      -0.572345       -15.5743
  42   2.0000      -0.568633       -15.4733
  43   2.0000      -0.554751       -15.0955
  44   2.0000      -0.537579       -14.6283
  45   2.0000      -0.521050       -14.1785
  46   2.0000      -0.516136       -14.0448
  47   2.0000      -0.508169       -13.8280
  48   2.0000      -0.504651       -13.7322
  49   2.0000      -0.500838       -13.6285
  50   2.0000      -0.491144       -13.3647
  51   2.0000      -0.478242       -13.0136
  52   2.0000      -0.476751       -12.9731
  53   2.0000      -0.467802       -12.7295
  54   2.0000      -0.463392       -12.6095
  55   2.0000      -0.450992       -12.2721
  56   2.0000      -0.444580       -12.0976
  57   2.0000      -0.433360       -11.7923
  58   2.0000      -0.423592       -11.5265
  59   2.0000      -0.421561       -11.4713
  60   2.0000      -0.413298       -11.2464
  61   2.0000      -0.409321       -11.1382
  62   2.0000      -0.407137       -11.0788
  63   2.0000      -0.356869        -9.7109
  64   2.0000      -0.335214        -9.1216
  65   2.0000      -0.331443        -9.0190
  66   2.0000      -0.288351        -7.8464
  67   0.0000       0.021714         0.5909
  68   0.0000       0.080210         2.1826
  69   0.0000       0.106178         2.8892
  70   0.0000       0.120195         3.2707
  71   0.0000       0.139272         3.7898

MULLIKEN ATOMIC CHARGES
-----------------------
   0 S :    0.088574
   1 C :   -0.094459
   2 C :   -0.083713
   3 C :   -0.024034
   4 C :   -0.118798
   5 H :    0.035930
   6 C :    0.144899
   7 H :    0.013200
   8 H :   -0.004541
   9 C :   -0.090731
  10 H :    0.046918
  11 H :    0.011854
  12 C :   -0.086720
  13 H :    0.048806
  14 H :    0.028380
  15 H :    0.043139
  16 S :    0.099156
  17 C :   -0.113460
  18 C :   -0.060281
  19 C :   -0.057153
  20 C :   -0.147410
  21 H :    0.042636
  22 C :    0.089834
  23 H :    0.028337
  24 H :    0.047703
  25 C :   -0.090039
  26 H :    0.025690
  27 H :    0.039115
  28 C :   -0.095491
  29 H :    0.035515
  30 H :    0.026817
  31 H :    0.049384
  32 H :    0.039601
  33 H :    0.081344
Sum of atomic charges:    0.0000000

LOEWDIN ATOMIC CHARGES
----------------------
   0 S :    0.409884
   1 C :   -0.194617
   2 C :   -0.057019
   3 C :   -0.076901
   4 C :   -0.176735
   5 H :    0.036682
   6 C :   -0.024882
   7 H :    0.030761
   8 H :    0.021311
   9 C :   -0.048187
  10 H :    0.035503
  11 H :    0.017444
  12 C :   -0.074690
  13 H :    0.027456
  14 H :    0.022286
  15 H :    0.034467
  16 S :    0.414673
  17 C :   -0.205929
  18 C :   -0.081563
  19 C :   -0.056887
  20 C :   -0.193737
  21 H :    0.041670
  22 C :   -0.026591
  23 H :    0.016818
  24 H :    0.036942
  25 C :   -0.050866
  26 H :    0.023702
  27 H :    0.027119
  28 C :   -0.077399
  29 H :    0.027136
  30 H :    0.023103
  31 H :    0.034891
  32 H :    0.020279
  33 H :    0.043874

  Mayer bond orders larger than 0.100000
B(  0-S ,  1-C ) :   1.1352 B(  0-S ,  4-C ) :   1.1563 B(  1-C ,  2-C ) :   1.5916
B(  1-C ,  4-C ) :   0.1050 B(  1-C , 32-H ) :   0.9739 B(  2-C ,  3-C ) :   1.2750
B(  2-C ,  6-C ) :   1.0268 B(  3-C ,  4-C ) :   1.5412 B(  3-C ,  5-H ) :   0.9850
B(  4-C , 20-C ) :   1.0507 B(  6-C ,  7-H ) :   0.9370 B(  6-C ,  8-H ) :   0.9330
B(  6-C ,  9-C ) :   1.0622 B(  9-C , 10-H ) :   0.9558 B(  9-C , 11-H ) :   0.9515
B(  9-C , 12-C ) :   1.0869 B( 12-C , 13-H ) :   0.9723 B( 12-C , 14-H ) :   0.9714
B( 12-C , 15-H ) :   0.9709 B( 16-S , 17-C ) :   1.1511 B( 16-S , 20-C ) :   1.1489
B( 17-C , 18-C ) :   1.6202 B( 17-C , 33-H ) :   0.9572 B( 18-C , 19-C ) :   1.2362
B( 18-C , 21-H ) :   0.9792 B( 19-C , 20-C ) :   1.5931 B( 19-C , 22-C ) :   1.0149
B( 22-C , 23-H ) :   0.9358 B( 22-C , 24-H ) :   0.9354 B( 22-C , 25-C ) :   1.0765
B( 25-C , 26-H ) :   0.9607 B( 25-C , 27-H ) :   0.9504 B( 25-C , 28-C ) :   1.0701
B( 28-C , 29-H ) :   0.9742 B( 28-C , 30-H ) :   0.9722 B( 28-C , 31-H ) :   0.9790

Dispersion correction           -0.013905295
FINAL SINGLE POINT ENERGY     -1339.856477557427

DIPOLE MOMENT
-------------
                                X             Y             Z
Electronic contribution:      0.01836       5.25150      -6.71157
Nuclear contribution   :     -0.05680      -5.56040       6.93511
                        -----------------------------------------
Total Dipole Moment    :     -0.03844      -0.30889       0.22354
                        -----------------------------------------
Magnitude (a.u.)       :      0.38323
Magnitude (Debye)      :      0.97409

Rotational constants in cm-1:     0.021552     0.008198     0.006256
Rotational constants in MHz :   646.125380   245.779951   187.558534

                             ****ORCA TERMINATED NORMALLY****
TOTAL RUN TIME: 0 days 0 hours 0 minutes 32 seconds 140 msec
