                         Program Version 4.2.1 -  RELEASE  -
|  1> ! wB97X-D3 SP def2-SVP
|  2> %pal
|  3> nprocs 16
|  4> end
|  5>
|  6> * xyz 0 1
|  7> S 	 -3.57936 	 27.4924 	 56.1503
|  8> C 	 -2.55264 	 26.1545 	 56.4762
|  9> C 	 -2.22363 	 25.3784 	 55.4286
| 10> C 	 -2.67995 	 25.9824 	 54.2064
| 11> C 	 -3.40849 	 27.1856 	 54.4217
| 12> H 	 -2.60024 	 25.6432 	 53.2417
| 13> C 	 -1.33001 	 24.127 	 55.4997
| 14> H 	 -1.86101 	 23.1651 	 55.7503
| 15> H 	 -0.753702 	 24.2178 	 56.4349
| 16> C 	 -0.353099 	 23.7687 	 54.3932
| 17> H 	 0.0484498 	 22.852 	 54.8278
| 18> H 	 -0.913371 	 23.5467 	 53.3907
| 19> C 	 0.804865 	 24.8234 	 54.2782
| 20> H 	 1.68833 	 24.4552 	 53.6258
| 21> H 	 0.392919 	 25.7777 	 53.9349
| 22> H 	 1.3023 	 25.0716 	 55.2118
| 23> S 	 -2.91597 	 28.2049 	 51.8793
| 24> C 	 -3.8193 	 29.5881 	 51.3032
| 25> C 	 -4.87756 	 29.9002 	 52.0877
| 26> C 	 -4.89666 	 29.0774 	 53.3163
| 27> C 	 -3.96066 	 28.0844 	 53.3517
| 28> H 	 -5.41265 	 30.8148 	 51.8354
| 29> C 	 -5.8791 	 29.4801 	 54.3315
| 30> H 	 -5.51668 	 30.2371 	 55.0271
| 31> H 	 -5.93488 	 28.6506 	 55.0969
| 32> C 	 -7.30532 	 29.9223 	 53.9345
| 33> H 	 -7.23693 	 30.8822 	 53.4296
| 34> H 	 -7.85201 	 30.0356 	 54.844
| 35> C 	 -7.97289 	 28.8653 	 53.0493
| 36> H 	 -8.86251 	 29.3733 	 52.701
| 37> H 	 -8.15619 	 28.0107 	 53.6938
| 38> H 	 -7.37005 	 28.4893 	 52.2678
| 39> H 	 -2.38857 	 25.9458 	 57.5088
| 40> H 	 -3.51506 	 30.1855 	 50.4615
| 41> *
| 42>
| 43>                          ****END OF INPUT****

CARTESIAN COORDINATES (ANGSTROEM)
---------------------------------
  S     -3.579360   27.492400   56.150300
  C     -2.552640   26.154500   56.476200
  C     -2.223630   25.378400   55.428600
  C     -2.679950   25.982400   54.206400
  C     -3.408490   27.185600   54.421700
  H     -2.600240   25.643200   53.241700
  C     -1.330010   24.127000   55.499700
  H     -1.861010   23.165100   55.750300
  H     -0.753702   24.217800   56.434900
  C     -0.353099   23.768700   54.393200
  H      0.048450   22.852000   54.827800
  H     -0.913371   23.546700   53.390700
  C      0.804865   24.823400   54.278200
  H      1.688330   24.455200   53.625800
  H      0.392919   25.777700   53.934900
  H      1.302300   25.071600   55.211800
  S     -2.915970   28.204900   51.879300
  C     -3.819300   29.588100   51.303200
  C     -4.877560   29.900200   52.087700
  C     -4.896660   29.077400   53.316300
  C     -3.960660   28.084400   53.351700
  H     -5.412650   30.814800   51.835400
  C     -5.879100   29.480100   54.331500
  H     -5.516680   30.237100   55.027100
  H     -5.934880   28.650600   55.096900
  C     -7.305320   29.922300   53.934500
  H     -7.236930   30.882200   53.429600
  H     -7.852010   30.035600   54.844000
  C     -7.972890   28.865300   53.049300
  H     -8.862510   29.373300   52.701000
  H     -8.156190   28.010700   53.693800
  H     -7.370050   28.489300   52.267800
  H     -2.388570   25.945800   57.508800
  H     -3.515060   30.185500   50.461500

 Total Charge           Charge          ....    0
 Multiplicity           Mult            ....    1
 Number of Electrons    NEL             ....  134
 Basis Dimension        Dim             ....  322

ORBITAL ENERGIES
----------------

  NO   OCC          E(Eh)            E(eV)
   0   2.0000     -88.969391     -2420.9802
   1   2.0000     -88.960944     -2420.7504
   2   2.0000     -10.338838      -281.3341
   3   2.0000     -10.334081      -281.2046
   4   2.0000     -10.315925      -280.7106
   5   2.0000     -10.307108      -280.4707
   6   2.0000     -10.306738      -280.4606
   7   2.0000     -10.303017      -280.3594
   8   2.0000     -10.299181      -280.2550
   9   2.0000     -10.298016      -280.2233
  10   2.0000     -10.294459      -280.1265
  11   2.0000     -10.293522      -280.1010
  12   2.0000     -10.288400      -279.9616
  13   2.0000     -10.283986      -279.8415
  14   2.0000     -10.283708      -279.8339
  15   2.0000     -10.267092      -279.3818
  16   2.0000      -8.084183      -219.9818
  17   2.0000      -8.075236      -219.7383
  18   2.0000      -6.042632      -164.4284
  19   2.0000      -6.038746      -164.3226
  20   2.0000      -6.034968      -164.2198
  21   2.0000      -6.034001      -164.1935
  22   2.0000      -6.029943      -164.0831
  23   2.0000      -6.025614      -163.9653
  24   2.0000      -1.003403       -27.3040
  25   2.0000      -0.984253       -26.7829
  26   2.0000      -0.911276       -24.7971
  27   2.0000      -0.907892       -24.7050
  28   2.0000      -0.868865       -23.6430
  29   2.0000      -0.850100       -23.1324
  30   2.0000      -0.842610       -22.9286
  31   2.0000      -0.814323       -22.1589
  32   2.0000      -0.782848       -21.3024
  33   2.0000      -0.774770       -21.0826
  34   2.0000      -0.709589       -19.3089
  35   2.0000      -0.698049       -18.9949
  36   2.0000      -0.683522       -18.5996
  37   2.0000      -0.664966       -18.0946
  38   2.0000      -0.645548       -17.5663
  39   2.0000      -0.616844       -16.7852
  40   2.0000      -0.600375       -16.3370
  41   2.0000      -0.568395       -15.4668
  42   2.0000      -0.552089       -15.0231
  43   2.0000      -0.543145       -14.7797
  44   2.0000      -0.539910       -14.6917
  45   2.0000      -0.536798       -14.6070
  46   2.0000      -0.518034       -14.0964
  47   2.0000      -0.512553       -13.9473
  48   2.0000      -0.506903       -13.7935
  49   2.0000      -0.494784       -13.4638
  50   2.0000      -0.491041       -13.3619
  51   2.0000      -0.475228       -12.9316
  52   2.0000      -0.469098       -12.7648
  53   2.0000      -0.462053       -12.5731
  54   2.0000      -0.457238       -12.4421
  55   2.0000      -0.450317       -12.2538
  56   2.0000      -0.448600       -12.2070
  57   2.0000      -0.427700       -11.6383
  58   2.0000      -0.425921       -11.5899
  59   2.0000      -0.421222       -11.4620
  60   2.0000      -0.419552       -11.4166
  61   2.0000      -0.415849       -11.3158
  62   2.0000      -0.412148       -11.2151
  63   2.0000      -0.360031        -9.7969
  64   2.0000      -0.333000        -9.0614
  65   2.0000      -0.325186        -8.8488
  66   2.0000      -0.287511        -7.8236
  67   0.0000       0.026889         0.7317
  68   0.0000       0.076386         2.0786
  69   0.0000       0.103608         2.8193
  70   0.0000       0.113834         3.0976
  71   0.0000       0.130763         3.5582

MULLIKEN ATOMIC CHARGES
-----------------------
   0 S :    0.109661
   1 C :   -0.131553
   2 C :   -0.008967
   3 C :    0.014068
   4 C :   -0.131055
   5 H :   -0.017729
   6 C :    0.023010
   7 H :    0.043505
   8 H :    0.013473
   9 C :   -0.082184
  10 H :    0.031657
  11 H :    0.058497
  12 C :   -0.074717
  13 H :    0.048558
  14 H :    0.044937
  15 H :    0.024079
  16 S :    0.065418
  17 C :   -0.078799
  18 C :   -0.026812
  19 C :   -0.079369
  20 C :   -0.086570
  21 H :    0.030743
  22 C :   -0.000141
  23 H :    0.038100
  24 H :    0.011121
  25 C :   -0.064485
  26 H :    0.028079
  27 H :    0.028460
  28 C :   -0.021222
  29 H :    0.034551
  30 H :    0.025878
  31 H :    0.037569
  32 H :    0.037564
  33 H :    0.054676
Sum of atomic charges:   -0.0000000

LOEWDIN ATOMIC CHARGES
----------------------
   0 S :    0.417672
   1 C :   -0.196578
   2 C :   -0.063705
   3 C :   -0.057420
   4 C :   -0.179954
   5 H :    0.011675
   6 C :   -0.042844
   7 H :    0.039033
   8 H :    0.031434
   9 C :   -0.048711
  10 H :    0.029271
  11 H :    0.036723
  12 C :   -0.076906
  13 H :    0.035500
  14 H :    0.027459
  15 H :    0.023204
  16 S :    0.368639
  17 C :   -0.168482
  18 C :   -0.075218
  19 C :   -0.058537
  20 C :   -0.174021
  21 H :    0.036994
  22 C :   -0.052844
  23 H :    0.035360
  24 H :    0.023552
  25 C :   -0.032038
  26 H :    0.018048
  27 H :    0.025950
  28 C :   -0.057022
  29 H :    0.026791
  30 H :    0.027849
  31 H :    0.020883
  32 H :    0.019231
  33 H :    0.029012

  Mayer bond orders larger than 0.100000
B(  0-S ,  1-C ) :   1.1500 B(  0-S ,  4-C ) :   1.1497 B(  1-C ,  2-C ) :   1.6237
B(  1-C , 32-H ) :   0.9660 B(  2-C ,  3-C ) :   1.2281 B(  2-C ,  6-C ) :   1.0038
B(  3-C ,  4-C ) :   1.5511 B(  3-C ,  5-H ) :   1.0067 B(  4-C , 20-C ) :   1.0536
B(  6-C ,  7-H ) :   0.9358 B(  6-C ,  8-H ) :   0.9423 B(  6-C ,  9-C ) :   1.0806
B(  9-C , 10-H ) :   0.9508 B(  9-C , 11-H ) :   0.9495 B(  9-C , 12-C ) :   1.0652
B( 12-C , 13-H ) :   0.9769 B( 12-C , 14-H ) :   0.9769 B( 12-C , 15-H ) :   0.9735
B( 16-S , 17-C ) :   1.1406 B( 16-S , 20-C ) :   1.0891 B( 17-C , 18-C ) :   1.6811
B( 17-C , 33-H ) :   0.9609 B( 18-C , 19-C ) :   1.1590 B( 18-C , 21-H ) :   0.9873
B( 19-C , 20-C ) :   1.6638 B( 19-C , 22-C ) :   1.0613 B( 22-C , 23-H ) :   0.9227
B( 22-C , 24-H ) :   0.9267 B( 22-C , 25-C ) :   1.0807 B( 25-C , 26-H ) :   0.9507
B( 25-C , 27-H ) :   0.9512 B( 25-C , 28-C ) :   1.0776 B( 28-C , 29-H ) :   0.9749
B( 28-C , 30-H ) :   0.9742 B( 28-C , 31-H ) :   0.9760

Dispersion correction           -0.014311075
FINAL SINGLE POINT ENERGY     -1339.866057142980

DIPOLE MOMENT
-------------
                                X             Y             Z
Electronic contribution:      1.57851       6.09787      -0.79302
Nuclear contribution   :     -1.61820      -6.02882       0.98971
                        -----------------------------------------
Total Dipole Moment    :     -0.03968       0.06904       0.19669
                        -----------------------------------------
Magnitude (a.u.)       :      0.21220
Magnitude (Debye)      :      0.53936

Rotational constants in cm-1:     0.024440     0.007691     0.006370
Rotational constants in MHz :   732.677874   230.564128   190.974170

                             ****ORCA TERMINATED NORMALLY****
TOTAL RUN TIME: 0 days 0 hours 0 minutes 34 seconds 495 msec
