                         Program Version 4.2.1 -  RELEASE  -
|  1> ! wB97X-D3 SP def2-SVP
|  2> %pal
|  3> nprocs 16
|  4> end
|  5>
|  6> * xyz 0 1
|  7> S 	 17.1535 	 9.0955 	 88.9743
|  8> C 	 18.2482 	 9.43148 	 87.6296
|  9> C 	 17.9165 	 10.583 	 87.0349
| 10> C 	 16.6666 	 11.1161 	 87.4188
| 11> C 	 16.1536 	 10.4357 	 88.514
| 12> H 	 16.2502 	 12.052 	 87.1767
| 13> C 	 18.8368 	 11.29 	 86.0083
| 14> H 	 18.3482 	 11.7485 	 85.155
| 15> H 	 19.4419 	 10.5394 	 85.513
| 16> C 	 19.8332 	 12.3673 	 86.6523
| 17> H 	 20.4962 	 11.9733 	 87.3469
| 18> H 	 20.4783 	 12.847 	 85.912
| 19> C 	 19.2149 	 13.4217 	 87.4859
| 20> H 	 19.9894 	 14.1129 	 87.8116
| 21> H 	 18.5997 	 14.105 	 86.936
| 22> H 	 18.6449 	 12.9548 	 88.3045
| 23> S 	 14.6666 	 12.2612 	 90.0453
| 24> C 	 13.0327 	 11.7173 	 90.6417
| 25> C 	 12.6731 	 10.5449 	 90.0229
| 26> C 	 13.6766 	 10.0536 	 89.1542
| 27> C 	 14.9361 	 10.7053 	 89.2205
| 28> H 	 11.7644 	 10.0712 	 90.3718
| 29> C 	 13.5139 	 8.7634 	 88.4191
| 30> H 	 14.0996 	 8.77154 	 87.5354
| 31> H 	 12.5353 	 8.76645 	 87.9905
| 32> C 	 13.6063 	 7.47888 	 89.2799
| 33> H 	 14.5057 	 7.68828 	 89.8755
| 34> H 	 13.8289 	 6.70616 	 88.4736
| 35> C 	 12.3248 	 7.13904 	 90.0341
| 36> H 	 11.4767 	 7.74246 	 89.7192
| 37> H 	 12.4751 	 7.105 	 91.102
| 38> H 	 11.956 	 6.19259 	 89.7149
| 39> H 	 19.1041 	 8.78826 	 87.3494
| 40> H 	 12.4374 	 12.2205 	 91.391
| 41> *
| 42>
| 43>                          ****END OF INPUT****

CARTESIAN COORDINATES (ANGSTROEM)
---------------------------------
  S     17.153500    9.095500   88.974300
  C     18.248200    9.431480   87.629600
  C     17.916500   10.583000   87.034900
  C     16.666600   11.116100   87.418800
  C     16.153600   10.435700   88.514000
  H     16.250200   12.052000   87.176700
  C     18.836800   11.290000   86.008300
  H     18.348200   11.748500   85.155000
  H     19.441900   10.539400   85.513000
  C     19.833200   12.367300   86.652300
  H     20.496200   11.973300   87.346900
  H     20.478300   12.847000   85.912000
  C     19.214900   13.421700   87.485900
  H     19.989400   14.112900   87.811600
  H     18.599700   14.105000   86.936000
  H     18.644900   12.954800   88.304500
  S     14.666600   12.261200   90.045300
  C     13.032700   11.717300   90.641700
  C     12.673100   10.544900   90.022900
  C     13.676600   10.053600   89.154200
  C     14.936100   10.705300   89.220500
  H     11.764400   10.071200   90.371800
  C     13.513900    8.763400   88.419100
  H     14.099600    8.771540   87.535400
  H     12.535300    8.766450   87.990500
  C     13.606300    7.478880   89.279900
  H     14.505700    7.688280   89.875500
  H     13.828900    6.706160   88.473600
  C     12.324800    7.139040   90.034100
  H     11.476700    7.742460   89.719200
  H     12.475100    7.105000   91.102000
  H     11.956000    6.192590   89.714900
  H     19.104100    8.788260   87.349400
  H     12.437400   12.220500   91.391000

 Total Charge           Charge          ....    0
 Multiplicity           Mult            ....    1
 Number of Electrons    NEL             ....  134
 Basis Dimension        Dim             ....  322

ORBITAL ENERGIES
----------------

  NO   OCC          E(Eh)            E(eV)
   0   2.0000     -88.968597     -2420.9586
   1   2.0000     -88.962736     -2420.7991
   2   2.0000     -10.328129      -281.0427
   3   2.0000     -10.326666      -281.0029
   4   2.0000     -10.322761      -280.8966
   5   2.0000     -10.314477      -280.6712
   6   2.0000     -10.302151      -280.3358
   7   2.0000     -10.299877      -280.2739
   8   2.0000     -10.295857      -280.1645
   9   2.0000     -10.293586      -280.1027
  10   2.0000     -10.290798      -280.0268
  11   2.0000     -10.287902      -279.9480
  12   2.0000     -10.278395      -279.6893
  13   2.0000     -10.275124      -279.6003
  14   2.0000     -10.274380      -279.5801
  15   2.0000     -10.266800      -279.3738
  16   2.0000      -8.083146      -219.9536
  17   2.0000      -8.075904      -219.7565
  18   2.0000      -6.041568      -164.3994
  19   2.0000      -6.037724      -164.2948
  20   2.0000      -6.034548      -164.2084
  21   2.0000      -6.033956      -164.1923
  22   2.0000      -6.030681      -164.1032
  23   2.0000      -6.026555      -163.9909
  24   2.0000      -1.008309       -27.4375
  25   2.0000      -0.980206       -26.6728
  26   2.0000      -0.907554       -24.6958
  27   2.0000      -0.905802       -24.6481
  28   2.0000      -0.875167       -23.8145
  29   2.0000      -0.851220       -23.1629
  30   2.0000      -0.841478       -22.8978
  31   2.0000      -0.819062       -22.2878
  32   2.0000      -0.786071       -21.3901
  33   2.0000      -0.770282       -20.9604
  34   2.0000      -0.710270       -19.3274
  35   2.0000      -0.695685       -18.9306
  36   2.0000      -0.691833       -18.8257
  37   2.0000      -0.659694       -17.9512
  38   2.0000      -0.644912       -17.5489
  39   2.0000      -0.614526       -16.7221
  40   2.0000      -0.596872       -16.2417
  41   2.0000      -0.576842       -15.6967
  42   2.0000      -0.553168       -15.0525
  43   2.0000      -0.551581       -15.0093
  44   2.0000      -0.540177       -14.6990
  45   2.0000      -0.533893       -14.5280
  46   2.0000      -0.522207       -14.2100
  47   2.0000      -0.515666       -14.0320
  48   2.0000      -0.501982       -13.6596
  49   2.0000      -0.496313       -13.5054
  50   2.0000      -0.487799       -13.2737
  51   2.0000      -0.482356       -13.1256
  52   2.0000      -0.474748       -12.9186
  53   2.0000      -0.467896       -12.7321
  54   2.0000      -0.460718       -12.5368
  55   2.0000      -0.442222       -12.0335
  56   2.0000      -0.434333       -11.8188
  57   2.0000      -0.432131       -11.7589
  58   2.0000      -0.430419       -11.7123
  59   2.0000      -0.420912       -11.4536
  60   2.0000      -0.415213       -11.2985
  61   2.0000      -0.412734       -11.2311
  62   2.0000      -0.407283       -11.0827
  63   2.0000      -0.336698        -9.1620
  64   2.0000      -0.335619        -9.1326
  65   2.0000      -0.325471        -8.8565
  66   2.0000      -0.299094        -8.1388
  67   0.0000       0.031249         0.8503
  68   0.0000       0.055123         1.5000
  69   0.0000       0.105778         2.8784
  70   0.0000       0.112325         3.0565
  71   0.0000       0.128544         3.4979

MULLIKEN ATOMIC CHARGES
-----------------------
   0 S :    0.116351
   1 C :   -0.141768
   2 C :   -0.077322
   3 C :    0.073101
   4 C :   -0.197571
   5 H :    0.001407
   6 C :    0.081268
   7 H :    0.026318
   8 H :    0.012710
   9 C :   -0.045122
  10 H :    0.009002
  11 H :    0.023077
  12 C :   -0.060501
  13 H :    0.025782
  14 H :    0.009958
  15 H :    0.054484
  16 S :    0.082361
  17 C :   -0.098237
  18 C :   -0.019776
  19 C :   -0.034304
  20 C :   -0.139906
  21 H :    0.027740
  22 C :    0.056799
  23 H :    0.018784
  24 H :    0.002592
  25 C :   -0.073484
  26 H :    0.030620
  27 H :    0.043243
  28 C :   -0.007563
  29 H :    0.020245
  30 H :    0.045270
  31 H :    0.015961
  32 H :    0.061559
  33 H :    0.056921
Sum of atomic charges:   -0.0000000

LOEWDIN ATOMIC CHARGES
----------------------
   0 S :    0.415117
   1 C :   -0.192734
   2 C :   -0.068126
   3 C :   -0.053382
   4 C :   -0.194725
   5 H :    0.026644
   6 C :   -0.024830
   7 H :    0.028187
   8 H :    0.027480
   9 C :   -0.037960
  10 H :    0.016382
  11 H :    0.024430
  12 C :   -0.067380
  13 H :    0.029315
  14 H :    0.014169
  15 H :    0.030379
  16 S :    0.357838
  17 C :   -0.153978
  18 C :   -0.072169
  19 C :   -0.047122
  20 C :   -0.200649
  21 H :    0.036323
  22 C :   -0.040059
  23 H :    0.025360
  24 H :    0.023766
  25 C :   -0.039015
  26 H :    0.020681
  27 H :    0.035256
  28 C :   -0.068206
  29 H :    0.024290
  30 H :    0.030412
  31 H :    0.026586
  32 H :    0.037789
  33 H :    0.029931

  Mayer bond orders larger than 0.100000
B(  0-S ,  1-C ) :   1.1284 B(  0-S ,  4-C ) :   1.1665 B(  1-C ,  2-C ) :   1.6371
B(  1-C , 32-H ) :   0.9635 B(  2-C ,  3-C ) :   1.2270 B(  2-C ,  6-C ) :   1.0167
B(  3-C ,  4-C ) :   1.5763 B(  3-C ,  5-H ) :   1.0007 B(  4-C , 20-C ) :   1.0379
B(  6-C ,  7-H ) :   0.9503 B(  6-C ,  8-H ) :   0.9414 B(  6-C ,  9-C ) :   1.0546
B(  9-C , 10-H ) :   0.9567 B(  9-C , 11-H ) :   0.9563 B(  9-C , 12-C ) :   1.0941
B( 12-C , 13-H ) :   0.9678 B( 12-C , 14-H ) :   0.9730 B( 12-C , 15-H ) :   0.9691
B( 16-S , 17-C ) :   1.1438 B( 16-S , 20-C ) :   1.1119 B( 17-C , 18-C ) :   1.6265
B( 17-C , 20-C ) :   0.1094 B( 17-C , 33-H ) :   0.9664 B( 18-C , 19-C ) :   1.2247
B( 18-C , 21-H ) :   0.9880 B( 19-C , 20-C ) :   1.5767 B( 19-C , 22-C ) :   1.0767
B( 22-C , 23-H ) :   0.9249 B( 22-C , 24-H ) :   0.9250 B( 22-C , 25-C ) :   1.0561
B( 25-C , 26-H ) :   0.9586 B( 25-C , 27-H ) :   0.9597 B( 25-C , 28-C ) :   1.0598
B( 28-C , 29-H ) :   0.9719 B( 28-C , 30-H ) :   0.9759 B( 28-C , 31-H ) :   0.9674

Dispersion correction           -0.015419696
FINAL SINGLE POINT ENERGY     -1339.855041203052

DIPOLE MOMENT
-------------
                                X             Y             Z
Electronic contribution:     -1.84910       3.04968       7.56743
Nuclear contribution   :      1.74556      -3.21973      -7.84373
                        -----------------------------------------
Total Dipole Moment    :     -0.10353      -0.17005      -0.27630
                        -----------------------------------------
Magnitude (a.u.)       :      0.34056
Magnitude (Debye)      :      0.86563

Rotational constants in cm-1:     0.024034     0.008347     0.006716
Rotational constants in MHz :   720.519012   250.242981   201.332277

                             ****ORCA TERMINATED NORMALLY****
TOTAL RUN TIME: 0 days 0 hours 0 minutes 36 seconds 152 msec
