                         Program Version 4.2.1 -  RELEASE  -
|  1> ! wB97X-D3 SP def2-SVP
|  2> %pal
|  3> nprocs 16
|  4> end
|  5>
|  6> * xyz 0 1
|  7> S 	 -46.8621 	 63.1367 	 141.579
|  8> C 	 -46.3903 	 61.4734 	 141.774
|  9> C 	 -47.1752 	 60.8465 	 142.702
| 10> C 	 -48.212 	 61.6745 	 143.189
| 11> C 	 -48.2878 	 62.9341 	 142.637
| 12> H 	 -48.9842 	 61.4466 	 143.898
| 13> C 	 -46.9288 	 59.382 	 143.163
| 14> H 	 -45.9184 	 59.0763 	 142.851
| 15> H 	 -47.5329 	 58.5958 	 142.669
| 16> C 	 -46.8004 	 59.3263 	 144.724
| 17> H 	 -45.9819 	 59.9586 	 144.974
| 18> H 	 -47.6363 	 59.7766 	 145.214
| 19> C 	 -46.5192 	 57.9357 	 145.337
| 20> H 	 -47.3097 	 57.236 	 145.308
| 21> H 	 -45.6688 	 57.5057 	 144.843
| 22> H 	 -46.4297 	 58.0367 	 146.392
| 23> S 	 -48.612 	 65.6246 	 143.108
| 24> C 	 -50.1755 	 66.2879 	 143.332
| 25> C 	 -51.1034 	 65.318 	 143.238
| 26> C 	 -50.6475 	 63.9664 	 142.907
| 27> C 	 -49.2301 	 63.9954 	 142.86
| 28> H 	 -52.1035 	 65.621 	 143.458
| 29> C 	 -51.4714 	 62.83 	 142.623
| 30> H 	 -50.9019 	 61.9302 	 142.844
| 31> H 	 -51.651 	 62.7364 	 141.576
| 32> C 	 -52.7913 	 62.6564 	 143.426
| 33> H 	 -53.3704 	 63.5993 	 143.406
| 34> H 	 -52.606 	 62.4633 	 144.547
| 35> C 	 -53.6212 	 61.4939 	 142.839
| 36> H 	 -53.5574 	 61.3529 	 141.687
| 37> H 	 -54.6825 	 61.5004 	 143.125
| 38> H 	 -53.199 	 60.5526 	 143.145
| 39> H 	 -45.6695 	 60.939 	 141.189
| 40> H 	 -50.4144 	 67.2824 	 143.479
| 41> *
| 42>
| 43>                          ****END OF INPUT****

CARTESIAN COORDINATES (ANGSTROEM)
---------------------------------
  S    -46.862100   63.136700  141.579000
  C    -46.390300   61.473400  141.774000
  C    -47.175200   60.846500  142.702000
  C    -48.212000   61.674500  143.189000
  C    -48.287800   62.934100  142.637000
  H    -48.984200   61.446600  143.898000
  C    -46.928800   59.382000  143.163000
  H    -45.918400   59.076300  142.851000
  H    -47.532900   58.595800  142.669000
  C    -46.800400   59.326300  144.724000
  H    -45.981900   59.958600  144.974000
  H    -47.636300   59.776600  145.214000
  C    -46.519200   57.935700  145.337000
  H    -47.309700   57.236000  145.308000
  H    -45.668800   57.505700  144.843000
  H    -46.429700   58.036700  146.392000
  S    -48.612000   65.624600  143.108000
  C    -50.175500   66.287900  143.332000
  C    -51.103400   65.318000  143.238000
  C    -50.647500   63.966400  142.907000
  C    -49.230100   63.995400  142.860000
  H    -52.103500   65.621000  143.458000
  C    -51.471400   62.830000  142.623000
  H    -50.901900   61.930200  142.844000
  H    -51.651000   62.736400  141.576000
  C    -52.791300   62.656400  143.426000
  H    -53.370400   63.599300  143.406000
  H    -52.606000   62.463300  144.547000
  C    -53.621200   61.493900  142.839000
  H    -53.557400   61.352900  141.687000
  H    -54.682500   61.500400  143.125000
  H    -53.199000   60.552600  143.145000
  H    -45.669500   60.939000  141.189000
  H    -50.414400   67.282400  143.479000

 Total Charge           Charge          ....    0
 Multiplicity           Mult            ....    1
 Number of Electrons    NEL             ....  134
 Basis Dimension        Dim             ....  322

ORBITAL ENERGIES
----------------

  NO   OCC          E(Eh)            E(eV)
   0   2.0000     -88.963311     -2420.8148
   1   2.0000     -88.963206     -2420.8119
   2   2.0000     -10.330045      -281.0948
   3   2.0000     -10.328754      -281.0597
   4   2.0000     -10.311724      -280.5963
   5   2.0000     -10.307287      -280.4755
   6   2.0000     -10.306940      -280.4661
   7   2.0000     -10.301716      -280.3239
   8   2.0000     -10.300289      -280.2851
   9   2.0000     -10.299189      -280.2552
  10   2.0000     -10.292621      -280.0765
  11   2.0000     -10.289505      -279.9917
  12   2.0000     -10.287158      -279.9278
  13   2.0000     -10.286643      -279.9138
  14   2.0000     -10.283527      -279.8290
  15   2.0000     -10.271161      -279.4925
  16   2.0000      -8.078597      -219.8298
  17   2.0000      -8.077847      -219.8094
  18   2.0000      -6.037153      -164.2793
  19   2.0000      -6.036407      -164.2590
  20   2.0000      -6.032956      -164.1651
  21   2.0000      -6.032346      -164.1485
  22   2.0000      -6.029324      -164.0662
  23   2.0000      -6.028579      -164.0460
  24   2.0000      -1.008183       -27.4340
  25   2.0000      -0.986482       -26.8435
  26   2.0000      -0.915734       -24.9184
  27   2.0000      -0.905376       -24.6365
  28   2.0000      -0.875716       -23.8294
  29   2.0000      -0.851567       -23.1723
  30   2.0000      -0.843176       -22.9440
  31   2.0000      -0.821340       -22.3498
  32   2.0000      -0.784356       -21.3434
  33   2.0000      -0.772068       -21.0090
  34   2.0000      -0.714802       -19.4508
  35   2.0000      -0.706361       -19.2211
  36   2.0000      -0.696387       -18.9497
  37   2.0000      -0.655507       -17.8372
  38   2.0000      -0.643952       -17.5228
  39   2.0000      -0.623475       -16.9656
  40   2.0000      -0.607057       -16.5189
  41   2.0000      -0.568293       -15.4640
  42   2.0000      -0.562982       -15.3195
  43   2.0000      -0.559920       -15.2362
  44   2.0000      -0.532015       -14.4769
  45   2.0000      -0.525475       -14.2989
  46   2.0000      -0.519365       -14.1326
  47   2.0000      -0.511096       -13.9076
  48   2.0000      -0.509490       -13.8639
  49   2.0000      -0.500919       -13.6307
  50   2.0000      -0.497011       -13.5244
  51   2.0000      -0.482076       -13.1180
  52   2.0000      -0.472474       -12.8567
  53   2.0000      -0.468085       -12.7372
  54   2.0000      -0.460281       -12.5249
  55   2.0000      -0.454933       -12.3794
  56   2.0000      -0.446377       -12.1465
  57   2.0000      -0.435015       -11.8374
  58   2.0000      -0.433358       -11.7923
  59   2.0000      -0.422111       -11.4862
  60   2.0000      -0.420252       -11.4356
  61   2.0000      -0.414009       -11.2657
  62   2.0000      -0.410497       -11.1702
  63   2.0000      -0.354995        -9.6599
  64   2.0000      -0.332163        -9.0386
  65   2.0000      -0.326943        -8.8966
  66   2.0000      -0.287824        -7.8321
  67   0.0000       0.026112         0.7106
  68   0.0000       0.073267         1.9937
  69   0.0000       0.115660         3.1473
  70   0.0000       0.124698         3.3932
  71   0.0000       0.135073         3.6755

MULLIKEN ATOMIC CHARGES
-----------------------
   0 S :    0.102185
   1 C :   -0.102137
   2 C :   -0.079142
   3 C :    0.032491
   4 C :   -0.174035
   5 H :    0.012349
   6 C :    0.069439
   7 H :    0.005563
   8 H :    0.045349
   9 C :   -0.096547
  10 H :    0.028928
  11 H :    0.023117
  12 C :   -0.001318
  13 H :    0.013895
  14 H :    0.026352
  15 H :    0.023116
  16 S :    0.105835
  17 C :   -0.049196
  18 C :   -0.039823
  19 C :   -0.008647
  20 C :   -0.148553
  21 H :    0.003748
  22 C :    0.085058
  23 H :    0.003790
  24 H :    0.036486
  25 C :   -0.117354
  26 H :    0.038937
  27 H :    0.049648
  28 C :   -0.063818
  29 H :    0.036945
  30 H :    0.045056
  31 H :    0.022714
  32 H :    0.042236
  33 H :    0.027335
Sum of atomic charges:   -0.0000000

LOEWDIN ATOMIC CHARGES
----------------------
   0 S :    0.389952
   1 C :   -0.190973
   2 C :   -0.067412
   3 C :   -0.062635
   4 C :   -0.180035
   5 H :    0.028296
   6 C :   -0.031096
   7 H :    0.027052
   8 H :    0.031107
   9 C :   -0.034177
  10 H :    0.025218
  11 H :    0.015630
  12 C :   -0.058542
  13 H :    0.018609
  14 H :    0.022887
  15 H :    0.026793
  16 S :    0.412699
  17 C :   -0.183946
  18 C :   -0.069642
  19 C :   -0.048648
  20 C :   -0.196280
  21 H :    0.024053
  22 C :   -0.040503
  23 H :    0.033897
  24 H :    0.037049
  25 C :   -0.042157
  26 H :    0.020715
  27 H :    0.035635
  28 C :   -0.076430
  29 H :    0.034570
  30 H :    0.028882
  31 H :    0.021151
  32 H :    0.028442
  33 H :    0.019837

  Mayer bond orders larger than 0.100000
B(  0-S ,  1-C ) :   1.1394 B(  0-S ,  4-C ) :   1.1327 B(  1-C ,  2-C ) :   1.6267
B(  1-C ,  4-C ) :   0.1013 B(  1-C , 32-H ) :   0.9681 B(  2-C ,  3-C ) :   1.2322
B(  2-C ,  6-C ) :   1.0120 B(  3-C ,  4-C ) :   1.5881 B(  3-C ,  5-H ) :   0.9900
B(  4-C , 20-C ) :   1.0739 B(  6-C ,  7-H ) :   0.9420 B(  6-C ,  8-H ) :   0.9490
B(  6-C ,  9-C ) :   1.0448 B(  9-C , 10-H ) :   0.9564 B(  9-C , 11-H ) :   0.9623
B(  9-C , 12-C ) :   1.0892 B( 12-C , 13-H ) :   0.9739 B( 12-C , 14-H ) :   0.9746
B( 12-C , 15-H ) :   0.9702 B( 16-S , 17-C ) :   1.1419 B( 16-S , 20-C ) :   1.1459
B( 17-C , 18-C ) :   1.6386 B( 17-C , 33-H ) :   0.9740 B( 18-C , 19-C ) :   1.2087
B( 18-C , 21-H ) :   0.9917 B( 19-C , 20-C ) :   1.5567 B( 19-C , 22-C ) :   1.0771
B( 22-C , 23-H ) :   0.9174 B( 22-C , 24-H ) :   0.9128 B( 22-C , 25-C ) :   1.0533
B( 25-C , 26-H ) :   0.9586 B( 25-C , 27-H ) :   0.9564 B( 25-C , 28-C ) :   1.0688
B( 28-C , 29-H ) :   0.9739 B( 28-C , 30-H ) :   0.9747 B( 28-C , 31-H ) :   0.9743

Dispersion correction           -0.013283297
FINAL SINGLE POINT ENERGY     -1339.872802958886

DIPOLE MOMENT
-------------
                                X             Y             Z
Electronic contribution:     12.46143      25.84020      -9.66952
Nuclear contribution   :    -12.92024     -26.37470       9.87734
                        -----------------------------------------
Total Dipole Moment    :     -0.45881      -0.53451       0.20782
                        -----------------------------------------
Magnitude (a.u.)       :      0.73444
Magnitude (Debye)      :      1.86679

Rotational constants in cm-1:     0.016228     0.008478     0.006329
Rotational constants in MHz :   486.499926   254.174933   189.749530

                             ****ORCA TERMINATED NORMALLY****
TOTAL RUN TIME: 0 days 0 hours 0 minutes 33 seconds 770 msec
