                         Program Version 4.2.1 -  RELEASE  -
|  1> ! wB97X-D3 SP def2-SVP
|  2> %pal
|  3> nprocs 16
|  4> end
|  5>
|  6> * xyz 0 1
|  7> S 	 -56.9027 	 52.718 	 135.157
|  8> C 	 -55.1686 	 53.2995 	 135.203
|  9> C 	 -54.4497 	 52.7369 	 136.262
| 10> C 	 -55.3827 	 52.126 	 137.165
| 11> C 	 -56.6962 	 51.9446 	 136.772
| 12> H 	 -55.1422 	 51.618 	 138.143
| 13> C 	 -52.9917 	 52.8472 	 136.463
| 14> H 	 -52.5274 	 52.8589 	 135.455
| 15> H 	 -52.5255 	 52.0582 	 137.09
| 16> C 	 -52.4686 	 54.1403 	 137.133
| 17> H 	 -52.8224 	 55.054 	 136.621
| 18> H 	 -52.7618 	 54.058 	 138.138
| 19> C 	 -50.9363 	 54.1844 	 137.121
| 20> H 	 -50.5909 	 55.0219 	 137.822
| 21> H 	 -50.448 	 53.3312 	 137.387
| 22> H 	 -50.4075 	 54.3951 	 136.151
| 23> S 	 -57.8845 	 49.4867 	 136.952
| 24> C 	 -59.165 	 49.2844 	 138.164
| 25> C 	 -59.2986 	 50.4242 	 138.973
| 26> C 	 -58.424 	 51.4824 	 138.601
| 27> C 	 -57.7133 	 51.1776 	 137.46
| 28> H 	 -60.0469 	 50.3199 	 139.726
| 29> C 	 -58.1946 	 52.5861 	 139.509
| 30> H 	 -59.1407 	 52.8842 	 139.863
| 31> H 	 -57.8432 	 53.4467 	 138.94
| 32> C 	 -57.3138 	 52.2536 	 140.729
| 33> H 	 -56.3842 	 51.7767 	 140.474
| 34> H 	 -57.8886 	 51.5392 	 141.282
| 35> C 	 -56.8581 	 53.4474 	 141.552
| 36> H 	 -57.7157 	 53.9783 	 141.909
| 37> H 	 -56.3739 	 54.0956 	 140.831
| 38> H 	 -56.177 	 53.2563 	 142.401
| 39> H 	 -54.6713 	 53.5611 	 134.272
| 40> H 	 -59.643 	 48.3945 	 138.475
| 41> *
| 42>
| 43>                          ****END OF INPUT****

CARTESIAN COORDINATES (ANGSTROEM)
---------------------------------
  S    -56.902700   52.718000  135.157000
  C    -55.168600   53.299500  135.203000
  C    -54.449700   52.736900  136.262000
  C    -55.382700   52.126000  137.165000
  C    -56.696200   51.944600  136.772000
  H    -55.142200   51.618000  138.143000
  C    -52.991700   52.847200  136.463000
  H    -52.527400   52.858900  135.455000
  H    -52.525500   52.058200  137.090000
  C    -52.468600   54.140300  137.133000
  H    -52.822400   55.054000  136.621000
  H    -52.761800   54.058000  138.138000
  C    -50.936300   54.184400  137.121000
  H    -50.590900   55.021900  137.822000
  H    -50.448000   53.331200  137.387000
  H    -50.407500   54.395100  136.151000
  S    -57.884500   49.486700  136.952000
  C    -59.165000   49.284400  138.164000
  C    -59.298600   50.424200  138.973000
  C    -58.424000   51.482400  138.601000
  C    -57.713300   51.177600  137.460000
  H    -60.046900   50.319900  139.726000
  C    -58.194600   52.586100  139.509000
  H    -59.140700   52.884200  139.863000
  H    -57.843200   53.446700  138.940000
  C    -57.313800   52.253600  140.729000
  H    -56.384200   51.776700  140.474000
  H    -57.888600   51.539200  141.282000
  C    -56.858100   53.447400  141.552000
  H    -57.715700   53.978300  141.909000
  H    -56.373900   54.095600  140.831000
  H    -56.177000   53.256300  142.401000
  H    -54.671300   53.561100  134.272000
  H    -59.643000   48.394500  138.475000

 Total Charge           Charge          ....    0
 Multiplicity           Mult            ....    1
 Number of Electrons    NEL             ....  134
 Basis Dimension        Dim             ....  322

ORBITAL ENERGIES
----------------

  NO   OCC          E(Eh)            E(eV)
   0   2.0000     -88.968713     -2420.9618
   1   2.0000     -88.964259     -2420.8406
   2   2.0000     -10.331329      -281.1297
   3   2.0000     -10.325614      -280.9743
   4   2.0000     -10.320522      -280.8357
   5   2.0000     -10.318384      -280.7775
   6   2.0000     -10.308073      -280.4969
   7   2.0000     -10.301684      -280.3231
   8   2.0000     -10.299301      -280.2582
   9   2.0000     -10.297885      -280.2197
  10   2.0000     -10.293728      -280.1066
  11   2.0000     -10.288440      -279.9627
  12   2.0000     -10.283377      -279.8249
  13   2.0000     -10.283163      -279.8191
  14   2.0000     -10.280314      -279.7416
  15   2.0000     -10.276292      -279.6321
  16   2.0000      -8.082540      -219.9371
  17   2.0000      -8.077064      -219.7881
  18   2.0000      -6.041044      -164.3852
  19   2.0000      -6.037326      -164.2840
  20   2.0000      -6.035713      -164.2401
  21   2.0000      -6.033195      -164.1716
  22   2.0000      -6.031971      -164.1383
  23   2.0000      -6.027650      -164.0207
  24   2.0000      -1.001212       -27.2444
  25   2.0000      -0.975581       -26.5469
  26   2.0000      -0.917297       -24.9609
  27   2.0000      -0.914502       -24.8849
  28   2.0000      -0.869837       -23.6695
  29   2.0000      -0.857180       -23.3251
  30   2.0000      -0.842338       -22.9212
  31   2.0000      -0.812754       -22.1162
  32   2.0000      -0.784669       -21.3519
  33   2.0000      -0.771460       -20.9925
  34   2.0000      -0.709303       -19.3011
  35   2.0000      -0.704325       -19.1657
  36   2.0000      -0.699672       -19.0390
  37   2.0000      -0.664453       -18.0807
  38   2.0000      -0.641314       -17.4510
  39   2.0000      -0.612547       -16.6683
  40   2.0000      -0.595092       -16.1933
  41   2.0000      -0.581172       -15.8145
  42   2.0000      -0.573586       -15.6081
  43   2.0000      -0.558698       -15.2029
  44   2.0000      -0.528677       -14.3860
  45   2.0000      -0.526077       -14.3153
  46   2.0000      -0.520118       -14.1531
  47   2.0000      -0.516206       -14.0467
  48   2.0000      -0.505882       -13.7657
  49   2.0000      -0.498431       -13.5630
  50   2.0000      -0.490923       -13.3587
  51   2.0000      -0.472506       -12.8575
  52   2.0000      -0.465294       -12.6613
  53   2.0000      -0.461358       -12.5542
  54   2.0000      -0.455118       -12.3844
  55   2.0000      -0.446790       -12.1578
  56   2.0000      -0.440863       -11.9965
  57   2.0000      -0.438385       -11.9291
  58   2.0000      -0.433557       -11.7977
  59   2.0000      -0.429581       -11.6895
  60   2.0000      -0.424411       -11.5488
  61   2.0000      -0.421297       -11.4641
  62   2.0000      -0.419005       -11.4017
  63   2.0000      -0.336574        -9.1586
  64   2.0000      -0.326440        -8.8829
  65   2.0000      -0.321224        -8.7410
  66   2.0000      -0.307171        -8.3586
  67   0.0000       0.032053         0.8722
  68   0.0000       0.046460         1.2642
  69   0.0000       0.101833         2.7710
  70   0.0000       0.109263         2.9732
  71   0.0000       0.121904         3.3172

MULLIKEN ATOMIC CHARGES
-----------------------
   0 S :    0.086998
   1 C :   -0.113067
   2 C :   -0.062340
   3 C :    0.025970
   4 C :   -0.172913
   5 H :    0.025750
   6 C :    0.019653
   7 H :    0.026928
   8 H :    0.034331
   9 C :   -0.034702
  10 H :    0.041288
  11 H :    0.021224
  12 C :   -0.059958
  13 H :    0.042709
  14 H :    0.003615
  15 H :    0.029960
  16 S :    0.118539
  17 C :   -0.078303
  18 C :   -0.057729
  19 C :    0.003700
  20 C :   -0.192512
  21 H :    0.013043
  22 C :    0.109565
  23 H :    0.002494
  24 H :    0.022074
  25 C :   -0.054258
  26 H :    0.019176
  27 H :    0.015700
  28 C :   -0.029982
  29 H :    0.018606
  30 H :    0.026852
  31 H :    0.045817
  32 H :    0.059571
  33 H :    0.042202
Sum of atomic charges:    0.0000000

LOEWDIN ATOMIC CHARGES
----------------------
   0 S :    0.352129
   1 C :   -0.176181
   2 C :   -0.059570
   3 C :   -0.066135
   4 C :   -0.186830
   5 H :    0.035807
   6 C :   -0.039032
   7 H :    0.035092
   8 H :    0.036828
   9 C :   -0.028461
  10 H :    0.030149
  11 H :    0.018561
  12 C :   -0.071203
  13 H :    0.036968
  14 H :    0.006547
  15 H :    0.029415
  16 S :    0.396066
  17 C :   -0.171426
  18 C :   -0.064253
  19 C :   -0.047359
  20 C :   -0.196874
  21 H :    0.028854
  22 C :   -0.028737
  23 H :    0.026270
  24 H :    0.031903
  25 C :   -0.030346
  26 H :    0.020149
  27 H :    0.017912
  28 C :   -0.061945
  29 H :    0.018866
  30 H :    0.026689
  31 H :    0.031609
  32 H :    0.026400
  33 H :    0.022140

  Mayer bond orders larger than 0.100000
B(  0-S ,  1-C ) :   1.1273 B(  0-S ,  4-C ) :   1.1153 B(  1-C ,  2-C ) :   1.6208
B(  1-C ,  4-C ) :   0.1024 B(  1-C , 32-H ) :   0.9556 B(  2-C ,  3-C ) :   1.2119
B(  2-C ,  6-C ) :   1.0468 B(  3-C ,  4-C ) :   1.6268 B(  3-C ,  5-H ) :   0.9756
B(  4-C , 20-C ) :   1.0383 B(  6-C ,  7-H ) :   0.9348 B(  6-C ,  8-H ) :   0.9413
B(  6-C ,  9-C ) :   1.0687 B(  9-C , 10-H ) :   0.9553 B(  9-C , 11-H ) :   0.9554
B(  9-C , 12-C ) :   1.0799 B( 12-C , 13-H ) :   0.9741 B( 12-C , 14-H ) :   0.9722
B( 12-C , 15-H ) :   0.9735 B( 16-S , 17-C ) :   1.1463 B( 16-S , 20-C ) :   1.1375
B( 17-C , 18-C ) :   1.6381 B( 17-C , 20-C ) :   0.1011 B( 17-C , 33-H ) :   0.9667
B( 18-C , 19-C ) :   1.2016 B( 18-C , 21-H ) :   0.9939 B( 19-C , 20-C ) :   1.6057
B( 19-C , 22-C ) :   1.0862 B( 22-C , 23-H ) :   0.9120 B( 22-C , 24-H ) :   0.9167
B( 22-C , 25-C ) :   1.0549 B( 25-C , 26-H ) :   0.9575 B( 25-C , 27-H ) :   0.9513
B( 25-C , 28-C ) :   1.0825 B( 28-C , 29-H ) :   0.9735 B( 28-C , 30-H ) :   0.9740
B( 28-C , 31-H ) :   0.9744

Dispersion correction           -0.014088911
FINAL SINGLE POINT ENERGY     -1339.854965821384

DIPOLE MOMENT
-------------
                                X             Y             Z
Electronic contribution:    -19.46410     -14.38569     -18.11376
Nuclear contribution   :     19.90313      14.36448      18.77432
                        -----------------------------------------
Total Dipole Moment    :      0.43903      -0.02121       0.66056
                        -----------------------------------------
Magnitude (a.u.)       :      0.79344
Magnitude (Debye)      :      2.01676

Rotational constants in cm-1:     0.017951     0.008359     0.006543
Rotational constants in MHz :   538.161323   250.607512   196.158162

                             ****ORCA TERMINATED NORMALLY****
TOTAL RUN TIME: 0 days 0 hours 0 minutes 34 seconds 210 msec
