                         Program Version 4.2.1 -  RELEASE  -
|  1> ! wB97X-D3 SP def2-SVP
|  2> %pal
|  3> nprocs 16
|  4> end
|  5>
|  6> * xyz 0 1
|  7> S 	 -16.019 	 50.1608 	 44.4479
|  8> C 	 -16.9616 	 50.3742 	 42.9754
|  9> C 	 -16.4319 	 49.687 	 41.9185
| 10> C 	 -15.2946 	 48.8604 	 42.3368
| 11> C 	 -14.9141 	 49.0651 	 43.6385
| 12> H 	 -14.7705 	 48.0875 	 41.7433
| 13> C 	 -16.7946 	 49.7549 	 40.4468
| 14> H 	 -15.9318 	 50.2721 	 39.9845
| 15> H 	 -17.7395 	 50.2623 	 40.3925
| 16> C 	 -16.8346 	 48.4029 	 39.7472
| 17> H 	 -15.8004 	 48.0013 	 39.5858
| 18> H 	 -17.3919 	 47.5996 	 40.237
| 19> C 	 -17.2503 	 48.4844 	 38.3419
| 20> H 	 -18.3527 	 48.7626 	 38.45
| 21> H 	 -16.6705 	 49.2307 	 37.7613
| 22> H 	 -16.9468 	 47.5312 	 37.9873
| 23> S 	 -14.4324 	 46.8956 	 45.2113
| 24> C 	 -12.8395 	 46.2782 	 45.3195
| 25> C 	 -11.9728 	 47.2193 	 44.83
| 26> C 	 -12.5194 	 48.4089 	 44.3681
| 27> C 	 -13.8873 	 48.321 	 44.3442
| 28> H 	 -10.9436 	 47.0427 	 45.0313
| 29> C 	 -11.6343 	 49.5758 	 43.9085
| 30> H 	 -10.6407 	 49.3749 	 44.1559
| 31> H 	 -11.8469 	 50.5245 	 44.4578
| 32> C 	 -11.7687 	 49.9324 	 42.4354
| 33> H 	 -11.2667 	 50.8328 	 42.2589
| 34> H 	 -12.7762 	 50.1823 	 42.2299
| 35> C 	 -11.1803 	 48.8876 	 41.5034
| 36> H 	 -10.117 	 48.7892 	 41.6273
| 37> H 	 -11.4402 	 49.0489 	 40.4625
| 38> H 	 -11.6496 	 47.9512 	 41.7085
| 39> H 	 -17.8562 	 50.9659 	 42.9705
| 40> H 	 -12.5844 	 45.3462 	 45.8099
| 41> *
| 42>
| 43>                          ****END OF INPUT****

CARTESIAN COORDINATES (ANGSTROEM)
---------------------------------
  S    -16.019000   50.160800   44.447900
  C    -16.961600   50.374200   42.975400
  C    -16.431900   49.687000   41.918500
  C    -15.294600   48.860400   42.336800
  C    -14.914100   49.065100   43.638500
  H    -14.770500   48.087500   41.743300
  C    -16.794600   49.754900   40.446800
  H    -15.931800   50.272100   39.984500
  H    -17.739500   50.262300   40.392500
  C    -16.834600   48.402900   39.747200
  H    -15.800400   48.001300   39.585800
  H    -17.391900   47.599600   40.237000
  C    -17.250300   48.484400   38.341900
  H    -18.352700   48.762600   38.450000
  H    -16.670500   49.230700   37.761300
  H    -16.946800   47.531200   37.987300
  S    -14.432400   46.895600   45.211300
  C    -12.839500   46.278200   45.319500
  C    -11.972800   47.219300   44.830000
  C    -12.519400   48.408900   44.368100
  C    -13.887300   48.321000   44.344200
  H    -10.943600   47.042700   45.031300
  C    -11.634300   49.575800   43.908500
  H    -10.640700   49.374900   44.155900
  H    -11.846900   50.524500   44.457800
  C    -11.768700   49.932400   42.435400
  H    -11.266700   50.832800   42.258900
  H    -12.776200   50.182300   42.229900
  C    -11.180300   48.887600   41.503400
  H    -10.117000   48.789200   41.627300
  H    -11.440200   49.048900   40.462500
  H    -11.649600   47.951200   41.708500
  H    -17.856200   50.965900   42.970500
  H    -12.584400   45.346200   45.809900

 Total Charge           Charge          ....    0
 Multiplicity           Mult            ....    1
 Number of Electrons    NEL             ....  134
 Basis Dimension        Dim             ....  322

ORBITAL ENERGIES
----------------

  NO   OCC          E(Eh)            E(eV)
   0   2.0000     -88.961374     -2420.7621
   1   2.0000     -88.961241     -2420.7584
   2   2.0000     -10.325199      -280.9629
   3   2.0000     -10.320718      -280.8410
   4   2.0000     -10.312437      -280.6157
   5   2.0000     -10.311865      -280.6001
   6   2.0000     -10.302331      -280.3407
   7   2.0000     -10.298894      -280.2471
   8   2.0000     -10.294843      -280.1369
   9   2.0000     -10.294705      -280.1332
  10   2.0000     -10.287530      -279.9379
  11   2.0000     -10.283319      -279.8233
  12   2.0000     -10.282800      -279.8092
  13   2.0000     -10.278955      -279.7046
  14   2.0000     -10.269353      -279.4433
  15   2.0000     -10.266725      -279.3718
  16   2.0000      -8.077058      -219.7879
  17   2.0000      -8.076039      -219.7602
  18   2.0000      -6.035349      -164.2302
  19   2.0000      -6.034655      -164.2113
  20   2.0000      -6.031367      -164.1218
  21   2.0000      -6.030530      -164.0991
  22   2.0000      -6.028039      -164.0313
  23   2.0000      -6.026703      -163.9949
  24   2.0000      -1.010560       -27.4987
  25   2.0000      -0.985279       -26.8108
  26   2.0000      -0.922951       -25.1148
  27   2.0000      -0.911722       -24.8092
  28   2.0000      -0.874722       -23.8024
  29   2.0000      -0.850863       -23.1532
  30   2.0000      -0.849235       -23.1089
  31   2.0000      -0.812979       -22.1223
  32   2.0000      -0.785929       -21.3862
  33   2.0000      -0.775442       -21.1009
  34   2.0000      -0.711321       -19.3560
  35   2.0000      -0.694661       -18.9027
  36   2.0000      -0.682075       -18.5602
  37   2.0000      -0.661608       -18.0033
  38   2.0000      -0.643956       -17.5229
  39   2.0000      -0.616042       -16.7634
  40   2.0000      -0.597925       -16.2704
  41   2.0000      -0.582392       -15.8477
  42   2.0000      -0.568795       -15.4777
  43   2.0000      -0.554953       -15.1010
  44   2.0000      -0.547893       -14.9089
  45   2.0000      -0.533724       -14.5234
  46   2.0000      -0.518786       -14.1169
  47   2.0000      -0.512129       -13.9357
  48   2.0000      -0.508043       -13.8245
  49   2.0000      -0.499768       -13.5994
  50   2.0000      -0.489344       -13.3157
  51   2.0000      -0.483294       -13.1511
  52   2.0000      -0.469803       -12.7840
  53   2.0000      -0.466330       -12.6895
  54   2.0000      -0.458323       -12.4716
  55   2.0000      -0.448700       -12.2097
  56   2.0000      -0.436045       -11.8654
  57   2.0000      -0.433073       -11.7845
  58   2.0000      -0.432244       -11.7620
  59   2.0000      -0.426602       -11.6084
  60   2.0000      -0.421930       -11.4813
  61   2.0000      -0.416495       -11.3334
  62   2.0000      -0.404698       -11.0124
  63   2.0000      -0.336306        -9.1514
  64   2.0000      -0.325452        -8.8560
  65   2.0000      -0.320030        -8.7085
  66   2.0000      -0.309613        -8.4250
  67   0.0000       0.045228         1.2307
  68   0.0000       0.056213         1.5296
  69   0.0000       0.113742         3.0951
  70   0.0000       0.122875         3.3436
  71   0.0000       0.129564         3.5256

MULLIKEN ATOMIC CHARGES
-----------------------
   0 S :    0.098070
   1 C :   -0.134727
   2 C :   -0.071458
   3 C :    0.023110
   4 C :   -0.172286
   5 H :    0.032549
   6 C :    0.117739
   7 H :    0.047086
   8 H :    0.013747
   9 C :   -0.147929
  10 H :    0.020558
  11 H :    0.039261
  12 C :   -0.019342
  13 H :    0.041945
  14 H :    0.028288
  15 H :    0.028379
  16 S :    0.121925
  17 C :   -0.098198
  18 C :   -0.040129
  19 C :    0.004977
  20 C :   -0.204764
  21 H :    0.003807
  22 C :    0.104219
  23 H :   -0.009237
  24 H :    0.038684
  25 C :   -0.034479
  26 H :    0.002648
  27 H :    0.023885
  28 C :   -0.027733
  29 H :    0.026685
  30 H :    0.024492
  31 H :    0.018220
  32 H :    0.041065
  33 H :    0.058944
Sum of atomic charges:    0.0000000

LOEWDIN ATOMIC CHARGES
----------------------
   0 S :    0.388128
   1 C :   -0.192009
   2 C :   -0.062357
   3 C :   -0.058782
   4 C :   -0.200743
   5 H :    0.037214
   6 C :   -0.027392
   7 H :    0.045275
   8 H :    0.025691
   9 C :   -0.053626
  10 H :    0.024093
  11 H :    0.025666
  12 C :   -0.062860
  13 H :    0.032929
  14 H :    0.025247
  15 H :    0.024709
  16 S :    0.427041
  17 C :   -0.194283
  18 C :   -0.079287
  19 C :   -0.052896
  20 C :   -0.201533
  21 H :    0.024858
  22 C :   -0.017704
  23 H :    0.017428
  24 H :    0.041298
  25 C :   -0.034708
  26 H :    0.016113
  27 H :    0.019851
  28 C :   -0.060998
  29 H :    0.022847
  30 H :    0.025281
  31 H :    0.019787
  32 H :    0.024209
  33 H :    0.031513

  Mayer bond orders larger than 0.100000
B(  0-S ,  1-C ) :   1.1209 B(  0-S ,  4-C ) :   1.1406 B(  1-C ,  2-C ) :   1.6461
B(  1-C , 32-H ) :   0.9729 B(  2-C ,  3-C ) :   1.1886 B(  2-C ,  6-C ) :   1.0287
B(  3-C ,  4-C ) :   1.6305 B(  3-C ,  5-H ) :   0.9853 B(  4-C , 20-C ) :   1.0033
B(  6-C ,  7-H ) :   0.9275 B(  6-C ,  8-H ) :   0.9417 B(  6-C ,  9-C ) :   1.0696
B(  9-C , 10-H ) :   0.9469 B(  9-C , 11-H ) :   0.9608 B(  9-C , 12-C ) :   1.0827
B( 12-C , 13-H ) :   0.9728 B( 12-C , 14-H ) :   0.9702 B( 12-C , 15-H ) :   0.9760
B( 16-S , 17-C ) :   1.1737 B( 16-S , 20-C ) :   1.1692 B( 17-C , 18-C ) :   1.5793
B( 17-C , 20-C ) :   0.1065 B( 17-C , 33-H ) :   0.9700 B( 18-C , 19-C ) :   1.2696
B( 18-C , 21-H ) :   0.9901 B( 19-C , 20-C ) :   1.5724 B( 19-C , 22-C ) :   1.0353
B( 22-C , 23-H ) :   0.9317 B( 22-C , 24-H ) :   0.9338 B( 22-C , 25-C ) :   1.0838
B( 25-C , 26-H ) :   0.9461 B( 25-C , 27-H ) :   0.9532 B( 25-C , 28-C ) :   1.0755
B( 28-C , 29-H ) :   0.9742 B( 28-C , 30-H ) :   0.9717 B( 28-C , 31-H ) :   0.9755

Dispersion correction           -0.014970851
FINAL SINGLE POINT ENERGY     -1339.867178315410

DIPOLE MOMENT
-------------
                                X             Y             Z
Electronic contribution:     -6.18168      -2.39731      26.36586
Nuclear contribution   :      6.43829       2.36866     -26.86762
                        -----------------------------------------
Total Dipole Moment    :      0.25660      -0.02866      -0.50176
                        -----------------------------------------
Magnitude (a.u.)       :      0.56429
Magnitude (Debye)      :      1.43432

Rotational constants in cm-1:     0.018044     0.008916     0.007798
Rotational constants in MHz :   540.954451   267.295057   233.787808

                             ****ORCA TERMINATED NORMALLY****
TOTAL RUN TIME: 0 days 0 hours 0 minutes 34 seconds 40 msec
