                         Program Version 4.2.1 -  RELEASE  -
|  1> ! wB97X-D3 SP def2-SVP
|  2> %pal
|  3> nprocs 16
|  4> end
|  5>
|  6> * xyz 0 1
|  7> S 	 4.79582 	 -11.2425 	 64.7995
|  8> C 	 4.49455 	 -9.53419 	 64.7924
|  9> C 	 5.03165 	 -8.91582 	 65.8962
| 10> C 	 5.47914 	 -9.8928 	 66.8756
| 11> C 	 5.5162 	 -11.2408 	 66.3856
| 12> H 	 5.81499 	 -9.67734 	 67.8491
| 13> C 	 4.88527 	 -7.3672 	 66.2808
| 14> H 	 5.67558 	 -7.14979 	 67.0504
| 15> H 	 3.99454 	 -7.25529 	 66.8197
| 16> C 	 5.09322 	 -6.36628 	 65.1259
| 17> H 	 4.10453 	 -6.25277 	 64.5612
| 18> H 	 5.22041 	 -5.40068 	 65.7201
| 19> C 	 6.29009 	 -6.57349 	 64.2294
| 20> H 	 7.11011 	 -6.41335 	 64.9225
| 21> H 	 6.36177 	 -7.58274 	 63.9907
| 22> H 	 6.42166 	 -5.92993 	 63.3422
| 23> S 	 6.63665 	 -13.7037 	 65.8667
| 24> C 	 7.37728 	 -14.5788 	 67.1605
| 25> C 	 7.25894 	 -13.9404 	 68.3721
| 26> C 	 6.52057 	 -12.7235 	 68.2886
| 27> C 	 6.14617 	 -12.4554 	 66.9363
| 28> H 	 7.63083 	 -14.3231 	 69.2998
| 29> C 	 6.16194 	 -12.0876 	 69.598
| 30> H 	 6.174 	 -10.9755 	 69.4899
| 31> H 	 6.81372 	 -12.3471 	 70.4905
| 32> C 	 4.74751 	 -12.4956 	 70.0821
| 33> H 	 4.03728 	 -12.3738 	 69.3099
| 34> H 	 4.4073 	 -11.7453 	 70.7135
| 35> C 	 4.73393 	 -13.8444 	 70.76
| 36> H 	 5.23113 	 -14.6899 	 70.2212
| 37> H 	 3.73177 	 -14.2209 	 70.8872
| 38> H 	 5.34296 	 -13.8661 	 71.6822
| 39> H 	 3.98439 	 -9.08739 	 63.9561
| 40> H 	 7.72581 	 -15.5784 	 67.0943
| 41> *
| 42>
| 43>                          ****END OF INPUT****

CARTESIAN COORDINATES (ANGSTROEM)
---------------------------------
  S      4.795820  -11.242500   64.799500
  C      4.494550   -9.534190   64.792400
  C      5.031650   -8.915820   65.896200
  C      5.479140   -9.892800   66.875600
  C      5.516200  -11.240800   66.385600
  H      5.814990   -9.677340   67.849100
  C      4.885270   -7.367200   66.280800
  H      5.675580   -7.149790   67.050400
  H      3.994540   -7.255290   66.819700
  C      5.093220   -6.366280   65.125900
  H      4.104530   -6.252770   64.561200
  H      5.220410   -5.400680   65.720100
  C      6.290090   -6.573490   64.229400
  H      7.110110   -6.413350   64.922500
  H      6.361770   -7.582740   63.990700
  H      6.421660   -5.929930   63.342200
  S      6.636650  -13.703700   65.866700
  C      7.377280  -14.578800   67.160500
  C      7.258940  -13.940400   68.372100
  C      6.520570  -12.723500   68.288600
  C      6.146170  -12.455400   66.936300
  H      7.630830  -14.323100   69.299800
  C      6.161940  -12.087600   69.598000
  H      6.174000  -10.975500   69.489900
  H      6.813720  -12.347100   70.490500
  C      4.747510  -12.495600   70.082100
  H      4.037280  -12.373800   69.309900
  H      4.407300  -11.745300   70.713500
  C      4.733930  -13.844400   70.760000
  H      5.231130  -14.689900   70.221200
  H      3.731770  -14.220900   70.887200
  H      5.342960  -13.866100   71.682200
  H      3.984390   -9.087390   63.956100
  H      7.725810  -15.578400   67.094300

 Total Charge           Charge          ....    0
 Multiplicity           Mult            ....    1
 Number of Electrons    NEL             ....  134
 Basis Dimension        Dim             ....  322

ORBITAL ENERGIES
----------------

  NO   OCC          E(Eh)            E(eV)
   0   2.0000     -88.971699     -2421.0430
   1   2.0000     -88.964369     -2420.8435
   2   2.0000     -10.336477      -281.2698
   3   2.0000     -10.333174      -281.1800
   4   2.0000     -10.313064      -280.6327
   5   2.0000     -10.312021      -280.6044
   6   2.0000     -10.308225      -280.5011
   7   2.0000     -10.304794      -280.4077
   8   2.0000     -10.300786      -280.2986
   9   2.0000     -10.300507      -280.2910
  10   2.0000     -10.297565      -280.2110
  11   2.0000     -10.296756      -280.1890
  12   2.0000     -10.290390      -280.0157
  13   2.0000     -10.278441      -279.6906
  14   2.0000     -10.276267      -279.6314
  15   2.0000     -10.270765      -279.4817
  16   2.0000      -8.087107      -220.0614
  17   2.0000      -8.079658      -219.8587
  18   2.0000      -6.045595      -164.5090
  19   2.0000      -6.041479      -164.3970
  20   2.0000      -6.038160      -164.3067
  21   2.0000      -6.037896      -164.2995
  22   2.0000      -6.033986      -164.1931
  23   2.0000      -6.030515      -164.0987
  24   2.0000      -1.008196       -27.4344
  25   2.0000      -0.984447       -26.7882
  26   2.0000      -0.914852       -24.8944
  27   2.0000      -0.907159       -24.6851
  28   2.0000      -0.868403       -23.6305
  29   2.0000      -0.852913       -23.2089
  30   2.0000      -0.842401       -22.9229
  31   2.0000      -0.809911       -22.0388
  32   2.0000      -0.787661       -21.4333
  33   2.0000      -0.775595       -21.1050
  34   2.0000      -0.713779       -19.4229
  35   2.0000      -0.694434       -18.8965
  36   2.0000      -0.689666       -18.7668
  37   2.0000      -0.667793       -18.1716
  38   2.0000      -0.640893       -17.4396
  39   2.0000      -0.611351       -16.6357
  40   2.0000      -0.597124       -16.2486
  41   2.0000      -0.570800       -15.5323
  42   2.0000      -0.559530       -15.2256
  43   2.0000      -0.556193       -15.1348
  44   2.0000      -0.542450       -14.7608
  45   2.0000      -0.536170       -14.5899
  46   2.0000      -0.515010       -14.0141
  47   2.0000      -0.506774       -13.7900
  48   2.0000      -0.504855       -13.7378
  49   2.0000      -0.494269       -13.4498
  50   2.0000      -0.486700       -13.2438
  51   2.0000      -0.482363       -13.1258
  52   2.0000      -0.479502       -13.0479
  53   2.0000      -0.470089       -12.7918
  54   2.0000      -0.463737       -12.6189
  55   2.0000      -0.454842       -12.3769
  56   2.0000      -0.448387       -12.2012
  57   2.0000      -0.434694       -11.8286
  58   2.0000      -0.433563       -11.7979
  59   2.0000      -0.422072       -11.4852
  60   2.0000      -0.414909       -11.2903
  61   2.0000      -0.412051       -11.2125
  62   2.0000      -0.403692       -10.9850
  63   2.0000      -0.359860        -9.7923
  64   2.0000      -0.335116        -9.1190
  65   2.0000      -0.328343        -8.9347
  66   2.0000      -0.278495        -7.5782
  67   0.0000       0.018349         0.4993
  68   0.0000       0.084832         2.3084
  69   0.0000       0.104171         2.8346
  70   0.0000       0.117378         3.1940
  71   0.0000       0.135995         3.7006

MULLIKEN ATOMIC CHARGES
-----------------------
   0 S :    0.086439
   1 C :   -0.121177
   2 C :   -0.091947
   3 C :    0.023823
   4 C :   -0.127794
   5 H :   -0.020285
   6 C :    0.056031
   7 H :    0.025941
   8 H :    0.039900
   9 C :   -0.130559
  10 H :    0.037979
  11 H :    0.038549
  12 C :   -0.002373
  13 H :    0.016869
  14 H :    0.025080
  15 H :    0.049592
  16 S :    0.124817
  17 C :   -0.075720
  18 C :   -0.023208
  19 C :   -0.033782
  20 C :   -0.122677
  21 H :    0.007274
  22 C :   -0.007992
  23 H :    0.026420
  24 H :    0.036027
  25 C :    0.012932
  26 H :    0.014022
  27 H :    0.006205
  28 C :   -0.062042
  29 H :    0.029229
  30 H :    0.035851
  31 H :    0.025457
  32 H :    0.055081
  33 H :    0.046036
Sum of atomic charges:    0.0000000

LOEWDIN ATOMIC CHARGES
----------------------
   0 S :    0.408533
   1 C :   -0.201796
   2 C :   -0.063602
   3 C :   -0.065804
   4 C :   -0.190480
   5 H :    0.014597
   6 C :   -0.024280
   7 H :    0.031979
   8 H :    0.028013
   9 C :   -0.053657
  10 H :    0.023319
  11 H :    0.032421
  12 C :   -0.064184
  13 H :    0.029576
  14 H :    0.017186
  15 H :    0.033935
  16 S :    0.437989
  17 C :   -0.193261
  18 C :   -0.062198
  19 C :   -0.054273
  20 C :   -0.212896
  21 H :    0.026702
  22 C :   -0.033848
  23 H :    0.028874
  24 H :    0.038098
  25 C :   -0.032986
  26 H :    0.022705
  27 H :    0.018248
  28 C :   -0.072059
  29 H :    0.029470
  30 H :    0.027082
  31 H :    0.025942
  32 H :    0.026825
  33 H :    0.023830

  Mayer bond orders larger than 0.100000
B(  0-S ,  1-C ) :   1.1448 B(  0-S ,  4-C ) :   1.1617 B(  1-C ,  2-C ) :   1.5898
B(  1-C , 32-H ) :   0.9740 B(  2-C ,  3-C ) :   1.2729 B(  2-C ,  6-C ) :   0.9915
B(  3-C ,  4-C ) :   1.5334 B(  3-C ,  5-H ) :   0.9931 B(  4-C , 20-C ) :   1.0744
B(  6-C ,  7-H ) :   0.9464 B(  6-C ,  8-H ) :   0.9482 B(  6-C ,  9-C ) :   1.0676
B(  9-C , 10-H ) :   0.9537 B(  9-C , 11-H ) :   0.9616 B(  9-C , 12-C ) :   1.0659
B( 12-C , 13-H ) :   0.9700 B( 12-C , 14-H ) :   0.9716 B( 12-C , 15-H ) :   0.9742
B( 16-S , 17-C ) :   1.1602 B( 16-S , 20-C ) :   1.1631 B( 17-C , 18-C ) :   1.5746
B( 17-C , 33-H ) :   0.9693 B( 18-C , 19-C ) :   1.2919 B( 18-C , 21-H ) :   0.9884
B( 19-C , 20-C ) :   1.5278 B( 19-C , 22-C ) :   1.0541 B( 22-C , 23-H ) :   0.9278
B( 22-C , 24-H ) :   0.9426 B( 22-C , 25-C ) :   1.0734 B( 25-C , 26-H ) :   0.9495
B( 25-C , 27-H ) :   0.9481 B( 25-C , 28-C ) :   1.0774 B( 28-C , 29-H ) :   0.9715
B( 28-C , 30-H ) :   0.9719 B( 28-C , 31-H ) :   0.9712

Dispersion correction           -0.014351339
FINAL SINGLE POINT ENERGY     -1339.865444125307

DIPOLE MOMENT
-------------
                                X             Y             Z
Electronic contribution:      2.42137     -15.99976     -14.40340
Nuclear contribution   :     -2.47181      16.26121      14.95602
                        -----------------------------------------
Total Dipole Moment    :     -0.05044       0.26145       0.55261
                        -----------------------------------------
Magnitude (a.u.)       :      0.61342
Magnitude (Debye)      :      1.55919

Rotational constants in cm-1:     0.023182     0.007528     0.006364
Rotational constants in MHz :   694.983335   225.675568   190.786112

                             ****ORCA TERMINATED NORMALLY****
TOTAL RUN TIME: 0 days 0 hours 0 minutes 29 seconds 788 msec
