                         Program Version 4.2.1 -  RELEASE  -
|  1> ! wB97X-D3 SP def2-SVP
|  2> %pal
|  3> nprocs 16
|  4> end
|  5>
|  6> * xyz 0 1
|  7> S 	 -89.0231 	 41.6543 	 113.672
|  8> C 	 -88.1799 	 42.7744 	 112.623
|  9> C 	 -88.7504 	 44.0688 	 112.784
| 10> C 	 -90.0855 	 44.0055 	 113.335
| 11> C 	 -90.3992 	 42.7624 	 113.865
| 12> H 	 -90.849 	 44.7884 	 113.429
| 13> C 	 -88.2765 	 45.3073 	 112.079
| 14> H 	 -89.1832 	 45.7264 	 111.596
| 15> H 	 -87.5982 	 45.0846 	 111.243
| 16> C 	 -87.6733 	 46.4298 	 112.997
| 17> H 	 -86.7289 	 46.1512 	 113.475
| 18> H 	 -87.3463 	 47.1617 	 112.291
| 19> C 	 -88.6873 	 47.0521 	 113.968
| 20> H 	 -89.0555 	 46.38 	 114.781
| 21> H 	 -88.1707 	 47.8884 	 114.428
| 22> H 	 -89.6021 	 47.4943 	 113.566
| 23> S 	 -93.0158 	 42.2987 	 113.769
| 24> C 	 -93.9992 	 42.2301 	 115.147
| 25> C 	 -93.2894 	 42.1439 	 116.273
| 26> C 	 -91.9302 	 42.4331 	 116.001
| 27> C 	 -91.6046 	 42.5245 	 114.634
| 28> H 	 -93.7117 	 41.9471 	 117.238
| 29> C 	 -90.797 	 42.4841 	 117.051
| 30> H 	 -91.0766 	 43.341 	 117.636
| 31> H 	 -89.8108 	 42.8305 	 116.719
| 32> C 	 -90.6004 	 41.2185 	 117.931
| 33> H 	 -90.1103 	 40.3599 	 117.42
| 34> H 	 -91.6137 	 40.8455 	 118.12
| 35> C 	 -89.9594 	 41.4478 	 119.307
| 36> H 	 -89.055 	 42.0263 	 119.217
| 37> H 	 -89.6442 	 40.4866 	 119.747
| 38> H 	 -90.7482 	 41.9103 	 119.95
| 39> H 	 -87.2656 	 42.6417 	 112.223
| 40> H 	 -95.0244 	 41.9025 	 115.118
| 41> *
| 42>
| 43>                          ****END OF INPUT****

CARTESIAN COORDINATES (ANGSTROEM)
---------------------------------
  S    -89.023100   41.654300  113.672000
  C    -88.179900   42.774400  112.623000
  C    -88.750400   44.068800  112.784000
  C    -90.085500   44.005500  113.335000
  C    -90.399200   42.762400  113.865000
  H    -90.849000   44.788400  113.429000
  C    -88.276500   45.307300  112.079000
  H    -89.183200   45.726400  111.596000
  H    -87.598200   45.084600  111.243000
  C    -87.673300   46.429800  112.997000
  H    -86.728900   46.151200  113.475000
  H    -87.346300   47.161700  112.291000
  C    -88.687300   47.052100  113.968000
  H    -89.055500   46.380000  114.781000
  H    -88.170700   47.888400  114.428000
  H    -89.602100   47.494300  113.566000
  S    -93.015800   42.298700  113.769000
  C    -93.999200   42.230100  115.147000
  C    -93.289400   42.143900  116.273000
  C    -91.930200   42.433100  116.001000
  C    -91.604600   42.524500  114.634000
  H    -93.711700   41.947100  117.238000
  C    -90.797000   42.484100  117.051000
  H    -91.076600   43.341000  117.636000
  H    -89.810800   42.830500  116.719000
  C    -90.600400   41.218500  117.931000
  H    -90.110300   40.359900  117.420000
  H    -91.613700   40.845500  118.120000
  C    -89.959400   41.447800  119.307000
  H    -89.055000   42.026300  119.217000
  H    -89.644200   40.486600  119.747000
  H    -90.748200   41.910300  119.950000
  H    -87.265600   42.641700  112.223000
  H    -95.024400   41.902500  115.118000

 Total Charge           Charge          ....    0
 Multiplicity           Mult            ....    1
 Number of Electrons    NEL             ....  134
 Basis Dimension        Dim             ....  322

ORBITAL ENERGIES
----------------

  NO   OCC          E(Eh)            E(eV)
   0   2.0000     -88.967371     -2420.9252
   1   2.0000     -88.960173     -2420.7294
   2   2.0000     -10.329550      -281.0814
   3   2.0000     -10.317792      -280.7614
   4   2.0000     -10.312895      -280.6281
   5   2.0000     -10.305860      -280.4367
   6   2.0000     -10.304995      -280.4132
   7   2.0000     -10.302221      -280.3377
   8   2.0000     -10.297913      -280.2204
   9   2.0000     -10.293893      -280.1111
  10   2.0000     -10.289567      -279.9933
  11   2.0000     -10.288745      -279.9710
  12   2.0000     -10.286694      -279.9152
  13   2.0000     -10.285141      -279.8729
  14   2.0000     -10.280397      -279.7438
  15   2.0000     -10.279165      -279.7103
  16   2.0000      -8.081160      -219.8995
  17   2.0000      -8.077664      -219.8044
  18   2.0000      -6.039675      -164.3479
  19   2.0000      -6.035864      -164.2442
  20   2.0000      -6.035827      -164.2432
  21   2.0000      -6.031939      -164.1374
  22   2.0000      -6.031665      -164.1300
  23   2.0000      -6.028670      -164.0485
  24   2.0000      -1.018635       -27.7185
  25   2.0000      -0.985381       -26.8136
  26   2.0000      -0.906648       -24.6711
  27   2.0000      -0.900435       -24.5021
  28   2.0000      -0.878049       -23.8929
  29   2.0000      -0.847754       -23.0685
  30   2.0000      -0.843810       -22.9612
  31   2.0000      -0.820217       -22.3193
  32   2.0000      -0.779551       -21.2127
  33   2.0000      -0.768060       -20.9000
  34   2.0000      -0.707130       -19.2420
  35   2.0000      -0.704182       -19.1618
  36   2.0000      -0.693454       -18.8699
  37   2.0000      -0.659544       -17.9471
  38   2.0000      -0.643799       -17.5187
  39   2.0000      -0.614368       -16.7178
  40   2.0000      -0.600094       -16.3294
  41   2.0000      -0.573278       -15.5997
  42   2.0000      -0.554863       -15.0986
  43   2.0000      -0.545539       -14.8449
  44   2.0000      -0.539003       -14.6670
  45   2.0000      -0.522107       -14.2072
  46   2.0000      -0.517392       -14.0790
  47   2.0000      -0.513254       -13.9664
  48   2.0000      -0.507650       -13.8139
  49   2.0000      -0.497925       -13.5492
  50   2.0000      -0.486904       -13.2493
  51   2.0000      -0.482984       -13.1427
  52   2.0000      -0.474043       -12.8994
  53   2.0000      -0.466842       -12.7034
  54   2.0000      -0.460875       -12.5411
  55   2.0000      -0.454454       -12.3663
  56   2.0000      -0.438576       -11.9343
  57   2.0000      -0.437380       -11.9017
  58   2.0000      -0.430003       -11.7010
  59   2.0000      -0.426343       -11.6014
  60   2.0000      -0.416611       -11.3366
  61   2.0000      -0.410191       -11.1619
  62   2.0000      -0.402060       -10.9406
  63   2.0000      -0.339915        -9.2496
  64   2.0000      -0.333325        -9.0702
  65   2.0000      -0.317988        -8.6529
  66   2.0000      -0.302625        -8.2348
  67   0.0000       0.039972         1.0877
  68   0.0000       0.059417         1.6168
  69   0.0000       0.106492         2.8978
  70   0.0000       0.121338         3.3018
  71   0.0000       0.132763         3.6127

MULLIKEN ATOMIC CHARGES
-----------------------
   0 S :    0.115628
   1 C :   -0.055750
   2 C :   -0.070283
   3 C :    0.027737
   4 C :   -0.148186
   5 H :    0.028343
   6 C :    0.005347
   7 H :    0.034284
   8 H :    0.025692
   9 C :   -0.037717
  10 H :    0.031872
  11 H :    0.020384
  12 C :   -0.074077
  13 H :    0.049632
  14 H :    0.030871
  15 H :    0.028833
  16 S :    0.124101
  17 C :   -0.075282
  18 C :   -0.036671
  19 C :   -0.043758
  20 C :   -0.192277
  21 H :    0.017231
  22 C :    0.078454
  23 H :    0.012924
  24 H :    0.022734
  25 C :   -0.090545
  26 H :    0.037105
  27 H :    0.013065
  28 C :   -0.055742
  29 H :    0.033434
  30 H :    0.034748
  31 H :    0.042392
  32 H :    0.011686
  33 H :    0.053793
Sum of atomic charges:    0.0000000

LOEWDIN ATOMIC CHARGES
----------------------
   0 S :    0.398358
   1 C :   -0.176604
   2 C :   -0.057105
   3 C :   -0.054739
   4 C :   -0.197685
   5 H :    0.036552
   6 C :   -0.038709
   7 H :    0.035333
   8 H :    0.029749
   9 C :   -0.036290
  10 H :    0.026598
  11 H :    0.022649
  12 C :   -0.074231
  13 H :    0.030974
  14 H :    0.028054
  15 H :    0.024526
  16 S :    0.469742
  17 C :   -0.203941
  18 C :   -0.071228
  19 C :   -0.055921
  20 C :   -0.232359
  21 H :    0.032346
  22 C :   -0.037919
  23 H :    0.028051
  24 H :    0.027733
  25 C :   -0.047101
  26 H :    0.026700
  27 H :    0.018667
  28 C :   -0.066457
  29 H :    0.021124
  30 H :    0.029026
  31 H :    0.030818
  32 H :    0.004420
  33 H :    0.028869

  Mayer bond orders larger than 0.100000
B(  0-S ,  1-C ) :   1.1447 B(  0-S ,  4-C ) :   1.1315 B(  1-C ,  2-C ) :   1.5923
B(  1-C ,  4-C ) :   0.1017 B(  1-C , 32-H ) :   0.9795 B(  2-C ,  3-C ) :   1.2233
B(  2-C ,  6-C ) :   1.0307 B(  3-C ,  4-C ) :   1.5936 B(  3-C ,  5-H ) :   0.9834
B(  4-C , 20-C ) :   1.0157 B(  6-C ,  7-H ) :   0.9496 B(  6-C ,  8-H ) :   0.9495
B(  6-C ,  9-C ) :   1.0651 B(  9-C , 10-H ) :   0.9557 B(  9-C , 11-H ) :   0.9532
B(  9-C , 12-C ) :   1.0766 B( 12-C , 13-H ) :   0.9725 B( 12-C , 14-H ) :   0.9720
B( 12-C , 15-H ) :   0.9748 B( 16-S , 17-C ) :   1.1888 B( 16-S , 20-C ) :   1.1867
B( 17-C , 18-C ) :   1.5790 B( 17-C , 33-H ) :   0.9606 B( 18-C , 19-C ) :   1.2779
B( 18-C , 21-H ) :   0.9953 B( 19-C , 20-C ) :   1.5626 B( 19-C , 22-C ) :   1.0276
B( 22-C , 23-H ) :   0.9329 B( 22-C , 24-H ) :   0.9400 B( 22-C , 25-C ) :   1.0471
B( 25-C , 26-H ) :   0.9575 B( 25-C , 27-H ) :   0.9618 B( 25-C , 28-C ) :   1.0773
B( 28-C , 29-H ) :   0.9779 B( 28-C , 30-H ) :   0.9740 B( 28-C , 31-H ) :   0.9773

Dispersion correction           -0.014386208
FINAL SINGLE POINT ENERGY     -1339.862007915362

DIPOLE MOMENT
-------------
                                X             Y             Z
Electronic contribution:    -10.65732     -13.16833     -14.11810
Nuclear contribution   :     10.83265      13.55598      14.34104
                        -----------------------------------------
Total Dipole Moment    :      0.17533       0.38765       0.22294
                        -----------------------------------------
Magnitude (a.u.)       :      0.48033
Magnitude (Debye)      :      1.22090

Rotational constants in cm-1:     0.017469     0.008400     0.007416
Rotational constants in MHz :   523.705076   251.839772   222.321903

                             ****ORCA TERMINATED NORMALLY****
TOTAL RUN TIME: 0 days 0 hours 0 minutes 35 seconds 886 msec
