                         Program Version 4.2.1 -  RELEASE  -
|  1> ! wB97X-D3 SP def2-SVP
|  2> %pal
|  3> nprocs 16
|  4> end
|  5>
|  6> * xyz 0 1
|  7> S 	 -2.39472 	 -12.1168 	 78.9604
|  8> C 	 -3.65962 	 -11.5762 	 77.8524
|  9> C 	 -4.83323 	 -12.3305 	 77.9519
| 10> C 	 -4.73829 	 -13.2926 	 78.9763
| 11> C 	 -3.5554 	 -13.2552 	 79.7432
| 12> H 	 -5.42564 	 -13.9943 	 79.3369
| 13> C 	 -6.09264 	 -12.0716 	 77.1819
| 14> H 	 -6.47488 	 -13.0648 	 76.8383
| 15> H 	 -5.94214 	 -11.4152 	 76.3444
| 16> C 	 -7.35665 	 -11.6031 	 77.971
| 17> H 	 -7.67577 	 -12.2926 	 78.7552
| 18> H 	 -7.04781 	 -10.6815 	 78.5248
| 19> C 	 -8.53669 	 -11.3406 	 77.0485
| 20> H 	 -9.31824 	 -10.8488 	 77.5944
| 21> H 	 -8.34622 	 -10.8213 	 76.1063
| 22> H 	 -8.9941 	 -12.3097 	 76.7728
| 23> S 	 -1.92972 	 -15.285 	 80.6258
| 24> C 	 -2.0583 	 -15.8352 	 82.2945
| 25> C 	 -2.62961 	 -14.8433 	 83.1
| 26> C 	 -3.42788 	 -13.9064 	 82.3388
| 27> C 	 -3.10452 	 -13.985 	 80.929
| 28> H 	 -2.64751 	 -14.792 	 84.194
| 29> C 	 -4.04177 	 -12.7222 	 83.0024
| 30> H 	 -4.0238 	 -11.9701 	 82.3106
| 31> H 	 -3.42329 	 -12.4621 	 83.8935
| 32> C 	 -5.50818 	 -13.0948 	 83.3945
| 33> H 	 -6.12533 	 -13.3808 	 82.5395
| 34> H 	 -6.03345 	 -12.2656 	 83.7843
| 35> C 	 -5.66176 	 -14.163 	 84.4638
| 36> H 	 -5.20487 	 -14.9872 	 84.1182
| 37> H 	 -6.70884 	 -14.3715 	 84.7687
| 38> H 	 -5.218 	 -13.8954 	 85.3901
| 39> H 	 -3.49715 	 -10.7438 	 77.1084
| 40> H 	 -1.27262 	 -16.5019 	 82.6366
| 41> *
| 42>
| 43>                          ****END OF INPUT****

CARTESIAN COORDINATES (ANGSTROEM)
---------------------------------
  S     -2.394720  -12.116800   78.960400
  C     -3.659620  -11.576200   77.852400
  C     -4.833230  -12.330500   77.951900
  C     -4.738290  -13.292600   78.976300
  C     -3.555400  -13.255200   79.743200
  H     -5.425640  -13.994300   79.336900
  C     -6.092640  -12.071600   77.181900
  H     -6.474880  -13.064800   76.838300
  H     -5.942140  -11.415200   76.344400
  C     -7.356650  -11.603100   77.971000
  H     -7.675770  -12.292600   78.755200
  H     -7.047810  -10.681500   78.524800
  C     -8.536690  -11.340600   77.048500
  H     -9.318240  -10.848800   77.594400
  H     -8.346220  -10.821300   76.106300
  H     -8.994100  -12.309700   76.772800
  S     -1.929720  -15.285000   80.625800
  C     -2.058300  -15.835200   82.294500
  C     -2.629610  -14.843300   83.100000
  C     -3.427880  -13.906400   82.338800
  C     -3.104520  -13.985000   80.929000
  H     -2.647510  -14.792000   84.194000
  C     -4.041770  -12.722200   83.002400
  H     -4.023800  -11.970100   82.310600
  H     -3.423290  -12.462100   83.893500
  C     -5.508180  -13.094800   83.394500
  H     -6.125330  -13.380800   82.539500
  H     -6.033450  -12.265600   83.784300
  C     -5.661760  -14.163000   84.463800
  H     -5.204870  -14.987200   84.118200
  H     -6.708840  -14.371500   84.768700
  H     -5.218000  -13.895400   85.390100
  H     -3.497150  -10.743800   77.108400
  H     -1.272620  -16.501900   82.636600

 Total Charge           Charge          ....    0
 Multiplicity           Mult            ....    1
 Number of Electrons    NEL             ....  134
 Basis Dimension        Dim             ....  322

ORBITAL ENERGIES
----------------

  NO   OCC          E(Eh)            E(eV)
   0   2.0000     -88.966122     -2420.8913
   1   2.0000     -88.965815     -2420.8829
   2   2.0000     -10.335748      -281.2500
   3   2.0000     -10.335540      -281.2444
   4   2.0000     -10.322520      -280.8900
   5   2.0000     -10.320628      -280.8386
   6   2.0000     -10.310044      -280.5506
   7   2.0000     -10.304743      -280.4063
   8   2.0000     -10.303305      -280.3672
   9   2.0000     -10.296079      -280.1705
  10   2.0000     -10.295426      -280.1528
  11   2.0000     -10.291460      -280.0449
  12   2.0000     -10.289461      -279.9905
  13   2.0000     -10.280199      -279.7384
  14   2.0000     -10.279999      -279.7330
  15   2.0000     -10.263211      -279.2762
  16   2.0000      -8.080393      -219.8787
  17   2.0000      -8.079549      -219.8557
  18   2.0000      -6.038869      -164.3260
  19   2.0000      -6.037960      -164.3013
  20   2.0000      -6.035007      -164.2209
  21   2.0000      -6.034214      -164.1993
  22   2.0000      -6.031155      -164.1161
  23   2.0000      -6.030451      -164.0969
  24   2.0000      -0.996959       -27.1286
  25   2.0000      -0.976856       -26.5816
  26   2.0000      -0.913003       -24.8441
  27   2.0000      -0.909556       -24.7503
  28   2.0000      -0.866525       -23.5793
  29   2.0000      -0.850375       -23.1399
  30   2.0000      -0.847698       -23.0670
  31   2.0000      -0.813872       -22.1466
  32   2.0000      -0.785747       -21.3813
  33   2.0000      -0.767434       -20.8829
  34   2.0000      -0.709810       -19.3149
  35   2.0000      -0.698640       -19.0110
  36   2.0000      -0.688379       -18.7318
  37   2.0000      -0.661744       -18.0070
  38   2.0000      -0.647323       -17.6146
  39   2.0000      -0.617225       -16.7955
  40   2.0000      -0.594880       -16.1875
  41   2.0000      -0.568822       -15.4784
  42   2.0000      -0.560370       -15.2484
  43   2.0000      -0.556333       -15.1386
  44   2.0000      -0.550238       -14.9727
  45   2.0000      -0.522519       -14.2185
  46   2.0000      -0.515287       -14.0217
  47   2.0000      -0.506662       -13.7870
  48   2.0000      -0.500321       -13.6144
  49   2.0000      -0.496314       -13.5054
  50   2.0000      -0.489076       -13.3084
  51   2.0000      -0.481827       -13.1112
  52   2.0000      -0.473727       -12.8908
  53   2.0000      -0.466374       -12.6907
  54   2.0000      -0.454842       -12.3769
  55   2.0000      -0.448640       -12.2081
  56   2.0000      -0.445889       -12.1333
  57   2.0000      -0.440050       -11.9744
  58   2.0000      -0.433649       -11.8002
  59   2.0000      -0.429368       -11.6837
  60   2.0000      -0.426518       -11.6061
  61   2.0000      -0.416460       -11.3325
  62   2.0000      -0.409241       -11.1360
  63   2.0000      -0.337410        -9.1814
  64   2.0000      -0.328259        -8.9324
  65   2.0000      -0.321092        -8.7374
  66   2.0000      -0.297853        -8.1050
  67   0.0000       0.028786         0.7833
  68   0.0000       0.044620         1.2142
  69   0.0000       0.093575         2.5463
  70   0.0000       0.114098         3.1048
  71   0.0000       0.128090         3.4855

MULLIKEN ATOMIC CHARGES
-----------------------
   0 S :    0.096120
   1 C :   -0.143234
   2 C :   -0.040107
   3 C :    0.075546
   4 C :   -0.191921
   5 H :   -0.008442
   6 C :    0.059244
   7 H :    0.028540
   8 H :    0.017966
   9 C :   -0.094912
  10 H :    0.032699
  11 H :    0.031322
  12 C :   -0.042864
  13 H :    0.032646
  14 H :    0.036299
  15 H :    0.025454
  16 S :    0.106720
  17 C :   -0.085827
  18 C :   -0.037686
  19 C :   -0.052946
  20 C :   -0.180856
  21 H :    0.036063
  22 C :    0.104028
  23 H :    0.008667
  24 H :    0.041416
  25 C :   -0.065476
  26 H :    0.026467
  27 H :    0.009337
  28 C :   -0.012667
  29 H :    0.008911
  30 H :    0.032592
  31 H :    0.008342
  32 H :    0.069367
  33 H :    0.069192
Sum of atomic charges:    0.0000000

LOEWDIN ATOMIC CHARGES
----------------------
   0 S :    0.376152
   1 C :   -0.196154
   2 C :   -0.068936
   3 C :   -0.046909
   4 C :   -0.184895
   5 H :    0.025090
   6 C :   -0.031933
   7 H :    0.037358
   8 H :    0.026183
   9 C :   -0.042523
  10 H :    0.024462
  11 H :    0.022933
  12 C :   -0.067107
  13 H :    0.026800
  14 H :    0.025809
  15 H :    0.027690
  16 S :    0.401614
  17 C :   -0.191639
  18 C :   -0.062573
  19 C :   -0.047459
  20 C :   -0.203278
  21 H :    0.033568
  22 C :   -0.016458
  23 H :    0.020366
  24 H :    0.040136
  25 C :   -0.033741
  26 H :    0.025670
  27 H :    0.014316
  28 C :   -0.055825
  29 H :    0.005085
  30 H :    0.033397
  31 H :    0.017289
  32 H :    0.038749
  33 H :    0.026760

  Mayer bond orders larger than 0.100000
B(  0-S ,  1-C ) :   1.1463 B(  0-S ,  4-C ) :   1.1355 B(  1-C ,  2-C ) :   1.5963
B(  1-C ,  4-C ) :   0.1087 B(  1-C , 32-H ) :   0.9598 B(  2-C ,  3-C ) :   1.2153
B(  2-C ,  6-C ) :   1.0449 B(  3-C ,  4-C ) :   1.5931 B(  3-C ,  5-H ) :   1.0055
B(  4-C , 20-C ) :   1.0210 B(  6-C ,  7-H ) :   0.9332 B(  6-C ,  8-H ) :   0.9461
B(  6-C ,  9-C ) :   1.0519 B(  9-C , 10-H ) :   0.9531 B(  9-C , 11-H ) :   0.9571
B(  9-C , 12-C ) :   1.0845 B( 12-C , 13-H ) :   0.9717 B( 12-C , 14-H ) :   0.9763
B( 12-C , 15-H ) :   0.9721 B( 16-S , 17-C ) :   1.1611 B( 16-S , 20-C ) :   1.1650
B( 17-C , 18-C ) :   1.5820 B( 17-C , 20-C ) :   0.1154 B( 17-C , 33-H ) :   0.9602
B( 18-C , 19-C ) :   1.2571 B( 18-C , 21-H ) :   0.9736 B( 19-C , 20-C ) :   1.5538
B( 19-C , 22-C ) :   1.0361 B( 22-C , 23-H ) :   0.9323 B( 22-C , 24-H ) :   0.9509
B( 22-C , 25-C ) :   1.0568 B( 25-C , 26-H ) :   0.9565 B( 25-C , 27-H ) :   0.9556
B( 25-C , 28-C ) :   1.0797 B( 28-C , 29-H ) :   0.9726 B( 28-C , 30-H ) :   0.9695
B( 28-C , 31-H ) :   0.9720

Dispersion correction           -0.014058701
FINAL SINGLE POINT ENERGY     -1339.852204405880

DIPOLE MOMENT
-------------
                                X             Y             Z
Electronic contribution:     27.39870      -7.20917      -5.22074
Nuclear contribution   :    -27.90976       7.47778       5.44959
                        -----------------------------------------
Total Dipole Moment    :     -0.51106       0.26861       0.22885
                        -----------------------------------------
Magnitude (a.u.)       :      0.62105
Magnitude (Debye)      :      1.57859

Rotational constants in cm-1:     0.018423     0.008272     0.006430
Rotational constants in MHz :   552.320155   247.995768   192.770412

                             ****ORCA TERMINATED NORMALLY****
TOTAL RUN TIME: 0 days 0 hours 0 minutes 33 seconds 353 msec
