                         Program Version 4.2.1 -  RELEASE  -
|  1> ! wB97X-D3 SP def2-SVP
|  2> %pal
|  3> nprocs 16
|  4> end
|  5>
|  6> * xyz 0 1
|  7> S 	 -31.3158 	 30.1905 	 43.6679
|  8> C 	 -30.6276 	 28.9424 	 44.6394
|  9> C 	 -31.038 	 29.0732 	 45.9177
| 10> C 	 -31.6387 	 30.293 	 46.19
| 11> C 	 -31.8755 	 31.0779 	 45.081
| 12> H 	 -32.0628 	 30.6699 	 47.1153
| 13> C 	 -30.7816 	 28.003 	 46.9997
| 14> H 	 -30.8415 	 27.0897 	 46.4175
| 15> H 	 -31.6586 	 28.0001 	 47.6765
| 16> C 	 -29.5614 	 28.1473 	 47.9112
| 17> H 	 -29.3353 	 29.1671 	 48.114
| 18> H 	 -29.7375 	 27.6181 	 48.8186
| 19> C 	 -28.2726 	 27.7092 	 47.1943
| 20> H 	 -28.2804 	 26.7038 	 46.6067
| 21> H 	 -28.231 	 28.3479 	 46.3487
| 22> H 	 -27.4994 	 27.9089 	 47.8697
| 23> S 	 -31.5506 	 33.754 	 44.5537
| 24> C 	 -32.7199 	 34.8388 	 45.172
| 25> C 	 -33.9253 	 34.2371 	 45.3648
| 26> C 	 -33.8684 	 32.8246 	 45.435
| 27> C 	 -32.5535 	 32.4014 	 45.0453
| 28> H 	 -34.7895 	 34.7461 	 45.6381
| 29> C 	 -34.9342 	 31.812 	 45.8699
| 30> H 	 -34.9499 	 31.9212 	 46.96
| 31> H 	 -34.6775 	 30.7644 	 45.5976
| 32> C 	 -36.3825 	 32.1767 	 45.2962
| 33> H 	 -36.3295 	 32.0615 	 44.2031
| 34> H 	 -36.5822 	 33.2658 	 45.3938
| 35> C 	 -37.5488 	 31.3993 	 45.9098
| 36> H 	 -38.3857 	 31.2535 	 45.1301
| 37> H 	 -37.8568 	 31.8667 	 46.8472
| 38> H 	 -37.119 	 30.4164 	 46.0385
| 39> H 	 -30.2942 	 28.0345 	 44.2443
| 40> H 	 -32.5462 	 35.9241 	 45.1057
| 41> *
| 42>
| 43>                          ****END OF INPUT****

CARTESIAN COORDINATES (ANGSTROEM)
---------------------------------
  S    -31.315800   30.190500   43.667900
  C    -30.627600   28.942400   44.639400
  C    -31.038000   29.073200   45.917700
  C    -31.638700   30.293000   46.190000
  C    -31.875500   31.077900   45.081000
  H    -32.062800   30.669900   47.115300
  C    -30.781600   28.003000   46.999700
  H    -30.841500   27.089700   46.417500
  H    -31.658600   28.000100   47.676500
  C    -29.561400   28.147300   47.911200
  H    -29.335300   29.167100   48.114000
  H    -29.737500   27.618100   48.818600
  C    -28.272600   27.709200   47.194300
  H    -28.280400   26.703800   46.606700
  H    -28.231000   28.347900   46.348700
  H    -27.499400   27.908900   47.869700
  S    -31.550600   33.754000   44.553700
  C    -32.719900   34.838800   45.172000
  C    -33.925300   34.237100   45.364800
  C    -33.868400   32.824600   45.435000
  C    -32.553500   32.401400   45.045300
  H    -34.789500   34.746100   45.638100
  C    -34.934200   31.812000   45.869900
  H    -34.949900   31.921200   46.960000
  H    -34.677500   30.764400   45.597600
  C    -36.382500   32.176700   45.296200
  H    -36.329500   32.061500   44.203100
  H    -36.582200   33.265800   45.393800
  C    -37.548800   31.399300   45.909800
  H    -38.385700   31.253500   45.130100
  H    -37.856800   31.866700   46.847200
  H    -37.119000   30.416400   46.038500
  H    -30.294200   28.034500   44.244300
  H    -32.546200   35.924100   45.105700

 Total Charge           Charge          ....    0
 Multiplicity           Mult            ....    1
 Number of Electrons    NEL             ....  134
 Basis Dimension        Dim             ....  322

ORBITAL ENERGIES
----------------

  NO   OCC          E(Eh)            E(eV)
   0   2.0000     -88.965006     -2420.8609
   1   2.0000     -88.962466     -2420.7918
   2   2.0000     -10.328447      -281.0513
   3   2.0000     -10.328359      -281.0489
   4   2.0000     -10.315962      -280.7116
   5   2.0000     -10.311423      -280.5881
   6   2.0000     -10.304142      -280.3900
   7   2.0000     -10.303254      -280.3658
   8   2.0000     -10.293291      -280.0947
   9   2.0000     -10.293198      -280.0921
  10   2.0000     -10.290785      -280.0265
  11   2.0000     -10.289900      -280.0024
  12   2.0000     -10.286866      -279.9199
  13   2.0000     -10.286276      -279.9038
  14   2.0000     -10.280419      -279.7444
  15   2.0000     -10.272267      -279.5226
  16   2.0000      -8.080681      -219.8865
  17   2.0000      -8.077646      -219.8039
  18   2.0000      -6.038955      -164.3283
  19   2.0000      -6.036049      -164.2492
  20   2.0000      -6.035143      -164.2246
  21   2.0000      -6.032098      -164.1417
  22   2.0000      -6.031538      -164.1265
  23   2.0000      -6.028483      -164.0434
  24   2.0000      -1.009665       -27.4744
  25   2.0000      -0.992317       -27.0023
  26   2.0000      -0.910349       -24.7719
  27   2.0000      -0.903670       -24.5901
  28   2.0000      -0.869218       -23.6526
  29   2.0000      -0.853995       -23.2384
  30   2.0000      -0.847679       -23.0665
  31   2.0000      -0.816570       -22.2200
  32   2.0000      -0.782135       -21.2830
  33   2.0000      -0.770375       -20.9630
  34   2.0000      -0.705031       -19.1849
  35   2.0000      -0.698135       -18.9972
  36   2.0000      -0.693147       -18.8615
  37   2.0000      -0.655863       -17.8469
  38   2.0000      -0.645740       -17.5715
  39   2.0000      -0.617822       -16.8118
  40   2.0000      -0.600573       -16.3424
  41   2.0000      -0.570727       -15.5303
  42   2.0000      -0.564728       -15.3670
  43   2.0000      -0.554395       -15.0858
  44   2.0000      -0.530836       -14.4448
  45   2.0000      -0.526945       -14.3389
  46   2.0000      -0.522773       -14.2254
  47   2.0000      -0.519543       -14.1375
  48   2.0000      -0.501858       -13.6562
  49   2.0000      -0.498588       -13.5673
  50   2.0000      -0.485438       -13.2095
  51   2.0000      -0.481363       -13.0985
  52   2.0000      -0.473437       -12.8829
  53   2.0000      -0.469960       -12.7883
  54   2.0000      -0.457270       -12.4429
  55   2.0000      -0.451179       -12.2772
  56   2.0000      -0.448495       -12.2042
  57   2.0000      -0.432026       -11.7560
  58   2.0000      -0.430232       -11.7072
  59   2.0000      -0.423870       -11.5341
  60   2.0000      -0.417118       -11.3504
  61   2.0000      -0.416734       -11.3399
  62   2.0000      -0.409739       -11.1496
  63   2.0000      -0.342738        -9.3264
  64   2.0000      -0.330905        -9.0044
  65   2.0000      -0.327772        -8.9191
  66   2.0000      -0.297451        -8.0941
  67   0.0000       0.036575         0.9953
  68   0.0000       0.058582         1.5941
  69   0.0000       0.114280         3.1097
  70   0.0000       0.119879         3.2621
  71   0.0000       0.133561         3.6344

MULLIKEN ATOMIC CHARGES
-----------------------
   0 S :    0.104297
   1 C :   -0.087666
   2 C :   -0.108992
   3 C :    0.041017
   4 C :   -0.167226
   5 H :    0.006012
   6 C :    0.054909
   7 H :    0.017436
   8 H :    0.022026
   9 C :   -0.017113
  10 H :    0.024144
  11 H :    0.028003
  12 C :   -0.052365
  13 H :    0.032864
  14 H :    0.016399
  15 H :    0.031820
  16 S :    0.122803
  17 C :   -0.096935
  18 C :   -0.007751
  19 C :   -0.027702
  20 C :   -0.199202
  21 H :   -0.006531
  22 C :    0.070486
  23 H :    0.039061
  24 H :    0.053992
  25 C :   -0.145061
  26 H :    0.038814
  27 H :    0.030382
  28 C :   -0.039324
  29 H :    0.050352
  30 H :    0.048014
  31 H :    0.027638
  32 H :    0.027785
  33 H :    0.067614
Sum of atomic charges:    0.0000000

LOEWDIN ATOMIC CHARGES
----------------------
   0 S :    0.407041
   1 C :   -0.199490
   2 C :   -0.069916
   3 C :   -0.067313
   4 C :   -0.194922
   5 H :    0.032243
   6 C :   -0.027720
   7 H :    0.026703
   8 H :    0.031807
   9 C :   -0.030965
  10 H :    0.027135
  11 H :    0.018825
  12 C :   -0.066760
  13 H :    0.032335
  14 H :    0.019764
  15 H :    0.018785
  16 S :    0.427934
  17 C :   -0.192241
  18 C :   -0.070860
  19 C :   -0.044441
  20 C :   -0.207093
  21 H :    0.019295
  22 C :   -0.030044
  23 H :    0.033098
  24 H :    0.037365
  25 C :   -0.049951
  26 H :    0.026290
  27 H :    0.020707
  28 C :   -0.069666
  29 H :    0.040291
  30 H :    0.028207
  31 H :    0.023960
  32 H :    0.016910
  33 H :    0.032685

  Mayer bond orders larger than 0.100000
B(  0-S ,  1-C ) :   1.1433 B(  0-S ,  4-C ) :   1.1654 B(  1-C ,  2-C ) :   1.6056
B(  1-C , 32-H ) :   0.9676 B(  2-C ,  3-C ) :   1.2513 B(  2-C ,  6-C ) :   1.0162
B(  3-C ,  4-C ) :   1.5730 B(  3-C ,  5-H ) :   1.0010 B(  4-C , 20-C ) :   1.0108
B(  6-C ,  7-H ) :   0.9437 B(  6-C ,  8-H ) :   0.9413 B(  6-C ,  9-C ) :   1.0667
B(  9-C , 10-H ) :   0.9548 B(  9-C , 11-H ) :   0.9582 B(  9-C , 12-C ) :   1.0676
B( 12-C , 13-H ) :   0.9748 B( 12-C , 14-H ) :   0.9749 B( 12-C , 15-H ) :   0.9750
B( 16-S , 17-C ) :   1.1806 B( 16-S , 20-C ) :   1.1681 B( 17-C , 18-C ) :   1.5778
B( 17-C , 20-C ) :   0.1061 B( 17-C , 33-H ) :   0.9641 B( 18-C , 19-C ) :   1.2667
B( 18-C , 21-H ) :   0.9949 B( 19-C , 20-C ) :   1.5573 B( 19-C , 22-C ) :   1.0302
B( 22-C , 23-H ) :   0.9337 B( 22-C , 24-H ) :   0.9366 B( 22-C , 25-C ) :   1.0473
B( 25-C , 26-H ) :   0.9601 B( 25-C , 27-H ) :   0.9608 B( 25-C , 28-C ) :   1.0719
B( 28-C , 29-H ) :   0.9738 B( 28-C , 30-H ) :   0.9764 B( 28-C , 31-H ) :   0.9746

Dispersion correction           -0.013869350
FINAL SINGLE POINT ENERGY     -1339.858065825067

DIPOLE MOMENT
-------------
                                X             Y             Z
Electronic contribution:      8.96081      13.96821     -14.71240
Nuclear contribution   :     -9.44782     -14.04132      15.17518
                        -----------------------------------------
Total Dipole Moment    :     -0.48701      -0.07311       0.46278
                        -----------------------------------------
Magnitude (a.u.)       :      0.67578
Magnitude (Debye)      :      1.71771

Rotational constants in cm-1:     0.019100     0.007562     0.006368
Rotational constants in MHz :   572.594632   226.706070   190.896028

                             ****ORCA TERMINATED NORMALLY****
TOTAL RUN TIME: 0 days 0 hours 0 minutes 32 seconds 603 msec
