                         Program Version 4.2.1 -  RELEASE  -
|  1> ! wB97X-D3 SP def2-SVP
|  2> %pal
|  3> nprocs 16
|  4> end
|  5>
|  6> * xyz 0 1
|  7> S 	 -51.7543 	 31.7555 	 93.1038
|  8> C 	 -52.0344 	 30.2182 	 93.9505
|  9> C 	 -52.3009 	 29.2022 	 93.0784
| 10> C 	 -52.2016 	 29.6194 	 91.7405
| 11> C 	 -51.8476 	 30.9279 	 91.5417
| 12> H 	 -52.1388 	 29.0063 	 90.8635
| 13> C 	 -52.8076 	 27.792 	 93.4607
| 14> H 	 -52.4832 	 27.3904 	 94.4166
| 15> H 	 -52.2241 	 27.2097 	 92.7551
| 16> C 	 -54.2464 	 27.4837 	 93.1918
| 17> H 	 -54.5597 	 27.947 	 92.2854
| 18> H 	 -54.5024 	 26.4584 	 93.0434
| 19> C 	 -55.0679 	 28.0304 	 94.4063
| 20> H 	 -55.0277 	 29.1045 	 94.3778
| 21> H 	 -56.089 	 27.7943 	 94.3541
| 22> H 	 -54.6457 	 27.7416 	 95.3754
| 23> S 	 -49.8759 	 32.2994 	 90.107
| 24> C 	 -50.1385 	 32.9334 	 88.6234
| 25> C 	 -51.364 	 32.4798 	 88.1847
| 26> C 	 -52.1312 	 31.7406 	 89.1424
| 27> C 	 -51.4616 	 31.6331 	 90.3223
| 28> H 	 -51.6571 	 32.6627 	 87.1739
| 29> C 	 -53.4732 	 31.1706 	 88.6998
| 30> H 	 -53.2925 	 30.0886 	 88.8611
| 31> H 	 -53.4677 	 31.1915 	 87.6115
| 32> C 	 -54.7501 	 31.736 	 89.3679
| 33> H 	 -54.7639 	 32.8458 	 89.0962
| 34> H 	 -54.5954 	 31.7014 	 90.4845
| 35> C 	 -56.0776 	 31.1043 	 88.9685
| 36> H 	 -55.916 	 30.0443 	 89.245
| 37> H 	 -56.3598 	 31.2143 	 87.9505
| 38> H 	 -56.8285 	 31.6001 	 89.6055
| 39> H 	 -51.9598 	 30.0843 	 94.9949
| 40> H 	 -49.3464 	 33.3744 	 87.9833
| 41> *
| 42>
| 43>                          ****END OF INPUT****

CARTESIAN COORDINATES (ANGSTROEM)
---------------------------------
  S    -51.754300   31.755500   93.103800
  C    -52.034400   30.218200   93.950500
  C    -52.300900   29.202200   93.078400
  C    -52.201600   29.619400   91.740500
  C    -51.847600   30.927900   91.541700
  H    -52.138800   29.006300   90.863500
  C    -52.807600   27.792000   93.460700
  H    -52.483200   27.390400   94.416600
  H    -52.224100   27.209700   92.755100
  C    -54.246400   27.483700   93.191800
  H    -54.559700   27.947000   92.285400
  H    -54.502400   26.458400   93.043400
  C    -55.067900   28.030400   94.406300
  H    -55.027700   29.104500   94.377800
  H    -56.089000   27.794300   94.354100
  H    -54.645700   27.741600   95.375400
  S    -49.875900   32.299400   90.107000
  C    -50.138500   32.933400   88.623400
  C    -51.364000   32.479800   88.184700
  C    -52.131200   31.740600   89.142400
  C    -51.461600   31.633100   90.322300
  H    -51.657100   32.662700   87.173900
  C    -53.473200   31.170600   88.699800
  H    -53.292500   30.088600   88.861100
  H    -53.467700   31.191500   87.611500
  C    -54.750100   31.736000   89.367900
  H    -54.763900   32.845800   89.096200
  H    -54.595400   31.701400   90.484500
  C    -56.077600   31.104300   88.968500
  H    -55.916000   30.044300   89.245000
  H    -56.359800   31.214300   87.950500
  H    -56.828500   31.600100   89.605500
  H    -51.959800   30.084300   94.994900
  H    -49.346400   33.374400   87.983300

 Total Charge           Charge          ....    0
 Multiplicity           Mult            ....    1
 Number of Electrons    NEL             ....  134
 Basis Dimension        Dim             ....  322

ORBITAL ENERGIES
----------------

  NO   OCC          E(Eh)            E(eV)
   0   2.0000     -88.963816     -2420.8285
   1   2.0000     -88.962064     -2420.7808
   2   2.0000     -10.330418      -281.1050
   3   2.0000     -10.321466      -280.8614
   4   2.0000     -10.312187      -280.6089
   5   2.0000     -10.311832      -280.5992
   6   2.0000     -10.302106      -280.3345
   7   2.0000     -10.300105      -280.2801
   8   2.0000     -10.294011      -280.1143
   9   2.0000     -10.293990      -280.1137
  10   2.0000     -10.291470      -280.0451
  11   2.0000     -10.291287      -280.0402
  12   2.0000     -10.286171      -279.9009
  13   2.0000     -10.281784      -279.7816
  14   2.0000     -10.278987      -279.7055
  15   2.0000     -10.269235      -279.4401
  16   2.0000      -8.079533      -219.8553
  17   2.0000      -8.078051      -219.8149
  18   2.0000      -6.037768      -164.2960
  19   2.0000      -6.036592      -164.2640
  20   2.0000      -6.033463      -164.1789
  21   2.0000      -6.032664      -164.1571
  22   2.0000      -6.030555      -164.0997
  23   2.0000      -6.028768      -164.0511
  24   2.0000      -1.019062       -27.7301
  25   2.0000      -0.991798       -26.9882
  26   2.0000      -0.915251       -24.9052
  27   2.0000      -0.907958       -24.7068
  28   2.0000      -0.872321       -23.7371
  29   2.0000      -0.855216       -23.2716
  30   2.0000      -0.844243       -22.9730
  31   2.0000      -0.813849       -22.1460
  32   2.0000      -0.785461       -21.3735
  33   2.0000      -0.779010       -21.1979
  34   2.0000      -0.710170       -19.3247
  35   2.0000      -0.700845       -19.0710
  36   2.0000      -0.690290       -18.7838
  37   2.0000      -0.663115       -18.0443
  38   2.0000      -0.647055       -17.6073
  39   2.0000      -0.622784       -16.9468
  40   2.0000      -0.595524       -16.2050
  41   2.0000      -0.572333       -15.5740
  42   2.0000      -0.560752       -15.2588
  43   2.0000      -0.555966       -15.1286
  44   2.0000      -0.537475       -14.6254
  45   2.0000      -0.529170       -14.3994
  46   2.0000      -0.520530       -14.1643
  47   2.0000      -0.517520       -14.0824
  48   2.0000      -0.504792       -13.7361
  49   2.0000      -0.499332       -13.5875
  50   2.0000      -0.494185       -13.4475
  51   2.0000      -0.479355       -13.0439
  52   2.0000      -0.475666       -12.9435
  53   2.0000      -0.466093       -12.6830
  54   2.0000      -0.459511       -12.5039
  55   2.0000      -0.449412       -12.2291
  56   2.0000      -0.446508       -12.1501
  57   2.0000      -0.436107       -11.8671
  58   2.0000      -0.433051       -11.7839
  59   2.0000      -0.429438       -11.6856
  60   2.0000      -0.418726       -11.3941
  61   2.0000      -0.407767       -11.0959
  62   2.0000      -0.405734       -11.0406
  63   2.0000      -0.345728        -9.4077
  64   2.0000      -0.333891        -9.0856
  65   2.0000      -0.324833        -8.8392
  66   2.0000      -0.300957        -8.1894
  67   0.0000       0.032992         0.8978
  68   0.0000       0.072340         1.9685
  69   0.0000       0.115556         3.1444
  70   0.0000       0.121380         3.3029
  71   0.0000       0.130351         3.5470

MULLIKEN ATOMIC CHARGES
-----------------------
   0 S :    0.097802
   1 C :   -0.103784
   2 C :   -0.075083
   3 C :    0.040382
   4 C :   -0.188674
   5 H :    0.009625
   6 C :    0.070565
   7 H :    0.019201
   8 H :    0.014994
   9 C :   -0.023665
  10 H :    0.013811
  11 H :    0.024221
  12 C :   -0.039827
  13 H :    0.026015
  14 H :    0.020587
  15 H :    0.022421
  16 S :    0.132514
  17 C :   -0.094799
  18 C :   -0.059858
  19 C :   -0.035540
  20 C :   -0.167658
  21 H :    0.003212
  22 C :    0.095056
  23 H :    0.016731
  24 H :    0.007872
  25 C :   -0.118624
  26 H :    0.036413
  27 H :    0.053733
  28 C :   -0.018633
  29 H :    0.035196
  30 H :    0.032944
  31 H :    0.043199
  32 H :    0.030572
  33 H :    0.079077
Sum of atomic charges:    0.0000000

LOEWDIN ATOMIC CHARGES
----------------------
   0 S :    0.382466
   1 C :   -0.175222
   2 C :   -0.062597
   3 C :   -0.064747
   4 C :   -0.179201
   5 H :    0.029793
   6 C :   -0.028102
   7 H :    0.027601
   8 H :    0.030700
   9 C :   -0.031937
  10 H :    0.021207
  11 H :    0.021498
  12 C :   -0.059389
  13 H :    0.024293
  14 H :    0.015784
  15 H :    0.023003
  16 S :    0.467686
  17 C :   -0.228140
  18 C :   -0.081382
  19 C :   -0.053288
  20 C :   -0.222806
  21 H :    0.021833
  22 C :   -0.037706
  23 H :    0.030626
  24 H :    0.027508
  25 C :   -0.048329
  26 H :    0.029102
  27 H :    0.033698
  28 C :   -0.063079
  29 H :    0.030041
  30 H :    0.019860
  31 H :    0.034151
  32 H :    0.020473
  33 H :    0.044601

  Mayer bond orders larger than 0.100000
B(  0-S ,  1-C ) :   1.1309 B(  0-S ,  4-C ) :   1.1385 B(  1-C ,  2-C ) :   1.6345
B(  1-C , 32-H ) :   0.9740 B(  2-C ,  3-C ) :   1.2243 B(  2-C ,  6-C ) :   1.0106
B(  3-C ,  4-C ) :   1.6155 B(  3-C ,  5-H ) :   0.9878 B(  4-C , 20-C ) :   1.0269
B(  6-C ,  7-H ) :   0.9496 B(  6-C ,  8-H ) :   0.9277 B(  6-C ,  9-C ) :   1.0800
B(  9-C , 10-H ) :   0.9503 B(  9-C , 11-H ) :   0.9560 B(  9-C , 12-C ) :   1.0708
B( 12-C , 13-H ) :   0.9772 B( 12-C , 14-H ) :   0.9747 B( 12-C , 15-H ) :   0.9779
B( 16-S , 17-C ) :   1.2056 B( 16-S , 20-C ) :   1.1690 B( 17-C , 18-C ) :   1.5413
B( 17-C , 33-H ) :   0.9635 B( 18-C , 19-C ) :   1.2900 B( 18-C , 21-H ) :   0.9955
B( 19-C , 20-C ) :   1.5609 B( 19-C , 22-C ) :   1.0275 B( 22-C , 23-H ) :   0.9248
B( 22-C , 24-H ) :   0.9315 B( 22-C , 25-C ) :   1.0503 B( 25-C , 26-H ) :   0.9519
B( 25-C , 27-H ) :   0.9570 B( 25-C , 28-C ) :   1.0789 B( 28-C , 29-H ) :   0.9746
B( 28-C , 30-H ) :   0.9759 B( 28-C , 31-H ) :   0.9724

Dispersion correction           -0.014580107
FINAL SINGLE POINT ENERGY     -1339.872392647180

DIPOLE MOMENT
-------------
                                X             Y             Z
Electronic contribution:     24.76122      15.48083       0.66331
Nuclear contribution   :    -25.03770     -15.96623      -1.03515
                        -----------------------------------------
Total Dipole Moment    :     -0.27648      -0.48540      -0.37184
                        -----------------------------------------
Magnitude (a.u.)       :      0.67106
Magnitude (Debye)      :      1.70570

Rotational constants in cm-1:     0.018611     0.009238     0.006975
Rotational constants in MHz :   557.950933   276.961136   209.107776

                             ****ORCA TERMINATED NORMALLY****
TOTAL RUN TIME: 0 days 0 hours 0 minutes 30 seconds 936 msec
