                         Program Version 4.2.1 -  RELEASE  -
|  1> ! wB97X-D3 SP def2-SVP
|  2> %pal
|  3> nprocs 16
|  4> end
|  5>
|  6> * xyz 0 1
|  7> S 	 -42.29 	 27.2953 	 84.3444
|  8> C 	 -42.7329 	 26.1533 	 85.5742
|  9> C 	 -44.101 	 25.7669 	 85.5458
| 10> C 	 -44.7461 	 26.5192 	 84.456
| 11> C 	 -43.8981 	 27.2546 	 83.6476
| 12> H 	 -45.7745 	 26.4375 	 84.2335
| 13> C 	 -44.7062 	 24.6676 	 86.4523
| 14> H 	 -45.655 	 25.1411 	 86.7853
| 15> H 	 -44.1622 	 24.656 	 87.343
| 16> C 	 -44.9301 	 23.2447 	 85.8617
| 17> H 	 -45.203 	 22.5027 	 86.559
| 18> H 	 -45.6193 	 23.3387 	 85.0539
| 19> C 	 -43.7059 	 22.6861 	 85.1952
| 20> H 	 -43.8732 	 21.6947 	 84.8039
| 21> H 	 -43.3573 	 23.2621 	 84.3026
| 22> H 	 -42.8792 	 22.6965 	 85.84
| 23> S 	 -43.8039 	 29.7444 	 82.5109
| 24> C 	 -44.7085 	 30.0552 	 81.0131
| 25> C 	 -45.3487 	 28.9172 	 80.587
| 26> C 	 -45.158 	 27.8185 	 81.4537
| 27> C 	 -44.2889 	 28.0666 	 82.5006
| 28> H 	 -45.936 	 28.9393 	 79.638
| 29> C 	 -45.8684 	 26.4808 	 81.1481
| 30> H 	 -46.5147 	 26.6619 	 80.17
| 31> H 	 -46.5666 	 26.3324 	 81.8799
| 32> C 	 -44.8984 	 25.2542 	 81.0814
| 33> H 	 -44.4957 	 25.0602 	 82.0572
| 34> H 	 -43.9912 	 25.5025 	 80.5054
| 35> C 	 -45.5008 	 23.9308 	 80.4071
| 36> H 	 -45.7019 	 23.8695 	 79.341
| 37> H 	 -46.3987 	 23.6247 	 80.9508
| 38> H 	 -44.7133 	 23.2084 	 80.6556
| 39> H 	 -41.9366 	 25.706 	 86.0891
| 40> H 	 -44.6144 	 30.9179 	 80.3809
| 41> *
| 42>
| 43>                          ****END OF INPUT****

CARTESIAN COORDINATES (ANGSTROEM)
---------------------------------
  S    -42.290000   27.295300   84.344400
  C    -42.732900   26.153300   85.574200
  C    -44.101000   25.766900   85.545800
  C    -44.746100   26.519200   84.456000
  C    -43.898100   27.254600   83.647600
  H    -45.774500   26.437500   84.233500
  C    -44.706200   24.667600   86.452300
  H    -45.655000   25.141100   86.785300
  H    -44.162200   24.656000   87.343000
  C    -44.930100   23.244700   85.861700
  H    -45.203000   22.502700   86.559000
  H    -45.619300   23.338700   85.053900
  C    -43.705900   22.686100   85.195200
  H    -43.873200   21.694700   84.803900
  H    -43.357300   23.262100   84.302600
  H    -42.879200   22.696500   85.840000
  S    -43.803900   29.744400   82.510900
  C    -44.708500   30.055200   81.013100
  C    -45.348700   28.917200   80.587000
  C    -45.158000   27.818500   81.453700
  C    -44.288900   28.066600   82.500600
  H    -45.936000   28.939300   79.638000
  C    -45.868400   26.480800   81.148100
  H    -46.514700   26.661900   80.170000
  H    -46.566600   26.332400   81.879900
  C    -44.898400   25.254200   81.081400
  H    -44.495700   25.060200   82.057200
  H    -43.991200   25.502500   80.505400
  C    -45.500800   23.930800   80.407100
  H    -45.701900   23.869500   79.341000
  H    -46.398700   23.624700   80.950800
  H    -44.713300   23.208400   80.655600
  H    -41.936600   25.706000   86.089100
  H    -44.614400   30.917900   80.380900

 Total Charge           Charge          ....    0
 Multiplicity           Mult            ....    1
 Number of Electrons    NEL             ....  134
 Basis Dimension        Dim             ....  322

ORBITAL ENERGIES
----------------

  NO   OCC          E(Eh)            E(eV)
   0   2.0000     -88.967705     -2420.9343
   1   2.0000     -88.965309     -2420.8691
   2   2.0000     -10.331974      -281.1473
   3   2.0000     -10.326236      -280.9912
   4   2.0000     -10.316070      -280.7145
   5   2.0000     -10.315854      -280.7087
   6   2.0000     -10.315691      -280.7042
   7   2.0000     -10.301925      -280.3296
   8   2.0000     -10.298526      -280.2371
   9   2.0000     -10.298061      -280.2245
  10   2.0000     -10.295960      -280.1673
  11   2.0000     -10.294865      -280.1375
  12   2.0000     -10.289236      -279.9843
  13   2.0000     -10.284857      -279.8652
  14   2.0000     -10.281402      -279.7712
  15   2.0000     -10.269810      -279.4557
  16   2.0000      -8.082803      -219.9442
  17   2.0000      -8.079702      -219.8599
  18   2.0000      -6.041179      -164.3888
  19   2.0000      -6.038293      -164.3103
  20   2.0000      -6.037276      -164.2826
  21   2.0000      -6.034246      -164.2002
  22   2.0000      -6.033661      -164.1843
  23   2.0000      -6.030406      -164.0957
  24   2.0000      -1.005800       -27.3692
  25   2.0000      -0.981360       -26.7042
  26   2.0000      -0.913329       -24.8530
  27   2.0000      -0.895545       -24.3690
  28   2.0000      -0.870979       -23.7005
  29   2.0000      -0.850483       -23.1428
  30   2.0000      -0.842465       -22.9246
  31   2.0000      -0.815981       -22.2040
  32   2.0000      -0.783904       -21.3311
  33   2.0000      -0.771388       -20.9905
  34   2.0000      -0.711230       -19.3536
  35   2.0000      -0.703557       -19.1447
  36   2.0000      -0.690013       -18.7762
  37   2.0000      -0.661932       -18.0121
  38   2.0000      -0.646942       -17.6042
  39   2.0000      -0.621731       -16.9182
  40   2.0000      -0.591659       -16.0998
  41   2.0000      -0.572704       -15.5841
  42   2.0000      -0.552933       -15.0461
  43   2.0000      -0.551984       -15.0203
  44   2.0000      -0.547862       -14.9081
  45   2.0000      -0.520281       -14.1576
  46   2.0000      -0.518790       -14.1170
  47   2.0000      -0.511295       -13.9130
  48   2.0000      -0.500562       -13.6210
  49   2.0000      -0.495154       -13.4738
  50   2.0000      -0.490629       -13.3507
  51   2.0000      -0.479911       -13.0590
  52   2.0000      -0.472061       -12.8454
  53   2.0000      -0.465026       -12.6540
  54   2.0000      -0.460105       -12.5201
  55   2.0000      -0.447586       -12.1794
  56   2.0000      -0.445998       -12.1362
  57   2.0000      -0.440512       -11.9869
  58   2.0000      -0.432669       -11.7735
  59   2.0000      -0.427366       -11.6292
  60   2.0000      -0.421221       -11.4620
  61   2.0000      -0.416014       -11.3203
  62   2.0000      -0.407641       -11.0925
  63   2.0000      -0.351143        -9.5551
  64   2.0000      -0.332175        -9.0390
  65   2.0000      -0.329185        -8.9576
  66   2.0000      -0.291368        -7.9285
  67   0.0000       0.025849         0.7034
  68   0.0000       0.068939         1.8759
  69   0.0000       0.107921         2.9367
  70   0.0000       0.120366         3.2753
  71   0.0000       0.122742         3.3400

MULLIKEN ATOMIC CHARGES
-----------------------
   0 S :    0.107937
   1 C :   -0.107791
   2 C :   -0.126058
   3 C :    0.038271
   4 C :   -0.158397
   5 H :   -0.003387
   6 C :    0.087036
   7 H :    0.032235
   8 H :    0.009171
   9 C :   -0.006209
  10 H :    0.031901
  11 H :    0.020443
  12 C :   -0.065732
  13 H :    0.028300
  14 H :    0.039525
  15 H :    0.010232
  16 S :    0.099586
  17 C :   -0.088106
  18 C :   -0.059777
  19 C :   -0.045381
  20 C :   -0.133543
  21 H :    0.037387
  22 C :    0.088380
  23 H :    0.031607
  24 H :    0.008791
  25 C :   -0.095743
  26 H :    0.040469
  27 H :    0.035720
  28 C :   -0.056698
  29 H :    0.045472
  30 H :    0.027345
  31 H :    0.032904
  32 H :    0.041131
  33 H :    0.052978
Sum of atomic charges:   -0.0000000

LOEWDIN ATOMIC CHARGES
----------------------
   0 S :    0.410297
   1 C :   -0.189572
   2 C :   -0.054334
   3 C :   -0.055693
   4 C :   -0.196755
   5 H :    0.021933
   6 C :   -0.027940
   7 H :    0.038219
   8 H :    0.022298
   9 C :   -0.030527
  10 H :    0.024902
  11 H :    0.023011
  12 C :   -0.063844
  13 H :    0.024565
  14 H :    0.029190
  15 H :    0.012181
  16 S :    0.397288
  17 C :   -0.178014
  18 C :   -0.075241
  19 C :   -0.059967
  20 C :   -0.200768
  21 H :    0.041555
  22 C :   -0.028265
  23 H :    0.040306
  24 H :    0.012469
  25 C :   -0.037846
  26 H :    0.022509
  27 H :    0.027834
  28 C :   -0.068968
  29 H :    0.025230
  30 H :    0.021935
  31 H :    0.030277
  32 H :    0.013682
  33 H :    0.028053

  Mayer bond orders larger than 0.100000
B(  0-S ,  1-C ) :   1.1604 B(  0-S ,  4-C ) :   1.1469 B(  1-C ,  2-C ) :   1.5848
B(  1-C , 32-H ) :   0.9740 B(  2-C ,  3-C ) :   1.2378 B(  2-C ,  6-C ) :   1.0186
B(  3-C ,  4-C ) :   1.5687 B(  3-C ,  5-H ) :   0.9991 B(  4-C , 20-C ) :   1.0397
B(  6-C ,  7-H ) :   0.9390 B(  6-C ,  8-H ) :   0.9401 B(  6-C ,  9-C ) :   1.0613
B(  9-C , 10-H ) :   0.9569 B(  9-C , 11-H ) :   0.9554 B(  9-C , 12-C ) :   1.0868
B( 12-C , 13-H ) :   0.9718 B( 12-C , 14-H ) :   0.9689 B( 12-C , 15-H ) :   0.9755
B( 16-S , 17-C ) :   1.1465 B( 16-S , 20-C ) :   1.1403 B( 17-C , 18-C ) :   1.6198
B( 17-C , 20-C ) :   0.1029 B( 17-C , 33-H ) :   0.9648 B( 18-C , 19-C ) :   1.2608
B( 18-C , 21-H ) :   0.9801 B( 19-C , 20-C ) :   1.5966 B( 19-C , 22-C ) :   1.0257
B( 22-C , 23-H ) :   0.9449 B( 22-C , 24-H ) :   0.9248 B( 22-C , 25-C ) :   1.0503
B( 25-C , 26-H ) :   0.9506 B( 25-C , 27-H ) :   0.9626 B( 25-C , 28-C ) :   1.0738
B( 28-C , 29-H ) :   0.9800 B( 28-C , 30-H ) :   0.9767 B( 28-C , 31-H ) :   0.9763

Dispersion correction           -0.015411091
FINAL SINGLE POINT ENERGY     -1339.867827347081

DIPOLE MOMENT
-------------
                                X             Y             Z
Electronic contribution:     10.27352      28.72292       1.92241
Nuclear contribution   :    -10.62502     -29.33485      -1.97402
                        -----------------------------------------
Total Dipole Moment    :     -0.35150      -0.61193      -0.05161
                        -----------------------------------------
Magnitude (a.u.)       :      0.70759
Magnitude (Debye)      :      1.79854

Rotational constants in cm-1:     0.018954     0.009740     0.007169
Rotational constants in MHz :   568.234448   291.989081   214.922675

                             ****ORCA TERMINATED NORMALLY****
TOTAL RUN TIME: 0 days 0 hours 0 minutes 31 seconds 540 msec
