                         Program Version 4.2.1 -  RELEASE  -
|  1> ! wB97X-D3 SP def2-SVP
|  2> %pal
|  3> nprocs 16
|  4> end
|  5>
|  6> * xyz 0 1
|  7> S 	 -77.6127 	 45.5463 	 124.168
|  8> C 	 -79.3613 	 45.7118 	 124.101
|  9> C 	 -80.0914 	 45.2915 	 125.198
| 10> C 	 -79.1384 	 44.8221 	 126.148
| 11> C 	 -77.8047 	 44.853 	 125.745
| 12> H 	 -79.3338 	 44.5485 	 127.186
| 13> C 	 -81.5354 	 45.6246 	 125.473
| 14> H 	 -82.07 	 45.8923 	 124.55
| 15> H 	 -81.4815 	 46.5871 	 126.013
| 16> C 	 -82.2876 	 44.5916 	 126.282
| 17> H 	 -81.849 	 44.3741 	 127.15
| 18> H 	 -83.1608 	 45.0746 	 126.659
| 19> C 	 -82.7832 	 43.3906 	 125.543
| 20> H 	 -83.5398 	 43.5963 	 124.724
| 21> H 	 -81.9616 	 42.7408 	 125.229
| 22> H 	 -83.2963 	 42.7657 	 126.317
| 23> S 	 -75.7749 	 45.8794 	 127.32
| 24> C 	 -74.8985 	 44.8056 	 128.344
| 25> C 	 -75.2556 	 43.5123 	 128.266
| 26> C 	 -76.2191 	 43.3415 	 127.249
| 27> C 	 -76.6918 	 44.5226 	 126.616
| 28> H 	 -74.7915 	 42.8395 	 128.998
| 29> C 	 -76.7885 	 42.0061 	 127.026
| 30> H 	 -75.9077 	 41.4529 	 127.031
| 31> H 	 -77.1706 	 41.7782 	 126.027
| 32> C 	 -77.8478 	 41.4373 	 128.098
| 33> H 	 -78.7269 	 42.1459 	 128.045
| 34> H 	 -77.4685 	 41.5484 	 129.09
| 35> C 	 -78.1576 	 39.9372 	 127.734
| 36> H 	 -78.5685 	 39.821 	 126.729
| 37> H 	 -78.9381 	 39.5736 	 128.34
| 38> H 	 -77.2212 	 39.3021 	 127.732
| 39> H 	 -79.9605 	 46.2779 	 123.369
| 40> H 	 -74.2317 	 45.1209 	 129.181
| 41> *
| 42>
| 43>                          ****END OF INPUT****

CARTESIAN COORDINATES (ANGSTROEM)
---------------------------------
  S    -77.612700   45.546300  124.168000
  C    -79.361300   45.711800  124.101000
  C    -80.091400   45.291500  125.198000
  C    -79.138400   44.822100  126.148000
  C    -77.804700   44.853000  125.745000
  H    -79.333800   44.548500  127.186000
  C    -81.535400   45.624600  125.473000
  H    -82.070000   45.892300  124.550000
  H    -81.481500   46.587100  126.013000
  C    -82.287600   44.591600  126.282000
  H    -81.849000   44.374100  127.150000
  H    -83.160800   45.074600  126.659000
  C    -82.783200   43.390600  125.543000
  H    -83.539800   43.596300  124.724000
  H    -81.961600   42.740800  125.229000
  H    -83.296300   42.765700  126.317000
  S    -75.774900   45.879400  127.320000
  C    -74.898500   44.805600  128.344000
  C    -75.255600   43.512300  128.266000
  C    -76.219100   43.341500  127.249000
  C    -76.691800   44.522600  126.616000
  H    -74.791500   42.839500  128.998000
  C    -76.788500   42.006100  127.026000
  H    -75.907700   41.452900  127.031000
  H    -77.170600   41.778200  126.027000
  C    -77.847800   41.437300  128.098000
  H    -78.726900   42.145900  128.045000
  H    -77.468500   41.548400  129.090000
  C    -78.157600   39.937200  127.734000
  H    -78.568500   39.821000  126.729000
  H    -78.938100   39.573600  128.340000
  H    -77.221200   39.302100  127.732000
  H    -79.960500   46.277900  123.369000
  H    -74.231700   45.120900  129.181000

 Total Charge           Charge          ....    0
 Multiplicity           Mult            ....    1
 Number of Electrons    NEL             ....  134
 Basis Dimension        Dim             ....  322

ORBITAL ENERGIES
----------------

  NO   OCC          E(Eh)            E(eV)
   0   2.0000     -88.971092     -2421.0265
   1   2.0000     -88.960174     -2420.7294
   2   2.0000     -10.325662      -280.9755
   3   2.0000     -10.325112      -280.9606
   4   2.0000     -10.312391      -280.6144
   5   2.0000     -10.311849      -280.5997
   6   2.0000     -10.302340      -280.3409
   7   2.0000     -10.299079      -280.2522
   8   2.0000     -10.296715      -280.1879
   9   2.0000     -10.295688      -280.1599
  10   2.0000     -10.294092      -280.1165
  11   2.0000     -10.287888      -279.9477
  12   2.0000     -10.282976      -279.8140
  13   2.0000     -10.282176      -279.7922
  14   2.0000     -10.278616      -279.6954
  15   2.0000     -10.273484      -279.5557
  16   2.0000      -8.085583      -220.0199
  17   2.0000      -8.075223      -219.7380
  18   2.0000      -6.043995      -164.4655
  19   2.0000      -6.040299      -164.3649
  20   2.0000      -6.036298      -164.2560
  21   2.0000      -6.033573      -164.1819
  22   2.0000      -6.029687      -164.0761
  23   2.0000      -6.026132      -163.9794
  24   2.0000      -1.005397       -27.3582
  25   2.0000      -0.985718       -26.8228
  26   2.0000      -0.921598       -25.0780
  27   2.0000      -0.900444       -24.5023
  28   2.0000      -0.872772       -23.7493
  29   2.0000      -0.851126       -23.1603
  30   2.0000      -0.846386       -23.0313
  31   2.0000      -0.813767       -22.1437
  32   2.0000      -0.786370       -21.3982
  33   2.0000      -0.765461       -20.8292
  34   2.0000      -0.715163       -19.4606
  35   2.0000      -0.705076       -19.1861
  36   2.0000      -0.690789       -18.7973
  37   2.0000      -0.652493       -17.7552
  38   2.0000      -0.638731       -17.3807
  39   2.0000      -0.620530       -16.8855
  40   2.0000      -0.594807       -16.1855
  41   2.0000      -0.574051       -15.6207
  42   2.0000      -0.558187       -15.1890
  43   2.0000      -0.550027       -14.9670
  44   2.0000      -0.543016       -14.7762
  45   2.0000      -0.522410       -14.2155
  46   2.0000      -0.516971       -14.0675
  47   2.0000      -0.507507       -13.8100
  48   2.0000      -0.496807       -13.5188
  49   2.0000      -0.490942       -13.3592
  50   2.0000      -0.486387       -13.2353
  51   2.0000      -0.474455       -12.9106
  52   2.0000      -0.470121       -12.7927
  53   2.0000      -0.464619       -12.6429
  54   2.0000      -0.459354       -12.4997
  55   2.0000      -0.449946       -12.2437
  56   2.0000      -0.443866       -12.0782
  57   2.0000      -0.440748       -11.9934
  58   2.0000      -0.435686       -11.8556
  59   2.0000      -0.433166       -11.7870
  60   2.0000      -0.427226       -11.6254
  61   2.0000      -0.416187       -11.3250
  62   2.0000      -0.408515       -11.1163
  63   2.0000      -0.338850        -9.2206
  64   2.0000      -0.330832        -9.0024
  65   2.0000      -0.319763        -8.7012
  66   2.0000      -0.298037        -8.1100
  67   0.0000       0.038168         1.0386
  68   0.0000       0.061028         1.6607
  69   0.0000       0.116498         3.1701
  70   0.0000       0.123792         3.3685
  71   0.0000       0.129251         3.5171

MULLIKEN ATOMIC CHARGES
-----------------------
   0 S :    0.139405
   1 C :   -0.116435
   2 C :   -0.077617
   3 C :    0.017487
   4 C :   -0.175150
   5 H :    0.018366
   6 C :    0.055398
   7 H :    0.017166
   8 H :    0.049020
   9 C :   -0.000236
  10 H :   -0.011506
  11 H :    0.004831
  12 C :   -0.065811
  13 H :    0.047492
  14 H :    0.040295
  15 H :    0.029638
  16 S :    0.097764
  17 C :   -0.092986
  18 C :   -0.056366
  19 C :   -0.013166
  20 C :   -0.161685
  21 H :    0.030099
  22 C :    0.052643
  23 H :    0.001122
  24 H :    0.019233
  25 C :   -0.064806
  26 H :    0.032309
  27 H :    0.022111
  28 C :   -0.041596
  29 H :    0.027575
  30 H :    0.028350
  31 H :    0.044319
  32 H :    0.039692
  33 H :    0.063046
Sum of atomic charges:    0.0000000

LOEWDIN ATOMIC CHARGES
----------------------
   0 S :    0.417727
   1 C :   -0.199154
   2 C :   -0.067075
   3 C :   -0.054317
   4 C :   -0.213706
   5 H :    0.028290
   6 C :   -0.027900
   7 H :    0.031551
   8 H :    0.043152
   9 C :   -0.040871
  10 H :    0.008410
  11 H :    0.027628
  12 C :   -0.066729
  13 H :    0.033295
  14 H :    0.026015
  15 H :    0.031918
  16 S :    0.397980
  17 C :   -0.190571
  18 C :   -0.084921
  19 C :   -0.050009
  20 C :   -0.200048
  21 H :    0.042390
  22 C :   -0.038546
  23 H :    0.021798
  24 H :    0.030317
  25 C :   -0.028878
  26 H :    0.027150
  27 H :    0.015917
  28 C :   -0.067116
  29 H :    0.026587
  30 H :    0.019307
  31 H :    0.034862
  32 H :    0.028064
  33 H :    0.037483

  Mayer bond orders larger than 0.100000
B(  0-S ,  1-C ) :   1.1423 B(  0-S ,  4-C ) :   1.1417 B(  1-C ,  2-C ) :   1.6327
B(  1-C , 32-H ) :   0.9530 B(  2-C ,  3-C ) :   1.2297 B(  2-C ,  6-C ) :   1.0239
B(  3-C ,  4-C ) :   1.5962 B(  3-C ,  5-H ) :   0.9835 B(  4-C , 20-C ) :   1.0388
B(  6-C ,  7-H ) :   0.9359 B(  6-C ,  8-H ) :   0.9337 B(  6-C ,  9-C ) :   1.0838
B(  9-C , 10-H ) :   0.9460 B(  9-C , 11-H ) :   0.9388 B(  9-C , 12-C ) :   1.0890
B( 12-C , 13-H ) :   0.9724 B( 12-C , 14-H ) :   0.9748 B( 12-C , 15-H ) :   0.9692
B( 16-S , 17-C ) :   1.1709 B( 16-S , 20-C ) :   1.1252 B( 17-C , 18-C ) :   1.6339
B( 17-C , 33-H ) :   0.9518 B( 18-C , 19-C ) :   1.2257 B( 18-C , 21-H ) :   0.9919
B( 19-C , 20-C ) :   1.5866 B( 19-C , 22-C ) :   1.0536 B( 22-C , 23-H ) :   0.9272
B( 22-C , 24-H ) :   0.9395 B( 22-C , 25-C ) :   1.0442 B( 25-C , 26-H ) :   0.9559
B( 25-C , 27-H ) :   0.9596 B( 25-C , 28-C ) :   1.0689 B( 28-C , 29-H ) :   0.9751
B( 28-C , 30-H ) :   0.9748 B( 28-C , 31-H ) :   0.9761

Dispersion correction           -0.014234761
FINAL SINGLE POINT ENERGY     -1339.855262526029

DIPOLE MOMENT
-------------
                                X             Y             Z
Electronic contribution:     21.96854      19.90260      -6.80132
Nuclear contribution   :    -22.51718     -20.15744       7.31141
                        -----------------------------------------
Total Dipole Moment    :     -0.54864      -0.25484       0.51009
                        -----------------------------------------
Magnitude (a.u.)       :      0.79129
Magnitude (Debye)      :      2.01130

Rotational constants in cm-1:     0.016096     0.009707     0.007004
Rotational constants in MHz :   482.544270   291.013069   209.972339

                             ****ORCA TERMINATED NORMALLY****
TOTAL RUN TIME: 0 days 0 hours 0 minutes 34 seconds 85 msec
