                         Program Version 4.2.1 -  RELEASE  -
|  1> ! wB97X-D3 SP def2-SVP
|  2> %pal
|  3> nprocs 16
|  4> end
|  5>
|  6> * xyz 0 1
|  7> S 	 -0.787828 	 1.7017 	 82.9417
|  8> C 	 -0.830462 	 -0.0155113 	 83.2504
|  9> C 	 -0.23966 	 -0.298175 	 84.4926
| 10> C 	 0.395255 	 0.874997 	 85.0606
| 11> C 	 0.214254 	 1.9821 	 84.3761
| 12> H 	 1.0971 	 0.847357 	 85.9434
| 13> C 	 -0.159916 	 -1.77192 	 85.0424
| 14> H 	 0.831246 	 -2.0774 	 85.2949
| 15> H 	 -0.51553 	 -2.30485 	 84.1459
| 16> C 	 -1.18252 	 -2.14036 	 86.1755
| 17> H 	 -0.883099 	 -3.1949 	 86.4149
| 18> H 	 -1.07535 	 -1.48441 	 86.9845
| 19> C 	 -2.63348 	 -2.08481 	 85.7176
| 20> H 	 -2.82292 	 -1.1511 	 85.1894
| 21> H 	 -2.79007 	 -2.97875 	 85.0828
| 22> H 	 -3.30834 	 -2.21498 	 86.475
| 23> S 	 1.36812 	 4.29653 	 83.4552
| 24> C 	 1.65851 	 5.53946 	 84.6386
| 25> C 	 1.32855 	 5.1479 	 85.9022
| 26> C 	 0.607281 	 3.90709 	 85.9367
| 27> C 	 0.697851 	 3.25326 	 84.75
| 28> H 	 1.47967 	 5.73382 	 86.7802
| 29> C 	 0.263203 	 3.18145 	 87.332
| 30> H 	 1.20447 	 2.94045 	 87.8633
| 31> H 	 -0.19305 	 2.1931 	 87.2131
| 32> C 	 -0.725387 	 3.94216 	 88.2383
| 33> H 	 -0.261037 	 4.97866 	 88.4279
| 34> H 	 -0.718133 	 3.51079 	 89.237
| 35> C 	 -2.17407 	 3.8725 	 87.7737
| 36> H 	 -2.27671 	 4.7968 	 87.2031
| 37> H 	 -2.9011 	 3.9663 	 88.6037
| 38> H 	 -2.39226 	 3.058 	 87.1698
| 39> H 	 -1.31682 	 -0.805039 	 82.68
| 40> H 	 2.04226 	 6.49721 	 84.3373
| 41> *
| 42>
| 43>                          ****END OF INPUT****

CARTESIAN COORDINATES (ANGSTROEM)
---------------------------------
  S     -0.787828    1.701700   82.941700
  C     -0.830462   -0.015511   83.250400
  C     -0.239660   -0.298175   84.492600
  C      0.395255    0.874997   85.060600
  C      0.214254    1.982100   84.376100
  H      1.097100    0.847357   85.943400
  C     -0.159916   -1.771920   85.042400
  H      0.831246   -2.077400   85.294900
  H     -0.515530   -2.304850   84.145900
  C     -1.182520   -2.140360   86.175500
  H     -0.883099   -3.194900   86.414900
  H     -1.075350   -1.484410   86.984500
  C     -2.633480   -2.084810   85.717600
  H     -2.822920   -1.151100   85.189400
  H     -2.790070   -2.978750   85.082800
  H     -3.308340   -2.214980   86.475000
  S      1.368120    4.296530   83.455200
  C      1.658510    5.539460   84.638600
  C      1.328550    5.147900   85.902200
  C      0.607281    3.907090   85.936700
  C      0.697851    3.253260   84.750000
  H      1.479670    5.733820   86.780200
  C      0.263203    3.181450   87.332000
  H      1.204470    2.940450   87.863300
  H     -0.193050    2.193100   87.213100
  C     -0.725387    3.942160   88.238300
  H     -0.261037    4.978660   88.427900
  H     -0.718133    3.510790   89.237000
  C     -2.174070    3.872500   87.773700
  H     -2.276710    4.796800   87.203100
  H     -2.901100    3.966300   88.603700
  H     -2.392260    3.058000   87.169800
  H     -1.316820   -0.805039   82.680000
  H      2.042260    6.497210   84.337300

 Total Charge           Charge          ....    0
 Multiplicity           Mult            ....    1
 Number of Electrons    NEL             ....  134
 Basis Dimension        Dim             ....  322

ORBITAL ENERGIES
----------------

  NO   OCC          E(Eh)            E(eV)
   0   2.0000     -88.965359     -2420.8705
   1   2.0000     -88.963413     -2420.8175
   2   2.0000     -10.322926      -280.9011
   3   2.0000     -10.318898      -280.7915
   4   2.0000     -10.317587      -280.7558
   5   2.0000     -10.317545      -280.7547
   6   2.0000     -10.306710      -280.4598
   7   2.0000     -10.305887      -280.4374
   8   2.0000     -10.301398      -280.3153
   9   2.0000     -10.296380      -280.1788
  10   2.0000     -10.293311      -280.0952
  11   2.0000     -10.292329      -280.0685
  12   2.0000     -10.290010      -280.0054
  13   2.0000     -10.286482      -279.9094
  14   2.0000     -10.270921      -279.4860
  15   2.0000     -10.269552      -279.4487
  16   2.0000      -8.079869      -219.8644
  17   2.0000      -8.078318      -219.8222
  18   2.0000      -6.038513      -164.3163
  19   2.0000      -6.036809      -164.2699
  20   2.0000      -6.034506      -164.2073
  21   2.0000      -6.032933      -164.1644
  22   2.0000      -6.030377      -164.0949
  23   2.0000      -6.028948      -164.0560
  24   2.0000      -1.010685       -27.5021
  25   2.0000      -0.983553       -26.7638
  26   2.0000      -0.907435       -24.6926
  27   2.0000      -0.903460       -24.5844
  28   2.0000      -0.876572       -23.8527
  29   2.0000      -0.850911       -23.1545
  30   2.0000      -0.841419       -22.8962
  31   2.0000      -0.815809       -22.1993
  32   2.0000      -0.785281       -21.3686
  33   2.0000      -0.773986       -21.0612
  34   2.0000      -0.709197       -19.2982
  35   2.0000      -0.693955       -18.8835
  36   2.0000      -0.690601       -18.7922
  37   2.0000      -0.659855       -17.9556
  38   2.0000      -0.639933       -17.4135
  39   2.0000      -0.617971       -16.8158
  40   2.0000      -0.601154       -16.3582
  41   2.0000      -0.569119       -15.4865
  42   2.0000      -0.554592       -15.0912
  43   2.0000      -0.552062       -15.0224
  44   2.0000      -0.546430       -14.8691
  45   2.0000      -0.536391       -14.5959
  46   2.0000      -0.517161       -14.0727
  47   2.0000      -0.513220       -13.9654
  48   2.0000      -0.504672       -13.7328
  49   2.0000      -0.496641       -13.5143
  50   2.0000      -0.485941       -13.2231
  51   2.0000      -0.474810       -12.9202
  52   2.0000      -0.473092       -12.8735
  53   2.0000      -0.465846       -12.6763
  54   2.0000      -0.459069       -12.4919
  55   2.0000      -0.447348       -12.1730
  56   2.0000      -0.444719       -12.1014
  57   2.0000      -0.442010       -12.0277
  58   2.0000      -0.433029       -11.7833
  59   2.0000      -0.422129       -11.4867
  60   2.0000      -0.421323       -11.4648
  61   2.0000      -0.411312       -11.1924
  62   2.0000      -0.400894       -10.9089
  63   2.0000      -0.353521        -9.6198
  64   2.0000      -0.335402        -9.1268
  65   2.0000      -0.328008        -8.9256
  66   2.0000      -0.295022        -8.0280
  67   0.0000       0.028921         0.7870
  68   0.0000       0.075074         2.0429
  69   0.0000       0.105545         2.8720
  70   0.0000       0.117892         3.2080
  71   0.0000       0.128238         3.4895

MULLIKEN ATOMIC CHARGES
-----------------------
   0 S :    0.109456
   1 C :   -0.111735
   2 C :   -0.131018
   3 C :   -0.015919
   4 C :   -0.094443
   5 H :    0.041361
   6 C :    0.067250
   7 H :    0.032707
   8 H :    0.008968
   9 C :   -0.062634
  10 H :    0.037446
  11 H :    0.020171
  12 C :   -0.033340
  13 H :    0.045419
  14 H :    0.022735
  15 H :    0.014349
  16 S :    0.097656
  17 C :   -0.079714
  18 C :   -0.005124
  19 C :   -0.009036
  20 C :   -0.178749
  21 H :    0.012773
  22 C :   -0.007774
  23 H :    0.047179
  24 H :    0.027742
  25 C :   -0.100821
  26 H :    0.031065
  27 H :    0.021340
  28 C :   -0.018984
  29 H :    0.035851
  30 H :    0.036484
  31 H :    0.029768
  32 H :    0.054765
  33 H :    0.054803
Sum of atomic charges:    0.0000000

LOEWDIN ATOMIC CHARGES
----------------------
   0 S :    0.389548
   1 C :   -0.201237
   2 C :   -0.063532
   3 C :   -0.069985
   4 C :   -0.189634
   5 H :    0.044154
   6 C :   -0.024365
   7 H :    0.024565
   8 H :    0.029617
   9 C :   -0.033854
  10 H :    0.030111
  11 H :    0.011779
  12 C :   -0.060530
  13 H :    0.028452
  14 H :    0.028138
  15 H :    0.013014
  16 S :    0.383141
  17 C :   -0.173751
  18 C :   -0.066190
  19 C :   -0.051030
  20 C :   -0.179257
  21 H :    0.026585
  22 C :   -0.030803
  23 H :    0.035012
  24 H :    0.026732
  25 C :   -0.051871
  26 H :    0.025593
  27 H :    0.020694
  28 C :   -0.061377
  29 H :    0.033563
  30 H :    0.030656
  31 H :    0.018262
  32 H :    0.031870
  33 H :    0.025929

  Mayer bond orders larger than 0.100000
B(  0-S ,  1-C ) :   1.1269 B(  0-S ,  4-C ) :   1.1089 B(  1-C ,  2-C ) :   1.6387
B(  1-C , 32-H ) :   0.9594 B(  2-C ,  3-C ) :   1.1994 B(  2-C ,  6-C ) :   1.0127
B(  3-C ,  4-C ) :   1.6359 B(  3-C ,  5-H ) :   0.9853 B(  4-C , 20-C ) :   1.0671
B(  6-C ,  7-H ) :   0.9525 B(  6-C ,  8-H ) :   0.9412 B(  6-C ,  9-C ) :   1.0553
B(  9-C , 10-H ) :   0.9589 B(  9-C , 11-H ) :   0.9615 B(  9-C , 12-C ) :   1.0791
B( 12-C , 13-H ) :   0.9745 B( 12-C , 14-H ) :   0.9739 B( 12-C , 15-H ) :   0.9726
B( 16-S , 17-C ) :   1.1440 B( 16-S , 20-C ) :   1.1157 B( 17-C , 18-C ) :   1.6255
B( 17-C , 33-H ) :   0.9712 B( 18-C , 19-C ) :   1.2080 B( 18-C , 21-H ) :   0.9893
B( 19-C , 20-C ) :   1.6357 B( 19-C , 22-C ) :   1.0155 B( 22-C , 23-H ) :   0.9471
B( 22-C , 24-H ) :   0.9423 B( 22-C , 25-C ) :   1.0796 B( 25-C , 26-H ) :   0.9601
B( 25-C , 27-H ) :   0.9557 B( 25-C , 28-C ) :   1.0551 B( 28-C , 29-H ) :   0.9754
B( 28-C , 30-H ) :   0.9779 B( 28-C , 31-H ) :   0.9767

Dispersion correction           -0.014496007
FINAL SINGLE POINT ENERGY     -1339.862586265391

DIPOLE MOMENT
-------------
                                X             Y             Z
Electronic contribution:     11.91389      13.89266     -21.97708
Nuclear contribution   :    -11.90474     -14.17185      22.65668
                        -----------------------------------------
Total Dipole Moment    :      0.00914      -0.27920       0.67960
                        -----------------------------------------
Magnitude (a.u.)       :      0.73477
Magnitude (Debye)      :      1.86765

Rotational constants in cm-1:     0.019063     0.009198     0.007042
Rotational constants in MHz :   571.493134   275.758304   211.112130

                             ****ORCA TERMINATED NORMALLY****
TOTAL RUN TIME: 0 days 0 hours 0 minutes 35 seconds 817 msec
