                         Program Version 4.2.1 -  RELEASE  -
|  1> ! wB97X-D3 SP def2-SVP
|  2> %pal
|  3> nprocs 16
|  4> end
|  5>
|  6> * xyz 0 1
|  7> S 	 -6.75595 	 32.9742 	 34.5196
|  8> C 	 -5.8001 	 33.0768 	 32.9972
|  9> C 	 -6.10527 	 34.2094 	 32.2644
| 10> C 	 -6.91733 	 35.1392 	 32.9949
| 11> C 	 -7.34591 	 34.6002 	 34.197
| 12> H 	 -7.1292 	 36.1257 	 32.6505
| 13> C 	 -5.60787 	 34.3146 	 30.8551
| 14> H 	 -4.93638 	 33.4568 	 30.691
| 15> H 	 -4.89703 	 35.1358 	 30.8312
| 16> C 	 -6.57944 	 34.5009 	 29.7252
| 17> H 	 -7.56001 	 34.1046 	 30.0391
| 18> H 	 -6.80925 	 35.5927 	 29.6791
| 19> C 	 -6.06646 	 34.056 	 28.3359
| 20> H 	 -5.02926 	 34.162 	 28.3074
| 21> H 	 -6.27564 	 33.0273 	 28.2798
| 22> H 	 -6.5852 	 34.576 	 27.4755
| 23> S 	 -7.36054 	 36.4497 	 36.1258
| 24> C 	 -8.71398 	 36.6233 	 37.1924
| 25> C 	 -9.78926 	 35.8255 	 36.7802
| 26> C 	 -9.49003 	 35.0165 	 35.5906
| 27> C 	 -8.1785 	 35.268 	 35.1628
| 28> H 	 -10.7548 	 35.7101 	 37.2914
| 29> C 	 -10.499 	 34.0501 	 35.0636
| 30> H 	 -11.0665 	 33.5591 	 35.9313
| 31> H 	 -9.96077 	 33.2802 	 34.5284
| 32> C 	 -11.4689 	 34.6711 	 33.9809
| 33> H 	 -12.2208 	 33.9526 	 33.7519
| 34> H 	 -10.8938 	 34.8381 	 33.0861
| 35> C 	 -12.1313 	 36.0543 	 34.3211
| 36> H 	 -13.166 	 35.8955 	 34.864
| 37> H 	 -12.3751 	 36.5652 	 33.4256
| 38> H 	 -11.5053 	 36.6438 	 34.9562
| 39> H 	 -5.18937 	 32.2269 	 32.6526
| 40> H 	 -8.75318 	 37.283 	 38.0202
| 41> *
| 42>
| 43>                          ****END OF INPUT****

CARTESIAN COORDINATES (ANGSTROEM)
---------------------------------
  S     -6.755950   32.974200   34.519600
  C     -5.800100   33.076800   32.997200
  C     -6.105270   34.209400   32.264400
  C     -6.917330   35.139200   32.994900
  C     -7.345910   34.600200   34.197000
  H     -7.129200   36.125700   32.650500
  C     -5.607870   34.314600   30.855100
  H     -4.936380   33.456800   30.691000
  H     -4.897030   35.135800   30.831200
  C     -6.579440   34.500900   29.725200
  H     -7.560010   34.104600   30.039100
  H     -6.809250   35.592700   29.679100
  C     -6.066460   34.056000   28.335900
  H     -5.029260   34.162000   28.307400
  H     -6.275640   33.027300   28.279800
  H     -6.585200   34.576000   27.475500
  S     -7.360540   36.449700   36.125800
  C     -8.713980   36.623300   37.192400
  C     -9.789260   35.825500   36.780200
  C     -9.490030   35.016500   35.590600
  C     -8.178500   35.268000   35.162800
  H    -10.754800   35.710100   37.291400
  C    -10.499000   34.050100   35.063600
  H    -11.066500   33.559100   35.931300
  H     -9.960770   33.280200   34.528400
  C    -11.468900   34.671100   33.980900
  H    -12.220800   33.952600   33.751900
  H    -10.893800   34.838100   33.086100
  C    -12.131300   36.054300   34.321100
  H    -13.166000   35.895500   34.864000
  H    -12.375100   36.565200   33.425600
  H    -11.505300   36.643800   34.956200
  H     -5.189370   32.226900   32.652600
  H     -8.753180   37.283000   38.020200

 Total Charge           Charge          ....    0
 Multiplicity           Mult            ....    1
 Number of Electrons    NEL             ....  134
 Basis Dimension        Dim             ....  322

ORBITAL ENERGIES
----------------

  NO   OCC          E(Eh)            E(eV)
   0   2.0000     -88.967707     -2420.9344
   1   2.0000     -88.965531     -2420.8752
   2   2.0000     -10.329517      -281.0804
   3   2.0000     -10.321758      -280.8693
   4   2.0000     -10.316863      -280.7361
   5   2.0000     -10.315975      -280.7119
   6   2.0000     -10.304724      -280.4058
   7   2.0000     -10.302077      -280.3338
   8   2.0000     -10.298163      -280.2273
   9   2.0000     -10.296637      -280.1857
  10   2.0000     -10.296455      -280.1808
  11   2.0000     -10.289219      -279.9839
  12   2.0000     -10.288265      -279.9579
  13   2.0000     -10.284658      -279.8598
  14   2.0000     -10.278341      -279.6879
  15   2.0000     -10.277108      -279.6543
  16   2.0000      -8.081404      -219.9062
  17   2.0000      -8.080830      -219.8906
  18   2.0000      -6.039879      -164.3535
  19   2.0000      -6.039333      -164.3386
  20   2.0000      -6.036216      -164.2538
  21   2.0000      -6.035088      -164.2231
  22   2.0000      -6.032104      -164.1419
  23   2.0000      -6.031736      -164.1319
  24   2.0000      -1.004939       -27.3458
  25   2.0000      -0.979000       -26.6400
  26   2.0000      -0.915082       -24.9006
  27   2.0000      -0.901963       -24.5437
  28   2.0000      -0.868760       -23.6402
  29   2.0000      -0.848203       -23.0808
  30   2.0000      -0.841140       -22.8886
  31   2.0000      -0.813804       -22.1447
  32   2.0000      -0.784108       -21.3367
  33   2.0000      -0.770330       -20.9617
  34   2.0000      -0.712133       -19.3781
  35   2.0000      -0.696794       -18.9607
  36   2.0000      -0.685329       -18.6488
  37   2.0000      -0.665457       -18.1080
  38   2.0000      -0.640646       -17.4329
  39   2.0000      -0.619011       -16.8442
  40   2.0000      -0.588086       -16.0026
  41   2.0000      -0.570025       -15.5112
  42   2.0000      -0.555175       -15.1071
  43   2.0000      -0.550572       -14.9818
  44   2.0000      -0.541611       -14.7380
  45   2.0000      -0.526619       -14.3300
  46   2.0000      -0.518919       -14.1205
  47   2.0000      -0.514362       -13.9965
  48   2.0000      -0.506133       -13.7726
  49   2.0000      -0.492814       -13.4101
  50   2.0000      -0.481703       -13.1078
  51   2.0000      -0.479544       -13.0491
  52   2.0000      -0.472168       -12.8483
  53   2.0000      -0.462837       -12.5944
  54   2.0000      -0.458768       -12.4837
  55   2.0000      -0.452778       -12.3207
  56   2.0000      -0.442383       -12.0379
  57   2.0000      -0.438933       -11.9440
  58   2.0000      -0.433820       -11.8048
  59   2.0000      -0.430143       -11.7048
  60   2.0000      -0.422919       -11.5082
  61   2.0000      -0.413406       -11.2493
  62   2.0000      -0.403252       -10.9731
  63   2.0000      -0.334626        -9.1056
  64   2.0000      -0.330924        -9.0049
  65   2.0000      -0.323521        -8.8035
  66   2.0000      -0.301407        -8.2017
  67   0.0000       0.041949         1.1415
  68   0.0000       0.056014         1.5242
  69   0.0000       0.103715         2.8222
  70   0.0000       0.115618         3.1461
  71   0.0000       0.123414         3.3583

MULLIKEN ATOMIC CHARGES
-----------------------
   0 S :    0.115355
   1 C :   -0.153771
   2 C :   -0.079871
   3 C :    0.047494
   4 C :   -0.150988
   5 H :    0.007070
   6 C :    0.075917
   7 H :    0.006521
   8 H :    0.025892
   9 C :   -0.092265
  10 H :    0.031941
  11 H :    0.024332
  12 C :   -0.020282
  13 H :    0.023960
  14 H :    0.027696
  15 H :    0.048924
  16 S :    0.129235
  17 C :   -0.078652
  18 C :   -0.044732
  19 C :   -0.049955
  20 C :   -0.193426
  21 H :    0.029214
  22 C :    0.064469
  23 H :    0.046033
  24 H :    0.019965
  25 C :   -0.056833
  26 H :    0.028651
  27 H :    0.028472
  28 C :   -0.075359
  29 H :    0.034132
  30 H :    0.030536
  31 H :    0.042303
  32 H :    0.060972
  33 H :    0.047053
Sum of atomic charges:    0.0000000

LOEWDIN ATOMIC CHARGES
----------------------
   0 S :    0.383767
   1 C :   -0.186561
   2 C :   -0.058194
   3 C :   -0.054501
   4 C :   -0.190683
   5 H :    0.030189
   6 C :   -0.039040
   7 H :    0.028462
   8 H :    0.031361
   9 C :   -0.047898
  10 H :    0.023725
  11 H :    0.024555
  12 C :   -0.054467
  13 H :    0.018117
  14 H :    0.022348
  15 H :    0.038072
  16 S :    0.432327
  17 C :   -0.190779
  18 C :   -0.071110
  19 C :   -0.056036
  20 C :   -0.216871
  21 H :    0.032646
  22 C :   -0.036251
  23 H :    0.039832
  24 H :    0.028241
  25 C :   -0.031152
  26 H :    0.020350
  27 H :    0.023470
  28 C :   -0.069559
  29 H :    0.032753
  30 H :    0.020342
  31 H :    0.020415
  32 H :    0.029912
  33 H :    0.022219

  Mayer bond orders larger than 0.100000
B(  0-S ,  1-C ) :   1.1173 B(  0-S ,  4-C ) :   1.1462 B(  1-C ,  2-C ) :   1.6378
B(  1-C , 32-H ) :   0.9620 B(  2-C ,  3-C ) :   1.2069 B(  2-C ,  6-C ) :   1.0348
B(  3-C ,  4-C ) :   1.5836 B(  3-C ,  5-H ) :   1.0033 B(  4-C , 20-C ) :   1.0220
B(  6-C ,  7-H ) :   0.9432 B(  6-C ,  8-H ) :   0.9203 B(  6-C ,  9-C ) :   1.0498
B(  9-C , 10-H ) :   0.9672 B(  9-C , 11-H ) :   0.9496 B(  9-C , 12-C ) :   1.0715
B( 12-C , 13-H ) :   0.9764 B( 12-C , 14-H ) :   0.9764 B( 12-C , 15-H ) :   0.9755
B( 16-S , 17-C ) :   1.1586 B( 16-S , 20-C ) :   1.1631 B( 17-C , 18-C ) :   1.5893
B( 17-C , 33-H ) :   0.9748 B( 18-C , 19-C ) :   1.2367 B( 18-C , 21-H ) :   0.9814
B( 19-C , 20-C ) :   1.5825 B( 19-C , 22-C ) :   1.0560 B( 22-C , 23-H ) :   0.9398
B( 22-C , 24-H ) :   0.9245 B( 22-C , 25-C ) :   1.0647 B( 25-C , 26-H ) :   0.9598
B( 25-C , 27-H ) :   0.9595 B( 25-C , 28-C ) :   1.0710 B( 28-C , 29-H ) :   0.9776
B( 28-C , 30-H ) :   0.9771 B( 28-C , 31-H ) :   0.9732

Dispersion correction           -0.014312603
FINAL SINGLE POINT ENERGY     -1339.876886007642

DIPOLE MOMENT
-------------
                                X             Y             Z
Electronic contribution:     11.42986      -0.00839      22.26461
Nuclear contribution   :    -11.60707      -0.01200     -22.72806
                        -----------------------------------------
Total Dipole Moment    :     -0.17721      -0.02039      -0.46345
                        -----------------------------------------
Magnitude (a.u.)       :      0.49659
Magnitude (Debye)      :      1.26224

Rotational constants in cm-1:     0.020082     0.007814     0.006767
Rotational constants in MHz :   602.047706   234.243503   202.879978

                             ****ORCA TERMINATED NORMALLY****
TOTAL RUN TIME: 0 days 0 hours 0 minutes 31 seconds 557 msec
