                         Program Version 4.2.1 -  RELEASE  -
|  1> ! wB97X-D3 SP def2-SVP
|  2> %pal
|  3> nprocs 16
|  4> end
|  5>
|  6> * xyz 0 1
|  7> S 	 -106.254 	 41.8696 	 132.592
|  8> C 	 -106.008 	 42.9201 	 133.985
|  9> C 	 -106.354 	 44.2559 	 133.612
| 10> C 	 -106.588 	 44.3659 	 132.21
| 11> C 	 -106.746 	 43.1187 	 131.586
| 12> H 	 -106.649 	 45.2103 	 131.624
| 13> C 	 -106.41 	 45.4182 	 134.584
| 14> H 	 -107.438 	 45.4389 	 134.849
| 15> H 	 -106.163 	 46.3432 	 133.984
| 16> C 	 -105.448 	 45.3798 	 135.857
| 17> H 	 -105.681 	 46.0542 	 136.593
| 18> H 	 -105.612 	 44.4078 	 136.284
| 19> C 	 -103.976 	 45.5822 	 135.52
| 20> H 	 -103.773 	 46.6368 	 135.402
| 21> H 	 -103.573 	 45.0995 	 136.358
| 22> H 	 -103.675 	 44.9482 	 134.704
| 23> S 	 -108.294 	 43.4989 	 129.398
| 24> C 	 -107.687 	 43.0623 	 127.821
| 25> C 	 -106.436 	 42.4958 	 127.888
| 26> C 	 -105.931 	 42.3855 	 129.23
| 27> C 	 -106.885 	 42.9254 	 130.145
| 28> H 	 -106.008 	 42.0627 	 126.993
| 29> C 	 -104.618 	 41.7105 	 129.569
| 30> H 	 -104.334 	 41.118 	 128.678
| 31> H 	 -104.755 	 41.0245 	 130.419
| 32> C 	 -103.6 	 42.7786 	 130.198
| 33> H 	 -102.728 	 42.2606 	 130.657
| 34> H 	 -104.148 	 43.2915 	 130.972
| 35> C 	 -103.029 	 43.8638 	 129.37
| 36> H 	 -102.381 	 43.3964 	 128.61
| 37> H 	 -102.528 	 44.5931 	 129.996
| 38> H 	 -103.818 	 44.3672 	 128.854
| 39> H 	 -105.752 	 42.6417 	 134.993
| 40> H 	 -108.216 	 43.137 	 126.863
| 41> *
| 42>
| 43>                          ****END OF INPUT****

CARTESIAN COORDINATES (ANGSTROEM)
---------------------------------
  S    -106.254000   41.869600  132.592000
  C    -106.008000   42.920100  133.985000
  C    -106.354000   44.255900  133.612000
  C    -106.588000   44.365900  132.210000
  C    -106.746000   43.118700  131.586000
  H    -106.649000   45.210300  131.624000
  C    -106.410000   45.418200  134.584000
  H    -107.438000   45.438900  134.849000
  H    -106.163000   46.343200  133.984000
  C    -105.448000   45.379800  135.857000
  H    -105.681000   46.054200  136.593000
  H    -105.612000   44.407800  136.284000
  C    -103.976000   45.582200  135.520000
  H    -103.773000   46.636800  135.402000
  H    -103.573000   45.099500  136.358000
  H    -103.675000   44.948200  134.704000
  S    -108.294000   43.498900  129.398000
  C    -107.687000   43.062300  127.821000
  C    -106.436000   42.495800  127.888000
  C    -105.931000   42.385500  129.230000
  C    -106.885000   42.925400  130.145000
  H    -106.008000   42.062700  126.993000
  C    -104.618000   41.710500  129.569000
  H    -104.334000   41.118000  128.678000
  H    -104.755000   41.024500  130.419000
  C    -103.600000   42.778600  130.198000
  H    -102.728000   42.260600  130.657000
  H    -104.148000   43.291500  130.972000
  C    -103.029000   43.863800  129.370000
  H    -102.381000   43.396400  128.610000
  H    -102.528000   44.593100  129.996000
  H    -103.818000   44.367200  128.854000
  H    -105.752000   42.641700  134.993000
  H    -108.216000   43.137000  126.863000

 Total Charge           Charge          ....    0
 Multiplicity           Mult            ....    1
 Number of Electrons    NEL             ....  134
 Basis Dimension        Dim             ....  322

ORBITAL ENERGIES
----------------

  NO   OCC          E(Eh)            E(eV)
   0   2.0000     -88.969952     -2420.9955
   1   2.0000     -88.969898     -2420.9940
   2   2.0000     -10.324387      -280.9408
   3   2.0000     -10.323839      -280.9259
   4   2.0000     -10.316722      -280.7323
   5   2.0000     -10.314597      -280.6745
   6   2.0000     -10.308261      -280.5020
   7   2.0000     -10.305387      -280.4238
   8   2.0000     -10.296149      -280.1724
   9   2.0000     -10.295369      -280.1512
  10   2.0000     -10.292819      -280.0819
  11   2.0000     -10.289977      -280.0045
  12   2.0000     -10.283274      -279.8221
  13   2.0000     -10.279370      -279.7159
  14   2.0000     -10.269722      -279.4534
  15   2.0000     -10.264218      -279.3036
  16   2.0000      -8.085210      -220.0098
  17   2.0000      -8.084790      -219.9983
  18   2.0000      -6.043610      -164.4550
  19   2.0000      -6.043196      -164.4437
  20   2.0000      -6.039475      -164.3425
  21   2.0000      -6.039029      -164.3303
  22   2.0000      -6.036237      -164.2543
  23   2.0000      -6.035908      -164.2454
  24   2.0000      -1.011914       -27.5356
  25   2.0000      -0.986213       -26.8362
  26   2.0000      -0.911792       -24.8111
  27   2.0000      -0.902951       -24.5705
  28   2.0000      -0.869661       -23.6647
  29   2.0000      -0.857721       -23.3398
  30   2.0000      -0.847750       -23.0685
  31   2.0000      -0.814309       -22.1585
  32   2.0000      -0.784771       -21.3547
  33   2.0000      -0.768394       -20.9091
  34   2.0000      -0.710231       -19.3264
  35   2.0000      -0.700894       -19.0723
  36   2.0000      -0.679216       -18.4824
  37   2.0000      -0.659944       -17.9580
  38   2.0000      -0.643281       -17.5046
  39   2.0000      -0.608237       -16.5510
  40   2.0000      -0.588740       -16.0204
  41   2.0000      -0.580360       -15.7924
  42   2.0000      -0.556048       -15.1308
  43   2.0000      -0.553655       -15.0657
  44   2.0000      -0.547230       -14.8909
  45   2.0000      -0.539735       -14.6869
  46   2.0000      -0.521149       -14.1812
  47   2.0000      -0.518762       -14.1162
  48   2.0000      -0.507564       -13.8115
  49   2.0000      -0.490285       -13.3413
  50   2.0000      -0.483786       -13.1645
  51   2.0000      -0.482568       -13.1313
  52   2.0000      -0.472920       -12.8688
  53   2.0000      -0.469182       -12.7671
  54   2.0000      -0.464528       -12.6404
  55   2.0000      -0.447336       -12.1726
  56   2.0000      -0.441265       -12.0074
  57   2.0000      -0.437267       -11.8986
  58   2.0000      -0.434771       -11.8307
  59   2.0000      -0.426660       -11.6100
  60   2.0000      -0.414533       -11.2800
  61   2.0000      -0.411873       -11.2076
  62   2.0000      -0.407892       -11.0993
  63   2.0000      -0.341017        -9.2795
  64   2.0000      -0.331883        -9.0310
  65   2.0000      -0.326231        -8.8772
  66   2.0000      -0.291822        -7.9409
  67   0.0000       0.031852         0.8667
  68   0.0000       0.068277         1.8579
  69   0.0000       0.116292         3.1645
  70   0.0000       0.122847         3.3428
  71   0.0000       0.126520         3.4428

MULLIKEN ATOMIC CHARGES
-----------------------
   0 S :    0.125632
   1 C :   -0.135932
   2 C :   -0.093525
   3 C :    0.045264
   4 C :   -0.164966
   5 H :   -0.014921
   6 C :    0.064079
   7 H :    0.043107
   8 H :    0.030331
   9 C :   -0.069955
  10 H :    0.012288
  11 H :    0.011973
  12 C :   -0.008035
  13 H :    0.044334
  14 H :    0.017865
  15 H :    0.030543
  16 S :    0.135700
  17 C :   -0.105471
  18 C :   -0.041276
  19 C :   -0.039971
  20 C :   -0.183210
  21 H :    0.019349
  22 C :    0.080455
  23 H :    0.028961
  24 H :    0.036774
  25 C :   -0.099493
  26 H :    0.028725
  27 H :    0.034701
  28 C :   -0.016762
  29 H :    0.025731
  30 H :    0.034885
  31 H :    0.018848
  32 H :    0.044127
  33 H :    0.059848
Sum of atomic charges:    0.0000000

LOEWDIN ATOMIC CHARGES
----------------------
   0 S :    0.457562
   1 C :   -0.215114
   2 C :   -0.051403
   3 C :   -0.059870
   4 C :   -0.223220
   5 H :    0.016716
   6 C :   -0.032672
   7 H :    0.032015
   8 H :    0.033787
   9 C :   -0.028086
  10 H :    0.014589
  11 H :    0.016042
  12 C :   -0.055183
  13 H :    0.027432
  14 H :    0.025156
  15 H :    0.025129
  16 S :    0.445974
  17 C :   -0.200335
  18 C :   -0.072846
  19 C :   -0.056864
  20 C :   -0.226497
  21 H :    0.032145
  22 C :   -0.035863
  23 H :    0.031579
  24 H :    0.027707
  25 C :   -0.040850
  26 H :    0.024091
  27 H :    0.023676
  28 C :   -0.063903
  29 H :    0.023815
  30 H :    0.028192
  31 H :    0.019260
  32 H :    0.023482
  33 H :    0.034359

  Mayer bond orders larger than 0.100000
B(  0-S ,  1-C ) :   1.1502 B(  0-S ,  4-C ) :   1.1999 B(  1-C ,  2-C ) :   1.5470
B(  1-C ,  4-C ) :   0.1031 B(  1-C , 32-H ) :   0.9745 B(  2-C ,  3-C ) :   1.2760
B(  2-C ,  6-C ) :   1.0045 B(  3-C ,  4-C ) :   1.5273 B(  3-C ,  5-H ) :   1.0042
B(  4-C , 20-C ) :   1.0024 B(  6-C ,  7-H ) :   0.9335 B(  6-C ,  8-H ) :   0.9487
B(  6-C ,  9-C ) :   1.0665 B(  9-C , 10-H ) :   0.9556 B(  9-C , 11-H ) :   0.9594
B(  9-C , 12-C ) :   1.0707 B( 12-C , 13-H ) :   0.9776 B( 12-C , 14-H ) :   0.9723
B( 12-C , 15-H ) :   0.9751 B( 16-S , 17-C ) :   1.1589 B( 16-S , 20-C ) :   1.1829
B( 17-C , 18-C ) :   1.6040 B( 17-C , 33-H ) :   0.9640 B( 18-C , 19-C ) :   1.2637
B( 18-C , 21-H ) :   0.9860 B( 19-C , 20-C ) :   1.5343 B( 19-C , 22-C ) :   1.0391
B( 22-C , 23-H ) :   0.9418 B( 22-C , 24-H ) :   0.9319 B( 22-C , 25-C ) :   1.0391
B( 25-C , 26-H ) :   0.9568 B( 25-C , 27-H ) :   0.9577 B( 25-C , 28-C ) :   1.0928
B( 28-C , 29-H ) :   0.9748 B( 28-C , 30-H ) :   0.9697 B( 28-C , 31-H ) :   0.9703

Dispersion correction           -0.015533966
FINAL SINGLE POINT ENERGY     -1339.863767679581

DIPOLE MOMENT
-------------
                                X             Y             Z
Electronic contribution:    -19.91913     -10.19321     -10.11287
Nuclear contribution   :     20.18279      10.40460      10.30021
                        -----------------------------------------
Total Dipole Moment    :      0.26366       0.21139       0.18734
                        -----------------------------------------
Magnitude (a.u.)       :      0.38639
Magnitude (Debye)      :      0.98213

Rotational constants in cm-1:     0.022394     0.008495     0.007432
Rotational constants in MHz :   671.350593   254.660139   222.817452

                             ****ORCA TERMINATED NORMALLY****
TOTAL RUN TIME: 0 days 0 hours 0 minutes 33 seconds 377 msec
