                         Program Version 4.2.1 -  RELEASE  -
|  1> ! wB97X-D3 SP def2-SVP
|  2> %pal
|  3> nprocs 16
|  4> end
|  5>
|  6> * xyz 0 1
|  7> S 	 53.5448 	 4.73548 	 81.8946
|  8> C 	 53.519 	 3.35912 	 80.7916
|  9> C 	 52.3209 	 2.70567 	 80.8039
| 10> C 	 51.5067 	 3.21629 	 81.8928
| 11> C 	 52.0311 	 4.2998 	 82.5502
| 12> H 	 50.5225 	 2.84625 	 82.0813
| 13> C 	 51.9533 	 1.3807 	 80.0477
| 14> H 	 51.8276 	 1.68597 	 78.9962
| 15> H 	 51.0382 	 0.980314 	 80.5196
| 16> C 	 53.0312 	 0.154832 	 80.1975
| 17> H 	 52.5828 	 -0.789277 	 79.8447
| 18> H 	 53.8797 	 0.340948 	 79.6646
| 19> C 	 53.4137 	 -0.0416085 	 81.682
| 20> H 	 52.9478 	 -0.885522 	 82.2304
| 21> H 	 54.472 	 -0.343637 	 81.6545
| 22> H 	 53.4453 	 0.75239 	 82.3699
| 23> S 	 51.3334 	 4.30281 	 85.1894
| 24> C 	 50.6873 	 5.79662 	 85.7847
| 25> C 	 50.5572 	 6.75129 	 84.8092
| 26> C 	 50.9343 	 6.31137 	 83.5303
| 27> C 	 51.4721 	 5.04438 	 83.6146
| 28> H 	 50.0041 	 7.71127 	 85.0962
| 29> C 	 50.5544 	 7.06091 	 82.2757
| 30> H 	 51.0565 	 6.55625 	 81.5275
| 31> H 	 50.8315 	 8.1378 	 82.3776
| 32> C 	 48.9814 	 6.77251 	 81.9857
| 33> H 	 48.3519 	 6.76653 	 82.8668
| 34> H 	 48.8172 	 5.74292 	 81.6432
| 35> C 	 48.3275 	 7.62901 	 80.9759
| 36> H 	 48.7749 	 7.64238 	 79.9996
| 37> H 	 48.2907 	 8.66718 	 81.2937
| 38> H 	 47.2767 	 7.33937 	 80.7958
| 39> H 	 54.3616 	 3.12938 	 80.0623
| 40> H 	 50.3242 	 6.00374 	 86.7973
| 41> *
| 42>
| 43>                          ****END OF INPUT****

CARTESIAN COORDINATES (ANGSTROEM)
---------------------------------
  S     53.544800    4.735480   81.894600
  C     53.519000    3.359120   80.791600
  C     52.320900    2.705670   80.803900
  C     51.506700    3.216290   81.892800
  C     52.031100    4.299800   82.550200
  H     50.522500    2.846250   82.081300
  C     51.953300    1.380700   80.047700
  H     51.827600    1.685970   78.996200
  H     51.038200    0.980314   80.519600
  C     53.031200    0.154832   80.197500
  H     52.582800   -0.789277   79.844700
  H     53.879700    0.340948   79.664600
  C     53.413700   -0.041608   81.682000
  H     52.947800   -0.885522   82.230400
  H     54.472000   -0.343637   81.654500
  H     53.445300    0.752390   82.369900
  S     51.333400    4.302810   85.189400
  C     50.687300    5.796620   85.784700
  C     50.557200    6.751290   84.809200
  C     50.934300    6.311370   83.530300
  C     51.472100    5.044380   83.614600
  H     50.004100    7.711270   85.096200
  C     50.554400    7.060910   82.275700
  H     51.056500    6.556250   81.527500
  H     50.831500    8.137800   82.377600
  C     48.981400    6.772510   81.985700
  H     48.351900    6.766530   82.866800
  H     48.817200    5.742920   81.643200
  C     48.327500    7.629010   80.975900
  H     48.774900    7.642380   79.999600
  H     48.290700    8.667180   81.293700
  H     47.276700    7.339370   80.795800
  H     54.361600    3.129380   80.062300
  H     50.324200    6.003740   86.797300

 Total Charge           Charge          ....    0
 Multiplicity           Mult            ....    1
 Number of Electrons    NEL             ....  134
 Basis Dimension        Dim             ....  322

ORBITAL ENERGIES
----------------

  NO   OCC          E(Eh)            E(eV)
   0   2.0000     -88.967277     -2420.9227
   1   2.0000     -88.963593     -2420.8224
   2   2.0000     -10.317884      -280.7639
   3   2.0000     -10.316348      -280.7221
   4   2.0000     -10.316230      -280.7189
   5   2.0000     -10.312826      -280.6263
   6   2.0000     -10.304715      -280.4056
   7   2.0000     -10.301603      -280.3209
   8   2.0000     -10.296987      -280.1953
   9   2.0000     -10.294292      -280.1219
  10   2.0000     -10.291727      -280.0521
  11   2.0000     -10.290977      -280.0317
  12   2.0000     -10.289592      -279.9940
  13   2.0000     -10.285970      -279.8955
  14   2.0000     -10.270784      -279.4822
  15   2.0000     -10.270143      -279.4648
  16   2.0000      -8.082299      -219.9305
  17   2.0000      -8.078893      -219.8379
  18   2.0000      -6.040706      -164.3760
  19   2.0000      -6.037369      -164.2852
  20   2.0000      -6.036931      -164.2732
  21   2.0000      -6.033227      -164.1725
  22   2.0000      -6.032997      -164.1662
  23   2.0000      -6.029736      -164.0775
  24   2.0000      -1.013055       -27.5666
  25   2.0000      -0.986315       -26.8390
  26   2.0000      -0.905613       -24.6430
  27   2.0000      -0.899599       -24.4793
  28   2.0000      -0.868351       -23.6290
  29   2.0000      -0.857738       -23.3402
  30   2.0000      -0.843099       -22.9419
  31   2.0000      -0.808785       -22.0082
  32   2.0000      -0.783715       -21.3260
  33   2.0000      -0.769743       -20.9458
  34   2.0000      -0.707886       -19.2626
  35   2.0000      -0.702733       -19.1223
  36   2.0000      -0.696425       -18.9507
  37   2.0000      -0.655010       -17.8237
  38   2.0000      -0.636762       -17.3272
  39   2.0000      -0.608686       -16.5632
  40   2.0000      -0.591560       -16.0972
  41   2.0000      -0.569070       -15.4852
  42   2.0000      -0.559188       -15.2163
  43   2.0000      -0.546211       -14.8632
  44   2.0000      -0.537205       -14.6181
  45   2.0000      -0.522265       -14.2116
  46   2.0000      -0.519542       -14.1374
  47   2.0000      -0.509852       -13.8738
  48   2.0000      -0.502102       -13.6629
  49   2.0000      -0.491855       -13.3841
  50   2.0000      -0.489292       -13.3143
  51   2.0000      -0.474078       -12.9003
  52   2.0000      -0.468054       -12.7364
  53   2.0000      -0.463868       -12.6225
  54   2.0000      -0.458527       -12.4771
  55   2.0000      -0.450046       -12.2464
  56   2.0000      -0.443530       -12.0691
  57   2.0000      -0.438592       -11.9347
  58   2.0000      -0.434666       -11.8279
  59   2.0000      -0.425992       -11.5918
  60   2.0000      -0.422109       -11.4862
  61   2.0000      -0.414099       -11.2682
  62   2.0000      -0.407145       -11.0790
  63   2.0000      -0.335115        -9.1189
  64   2.0000      -0.331891        -9.0312
  65   2.0000      -0.327904        -8.9227
  66   2.0000      -0.299959        -8.1623
  67   0.0000       0.044147         1.2013
  68   0.0000       0.063593         1.7305
  69   0.0000       0.107711         2.9310
  70   0.0000       0.119916         3.2631
  71   0.0000       0.134987         3.6732

MULLIKEN ATOMIC CHARGES
-----------------------
   0 S :    0.125876
   1 C :   -0.164966
   2 C :   -0.088394
   3 C :    0.033615
   4 C :   -0.182572
   5 H :   -0.001543
   6 C :    0.046849
   7 H :    0.049137
   8 H :    0.034320
   9 C :   -0.036399
  10 H :    0.041656
  11 H :    0.015602
  12 C :   -0.073177
  13 H :    0.032696
  14 H :    0.016722
  15 H :    0.038641
  16 S :    0.135595
  17 C :   -0.099067
  18 C :   -0.062391
  19 C :   -0.040345
  20 C :   -0.193543
  21 H :    0.039746
  22 C :    0.146768
  23 H :    0.009017
  24 H :    0.045528
  25 C :   -0.081711
  26 H :    0.022536
  27 H :    0.021494
  28 C :   -0.030358
  29 H :    0.023816
  30 H :    0.021114
  31 H :    0.029758
  32 H :    0.069415
  33 H :    0.054566
Sum of atomic charges:    0.0000000

LOEWDIN ATOMIC CHARGES
----------------------
   0 S :    0.421880
   1 C :   -0.203943
   2 C :   -0.069477
   3 C :   -0.063154
   4 C :   -0.214565
   5 H :    0.024086
   6 C :   -0.026453
   7 H :    0.033463
   8 H :    0.031619
   9 C :   -0.024216
  10 H :    0.033046
  11 H :    0.007026
  12 C :   -0.075992
  13 H :    0.027851
  14 H :    0.030351
  15 H :    0.020348
  16 S :    0.419165
  17 C :   -0.196099
  18 C :   -0.081200
  19 C :   -0.055297
  20 C :   -0.212567
  21 H :    0.043381
  22 C :   -0.013426
  23 H :    0.018550
  24 H :    0.038641
  25 C :   -0.038555
  26 H :    0.022684
  27 H :    0.028310
  28 C :   -0.069999
  29 H :    0.021083
  30 H :    0.020966
  31 H :    0.030956
  32 H :    0.039467
  33 H :    0.032069

  Mayer bond orders larger than 0.100000
B(  0-S ,  1-C ) :   1.1399 B(  0-S ,  4-C ) :   1.1506 B(  1-C ,  2-C ) :   1.6277
B(  1-C , 32-H ) :   0.9601 B(  2-C ,  3-C ) :   1.2300 B(  2-C ,  6-C ) :   1.0066
B(  3-C ,  4-C ) :   1.5898 B(  3-C ,  5-H ) :   0.9974 B(  4-C , 20-C ) :   1.0331
B(  6-C ,  7-H ) :   0.9421 B(  6-C ,  8-H ) :   0.9536 B(  6-C ,  9-C ) :   1.0601
B(  9-C , 10-H ) :   0.9617 B(  9-C , 11-H ) :   0.9678 B(  9-C , 12-C ) :   1.0597
B( 12-C , 13-H ) :   0.9803 B( 12-C , 14-H ) :   0.9754 B( 12-C , 15-H ) :   0.9787
B( 16-S , 17-C ) :   1.1473 B( 16-S , 20-C ) :   1.1463 B( 17-C , 18-C ) :   1.6377
B( 17-C , 20-C ) :   0.1005 B( 17-C , 33-H ) :   0.9617 B( 18-C , 19-C ) :   1.2371
B( 18-C , 21-H ) :   0.9750 B( 19-C , 20-C ) :   1.5946 B( 19-C , 22-C ) :   1.0574
B( 22-C , 23-H ) :   0.9085 B( 22-C , 24-H ) :   0.9415 B( 22-C , 25-C ) :   1.0416
B( 25-C , 26-H ) :   0.9624 B( 25-C , 27-H ) :   0.9505 B( 25-C , 28-C ) :   1.1005
B( 28-C , 29-H ) :   0.9707 B( 28-C , 30-H ) :   0.9728 B( 28-C , 31-H ) :   0.9681

Dispersion correction           -0.014925532
FINAL SINGLE POINT ENERGY     -1339.860435843059

DIPOLE MOMENT
-------------
                                X             Y             Z
Electronic contribution:      9.47028       5.48656      14.18851
Nuclear contribution   :     -9.85392      -5.60439     -14.48686
                        -----------------------------------------
Total Dipole Moment    :     -0.38364      -0.11783      -0.29835
                        -----------------------------------------
Magnitude (a.u.)       :      0.50008
Magnitude (Debye)      :      1.27109

Rotational constants in cm-1:     0.020446     0.008273     0.007018
Rotational constants in MHz :   612.955152   248.031632   210.401710

                             ****ORCA TERMINATED NORMALLY****
TOTAL RUN TIME: 0 days 0 hours 0 minutes 29 seconds 779 msec
