                         Program Version 4.2.1 -  RELEASE  -
|  1> ! wB97X-D3 SP def2-SVP
|  2> %pal
|  3> nprocs 16
|  4> end
|  5>
|  6> * xyz 0 1
|  7> S 	 34.2924 	 5.46782 	 88.6198
|  8> C 	 33.1886 	 4.52922 	 87.5927
|  9> C 	 33.8554 	 3.46007 	 87.0566
| 10> C 	 35.2538 	 3.44517 	 87.4157
| 11> C 	 35.6637 	 4.48117 	 88.2405
| 12> H 	 36.0101 	 2.72885 	 87.1492
| 13> C 	 33.3618 	 2.36118 	 86.1484
| 14> H 	 32.2597 	 2.45253 	 86.2144
| 15> H 	 33.7441 	 1.47651 	 86.6174
| 16> C 	 33.6707 	 2.45486 	 84.6412
| 17> H 	 34.7233 	 2.10397 	 84.4489
| 18> H 	 32.9934 	 1.73795 	 84.1491
| 19> C 	 33.5516 	 3.813 	 83.9631
| 20> H 	 34.0576 	 3.74211 	 82.9591
| 21> H 	 32.5359 	 4.11389 	 83.8846
| 22> H 	 34.1269 	 4.53691 	 84.4817
| 23> S 	 37.8051 	 3.97143 	 89.753
| 24> C 	 39.2523 	 4.80952 	 89.5509
| 25> C 	 39.2155 	 5.84319 	 88.642
| 26> C 	 37.8529 	 5.93888 	 88.1127
| 27> C 	 37.0212 	 4.89022 	 88.5225
| 28> H 	 40.0415 	 6.52563 	 88.4219
| 29> C 	 37.47 	 6.94905 	 87.0618
| 30> H 	 37.8353 	 7.93279 	 87.1772
| 31> H 	 36.4183 	 7.10538 	 87.1704
| 32> C 	 37.892 	 6.58198 	 85.6026
| 33> H 	 37.2747 	 5.77964 	 85.275
| 34> H 	 38.9069 	 6.21703 	 85.5426
| 35> C 	 37.7144 	 7.73706 	 84.6467
| 36> H 	 37.9702 	 7.4291 	 83.6416
| 37> H 	 38.4359 	 8.59179 	 84.7501
| 38> H 	 36.6961 	 8.10356 	 84.6108
| 39> H 	 32.073 	 4.6712 	 87.5011
| 40> H 	 39.9965 	 4.64296 	 90.1682
| 41> *
| 42>
| 43>                          ****END OF INPUT****

CARTESIAN COORDINATES (ANGSTROEM)
---------------------------------
  S     34.292400    5.467820   88.619800
  C     33.188600    4.529220   87.592700
  C     33.855400    3.460070   87.056600
  C     35.253800    3.445170   87.415700
  C     35.663700    4.481170   88.240500
  H     36.010100    2.728850   87.149200
  C     33.361800    2.361180   86.148400
  H     32.259700    2.452530   86.214400
  H     33.744100    1.476510   86.617400
  C     33.670700    2.454860   84.641200
  H     34.723300    2.103970   84.448900
  H     32.993400    1.737950   84.149100
  C     33.551600    3.813000   83.963100
  H     34.057600    3.742110   82.959100
  H     32.535900    4.113890   83.884600
  H     34.126900    4.536910   84.481700
  S     37.805100    3.971430   89.753000
  C     39.252300    4.809520   89.550900
  C     39.215500    5.843190   88.642000
  C     37.852900    5.938880   88.112700
  C     37.021200    4.890220   88.522500
  H     40.041500    6.525630   88.421900
  C     37.470000    6.949050   87.061800
  H     37.835300    7.932790   87.177200
  H     36.418300    7.105380   87.170400
  C     37.892000    6.581980   85.602600
  H     37.274700    5.779640   85.275000
  H     38.906900    6.217030   85.542600
  C     37.714400    7.737060   84.646700
  H     37.970200    7.429100   83.641600
  H     38.435900    8.591790   84.750100
  H     36.696100    8.103560   84.610800
  H     32.073000    4.671200   87.501100
  H     39.996500    4.642960   90.168200

 Total Charge           Charge          ....    0
 Multiplicity           Mult            ....    1
 Number of Electrons    NEL             ....  134
 Basis Dimension        Dim             ....  322

ORBITAL ENERGIES
----------------

  NO   OCC          E(Eh)            E(eV)
   0   2.0000     -88.964997     -2420.8607
   1   2.0000     -88.962785     -2420.8004
   2   2.0000     -10.327219      -281.0179
   3   2.0000     -10.322851      -280.8991
   4   2.0000     -10.321153      -280.8529
   5   2.0000     -10.307246      -280.4744
   6   2.0000     -10.302728      -280.3515
   7   2.0000     -10.301106      -280.3073
   8   2.0000     -10.297244      -280.2023
   9   2.0000     -10.292528      -280.0739
  10   2.0000     -10.292351      -280.0691
  11   2.0000     -10.291285      -280.0401
  12   2.0000     -10.279427      -279.7174
  13   2.0000     -10.279025      -279.7065
  14   2.0000     -10.275204      -279.6025
  15   2.0000     -10.273676      -279.5609
  16   2.0000      -8.079526      -219.8551
  17   2.0000      -8.079365      -219.8507
  18   2.0000      -6.038036      -164.3033
  19   2.0000      -6.037768      -164.2960
  20   2.0000      -6.033710      -164.1856
  21   2.0000      -6.033670      -164.1845
  22   2.0000      -6.030533      -164.0991
  23   2.0000      -6.030161      -164.0890
  24   2.0000      -1.011283       -27.5184
  25   2.0000      -0.987342       -26.8670
  26   2.0000      -0.912735       -24.8368
  27   2.0000      -0.907702       -24.6998
  28   2.0000      -0.872637       -23.7457
  29   2.0000      -0.851932       -23.1822
  30   2.0000      -0.845344       -23.0030
  31   2.0000      -0.815027       -22.1780
  32   2.0000      -0.785854       -21.3842
  33   2.0000      -0.774609       -21.0782
  34   2.0000      -0.706532       -19.2257
  35   2.0000      -0.700330       -19.0570
  36   2.0000      -0.694112       -18.8877
  37   2.0000      -0.668259       -18.1842
  38   2.0000      -0.637384       -17.3441
  39   2.0000      -0.617222       -16.7955
  40   2.0000      -0.601943       -16.3797
  41   2.0000      -0.566277       -15.4092
  42   2.0000      -0.561074       -15.2676
  43   2.0000      -0.557183       -15.1617
  44   2.0000      -0.544328       -14.8119
  45   2.0000      -0.525142       -14.2898
  46   2.0000      -0.518274       -14.1030
  47   2.0000      -0.516577       -14.0568
  48   2.0000      -0.512340       -13.9415
  49   2.0000      -0.501411       -13.6441
  50   2.0000      -0.488989       -13.3061
  51   2.0000      -0.475842       -12.9483
  52   2.0000      -0.468475       -12.7479
  53   2.0000      -0.462852       -12.5948
  54   2.0000      -0.458967       -12.4891
  55   2.0000      -0.452779       -12.3208
  56   2.0000      -0.441783       -12.0215
  57   2.0000      -0.437636       -11.9087
  58   2.0000      -0.432525       -11.7696
  59   2.0000      -0.427026       -11.6200
  60   2.0000      -0.415967       -11.3190
  61   2.0000      -0.413530       -11.2527
  62   2.0000      -0.411816       -11.2061
  63   2.0000      -0.336582        -9.1589
  64   2.0000      -0.331565        -9.0223
  65   2.0000      -0.325351        -8.8532
  66   2.0000      -0.304485        -8.2855
  67   0.0000       0.041814         1.1378
  68   0.0000       0.064210         1.7472
  69   0.0000       0.113917         3.0998
  70   0.0000       0.116299         3.1647
  71   0.0000       0.128666         3.5012

MULLIKEN ATOMIC CHARGES
-----------------------
   0 S :    0.108931
   1 C :   -0.148724
   2 C :   -0.105732
   3 C :    0.039952
   4 C :   -0.150072
   5 H :    0.006355
   6 C :    0.096809
   7 H :    0.014108
   8 H :    0.036576
   9 C :   -0.099366
  10 H :    0.028964
  11 H :    0.037196
  12 C :   -0.032902
  13 H :    0.039414
  14 H :    0.027576
  15 H :    0.035569
  16 S :    0.120793
  17 C :   -0.020583
  18 C :   -0.032910
  19 C :   -0.040998
  20 C :   -0.187534
  21 H :    0.029449
  22 C :    0.098425
  23 H :   -0.001419
  24 H :    0.005527
  25 C :   -0.042146
  26 H :    0.020549
  27 H :    0.021152
  28 C :   -0.056183
  29 H :    0.019680
  30 H :    0.031174
  31 H :    0.034826
  32 H :    0.069212
  33 H :   -0.003671
Sum of atomic charges:   -0.0000000

LOEWDIN ATOMIC CHARGES
----------------------
   0 S :    0.405705
   1 C :   -0.202772
   2 C :   -0.069188
   3 C :   -0.060169
   4 C :   -0.209141
   5 H :    0.028538
   6 C :   -0.032004
   7 H :    0.030222
   8 H :    0.034231
   9 C :   -0.043806
  10 H :    0.024980
  11 H :    0.027167
  12 C :   -0.061094
  13 H :    0.036920
  14 H :    0.018830
  15 H :    0.021735
  16 S :    0.451156
  17 C :   -0.177535
  18 C :   -0.067285
  19 C :   -0.043610
  20 C :   -0.218472
  21 H :    0.037446
  22 C :   -0.033965
  23 H :    0.022645
  24 H :    0.022326
  25 C :   -0.031282
  26 H :    0.021204
  27 H :    0.022879
  28 C :   -0.070751
  29 H :    0.024785
  30 H :    0.027738
  31 H :    0.024821
  32 H :    0.043561
  33 H :   -0.005817

  Mayer bond orders larger than 0.100000
B(  0-S ,  1-C ) :   1.1282 B(  0-S ,  4-C ) :   1.1506 B(  1-C ,  2-C ) :   1.6221
B(  1-C , 32-H ) :   0.9587 B(  2-C ,  3-C ) :   1.2158 B(  2-C ,  6-C ) :   1.0211
B(  3-C ,  4-C ) :   1.5967 B(  3-C ,  5-H ) :   0.9941 B(  4-C , 20-C ) :   0.9997
B(  6-C ,  7-H ) :   0.9355 B(  6-C ,  8-H ) :   0.9403 B(  6-C ,  9-C ) :   1.0676
B(  9-C , 10-H ) :   0.9552 B(  9-C , 11-H ) :   0.9584 B(  9-C , 12-C ) :   1.0863
B( 12-C , 13-H ) :   0.9721 B( 12-C , 14-H ) :   0.9766 B( 12-C , 15-H ) :   0.9685
B( 16-S , 17-C ) :   1.1898 B( 16-S , 20-C ) :   1.1618 B( 17-C , 18-C ) :   1.5755
B( 17-C , 33-H ) :   0.9844 B( 18-C , 19-C ) :   1.2388 B( 18-C , 21-H ) :   0.9944
B( 19-C , 20-C ) :   1.5901 B( 19-C , 22-C ) :   1.0676 B( 22-C , 23-H ) :   0.9333
B( 22-C , 24-H ) :   0.9197 B( 22-C , 25-C ) :   1.0557 B( 25-C , 26-H ) :   0.9512
B( 25-C , 27-H ) :   0.9565 B( 25-C , 28-C ) :   1.0955 B( 28-C , 29-H ) :   0.9696
B( 28-C , 30-H ) :   0.9712 B( 28-C , 31-H ) :   0.9740

Dispersion correction           -0.014872521
FINAL SINGLE POINT ENERGY     -1339.874005441359

DIPOLE MOMENT
-------------
                                X             Y             Z
Electronic contribution:      2.72646      -3.37048      27.38919
Nuclear contribution   :     -2.64530       3.31405     -27.90771
                        -----------------------------------------
Total Dipole Moment    :      0.08116      -0.05643      -0.51851
                        -----------------------------------------
Magnitude (a.u.)       :      0.52785
Magnitude (Debye)      :      1.34169

Rotational constants in cm-1:     0.017287     0.009580     0.007576
Rotational constants in MHz :   518.254572   287.202032   227.110190

                             ****ORCA TERMINATED NORMALLY****
TOTAL RUN TIME: 0 days 0 hours 0 minutes 30 seconds 581 msec
