                         Program Version 4.2.1 -  RELEASE  -
|  1> ! wB97X-D3 SP def2-SVP
|  2> %pal
|  3> nprocs 16
|  4> end
|  5>
|  6> * xyz 0 1
|  7> S 	 -58.0327 	 52.5988 	 135.718
|  8> C 	 -56.819 	 51.3194 	 135.853
|  9> C 	 -57.3566 	 50.2734 	 136.641
| 10> C 	 -58.7232 	 50.5368 	 137.13
| 11> C 	 -59.2112 	 51.7443 	 136.758
| 12> H 	 -59.1523 	 49.8749 	 137.867
| 13> C 	 -56.608 	 49.0222 	 137.076
| 14> H 	 -55.5852 	 49.2265 	 136.852
| 15> H 	 -56.8754 	 48.2132 	 136.407
| 16> C 	 -56.6328 	 48.5294 	 138.454
| 17> H 	 -57.67 	 48.2469 	 138.646
| 18> H 	 -56.1328 	 47.5671 	 138.533
| 19> C 	 -56.1481 	 49.5287 	 139.542
| 20> H 	 -55.3003 	 50.1553 	 139.364
| 21> H 	 -57.036 	 50.208 	 139.625
| 22> H 	 -55.8597 	 49.0472 	 140.514
| 23> S 	 -61.7457 	 51.0725 	 137.055
| 24> C 	 -62.9106 	 52.1827 	 137.68
| 25> C 	 -62.3342 	 53.4874 	 137.829
| 26> C 	 -61.0054 	 53.5171 	 137.384
| 27> C 	 -60.5074 	 52.2898 	 137.09
| 28> H 	 -62.9076 	 54.2667 	 138.298
| 29> C 	 -60.1405 	 54.7366 	 137.451
| 30> H 	 -59.1614 	 54.6521 	 136.876
| 31> H 	 -59.7834 	 54.8474 	 138.462
| 32> C 	 -60.9841 	 56.0008 	 137.105
| 33> H 	 -61.5788 	 56.2767 	 138.036
| 34> H 	 -61.5326 	 56.0158 	 136.177
| 35> C 	 -60.1799 	 57.3926 	 136.921
| 36> H 	 -59.5236 	 57.4182 	 136.061
| 37> H 	 -59.4996 	 57.5242 	 137.754
| 38> H 	 -60.8408 	 58.2877 	 136.899
| 39> H 	 -55.7816 	 51.5073 	 135.688
| 40> H 	 -63.9058 	 51.9183 	 138.063
| 41> *
| 42>
| 43>                          ****END OF INPUT****

CARTESIAN COORDINATES (ANGSTROEM)
---------------------------------
  S    -58.032700   52.598800  135.718000
  C    -56.819000   51.319400  135.853000
  C    -57.356600   50.273400  136.641000
  C    -58.723200   50.536800  137.130000
  C    -59.211200   51.744300  136.758000
  H    -59.152300   49.874900  137.867000
  C    -56.608000   49.022200  137.076000
  H    -55.585200   49.226500  136.852000
  H    -56.875400   48.213200  136.407000
  C    -56.632800   48.529400  138.454000
  H    -57.670000   48.246900  138.646000
  H    -56.132800   47.567100  138.533000
  C    -56.148100   49.528700  139.542000
  H    -55.300300   50.155300  139.364000
  H    -57.036000   50.208000  139.625000
  H    -55.859700   49.047200  140.514000
  S    -61.745700   51.072500  137.055000
  C    -62.910600   52.182700  137.680000
  C    -62.334200   53.487400  137.829000
  C    -61.005400   53.517100  137.384000
  C    -60.507400   52.289800  137.090000
  H    -62.907600   54.266700  138.298000
  C    -60.140500   54.736600  137.451000
  H    -59.161400   54.652100  136.876000
  H    -59.783400   54.847400  138.462000
  C    -60.984100   56.000800  137.105000
  H    -61.578800   56.276700  138.036000
  H    -61.532600   56.015800  136.177000
  C    -60.179900   57.392600  136.921000
  H    -59.523600   57.418200  136.061000
  H    -59.499600   57.524200  137.754000
  H    -60.840800   58.287700  136.899000
  H    -55.781600   51.507300  135.688000
  H    -63.905800   51.918300  138.063000

 Total Charge           Charge          ....    0
 Multiplicity           Mult            ....    1
 Number of Electrons    NEL             ....  134
 Basis Dimension        Dim             ....  322

ORBITAL ENERGIES
----------------

  NO   OCC          E(Eh)            E(eV)
   0   2.0000     -88.967662     -2420.9332
   1   2.0000     -88.963233     -2420.8126
   2   2.0000     -10.334168      -281.2070
   3   2.0000     -10.321845      -280.8717
   4   2.0000     -10.321004      -280.8488
   5   2.0000     -10.318085      -280.7694
   6   2.0000     -10.310707      -280.5686
   7   2.0000     -10.300563      -280.2926
   8   2.0000     -10.297225      -280.2017
   9   2.0000     -10.296901      -280.1929
  10   2.0000     -10.296191      -280.1736
  11   2.0000     -10.295717      -280.1607
  12   2.0000     -10.285864      -279.8926
  13   2.0000     -10.283984      -279.8414
  14   2.0000     -10.281507      -279.7740
  15   2.0000     -10.279244      -279.7125
  16   2.0000      -8.082760      -219.9431
  17   2.0000      -8.076992      -219.7861
  18   2.0000      -6.041147      -164.3880
  19   2.0000      -6.037046      -164.2764
  20   2.0000      -6.035811      -164.2428
  21   2.0000      -6.033792      -164.1878
  22   2.0000      -6.031527      -164.1262
  23   2.0000      -6.027593      -164.0191
  24   2.0000      -1.011721       -27.5303
  25   2.0000      -0.980091       -26.6696
  26   2.0000      -0.917812       -24.9749
  27   2.0000      -0.905532       -24.6408
  28   2.0000      -0.871494       -23.7146
  29   2.0000      -0.848772       -23.0963
  30   2.0000      -0.837711       -22.7953
  31   2.0000      -0.813236       -22.1293
  32   2.0000      -0.783500       -21.3201
  33   2.0000      -0.773983       -21.0611
  34   2.0000      -0.708565       -19.2810
  35   2.0000      -0.703526       -19.1439
  36   2.0000      -0.690966       -18.8021
  37   2.0000      -0.665379       -18.1059
  38   2.0000      -0.633921       -17.2499
  39   2.0000      -0.625183       -17.0121
  40   2.0000      -0.598497       -16.2859
  41   2.0000      -0.566646       -15.4192
  42   2.0000      -0.563578       -15.3357
  43   2.0000      -0.555058       -15.1039
  44   2.0000      -0.541187       -14.7264
  45   2.0000      -0.531265       -14.4564
  46   2.0000      -0.520710       -14.1692
  47   2.0000      -0.511543       -13.9198
  48   2.0000      -0.505296       -13.7498
  49   2.0000      -0.500080       -13.6079
  50   2.0000      -0.484177       -13.1751
  51   2.0000      -0.478591       -13.0231
  52   2.0000      -0.469125       -12.7655
  53   2.0000      -0.466808       -12.7025
  54   2.0000      -0.459456       -12.5024
  55   2.0000      -0.452486       -12.3128
  56   2.0000      -0.446133       -12.1399
  57   2.0000      -0.436230       -11.8704
  58   2.0000      -0.430627       -11.7180
  59   2.0000      -0.426060       -11.5937
  60   2.0000      -0.414298       -11.2736
  61   2.0000      -0.408890       -11.1265
  62   2.0000      -0.401377       -10.9220
  63   2.0000      -0.350899        -9.5485
  64   2.0000      -0.334625        -9.1056
  65   2.0000      -0.325594        -8.8599
  66   2.0000      -0.289185        -7.8691
  67   0.0000       0.020813         0.5663
  68   0.0000       0.077503         2.1090
  69   0.0000       0.108722         2.9585
  70   0.0000       0.111598         3.0367
  71   0.0000       0.129340         3.5195

MULLIKEN ATOMIC CHARGES
-----------------------
   0 S :    0.078861
   1 C :   -0.111642
   2 C :   -0.128123
   3 C :   -0.003719
   4 C :   -0.095760
   5 H :    0.021591
   6 C :    0.092207
   7 H :   -0.000046
   8 H :    0.041226
   9 C :   -0.065406
  10 H :    0.019129
  11 H :    0.025515
  12 C :   -0.068518
  13 H :    0.027103
  14 H :    0.044050
  15 H :    0.041308
  16 S :    0.121664
  17 C :   -0.104564
  18 C :   -0.054259
  19 C :   -0.007813
  20 C :   -0.146281
  21 H :    0.021574
  22 C :    0.069130
  23 H :    0.039566
  24 H :    0.035067
  25 C :   -0.140854
  26 H :    0.051004
  27 H :    0.053561
  28 C :   -0.068430
  29 H :    0.031195
  30 H :    0.016413
  31 H :    0.042133
  32 H :    0.057670
  33 H :    0.065447
Sum of atomic charges:    0.0000000

LOEWDIN ATOMIC CHARGES
----------------------
   0 S :    0.381061
   1 C :   -0.196902
   2 C :   -0.047636
   3 C :   -0.079046
   4 C :   -0.172457
   5 H :    0.028723
   6 C :   -0.038286
   7 H :    0.024537
   8 H :    0.038799
   9 C :   -0.045326
  10 H :    0.021174
  11 H :    0.026934
  12 C :   -0.072667
  13 H :    0.019996
  14 H :    0.034933
  15 H :    0.032474
  16 S :    0.440745
  17 C :   -0.198088
  18 C :   -0.064386
  19 C :   -0.061292
  20 C :   -0.199298
  21 H :    0.030988
  22 C :   -0.038494
  23 H :    0.026262
  24 H :    0.036047
  25 C :   -0.041855
  26 H :    0.034454
  27 H :    0.026670
  28 C :   -0.073163
  29 H :    0.019200
  30 H :    0.017555
  31 H :    0.029442
  32 H :    0.026517
  33 H :    0.032384

  Mayer bond orders larger than 0.100000
B(  0-S ,  1-C ) :   1.1176 B(  0-S ,  4-C ) :   1.1213 B(  1-C ,  2-C ) :   1.6316
B(  1-C , 32-H ) :   0.9658 B(  2-C ,  3-C ) :   1.2155 B(  2-C ,  6-C ) :   1.0207
B(  3-C ,  4-C ) :   1.5854 B(  3-C ,  5-H ) :   0.9869 B(  4-C , 20-C ) :   1.0549
B(  6-C ,  7-H ) :   0.9359 B(  6-C ,  8-H ) :   0.9269 B(  6-C ,  9-C ) :   1.0961
B(  9-C , 10-H ) :   0.9500 B(  9-C , 11-H ) :   0.9473 B(  9-C , 12-C ) :   1.0564
B( 12-C , 13-H ) :   0.9810 B( 12-C , 14-H ) :   0.9738 B( 12-C , 15-H ) :   0.9769
B( 16-S , 17-C ) :   1.1831 B( 16-S , 20-C ) :   1.1505 B( 17-C , 18-C ) :   1.5646
B( 17-C , 20-C ) :   0.1043 B( 17-C , 33-H ) :   0.9656 B( 18-C , 19-C ) :   1.2554
B( 18-C , 21-H ) :   0.9937 B( 19-C , 20-C ) :   1.5725 B( 19-C , 22-C ) :   1.0452
B( 22-C , 23-H ) :   0.9365 B( 22-C , 24-H ) :   0.9208 B( 22-C , 25-C ) :   1.0478
B( 25-C , 26-H ) :   0.9493 B( 25-C , 27-H ) :   0.9713 B( 25-C , 28-C ) :   1.0697
B( 28-C , 29-H ) :   0.9786 B( 28-C , 30-H ) :   0.9746 B( 28-C , 31-H ) :   0.9787

Dispersion correction           -0.013951626
FINAL SINGLE POINT ENERGY     -1339.861722800448

DIPOLE MOMENT
-------------
                                X             Y             Z
Electronic contribution:     -9.96892      -6.70778     -10.45823
Nuclear contribution   :     10.12890       6.70490      11.00490
                        -----------------------------------------
Total Dipole Moment    :      0.15998      -0.00289       0.54667
                        -----------------------------------------
Magnitude (a.u.)       :      0.56961
Magnitude (Debye)      :      1.44783

Rotational constants in cm-1:     0.020384     0.008016     0.006663
Rotational constants in MHz :   611.095437   240.327548   199.739995

                             ****ORCA TERMINATED NORMALLY****
TOTAL RUN TIME: 0 days 0 hours 0 minutes 34 seconds 285 msec
