                         Program Version 4.2.1 -  RELEASE  -
|  1> ! wB97X-D3 SP def2-SVP
|  2> %pal
|  3> nprocs 16
|  4> end
|  5>
|  6> * xyz 0 1
|  7> S 	 3.98049 	 -11.5616 	 77.2925
|  8> C 	 5.37445 	 -11.333 	 78.2716
|  9> C 	 5.01391 	 -11.8064 	 79.5462
| 10> C 	 3.68904 	 -12.1913 	 79.7114
| 11> C 	 2.91138 	 -12.0428 	 78.5925
| 12> H 	 3.23014 	 -12.6315 	 80.6001
| 13> C 	 5.84718 	 -11.7348 	 80.7778
| 14> H 	 5.12887 	 -11.8007 	 81.6071
| 15> H 	 6.42264 	 -10.7424 	 80.8251
| 16> C 	 6.97101 	 -12.7718 	 80.7062
| 17> H 	 6.4314 	 -13.7245 	 80.7712
| 18> H 	 7.63183 	 -12.7543 	 79.8286
| 19> C 	 7.87124 	 -12.9428 	 81.9237
| 20> H 	 7.1655 	 -13.0903 	 82.8052
| 21> H 	 8.50533 	 -13.8594 	 81.899
| 22> H 	 8.54593 	 -12.1412 	 82.1398
| 23> S 	 0.42491 	 -11.0702 	 78.0042
| 24> C 	 -0.898793 	 -12.1488 	 77.7812
| 25> C 	 -0.55822 	 -13.3982 	 78.3217
| 26> C 	 0.79495 	 -13.4849 	 78.764
| 27> C 	 1.53663 	 -12.3476 	 78.4694
| 28> H 	 -1.40297 	 -14.1489 	 78.338
| 29> C 	 1.29702 	 -14.692 	 79.4684
| 30> H 	 2.38268 	 -14.5781 	 79.5511
| 31> H 	 1.10165 	 -15.4078 	 78.6174
| 32> C 	 0.5622 	 -15.0235 	 80.7516
| 33> H 	 -0.524871 	 -15.2198 	 80.5835
| 34> H 	 0.6923 	 -14.1208 	 81.3208
| 35> C 	 1.06116 	 -16.3296 	 81.3773
| 36> H 	 0.528426 	 -16.4131 	 82.3002
| 37> H 	 2.18951 	 -16.3164 	 81.6545
| 38> H 	 0.834764 	 -17.191 	 80.8004
| 39> H 	 6.29641 	 -10.8684 	 78.1306
| 40> H 	 -1.8908 	 -11.8378 	 77.4007
| 41> *
| 42>
| 43>                          ****END OF INPUT****

CARTESIAN COORDINATES (ANGSTROEM)
---------------------------------
  S      3.980490  -11.561600   77.292500
  C      5.374450  -11.333000   78.271600
  C      5.013910  -11.806400   79.546200
  C      3.689040  -12.191300   79.711400
  C      2.911380  -12.042800   78.592500
  H      3.230140  -12.631500   80.600100
  C      5.847180  -11.734800   80.777800
  H      5.128870  -11.800700   81.607100
  H      6.422640  -10.742400   80.825100
  C      6.971010  -12.771800   80.706200
  H      6.431400  -13.724500   80.771200
  H      7.631830  -12.754300   79.828600
  C      7.871240  -12.942800   81.923700
  H      7.165500  -13.090300   82.805200
  H      8.505330  -13.859400   81.899000
  H      8.545930  -12.141200   82.139800
  S      0.424910  -11.070200   78.004200
  C     -0.898793  -12.148800   77.781200
  C     -0.558220  -13.398200   78.321700
  C      0.794950  -13.484900   78.764000
  C      1.536630  -12.347600   78.469400
  H     -1.402970  -14.148900   78.338000
  C      1.297020  -14.692000   79.468400
  H      2.382680  -14.578100   79.551100
  H      1.101650  -15.407800   78.617400
  C      0.562200  -15.023500   80.751600
  H     -0.524871  -15.219800   80.583500
  H      0.692300  -14.120800   81.320800
  C      1.061160  -16.329600   81.377300
  H      0.528426  -16.413100   82.300200
  H      2.189510  -16.316400   81.654500
  H      0.834764  -17.191000   80.800400
  H      6.296410  -10.868400   78.130600
  H     -1.890800  -11.837800   77.400700

 Total Charge           Charge          ....    0
 Multiplicity           Mult            ....    1
 Number of Electrons    NEL             ....  134
 Basis Dimension        Dim             ....  322

ORBITAL ENERGIES
----------------

  NO   OCC          E(Eh)            E(eV)
   0   2.0000     -88.967512     -2420.9291
   1   2.0000     -88.961101     -2420.7546
   2   2.0000     -10.324401      -280.9412
   3   2.0000     -10.321595      -280.8649
   4   2.0000     -10.321488      -280.8620
   5   2.0000     -10.311654      -280.5944
   6   2.0000     -10.303895      -280.3832
   7   2.0000     -10.299415      -280.2613
   8   2.0000     -10.294873      -280.1377
   9   2.0000     -10.293901      -280.1113
  10   2.0000     -10.292398      -280.0704
  11   2.0000     -10.289602      -279.9943
  12   2.0000     -10.288747      -279.9710
  13   2.0000     -10.285895      -279.8934
  14   2.0000     -10.282625      -279.8045
  15   2.0000     -10.279848      -279.7289
  16   2.0000      -8.082155      -219.9266
  17   2.0000      -8.076502      -219.7728
  18   2.0000      -6.040682      -164.3753
  19   2.0000      -6.036399      -164.2588
  20   2.0000      -6.034956      -164.2195
  21   2.0000      -6.033120      -164.1695
  22   2.0000      -6.030877      -164.1085
  23   2.0000      -6.027302      -164.0112
  24   2.0000      -1.013814       -27.5873
  25   2.0000      -0.990719       -26.9588
  26   2.0000      -0.916931       -24.9510
  27   2.0000      -0.914297       -24.8793
  28   2.0000      -0.875854       -23.8332
  29   2.0000      -0.855173       -23.2704
  30   2.0000      -0.851136       -23.1606
  31   2.0000      -0.814812       -22.1722
  32   2.0000      -0.781394       -21.2628
  33   2.0000      -0.768416       -20.9097
  34   2.0000      -0.712318       -19.3832
  35   2.0000      -0.702408       -19.1135
  36   2.0000      -0.691910       -18.8278
  37   2.0000      -0.657819       -17.9002
  38   2.0000      -0.643223       -17.5030
  39   2.0000      -0.620697       -16.8900
  40   2.0000      -0.593812       -16.1585
  41   2.0000      -0.573055       -15.5936
  42   2.0000      -0.569497       -15.4968
  43   2.0000      -0.564072       -15.3492
  44   2.0000      -0.534478       -14.5439
  45   2.0000      -0.529361       -14.4047
  46   2.0000      -0.518869       -14.1191
  47   2.0000      -0.518216       -14.1014
  48   2.0000      -0.508271       -13.8308
  49   2.0000      -0.505929       -13.7670
  50   2.0000      -0.499906       -13.6031
  51   2.0000      -0.480327       -13.0704
  52   2.0000      -0.474141       -12.9020
  53   2.0000      -0.466320       -12.6892
  54   2.0000      -0.461532       -12.5589
  55   2.0000      -0.443278       -12.0622
  56   2.0000      -0.441045       -12.0014
  57   2.0000      -0.436993       -11.8912
  58   2.0000      -0.431056       -11.7296
  59   2.0000      -0.424555       -11.5527
  60   2.0000      -0.414785       -11.2869
  61   2.0000      -0.411149       -11.1879
  62   2.0000      -0.406471       -11.0606
  63   2.0000      -0.341742        -9.2993
  64   2.0000      -0.327302        -8.9063
  65   2.0000      -0.323523        -8.8035
  66   2.0000      -0.294798        -8.0219
  67   0.0000       0.023455         0.6382
  68   0.0000       0.068904         1.8750
  69   0.0000       0.109603         2.9825
  70   0.0000       0.124910         3.3990
  71   0.0000       0.127756         3.4764

MULLIKEN ATOMIC CHARGES
-----------------------
   0 S :    0.134012
   1 C :   -0.067526
   2 C :   -0.098714
   3 C :    0.013312
   4 C :   -0.155851
   5 H :    0.015974
   6 C :    0.052571
   7 H :    0.028356
   8 H :    0.035036
   9 C :   -0.089723
  10 H :    0.021324
  11 H :    0.040746
  12 C :   -0.060519
  13 H :    0.025481
  14 H :    0.039105
  15 H :    0.026047
  16 S :    0.111121
  17 C :   -0.110041
  18 C :   -0.077571
  19 C :   -0.010147
  20 C :   -0.183555
  21 H :    0.040597
  22 C :    0.045463
  23 H :    0.026230
  24 H :    0.038907
  25 C :   -0.078810
  26 H :    0.038708
  27 H :    0.032648
  28 C :   -0.029870
  29 H :    0.028108
  30 H :    0.040430
  31 H :    0.032642
  32 H :    0.022544
  33 H :    0.072965
Sum of atomic charges:    0.0000000

LOEWDIN ATOMIC CHARGES
----------------------
   0 S :    0.437530
   1 C :   -0.202251
   2 C :   -0.067608
   3 C :   -0.069832
   4 C :   -0.203252
   5 H :    0.032921
   6 C :   -0.034813
   7 H :    0.031872
   8 H :    0.035974
   9 C :   -0.049659
  10 H :    0.027169
  11 H :    0.026537
  12 C :   -0.073543
  13 H :    0.028566
  14 H :    0.030330
  15 H :    0.013571
  16 S :    0.415984
  17 C :   -0.194295
  18 C :   -0.087429
  19 C :   -0.050283
  20 C :   -0.212846
  21 H :    0.040727
  22 C :   -0.042673
  23 H :    0.029565
  24 H :    0.041776
  25 C :   -0.038518
  26 H :    0.032884
  27 H :    0.024580
  28 C :   -0.063096
  29 H :    0.023731
  30 H :    0.033620
  31 H :    0.022267
  32 H :    0.023163
  33 H :    0.037332

  Mayer bond orders larger than 0.100000
B(  0-S ,  1-C ) :   1.1573 B(  0-S ,  4-C ) :   1.1666 B(  1-C ,  2-C ) :   1.5374
B(  1-C ,  4-C ) :   0.1126 B(  1-C , 32-H ) :   0.9790 B(  2-C ,  3-C ) :   1.3000
B(  2-C ,  6-C ) :   1.0279 B(  3-C ,  4-C ) :   1.5199 B(  3-C ,  5-H ) :   0.9930
B(  4-C , 20-C ) :   1.0740 B(  6-C ,  7-H ) :   0.9478 B(  6-C ,  8-H ) :   0.9392
B(  6-C ,  9-C ) :   1.0485 B(  9-C , 10-H ) :   0.9544 B(  9-C , 11-H ) :   0.9615
B(  9-C , 12-C ) :   1.0814 B( 12-C , 13-H ) :   0.9742 B( 12-C , 14-H ) :   0.9753
B( 12-C , 15-H ) :   0.9747 B( 16-S , 17-C ) :   1.1794 B( 16-S , 20-C ) :   1.1401
B( 17-C , 18-C ) :   1.5769 B( 17-C , 20-C ) :   0.1069 B( 17-C , 33-H ) :   0.9663
B( 18-C , 19-C ) :   1.2391 B( 18-C , 21-H ) :   0.9850 B( 19-C , 20-C ) :   1.5536
B( 19-C , 22-C ) :   1.0409 B( 22-C , 23-H ) :   0.9328 B( 22-C , 24-H ) :   0.9256
B( 22-C , 25-C ) :   1.0601 B( 25-C , 26-H ) :   0.9480 B( 25-C , 27-H ) :   0.9561
B( 25-C , 28-C ) :   1.0871 B( 28-C , 29-H ) :   0.9737 B( 28-C , 30-H ) :   0.9727
B( 28-C , 31-H ) :   0.9741

Dispersion correction           -0.013841036
FINAL SINGLE POINT ENERGY     -1339.854154222453

DIPOLE MOMENT
-------------
                                X             Y             Z
Electronic contribution:    -12.04911      17.89490     -22.20654
Nuclear contribution   :     11.97495     -18.33674      22.72401
                        -----------------------------------------
Total Dipole Moment    :     -0.07416      -0.44184       0.51747
                        -----------------------------------------
Magnitude (a.u.)       :      0.68447
Magnitude (Debye)      :      1.73978

Rotational constants in cm-1:     0.017860     0.008666     0.006253
Rotational constants in MHz :   535.431650   259.787398   187.454206

                             ****ORCA TERMINATED NORMALLY****
TOTAL RUN TIME: 0 days 0 hours 0 minutes 32 seconds 636 msec
