                         Program Version 4.2.1 -  RELEASE  -
|  1> ! wB97X-D3 SP def2-SVP
|  2> %pal
|  3> nprocs 16
|  4> end
|  5>
|  6> * xyz 0 1
|  7> S 	 52.306 	 23.4896 	 92.931
|  8> C 	 50.8715 	 24.0202 	 93.7702
|  9> C 	 50.8597 	 23.6446 	 95.1164
| 10> C 	 51.9612 	 22.8179 	 95.4195
| 11> C 	 52.8744 	 22.6726 	 94.3641
| 12> H 	 52.2048 	 22.4617 	 96.4386
| 13> C 	 49.7982 	 24 	 96.1119
| 14> H 	 49.1006 	 23.1931 	 96.2417
| 15> H 	 49.2029 	 24.8352 	 95.7998
| 16> C 	 50.3313 	 24.2998 	 97.5404
| 17> H 	 49.4597 	 24.5834 	 98.1284
| 18> H 	 50.8488 	 23.3535 	 97.9497
| 19> C 	 51.2175 	 25.5366 	 97.4887
| 20> H 	 51.4243 	 25.799 	 98.6056
| 21> H 	 52.1173 	 25.2097 	 97.0488
| 22> H 	 50.9425 	 26.2968 	 96.8125
| 23> S 	 55.4229 	 22.6957 	 95.1593
| 24> C 	 56.3794 	 21.2514 	 94.9958
| 25> C 	 55.705 	 20.2695 	 94.3602
| 26> C 	 54.4498 	 20.7582 	 93.8571
| 27> C 	 54.0976 	 21.9699 	 94.3466
| 28> H 	 56.1675 	 19.2898 	 94.1099
| 29> C 	 53.5298 	 19.892 	 93.0639
| 30> H 	 54.0269 	 18.9269 	 92.7903
| 31> H 	 53.418 	 20.3232 	 92.0086
| 32> C 	 52.0741 	 19.61 	 93.5553
| 33> H 	 51.6257 	 18.9974 	 92.7722
| 34> H 	 51.4826 	 20.5252 	 93.4834
| 35> C 	 51.9325 	 18.9672 	 94.992
| 36> H 	 51.0232 	 18.3757 	 95.0944
| 37> H 	 51.9794 	 19.7655 	 95.7342
| 38> H 	 52.7179 	 18.2923 	 95.1567
| 39> H 	 50.0192 	 24.5435 	 93.2702
| 40> H 	 57.2767 	 21.0837 	 95.547
| 41> *
| 42>
| 43>                          ****END OF INPUT****

CARTESIAN COORDINATES (ANGSTROEM)
---------------------------------
  S     52.306000   23.489600   92.931000
  C     50.871500   24.020200   93.770200
  C     50.859700   23.644600   95.116400
  C     51.961200   22.817900   95.419500
  C     52.874400   22.672600   94.364100
  H     52.204800   22.461700   96.438600
  C     49.798200   24.000000   96.111900
  H     49.100600   23.193100   96.241700
  H     49.202900   24.835200   95.799800
  C     50.331300   24.299800   97.540400
  H     49.459700   24.583400   98.128400
  H     50.848800   23.353500   97.949700
  C     51.217500   25.536600   97.488700
  H     51.424300   25.799000   98.605600
  H     52.117300   25.209700   97.048800
  H     50.942500   26.296800   96.812500
  S     55.422900   22.695700   95.159300
  C     56.379400   21.251400   94.995800
  C     55.705000   20.269500   94.360200
  C     54.449800   20.758200   93.857100
  C     54.097600   21.969900   94.346600
  H     56.167500   19.289800   94.109900
  C     53.529800   19.892000   93.063900
  H     54.026900   18.926900   92.790300
  H     53.418000   20.323200   92.008600
  C     52.074100   19.610000   93.555300
  H     51.625700   18.997400   92.772200
  H     51.482600   20.525200   93.483400
  C     51.932500   18.967200   94.992000
  H     51.023200   18.375700   95.094400
  H     51.979400   19.765500   95.734200
  H     52.717900   18.292300   95.156700
  H     50.019200   24.543500   93.270200
  H     57.276700   21.083700   95.547000

 Total Charge           Charge          ....    0
 Multiplicity           Mult            ....    1
 Number of Electrons    NEL             ....  134
 Basis Dimension        Dim             ....  322

ORBITAL ENERGIES
----------------

  NO   OCC          E(Eh)            E(eV)
   0   2.0000     -88.969796     -2420.9912
   1   2.0000     -88.960900     -2420.7492
   2   2.0000     -10.327528      -281.0263
   3   2.0000     -10.318206      -280.7727
   4   2.0000     -10.313391      -280.6416
   5   2.0000     -10.310856      -280.5726
   6   2.0000     -10.301614      -280.3212
   7   2.0000     -10.298651      -280.2406
   8   2.0000     -10.297121      -280.1989
   9   2.0000     -10.293912      -280.1116
  10   2.0000     -10.293849      -280.1099
  11   2.0000     -10.292439      -280.0715
  12   2.0000     -10.287380      -279.9338
  13   2.0000     -10.283806      -279.8366
  14   2.0000     -10.272234      -279.5217
  15   2.0000     -10.270924      -279.4860
  16   2.0000      -8.084255      -219.9838
  17   2.0000      -8.076901      -219.7836
  18   2.0000      -6.042565      -164.4265
  19   2.0000      -6.038722      -164.3220
  20   2.0000      -6.035327      -164.2296
  21   2.0000      -6.035325      -164.2295
  22   2.0000      -6.031228      -164.1181
  23   2.0000      -6.027660      -164.0210
  24   2.0000      -1.015811       -27.6416
  25   2.0000      -0.988681       -26.9034
  26   2.0000      -0.916904       -24.9502
  27   2.0000      -0.897973       -24.4351
  28   2.0000      -0.875342       -23.8193
  29   2.0000      -0.848522       -23.0894
  30   2.0000      -0.841670       -22.9030
  31   2.0000      -0.815082       -22.1795
  32   2.0000      -0.784150       -21.3378
  33   2.0000      -0.771930       -21.0053
  34   2.0000      -0.714078       -19.4310
  35   2.0000      -0.694025       -18.8854
  36   2.0000      -0.685671       -18.6581
  37   2.0000      -0.666712       -18.1422
  38   2.0000      -0.637434       -17.3455
  39   2.0000      -0.626448       -17.0465
  40   2.0000      -0.589367       -16.0375
  41   2.0000      -0.566452       -15.4139
  42   2.0000      -0.550851       -14.9894
  43   2.0000      -0.544237       -14.8095
  44   2.0000      -0.539051       -14.6683
  45   2.0000      -0.536941       -14.6109
  46   2.0000      -0.519263       -14.1299
  47   2.0000      -0.513077       -13.9615
  48   2.0000      -0.501974       -13.6594
  49   2.0000      -0.494596       -13.4586
  50   2.0000      -0.490542       -13.3483
  51   2.0000      -0.481275       -13.0962
  52   2.0000      -0.471424       -12.8281
  53   2.0000      -0.467085       -12.7100
  54   2.0000      -0.463856       -12.6222
  55   2.0000      -0.446566       -12.1517
  56   2.0000      -0.438249       -11.9254
  57   2.0000      -0.435013       -11.8373
  58   2.0000      -0.431123       -11.7314
  59   2.0000      -0.418624       -11.3913
  60   2.0000      -0.418182       -11.3793
  61   2.0000      -0.415914       -11.3176
  62   2.0000      -0.408437       -11.1141
  63   2.0000      -0.337604        -9.1867
  64   2.0000      -0.333279        -9.0690
  65   2.0000      -0.320628        -8.7247
  66   2.0000      -0.305296        -8.3075
  67   0.0000       0.036493         0.9930
  68   0.0000       0.062098         1.6898
  69   0.0000       0.113983         3.1016
  70   0.0000       0.121543         3.3074
  71   0.0000       0.123697         3.3660

MULLIKEN ATOMIC CHARGES
-----------------------
   0 S :    0.132264
   1 C :   -0.150014
   2 C :   -0.088152
   3 C :    0.043126
   4 C :   -0.207423
   5 H :    0.026097
   6 C :    0.089561
   7 H :    0.034402
   8 H :    0.011033
   9 C :   -0.134841
  10 H :    0.033839
  11 H :    0.051137
  12 C :   -0.017658
  13 H :    0.050150
  14 H :    0.015138
  15 H :    0.024970
  16 S :    0.115238
  17 C :   -0.074550
  18 C :   -0.046949
  19 C :    0.001242
  20 C :   -0.174244
  21 H :    0.036465
  22 C :    0.005152
  23 H :    0.015097
  24 H :    0.039434
  25 C :   -0.064550
  26 H :    0.021224
  27 H :    0.037538
  28 C :   -0.015118
  29 H :    0.033158
  30 H :    0.031301
  31 H :    0.013627
  32 H :    0.062387
  33 H :    0.049920
Sum of atomic charges:   -0.0000000

LOEWDIN ATOMIC CHARGES
----------------------
   0 S :    0.423102
   1 C :   -0.209316
   2 C :   -0.067749
   3 C :   -0.059652
   4 C :   -0.200444
   5 H :    0.034987
   6 C :   -0.032181
   7 H :    0.031399
   8 H :    0.025747
   9 C :   -0.043400
  10 H :    0.023502
  11 H :    0.031324
  12 C :   -0.068042
  13 H :    0.039861
  14 H :    0.019785
  15 H :    0.022385
  16 S :    0.423201
  17 C :   -0.181643
  18 C :   -0.073256
  19 C :   -0.060252
  20 C :   -0.221240
  21 H :    0.040568
  22 C :   -0.046355
  23 H :    0.028639
  24 H :    0.042073
  25 C :   -0.039575
  26 H :    0.023555
  27 H :    0.022676
  28 C :   -0.060356
  29 H :    0.028162
  30 H :    0.025592
  31 H :    0.015948
  32 H :    0.035873
  33 H :    0.025081

  Mayer bond orders larger than 0.100000
B(  0-S ,  1-C ) :   1.1526 B(  0-S ,  4-C ) :   1.1668 B(  1-C ,  2-C ) :   1.5855
B(  1-C ,  4-C ) :   0.1117 B(  1-C , 32-H ) :   0.9613 B(  2-C ,  3-C ) :   1.2650
B(  2-C ,  6-C ) :   1.0246 B(  3-C ,  4-C ) :   1.5690 B(  3-C ,  5-H ) :   0.9784
B(  4-C , 20-C ) :   1.0265 B(  6-C ,  7-H ) :   0.9315 B(  6-C ,  8-H ) :   0.9393
B(  6-C ,  9-C ) :   1.0809 B(  9-C , 10-H ) :   0.9573 B(  9-C , 11-H ) :   0.9494
B(  9-C , 12-C ) :   1.0684 B( 12-C , 13-H ) :   0.9734 B( 12-C , 14-H ) :   0.9672
B( 12-C , 15-H ) :   0.9713 B( 16-S , 17-C ) :   1.1568 B( 16-S , 20-C ) :   1.1448
B( 17-C , 18-C ) :   1.6301 B( 17-C , 33-H ) :   0.9653 B( 18-C , 19-C ) :   1.2312
B( 18-C , 21-H ) :   0.9817 B( 19-C , 20-C ) :   1.6097 B( 19-C , 22-C ) :   1.0543
B( 22-C , 23-H ) :   0.9357 B( 22-C , 24-H ) :   0.9252 B( 22-C , 25-C ) :   1.0803
B( 25-C , 26-H ) :   0.9522 B( 25-C , 27-H ) :   0.9517 B( 25-C , 28-C ) :   1.0625
B( 28-C , 29-H ) :   0.9766 B( 28-C , 30-H ) :   0.9734 B( 28-C , 31-H ) :   0.9791

Dispersion correction           -0.016402909
FINAL SINGLE POINT ENERGY     -1339.876848561764

DIPOLE MOMENT
-------------
                                X             Y             Z
Electronic contribution:     15.17536       5.98585     -10.89102
Nuclear contribution   :    -15.50329      -6.27759      11.07761
                        -----------------------------------------
Total Dipole Moment    :     -0.32793      -0.29174       0.18660
                        -----------------------------------------
Magnitude (a.u.)       :      0.47693
Magnitude (Debye)      :      1.21227

Rotational constants in cm-1:     0.019744     0.009681     0.008593
Rotational constants in MHz :   591.921889   290.225058   257.610781

                             ****ORCA TERMINATED NORMALLY****
TOTAL RUN TIME: 0 days 0 hours 0 minutes 32 seconds 895 msec
