                         Program Version 4.2.1 -  RELEASE  -
|  1> ! wB97X-D3 SP def2-SVP
|  2> %pal
|  3> nprocs 16
|  4> end
|  5>
|  6> * xyz 0 1
|  7> S 	 -16.2198 	 34.8318 	 38.9448
|  8> C 	 -15.549 	 36.1807 	 39.7966
|  9> C 	 -14.9483 	 37.0364 	 38.8901
| 10> C 	 -15.096 	 36.5846 	 37.5347
| 11> C 	 -15.8664 	 35.4348 	 37.357
| 12> H 	 -14.7545 	 36.993 	 36.6514
| 13> C 	 -14.0318 	 38.1588 	 39.3446
| 14> H 	 -13.1683 	 38.2798 	 38.6484
| 15> H 	 -13.5925 	 37.7974 	 40.2768
| 16> C 	 -14.6321 	 39.5511 	 39.7084
| 17> H 	 -15.5776 	 39.3845 	 40.2707
| 18> H 	 -14.0403 	 40.1038 	 40.464
| 19> C 	 -14.86 	 40.4629 	 38.4432
| 20> H 	 -13.9666 	 40.7997 	 37.9851
| 21> H 	 -15.4822 	 40.0331 	 37.6595
| 22> H 	 -15.3641 	 41.3548 	 38.7464
| 23> S 	 -15.5118 	 32.9941 	 36.0324
| 24> C 	 -15.6675 	 32.9176 	 34.3576
| 25> C 	 -16.0265 	 34.2151 	 33.8701
| 26> C 	 -16.4401 	 35.1513 	 34.8306
| 27> C 	 -16.1008 	 34.691 	 36.1032
| 28> H 	 -16.1083 	 34.378 	 32.8264
| 29> C 	 -16.9136 	 36.6078 	 34.5406
| 30> H 	 -16.6435 	 37.2244 	 35.3447
| 31> H 	 -18 	 36.4619 	 34.4618
| 32> C 	 -16.4148 	 37.2503 	 33.1985
| 33> H 	 -16.8476 	 36.6612 	 32.3696
| 34> H 	 -15.3124 	 37.1391 	 33.1179
| 35> C 	 -16.7532 	 38.7052 	 32.9558
| 36> H 	 -16.3618 	 39.3958 	 33.6888
| 37> H 	 -17.8707 	 38.8492 	 32.9601
| 38> H 	 -16.3952 	 39.002 	 32.0252
| 39> H 	 -15.3637 	 36.2518 	 40.8209
| 40> H 	 -15.1986 	 32.2284 	 33.6793
| 41> *
| 42>
| 43>                          ****END OF INPUT****

CARTESIAN COORDINATES (ANGSTROEM)
---------------------------------
  S    -16.219800   34.831800   38.944800
  C    -15.549000   36.180700   39.796600
  C    -14.948300   37.036400   38.890100
  C    -15.096000   36.584600   37.534700
  C    -15.866400   35.434800   37.357000
  H    -14.754500   36.993000   36.651400
  C    -14.031800   38.158800   39.344600
  H    -13.168300   38.279800   38.648400
  H    -13.592500   37.797400   40.276800
  C    -14.632100   39.551100   39.708400
  H    -15.577600   39.384500   40.270700
  H    -14.040300   40.103800   40.464000
  C    -14.860000   40.462900   38.443200
  H    -13.966600   40.799700   37.985100
  H    -15.482200   40.033100   37.659500
  H    -15.364100   41.354800   38.746400
  S    -15.511800   32.994100   36.032400
  C    -15.667500   32.917600   34.357600
  C    -16.026500   34.215100   33.870100
  C    -16.440100   35.151300   34.830600
  C    -16.100800   34.691000   36.103200
  H    -16.108300   34.378000   32.826400
  C    -16.913600   36.607800   34.540600
  H    -16.643500   37.224400   35.344700
  H    -18.000000   36.461900   34.461800
  C    -16.414800   37.250300   33.198500
  H    -16.847600   36.661200   32.369600
  H    -15.312400   37.139100   33.117900
  C    -16.753200   38.705200   32.955800
  H    -16.361800   39.395800   33.688800
  H    -17.870700   38.849200   32.960100
  H    -16.395200   39.002000   32.025200
  H    -15.363700   36.251800   40.820900
  H    -15.198600   32.228400   33.679300

 Total Charge           Charge          ....    0
 Multiplicity           Mult            ....    1
 Number of Electrons    NEL             ....  134
 Basis Dimension        Dim             ....  322

ORBITAL ENERGIES
----------------

  NO   OCC          E(Eh)            E(eV)
   0   2.0000     -88.969951     -2420.9954
   1   2.0000     -88.963931     -2420.8316
   2   2.0000     -10.333030      -281.1760
   3   2.0000     -10.331213      -281.1266
   4   2.0000     -10.317885      -280.7639
   5   2.0000     -10.309586      -280.5381
   6   2.0000     -10.308614      -280.5116
   7   2.0000     -10.303305      -280.3672
   8   2.0000     -10.297197      -280.2010
   9   2.0000     -10.295870      -280.1649
  10   2.0000     -10.295732      -280.1611
  11   2.0000     -10.294681      -280.1325
  12   2.0000     -10.293421      -280.0982
  13   2.0000     -10.289971      -280.0044
  14   2.0000     -10.278698      -279.6976
  15   2.0000     -10.273693      -279.5614
  16   2.0000      -8.084850      -219.9999
  17   2.0000      -8.079119      -219.8440
  18   2.0000      -6.043152      -164.4425
  19   2.0000      -6.039210      -164.3353
  20   2.0000      -6.037629      -164.2922
  21   2.0000      -6.035913      -164.2455
  22   2.0000      -6.033334      -164.1754
  23   2.0000      -6.030071      -164.0866
  24   2.0000      -1.007716       -27.4214
  25   2.0000      -0.987709       -26.8769
  26   2.0000      -0.908746       -24.7282
  27   2.0000      -0.903477       -24.5849
  28   2.0000      -0.869178       -23.6515
  29   2.0000      -0.856697       -23.3119
  30   2.0000      -0.842127       -22.9154
  31   2.0000      -0.813063       -22.1246
  32   2.0000      -0.789718       -21.4893
  33   2.0000      -0.775533       -21.1033
  34   2.0000      -0.706229       -19.2175
  35   2.0000      -0.701731       -19.0951
  36   2.0000      -0.700928       -19.0732
  37   2.0000      -0.656466       -17.8634
  38   2.0000      -0.648157       -17.6373
  39   2.0000      -0.613906       -16.7052
  40   2.0000      -0.594448       -16.1757
  41   2.0000      -0.572139       -15.5687
  42   2.0000      -0.571369       -15.5477
  43   2.0000      -0.543861       -14.7992
  44   2.0000      -0.536808       -14.6073
  45   2.0000      -0.531448       -14.4614
  46   2.0000      -0.517319       -14.0770
  47   2.0000      -0.511619       -13.9219
  48   2.0000      -0.509524       -13.8649
  49   2.0000      -0.505185       -13.7468
  50   2.0000      -0.486375       -13.2349
  51   2.0000      -0.482950       -13.1417
  52   2.0000      -0.477834       -13.0025
  53   2.0000      -0.475563       -12.9407
  54   2.0000      -0.460096       -12.5199
  55   2.0000      -0.453540       -12.3414
  56   2.0000      -0.439969       -11.9722
  57   2.0000      -0.435831       -11.8596
  58   2.0000      -0.428963       -11.6727
  59   2.0000      -0.425988       -11.5917
  60   2.0000      -0.420925       -11.4539
  61   2.0000      -0.418910       -11.3991
  62   2.0000      -0.412609       -11.2277
  63   2.0000      -0.347137        -9.4461
  64   2.0000      -0.335986        -9.1427
  65   2.0000      -0.327050        -8.8995
  66   2.0000      -0.289374        -7.8743
  67   0.0000       0.024870         0.6767
  68   0.0000       0.063342         1.7236
  69   0.0000       0.112191         3.0529
  70   0.0000       0.122161         3.3242
  71   0.0000       0.128942         3.5087

MULLIKEN ATOMIC CHARGES
-----------------------
   0 S :    0.105966
   1 C :   -0.082377
   2 C :   -0.076719
   3 C :    0.065989
   4 C :   -0.177687
   5 H :   -0.024941
   6 C :    0.038197
   7 H :    0.034392
   8 H :    0.019110
   9 C :   -0.074571
  10 H :    0.028319
  11 H :    0.033230
  12 C :   -0.036106
  13 H :    0.020788
  14 H :    0.033198
  15 H :    0.022402
  16 S :    0.125192
  17 C :   -0.068761
  18 C :   -0.081899
  19 C :   -0.041334
  20 C :   -0.152834
  21 H :    0.007916
  22 C :    0.113595
  23 H :    0.015499
  24 H :    0.046446
  25 C :   -0.133544
  26 H :    0.035266
  27 H :    0.036646
  28 C :   -0.008662
  29 H :    0.029032
  30 H :    0.030668
  31 H :    0.021038
  32 H :    0.030900
  33 H :    0.065647
Sum of atomic charges:   -0.0000000

LOEWDIN ATOMIC CHARGES
----------------------
   0 S :    0.421976
   1 C :   -0.194731
   2 C :   -0.063451
   3 C :   -0.058984
   4 C :   -0.201663
   5 H :    0.014510
   6 C :   -0.036828
   7 H :    0.033899
   8 H :    0.031141
   9 C :   -0.040936
  10 H :    0.026655
  11 H :    0.026625
  12 C :   -0.065479
  13 H :    0.018483
  14 H :    0.025560
  15 H :    0.023153
  16 S :    0.431470
  17 C :   -0.213801
  18 C :   -0.070942
  19 C :   -0.050688
  20 C :   -0.190570
  21 H :    0.020068
  22 C :   -0.019281
  23 H :    0.019480
  24 H :    0.041981
  25 C :   -0.046191
  26 H :    0.025193
  27 H :    0.025628
  28 C :   -0.059543
  29 H :    0.023316
  30 H :    0.031085
  31 H :    0.019751
  32 H :    0.019882
  33 H :    0.033231

  Mayer bond orders larger than 0.100000
B(  0-S ,  1-C ) :   1.1556 B(  0-S ,  4-C ) :   1.1666 B(  1-C ,  2-C ) :   1.5814
B(  1-C , 32-H ) :   0.9742 B(  2-C ,  3-C ) :   1.2563 B(  2-C ,  6-C ) :   1.0205
B(  3-C ,  4-C ) :   1.5388 B(  3-C ,  5-H ) :   1.0055 B(  4-C , 20-C ) :   1.0358
B(  6-C ,  7-H ) :   0.9519 B(  6-C ,  8-H ) :   0.9405 B(  6-C ,  9-C ) :   1.0617
B(  9-C , 10-H ) :   0.9569 B(  9-C , 11-H ) :   0.9586 B(  9-C , 12-C ) :   1.0713
B( 12-C , 13-H ) :   0.9768 B( 12-C , 14-H ) :   0.9793 B( 12-C , 15-H ) :   0.9743
B( 16-S , 17-C ) :   1.1897 B( 16-S , 20-C ) :   1.1615 B( 17-C , 18-C ) :   1.5543
B( 17-C , 20-C ) :   0.1092 B( 17-C , 33-H ) :   0.9632 B( 18-C , 19-C ) :   1.3008
B( 18-C , 21-H ) :   0.9865 B( 19-C , 20-C ) :   1.5451 B( 19-C , 22-C ) :   1.0166
B( 22-C , 23-H ) :   0.9434 B( 22-C , 24-H ) :   0.9220 B( 22-C , 25-C ) :   1.0731
B( 25-C , 26-H ) :   0.9456 B( 25-C , 27-H ) :   0.9593 B( 25-C , 28-C ) :   1.0970
B( 28-C , 29-H ) :   0.9735 B( 28-C , 30-H ) :   0.9720 B( 28-C , 31-H ) :   0.9704

Dispersion correction           -0.013704492
FINAL SINGLE POINT ENERGY     -1339.866539841943

DIPOLE MOMENT
-------------
                                X             Y             Z
Electronic contribution:     -2.17139     -31.14764       8.24700
Nuclear contribution   :      2.54198      31.78069      -8.61637
                        -----------------------------------------
Total Dipole Moment    :      0.37059       0.63305      -0.36937
                        -----------------------------------------
Magnitude (a.u.)       :      0.82130
Magnitude (Debye)      :      2.08757

Rotational constants in cm-1:     0.015814     0.009494     0.006328
Rotational constants in MHz :   474.082629   284.626533   189.698121

                             ****ORCA TERMINATED NORMALLY****
TOTAL RUN TIME: 0 days 0 hours 0 minutes 33 seconds 553 msec
