                         Program Version 4.2.1 -  RELEASE  -
|  1> ! wB97X-D3 SP def2-SVP
|  2> %pal
|  3> nprocs 16
|  4> end
|  5>
|  6> * xyz 0 1
|  7> S 	 -32.3441 	 65.7352 	 99.1306
|  8> C 	 -33.808 	 66.6418 	 98.9683
|  9> C 	 -33.5396 	 67.9664 	 98.6446
| 10> C 	 -32.1955 	 68.2015 	 98.4439
| 11> C 	 -31.3672 	 67.1143 	 98.7529
| 12> H 	 -31.6824 	 69.1343 	 98.0549
| 13> C 	 -34.6265 	 68.969 	 98.1959
| 14> H 	 -35.5931 	 68.4345 	 98.1447
| 15> H 	 -34.4687 	 69.2257 	 97.1647
| 16> C 	 -34.7535 	 70.2145 	 99.1454
| 17> H 	 -33.7795 	 70.4609 	 99.6626
| 18> H 	 -34.977 	 71.0693 	 98.5861
| 19> C 	 -35.8466 	 70.1812 	 100.214
| 20> H 	 -36.8621 	 69.8882 	 99.8816
| 21> H 	 -35.5954 	 69.3663 	 100.921
| 22> H 	 -35.8798 	 71.0792 	 100.84
| 23> S 	 -29.1454 	 67.2084 	 97.2242
| 24> C 	 -27.5047 	 66.9363 	 97.9568
| 25> C 	 -27.5311 	 66.8124 	 99.3437
| 26> C 	 -28.9504 	 66.9014 	 99.7788
| 27> C 	 -29.9206 	 67.0494 	 98.7578
| 28> H 	 -26.5931 	 66.6972 	 99.8577
| 29> C 	 -29.2589 	 66.7856 	 101.227
| 30> H 	 -30.343 	 66.553 	 101.482
| 31> H 	 -29.1417 	 67.7627 	 101.618
| 32> C 	 -28.4078 	 65.7993 	 102.133
| 33> H 	 -28.7515 	 66.0009 	 103.16
| 34> H 	 -27.4168 	 66.2032 	 102.172
| 35> C 	 -28.4056 	 64.2669 	 101.73
| 36> H 	 -29.416 	 63.8615 	 101.876
| 37> H 	 -27.7335 	 63.6143 	 102.241
| 38> H 	 -28.0216 	 64.2542 	 100.723
| 39> H 	 -34.7746 	 66.2313 	 99.1675
| 40> H 	 -26.5915 	 66.8615 	 97.4071
| 41> *
| 42>
| 43>                          ****END OF INPUT****

CARTESIAN COORDINATES (ANGSTROEM)
---------------------------------
  S    -32.344100   65.735200   99.130600
  C    -33.808000   66.641800   98.968300
  C    -33.539600   67.966400   98.644600
  C    -32.195500   68.201500   98.443900
  C    -31.367200   67.114300   98.752900
  H    -31.682400   69.134300   98.054900
  C    -34.626500   68.969000   98.195900
  H    -35.593100   68.434500   98.144700
  H    -34.468700   69.225700   97.164700
  C    -34.753500   70.214500   99.145400
  H    -33.779500   70.460900   99.662600
  H    -34.977000   71.069300   98.586100
  C    -35.846600   70.181200  100.214000
  H    -36.862100   69.888200   99.881600
  H    -35.595400   69.366300  100.921000
  H    -35.879800   71.079200  100.840000
  S    -29.145400   67.208400   97.224200
  C    -27.504700   66.936300   97.956800
  C    -27.531100   66.812400   99.343700
  C    -28.950400   66.901400   99.778800
  C    -29.920600   67.049400   98.757800
  H    -26.593100   66.697200   99.857700
  C    -29.258900   66.785600  101.227000
  H    -30.343000   66.553000  101.482000
  H    -29.141700   67.762700  101.618000
  C    -28.407800   65.799300  102.133000
  H    -28.751500   66.000900  103.160000
  H    -27.416800   66.203200  102.172000
  C    -28.405600   64.266900  101.730000
  H    -29.416000   63.861500  101.876000
  H    -27.733500   63.614300  102.241000
  H    -28.021600   64.254200  100.723000
  H    -34.774600   66.231300   99.167500
  H    -26.591500   66.861500   97.407100

 Total Charge           Charge          ....    0
 Multiplicity           Mult            ....    1
 Number of Electrons    NEL             ....  134
 Basis Dimension        Dim             ....  322

ORBITAL ENERGIES
----------------

  NO   OCC          E(Eh)            E(eV)
   0   2.0000     -88.968521     -2420.9565
   1   2.0000     -88.964740     -2420.8537
   2   2.0000     -10.327931      -281.0373
   3   2.0000     -10.326862      -281.0082
   4   2.0000     -10.323109      -280.9061
   5   2.0000     -10.312915      -280.6287
   6   2.0000     -10.312520      -280.6179
   7   2.0000     -10.304163      -280.3905
   8   2.0000     -10.299254      -280.2570
   9   2.0000     -10.296841      -280.1913
  10   2.0000     -10.296144      -280.1723
  11   2.0000     -10.289497      -279.9914
  12   2.0000     -10.288082      -279.9529
  13   2.0000     -10.286582      -279.9121
  14   2.0000     -10.279494      -279.7193
  15   2.0000     -10.276012      -279.6245
  16   2.0000      -8.083506      -219.9634
  17   2.0000      -8.078836      -219.8363
  18   2.0000      -6.041779      -164.4052
  19   2.0000      -6.037830      -164.2977
  20   2.0000      -6.037534      -164.2897
  21   2.0000      -6.034648      -164.2111
  22   2.0000      -6.033399      -164.1771
  23   2.0000      -6.029467      -164.0701
  24   2.0000      -1.007905       -27.4265
  25   2.0000      -0.979340       -26.6492
  26   2.0000      -0.904394       -24.6098
  27   2.0000      -0.896989       -24.4083
  28   2.0000      -0.870378       -23.6842
  29   2.0000      -0.851225       -23.1630
  30   2.0000      -0.836653       -22.7665
  31   2.0000      -0.816450       -22.2167
  32   2.0000      -0.783023       -21.3071
  33   2.0000      -0.768128       -20.9018
  34   2.0000      -0.711396       -19.3581
  35   2.0000      -0.697654       -18.9841
  36   2.0000      -0.689815       -18.7708
  37   2.0000      -0.661037       -17.9877
  38   2.0000      -0.640406       -17.4263
  39   2.0000      -0.618503       -16.8303
  40   2.0000      -0.591296       -16.0900
  41   2.0000      -0.572525       -15.5792
  42   2.0000      -0.551409       -15.0046
  43   2.0000      -0.547849       -14.9077
  44   2.0000      -0.533540       -14.5184
  45   2.0000      -0.527642       -14.3579
  46   2.0000      -0.521793       -14.1987
  47   2.0000      -0.516240       -14.0476
  48   2.0000      -0.503942       -13.7130
  49   2.0000      -0.487668       -13.2701
  50   2.0000      -0.480679       -13.0799
  51   2.0000      -0.476572       -12.9682
  52   2.0000      -0.474334       -12.9073
  53   2.0000      -0.464415       -12.6374
  54   2.0000      -0.457929       -12.4609
  55   2.0000      -0.445476       -12.1220
  56   2.0000      -0.440284       -11.9807
  57   2.0000      -0.436803       -11.8860
  58   2.0000      -0.434331       -11.8188
  59   2.0000      -0.429058       -11.6753
  60   2.0000      -0.415806       -11.3147
  61   2.0000      -0.409398       -11.1403
  62   2.0000      -0.407127       -11.0785
  63   2.0000      -0.341014        -9.2795
  64   2.0000      -0.337107        -9.1731
  65   2.0000      -0.320939        -8.7332
  66   2.0000      -0.296364        -8.0645
  67   0.0000       0.037348         1.0163
  68   0.0000       0.059428         1.6171
  69   0.0000       0.109671         2.9843
  70   0.0000       0.116706         3.1757
  71   0.0000       0.126435         3.4405

MULLIKEN ATOMIC CHARGES
-----------------------
   0 S :    0.136218
   1 C :   -0.123251
   2 C :   -0.064751
   3 C :    0.019812
   4 C :   -0.187602
   5 H :    0.037520
   6 C :    0.058505
   7 H :    0.016109
   8 H :    0.037335
   9 C :   -0.054692
  10 H :    0.039630
  11 H :    0.014216
  12 C :   -0.073104
  13 H :    0.031676
  14 H :    0.022632
  15 H :    0.040914
  16 S :    0.100343
  17 C :   -0.090988
  18 C :   -0.029952
  19 C :   -0.022615
  20 C :   -0.149947
  21 H :    0.031370
  22 C :    0.028769
  23 H :    0.032449
  24 H :    0.029649
  25 C :   -0.086827
  26 H :    0.025123
  27 H :    0.012606
  28 C :   -0.025635
  29 H :    0.042096
  30 H :    0.026021
  31 H :    0.033861
  32 H :    0.043370
  33 H :    0.049142
Sum of atomic charges:   -0.0000000

LOEWDIN ATOMIC CHARGES
----------------------
   0 S :    0.439875
   1 C :   -0.199689
   2 C :   -0.071119
   3 C :   -0.067911
   4 C :   -0.211427
   5 H :    0.043782
   6 C :   -0.023057
   7 H :    0.030461
   8 H :    0.032272
   9 C :   -0.043384
  10 H :    0.033248
  11 H :    0.014369
  12 C :   -0.073134
  13 H :    0.023876
  14 H :    0.024886
  15 H :    0.028610
  16 S :    0.391238
  17 C :   -0.157907
  18 C :   -0.067076
  19 C :   -0.048534
  20 C :   -0.218459
  21 H :    0.036752
  22 C :   -0.043039
  23 H :    0.032787
  24 H :    0.032464
  25 C :   -0.039692
  26 H :    0.024986
  27 H :    0.012392
  28 C :   -0.063830
  29 H :    0.030260
  30 H :    0.022371
  31 H :    0.027039
  32 H :    0.023492
  33 H :    0.023100

  Mayer bond orders larger than 0.100000
B(  0-S ,  1-C ) :   1.1689 B(  0-S ,  4-C ) :   1.1784 B(  1-C ,  2-C ) :   1.5611
B(  1-C ,  4-C ) :   0.1130 B(  1-C , 32-H ) :   0.9718 B(  2-C ,  3-C ) :   1.2889
B(  2-C ,  6-C ) :   1.0174 B(  3-C ,  4-C ) :   1.5433 B(  3-C ,  5-H ) :   0.9829
B(  4-C , 20-C ) :   1.0211 B(  6-C ,  7-H ) :   0.9513 B(  6-C ,  8-H ) :   0.9518
B(  6-C ,  9-C ) :   1.0338 B(  9-C , 10-H ) :   0.9622 B(  9-C , 11-H ) :   0.9577
B(  9-C , 12-C ) :   1.0843 B( 12-C , 13-H ) :   0.9751 B( 12-C , 14-H ) :   0.9749
B( 12-C , 15-H ) :   0.9745 B( 16-S , 17-C ) :   1.1447 B( 16-S , 20-C ) :   1.1266
B( 17-C , 18-C ) :   1.6455 B( 17-C , 33-H ) :   0.9663 B( 18-C , 19-C ) :   1.1843
B( 18-C , 21-H ) :   0.9915 B( 19-C , 20-C ) :   1.6120 B( 19-C , 22-C ) :   1.0510
B( 22-C , 23-H ) :   0.9404 B( 22-C , 24-H ) :   0.9244 B( 22-C , 25-C ) :   1.0745
B( 25-C , 26-H ) :   0.9568 B( 25-C , 27-H ) :   0.9515 B( 25-C , 28-C ) :   1.0613
B( 28-C , 29-H ) :   0.9781 B( 28-C , 30-H ) :   0.9767 B( 28-C , 31-H ) :   0.9733

Dispersion correction           -0.014280877
FINAL SINGLE POINT ENERGY     -1339.867692361152

DIPOLE MOMENT
-------------
                                X             Y             Z
Electronic contribution:      7.80253      -6.67516     -15.69007
Nuclear contribution   :     -7.78137       6.90474      15.95040
                        -----------------------------------------
Total Dipole Moment    :      0.02116       0.22958       0.26033
                        -----------------------------------------
Magnitude (a.u.)       :      0.34775
Magnitude (Debye)      :      0.88390

Rotational constants in cm-1:     0.021932     0.007325     0.006540
Rotational constants in MHz :   657.491320   219.610524   196.060282

                             ****ORCA TERMINATED NORMALLY****
TOTAL RUN TIME: 0 days 0 hours 0 minutes 28 seconds 907 msec
