                         Program Version 4.2.1 -  RELEASE  -
|  1> ! wB97X-D3 SP def2-SVP
|  2> %pal
|  3> nprocs 16
|  4> end
|  5>
|  6> * xyz 0 1
|  7> S 	 -108.842 	 41.3247 	 133.587
|  8> C 	 -108.799 	 41.3744 	 135.356
|  9> C 	 -109.814 	 42.1689 	 135.862
| 10> C 	 -110.565 	 42.8051 	 134.835
| 11> C 	 -110.187 	 42.4422 	 133.511
| 12> H 	 -111.345 	 43.5495 	 134.935
| 13> C 	 -109.997 	 42.5969 	 137.331
| 14> H 	 -110.03 	 41.6948 	 137.942
| 15> H 	 -110.907 	 43.0847 	 137.647
| 16> C 	 -108.807 	 43.3597 	 137.94
| 17> H 	 -109.099 	 43.3109 	 138.99
| 18> H 	 -107.957 	 42.7185 	 137.774
| 19> C 	 -108.6 	 44.7639 	 137.564
| 20> H 	 -107.583 	 45.1521 	 137.885
| 21> H 	 -108.692 	 44.96 	 136.49
| 22> H 	 -109.28 	 45.4634 	 138.108
| 23> S 	 -109.706 	 43.6845 	 131.102
| 24> C 	 -111.091 	 44.2377 	 130.158
| 25> C 	 -112.259 	 43.6824 	 130.602
| 26> C 	 -112.119 	 42.9412 	 131.847
| 27> C 	 -110.782 	 42.9904 	 132.285
| 28> H 	 -113.149 	 43.8571 	 130.04
| 29> C 	 -113.268 	 42.2373 	 132.595
| 30> H 	 -112.815 	 41.8138 	 133.485
| 31> H 	 -113.646 	 41.4823 	 131.956
| 32> C 	 -114.513 	 43.0389 	 133.103
| 33> H 	 -114.927 	 43.5973 	 132.225
| 34> H 	 -114.184 	 43.8035 	 133.902
| 35> C 	 -115.599 	 42.075 	 133.628
| 36> H 	 -116.53 	 42.6262 	 133.872
| 37> H 	 -115.302 	 41.4876 	 134.413
| 38> H 	 -115.894 	 41.4703 	 132.777
| 39> H 	 -107.982 	 41.0062 	 135.975
| 40> H 	 -110.985 	 44.8291 	 129.282
| 41> *
| 42>
| 43>                          ****END OF INPUT****

CARTESIAN COORDINATES (ANGSTROEM)
---------------------------------
  S    -108.842000   41.324700  133.587000
  C    -108.799000   41.374400  135.356000
  C    -109.814000   42.168900  135.862000
  C    -110.565000   42.805100  134.835000
  C    -110.187000   42.442200  133.511000
  H    -111.345000   43.549500  134.935000
  C    -109.997000   42.596900  137.331000
  H    -110.030000   41.694800  137.942000
  H    -110.907000   43.084700  137.647000
  C    -108.807000   43.359700  137.940000
  H    -109.099000   43.310900  138.990000
  H    -107.957000   42.718500  137.774000
  C    -108.600000   44.763900  137.564000
  H    -107.583000   45.152100  137.885000
  H    -108.692000   44.960000  136.490000
  H    -109.280000   45.463400  138.108000
  S    -109.706000   43.684500  131.102000
  C    -111.091000   44.237700  130.158000
  C    -112.259000   43.682400  130.602000
  C    -112.119000   42.941200  131.847000
  C    -110.782000   42.990400  132.285000
  H    -113.149000   43.857100  130.040000
  C    -113.268000   42.237300  132.595000
  H    -112.815000   41.813800  133.485000
  H    -113.646000   41.482300  131.956000
  C    -114.513000   43.038900  133.103000
  H    -114.927000   43.597300  132.225000
  H    -114.184000   43.803500  133.902000
  C    -115.599000   42.075000  133.628000
  H    -116.530000   42.626200  133.872000
  H    -115.302000   41.487600  134.413000
  H    -115.894000   41.470300  132.777000
  H    -107.982000   41.006200  135.975000
  H    -110.985000   44.829100  129.282000

 Total Charge           Charge          ....    0
 Multiplicity           Mult            ....    1
 Number of Electrons    NEL             ....  134
 Basis Dimension        Dim             ....  322

ORBITAL ENERGIES
----------------

  NO   OCC          E(Eh)            E(eV)
   0   2.0000     -88.970019     -2420.9973
   1   2.0000     -88.965323     -2420.8695
   2   2.0000     -10.332481      -281.1611
   3   2.0000     -10.329540      -281.0811
   4   2.0000     -10.317082      -280.7421
   5   2.0000     -10.316483      -280.7258
   6   2.0000     -10.311383      -280.5870
   7   2.0000     -10.304470      -280.3989
   8   2.0000     -10.298456      -280.2352
   9   2.0000     -10.295675      -280.1596
  10   2.0000     -10.295163      -280.1456
  11   2.0000     -10.291387      -280.0429
  12   2.0000     -10.289721      -279.9975
  13   2.0000     -10.281309      -279.7686
  14   2.0000     -10.278400      -279.6895
  15   2.0000     -10.275723      -279.6166
  16   2.0000      -8.083937      -219.9751
  17   2.0000      -8.080212      -219.8737
  18   2.0000      -6.042493      -164.4246
  19   2.0000      -6.038692      -164.3212
  20   2.0000      -6.038433      -164.3141
  21   2.0000      -6.034840      -164.2164
  22   2.0000      -6.034834      -164.2162
  23   2.0000      -6.030852      -164.1078
  24   2.0000      -1.001796       -27.2602
  25   2.0000      -0.980000       -26.6672
  26   2.0000      -0.914465       -24.8838
  27   2.0000      -0.903268       -24.5792
  28   2.0000      -0.868528       -23.6339
  29   2.0000      -0.850129       -23.1332
  30   2.0000      -0.844492       -22.9798
  31   2.0000      -0.812512       -22.1096
  32   2.0000      -0.786192       -21.3934
  33   2.0000      -0.773273       -21.0418
  34   2.0000      -0.703321       -19.1383
  35   2.0000      -0.696121       -18.9424
  36   2.0000      -0.690247       -18.7826
  37   2.0000      -0.659212       -17.9381
  38   2.0000      -0.638214       -17.3667
  39   2.0000      -0.611288       -16.6340
  40   2.0000      -0.595624       -16.2078
  41   2.0000      -0.581561       -15.8251
  42   2.0000      -0.571096       -15.5403
  43   2.0000      -0.544700       -14.8220
  44   2.0000      -0.540190       -14.6993
  45   2.0000      -0.525858       -14.3093
  46   2.0000      -0.511557       -13.9202
  47   2.0000      -0.510867       -13.9014
  48   2.0000      -0.505581       -13.7576
  49   2.0000      -0.498715       -13.5707
  50   2.0000      -0.485182       -13.2025
  51   2.0000      -0.482632       -13.1331
  52   2.0000      -0.476542       -12.9674
  53   2.0000      -0.467690       -12.7265
  54   2.0000      -0.459757       -12.5106
  55   2.0000      -0.451239       -12.2788
  56   2.0000      -0.439052       -11.9472
  57   2.0000      -0.434072       -11.8117
  58   2.0000      -0.427758       -11.6399
  59   2.0000      -0.423402       -11.5214
  60   2.0000      -0.421530       -11.4704
  61   2.0000      -0.418465       -11.3870
  62   2.0000      -0.409688       -11.1482
  63   2.0000      -0.343154        -9.3377
  64   2.0000      -0.332572        -9.0497
  65   2.0000      -0.327958        -8.9242
  66   2.0000      -0.293014        -7.9733
  67   0.0000       0.027851         0.7579
  68   0.0000       0.066145         1.7999
  69   0.0000       0.108669         2.9570
  70   0.0000       0.123339         3.3562
  71   0.0000       0.128914         3.5079

MULLIKEN ATOMIC CHARGES
-----------------------
   0 S :    0.119006
   1 C :   -0.142310
   2 C :   -0.045379
   3 C :    0.021685
   4 C :   -0.169986
   5 H :    0.011438
   6 C :    0.056725
   7 H :    0.020689
   8 H :    0.015599
   9 C :   -0.066540
  10 H :    0.024771
  11 H :    0.019367
  12 C :   -0.051413
  13 H :    0.035473
  14 H :    0.043473
  15 H :    0.027258
  16 S :    0.105750
  17 C :   -0.084428
  18 C :   -0.019947
  19 C :   -0.010158
  20 C :   -0.176506
  21 H :    0.012658
  22 C :    0.074136
  23 H :    0.027978
  24 H :    0.021602
  25 C :   -0.121469
  26 H :    0.031934
  27 H :    0.044368
  28 C :   -0.017056
  29 H :    0.038091
  30 H :    0.025071
  31 H :    0.023155
  32 H :    0.057104
  33 H :    0.047861
Sum of atomic charges:   -0.0000000

LOEWDIN ATOMIC CHARGES
----------------------
   0 S :    0.405517
   1 C :   -0.199860
   2 C :   -0.062761
   3 C :   -0.064117
   4 C :   -0.199053
   5 H :    0.029318
   6 C :   -0.030708
   7 H :    0.033585
   8 H :    0.026294
   9 C :   -0.043593
  10 H :    0.027991
  11 H :    0.018972
  12 C :   -0.075096
  13 H :    0.034004
  14 H :    0.027910
  15 H :    0.028163
  16 S :    0.398772
  17 C :   -0.170420
  18 C :   -0.065796
  19 C :   -0.046032
  20 C :   -0.203295
  21 H :    0.028389
  22 C :   -0.031824
  23 H :    0.030408
  24 H :    0.026941
  25 C :   -0.042991
  26 H :    0.023075
  27 H :    0.027959
  28 C :   -0.058346
  29 H :    0.033021
  30 H :    0.013023
  31 H :    0.026475
  32 H :    0.030980
  33 H :    0.023096

  Mayer bond orders larger than 0.100000
B(  0-S ,  1-C ) :   1.1399 B(  0-S ,  4-C ) :   1.1626 B(  1-C ,  2-C ) :   1.5913
B(  1-C ,  4-C ) :   0.1028 B(  1-C , 32-H ) :   0.9648 B(  2-C ,  3-C ) :   1.2581
B(  2-C ,  6-C ) :   1.0163 B(  3-C ,  4-C ) :   1.5373 B(  3-C ,  5-H ) :   0.9979
B(  4-C , 20-C ) :   1.0471 B(  6-C ,  7-H ) :   0.9330 B(  6-C ,  8-H ) :   0.9524
B(  6-C ,  9-C ) :   1.0787 B(  9-C , 10-H ) :   0.9526 B(  9-C , 11-H ) :   0.9561
B(  9-C , 12-C ) :   1.0873 B( 12-C , 13-H ) :   0.9695 B( 12-C , 14-H ) :   0.9752
B( 12-C , 15-H ) :   0.9712 B( 16-S , 17-C ) :   1.1409 B( 16-S , 20-C ) :   1.1434
B( 17-C , 18-C ) :   1.6320 B( 17-C , 33-H ) :   0.9731 B( 18-C , 19-C ) :   1.2058
B( 18-C , 21-H ) :   0.9957 B( 19-C , 20-C ) :   1.5911 B( 19-C , 22-C ) :   1.0423
B( 22-C , 23-H ) :   0.9293 B( 22-C , 24-H ) :   0.9329 B( 22-C , 25-C ) :   1.0607
B( 25-C , 26-H ) :   0.9563 B( 25-C , 27-H ) :   0.9558 B( 25-C , 28-C ) :   1.0759
B( 28-C , 29-H ) :   0.9725 B( 28-C , 30-H ) :   0.9792 B( 28-C , 31-H ) :   0.9722

Dispersion correction           -0.013939754
FINAL SINGLE POINT ENERGY     -1339.877873009720

DIPOLE MOMENT
-------------
                                X             Y             Z
Electronic contribution:     15.81785      -4.69459     -20.08430
Nuclear contribution   :    -16.31272       4.86168      20.39571
                        -----------------------------------------
Total Dipole Moment    :     -0.49487       0.16709       0.31142
                        -----------------------------------------
Magnitude (a.u.)       :      0.60811
Magnitude (Debye)      :      1.54568

Rotational constants in cm-1:     0.016673     0.008613     0.006829
Rotational constants in MHz :   499.833010   258.219734   204.733326

                             ****ORCA TERMINATED NORMALLY****
TOTAL RUN TIME: 0 days 0 hours 0 minutes 33 seconds 32 msec
