                         Program Version 4.2.1 -  RELEASE  -
|  1> ! wB97X-D3 SP def2-SVP
|  2> %pal
|  3> nprocs 16
|  4> end
|  5>
|  6> * xyz 0 1
|  7> S 	 -15.4454 	 31.9821 	 38.1934
|  8> C 	 -15.8195 	 33.163 	 39.4135
|  9> C 	 -15.2521 	 34.3716 	 39.1158
| 10> C 	 -14.7855 	 34.4559 	 37.7531
| 11> C 	 -14.7593 	 33.1935 	 37.1152
| 12> H 	 -14.2677 	 35.3275 	 37.3777
| 13> C 	 -15.3324 	 35.6022 	 39.9499
| 14> H 	 -14.3443 	 36.0583 	 39.8099
| 15> H 	 -15.4546 	 35.3635 	 40.9869
| 16> C 	 -16.4816 	 36.5721 	 39.6445
| 17> H 	 -17.379 	 35.9717 	 39.6833
| 18> H 	 -16.4519 	 37.335 	 40.4697
| 19> C 	 -16.322 	 37.2656 	 38.3005
| 20> H 	 -16.3182 	 36.5661 	 37.4687
| 21> H 	 -17.2826 	 37.8325 	 38.1591
| 22> H 	 -15.488 	 38.0208 	 38.1698
| 23> S 	 -12.9451 	 31.5992 	 35.7439
| 24> C 	 -12.7744 	 31.6698 	 33.9576
| 25> C 	 -13.6211 	 32.6685 	 33.524
| 26> C 	 -14.424 	 33.2827 	 34.5281
| 27> C 	 -14.1991 	 32.852 	 35.8049
| 28> H 	 -13.6429 	 32.7726 	 32.4225
| 29> C 	 -15.4278 	 34.3449 	 34.1763
| 30> H 	 -16.1163 	 34.4307 	 35.0376
| 31> H 	 -15.9773 	 33.8702 	 33.3557
| 32> C 	 -14.8754 	 35.7554 	 33.7704
| 33> H 	 -14.3096 	 35.5186 	 32.8779
| 34> H 	 -14.1875 	 36.0683 	 34.6173
| 35> C 	 -15.8528 	 36.8488 	 33.3865
| 36> H 	 -16.5676 	 37.1019 	 34.1571
| 37> H 	 -16.439 	 36.5325 	 32.5171
| 38> H 	 -15.3018 	 37.7967 	 33.2138
| 39> H 	 -16.2485 	 32.9054 	 40.3973
| 40> H 	 -12.0886 	 31.1502 	 33.3812
| 41> *
| 42>
| 43>                          ****END OF INPUT****

CARTESIAN COORDINATES (ANGSTROEM)
---------------------------------
  S    -15.445400   31.982100   38.193400
  C    -15.819500   33.163000   39.413500
  C    -15.252100   34.371600   39.115800
  C    -14.785500   34.455900   37.753100
  C    -14.759300   33.193500   37.115200
  H    -14.267700   35.327500   37.377700
  C    -15.332400   35.602200   39.949900
  H    -14.344300   36.058300   39.809900
  H    -15.454600   35.363500   40.986900
  C    -16.481600   36.572100   39.644500
  H    -17.379000   35.971700   39.683300
  H    -16.451900   37.335000   40.469700
  C    -16.322000   37.265600   38.300500
  H    -16.318200   36.566100   37.468700
  H    -17.282600   37.832500   38.159100
  H    -15.488000   38.020800   38.169800
  S    -12.945100   31.599200   35.743900
  C    -12.774400   31.669800   33.957600
  C    -13.621100   32.668500   33.524000
  C    -14.424000   33.282700   34.528100
  C    -14.199100   32.852000   35.804900
  H    -13.642900   32.772600   32.422500
  C    -15.427800   34.344900   34.176300
  H    -16.116300   34.430700   35.037600
  H    -15.977300   33.870200   33.355700
  C    -14.875400   35.755400   33.770400
  H    -14.309600   35.518600   32.877900
  H    -14.187500   36.068300   34.617300
  C    -15.852800   36.848800   33.386500
  H    -16.567600   37.101900   34.157100
  H    -16.439000   36.532500   32.517100
  H    -15.301800   37.796700   33.213800
  H    -16.248500   32.905400   40.397300
  H    -12.088600   31.150200   33.381200

 Total Charge           Charge          ....    0
 Multiplicity           Mult            ....    1
 Number of Electrons    NEL             ....  134
 Basis Dimension        Dim             ....  322

ORBITAL ENERGIES
----------------

  NO   OCC          E(Eh)            E(eV)
   0   2.0000     -88.968436     -2420.9542
   1   2.0000     -88.959749     -2420.7178
   2   2.0000     -10.338691      -281.3301
   3   2.0000     -10.329623      -281.0833
   4   2.0000     -10.318693      -280.7859
   5   2.0000     -10.316216      -280.7185
   6   2.0000     -10.301685      -280.3231
   7   2.0000     -10.300613      -280.2939
   8   2.0000     -10.298907      -280.2475
   9   2.0000     -10.297018      -280.1961
  10   2.0000     -10.292063      -280.0613
  11   2.0000     -10.291478      -280.0454
  12   2.0000     -10.289166      -279.9824
  13   2.0000     -10.286014      -279.8967
  14   2.0000     -10.284094      -279.8444
  15   2.0000     -10.280522      -279.7472
  16   2.0000      -8.083111      -219.9526
  17   2.0000      -8.073762      -219.6982
  18   2.0000      -6.041664      -164.4020
  19   2.0000      -6.037526      -164.2894
  20   2.0000      -6.033902      -164.1908
  21   2.0000      -6.032426      -164.1506
  22   2.0000      -6.028264      -164.0374
  23   2.0000      -6.024486      -163.9346
  24   2.0000      -1.004859       -27.3436
  25   2.0000      -0.984186       -26.7811
  26   2.0000      -0.916545       -24.9405
  27   2.0000      -0.902945       -24.5704
  28   2.0000      -0.871361       -23.7109
  29   2.0000      -0.850170       -23.1343
  30   2.0000      -0.844147       -22.9704
  31   2.0000      -0.818151       -22.2630
  32   2.0000      -0.782028       -21.2801
  33   2.0000      -0.771672       -20.9983
  34   2.0000      -0.707849       -19.2615
  35   2.0000      -0.699990       -19.0477
  36   2.0000      -0.694676       -18.9031
  37   2.0000      -0.663140       -18.0450
  38   2.0000      -0.640415       -17.4266
  39   2.0000      -0.617276       -16.7969
  40   2.0000      -0.589849       -16.0506
  41   2.0000      -0.576237       -15.6802
  42   2.0000      -0.566139       -15.4054
  43   2.0000      -0.547877       -14.9085
  44   2.0000      -0.540557       -14.7093
  45   2.0000      -0.526128       -14.3167
  46   2.0000      -0.520599       -14.1662
  47   2.0000      -0.516180       -14.0460
  48   2.0000      -0.511976       -13.9316
  49   2.0000      -0.496735       -13.5168
  50   2.0000      -0.488859       -13.3025
  51   2.0000      -0.486013       -13.2251
  52   2.0000      -0.474195       -12.9035
  53   2.0000      -0.466443       -12.6926
  54   2.0000      -0.458628       -12.4799
  55   2.0000      -0.446766       -12.1571
  56   2.0000      -0.442365       -12.0374
  57   2.0000      -0.432883       -11.7794
  58   2.0000      -0.427007       -11.6194
  59   2.0000      -0.420425       -11.4403
  60   2.0000      -0.418690       -11.3931
  61   2.0000      -0.415906       -11.3174
  62   2.0000      -0.408510       -11.1161
  63   2.0000      -0.347546        -9.4572
  64   2.0000      -0.330915        -9.0047
  65   2.0000      -0.326207        -8.8765
  66   2.0000      -0.298211        -8.1147
  67   0.0000       0.029051         0.7905
  68   0.0000       0.064387         1.7521
  69   0.0000       0.108609         2.9554
  70   0.0000       0.123112         3.3500
  71   0.0000       0.125702         3.4205

MULLIKEN ATOMIC CHARGES
-----------------------
   0 S :    0.123139
   1 C :   -0.128391
   2 C :   -0.104018
   3 C :    0.029769
   4 C :   -0.156877
   5 H :    0.023069
   6 C :    0.060032
   7 H :    0.025292
   8 H :    0.011448
   9 C :   -0.041911
  10 H :    0.028251
  11 H :    0.040776
  12 C :   -0.093224
  13 H :    0.039879
  14 H :    0.034526
  15 H :    0.045323
  16 S :    0.073701
  17 C :   -0.072787
  18 C :   -0.049471
  19 C :   -0.026217
  20 C :   -0.139499
  21 H :    0.032766
  22 C :    0.045794
  23 H :    0.027300
  24 H :    0.024137
  25 C :   -0.084271
  26 H :    0.024229
  27 H :    0.037942
  28 C :   -0.030540
  29 H :    0.025898
  30 H :    0.032838
  31 H :    0.043135
  32 H :    0.061163
  33 H :    0.036796
Sum of atomic charges:   -0.0000000

LOEWDIN ATOMIC CHARGES
----------------------
   0 S :    0.415100
   1 C :   -0.203795
   2 C :   -0.067491
   3 C :   -0.058117
   4 C :   -0.191210
   5 H :    0.031018
   6 C :   -0.037400
   7 H :    0.031789
   8 H :    0.025231
   9 C :   -0.033562
  10 H :    0.026339
  11 H :    0.031388
  12 C :   -0.079526
  13 H :    0.022648
  14 H :    0.032377
  15 H :    0.031227
  16 S :    0.369630
  17 C :   -0.155219
  18 C :   -0.075585
  19 C :   -0.063783
  20 C :   -0.188718
  21 H :    0.037886
  22 C :   -0.036445
  23 H :    0.027922
  24 H :    0.030188
  25 C :   -0.043668
  26 H :    0.022556
  27 H :    0.028776
  28 C :   -0.067860
  29 H :    0.021713
  30 H :    0.027936
  31 H :    0.034653
  32 H :    0.035566
  33 H :    0.018433

  Mayer bond orders larger than 0.100000
B(  0-S ,  1-C ) :   1.1392 B(  0-S ,  4-C ) :   1.1634 B(  1-C ,  2-C ) :   1.6069
B(  1-C , 32-H ) :   0.9626 B(  2-C ,  3-C ) :   1.2455 B(  2-C ,  6-C ) :   1.0450
B(  3-C ,  4-C ) :   1.5481 B(  3-C ,  5-H ) :   0.9838 B(  4-C , 20-C ) :   1.0358
B(  6-C ,  7-H ) :   0.9330 B(  6-C ,  8-H ) :   0.9386 B(  6-C ,  9-C ) :   1.0683
B(  9-C , 10-H ) :   0.9493 B(  9-C , 11-H ) :   0.9539 B(  9-C , 12-C ) :   1.0904
B( 12-C , 13-H ) :   0.9658 B( 12-C , 14-H ) :   0.9698 B( 12-C , 15-H ) :   0.9739
B( 16-S , 17-C ) :   1.1407 B( 16-S , 20-C ) :   1.1223 B( 17-C , 18-C ) :   1.6250
B( 17-C , 33-H ) :   0.9780 B( 18-C , 19-C ) :   1.2136 B( 18-C , 21-H ) :   0.9855
B( 19-C , 20-C ) :   1.6212 B( 19-C , 22-C ) :   1.0496 B( 22-C , 23-H ) :   0.9315
B( 22-C , 24-H ) :   0.9311 B( 22-C , 25-C ) :   1.0560 B( 25-C , 26-H ) :   0.9537
B( 25-C , 27-H ) :   0.9545 B( 25-C , 28-C ) :   1.0906 B( 28-C , 29-H ) :   0.9743
B( 28-C , 30-H ) :   0.9713 B( 28-C , 31-H ) :   0.9712

Dispersion correction           -0.014855245
FINAL SINGLE POINT ENERGY     -1339.885734441383

DIPOLE MOMENT
-------------
                                X             Y             Z
Electronic contribution:     10.25937     -29.05497       4.02575
Nuclear contribution   :    -10.41963      29.68207      -4.11683
                        -----------------------------------------
Total Dipole Moment    :     -0.16027       0.62710      -0.09109
                        -----------------------------------------
Magnitude (a.u.)       :      0.65364
Magnitude (Debye)      :      1.66141

Rotational constants in cm-1:     0.016604     0.010356     0.006876
Rotational constants in MHz :   497.764946   310.473702   206.143735

                             ****ORCA TERMINATED NORMALLY****
TOTAL RUN TIME: 0 days 0 hours 0 minutes 35 seconds 365 msec
