                         Program Version 4.2.1 -  RELEASE  -
|  1> ! wB97X-D3 SP def2-SVP
|  2> %pal
|  3> nprocs 16
|  4> end
|  5>
|  6> * xyz 0 1
|  7> S 	 -39.3044 	 31.3709 	 78.3033
|  8> C 	 -39.1262 	 32.5724 	 77.0405
|  9> C 	 -40.0357 	 33.5802 	 77.2365
| 10> C 	 -41.0505 	 33.2272 	 78.2059
| 11> C 	 -40.7301 	 32.0988 	 78.9634
| 12> H 	 -41.8695 	 33.8403 	 78.5798
| 13> C 	 -40.0572 	 34.7843 	 76.3245
| 14> H 	 -41.0414 	 35.0654 	 76.324
| 15> H 	 -39.8577 	 34.374 	 75.3591
| 16> C 	 -39.1746 	 35.9511 	 76.8726
| 17> H 	 -39.497 	 36.9442 	 76.6025
| 18> H 	 -39.0409 	 35.8448 	 77.9389
| 19> C 	 -37.7163 	 35.8804 	 76.3173
| 20> H 	 -37.7668 	 36.0724 	 75.2235
| 21> H 	 -36.9326 	 36.6008 	 76.7654
| 22> H 	 -37.2486 	 34.947 	 76.4681
| 23> S 	 -42.1633 	 32.7307 	 81.2066
| 24> C 	 -42.9452 	 31.4763 	 82.1165
| 25> C 	 -42.6456 	 30.2456 	 81.5411
| 26> C 	 -41.8498 	 30.3103 	 80.3829
| 27> C 	 -41.4766 	 31.6018 	 80.0712
| 28> H 	 -43.0855 	 29.3518 	 82.0125
| 29> C 	 -41.497 	 29.0817 	 79.6544
| 30> H 	 -40.5787 	 28.7745 	 80.2526
| 31> H 	 -41.0798 	 29.3426 	 78.6877
| 32> C 	 -42.4747 	 27.8135 	 79.6219
| 33> H 	 -43.3677 	 28.2644 	 79.3141
| 34> H 	 -42.4981 	 27.4144 	 80.6874
| 35> C 	 -42.072 	 26.7698 	 78.6341
| 36> H 	 -41.149 	 26.2775 	 78.9188
| 37> H 	 -42.1077 	 27.1069 	 77.582
| 38> H 	 -42.7777 	 25.9455 	 78.6391
| 39> H 	 -38.3905 	 32.6622 	 76.3431
| 40> H 	 -43.6624 	 31.5476 	 82.8829
| 41> *
| 42>
| 43>                          ****END OF INPUT****

CARTESIAN COORDINATES (ANGSTROEM)
---------------------------------
  S    -39.304400   31.370900   78.303300
  C    -39.126200   32.572400   77.040500
  C    -40.035700   33.580200   77.236500
  C    -41.050500   33.227200   78.205900
  C    -40.730100   32.098800   78.963400
  H    -41.869500   33.840300   78.579800
  C    -40.057200   34.784300   76.324500
  H    -41.041400   35.065400   76.324000
  H    -39.857700   34.374000   75.359100
  C    -39.174600   35.951100   76.872600
  H    -39.497000   36.944200   76.602500
  H    -39.040900   35.844800   77.938900
  C    -37.716300   35.880400   76.317300
  H    -37.766800   36.072400   75.223500
  H    -36.932600   36.600800   76.765400
  H    -37.248600   34.947000   76.468100
  S    -42.163300   32.730700   81.206600
  C    -42.945200   31.476300   82.116500
  C    -42.645600   30.245600   81.541100
  C    -41.849800   30.310300   80.382900
  C    -41.476600   31.601800   80.071200
  H    -43.085500   29.351800   82.012500
  C    -41.497000   29.081700   79.654400
  H    -40.578700   28.774500   80.252600
  H    -41.079800   29.342600   78.687700
  C    -42.474700   27.813500   79.621900
  H    -43.367700   28.264400   79.314100
  H    -42.498100   27.414400   80.687400
  C    -42.072000   26.769800   78.634100
  H    -41.149000   26.277500   78.918800
  H    -42.107700   27.106900   77.582000
  H    -42.777700   25.945500   78.639100
  H    -38.390500   32.662200   76.343100
  H    -43.662400   31.547600   82.882900

 Total Charge           Charge          ....    0
 Multiplicity           Mult            ....    1
 Number of Electrons    NEL             ....  134
 Basis Dimension        Dim             ....  322

ORBITAL ENERGIES
----------------

  NO   OCC          E(Eh)            E(eV)
   0   2.0000     -88.967585     -2420.9311
   1   2.0000     -88.965908     -2420.8854
   2   2.0000     -10.327758      -281.0326
   3   2.0000     -10.321357      -280.8584
   4   2.0000     -10.314425      -280.6698
   5   2.0000     -10.304202      -280.3916
   6   2.0000     -10.299300      -280.2582
   7   2.0000     -10.298940      -280.2484
   8   2.0000     -10.293133      -280.0904
   9   2.0000     -10.292520      -280.0737
  10   2.0000     -10.291524      -280.0466
  11   2.0000     -10.290273      -280.0126
  12   2.0000     -10.289425      -279.9895
  13   2.0000     -10.284428      -279.8535
  14   2.0000     -10.280723      -279.7527
  15   2.0000     -10.278071      -279.6805
  16   2.0000      -8.082254      -219.9293
  17   2.0000      -8.080362      -219.8778
  18   2.0000      -6.040747      -164.3771
  19   2.0000      -6.038891      -164.3266
  20   2.0000      -6.036700      -164.2670
  21   2.0000      -6.034766      -164.2143
  22   2.0000      -6.033110      -164.1693
  23   2.0000      -6.031254      -164.1188
  24   2.0000      -1.011955       -27.5367
  25   2.0000      -0.987573       -26.8732
  26   2.0000      -0.912475       -24.8297
  27   2.0000      -0.909011       -24.7354
  28   2.0000      -0.872703       -23.7475
  29   2.0000      -0.860208       -23.4075
  30   2.0000      -0.843310       -22.9476
  31   2.0000      -0.814231       -22.1564
  32   2.0000      -0.783346       -21.3159
  33   2.0000      -0.773626       -21.0514
  34   2.0000      -0.713636       -19.4190
  35   2.0000      -0.706220       -19.2172
  36   2.0000      -0.698721       -19.0132
  37   2.0000      -0.663545       -18.0560
  38   2.0000      -0.636214       -17.3123
  39   2.0000      -0.612145       -16.6573
  40   2.0000      -0.593800       -16.1581
  41   2.0000      -0.577792       -15.7225
  42   2.0000      -0.573632       -15.6093
  43   2.0000      -0.550339       -14.9755
  44   2.0000      -0.541437       -14.7332
  45   2.0000      -0.525837       -14.3087
  46   2.0000      -0.522665       -14.2224
  47   2.0000      -0.515016       -14.0143
  48   2.0000      -0.512701       -13.9513
  49   2.0000      -0.496742       -13.5170
  50   2.0000      -0.487864       -13.2755
  51   2.0000      -0.480123       -13.0648
  52   2.0000      -0.475637       -12.9427
  53   2.0000      -0.469998       -12.7893
  54   2.0000      -0.458588       -12.4788
  55   2.0000      -0.451271       -12.2797
  56   2.0000      -0.442456       -12.0398
  57   2.0000      -0.432379       -11.7656
  58   2.0000      -0.431290       -11.7360
  59   2.0000      -0.423713       -11.5298
  60   2.0000      -0.423141       -11.5143
  61   2.0000      -0.418290       -11.3823
  62   2.0000      -0.407715       -11.0945
  63   2.0000      -0.351056        -9.5527
  64   2.0000      -0.329854        -8.9758
  65   2.0000      -0.326693        -8.8898
  66   2.0000      -0.287392        -7.8203
  67   0.0000       0.024920         0.6781
  68   0.0000       0.081184         2.2091
  69   0.0000       0.115128         3.1328
  70   0.0000       0.123488         3.3603
  71   0.0000       0.131822         3.5871

MULLIKEN ATOMIC CHARGES
-----------------------
   0 S :    0.110461
   1 C :   -0.070200
   2 C :   -0.150367
   3 C :    0.009949
   4 C :   -0.155600
   5 H :    0.018483
   6 C :    0.133352
   7 H :   -0.005040
   8 H :    0.025069
   9 C :   -0.032565
  10 H :    0.034906
  11 H :    0.043161
  12 C :   -0.104031
  13 H :    0.032970
  14 H :    0.044697
  15 H :    0.016085
  16 S :    0.113105
  17 C :   -0.067519
  18 C :   -0.070965
  19 C :   -0.010287
  20 C :   -0.140113
  21 H :    0.026282
  22 C :    0.005654
  23 H :    0.046824
  24 H :    0.016849
  25 C :   -0.056295
  26 H :    0.025797
  27 H :    0.046209
  28 C :   -0.028978
  29 H :    0.030090
  30 H :    0.041988
  31 H :    0.023535
  32 H :    0.007432
  33 H :    0.039061
Sum of atomic charges:    0.0000000

LOEWDIN ATOMIC CHARGES
----------------------
   0 S :    0.420804
   1 C :   -0.189374
   2 C :   -0.053157
   3 C :   -0.075898
   4 C :   -0.193800
   5 H :    0.026370
   6 C :   -0.019225
   7 H :    0.020397
   8 H :    0.030709
   9 C :   -0.028264
  10 H :    0.023214
  11 H :    0.028765
  12 C :   -0.075070
  13 H :    0.023999
  14 H :    0.034448
  15 H :    0.010587
  16 S :    0.424177
  17 C :   -0.184717
  18 C :   -0.074423
  19 C :   -0.058455
  20 C :   -0.208985
  21 H :    0.034258
  22 C :   -0.046308
  23 H :    0.045175
  24 H :    0.015766
  25 C :   -0.033507
  26 H :    0.018128
  27 H :    0.032896
  28 C :   -0.066462
  29 H :    0.026126
  30 H :    0.032970
  31 H :    0.027319
  32 H :    0.007894
  33 H :    0.023642

  Mayer bond orders larger than 0.100000
B(  0-S ,  1-C ) :   1.1290 B(  0-S ,  4-C ) :   1.1511 B(  1-C ,  2-C ) :   1.6080
B(  1-C , 32-H ) :   0.9756 B(  2-C ,  3-C ) :   1.2437 B(  2-C ,  6-C ) :   1.0165
B(  3-C ,  4-C ) :   1.5591 B(  3-C ,  5-H ) :   0.9817 B(  4-C , 20-C ) :   1.0709
B(  6-C ,  7-H ) :   0.9305 B(  6-C ,  8-H ) :   0.9518 B(  6-C ,  9-C ) :   1.0325
B(  9-C , 10-H ) :   0.9628 B(  9-C , 11-H ) :   0.9616 B(  9-C , 12-C ) :   1.0661
B( 12-C , 13-H ) :   0.9797 B( 12-C , 14-H ) :   0.9742 B( 12-C , 15-H ) :   0.9770
B( 16-S , 17-C ) :   1.1632 B( 16-S , 20-C ) :   1.1347 B( 17-C , 18-C ) :   1.5914
B( 17-C , 33-H ) :   0.9713 B( 18-C , 19-C ) :   1.2594 B( 18-C , 21-H ) :   0.9847
B( 19-C , 20-C ) :   1.5422 B( 19-C , 22-C ) :   1.0529 B( 22-C , 23-H ) :   0.9232
B( 22-C , 24-H ) :   0.9260 B( 22-C , 25-C ) :   1.0471 B( 25-C , 26-H ) :   0.9610
B( 25-C , 27-H ) :   0.9444 B( 25-C , 28-C ) :   1.1089 B( 28-C , 29-H ) :   0.9712
B( 28-C , 30-H ) :   0.9699 B( 28-C , 31-H ) :   0.9682

Dispersion correction           -0.013764228
FINAL SINGLE POINT ENERGY     -1339.862360269548

DIPOLE MOMENT
-------------
                                X             Y             Z
Electronic contribution:     -3.41148       2.83985      12.38253
Nuclear contribution   :      3.17537      -3.01287     -12.54136
                        -----------------------------------------
Total Dipole Moment    :     -0.23611      -0.17302      -0.15884
                        -----------------------------------------
Magnitude (a.u.)       :      0.33304
Magnitude (Debye)      :      0.84652

Rotational constants in cm-1:     0.023098     0.007403     0.005961
Rotational constants in MHz :   692.459275   221.940417   178.716548

                             ****ORCA TERMINATED NORMALLY****
TOTAL RUN TIME: 0 days 0 hours 0 minutes 27 seconds 800 msec
