                         Program Version 4.2.1 -  RELEASE  -
|  1> ! wB97X-D3 SP def2-SVP
|  2> %pal
|  3> nprocs 16
|  4> end
|  5>
|  6> * xyz 0 1
|  7> S 	 -40.4715 	 55.5612 	 113.007
|  8> C 	 -41.7566 	 55.7218 	 111.906
|  9> C 	 -41.3072 	 55.6942 	 110.601
| 10> C 	 -39.934 	 55.3435 	 110.477
| 11> C 	 -39.3148 	 55.2686 	 111.722
| 12> H 	 -39.4377 	 55.1838 	 109.561
| 13> C 	 -42.1466 	 55.895 	 109.359
| 14> H 	 -43.1255 	 55.7913 	 109.827
| 15> H 	 -41.9253 	 55.0202 	 108.692
| 16> C 	 -41.9991 	 57.2598 	 108.675
| 17> H 	 -41.0809 	 57.8538 	 108.864
| 18> H 	 -41.8414 	 56.9318 	 107.62
| 19> C 	 -43.1495 	 58.2193 	 108.821
| 20> H 	 -42.9371 	 59.0595 	 108.108
| 21> H 	 -44.0697 	 57.7925 	 108.426
| 22> H 	 -43.2404 	 58.5218 	 109.828
| 23> S 	 -36.9681 	 56.3214 	 112.547
| 24> C 	 -35.5484 	 55.2514 	 112.565
| 25> C 	 -35.7318 	 53.9861 	 111.976
| 26> C 	 -37.1015 	 53.8469 	 111.608
| 27> C 	 -37.907 	 54.9499 	 111.979
| 28> H 	 -34.9014 	 53.309 	 111.945
| 29> C 	 -37.5958 	 52.6522 	 110.896
| 30> H 	 -36.7337 	 52.3548 	 110.345
| 31> H 	 -38.457 	 52.9151 	 110.229
| 32> C 	 -38.0627 	 51.503 	 111.784
| 33> H 	 -38.9444 	 51.7652 	 112.211
| 34> H 	 -37.2552 	 51.3527 	 112.456
| 35> C 	 -38.0852 	 50.1609 	 110.949
| 36> H 	 -38.9981 	 50.1435 	 110.4
| 37> H 	 -38.1833 	 49.3371 	 111.616
| 38> H 	 -37.2974 	 49.9558 	 110.297
| 39> H 	 -42.7326 	 56.1584 	 112.024
| 40> H 	 -34.6098 	 55.655 	 112.858
| 41> *
| 42>
| 43>                          ****END OF INPUT****

CARTESIAN COORDINATES (ANGSTROEM)
---------------------------------
  S    -40.471500   55.561200  113.007000
  C    -41.756600   55.721800  111.906000
  C    -41.307200   55.694200  110.601000
  C    -39.934000   55.343500  110.477000
  C    -39.314800   55.268600  111.722000
  H    -39.437700   55.183800  109.561000
  C    -42.146600   55.895000  109.359000
  H    -43.125500   55.791300  109.827000
  H    -41.925300   55.020200  108.692000
  C    -41.999100   57.259800  108.675000
  H    -41.080900   57.853800  108.864000
  H    -41.841400   56.931800  107.620000
  C    -43.149500   58.219300  108.821000
  H    -42.937100   59.059500  108.108000
  H    -44.069700   57.792500  108.426000
  H    -43.240400   58.521800  109.828000
  S    -36.968100   56.321400  112.547000
  C    -35.548400   55.251400  112.565000
  C    -35.731800   53.986100  111.976000
  C    -37.101500   53.846900  111.608000
  C    -37.907000   54.949900  111.979000
  H    -34.901400   53.309000  111.945000
  C    -37.595800   52.652200  110.896000
  H    -36.733700   52.354800  110.345000
  H    -38.457000   52.915100  110.229000
  C    -38.062700   51.503000  111.784000
  H    -38.944400   51.765200  112.211000
  H    -37.255200   51.352700  112.456000
  C    -38.085200   50.160900  110.949000
  H    -38.998100   50.143500  110.400000
  H    -38.183300   49.337100  111.616000
  H    -37.297400   49.955800  110.297000
  H    -42.732600   56.158400  112.024000
  H    -34.609800   55.655000  112.858000

 Total Charge           Charge          ....    0
 Multiplicity           Mult            ....    1
 Number of Electrons    NEL             ....  134
 Basis Dimension        Dim             ....  322

ORBITAL ENERGIES
----------------

  NO   OCC          E(Eh)            E(eV)
   0   2.0000     -88.966637     -2420.9053
   1   2.0000     -88.966479     -2420.9010
   2   2.0000     -10.328068      -281.0410
   3   2.0000     -10.324033      -280.9312
   4   2.0000     -10.319068      -280.7961
   5   2.0000     -10.304973      -280.4126
   6   2.0000     -10.304046      -280.3874
   7   2.0000     -10.298988      -280.2497
   8   2.0000     -10.292566      -280.0750
   9   2.0000     -10.292415      -280.0708
  10   2.0000     -10.287556      -279.9386
  11   2.0000     -10.287215      -279.9293
  12   2.0000     -10.282327      -279.7963
  13   2.0000     -10.277605      -279.6678
  14   2.0000     -10.274722      -279.5894
  15   2.0000     -10.267210      -279.3850
  16   2.0000      -8.081862      -219.9187
  17   2.0000      -8.080761      -219.8887
  18   2.0000      -6.040382      -164.3671
  19   2.0000      -6.039082      -164.3318
  20   2.0000      -6.036190      -164.2531
  21   2.0000      -6.035497      -164.2342
  22   2.0000      -6.032694      -164.1580
  23   2.0000      -6.031600      -164.1282
  24   2.0000      -1.005491       -27.3608
  25   2.0000      -0.982319       -26.7302
  26   2.0000      -0.913432       -24.8558
  27   2.0000      -0.910838       -24.7852
  28   2.0000      -0.868446       -23.6316
  29   2.0000      -0.853202       -23.2168
  30   2.0000      -0.849978       -23.1291
  31   2.0000      -0.813766       -22.1437
  32   2.0000      -0.782250       -21.2861
  33   2.0000      -0.768781       -20.9196
  34   2.0000      -0.713560       -19.4170
  35   2.0000      -0.698006       -18.9937
  36   2.0000      -0.690283       -18.7835
  37   2.0000      -0.666848       -18.1459
  38   2.0000      -0.638398       -17.3717
  39   2.0000      -0.618192       -16.8219
  40   2.0000      -0.592508       -16.1230
  41   2.0000      -0.578333       -15.7372
  42   2.0000      -0.572200       -15.5704
  43   2.0000      -0.553978       -15.0745
  44   2.0000      -0.531315       -14.4578
  45   2.0000      -0.526745       -14.3335
  46   2.0000      -0.519909       -14.1474
  47   2.0000      -0.510031       -13.8787
  48   2.0000      -0.502608       -13.6767
  49   2.0000      -0.497968       -13.5504
  50   2.0000      -0.491421       -13.3722
  51   2.0000      -0.481785       -13.1100
  52   2.0000      -0.474767       -12.9191
  53   2.0000      -0.463279       -12.6065
  54   2.0000      -0.459001       -12.4901
  55   2.0000      -0.453910       -12.3515
  56   2.0000      -0.443630       -12.0718
  57   2.0000      -0.439015       -11.9462
  58   2.0000      -0.433410       -11.7937
  59   2.0000      -0.425695       -11.5838
  60   2.0000      -0.423111       -11.5134
  61   2.0000      -0.412353       -11.2207
  62   2.0000      -0.403500       -10.9798
  63   2.0000      -0.341117        -9.2823
  64   2.0000      -0.329853        -8.9758
  65   2.0000      -0.323013        -8.7896
  66   2.0000      -0.293879        -7.9968
  67   0.0000       0.034380         0.9355
  68   0.0000       0.062528         1.7015
  69   0.0000       0.103463         2.8154
  70   0.0000       0.119198         3.2436
  71   0.0000       0.130325         3.5463

MULLIKEN ATOMIC CHARGES
-----------------------
   0 S :    0.128651
   1 C :   -0.086338
   2 C :   -0.161456
   3 C :    0.071219
   4 C :   -0.175255
   5 H :   -0.002651
   6 C :    0.059608
   7 H :    0.014065
   8 H :    0.045409
   9 C :   -0.084964
  10 H :    0.040286
  11 H :    0.023714
  12 C :   -0.031370
  13 H :    0.039206
  14 H :    0.026894
  15 H :    0.034536
  16 S :    0.106902
  17 C :   -0.085727
  18 C :   -0.035361
  19 C :   -0.019550
  20 C :   -0.165036
  21 H :    0.021718
  22 C :    0.056789
  23 H :    0.008246
  24 H :    0.026537
  25 C :   -0.009779
  26 H :    0.016953
  27 H :    0.014031
  28 C :   -0.018347
  29 H :    0.017164
  30 H :    0.020729
  31 H :    0.020867
  32 H :    0.039374
  33 H :    0.042937
Sum of atomic charges:    0.0000000

LOEWDIN ATOMIC CHARGES
----------------------
   0 S :    0.429617
   1 C :   -0.231536
   2 C :   -0.065489
   3 C :   -0.056324
   4 C :   -0.200964
   5 H :    0.024168
   6 C :   -0.034871
   7 H :    0.029882
   8 H :    0.039073
   9 C :   -0.053840
  10 H :    0.029793
  11 H :    0.027880
  12 C :   -0.059963
  13 H :    0.036191
  14 H :    0.022951
  15 H :    0.019688
  16 S :    0.399529
  17 C :   -0.163169
  18 C :   -0.066244
  19 C :   -0.047751
  20 C :   -0.207480
  21 H :    0.034109
  22 C :   -0.034230
  23 H :    0.025862
  24 H :    0.033190
  25 C :   -0.011587
  26 H :    0.013315
  27 H :    0.018990
  28 C :   -0.055283
  29 H :    0.021766
  30 H :    0.022369
  31 H :    0.016749
  32 H :    0.028657
  33 H :    0.014952

  Mayer bond orders larger than 0.100000
B(  0-S ,  1-C ) :   1.1391 B(  0-S ,  4-C ) :   1.1673 B(  1-C ,  2-C ) :   1.6231
B(  1-C , 32-H ) :   0.9514 B(  2-C ,  3-C ) :   1.2511 B(  2-C ,  6-C ) :   1.0167
B(  3-C ,  4-C ) :   1.5542 B(  3-C ,  5-H ) :   1.0027 B(  4-C , 20-C ) :   1.0113
B(  6-C ,  7-H ) :   0.9447 B(  6-C ,  8-H ) :   0.9488 B(  6-C ,  9-C ) :   1.0213
B(  9-C , 10-H ) :   0.9626 B(  9-C , 11-H ) :   0.9554 B(  9-C , 12-C ) :   1.0964
B( 12-C , 13-H ) :   0.9712 B( 12-C , 14-H ) :   0.9749 B( 12-C , 15-H ) :   0.9744
B( 16-S , 17-C ) :   1.1678 B( 16-S , 20-C ) :   1.1513 B( 17-C , 18-C ) :   1.6005
B( 17-C , 20-C ) :   0.1081 B( 17-C , 33-H ) :   0.9701 B( 18-C , 19-C ) :   1.2268
B( 18-C , 21-H ) :   0.9973 B( 19-C , 20-C ) :   1.5846 B( 19-C , 22-C ) :   1.0570
B( 22-C , 23-H ) :   0.9279 B( 22-C , 24-H ) :   0.9271 B( 22-C , 25-C ) :   1.0754
B( 25-C , 26-H ) :   0.9590 B( 25-C , 27-H ) :   0.9577 B( 25-C , 28-C ) :   1.0762
B( 28-C , 29-H ) :   0.9752 B( 28-C , 30-H ) :   0.9758 B( 28-C , 31-H ) :   0.9780

Dispersion correction           -0.013965215
FINAL SINGLE POINT ENERGY     -1339.853510829706

DIPOLE MOMENT
-------------
                                X             Y             Z
Electronic contribution:     10.31839       9.98201      17.67103
Nuclear contribution   :    -10.27196     -10.16883     -18.25819
                        -----------------------------------------
Total Dipole Moment    :      0.04643      -0.18682      -0.58716
                        -----------------------------------------
Magnitude (a.u.)       :      0.61791
Magnitude (Debye)      :      1.57060

Rotational constants in cm-1:     0.018974     0.007932     0.006700
Rotational constants in MHz :   568.813924   237.795997   200.852133

                             ****ORCA TERMINATED NORMALLY****
TOTAL RUN TIME: 0 days 0 hours 0 minutes 29 seconds 357 msec
