                         Program Version 4.2.1 -  RELEASE  -
|  1> ! wB97X-D3 SP def2-SVP
|  2> %pal
|  3> nprocs 16
|  4> end
|  5>
|  6> * xyz 0 1
|  7> S 	 -44.3871 	 50.5506 	 103.493
|  8> C 	 -43.7147 	 51.6824 	 104.548
|  9> C 	 -43.0227 	 51.0841 	 105.558
| 10> C 	 -43.0043 	 49.6367 	 105.451
| 11> C 	 -43.7785 	 49.1515 	 104.427
| 12> H 	 -42.5555 	 48.9204 	 106.117
| 13> C 	 -42.5807 	 51.7725 	 106.839
| 14> H 	 -42.2989 	 51.0693 	 107.511
| 15> H 	 -43.3593 	 52.351 	 107.358
| 16> C 	 -41.4337 	 52.7778 	 106.742
| 17> H 	 -41.6478 	 53.8256 	 106.42
| 18> H 	 -41.1806 	 53.0019 	 107.784
| 19> C 	 -40.1161 	 52.2148 	 106.246
| 20> H 	 -40.124 	 51.1411 	 106.513
| 21> H 	 -40.2089 	 52.2392 	 105.167
| 22> H 	 -39.1742 	 52.7246 	 106.506
| 23> S 	 -45.3258 	 47.3672 	 102.985
| 24> C 	 -44.8869 	 45.7056 	 102.83
| 25> C 	 -43.6096 	 45.4949 	 103.364
| 26> C 	 -43.1281 	 46.6189 	 104.077
| 27> C 	 -43.9986 	 47.7625 	 104.012
| 28> H 	 -43.1174 	 44.4981 	 103.136
| 29> C 	 -41.7245 	 46.6613 	 104.766
| 30> H 	 -41.3569 	 45.6194 	 104.576
| 31> H 	 -41.9156 	 46.8023 	 105.804
| 32> C 	 -40.5368 	 47.5859 	 104.275
| 33> H 	 -40.6908 	 48.6085 	 104.133
| 34> H 	 -40.2617 	 47.2631 	 103.281
| 35> C 	 -39.3303 	 47.4205 	 105.218
| 36> H 	 -39.6099 	 47.6576 	 106.235
| 37> H 	 -38.5063 	 48.0704 	 104.827
| 38> H 	 -39.0698 	 46.3738 	 105.141
| 39> H 	 -43.8865 	 52.7411 	 104.433
| 40> H 	 -45.2588 	 45.1329 	 101.968
| 41> *
| 42>
| 43>                          ****END OF INPUT****

CARTESIAN COORDINATES (ANGSTROEM)
---------------------------------
  S    -44.387100   50.550600  103.493000
  C    -43.714700   51.682400  104.548000
  C    -43.022700   51.084100  105.558000
  C    -43.004300   49.636700  105.451000
  C    -43.778500   49.151500  104.427000
  H    -42.555500   48.920400  106.117000
  C    -42.580700   51.772500  106.839000
  H    -42.298900   51.069300  107.511000
  H    -43.359300   52.351000  107.358000
  C    -41.433700   52.777800  106.742000
  H    -41.647800   53.825600  106.420000
  H    -41.180600   53.001900  107.784000
  C    -40.116100   52.214800  106.246000
  H    -40.124000   51.141100  106.513000
  H    -40.208900   52.239200  105.167000
  H    -39.174200   52.724600  106.506000
  S    -45.325800   47.367200  102.985000
  C    -44.886900   45.705600  102.830000
  C    -43.609600   45.494900  103.364000
  C    -43.128100   46.618900  104.077000
  C    -43.998600   47.762500  104.012000
  H    -43.117400   44.498100  103.136000
  C    -41.724500   46.661300  104.766000
  H    -41.356900   45.619400  104.576000
  H    -41.915600   46.802300  105.804000
  C    -40.536800   47.585900  104.275000
  H    -40.690800   48.608500  104.133000
  H    -40.261700   47.263100  103.281000
  C    -39.330300   47.420500  105.218000
  H    -39.609900   47.657600  106.235000
  H    -38.506300   48.070400  104.827000
  H    -39.069800   46.373800  105.141000
  H    -43.886500   52.741100  104.433000
  H    -45.258800   45.132900  101.968000

 Total Charge           Charge          ....    0
 Multiplicity           Mult            ....    1
 Number of Electrons    NEL             ....  134
 Basis Dimension        Dim             ....  322

ORBITAL ENERGIES
----------------

  NO   OCC          E(Eh)            E(eV)
   0   2.0000     -88.968545     -2420.9572
   1   2.0000     -88.964960     -2420.8596
   2   2.0000     -10.334439      -281.2144
   3   2.0000     -10.333532      -281.1897
   4   2.0000     -10.317131      -280.7434
   5   2.0000     -10.312845      -280.6268
   6   2.0000     -10.310696      -280.5683
   7   2.0000     -10.305074      -280.4153
   8   2.0000     -10.301397      -280.3153
   9   2.0000     -10.300243      -280.2839
  10   2.0000     -10.296460      -280.1809
  11   2.0000     -10.287317      -279.9321
  12   2.0000     -10.284533      -279.8564
  13   2.0000     -10.281371      -279.7703
  14   2.0000     -10.279766      -279.7267
  15   2.0000     -10.275552      -279.6120
  16   2.0000      -8.083929      -219.9749
  17   2.0000      -8.080496      -219.8815
  18   2.0000      -6.042205      -164.4168
  19   2.0000      -6.039110      -164.3325
  20   2.0000      -6.038214      -164.3082
  21   2.0000      -6.035028      -164.2215
  22   2.0000      -6.034785      -164.2149
  23   2.0000      -6.031201      -164.1173
  24   2.0000      -1.010004       -27.4836
  25   2.0000      -0.989844       -26.9350
  26   2.0000      -0.914682       -24.8898
  27   2.0000      -0.902779       -24.5659
  28   2.0000      -0.873695       -23.7745
  29   2.0000      -0.854956       -23.2645
  30   2.0000      -0.846782       -23.0421
  31   2.0000      -0.816806       -22.2264
  32   2.0000      -0.782759       -21.2999
  33   2.0000      -0.769718       -20.9451
  34   2.0000      -0.707271       -19.2458
  35   2.0000      -0.700420       -19.0594
  36   2.0000      -0.693026       -18.8582
  37   2.0000      -0.664958       -18.0944
  38   2.0000      -0.641691       -17.4613
  39   2.0000      -0.615770       -16.7559
  40   2.0000      -0.590798       -16.0764
  41   2.0000      -0.574511       -15.6332
  42   2.0000      -0.567428       -15.4405
  43   2.0000      -0.556433       -15.1413
  44   2.0000      -0.539897       -14.6913
  45   2.0000      -0.525133       -14.2896
  46   2.0000      -0.515686       -14.0325
  47   2.0000      -0.509141       -13.8544
  48   2.0000      -0.507037       -13.7972
  49   2.0000      -0.503330       -13.6963
  50   2.0000      -0.489912       -13.3312
  51   2.0000      -0.480983       -13.0882
  52   2.0000      -0.476906       -12.9773
  53   2.0000      -0.470401       -12.8003
  54   2.0000      -0.460303       -12.5255
  55   2.0000      -0.444645       -12.0994
  56   2.0000      -0.443184       -12.0597
  57   2.0000      -0.435342       -11.8463
  58   2.0000      -0.433848       -11.8056
  59   2.0000      -0.429622       -11.6906
  60   2.0000      -0.426256       -11.5990
  61   2.0000      -0.409803       -11.1513
  62   2.0000      -0.396845       -10.7987
  63   2.0000      -0.362946        -9.8763
  64   2.0000      -0.335936        -9.1413
  65   2.0000      -0.327390        -8.9087
  66   2.0000      -0.284845        -7.7510
  67   0.0000       0.015915         0.4331
  68   0.0000       0.076545         2.0829
  69   0.0000       0.111456         3.0329
  70   0.0000       0.118615         3.2277
  71   0.0000       0.124769         3.3951

MULLIKEN ATOMIC CHARGES
-----------------------
   0 S :    0.102255
   1 C :   -0.111090
   2 C :   -0.066509
   3 C :    0.001059
   4 C :   -0.113824
   5 H :    0.002745
   6 C :    0.119348
   7 H :   -0.013843
   8 H :    0.039443
   9 C :   -0.114986
  10 H :    0.029839
  11 H :    0.013881
  12 C :   -0.047210
  13 H :    0.021829
  14 H :    0.030221
  15 H :    0.046495
  16 S :    0.103946
  17 C :   -0.102687
  18 C :   -0.079201
  19 C :   -0.045151
  20 C :   -0.129563
  21 H :    0.052017
  22 C :    0.012675
  23 H :    0.024993
  24 H :    0.036199
  25 C :   -0.037273
  26 H :    0.028735
  27 H :    0.017169
  28 C :   -0.052190
  29 H :    0.028887
  30 H :    0.047291
  31 H :    0.025507
  32 H :    0.051096
  33 H :    0.077896
Sum of atomic charges:   -0.0000000

LOEWDIN ATOMIC CHARGES
----------------------
   0 S :    0.409597
   1 C :   -0.202653
   2 C :   -0.070679
   3 C :   -0.060987
   4 C :   -0.177213
   5 H :    0.028936
   6 C :   -0.021919
   7 H :    0.015241
   8 H :    0.041647
   9 C :   -0.054135
  10 H :    0.023312
  11 H :    0.023537
  12 C :   -0.070556
  13 H :    0.026773
  14 H :    0.023170
  15 H :    0.029242
  16 S :    0.439525
  17 C :   -0.215281
  18 C :   -0.078883
  19 C :   -0.059530
  20 C :   -0.208588
  21 H :    0.047061
  22 C :   -0.032555
  23 H :    0.036202
  24 H :    0.021695
  25 C :   -0.034837
  26 H :    0.013899
  27 H :    0.022801
  28 C :   -0.058641
  29 H :    0.019557
  30 H :    0.034834
  31 H :    0.021948
  32 H :    0.031274
  33 H :    0.036207

  Mayer bond orders larger than 0.100000
B(  0-S ,  1-C ) :   1.1547 B(  0-S ,  4-C ) :   1.1334 B(  1-C ,  2-C ) :   1.6014
B(  1-C , 32-H ) :   0.9723 B(  2-C ,  3-C ) :   1.2247 B(  2-C ,  6-C ) :   1.0240
B(  3-C ,  4-C ) :   1.5880 B(  3-C ,  5-H ) :   0.9963 B(  4-C , 20-C ) :   1.0884
B(  6-C ,  7-H ) :   0.9303 B(  6-C ,  8-H ) :   0.9411 B(  6-C ,  9-C ) :   1.0863
B(  9-C , 10-H ) :   0.9574 B(  9-C , 11-H ) :   0.9520 B(  9-C , 12-C ) :   1.0634
B( 12-C , 13-H ) :   0.9717 B( 12-C , 14-H ) :   0.9728 B( 12-C , 15-H ) :   0.9768
B( 16-S , 17-C ) :   1.1882 B( 16-S , 20-C ) :   1.1761 B( 17-C , 18-C ) :   1.5510
B( 17-C , 20-C ) :   0.1087 B( 17-C , 33-H ) :   0.9563 B( 18-C , 19-C ) :   1.3360
B( 18-C , 21-H ) :   0.9760 B( 19-C , 20-C ) :   1.4830 B( 19-C , 22-C ) :   1.0177
B( 22-C , 23-H ) :   0.9408 B( 22-C , 24-H ) :   0.9444 B( 22-C , 25-C ) :   1.0440
B( 25-C , 26-H ) :   0.9606 B( 25-C , 27-H ) :   0.9524 B( 25-C , 28-C ) :   1.0772
B( 28-C , 29-H ) :   0.9769 B( 28-C , 30-H ) :   0.9726 B( 28-C , 31-H ) :   0.9780

Dispersion correction           -0.014813935
FINAL SINGLE POINT ENERGY     -1339.859433941489

DIPOLE MOMENT
-------------
                                X             Y             Z
Electronic contribution:    -27.70680      -5.74724     -14.84740
Nuclear contribution   :     28.26730       5.78475      15.03456
                        -----------------------------------------
Total Dipole Moment    :      0.56050       0.03751       0.18715
                        -----------------------------------------
Magnitude (a.u.)       :      0.59211
Magnitude (Debye)      :      1.50501

Rotational constants in cm-1:     0.019657     0.009473     0.006814
Rotational constants in MHz :   589.305545   284.001747   204.269679

                             ****ORCA TERMINATED NORMALLY****
TOTAL RUN TIME: 0 days 0 hours 0 minutes 31 seconds 843 msec
