                         Program Version 4.2.1 -  RELEASE  -
|  1> ! wB97X-D3 SP def2-SVP
|  2> %pal
|  3> nprocs 16
|  4> end
|  5>
|  6> * xyz 0 1
|  7> S 	 7.65762 	 1.49588 	 87.9659
|  8> C 	 8.90145 	 2.05505 	 89.0147
|  9> C 	 9.71497 	 2.97658 	 88.4146
| 10> C 	 9.30856 	 3.27877 	 87.0839
| 11> C 	 8.20273 	 2.49231 	 86.7164
| 12> H 	 9.61952 	 4.02178 	 86.3499
| 13> C 	 11.1179 	 3.43471 	 88.8838
| 14> H 	 11.1906 	 2.75538 	 89.7708
| 15> H 	 10.9937 	 4.43591 	 89.2971
| 16> C 	 12.2569 	 3.34966 	 87.8161
| 17> H 	 11.871 	 3.58492 	 86.8379
| 18> H 	 13.1421 	 3.95441 	 88.1446
| 19> C 	 12.7648 	 1.97479 	 87.6939
| 20> H 	 13.0841 	 1.69261 	 88.7043
| 21> H 	 11.9513 	 1.26039 	 87.6073
| 22> H 	 13.4996 	 1.85977 	 86.9326
| 23> S 	 5.93264 	 3.22277 	 85.3188
| 24> C 	 5.7948 	 2.80805 	 83.6215
| 25> C 	 6.97123 	 2.24232 	 83.1499
| 26> C 	 7.99412 	 2.10874 	 84.1274
| 27> C 	 7.50281 	 2.45325 	 85.4216
| 28> H 	 7.07166 	 1.87238 	 82.1485
| 29> C 	 9.25433 	 1.44156 	 83.8559
| 30> H 	 8.96961 	 0.380369 	 83.6396
| 31> H 	 9.98982 	 1.41388 	 84.661
| 32> C 	 10.1004 	 2.02284 	 82.7119
| 33> H 	 10.4776 	 3.02062 	 83.1313
| 34> H 	 9.47798 	 2.2045 	 81.8943
| 35> C 	 11.2323 	 1.10646 	 82.3093
| 36> H 	 11.8572 	 0.868485 	 83.237
| 37> H 	 11.8829 	 1.529 	 81.6305
| 38> H 	 10.8936 	 0.238495 	 81.8095
| 39> H 	 9.11924 	 1.52047 	 89.9377
| 40> H 	 4.93765 	 2.98867 	 82.9972
| 41> *
| 42>
| 43>                          ****END OF INPUT****

CARTESIAN COORDINATES (ANGSTROEM)
---------------------------------
  S      7.657620    1.495880   87.965900
  C      8.901450    2.055050   89.014700
  C      9.714970    2.976580   88.414600
  C      9.308560    3.278770   87.083900
  C      8.202730    2.492310   86.716400
  H      9.619520    4.021780   86.349900
  C     11.117900    3.434710   88.883800
  H     11.190600    2.755380   89.770800
  H     10.993700    4.435910   89.297100
  C     12.256900    3.349660   87.816100
  H     11.871000    3.584920   86.837900
  H     13.142100    3.954410   88.144600
  C     12.764800    1.974790   87.693900
  H     13.084100    1.692610   88.704300
  H     11.951300    1.260390   87.607300
  H     13.499600    1.859770   86.932600
  S      5.932640    3.222770   85.318800
  C      5.794800    2.808050   83.621500
  C      6.971230    2.242320   83.149900
  C      7.994120    2.108740   84.127400
  C      7.502810    2.453250   85.421600
  H      7.071660    1.872380   82.148500
  C      9.254330    1.441560   83.855900
  H      8.969610    0.380369   83.639600
  H      9.989820    1.413880   84.661000
  C     10.100400    2.022840   82.711900
  H     10.477600    3.020620   83.131300
  H      9.477980    2.204500   81.894300
  C     11.232300    1.106460   82.309300
  H     11.857200    0.868485   83.237000
  H     11.882900    1.529000   81.630500
  H     10.893600    0.238495   81.809500
  H      9.119240    1.520470   89.937700
  H      4.937650    2.988670   82.997200

 Total Charge           Charge          ....    0
 Multiplicity           Mult            ....    1
 Number of Electrons    NEL             ....  134
 Basis Dimension        Dim             ....  322

ORBITAL ENERGIES
----------------

  NO   OCC          E(Eh)            E(eV)
   0   2.0000     -88.966148     -2420.8920
   1   2.0000     -88.965807     -2420.8827
   2   2.0000     -10.326039      -280.9858
   3   2.0000     -10.323797      -280.9248
   4   2.0000     -10.317620      -280.7567
   5   2.0000     -10.309599      -280.5384
   6   2.0000     -10.302554      -280.3468
   7   2.0000     -10.301430      -280.3162
   8   2.0000     -10.297890      -280.2198
   9   2.0000     -10.293524      -280.1010
  10   2.0000     -10.292453      -280.0719
  11   2.0000     -10.289042      -279.9791
  12   2.0000     -10.286845      -279.9193
  13   2.0000     -10.286147      -279.9003
  14   2.0000     -10.274528      -279.5841
  15   2.0000     -10.268424      -279.4180
  16   2.0000      -8.082269      -219.9297
  17   2.0000      -8.080665      -219.8861
  18   2.0000      -6.040485      -164.3700
  19   2.0000      -6.039113      -164.3326
  20   2.0000      -6.036467      -164.2606
  21   2.0000      -6.035170      -164.2253
  22   2.0000      -6.033299      -164.1744
  23   2.0000      -6.031538      -164.1265
  24   2.0000      -1.010915       -27.5084
  25   2.0000      -0.986234       -26.8368
  26   2.0000      -0.917590       -24.9689
  27   2.0000      -0.915384       -24.9089
  28   2.0000      -0.870585       -23.6898
  29   2.0000      -0.856062       -23.2946
  30   2.0000      -0.850835       -23.1524
  31   2.0000      -0.813290       -22.1308
  32   2.0000      -0.783402       -21.3175
  33   2.0000      -0.770108       -20.9557
  34   2.0000      -0.707755       -19.2590
  35   2.0000      -0.699146       -19.0247
  36   2.0000      -0.688368       -18.7314
  37   2.0000      -0.655293       -17.8314
  38   2.0000      -0.645541       -17.5661
  39   2.0000      -0.618900       -16.8411
  40   2.0000      -0.605560       -16.4781
  41   2.0000      -0.568968       -15.4824
  42   2.0000      -0.568184       -15.4611
  43   2.0000      -0.560935       -15.2638
  44   2.0000      -0.541541       -14.7361
  45   2.0000      -0.523625       -14.2486
  46   2.0000      -0.521601       -14.1935
  47   2.0000      -0.520090       -14.1524
  48   2.0000      -0.511620       -13.9219
  49   2.0000      -0.498598       -13.5676
  50   2.0000      -0.488139       -13.2830
  51   2.0000      -0.476765       -12.9734
  52   2.0000      -0.470055       -12.7908
  53   2.0000      -0.463520       -12.6130
  54   2.0000      -0.456795       -12.4300
  55   2.0000      -0.446417       -12.1476
  56   2.0000      -0.444126       -12.0853
  57   2.0000      -0.439101       -11.9486
  58   2.0000      -0.431751       -11.7485
  59   2.0000      -0.427781       -11.6405
  60   2.0000      -0.425992       -11.5918
  61   2.0000      -0.416434       -11.3317
  62   2.0000      -0.412391       -11.2217
  63   2.0000      -0.337769        -9.1912
  64   2.0000      -0.330332        -8.9888
  65   2.0000      -0.324466        -8.8292
  66   2.0000      -0.298859        -8.1324
  67   0.0000       0.039235         1.0676
  68   0.0000       0.062135         1.6908
  69   0.0000       0.114395         3.1129
  70   0.0000       0.118547         3.2258
  71   0.0000       0.124805         3.3961

MULLIKEN ATOMIC CHARGES
-----------------------
   0 S :    0.133205
   1 C :   -0.128734
   2 C :   -0.105270
   3 C :    0.032714
   4 C :   -0.208080
   5 H :    0.026553
   6 C :    0.054051
   7 H :    0.017334
   8 H :    0.041213
   9 C :   -0.053827
  10 H :    0.031097
  11 H :    0.042928
  12 C :   -0.025227
  13 H :    0.007910
  14 H :    0.021304
  15 H :    0.036999
  16 S :    0.118125
  17 C :   -0.086026
  18 C :   -0.033746
  19 C :    0.021054
  20 C :   -0.169255
  21 H :    0.015127
  22 C :    0.015650
  23 H :    0.042732
  24 H :    0.021282
  25 C :   -0.090959
  26 H :    0.034625
  27 H :    0.010829
  28 C :   -0.000455
  29 H :    0.033064
  30 H :    0.013956
  31 H :    0.022799
  32 H :    0.052535
  33 H :    0.054493
Sum of atomic charges:   -0.0000000

LOEWDIN ATOMIC CHARGES
----------------------
   0 S :    0.453350
   1 C :   -0.217858
   2 C :   -0.066958
   3 C :   -0.069516
   4 C :   -0.216891
   5 H :    0.036235
   6 C :   -0.029932
   7 H :    0.031312
   8 H :    0.032532
   9 C :   -0.039228
  10 H :    0.021900
  11 H :    0.034022
  12 C :   -0.063197
  13 H :    0.023808
  14 H :    0.024271
  15 H :    0.021236
  16 S :    0.411254
  17 C :   -0.183437
  18 C :   -0.068611
  19 C :   -0.054723
  20 C :   -0.211116
  21 H :    0.027997
  22 C :   -0.040845
  23 H :    0.039186
  24 H :    0.028732
  25 C :   -0.034471
  26 H :    0.031455
  27 H :    0.008958
  28 C :   -0.058078
  29 H :    0.034541
  30 H :    0.016120
  31 H :    0.021992
  32 H :    0.027650
  33 H :    0.028311

  Mayer bond orders larger than 0.100000
B(  0-S ,  1-C ) :   1.1504 B(  0-S ,  4-C ) :   1.2063 B(  1-C ,  2-C ) :   1.6169
B(  1-C , 32-H ) :   0.9621 B(  2-C ,  3-C ) :   1.2335 B(  2-C ,  6-C ) :   0.9991
B(  3-C ,  4-C ) :   1.5613 B(  3-C ,  5-H ) :   0.9936 B(  4-C , 20-C ) :   0.9936
B(  6-C ,  7-H ) :   0.9532 B(  6-C ,  8-H ) :   0.9334 B(  6-C ,  9-C ) :   1.0581
B(  9-C , 10-H ) :   0.9523 B(  9-C , 11-H ) :   0.9536 B(  9-C , 12-C ) :   1.0821
B( 12-C , 13-H ) :   0.9681 B( 12-C , 14-H ) :   0.9728 B( 12-C , 15-H ) :   0.9726
B( 16-S , 17-C ) :   1.1590 B( 16-S , 20-C ) :   1.1620 B( 17-C , 18-C ) :   1.5908
B( 17-C , 20-C ) :   0.1057 B( 17-C , 33-H ) :   0.9699 B( 18-C , 19-C ) :   1.2503
B( 18-C , 21-H ) :   0.9885 B( 19-C , 20-C ) :   1.5533 B( 19-C , 22-C ) :   1.0662
B( 22-C , 23-H ) :   0.9373 B( 22-C , 24-H ) :   0.9342 B( 22-C , 25-C ) :   1.0460
B( 25-C , 26-H ) :   0.9529 B( 25-C , 27-H ) :   0.9595 B( 25-C , 28-C ) :   1.0943
B( 28-C , 29-H ) :   0.9693 B( 28-C , 30-H ) :   0.9700 B( 28-C , 31-H ) :   0.9707

Dispersion correction           -0.014658450
FINAL SINGLE POINT ENERGY     -1339.868468254059

DIPOLE MOMENT
-------------
                                X             Y             Z
Electronic contribution:    -29.33221       2.96939       7.94847
Nuclear contribution   :     29.89570      -3.07127      -8.30699
                        -----------------------------------------
Total Dipole Moment    :      0.56349      -0.10188      -0.35852
                        -----------------------------------------
Magnitude (a.u.)       :      0.67561
Magnitude (Debye)      :      1.71725

Rotational constants in cm-1:     0.016331     0.010457     0.007092
Rotational constants in MHz :   489.589557   313.488726   212.619120

                             ****ORCA TERMINATED NORMALLY****
TOTAL RUN TIME: 0 days 0 hours 0 minutes 37 seconds 56 msec
