                         Program Version 4.2.1 -  RELEASE  -
|  1> ! wB97X-D3 SP def2-SVP
|  2> %pal
|  3> nprocs 16
|  4> end
|  5>
|  6> * xyz 0 1
|  7> S 	 -106.739 	 40.0141 	 128.092
|  8> C 	 -106.434 	 39.9794 	 129.847
|  9> C 	 -107.591 	 40.2314 	 130.571
| 10> C 	 -108.717 	 40.3465 	 129.677
| 11> C 	 -108.413 	 40.2756 	 128.34
| 12> H 	 -109.713 	 40.4512 	 129.979
| 13> C 	 -107.678 	 40.3039 	 132.086
| 14> H 	 -107.706 	 41.3745 	 132.227
| 15> H 	 -106.725 	 39.94 	 132.511
| 16> C 	 -108.826 	 39.6211 	 132.861
| 17> H 	 -108.757 	 39.8013 	 133.968
| 18> H 	 -109.763 	 39.9486 	 132.502
| 19> C 	 -108.852 	 38.0528 	 132.879
| 20> H 	 -108.589 	 37.6537 	 131.874
| 21> H 	 -108.063 	 37.7568 	 133.501
| 22> H 	 -109.808 	 37.7367 	 133.213
| 23> S 	 -108.839 	 41.4506 	 125.859
| 24> C 	 -110.391 	 41.8606 	 125.372
| 25> C 	 -111.312 	 41.1892 	 126.123
| 26> C 	 -110.779 	 40.4478 	 127.198
| 27> C 	 -109.359 	 40.5715 	 127.24
| 28> H 	 -112.374 	 41.2812 	 125.896
| 29> C 	 -111.633 	 39.69 	 128.182
| 30> H 	 -111.799 	 40.3304 	 129.053
| 31> H 	 -110.925 	 38.9037 	 128.55
| 32> C 	 -112.933 	 39.0058 	 127.677
| 33> H 	 -112.687 	 38.3529 	 126.837
| 34> H 	 -113.68 	 39.7405 	 127.38
| 35> C 	 -113.577 	 38.2317 	 128.867
| 36> H 	 -113.731 	 38.9609 	 129.699
| 37> H 	 -112.867 	 37.4584 	 129.238
| 38> H 	 -114.467 	 37.6483 	 128.626
| 39> H 	 -105.467 	 39.9876 	 130.393
| 40> H 	 -110.589 	 42.3896 	 124.425
| 41> *
| 42>
| 43>                          ****END OF INPUT****

CARTESIAN COORDINATES (ANGSTROEM)
---------------------------------
  S    -106.739000   40.014100  128.092000
  C    -106.434000   39.979400  129.847000
  C    -107.591000   40.231400  130.571000
  C    -108.717000   40.346500  129.677000
  C    -108.413000   40.275600  128.340000
  H    -109.713000   40.451200  129.979000
  C    -107.678000   40.303900  132.086000
  H    -107.706000   41.374500  132.227000
  H    -106.725000   39.940000  132.511000
  C    -108.826000   39.621100  132.861000
  H    -108.757000   39.801300  133.968000
  H    -109.763000   39.948600  132.502000
  C    -108.852000   38.052800  132.879000
  H    -108.589000   37.653700  131.874000
  H    -108.063000   37.756800  133.501000
  H    -109.808000   37.736700  133.213000
  S    -108.839000   41.450600  125.859000
  C    -110.391000   41.860600  125.372000
  C    -111.312000   41.189200  126.123000
  C    -110.779000   40.447800  127.198000
  C    -109.359000   40.571500  127.240000
  H    -112.374000   41.281200  125.896000
  C    -111.633000   39.690000  128.182000
  H    -111.799000   40.330400  129.053000
  H    -110.925000   38.903700  128.550000
  C    -112.933000   39.005800  127.677000
  H    -112.687000   38.352900  126.837000
  H    -113.680000   39.740500  127.380000
  C    -113.577000   38.231700  128.867000
  H    -113.731000   38.960900  129.699000
  H    -112.867000   37.458400  129.238000
  H    -114.467000   37.648300  128.626000
  H    -105.467000   39.987600  130.393000
  H    -110.589000   42.389600  124.425000

 Total Charge           Charge          ....    0
 Multiplicity           Mult            ....    1
 Number of Electrons    NEL             ....  134
 Basis Dimension        Dim             ....  322

ORBITAL ENERGIES
----------------

  NO   OCC          E(Eh)            E(eV)
   0   2.0000     -88.967831     -2420.9377
   1   2.0000     -88.964432     -2420.8453
   2   2.0000     -10.330236      -281.1000
   3   2.0000     -10.327848      -281.0350
   4   2.0000     -10.316420      -280.7241
   5   2.0000     -10.311734      -280.5966
   6   2.0000     -10.304414      -280.3974
   7   2.0000     -10.303422      -280.3704
   8   2.0000     -10.297782      -280.2169
   9   2.0000     -10.296601      -280.1848
  10   2.0000     -10.294110      -280.1170
  11   2.0000     -10.291211      -280.0381
  12   2.0000     -10.288750      -279.9711
  13   2.0000     -10.288169      -279.9553
  14   2.0000     -10.286433      -279.9081
  15   2.0000     -10.273292      -279.5505
  16   2.0000      -8.082543      -219.9372
  17   2.0000      -8.081152      -219.8993
  18   2.0000      -6.041205      -164.3895
  19   2.0000      -6.039403      -164.3405
  20   2.0000      -6.037098      -164.2778
  21   2.0000      -6.035205      -164.2263
  22   2.0000      -6.033106      -164.1692
  23   2.0000      -6.032250      -164.1459
  24   2.0000      -1.014149       -27.5964
  25   2.0000      -0.989714       -26.9315
  26   2.0000      -0.910223       -24.7684
  27   2.0000      -0.909731       -24.7550
  28   2.0000      -0.868886       -23.6436
  29   2.0000      -0.854464       -23.2511
  30   2.0000      -0.844486       -22.9796
  31   2.0000      -0.815693       -22.1961
  32   2.0000      -0.785504       -21.3746
  33   2.0000      -0.771712       -20.9993
  34   2.0000      -0.709966       -19.3191
  35   2.0000      -0.702243       -19.1090
  36   2.0000      -0.691326       -18.8119
  37   2.0000      -0.651223       -17.7207
  38   2.0000      -0.633371       -17.2349
  39   2.0000      -0.625843       -17.0300
  40   2.0000      -0.600296       -16.3349
  41   2.0000      -0.572418       -15.5763
  42   2.0000      -0.567960       -15.4550
  43   2.0000      -0.555050       -15.1037
  44   2.0000      -0.543549       -14.7907
  45   2.0000      -0.527652       -14.3582
  46   2.0000      -0.521446       -14.1893
  47   2.0000      -0.510897       -13.9022
  48   2.0000      -0.505274       -13.7492
  49   2.0000      -0.493968       -13.4416
  50   2.0000      -0.487184       -13.2569
  51   2.0000      -0.481119       -13.0919
  52   2.0000      -0.471883       -12.8406
  53   2.0000      -0.464980       -12.6528
  54   2.0000      -0.459220       -12.4960
  55   2.0000      -0.451450       -12.2846
  56   2.0000      -0.445938       -12.1346
  57   2.0000      -0.441557       -12.0154
  58   2.0000      -0.437853       -11.9146
  59   2.0000      -0.428305       -11.6548
  60   2.0000      -0.422034       -11.4841
  61   2.0000      -0.419563       -11.4169
  62   2.0000      -0.411092       -11.1864
  63   2.0000      -0.354731        -9.6527
  64   2.0000      -0.332669        -9.0524
  65   2.0000      -0.328032        -8.9262
  66   2.0000      -0.285627        -7.7723
  67   0.0000       0.026166         0.7120
  68   0.0000       0.084453         2.2981
  69   0.0000       0.110252         3.0001
  70   0.0000       0.127260         3.4629
  71   0.0000       0.129710         3.5296

MULLIKEN ATOMIC CHARGES
-----------------------
   0 S :    0.105657
   1 C :   -0.131410
   2 C :   -0.103625
   3 C :    0.018886
   4 C :   -0.110134
   5 H :   -0.035267
   6 C :    0.085138
   7 H :    0.045122
   8 H :    0.015806
   9 C :   -0.092025
  10 H :    0.038008
  11 H :    0.021393
  12 C :   -0.033165
  13 H :    0.038178
  14 H :    0.017841
  15 H :    0.034633
  16 S :    0.116307
  17 C :   -0.099064
  18 C :   -0.048502
  19 C :   -0.047516
  20 C :   -0.133646
  21 H :    0.017218
  22 C :   -0.010141
  23 H :    0.051072
  24 H :    0.041971
  25 C :   -0.052426
  26 H :    0.042943
  27 H :    0.037623
  28 C :   -0.064960
  29 H :    0.035648
  30 H :    0.030445
  31 H :    0.041633
  32 H :    0.056014
  33 H :    0.070344
Sum of atomic charges:   -0.0000000

LOEWDIN ATOMIC CHARGES
----------------------
   0 S :    0.404680
   1 C :   -0.204896
   2 C :   -0.057118
   3 C :   -0.066451
   4 C :   -0.195243
   5 H :    0.016437
   6 C :   -0.032504
   7 H :    0.039179
   8 H :    0.030646
   9 C :   -0.038746
  10 H :    0.034642
  11 H :    0.011900
  12 C :   -0.055980
  13 H :    0.028735
  14 H :    0.015777
  15 H :    0.022589
  16 S :    0.452887
  17 C :   -0.214172
  18 C :   -0.080267
  19 C :   -0.059367
  20 C :   -0.213484
  21 H :    0.031666
  22 C :   -0.042747
  23 H :    0.030096
  24 H :    0.039275
  25 C :   -0.036143
  26 H :    0.028587
  27 H :    0.023097
  28 C :   -0.069459
  29 H :    0.029048
  30 H :    0.026721
  31 H :    0.025935
  32 H :    0.037152
  33 H :    0.037527

  Mayer bond orders larger than 0.100000
B(  0-S ,  1-C ) :   1.1199 B(  0-S ,  4-C ) :   1.1495 B(  1-C ,  2-C ) :   1.6377
B(  1-C , 32-H ) :   0.9568 B(  2-C ,  3-C ) :   1.2281 B(  2-C ,  6-C ) :   1.0110
B(  3-C ,  4-C ) :   1.5723 B(  3-C ,  5-H ) :   1.0012 B(  4-C , 20-C ) :   1.0391
B(  6-C ,  7-H ) :   0.9288 B(  6-C ,  8-H ) :   0.9438 B(  6-C ,  9-C ) :   1.0762
B(  9-C , 10-H ) :   0.9589 B(  9-C , 11-H ) :   0.9591 B(  9-C , 12-C ) :   1.0661
B( 12-C , 13-H ) :   0.9793 B( 12-C , 14-H ) :   0.9789 B( 12-C , 15-H ) :   0.9767
B( 16-S , 17-C ) :   1.1944 B( 16-S , 20-C ) :   1.1745 B( 17-C , 18-C ) :   1.5430
B( 17-C , 20-C ) :   0.1008 B( 17-C , 33-H ) :   0.9636 B( 18-C , 19-C ) :   1.3086
B( 18-C , 21-H ) :   0.9946 B( 19-C , 20-C ) :   1.5185 B( 19-C , 22-C ) :   1.0354
B( 22-C , 23-H ) :   0.9221 B( 22-C , 24-H ) :   0.9377 B( 22-C , 25-C ) :   1.0635
B( 25-C , 26-H ) :   0.9583 B( 25-C , 27-H ) :   0.9480 B( 25-C , 28-C ) :   1.0803
B( 28-C , 29-H ) :   0.9735 B( 28-C , 30-H ) :   0.9758 B( 28-C , 31-H ) :   0.9746

Dispersion correction           -0.013806383
FINAL SINGLE POINT ENERGY     -1339.883117142029

DIPOLE MOMENT
-------------
                                X             Y             Z
Electronic contribution:     18.64722      11.99304     -23.16508
Nuclear contribution   :    -19.19585     -11.99396      23.65490
                        -----------------------------------------
Total Dipole Moment    :     -0.54863      -0.00092       0.48982
                        -----------------------------------------
Magnitude (a.u.)       :      0.73547
Magnitude (Debye)      :      1.86943

Rotational constants in cm-1:     0.015771     0.009883     0.006516
Rotational constants in MHz :   472.794580   296.274428   195.334078

                             ****ORCA TERMINATED NORMALLY****
TOTAL RUN TIME: 0 days 0 hours 0 minutes 33 seconds 935 msec
