                         Program Version 4.2.1 -  RELEASE  -
|  1> ! wB97X-D3 SP def2-SVP
|  2> %pal
|  3> nprocs 16
|  4> end
|  5>
|  6> * xyz 0 1
|  7> S 	 -42.8549 	 24.1302 	 77.4331
|  8> C 	 -43.3718 	 23.2859 	 78.917
|  9> C 	 -42.338 	 22.5557 	 79.3878
| 10> C 	 -41.2119 	 22.5327 	 78.547
| 11> C 	 -41.4624 	 23.0711 	 77.3351
| 12> H 	 -40.2217 	 22.0995 	 78.7122
| 13> C 	 -42.4117 	 21.6791 	 80.6287
| 14> H 	 -41.7357 	 20.92 	 80.5727
| 15> H 	 -43.3999 	 21.2561 	 80.7622
| 16> C 	 -42.1016 	 22.4831 	 81.9282
| 17> H 	 -41.7887 	 21.7066 	 82.7496
| 18> H 	 -41.2566 	 23.1371 	 81.7809
| 19> C 	 -43.3441 	 23.1717 	 82.5164
| 20> H 	 -42.9303 	 23.7102 	 83.4035
| 21> H 	 -43.8129 	 23.9216 	 81.8323
| 22> H 	 -44.1334 	 22.5026 	 82.786
| 23> S 	 -40.5015 	 21.4991 	 75.2884
| 24> C 	 -39.6006 	 22.1305 	 73.9983
| 25> C 	 -39.3208 	 23.438 	 74.2278
| 26> C 	 -39.9268 	 24.0255 	 75.4313
| 27> C 	 -40.6691 	 23.0251 	 76.1075
| 28> H 	 -38.8234 	 23.9842 	 73.4226
| 29> C 	 -39.6862 	 25.5503 	 75.7496
| 30> H 	 -38.6643 	 25.7266 	 76.1125
| 31> H 	 -40.4883 	 25.7503 	 76.4122
| 32> C 	 -39.7896 	 26.4372 	 74.5255
| 33> H 	 -40.5834 	 26.1389 	 73.8477
| 34> H 	 -38.8835 	 26.3189 	 74.0409
| 35> C 	 -40.0536 	 27.8607 	 74.8471
| 36> H 	 -41.0537 	 27.9193 	 75.2353
| 37> H 	 -40.1456 	 28.3963 	 73.8343
| 38> H 	 -39.2449 	 28.3931 	 75.4682
| 39> H 	 -44.2789 	 23.3197 	 79.4648
| 40> H 	 -39.3531 	 21.6591 	 73.0396
| 41> *
| 42>
| 43>                          ****END OF INPUT****

CARTESIAN COORDINATES (ANGSTROEM)
---------------------------------
  S    -42.854900   24.130200   77.433100
  C    -43.371800   23.285900   78.917000
  C    -42.338000   22.555700   79.387800
  C    -41.211900   22.532700   78.547000
  C    -41.462400   23.071100   77.335100
  H    -40.221700   22.099500   78.712200
  C    -42.411700   21.679100   80.628700
  H    -41.735700   20.920000   80.572700
  H    -43.399900   21.256100   80.762200
  C    -42.101600   22.483100   81.928200
  H    -41.788700   21.706600   82.749600
  H    -41.256600   23.137100   81.780900
  C    -43.344100   23.171700   82.516400
  H    -42.930300   23.710200   83.403500
  H    -43.812900   23.921600   81.832300
  H    -44.133400   22.502600   82.786000
  S    -40.501500   21.499100   75.288400
  C    -39.600600   22.130500   73.998300
  C    -39.320800   23.438000   74.227800
  C    -39.926800   24.025500   75.431300
  C    -40.669100   23.025100   76.107500
  H    -38.823400   23.984200   73.422600
  C    -39.686200   25.550300   75.749600
  H    -38.664300   25.726600   76.112500
  H    -40.488300   25.750300   76.412200
  C    -39.789600   26.437200   74.525500
  H    -40.583400   26.138900   73.847700
  H    -38.883500   26.318900   74.040900
  C    -40.053600   27.860700   74.847100
  H    -41.053700   27.919300   75.235300
  H    -40.145600   28.396300   73.834300
  H    -39.244900   28.393100   75.468200
  H    -44.278900   23.319700   79.464800
  H    -39.353100   21.659100   73.039600

 Total Charge           Charge          ....    0
 Multiplicity           Mult            ....    1
 Number of Electrons    NEL             ....  134
 Basis Dimension        Dim             ....  322

ORBITAL ENERGIES
----------------

  NO   OCC          E(Eh)            E(eV)
   0   2.0000     -88.964470     -2420.8463
   1   2.0000     -88.962452     -2420.7914
   2   2.0000     -10.329510      -281.0803
   3   2.0000     -10.326546      -280.9996
   4   2.0000     -10.311998      -280.6037
   5   2.0000     -10.311451      -280.5889
   6   2.0000     -10.308124      -280.4983
   7   2.0000     -10.294220      -280.1200
   8   2.0000     -10.293737      -280.1068
   9   2.0000     -10.291576      -280.0480
  10   2.0000     -10.289957      -280.0040
  11   2.0000     -10.289857      -280.0012
  12   2.0000     -10.283968      -279.8410
  13   2.0000     -10.282682      -279.8060
  14   2.0000     -10.281537      -279.7748
  15   2.0000     -10.273329      -279.5515
  16   2.0000      -8.080255      -219.8749
  17   2.0000      -8.076748      -219.7795
  18   2.0000      -6.038768      -164.3232
  19   2.0000      -6.035386      -164.2312
  20   2.0000      -6.034461      -164.2060
  21   2.0000      -6.031625      -164.1289
  22   2.0000      -6.031075      -164.1139
  23   2.0000      -6.027085      -164.0053
  24   2.0000      -1.010243       -27.4901
  25   2.0000      -0.989480       -26.9251
  26   2.0000      -0.917424       -24.9644
  27   2.0000      -0.910384       -24.7728
  28   2.0000      -0.869465       -23.6593
  29   2.0000      -0.848037       -23.0763
  30   2.0000      -0.843689       -22.9579
  31   2.0000      -0.816978       -22.2311
  32   2.0000      -0.785066       -21.3627
  33   2.0000      -0.773928       -21.0596
  34   2.0000      -0.706732       -19.2312
  35   2.0000      -0.695074       -18.9139
  36   2.0000      -0.690922       -18.8009
  37   2.0000      -0.651523       -17.7288
  38   2.0000      -0.636897       -17.3308
  39   2.0000      -0.619928       -16.8691
  40   2.0000      -0.596350       -16.2275
  41   2.0000      -0.584667       -15.9096
  42   2.0000      -0.575222       -15.6526
  43   2.0000      -0.548597       -14.9281
  44   2.0000      -0.535044       -14.5593
  45   2.0000      -0.521541       -14.1918
  46   2.0000      -0.520764       -14.1707
  47   2.0000      -0.516621       -14.0580
  48   2.0000      -0.508703       -13.8425
  49   2.0000      -0.499907       -13.6032
  50   2.0000      -0.485300       -13.2057
  51   2.0000      -0.483785       -13.1645
  52   2.0000      -0.477625       -12.9968
  53   2.0000      -0.465607       -12.6698
  54   2.0000      -0.463722       -12.6185
  55   2.0000      -0.443590       -12.0707
  56   2.0000      -0.441155       -12.0044
  57   2.0000      -0.436413       -11.8754
  58   2.0000      -0.429284       -11.6814
  59   2.0000      -0.423742       -11.5306
  60   2.0000      -0.419364       -11.4115
  61   2.0000      -0.413572       -11.2539
  62   2.0000      -0.406479       -11.0609
  63   2.0000      -0.339961        -9.2508
  64   2.0000      -0.329454        -8.9649
  65   2.0000      -0.325017        -8.8442
  66   2.0000      -0.300241        -8.1700
  67   0.0000       0.038793         1.0556
  68   0.0000       0.058911         1.6030
  69   0.0000       0.101250         2.7552
  70   0.0000       0.127475         3.4688
  71   0.0000       0.135571         3.6891

MULLIKEN ATOMIC CHARGES
-----------------------
   0 S :    0.096844
   1 C :   -0.091126
   2 C :   -0.084866
   3 C :    0.037072
   4 C :   -0.169589
   5 H :    0.021200
   6 C :    0.130602
   7 H :   -0.005094
   8 H :    0.018613
   9 C :   -0.112701
  10 H :    0.037799
  11 H :    0.033923
  12 C :   -0.064011
  13 H :    0.044506
  14 H :    0.033689
  15 H :    0.031373
  16 S :    0.125037
  17 C :   -0.091862
  18 C :   -0.058669
  19 C :   -0.053280
  20 C :   -0.185390
  21 H :    0.022761
  22 C :    0.142741
  23 H :    0.044188
  24 H :    0.000451
  25 C :   -0.097168
  26 H :    0.030902
  27 H :    0.015719
  28 C :   -0.062113
  29 H :    0.033170
  30 H :    0.036619
  31 H :    0.048879
  32 H :    0.024811
  33 H :    0.064969
Sum of atomic charges:    0.0000000

LOEWDIN ATOMIC CHARGES
----------------------
   0 S :    0.379795
   1 C :   -0.179732
   2 C :   -0.061968
   3 C :   -0.063095
   4 C :   -0.182424
   5 H :    0.037730
   6 C :   -0.018895
   7 H :    0.014500
   8 H :    0.030417
   9 C :   -0.039078
  10 H :    0.031879
  11 H :    0.020652
  12 C :   -0.072135
  13 H :    0.034301
  14 H :    0.024314
  15 H :    0.019892
  16 S :    0.437067
  17 C :   -0.210544
  18 C :   -0.082833
  19 C :   -0.049077
  20 C :   -0.214382
  21 H :    0.029581
  22 C :   -0.019234
  23 H :    0.039462
  24 H :    0.015760
  25 C :   -0.047723
  26 H :    0.027578
  27 H :    0.011522
  28 C :   -0.068235
  29 H :    0.023530
  30 H :    0.035444
  31 H :    0.032864
  32 H :    0.022726
  33 H :    0.040341

  Mayer bond orders larger than 0.100000
B(  0-S ,  1-C ) :   1.1033 B(  0-S ,  4-C ) :   1.1296 B(  1-C ,  2-C ) :   1.6583
B(  1-C , 32-H ) :   0.9690 B(  2-C ,  3-C ) :   1.1919 B(  2-C ,  6-C ) :   1.0252
B(  3-C ,  4-C ) :   1.6283 B(  3-C ,  5-H ) :   0.9970 B(  4-C , 20-C ) :   1.0201
B(  6-C ,  7-H ) :   0.9366 B(  6-C ,  8-H ) :   0.9461 B(  6-C ,  9-C ) :   1.0575
B(  9-C , 10-H ) :   0.9570 B(  9-C , 11-H ) :   0.9587 B(  9-C , 12-C ) :   1.0773
B( 12-C , 13-H ) :   0.9737 B( 12-C , 14-H ) :   0.9727 B( 12-C , 15-H ) :   0.9747
B( 16-S , 17-C ) :   1.1584 B( 16-S , 20-C ) :   1.1608 B( 17-C , 18-C ) :   1.6288
B( 17-C , 33-H ) :   0.9618 B( 18-C , 19-C ) :   1.2310 B( 18-C , 21-H ) :   0.9806
B( 19-C , 20-C ) :   1.5848 B( 19-C , 22-C ) :   1.0291 B( 22-C , 23-H ) :   0.9333
B( 22-C , 24-H ) :   0.9317 B( 22-C , 25-C ) :   1.0691 B( 25-C , 26-H ) :   0.9571
B( 25-C , 27-H ) :   0.9461 B( 25-C , 28-C ) :   1.1037 B( 28-C , 29-H ) :   0.9720
B( 28-C , 30-H ) :   0.9705 B( 28-C , 31-H ) :   0.9691

Dispersion correction           -0.013827185
FINAL SINGLE POINT ENERGY     -1339.851505602322

DIPOLE MOMENT
-------------
                                X             Y             Z
Electronic contribution:     -1.31633     -13.14864     -12.92137
Nuclear contribution   :      1.56584      13.24382      13.04258
                        -----------------------------------------
Total Dipole Moment    :      0.24951       0.09519       0.12121
                        -----------------------------------------
Magnitude (a.u.)       :      0.29327
Magnitude (Debye)      :      0.74544

Rotational constants in cm-1:     0.021690     0.007389     0.006062
Rotational constants in MHz :   650.252678   221.517588   181.723995

                             ****ORCA TERMINATED NORMALLY****
TOTAL RUN TIME: 0 days 0 hours 0 minutes 29 seconds 7 msec
