                         Program Version 4.2.1 -  RELEASE  -
|  1> ! wB97X-D3 SP def2-SVP
|  2> %pal
|  3> nprocs 16
|  4> end
|  5>
|  6> * xyz 0 1
|  7> S 	 36.8347 	 -0.721306 	 76.1351
|  8> C 	 36.9517 	 -2.29324 	 75.4039
|  9> C 	 35.7586 	 -2.61297 	 74.6523
| 10> C 	 34.8629 	 -1.48337 	 74.6671
| 11> C 	 35.3099 	 -0.392179 	 75.3161
| 12> H 	 33.9509 	 -1.50678 	 74.0915
| 13> C 	 35.4358 	 -4.04792 	 74.1557
| 14> H 	 34.4373 	 -4.38464 	 74.3826
| 15> H 	 36.0125 	 -4.70081 	 74.8308
| 16> C 	 35.7277 	 -4.3273 	 72.698
| 17> H 	 36.8426 	 -4.28773 	 72.523
| 18> H 	 35.4205 	 -5.33851 	 72.4935
| 19> C 	 35.1476 	 -3.27589 	 71.6919
| 20> H 	 34.106 	 -3.31356 	 71.8111
| 21> H 	 35.5388 	 -2.25499 	 71.7801
| 22> H 	 35.3698 	 -3.6649 	 70.7365
| 23> S 	 34.2283 	 1.68303 	 73.9868
| 24> C 	 33.7591 	 3.15097 	 74.7421
| 25> C 	 34.0544 	 3.11353 	 76.1198
| 26> C 	 34.5464 	 1.86838 	 76.5442
| 27> C 	 34.6588 	 0.909013 	 75.4586
| 28> H 	 33.7919 	 4.01101 	 76.5947
| 29> C 	 35.0302 	 1.57566 	 77.9434
| 30> H 	 36.1337 	 1.6323 	 77.979
| 31> H 	 34.6333 	 0.530954 	 78.1969
| 32> C 	 34.5362 	 2.49383 	 79.0948
| 33> H 	 33.4916 	 2.45437 	 79.2179
| 34> H 	 34.8142 	 3.48857 	 78.7303
| 35> C 	 35.1072 	 2.09755 	 80.482
| 36> H 	 35.102 	 1.00347 	 80.6386
| 37> H 	 34.5283 	 2.69426 	 81.2409
| 38> H 	 36.0664 	 2.51998 	 80.6871
| 39> H 	 37.8238 	 -2.85004 	 75.4405
| 40> H 	 33.3274 	 3.95125 	 74.1916
| 41> *
| 42>
| 43>                          ****END OF INPUT****

CARTESIAN COORDINATES (ANGSTROEM)
---------------------------------
  S     36.834700   -0.721306   76.135100
  C     36.951700   -2.293240   75.403900
  C     35.758600   -2.612970   74.652300
  C     34.862900   -1.483370   74.667100
  C     35.309900   -0.392179   75.316100
  H     33.950900   -1.506780   74.091500
  C     35.435800   -4.047920   74.155700
  H     34.437300   -4.384640   74.382600
  H     36.012500   -4.700810   74.830800
  C     35.727700   -4.327300   72.698000
  H     36.842600   -4.287730   72.523000
  H     35.420500   -5.338510   72.493500
  C     35.147600   -3.275890   71.691900
  H     34.106000   -3.313560   71.811100
  H     35.538800   -2.254990   71.780100
  H     35.369800   -3.664900   70.736500
  S     34.228300    1.683030   73.986800
  C     33.759100    3.150970   74.742100
  C     34.054400    3.113530   76.119800
  C     34.546400    1.868380   76.544200
  C     34.658800    0.909013   75.458600
  H     33.791900    4.011010   76.594700
  C     35.030200    1.575660   77.943400
  H     36.133700    1.632300   77.979000
  H     34.633300    0.530954   78.196900
  C     34.536200    2.493830   79.094800
  H     33.491600    2.454370   79.217900
  H     34.814200    3.488570   78.730300
  C     35.107200    2.097550   80.482000
  H     35.102000    1.003470   80.638600
  H     34.528300    2.694260   81.240900
  H     36.066400    2.519980   80.687100
  H     37.823800   -2.850040   75.440500
  H     33.327400    3.951250   74.191600

 Total Charge           Charge          ....    0
 Multiplicity           Mult            ....    1
 Number of Electrons    NEL             ....  134
 Basis Dimension        Dim             ....  322

ORBITAL ENERGIES
----------------

  NO   OCC          E(Eh)            E(eV)
   0   2.0000     -88.966194     -2420.8932
   1   2.0000     -88.966165     -2420.8924
   2   2.0000     -10.327945      -281.0377
   3   2.0000     -10.327013      -281.0123
   4   2.0000     -10.315216      -280.6913
   5   2.0000     -10.312196      -280.6091
   6   2.0000     -10.309888      -280.5463
   7   2.0000     -10.308377      -280.5052
   8   2.0000     -10.294676      -280.1324
   9   2.0000     -10.293023      -280.0874
  10   2.0000     -10.291802      -280.0542
  11   2.0000     -10.291727      -280.0521
  12   2.0000     -10.287289      -279.9314
  13   2.0000     -10.283064      -279.8164
  14   2.0000     -10.281376      -279.7705
  15   2.0000     -10.270501      -279.4745
  16   2.0000      -8.081625      -219.9122
  17   2.0000      -8.080633      -219.8852
  18   2.0000      -6.039783      -164.3509
  19   2.0000      -6.039095      -164.3321
  20   2.0000      -6.035731      -164.2406
  21   2.0000      -6.035136      -164.2244
  22   2.0000      -6.033045      -164.1675
  23   2.0000      -6.031517      -164.1259
  24   2.0000      -1.006189       -27.3798
  25   2.0000      -0.982213       -26.7274
  26   2.0000      -0.907204       -24.6863
  27   2.0000      -0.905281       -24.6340
  28   2.0000      -0.868516       -23.6335
  29   2.0000      -0.850104       -23.1325
  30   2.0000      -0.842827       -22.9345
  31   2.0000      -0.815775       -22.1984
  32   2.0000      -0.784292       -21.3417
  33   2.0000      -0.768137       -20.9021
  34   2.0000      -0.705678       -19.2025
  35   2.0000      -0.698777       -19.0147
  36   2.0000      -0.692316       -18.8389
  37   2.0000      -0.655799       -17.8452
  38   2.0000      -0.638467       -17.3736
  39   2.0000      -0.621408       -16.9094
  40   2.0000      -0.595380       -16.2011
  41   2.0000      -0.575941       -15.6721
  42   2.0000      -0.570180       -15.5154
  43   2.0000      -0.547943       -14.9103
  44   2.0000      -0.543680       -14.7943
  45   2.0000      -0.528324       -14.3764
  46   2.0000      -0.513728       -13.9793
  47   2.0000      -0.508626       -13.8404
  48   2.0000      -0.504826       -13.7370
  49   2.0000      -0.497185       -13.5291
  50   2.0000      -0.493552       -13.4302
  51   2.0000      -0.478577       -13.0227
  52   2.0000      -0.469107       -12.7651
  53   2.0000      -0.462397       -12.5825
  54   2.0000      -0.461324       -12.5533
  55   2.0000      -0.446251       -12.1431
  56   2.0000      -0.443275       -12.0621
  57   2.0000      -0.439351       -11.9554
  58   2.0000      -0.427024       -11.6199
  59   2.0000      -0.422602       -11.4996
  60   2.0000      -0.420337       -11.4379
  61   2.0000      -0.410644       -11.1742
  62   2.0000      -0.405035       -11.0216
  63   2.0000      -0.349894        -9.5211
  64   2.0000      -0.333927        -9.0866
  65   2.0000      -0.325462        -8.8563
  66   2.0000      -0.283790        -7.7223
  67   0.0000       0.027557         0.7499
  68   0.0000       0.067723         1.8428
  69   0.0000       0.108128         2.9423
  70   0.0000       0.123797         3.3687
  71   0.0000       0.133179         3.6240

MULLIKEN ATOMIC CHARGES
-----------------------
   0 S :    0.111647
   1 C :   -0.099630
   2 C :   -0.104739
   3 C :    0.023220
   4 C :   -0.132044
   5 H :    0.011874
   6 C :    0.059928
   7 H :    0.024991
   8 H :    0.023087
   9 C :   -0.084459
  10 H :    0.028172
  11 H :    0.026141
  12 C :   -0.027489
  13 H :    0.016782
  14 H :    0.056397
  15 H :    0.022921
  16 S :    0.122696
  17 C :   -0.108794
  18 C :   -0.043247
  19 C :   -0.010329
  20 C :   -0.141468
  21 H :    0.006130
  22 C :    0.002395
  23 H :    0.053538
  24 H :    0.046015
  25 C :   -0.085987
  26 H :    0.026243
  27 H :    0.028971
  28 C :   -0.039877
  29 H :    0.048759
  30 H :    0.031808
  31 H :    0.022643
  32 H :    0.033138
  33 H :    0.050565
Sum of atomic charges:    0.0000000

LOEWDIN ATOMIC CHARGES
----------------------
   0 S :    0.415730
   1 C :   -0.188156
   2 C :   -0.053897
   3 C :   -0.065863
   4 C :   -0.195678
   5 H :    0.031182
   6 C :   -0.036998
   7 H :    0.028307
   8 H :    0.034487
   9 C :   -0.040226
  10 H :    0.025571
  11 H :    0.020859
  12 C :   -0.057488
  13 H :    0.014989
  14 H :    0.032721
  15 H :    0.022479
  16 S :    0.455619
  17 C :   -0.198653
  18 C :   -0.071962
  19 C :   -0.060941
  20 C :   -0.215318
  21 H :    0.026310
  22 C :   -0.047036
  23 H :    0.032902
  24 H :    0.038409
  25 C :   -0.040146
  26 H :    0.017104
  27 H :    0.022127
  28 C :   -0.066815
  29 H :    0.031774
  30 H :    0.034526
  31 H :    0.020077
  32 H :    0.011991
  33 H :    0.022014

  Mayer bond orders larger than 0.100000
B(  0-S ,  1-C ) :   1.1654 B(  0-S ,  4-C ) :   1.1348 B(  1-C ,  2-C ) :   1.5795
B(  1-C , 32-H ) :   0.9774 B(  2-C ,  3-C ) :   1.2500 B(  2-C ,  6-C ) :   1.0064
B(  3-C ,  4-C ) :   1.5759 B(  3-C ,  5-H ) :   0.9969 B(  4-C , 20-C ) :   1.0311
B(  6-C ,  7-H ) :   0.9493 B(  6-C ,  8-H ) :   0.9436 B(  6-C ,  9-C ) :   1.0746
B(  9-C , 10-H ) :   0.9566 B(  9-C , 11-H ) :   0.9561 B(  9-C , 12-C ) :   1.0771
B( 12-C , 13-H ) :   0.9772 B( 12-C , 14-H ) :   0.9704 B( 12-C , 15-H ) :   0.9729
B( 16-S , 17-C ) :   1.2031 B( 16-S , 20-C ) :   1.1947 B( 17-C , 18-C ) :   1.5234
B( 17-C , 20-C ) :   0.1200 B( 17-C , 33-H ) :   0.9718 B( 18-C , 19-C ) :   1.2938
B( 18-C , 21-H ) :   1.0067 B( 19-C , 20-C ) :   1.4864 B( 19-C , 22-C ) :   1.0348
B( 22-C , 23-H ) :   0.9360 B( 22-C , 24-H ) :   0.9342 B( 22-C , 25-C ) :   1.0790
B( 25-C , 26-H ) :   0.9637 B( 25-C , 27-H ) :   0.9467 B( 25-C , 28-C ) :   1.0802
B( 28-C , 29-H ) :   0.9738 B( 28-C , 30-H ) :   0.9727 B( 28-C , 31-H ) :   0.9737

Dispersion correction           -0.013985474
FINAL SINGLE POINT ENERGY     -1339.867403940324

DIPOLE MOMENT
-------------
                                X             Y             Z
Electronic contribution:      1.74228       8.09259      -5.97955
Nuclear contribution   :     -1.82590      -8.21570       6.04306
                        -----------------------------------------
Total Dipole Moment    :     -0.08362      -0.12311       0.06351
                        -----------------------------------------
Magnitude (a.u.)       :      0.16181
Magnitude (Debye)      :      0.41128

Rotational constants in cm-1:     0.022572     0.007667     0.006084
Rotational constants in MHz :   676.692291   229.858555   182.390922

                             ****ORCA TERMINATED NORMALLY****
TOTAL RUN TIME: 0 days 0 hours 0 minutes 27 seconds 531 msec
