                         Program Version 4.2.1 -  RELEASE  -
|  1> ! wB97X-D3 SP def2-SVP
|  2> %pal
|  3> nprocs 16
|  4> end
|  5>
|  6> * xyz 0 1
|  7> S 	 45.3775 	 24.7617 	 81.5817
|  8> C 	 45.8385 	 25.3941 	 80.0398
|  9> C 	 45.745 	 24.4791 	 78.9895
| 10> C 	 45.0863 	 23.3184 	 79.4043
| 11> C 	 44.8704 	 23.2124 	 80.7619
| 12> H 	 44.7885 	 22.5068 	 78.8119
| 13> C 	 46.226 	 24.689 	 77.576
| 14> H 	 45.8784 	 23.8965 	 76.876
| 15> H 	 47.3335 	 24.6336 	 77.6317
| 16> C 	 45.7642 	 26.0006 	 77.0002
| 17> H 	 44.7241 	 26.1728 	 77.3384
| 18> H 	 46.2563 	 26.884 	 77.328
| 19> C 	 45.7285 	 25.9813 	 75.5572
| 20> H 	 45.3039 	 26.8506 	 75.0544
| 21> H 	 46.6711 	 25.7492 	 75.0038
| 22> H 	 44.8695 	 25.3493 	 75.2082
| 23> S 	 45.5899 	 20.9814 	 82.2152
| 24> C 	 44.368 	 19.9887 	 83.0252
| 25> C 	 43.1379 	 20.3779 	 82.6094
| 26> C 	 43.0928 	 21.5895 	 81.8122
| 27> C 	 44.3677 	 22.0163 	 81.462
| 28> H 	 42.2319 	 19.8588 	 82.8531
| 29> C 	 41.8095 	 22.2725 	 81.451
| 30> H 	 42.0948 	 22.9437 	 80.6206
| 31> H 	 41.4437 	 22.9108 	 82.2603
| 32> C 	 40.7333 	 21.4011 	 80.9776
| 33> H 	 40.6933 	 20.5842 	 81.6916
| 34> H 	 40.9381 	 21.0252 	 79.9992
| 35> C 	 39.3455 	 22.039 	 81.0406
| 36> H 	 39.227 	 22.9397 	 80.4666
| 37> H 	 39.163 	 22.3493 	 82.0802
| 38> H 	 38.5373 	 21.3176 	 80.7623
| 39> H 	 46.3064 	 26.35 	 79.8951
| 40> H 	 44.4509 	 19.1209 	 83.6453
| 41> *
| 42>
| 43>                          ****END OF INPUT****

CARTESIAN COORDINATES (ANGSTROEM)
---------------------------------
  S     45.377500   24.761700   81.581700
  C     45.838500   25.394100   80.039800
  C     45.745000   24.479100   78.989500
  C     45.086300   23.318400   79.404300
  C     44.870400   23.212400   80.761900
  H     44.788500   22.506800   78.811900
  C     46.226000   24.689000   77.576000
  H     45.878400   23.896500   76.876000
  H     47.333500   24.633600   77.631700
  C     45.764200   26.000600   77.000200
  H     44.724100   26.172800   77.338400
  H     46.256300   26.884000   77.328000
  C     45.728500   25.981300   75.557200
  H     45.303900   26.850600   75.054400
  H     46.671100   25.749200   75.003800
  H     44.869500   25.349300   75.208200
  S     45.589900   20.981400   82.215200
  C     44.368000   19.988700   83.025200
  C     43.137900   20.377900   82.609400
  C     43.092800   21.589500   81.812200
  C     44.367700   22.016300   81.462000
  H     42.231900   19.858800   82.853100
  C     41.809500   22.272500   81.451000
  H     42.094800   22.943700   80.620600
  H     41.443700   22.910800   82.260300
  C     40.733300   21.401100   80.977600
  H     40.693300   20.584200   81.691600
  H     40.938100   21.025200   79.999200
  C     39.345500   22.039000   81.040600
  H     39.227000   22.939700   80.466600
  H     39.163000   22.349300   82.080200
  H     38.537300   21.317600   80.762300
  H     46.306400   26.350000   79.895100
  H     44.450900   19.120900   83.645300

 Total Charge           Charge          ....    0
 Multiplicity           Mult            ....    1
 Number of Electrons    NEL             ....  134
 Basis Dimension        Dim             ....  322

ORBITAL ENERGIES
----------------

  NO   OCC          E(Eh)            E(eV)
   0   2.0000     -88.968632     -2420.9596
   1   2.0000     -88.962148     -2420.7831
   2   2.0000     -10.330740      -281.1137
   3   2.0000     -10.326953      -281.0107
   4   2.0000     -10.316042      -280.7138
   5   2.0000     -10.313008      -280.6312
   6   2.0000     -10.302263      -280.3388
   7   2.0000     -10.297424      -280.2072
   8   2.0000     -10.295185      -280.1462
   9   2.0000     -10.289060      -279.9796
  10   2.0000     -10.288933      -279.9761
  11   2.0000     -10.283905      -279.8393
  12   2.0000     -10.279050      -279.7072
  13   2.0000     -10.278462      -279.6912
  14   2.0000     -10.278243      -279.6852
  15   2.0000     -10.277319      -279.6601
  16   2.0000      -8.082301      -219.9306
  17   2.0000      -8.076296      -219.7672
  18   2.0000      -6.040749      -164.3771
  19   2.0000      -6.037022      -164.2757
  20   2.0000      -6.034993      -164.2205
  21   2.0000      -6.033132      -164.1699
  22   2.0000      -6.030842      -164.1075
  23   2.0000      -6.026909      -164.0005
  24   2.0000      -1.000461       -27.2239
  25   2.0000      -0.982016       -26.7220
  26   2.0000      -0.923297       -25.1242
  27   2.0000      -0.920083       -25.0367
  28   2.0000      -0.870043       -23.6751
  29   2.0000      -0.856529       -23.3073
  30   2.0000      -0.845447       -23.0058
  31   2.0000      -0.817928       -22.2570
  32   2.0000      -0.780430       -21.2366
  33   2.0000      -0.767948       -20.8969
  34   2.0000      -0.708337       -19.2748
  35   2.0000      -0.701227       -19.0814
  36   2.0000      -0.695841       -18.9348
  37   2.0000      -0.655166       -17.8280
  38   2.0000      -0.646444       -17.5906
  39   2.0000      -0.616394       -16.7729
  40   2.0000      -0.599448       -16.3118
  41   2.0000      -0.578077       -15.7303
  42   2.0000      -0.575992       -15.6735
  43   2.0000      -0.571250       -15.5445
  44   2.0000      -0.531394       -14.4600
  45   2.0000      -0.524039       -14.2598
  46   2.0000      -0.522165       -14.2088
  47   2.0000      -0.511163       -13.9094
  48   2.0000      -0.506784       -13.7903
  49   2.0000      -0.497785       -13.5454
  50   2.0000      -0.490599       -13.3499
  51   2.0000      -0.476806       -12.9745
  52   2.0000      -0.468403       -12.7459
  53   2.0000      -0.462911       -12.5965
  54   2.0000      -0.456931       -12.4337
  55   2.0000      -0.450964       -12.2714
  56   2.0000      -0.449082       -12.2201
  57   2.0000      -0.436883       -11.8882
  58   2.0000      -0.433255       -11.7895
  59   2.0000      -0.425345       -11.5742
  60   2.0000      -0.419679       -11.4200
  61   2.0000      -0.409617       -11.1462
  62   2.0000      -0.407894       -11.0994
  63   2.0000      -0.339736        -9.2447
  64   2.0000      -0.328730        -8.9452
  65   2.0000      -0.319851        -8.7036
  66   2.0000      -0.305328        -8.3084
  67   0.0000       0.042265         1.1501
  68   0.0000       0.048575         1.3218
  69   0.0000       0.115283         3.1370
  70   0.0000       0.123551         3.3620
  71   0.0000       0.129187         3.5154

MULLIKEN ATOMIC CHARGES
-----------------------
   0 S :    0.126439
   1 C :   -0.114898
   2 C :   -0.087160
   3 C :    0.057117
   4 C :   -0.177353
   5 H :   -0.006741
   6 C :    0.086176
   7 H :    0.026826
   8 H :    0.048449
   9 C :   -0.050376
  10 H :    0.027410
  11 H :    0.020915
  12 C :   -0.076684
  13 H :    0.017141
  14 H :    0.043601
  15 H :    0.022734
  16 S :    0.101872
  17 C :   -0.063152
  18 C :   -0.038128
  19 C :   -0.038747
  20 C :   -0.195406
  21 H :    0.012198
  22 C :    0.098007
  23 H :    0.025023
  24 H :    0.034185
  25 C :   -0.073822
  26 H :    0.018562
  27 H :    0.026372
  28 C :   -0.051818
  29 H :    0.027435
  30 H :    0.022248
  31 H :    0.042037
  32 H :    0.041956
  33 H :    0.047582
Sum of atomic charges:   -0.0000000

LOEWDIN ATOMIC CHARGES
----------------------
   0 S :    0.392648
   1 C :   -0.197271
   2 C :   -0.067046
   3 C :   -0.046596
   4 C :   -0.183929
   5 H :    0.026243
   6 C :   -0.028702
   7 H :    0.035748
   8 H :    0.040997
   9 C :   -0.052637
  10 H :    0.032735
  11 H :    0.018928
  12 C :   -0.080788
  13 H :    0.026700
  14 H :    0.028702
  15 H :    0.030951
  16 S :    0.389696
  17 C :   -0.174354
  18 C :   -0.073062
  19 C :   -0.050386
  20 C :   -0.198449
  21 H :    0.024337
  22 C :   -0.036374
  23 H :    0.035677
  24 H :    0.035053
  25 C :   -0.040025
  26 H :    0.020653
  27 H :    0.022332
  28 C :   -0.063696
  29 H :    0.019768
  30 H :    0.024638
  31 H :    0.031783
  32 H :    0.023716
  33 H :    0.032007

  Mayer bond orders larger than 0.100000
B(  0-S ,  1-C ) :   1.1592 B(  0-S ,  4-C ) :   1.1235 B(  1-C ,  2-C ) :   1.5915
B(  1-C ,  4-C ) :   0.1035 B(  1-C , 32-H ) :   0.9652 B(  2-C ,  3-C ) :   1.2544
B(  2-C ,  6-C ) :   1.0207 B(  3-C ,  4-C ) :   1.5883 B(  3-C ,  5-H ) :   0.9990
B(  4-C , 20-C ) :   1.0251 B(  6-C ,  7-H ) :   0.9510 B(  6-C ,  8-H ) :   0.9192
B(  6-C ,  9-C ) :   1.0594 B(  9-C , 10-H ) :   0.9539 B(  9-C , 11-H ) :   0.9427
B(  9-C , 12-C ) :   1.1150 B( 12-C , 13-H ) :   0.9634 B( 12-C , 14-H ) :   0.9692
B( 12-C , 15-H ) :   0.9644 B( 16-S , 17-C ) :   1.1357 B( 16-S , 20-C ) :   1.1324
B( 17-C , 18-C ) :   1.6455 B( 17-C , 33-H ) :   0.9646 B( 18-C , 19-C ) :   1.2206
B( 18-C , 21-H ) :   0.9815 B( 19-C , 20-C ) :   1.6254 B( 19-C , 22-C ) :   1.0425
B( 22-C , 23-H ) :   0.9202 B( 22-C , 24-H ) :   0.9287 B( 22-C , 25-C ) :   1.0720
B( 25-C , 26-H ) :   0.9547 B( 25-C , 27-H ) :   0.9519 B( 25-C , 28-C ) :   1.0868
B( 28-C , 29-H ) :   0.9746 B( 28-C , 30-H ) :   0.9728 B( 28-C , 31-H ) :   0.9736

Dispersion correction           -0.013405715
FINAL SINGLE POINT ENERGY     -1339.871200623379

DIPOLE MOMENT
-------------
                                X             Y             Z
Electronic contribution:     15.83574      -6.37633      20.08378
Nuclear contribution   :    -16.22275       6.42620     -20.52565
                        -----------------------------------------
Total Dipole Moment    :     -0.38701       0.04987      -0.44186
                        -----------------------------------------
Magnitude (a.u.)       :      0.58950
Magnitude (Debye)      :      1.49838

Rotational constants in cm-1:     0.018746     0.007376     0.006099
Rotational constants in MHz :   561.985396   221.121863   182.846516

                             ****ORCA TERMINATED NORMALLY****
TOTAL RUN TIME: 0 days 0 hours 0 minutes 28 seconds 914 msec
