                         Program Version 4.2.1 -  RELEASE  -
|  1> ! wB97X-D3 SP def2-SVP
|  2> %pal
|  3> nprocs 16
|  4> end
|  5>
|  6> * xyz 0 1
|  7> S 	 -2.25844 	 29.4168 	 47.1092
|  8> C 	 -1.34249 	 28.8729 	 45.7204
|  9> C 	 -1.40732 	 29.7757 	 44.661
| 10> C 	 -2.2253 	 30.9336 	 45.0373
| 11> C 	 -2.71618 	 30.8799 	 46.3486
| 12> H 	 -2.45523 	 31.7886 	 44.3998
| 13> C 	 -0.760862 	 29.6134 	 43.2973
| 14> H 	 -0.261275 	 28.5896 	 43.2757
| 15> H 	 0.0515688 	 30.4222 	 43.3682
| 16> C 	 -1.56033 	 29.8732 	 41.9285
| 17> H 	 -2.44992 	 29.1641 	 42.0273
| 18> H 	 -1.81849 	 30.9338 	 41.8766
| 19> C 	 -0.810934 	 29.3642 	 40.6607
| 20> H 	 0.00813158 	 30.0496 	 40.3894
| 21> H 	 -0.446552 	 28.3288 	 40.802
| 22> H 	 -1.46057 	 29.2977 	 39.8177
| 23> S 	 -5.08223 	 31.1351 	 47.6969
| 24> C 	 -5.47847 	 32.6794 	 48.3998
| 25> C 	 -4.52125 	 33.6643 	 48.1118
| 26> C 	 -3.40501 	 33.1556 	 47.4378
| 27> C 	 -3.5506 	 31.8328 	 47.0787
| 28> H 	 -4.67655 	 34.5872 	 48.6288
| 29> C 	 -2.11239 	 33.9389 	 47.2756
| 30> H 	 -2.42792 	 35.0049 	 47.1717
| 31> H 	 -1.70357 	 33.6755 	 46.3085
| 32> C 	 -1.06498 	 33.913 	 48.4531
| 33> H 	 -1.05849 	 32.9575 	 48.9674
| 34> H 	 -1.49071 	 34.6273 	 49.2276
| 35> C 	 0.290909 	 34.3279 	 47.8766
| 36> H 	 0.445675 	 34.0716 	 46.8438
| 37> H 	 1.15257 	 33.8066 	 48.3247
| 38> H 	 0.50058 	 35.3268 	 48.08
| 39> H 	 -0.795602 	 27.9792 	 45.6956
| 40> H 	 -6.25486 	 32.9256 	 49.094
| 41> *
| 42>
| 43>                          ****END OF INPUT****

CARTESIAN COORDINATES (ANGSTROEM)
---------------------------------
  S     -2.258440   29.416800   47.109200
  C     -1.342490   28.872900   45.720400
  C     -1.407320   29.775700   44.661000
  C     -2.225300   30.933600   45.037300
  C     -2.716180   30.879900   46.348600
  H     -2.455230   31.788600   44.399800
  C     -0.760862   29.613400   43.297300
  H     -0.261275   28.589600   43.275700
  H      0.051569   30.422200   43.368200
  C     -1.560330   29.873200   41.928500
  H     -2.449920   29.164100   42.027300
  H     -1.818490   30.933800   41.876600
  C     -0.810934   29.364200   40.660700
  H      0.008132   30.049600   40.389400
  H     -0.446552   28.328800   40.802000
  H     -1.460570   29.297700   39.817700
  S     -5.082230   31.135100   47.696900
  C     -5.478470   32.679400   48.399800
  C     -4.521250   33.664300   48.111800
  C     -3.405010   33.155600   47.437800
  C     -3.550600   31.832800   47.078700
  H     -4.676550   34.587200   48.628800
  C     -2.112390   33.938900   47.275600
  H     -2.427920   35.004900   47.171700
  H     -1.703570   33.675500   46.308500
  C     -1.064980   33.913000   48.453100
  H     -1.058490   32.957500   48.967400
  H     -1.490710   34.627300   49.227600
  C      0.290909   34.327900   47.876600
  H      0.445675   34.071600   46.843800
  H      1.152570   33.806600   48.324700
  H      0.500580   35.326800   48.080000
  H     -0.795602   27.979200   45.695600
  H     -6.254860   32.925600   49.094000

 Total Charge           Charge          ....    0
 Multiplicity           Mult            ....    1
 Number of Electrons    NEL             ....  134
 Basis Dimension        Dim             ....  322

ORBITAL ENERGIES
----------------

  NO   OCC          E(Eh)            E(eV)
   0   2.0000     -88.966733     -2420.9079
   1   2.0000     -88.964656     -2420.8514
   2   2.0000     -10.327881      -281.0359
   3   2.0000     -10.325723      -280.9772
   4   2.0000     -10.315341      -280.6947
   5   2.0000     -10.310409      -280.5605
   6   2.0000     -10.308230      -280.5012
   7   2.0000     -10.308157      -280.4992
   8   2.0000     -10.303483      -280.3720
   9   2.0000     -10.300934      -280.3027
  10   2.0000     -10.297728      -280.2154
  11   2.0000     -10.292407      -280.0706
  12   2.0000     -10.291415      -280.0436
  13   2.0000     -10.289451      -279.9902
  14   2.0000     -10.284647      -279.8595
  15   2.0000     -10.270692      -279.4797
  16   2.0000      -8.080826      -219.8904
  17   2.0000      -8.080010      -219.8683
  18   2.0000      -6.039213      -164.3353
  19   2.0000      -6.038428      -164.3140
  20   2.0000      -6.035434      -164.2325
  21   2.0000      -6.034355      -164.2032
  22   2.0000      -6.031726      -164.1316
  23   2.0000      -6.030902      -164.1092
  24   2.0000      -1.004567       -27.3357
  25   2.0000      -0.980701       -26.6862
  26   2.0000      -0.902254       -24.5516
  27   2.0000      -0.900456       -24.5027
  28   2.0000      -0.866499       -23.5786
  29   2.0000      -0.852573       -23.1997
  30   2.0000      -0.843241       -22.9458
  31   2.0000      -0.811251       -22.0753
  32   2.0000      -0.779814       -21.2198
  33   2.0000      -0.769891       -20.9498
  34   2.0000      -0.709470       -19.3057
  35   2.0000      -0.699085       -19.0231
  36   2.0000      -0.691993       -18.8301
  37   2.0000      -0.659878       -17.9562
  38   2.0000      -0.640203       -17.4208
  39   2.0000      -0.614783       -16.7291
  40   2.0000      -0.589018       -16.0280
  41   2.0000      -0.566558       -15.4168
  42   2.0000      -0.564308       -15.3556
  43   2.0000      -0.556155       -15.1337
  44   2.0000      -0.523334       -14.2406
  45   2.0000      -0.515073       -14.0158
  46   2.0000      -0.511889       -13.9292
  47   2.0000      -0.509817       -13.8728
  48   2.0000      -0.501933       -13.6583
  49   2.0000      -0.501323       -13.6417
  50   2.0000      -0.493901       -13.4397
  51   2.0000      -0.477366       -12.9898
  52   2.0000      -0.469183       -12.7671
  53   2.0000      -0.468290       -12.7428
  54   2.0000      -0.455953       -12.4071
  55   2.0000      -0.451987       -12.2992
  56   2.0000      -0.442628       -12.0445
  57   2.0000      -0.438098       -11.9213
  58   2.0000      -0.436559       -11.8794
  59   2.0000      -0.424849       -11.5607
  60   2.0000      -0.420530       -11.4432
  61   2.0000      -0.411668       -11.2020
  62   2.0000      -0.409406       -11.1405
  63   2.0000      -0.337732        -9.1902
  64   2.0000      -0.334358        -9.0983
  65   2.0000      -0.324399        -8.8273
  66   2.0000      -0.292654        -7.9635
  67   0.0000       0.032404         0.8818
  68   0.0000       0.067385         1.8336
  69   0.0000       0.113996         3.1020
  70   0.0000       0.118264         3.2181
  71   0.0000       0.130755         3.5580

MULLIKEN ATOMIC CHARGES
-----------------------
   0 S :    0.115938
   1 C :   -0.110865
   2 C :   -0.070229
   3 C :    0.032728
   4 C :   -0.164938
   5 H :    0.016390
   6 C :   -0.005408
   7 H :    0.030815
   8 H :    0.051386
   9 C :   -0.093243
  10 H :    0.050014
  11 H :    0.045750
  12 C :   -0.047905
  13 H :    0.039297
  14 H :    0.034665
  15 H :    0.032547
  16 S :    0.111390
  17 C :   -0.085247
  18 C :   -0.053132
  19 C :   -0.009406
  20 C :   -0.172852
  21 H :    0.012708
  22 C :    0.051325
  23 H :    0.024557
  24 H :    0.014974
  25 C :   -0.061231
  26 H :    0.039715
  27 H :    0.036428
  28 C :   -0.017266
  29 H :    0.030112
  30 H :    0.022828
  31 H :    0.023634
  32 H :    0.026827
  33 H :    0.047693
Sum of atomic charges:   -0.0000000

LOEWDIN ATOMIC CHARGES
----------------------
   0 S :    0.423704
   1 C :   -0.197907
   2 C :   -0.061717
   3 C :   -0.067522
   4 C :   -0.210996
   5 H :    0.030366
   6 C :   -0.047371
   7 H :    0.033855
   8 H :    0.041106
   9 C :   -0.041032
  10 H :    0.035038
  11 H :    0.024782
  12 C :   -0.066116
  13 H :    0.026979
  14 H :    0.029482
  15 H :    0.023695
  16 S :    0.396738
  17 C :   -0.182981
  18 C :   -0.073429
  19 C :   -0.058233
  20 C :   -0.189452
  21 H :    0.029601
  22 C :   -0.030689
  23 H :    0.033358
  24 H :    0.023150
  25 C :   -0.036126
  26 H :    0.023861
  27 H :    0.031841
  28 C :   -0.063824
  29 H :    0.025996
  30 H :    0.031870
  31 H :    0.019325
  32 H :    0.016427
  33 H :    0.026217

  Mayer bond orders larger than 0.100000
B(  0-S ,  1-C ) :   1.1361 B(  0-S ,  4-C ) :   1.1712 B(  1-C ,  2-C ) :   1.6071
B(  1-C , 32-H ) :   0.9749 B(  2-C ,  3-C ) :   1.2236 B(  2-C ,  6-C ) :   1.0232
B(  3-C ,  4-C ) :   1.5778 B(  3-C ,  5-H ) :   0.9916 B(  4-C , 20-C ) :   1.0163
B(  6-C ,  7-H ) :   0.9469 B(  6-C ,  8-H ) :   0.9349 B(  6-C ,  9-C ) :   1.0453
B(  9-C , 10-H ) :   0.9610 B(  9-C , 11-H ) :   0.9534 B(  9-C , 12-C ) :   1.0822
B( 12-C , 13-H ) :   0.9766 B( 12-C , 14-H ) :   0.9733 B( 12-C , 15-H ) :   0.9757
B( 16-S , 17-C ) :   1.1604 B( 16-S , 20-C ) :   1.1340 B( 17-C , 18-C ) :   1.6188
B( 17-C , 20-C ) :   0.1079 B( 17-C , 33-H ) :   0.9647 B( 18-C , 19-C ) :   1.2398
B( 18-C , 21-H ) :   0.9911 B( 19-C , 20-C ) :   1.6050 B( 19-C , 22-C ) :   1.0457
B( 22-C , 23-H ) :   0.9346 B( 22-C , 24-H ) :   0.9379 B( 22-C , 25-C ) :   1.0423
B( 25-C , 26-H ) :   0.9675 B( 25-C , 27-H ) :   0.9587 B( 25-C , 28-C ) :   1.0620
B( 28-C , 29-H ) :   0.9794 B( 28-C , 30-H ) :   0.9727 B( 28-C , 31-H ) :   0.9776

Dispersion correction           -0.013615680
FINAL SINGLE POINT ENERGY     -1339.871127956934

DIPOLE MOMENT
-------------
                                X             Y             Z
Electronic contribution:    -18.50062      -9.22942      16.39553
Nuclear contribution   :     18.89767       9.56222     -16.67064
                        -----------------------------------------
Total Dipole Moment    :      0.39704       0.33280      -0.27511
                        -----------------------------------------
Magnitude (a.u.)       :      0.58659
Magnitude (Debye)      :      1.49098

Rotational constants in cm-1:     0.018201     0.007701     0.006621
Rotational constants in MHz :   545.660948   230.855829   198.499817

                             ****ORCA TERMINATED NORMALLY****
TOTAL RUN TIME: 0 days 0 hours 0 minutes 33 seconds 593 msec
