                         Program Version 4.2.1 -  RELEASE  -
|  1> ! wB97X-D3 SP def2-SVP
|  2> %pal
|  3> nprocs 16
|  4> end
|  5>
|  6> * xyz 0 1
|  7> S 	 -49.6568 	 61.557 	 131.23
|  8> C 	 -48.2229 	 61.8864 	 130.272
|  9> C 	 -48.4695 	 61.6957 	 128.919
| 10> C 	 -49.8579 	 61.5045 	 128.678
| 11> C 	 -50.6552 	 61.3341 	 129.777
| 12> H 	 -50.2097 	 61.2264 	 127.733
| 13> C 	 -47.3452 	 61.8002 	 127.906
| 14> H 	 -46.4627 	 62.1996 	 128.42
| 15> H 	 -47.6684 	 62.5529 	 127.305
| 16> C 	 -47.119 	 60.458 	 127.133
| 17> H 	 -46.7493 	 59.7899 	 127.893
| 18> H 	 -47.9893 	 59.9291 	 126.807
| 19> C 	 -46.0217 	 60.7308 	 126.062
| 20> H 	 -45.0855 	 61.0318 	 126.608
| 21> H 	 -45.7747 	 59.8409 	 125.537
| 22> H 	 -46.3718 	 61.5615 	 125.51
| 23> S 	 -52.884 	 62.3838 	 130.987
| 24> C 	 -54.4311 	 61.5594 	 130.893
| 25> C 	 -54.3294 	 60.508 	 129.957
| 26> C 	 -53.0563 	 60.28 	 129.437
| 27> C 	 -52.1074 	 61.1824 	 129.936
| 28> H 	 -55.2355 	 60.0128 	 129.616
| 29> C 	 -52.9257 	 59.3612 	 128.255
| 30> H 	 -52.1535 	 59.7905 	 127.577
| 31> H 	 -53.8589 	 59.426 	 127.685
| 32> C 	 -52.5078 	 57.911 	 128.546
| 33> H 	 -52.9347 	 57.5902 	 129.555
| 34> H 	 -51.3535 	 57.7699 	 128.615
| 35> C 	 -52.9742 	 56.9781 	 127.416
| 36> H 	 -53.7932 	 57.2633 	 126.849
| 37> H 	 -53.1699 	 55.98 	 127.656
| 38> H 	 -52.2085 	 56.9677 	 126.685
| 39> H 	 -47.2085 	 62.0472 	 130.595
| 40> H 	 -55.3248 	 61.8836 	 131.384
| 41> *
| 42>
| 43>                          ****END OF INPUT****

CARTESIAN COORDINATES (ANGSTROEM)
---------------------------------
  S    -49.656800   61.557000  131.230000
  C    -48.222900   61.886400  130.272000
  C    -48.469500   61.695700  128.919000
  C    -49.857900   61.504500  128.678000
  C    -50.655200   61.334100  129.777000
  H    -50.209700   61.226400  127.733000
  C    -47.345200   61.800200  127.906000
  H    -46.462700   62.199600  128.420000
  H    -47.668400   62.552900  127.305000
  C    -47.119000   60.458000  127.133000
  H    -46.749300   59.789900  127.893000
  H    -47.989300   59.929100  126.807000
  C    -46.021700   60.730800  126.062000
  H    -45.085500   61.031800  126.608000
  H    -45.774700   59.840900  125.537000
  H    -46.371800   61.561500  125.510000
  S    -52.884000   62.383800  130.987000
  C    -54.431100   61.559400  130.893000
  C    -54.329400   60.508000  129.957000
  C    -53.056300   60.280000  129.437000
  C    -52.107400   61.182400  129.936000
  H    -55.235500   60.012800  129.616000
  C    -52.925700   59.361200  128.255000
  H    -52.153500   59.790500  127.577000
  H    -53.858900   59.426000  127.685000
  C    -52.507800   57.911000  128.546000
  H    -52.934700   57.590200  129.555000
  H    -51.353500   57.769900  128.615000
  C    -52.974200   56.978100  127.416000
  H    -53.793200   57.263300  126.849000
  H    -53.169900   55.980000  127.656000
  H    -52.208500   56.967700  126.685000
  H    -47.208500   62.047200  130.595000
  H    -55.324800   61.883600  131.384000

 Total Charge           Charge          ....    0
 Multiplicity           Mult            ....    1
 Number of Electrons    NEL             ....  134
 Basis Dimension        Dim             ....  322

ORBITAL ENERGIES
----------------

  NO   OCC          E(Eh)            E(eV)
   0   2.0000     -88.967837     -2420.9379
   1   2.0000     -88.963252     -2420.8132
   2   2.0000     -10.331742      -281.1410
   3   2.0000     -10.331579      -281.1366
   4   2.0000     -10.320092      -280.8240
   5   2.0000     -10.309925      -280.5473
   6   2.0000     -10.301518      -280.3185
   7   2.0000     -10.298598      -280.2391
   8   2.0000     -10.296676      -280.1868
   9   2.0000     -10.295393      -280.1519
  10   2.0000     -10.293453      -280.0991
  11   2.0000     -10.288901      -279.9752
  12   2.0000     -10.288575      -279.9664
  13   2.0000     -10.287781      -279.9448
  14   2.0000     -10.279540      -279.7205
  15   2.0000     -10.263320      -279.2791
  16   2.0000      -8.081828      -219.9177
  17   2.0000      -8.077427      -219.7980
  18   2.0000      -6.040271      -164.3641
  19   2.0000      -6.036320      -164.2566
  20   2.0000      -6.036014      -164.2483
  21   2.0000      -6.032799      -164.1608
  22   2.0000      -6.031971      -164.1383
  23   2.0000      -6.028148      -164.0343
  24   2.0000      -1.003303       -27.3013
  25   2.0000      -0.981862       -26.7178
  26   2.0000      -0.912532       -24.8313
  27   2.0000      -0.907832       -24.7034
  28   2.0000      -0.866717       -23.5846
  29   2.0000      -0.855168       -23.2703
  30   2.0000      -0.844168       -22.9710
  31   2.0000      -0.816174       -22.2092
  32   2.0000      -0.784627       -21.3508
  33   2.0000      -0.769777       -20.9467
  34   2.0000      -0.715257       -19.4631
  35   2.0000      -0.704074       -19.1588
  36   2.0000      -0.692961       -18.8564
  37   2.0000      -0.664858       -18.0917
  38   2.0000      -0.641795       -17.4641
  39   2.0000      -0.622123       -16.9288
  40   2.0000      -0.597518       -16.2593
  41   2.0000      -0.570855       -15.5338
  42   2.0000      -0.560589       -15.2544
  43   2.0000      -0.554508       -15.0889
  44   2.0000      -0.536733       -14.6052
  45   2.0000      -0.527932       -14.3658
  46   2.0000      -0.521688       -14.1958
  47   2.0000      -0.512678       -13.9507
  48   2.0000      -0.503453       -13.6996
  49   2.0000      -0.498782       -13.5725
  50   2.0000      -0.491899       -13.3852
  51   2.0000      -0.480689       -13.0802
  52   2.0000      -0.468885       -12.7590
  53   2.0000      -0.463543       -12.6136
  54   2.0000      -0.457715       -12.4551
  55   2.0000      -0.454839       -12.3768
  56   2.0000      -0.446875       -12.1601
  57   2.0000      -0.440188       -11.9781
  58   2.0000      -0.437686       -11.9100
  59   2.0000      -0.426797       -11.6137
  60   2.0000      -0.420806       -11.4507
  61   2.0000      -0.411570       -11.1994
  62   2.0000      -0.409565       -11.1448
  63   2.0000      -0.343116        -9.3367
  64   2.0000      -0.333711        -9.0807
  65   2.0000      -0.325107        -8.8466
  66   2.0000      -0.291457        -7.9309
  67   0.0000       0.025945         0.7060
  68   0.0000       0.066253         1.8028
  69   0.0000       0.105822         2.8796
  70   0.0000       0.118435         3.2228
  71   0.0000       0.131193         3.5699

MULLIKEN ATOMIC CHARGES
-----------------------
   0 S :    0.106092
   1 C :   -0.111301
   2 C :   -0.144094
   3 C :    0.078044
   4 C :   -0.146653
   5 H :   -0.017348
   6 C :    0.107671
   7 H :    0.016232
   8 H :    0.008573
   9 C :   -0.091244
  10 H :    0.022303
  11 H :    0.030221
  12 C :   -0.008099
  13 H :    0.029830
  14 H :    0.034685
  15 H :    0.029501
  16 S :    0.114656
  17 C :   -0.094601
  18 C :   -0.053223
  19 C :    0.019805
  20 C :   -0.175299
  21 H :    0.022158
  22 C :    0.034111
  23 H :    0.025675
  24 H :    0.032441
  25 C :   -0.106609
  26 H :    0.044853
  27 H :    0.054734
  28 C :    0.009416
  29 H :    0.002658
  30 H :    0.020368
  31 H :    0.009104
  32 H :    0.039016
  33 H :    0.056323
Sum of atomic charges:   -0.0000000

LOEWDIN ATOMIC CHARGES
----------------------
   0 S :    0.392795
   1 C :   -0.199313
   2 C :   -0.060267
   3 C :   -0.062654
   4 C :   -0.182521
   5 H :    0.017512
   6 C :   -0.018741
   7 H :    0.033159
   8 H :    0.016334
   9 C :   -0.035436
  10 H :    0.023441
  11 H :    0.020027
  12 C :   -0.056369
  13 H :    0.032656
  14 H :    0.021285
  15 H :    0.020223
  16 S :    0.410531
  17 C :   -0.184001
  18 C :   -0.071162
  19 C :   -0.060958
  20 C :   -0.192780
  21 H :    0.031484
  22 C :   -0.033429
  23 H :    0.033525
  24 H :    0.033769
  25 C :   -0.043826
  26 H :    0.027924
  27 H :    0.038210
  28 C :   -0.063235
  29 H :    0.014854
  30 H :    0.021234
  31 H :    0.023368
  32 H :    0.025879
  33 H :    0.026478

  Mayer bond orders larger than 0.100000
B(  0-S ,  1-C ) :   1.1370 B(  0-S ,  4-C ) :   1.1441 B(  1-C ,  2-C ) :   1.6131
B(  1-C , 32-H ) :   0.9632 B(  2-C ,  3-C ) :   1.2539 B(  2-C ,  6-C ) :   1.0157
B(  3-C ,  4-C ) :   1.5875 B(  3-C ,  5-H ) :   0.9909 B(  4-C , 20-C ) :   1.0231
B(  6-C ,  7-H ) :   0.9427 B(  6-C ,  8-H ) :   0.9342 B(  6-C ,  9-C ) :   1.0393
B(  9-C , 10-H ) :   0.9548 B(  9-C , 11-H ) :   0.9652 B(  9-C , 12-C ) :   1.0718
B( 12-C , 13-H ) :   0.9735 B( 12-C , 14-H ) :   0.9749 B( 12-C , 15-H ) :   0.9792
B( 16-S , 17-C ) :   1.1686 B( 16-S , 20-C ) :   1.1625 B( 17-C , 18-C ) :   1.5566
B( 17-C , 20-C ) :   0.1175 B( 17-C , 33-H ) :   0.9741 B( 18-C , 19-C ) :   1.2849
B( 18-C , 21-H ) :   0.9862 B( 19-C , 20-C ) :   1.5514 B( 19-C , 22-C ) :   1.0348
B( 22-C , 23-H ) :   0.9357 B( 22-C , 24-H ) :   0.9506 B( 22-C , 25-C ) :   1.0397
B( 25-C , 26-H ) :   0.9686 B( 25-C , 27-H ) :   0.9586 B( 25-C , 28-C ) :   1.0608
B( 28-C , 29-H ) :   0.9758 B( 28-C , 30-H ) :   0.9748 B( 28-C , 31-H ) :   0.9722

Dispersion correction           -0.013431313
FINAL SINGLE POINT ENERGY     -1339.856750409994

DIPOLE MOMENT
-------------
                                X             Y             Z
Electronic contribution:    -10.48929      16.82195      23.62388
Nuclear contribution   :     10.54656     -17.13874     -24.31988
                        -----------------------------------------
Total Dipole Moment    :      0.05728      -0.31679      -0.69601
                        -----------------------------------------
Magnitude (a.u.)       :      0.76685
Magnitude (Debye)      :      1.94918

Rotational constants in cm-1:     0.017085     0.008587     0.006198
Rotational constants in MHz :   512.209426   257.421709   185.819441

                             ****ORCA TERMINATED NORMALLY****
TOTAL RUN TIME: 0 days 0 hours 0 minutes 33 seconds 895 msec
