                         Program Version 4.2.1 -  RELEASE  -
|  1> ! wB97X-D3 SP def2-SVP
|  2> %pal
|  3> nprocs 16
|  4> end
|  5>
|  6> * xyz 0 1
|  7> S 	 68.8829 	 21.961 	 76.0498
|  8> C 	 70.3341 	 20.9927 	 75.9901
|  9> C 	 71.3629 	 21.8279 	 75.4162
| 10> C 	 71.0002 	 23.1824 	 75.1091
| 11> C 	 69.6566 	 23.4479 	 75.4636
| 12> H 	 71.6042 	 23.9317 	 74.6393
| 13> C 	 72.8039 	 21.3018 	 75.1435
| 14> H 	 72.8274 	 20.9478 	 74.1253
| 15> H 	 72.7423 	 20.3926 	 75.7081
| 16> C 	 73.8718 	 22.3551 	 75.5352
| 17> H 	 74.8656 	 21.9521 	 75.3817
| 18> H 	 73.7041 	 23.1805 	 74.8727
| 19> C 	 74.0108 	 22.766 	 76.9922
| 20> H 	 73.0188 	 23.1396 	 77.4017
| 21> H 	 74.3824 	 21.8866 	 77.4779
| 22> H 	 74.6736 	 23.6061 	 76.9161
| 23> S 	 67.4927 	 25.0168 	 74.4492
| 24> C 	 67.3025 	 26.5849 	 74.9885
| 25> C 	 68.336 	 26.9726 	 75.8514
| 26> C 	 69.078 	 25.8567 	 76.328
| 27> C 	 68.9466 	 24.744 	 75.4876
| 28> H 	 68.3585 	 28.0109 	 76.2552
| 29> C 	 70.0483 	 26.032 	 77.4736
| 30> H 	 70.5266 	 25.0446 	 77.6269
| 31> H 	 69.5279 	 26.3979 	 78.3492
| 32> C 	 71.1145 	 27.1236 	 77.1663
| 33> H 	 70.4766 	 27.9678 	 76.9449
| 34> H 	 71.6257 	 26.7545 	 76.2577
| 35> C 	 72.0966 	 27.4739 	 78.2953
| 36> H 	 72.5276 	 26.5329 	 78.5535
| 37> H 	 71.4982 	 27.7754 	 79.1797
| 38> H 	 72.7692 	 28.27 	 77.995
| 39> H 	 70.5049 	 19.9679 	 76.304
| 40> H 	 66.7287 	 27.3447 	 74.3865
| 41> *
| 42>
| 43>                          ****END OF INPUT****

CARTESIAN COORDINATES (ANGSTROEM)
---------------------------------
  S     68.882900   21.961000   76.049800
  C     70.334100   20.992700   75.990100
  C     71.362900   21.827900   75.416200
  C     71.000200   23.182400   75.109100
  C     69.656600   23.447900   75.463600
  H     71.604200   23.931700   74.639300
  C     72.803900   21.301800   75.143500
  H     72.827400   20.947800   74.125300
  H     72.742300   20.392600   75.708100
  C     73.871800   22.355100   75.535200
  H     74.865600   21.952100   75.381700
  H     73.704100   23.180500   74.872700
  C     74.010800   22.766000   76.992200
  H     73.018800   23.139600   77.401700
  H     74.382400   21.886600   77.477900
  H     74.673600   23.606100   76.916100
  S     67.492700   25.016800   74.449200
  C     67.302500   26.584900   74.988500
  C     68.336000   26.972600   75.851400
  C     69.078000   25.856700   76.328000
  C     68.946600   24.744000   75.487600
  H     68.358500   28.010900   76.255200
  C     70.048300   26.032000   77.473600
  H     70.526600   25.044600   77.626900
  H     69.527900   26.397900   78.349200
  C     71.114500   27.123600   77.166300
  H     70.476600   27.967800   76.944900
  H     71.625700   26.754500   76.257700
  C     72.096600   27.473900   78.295300
  H     72.527600   26.532900   78.553500
  H     71.498200   27.775400   79.179700
  H     72.769200   28.270000   77.995000
  H     70.504900   19.967900   76.304000
  H     66.728700   27.344700   74.386500

 Total Charge           Charge          ....    0
 Multiplicity           Mult            ....    1
 Number of Electrons    NEL             ....  134
 Basis Dimension        Dim             ....  322

ORBITAL ENERGIES
----------------

  NO   OCC          E(Eh)            E(eV)
   0   2.0000     -88.968582     -2420.9582
   1   2.0000     -88.965140     -2420.8645
   2   2.0000     -10.337885      -281.3081
   3   2.0000     -10.333008      -281.1754
   4   2.0000     -10.321999      -280.8759
   5   2.0000     -10.317647      -280.7574
   6   2.0000     -10.308093      -280.4975
   7   2.0000     -10.307406      -280.4788
   8   2.0000     -10.300768      -280.2981
   9   2.0000     -10.296138      -280.1721
  10   2.0000     -10.290985      -280.0319
  11   2.0000     -10.289689      -279.9967
  12   2.0000     -10.285574      -279.8847
  13   2.0000     -10.285114      -279.8722
  14   2.0000     -10.279660      -279.7238
  15   2.0000     -10.278782      -279.6999
  16   2.0000      -8.082380      -219.9327
  17   2.0000      -8.080636      -219.8853
  18   2.0000      -6.040880      -164.3807
  19   2.0000      -6.038944      -164.3280
  20   2.0000      -6.036757      -164.2685
  21   2.0000      -6.034951      -164.2194
  22   2.0000      -6.033429      -164.1779
  23   2.0000      -6.031627      -164.1289
  24   2.0000      -1.002702       -27.2849
  25   2.0000      -0.980345       -26.6765
  26   2.0000      -0.911805       -24.8115
  27   2.0000      -0.909594       -24.7513
  28   2.0000      -0.865564       -23.5532
  29   2.0000      -0.851722       -23.1765
  30   2.0000      -0.845034       -22.9945
  31   2.0000      -0.812461       -22.1082
  32   2.0000      -0.784721       -21.3533
  33   2.0000      -0.768283       -20.9060
  34   2.0000      -0.705669       -19.2022
  35   2.0000      -0.693745       -18.8778
  36   2.0000      -0.686619       -18.6839
  37   2.0000      -0.651310       -17.7230
  38   2.0000      -0.638975       -17.3874
  39   2.0000      -0.620105       -16.8739
  40   2.0000      -0.594783       -16.1849
  41   2.0000      -0.571568       -15.5532
  42   2.0000      -0.566012       -15.4020
  43   2.0000      -0.555196       -15.1077
  44   2.0000      -0.544018       -14.8035
  45   2.0000      -0.531517       -14.4633
  46   2.0000      -0.521921       -14.2022
  47   2.0000      -0.513786       -13.9808
  48   2.0000      -0.504414       -13.7258
  49   2.0000      -0.501487       -13.6462
  50   2.0000      -0.488596       -13.2954
  51   2.0000      -0.479739       -13.0543
  52   2.0000      -0.468373       -12.7451
  53   2.0000      -0.463378       -12.6092
  54   2.0000      -0.456177       -12.4132
  55   2.0000      -0.447812       -12.1856
  56   2.0000      -0.440796       -11.9947
  57   2.0000      -0.436923       -11.8893
  58   2.0000      -0.429641       -11.6911
  59   2.0000      -0.426140       -11.5958
  60   2.0000      -0.423526       -11.5247
  61   2.0000      -0.415044       -11.2939
  62   2.0000      -0.402508       -10.9528
  63   2.0000      -0.336649        -9.1607
  64   2.0000      -0.332135        -9.0379
  65   2.0000      -0.324336        -8.8256
  66   2.0000      -0.297003        -8.0819
  67   0.0000       0.032027         0.8715
  68   0.0000       0.050045         1.3618
  69   0.0000       0.112267         3.0549
  70   0.0000       0.120401         3.2763
  71   0.0000       0.125987         3.4283

MULLIKEN ATOMIC CHARGES
-----------------------
   0 S :    0.123677
   1 C :   -0.117182
   2 C :   -0.167852
   3 C :    0.047945
   4 C :   -0.165113
   5 H :    0.015695
   6 C :    0.123113
   7 H :    0.041791
   8 H :   -0.007315
   9 C :   -0.104692
  10 H :    0.024230
  11 H :    0.027667
  12 C :   -0.035334
  13 H :    0.047850
  14 H :    0.039408
  15 H :    0.034855
  16 S :    0.114176
  17 C :   -0.099985
  18 C :   -0.079153
  19 C :   -0.030428
  20 C :   -0.183939
  21 H :    0.046391
  22 C :    0.078010
  23 H :    0.036448
  24 H :    0.025163
  25 C :   -0.137618
  26 H :    0.021959
  27 H :    0.032748
  28 C :    0.003853
  29 H :    0.024957
  30 H :    0.024751
  31 H :    0.050467
  32 H :    0.059000
  33 H :    0.084458
Sum of atomic charges:    0.0000000

LOEWDIN ATOMIC CHARGES
----------------------
   0 S :    0.413227
   1 C :   -0.217156
   2 C :   -0.059277
   3 C :   -0.062678
   4 C :   -0.190215
   5 H :    0.031153
   6 C :   -0.031709
   7 H :    0.033482
   8 H :    0.021714
   9 C :   -0.042537
  10 H :    0.025533
  11 H :    0.017028
  12 C :   -0.057003
  13 H :    0.029003
  14 H :    0.025601
  15 H :    0.027792
  16 S :    0.421193
  17 C :   -0.219866
  18 C :   -0.085417
  19 C :   -0.045117
  20 C :   -0.199850
  21 H :    0.037088
  22 C :   -0.029167
  23 H :    0.030148
  24 H :    0.029875
  25 C :   -0.040802
  26 H :    0.016174
  27 H :    0.023346
  28 C :   -0.060885
  29 H :    0.023060
  30 H :    0.028445
  31 H :    0.030608
  32 H :    0.034027
  33 H :    0.043179

  Mayer bond orders larger than 0.100000
B(  0-S ,  1-C ) :   1.1504 B(  0-S ,  4-C ) :   1.1738 B(  1-C ,  2-C ) :   1.5686
B(  1-C ,  4-C ) :   0.1119 B(  1-C , 32-H ) :   0.9677 B(  2-C ,  3-C ) :   1.2587
B(  2-C ,  6-C ) :   1.0020 B(  3-C ,  4-C ) :   1.5397 B(  3-C ,  5-H ) :   0.9970
B(  4-C , 20-C ) :   1.0310 B(  6-C ,  7-H ) :   0.9403 B(  6-C ,  8-H ) :   0.9386
B(  6-C ,  9-C ) :   1.0604 B(  9-C , 10-H ) :   0.9583 B(  9-C , 11-H ) :   0.9564
B(  9-C , 12-C ) :   1.0688 B( 12-C , 13-H ) :   0.9728 B( 12-C , 14-H ) :   0.9779
B( 12-C , 15-H ) :   0.9729 B( 16-S , 17-C ) :   1.1996 B( 16-S , 20-C ) :   1.1355
B( 17-C , 18-C ) :   1.5914 B( 17-C , 20-C ) :   0.1027 B( 17-C , 33-H ) :   0.9507
B( 18-C , 19-C ) :   1.2449 B( 18-C , 21-H ) :   0.9740 B( 19-C , 20-C ) :   1.5723
B( 19-C , 22-C ) :   1.0610 B( 22-C , 23-H ) :   0.9334 B( 22-C , 24-H ) :   0.9257
B( 22-C , 25-C ) :   1.0564 B( 25-C , 26-H ) :   0.9559 B( 25-C , 27-H ) :   0.9572
B( 25-C , 28-C ) :   1.0804 B( 28-C , 29-H ) :   0.9734 B( 28-C , 30-H ) :   0.9703
B( 28-C , 31-H ) :   0.9732

Dispersion correction           -0.014712069
FINAL SINGLE POINT ENERGY     -1339.858706386121

DIPOLE MOMENT
-------------
                                X             Y             Z
Electronic contribution:    -27.38931      -7.86674     -11.18912
Nuclear contribution   :     28.04131       8.13421      11.30718
                        -----------------------------------------
Total Dipole Moment    :      0.65201       0.26747       0.11806
                        -----------------------------------------
Magnitude (a.u.)       :      0.71456
Magnitude (Debye)      :      1.81626

Rotational constants in cm-1:     0.016242     0.010241     0.007003
Rotational constants in MHz :   486.935360   307.005890   209.938891

                             ****ORCA TERMINATED NORMALLY****
TOTAL RUN TIME: 0 days 0 hours 0 minutes 29 seconds 550 msec
