                         Program Version 4.2.1 -  RELEASE  -
|  1> ! wB97X-D3 SP def2-SVP
|  2> %pal
|  3> nprocs 16
|  4> end
|  5>
|  6> * xyz 0 1
|  7> S 	 -95.3303 	 62.5239 	 123.427
|  8> C 	 -95.7879 	 61.116 	 122.615
|  9> C 	 -96.0023 	 60.0353 	 123.474
| 10> C 	 -95.662 	 60.3994 	 124.786
| 11> C 	 -95.2635 	 61.6904 	 124.931
| 12> H 	 -95.5757 	 59.7433 	 125.678
| 13> C 	 -96.4296 	 58.6148 	 123.169
| 14> H 	 -96.855 	 58.6769 	 122.145
| 15> H 	 -97.2563 	 58.2408 	 123.822
| 16> C 	 -95.3216 	 57.5679 	 123.264
| 17> H 	 -94.3137 	 57.9431 	 122.984
| 18> H 	 -95.1721 	 57.342 	 124.283
| 19> C 	 -95.6182 	 56.2465 	 122.464
| 20> H 	 -95.5026 	 56.3769 	 121.425
| 21> H 	 -94.9992 	 55.4259 	 122.822
| 22> H 	 -96.6353 	 55.9074 	 122.581
| 23> S 	 -95.858 	 63.8577 	 126.449
| 24> C 	 -95.1935 	 64.1547 	 128.014
| 25> C 	 -94.3485 	 63.1409 	 128.333
| 26> C 	 -94.2028 	 62.1233 	 127.298
| 27> C 	 -95.0587 	 62.3411 	 126.217
| 28> H 	 -93.8371 	 63.1845 	 129.284
| 29> C 	 -93.2904 	 60.9644 	 127.486
| 30> H 	 -93.7004 	 60.2551 	 128.26
| 31> H 	 -92.4773 	 61.3567 	 128.06
| 32> C 	 -92.684 	 60.1712 	 126.263
| 33> H 	 -92.3062 	 60.7807 	 125.422
| 34> H 	 -93.4326 	 59.4379 	 125.911
| 35> C 	 -91.6717 	 59.2322 	 126.771
| 36> H 	 -92.0928 	 58.4526 	 127.454
| 37> H 	 -90.7628 	 59.6736 	 127.216
| 38> H 	 -91.4067 	 58.4751 	 126.038
| 39> H 	 -95.9509 	 61.1256 	 121.551
| 40> H 	 -95.2616 	 65.0094 	 128.629
| 41> *
| 42>
| 43>                          ****END OF INPUT****

CARTESIAN COORDINATES (ANGSTROEM)
---------------------------------
  S    -95.330300   62.523900  123.427000
  C    -95.787900   61.116000  122.615000
  C    -96.002300   60.035300  123.474000
  C    -95.662000   60.399400  124.786000
  C    -95.263500   61.690400  124.931000
  H    -95.575700   59.743300  125.678000
  C    -96.429600   58.614800  123.169000
  H    -96.855000   58.676900  122.145000
  H    -97.256300   58.240800  123.822000
  C    -95.321600   57.567900  123.264000
  H    -94.313700   57.943100  122.984000
  H    -95.172100   57.342000  124.283000
  C    -95.618200   56.246500  122.464000
  H    -95.502600   56.376900  121.425000
  H    -94.999200   55.425900  122.822000
  H    -96.635300   55.907400  122.581000
  S    -95.858000   63.857700  126.449000
  C    -95.193500   64.154700  128.014000
  C    -94.348500   63.140900  128.333000
  C    -94.202800   62.123300  127.298000
  C    -95.058700   62.341100  126.217000
  H    -93.837100   63.184500  129.284000
  C    -93.290400   60.964400  127.486000
  H    -93.700400   60.255100  128.260000
  H    -92.477300   61.356700  128.060000
  C    -92.684000   60.171200  126.263000
  H    -92.306200   60.780700  125.422000
  H    -93.432600   59.437900  125.911000
  C    -91.671700   59.232200  126.771000
  H    -92.092800   58.452600  127.454000
  H    -90.762800   59.673600  127.216000
  H    -91.406700   58.475100  126.038000
  H    -95.950900   61.125600  121.551000
  H    -95.261600   65.009400  128.629000

 Total Charge           Charge          ....    0
 Multiplicity           Mult            ....    1
 Number of Electrons    NEL             ....  134
 Basis Dimension        Dim             ....  322

ORBITAL ENERGIES
----------------

  NO   OCC          E(Eh)            E(eV)
   0   2.0000     -88.968633     -2420.9596
   1   2.0000     -88.958354     -2420.6799
   2   2.0000     -10.323232      -280.9094
   3   2.0000     -10.320925      -280.8467
   4   2.0000     -10.312142      -280.6076
   5   2.0000     -10.308037      -280.4960
   6   2.0000     -10.302744      -280.3519
   7   2.0000     -10.300154      -280.2814
   8   2.0000     -10.297371      -280.2057
   9   2.0000     -10.291761      -280.0531
  10   2.0000     -10.289848      -280.0010
  11   2.0000     -10.287957      -279.9495
  12   2.0000     -10.287883      -279.9475
  13   2.0000     -10.287784      -279.9448
  14   2.0000     -10.277054      -279.6528
  15   2.0000     -10.275531      -279.6114
  16   2.0000      -8.084842      -219.9997
  17   2.0000      -8.074031      -219.7055
  18   2.0000      -6.043164      -164.4429
  19   2.0000      -6.039068      -164.3314
  20   2.0000      -6.035787      -164.2421
  21   2.0000      -6.032601      -164.1554
  22   2.0000      -6.028285      -164.0380
  23   2.0000      -6.024778      -163.9425
  24   2.0000      -1.016457       -27.6592
  25   2.0000      -0.990983       -26.9660
  26   2.0000      -0.911157       -24.7938
  27   2.0000      -0.910316       -24.7710
  28   2.0000      -0.873368       -23.7655
  29   2.0000      -0.856547       -23.3078
  30   2.0000      -0.851714       -23.1763
  31   2.0000      -0.818063       -22.2606
  32   2.0000      -0.781370       -21.2622
  33   2.0000      -0.768667       -20.9165
  34   2.0000      -0.710819       -19.3424
  35   2.0000      -0.705531       -19.1985
  36   2.0000      -0.688893       -18.7457
  37   2.0000      -0.661989       -18.0136
  38   2.0000      -0.645654       -17.5691
  39   2.0000      -0.621549       -16.9132
  40   2.0000      -0.592514       -16.1231
  41   2.0000      -0.574819       -15.6416
  42   2.0000      -0.570519       -15.5246
  43   2.0000      -0.556283       -15.1372
  44   2.0000      -0.526176       -14.3180
  45   2.0000      -0.522393       -14.2150
  46   2.0000      -0.515955       -14.0399
  47   2.0000      -0.507621       -13.8131
  48   2.0000      -0.506121       -13.7723
  49   2.0000      -0.499944       -13.6042
  50   2.0000      -0.498909       -13.5760
  51   2.0000      -0.484423       -13.1818
  52   2.0000      -0.476309       -12.9610
  53   2.0000      -0.470189       -12.7945
  54   2.0000      -0.458453       -12.4751
  55   2.0000      -0.453032       -12.3276
  56   2.0000      -0.443838       -12.0774
  57   2.0000      -0.443221       -12.0607
  58   2.0000      -0.426956       -11.6181
  59   2.0000      -0.422192       -11.4884
  60   2.0000      -0.418298       -11.3825
  61   2.0000      -0.412244       -11.2177
  62   2.0000      -0.410983       -11.1834
  63   2.0000      -0.351228        -9.5574
  64   2.0000      -0.332128        -9.0377
  65   2.0000      -0.322045        -8.7633
  66   2.0000      -0.291648        -7.9361
  67   0.0000       0.036900         1.0041
  68   0.0000       0.076732         2.0880
  69   0.0000       0.121626         3.3096
  70   0.0000       0.122954         3.3458
  71   0.0000       0.132180         3.5968

MULLIKEN ATOMIC CHARGES
-----------------------
   0 S :    0.138522
   1 C :   -0.131101
   2 C :   -0.066443
   3 C :    0.003130
   4 C :   -0.146336
   5 H :    0.030126
   6 C :    0.058898
   7 H :    0.019641
   8 H :    0.043536
   9 C :   -0.070710
  10 H :    0.033928
  11 H :    0.014561
  12 C :   -0.036573
  13 H :    0.030159
  14 H :    0.033870
  15 H :    0.020431
  16 S :    0.086680
  17 C :   -0.060874
  18 C :   -0.044866
  19 C :   -0.013049
  20 C :   -0.155615
  21 H :    0.014280
  22 C :    0.013832
  23 H :    0.037905
  24 H :    0.007558
  25 C :   -0.041886
  26 H :    0.054733
  27 H :    0.026588
  28 C :   -0.061047
  29 H :    0.017366
  30 H :    0.039361
  31 H :    0.019165
  32 H :    0.043695
  33 H :    0.040535
Sum of atomic charges:    0.0000000

LOEWDIN ATOMIC CHARGES
----------------------
   0 S :    0.451152
   1 C :   -0.212209
   2 C :   -0.066689
   3 C :   -0.058694
   4 C :   -0.212530
   5 H :    0.036353
   6 C :   -0.035152
   7 H :    0.029566
   8 H :    0.039172
   9 C :   -0.039506
  10 H :    0.027259
  11 H :    0.014551
  12 C :   -0.059354
  13 H :    0.019728
  14 H :    0.028441
  15 H :    0.022458
  16 S :    0.413735
  17 C :   -0.189803
  18 C :   -0.072804
  19 C :   -0.063967
  20 C :   -0.200818
  21 H :    0.029827
  22 C :   -0.043751
  23 H :    0.041106
  24 H :    0.028068
  25 C :   -0.043168
  26 H :    0.034134
  27 H :    0.030310
  28 C :   -0.077102
  29 H :    0.029153
  30 H :    0.022356
  31 H :    0.026302
  32 H :    0.024630
  33 H :    0.027246

  Mayer bond orders larger than 0.100000
B(  0-S ,  1-C ) :   1.1736 B(  0-S ,  4-C ) :   1.1603 B(  1-C ,  2-C ) :   1.5628
B(  1-C , 32-H ) :   0.9710 B(  2-C ,  3-C ) :   1.2722 B(  2-C ,  6-C ) :   1.0313
B(  3-C ,  4-C ) :   1.5606 B(  3-C ,  5-H ) :   0.9870 B(  4-C , 20-C ) :   1.0424
B(  6-C ,  7-H ) :   0.9444 B(  6-C ,  8-H ) :   0.9372 B(  6-C ,  9-C ) :   1.0521
B(  9-C , 10-H ) :   0.9604 B(  9-C , 11-H ) :   0.9536 B(  9-C , 12-C ) :   1.0785
B( 12-C , 13-H ) :   0.9790 B( 12-C , 14-H ) :   0.9757 B( 12-C , 15-H ) :   0.9750
B( 16-S , 17-C ) :   1.1475 B( 16-S , 20-C ) :   1.1351 B( 17-C , 18-C ) :   1.6266
B( 17-C , 33-H ) :   0.9703 B( 18-C , 19-C ) :   1.2329 B( 18-C , 21-H ) :   0.9902
B( 19-C , 20-C ) :   1.5839 B( 19-C , 22-C ) :   1.0405 B( 22-C , 23-H ) :   0.9287
B( 22-C , 24-H ) :   0.9306 B( 22-C , 25-C ) :   1.0615 B( 25-C , 26-H ) :   0.9579
B( 25-C , 27-H ) :   0.9395 B( 25-C , 28-C ) :   1.0951 B( 28-C , 29-H ) :   0.9648
B( 28-C , 30-H ) :   0.9720 B( 28-C , 31-H ) :   0.9656

Dispersion correction           -0.014607657
FINAL SINGLE POINT ENERGY     -1339.876184462511

DIPOLE MOMENT
-------------
                                X             Y             Z
Electronic contribution:    -10.38930      30.55178       0.85126
Nuclear contribution   :     10.64460     -31.18997      -0.73074
                        -----------------------------------------
Total Dipole Moment    :      0.25530      -0.63820       0.12052
                        -----------------------------------------
Magnitude (a.u.)       :      0.69785
Magnitude (Debye)      :      1.77381

Rotational constants in cm-1:     0.019446     0.009046     0.006829
Rotational constants in MHz :   582.977175   271.202113   204.725349

                             ****ORCA TERMINATED NORMALLY****
TOTAL RUN TIME: 0 days 0 hours 0 minutes 33 seconds 776 msec
