                         Program Version 4.2.1 -  RELEASE  -
|  1> ! wB97X-D3 SP def2-SVP
|  2> %pal
|  3> nprocs 16
|  4> end
|  5>
|  6> * xyz 0 1
|  7> S 	 42.9105 	 12.8289 	 49.3993
|  8> C 	 42.7113 	 11.2446 	 50.1359
|  9> C 	 43.2656 	 11.1676 	 51.3903
| 10> C 	 43.9656 	 12.3592 	 51.727
| 11> C 	 43.8873 	 13.4 	 50.7469
| 12> H 	 44.6547 	 12.4761 	 52.5354
| 13> C 	 43.1769 	 9.95679 	 52.3062
| 14> H 	 44.1364 	 9.39922 	 52.2958
| 15> H 	 42.4703 	 9.32867 	 51.731
| 16> C 	 42.6061 	 10.3276 	 53.7375
| 17> H 	 43.2341 	 11.1037 	 54.2151
| 18> H 	 41.641 	 10.8546 	 53.6429
| 19> C 	 42.3095 	 9.2017 	 54.7096
| 20> H 	 41.9724 	 9.54955 	 55.6546
| 21> H 	 41.4825 	 8.58325 	 54.4105
| 22> H 	 43.1386 	 8.45922 	 54.7915
| 23> S 	 45.5016 	 15.1306 	 49.3668
| 24> C 	 45.7455 	 16.7751 	 49.9414
| 25> C 	 45.2102 	 16.8919 	 51.1763
| 26> C 	 44.4262 	 15.8077 	 51.5889
| 27> C 	 44.5291 	 14.7126 	 50.7683
| 28> H 	 45.3827 	 17.7941 	 51.7434
| 29> C 	 43.6055 	 15.8705 	 52.8747
| 30> H 	 44.3281 	 16.4863 	 53.448
| 31> H 	 43.4581 	 14.9291 	 53.3141
| 32> C 	 42.1822 	 16.5129 	 52.7499
| 33> H 	 42.1853 	 17.3731 	 52.0546
| 34> H 	 41.9641 	 16.9499 	 53.7262
| 35> C 	 41.0436 	 15.6897 	 52.1707
| 36> H 	 41.4792 	 15.068 	 51.3175
| 37> H 	 40.2124 	 16.3259 	 51.9266
| 38> H 	 40.7273 	 14.9451 	 52.8657
| 39> H 	 42.0418 	 10.4995 	 49.7251
| 40> H 	 46.3289 	 17.5239 	 49.4989
| 41> *
| 42>
| 43>                          ****END OF INPUT****

CARTESIAN COORDINATES (ANGSTROEM)
---------------------------------
  S     42.910500   12.828900   49.399300
  C     42.711300   11.244600   50.135900
  C     43.265600   11.167600   51.390300
  C     43.965600   12.359200   51.727000
  C     43.887300   13.400000   50.746900
  H     44.654700   12.476100   52.535400
  C     43.176900    9.956790   52.306200
  H     44.136400    9.399220   52.295800
  H     42.470300    9.328670   51.731000
  C     42.606100   10.327600   53.737500
  H     43.234100   11.103700   54.215100
  H     41.641000   10.854600   53.642900
  C     42.309500    9.201700   54.709600
  H     41.972400    9.549550   55.654600
  H     41.482500    8.583250   54.410500
  H     43.138600    8.459220   54.791500
  S     45.501600   15.130600   49.366800
  C     45.745500   16.775100   49.941400
  C     45.210200   16.891900   51.176300
  C     44.426200   15.807700   51.588900
  C     44.529100   14.712600   50.768300
  H     45.382700   17.794100   51.743400
  C     43.605500   15.870500   52.874700
  H     44.328100   16.486300   53.448000
  H     43.458100   14.929100   53.314100
  C     42.182200   16.512900   52.749900
  H     42.185300   17.373100   52.054600
  H     41.964100   16.949900   53.726200
  C     41.043600   15.689700   52.170700
  H     41.479200   15.068000   51.317500
  H     40.212400   16.325900   51.926600
  H     40.727300   14.945100   52.865700
  H     42.041800   10.499500   49.725100
  H     46.328900   17.523900   49.498900

 Total Charge           Charge          ....    0
 Multiplicity           Mult            ....    1
 Number of Electrons    NEL             ....  134
 Basis Dimension        Dim             ....  322

ORBITAL ENERGIES
----------------

  NO   OCC          E(Eh)            E(eV)
   0   2.0000     -88.969988     -2420.9965
   1   2.0000     -88.961894     -2420.7762
   2   2.0000     -10.336459      -281.2693
   3   2.0000     -10.324972      -280.9568
   4   2.0000     -10.314952      -280.6841
   5   2.0000     -10.312568      -280.6192
   6   2.0000     -10.303456      -280.3713
   7   2.0000     -10.302143      -280.3356
   8   2.0000     -10.299009      -280.2503
   9   2.0000     -10.296895      -280.1927
  10   2.0000     -10.295950      -280.1670
  11   2.0000     -10.290157      -280.0094
  12   2.0000     -10.287564      -279.9389
  13   2.0000     -10.283712      -279.8340
  14   2.0000     -10.277507      -279.6652
  15   2.0000     -10.272249      -279.5221
  16   2.0000      -8.083877      -219.9735
  17   2.0000      -8.076657      -219.7770
  18   2.0000      -6.042363      -164.4211
  19   2.0000      -6.038377      -164.3126
  20   2.0000      -6.035198      -164.2261
  21   2.0000      -6.034820      -164.2158
  22   2.0000      -6.031116      -164.1150
  23   2.0000      -6.027407      -164.0141
  24   2.0000      -1.007302       -27.4101
  25   2.0000      -0.985242       -26.8098
  26   2.0000      -0.907097       -24.6834
  27   2.0000      -0.902867       -24.5683
  28   2.0000      -0.872262       -23.7355
  29   2.0000      -0.850408       -23.1408
  30   2.0000      -0.847595       -23.0642
  31   2.0000      -0.816513       -22.2184
  32   2.0000      -0.783059       -21.3081
  33   2.0000      -0.773276       -21.0419
  34   2.0000      -0.713523       -19.4160
  35   2.0000      -0.696999       -18.9663
  36   2.0000      -0.690767       -18.7967
  37   2.0000      -0.663070       -18.0431
  38   2.0000      -0.642465       -17.4823
  39   2.0000      -0.618165       -16.8211
  40   2.0000      -0.598724       -16.2921
  41   2.0000      -0.570572       -15.5261
  42   2.0000      -0.553468       -15.0606
  43   2.0000      -0.551658       -15.0114
  44   2.0000      -0.534556       -14.5460
  45   2.0000      -0.530304       -14.4303
  46   2.0000      -0.522174       -14.2091
  47   2.0000      -0.510939       -13.9034
  48   2.0000      -0.502801       -13.6819
  49   2.0000      -0.499571       -13.5940
  50   2.0000      -0.494445       -13.4545
  51   2.0000      -0.480403       -13.0724
  52   2.0000      -0.472336       -12.8529
  53   2.0000      -0.469837       -12.7849
  54   2.0000      -0.458890       -12.4870
  55   2.0000      -0.446649       -12.1539
  56   2.0000      -0.443630       -12.0718
  57   2.0000      -0.436513       -11.8781
  58   2.0000      -0.433637       -11.7999
  59   2.0000      -0.427295       -11.6273
  60   2.0000      -0.414601       -11.2819
  61   2.0000      -0.413095       -11.2409
  62   2.0000      -0.402654       -10.9568
  63   2.0000      -0.344111        -9.3637
  64   2.0000      -0.335118        -9.1190
  65   2.0000      -0.328728        -8.9451
  66   2.0000      -0.295496        -8.0409
  67   0.0000       0.028890         0.7861
  68   0.0000       0.066887         1.8201
  69   0.0000       0.114714         3.1215
  70   0.0000       0.119051         3.2395
  71   0.0000       0.131186         3.5698

MULLIKEN ATOMIC CHARGES
-----------------------
   0 S :    0.122554
   1 C :   -0.130807
   2 C :   -0.095844
   3 C :    0.045721
   4 C :   -0.179167
   5 H :    0.013051
   6 C :    0.083525
   7 H :    0.053901
   8 H :    0.013633
   9 C :   -0.104077
  10 H :    0.036023
  11 H :    0.033348
  12 C :   -0.020928
  13 H :    0.026334
  14 H :    0.018004
  15 H :    0.030494
  16 S :    0.093557
  17 C :   -0.062707
  18 C :   -0.039292
  19 C :   -0.042207
  20 C :   -0.166896
  21 H :    0.016583
  22 C :    0.102220
  23 H :    0.027925
  24 H :    0.006584
  25 C :   -0.083417
  26 H :    0.021584
  27 H :    0.025832
  28 C :   -0.032835
  29 H :    0.040970
  30 H :    0.040736
  31 H :    0.018338
  32 H :    0.050460
  33 H :    0.036800
Sum of atomic charges:   -0.0000000

LOEWDIN ATOMIC CHARGES
----------------------
   0 S :    0.408533
   1 C :   -0.196440
   2 C :   -0.067098
   3 C :   -0.059213
   4 C :   -0.194612
   5 H :    0.026601
   6 C :   -0.029997
   7 H :    0.037907
   8 H :    0.030875
   9 C :   -0.045382
  10 H :    0.025059
  11 H :    0.031714
  12 C :   -0.068170
  13 H :    0.024539
  14 H :    0.023001
  15 H :    0.027467
  16 S :    0.396316
  17 C :   -0.166700
  18 C :   -0.074219
  19 C :   -0.058834
  20 C :   -0.203081
  21 H :    0.031869
  22 C :   -0.023100
  23 H :    0.037931
  24 H :    0.019754
  25 C :   -0.044148
  26 H :    0.024197
  27 H :    0.021040
  28 C :   -0.064939
  29 H :    0.036061
  30 H :    0.027116
  31 H :    0.016406
  32 H :    0.027310
  33 H :    0.022241

  Mayer bond orders larger than 0.100000
B(  0-S ,  1-C ) :   1.1402 B(  0-S ,  4-C ) :   1.1601 B(  1-C ,  2-C ) :   1.6133
B(  1-C ,  4-C ) :   0.1016 B(  1-C , 32-H ) :   0.9612 B(  2-C ,  3-C ) :   1.2485
B(  2-C ,  6-C ) :   1.0202 B(  3-C ,  4-C ) :   1.5561 B(  3-C ,  5-H ) :   0.9919
B(  4-C , 20-C ) :   1.0360 B(  6-C ,  7-H ) :   0.9378 B(  6-C ,  8-H ) :   0.9409
B(  6-C ,  9-C ) :   1.0433 B(  9-C , 10-H ) :   0.9586 B(  9-C , 11-H ) :   0.9549
B(  9-C , 12-C ) :   1.0930 B( 12-C , 13-H ) :   0.9713 B( 12-C , 14-H ) :   0.9719
B( 12-C , 15-H ) :   0.9735 B( 16-S , 17-C ) :   1.1493 B( 16-S , 20-C ) :   1.1353
B( 17-C , 18-C ) :   1.6195 B( 17-C , 33-H ) :   0.9716 B( 18-C , 19-C ) :   1.2506
B( 18-C , 21-H ) :   0.9845 B( 19-C , 20-C ) :   1.5981 B( 19-C , 22-C ) :   1.0267
B( 22-C , 23-H ) :   0.9341 B( 22-C , 24-H ) :   0.9381 B( 22-C , 25-C ) :   1.0584
B( 25-C , 26-H ) :   0.9625 B( 25-C , 27-H ) :   0.9552 B( 25-C , 28-C ) :   1.0738
B( 28-C , 29-H ) :   0.9695 B( 28-C , 30-H ) :   0.9741 B( 28-C , 31-H ) :   0.9738

Dispersion correction           -0.014697965
FINAL SINGLE POINT ENERGY     -1339.880017461949

DIPOLE MOMENT
-------------
                                X             Y             Z
Electronic contribution:     13.24290       7.44692     -23.62425
Nuclear contribution   :    -13.39894      -7.49353      24.24964
                        -----------------------------------------
Total Dipole Moment    :     -0.15604      -0.04661       0.62539
                        -----------------------------------------
Magnitude (a.u.)       :      0.64624
Magnitude (Debye)      :      1.64262

Rotational constants in cm-1:     0.019917     0.008367     0.007093
Rotational constants in MHz :   597.094498   250.851248   212.637190

                             ****ORCA TERMINATED NORMALLY****
TOTAL RUN TIME: 0 days 0 hours 0 minutes 35 seconds 329 msec
