                         Program Version 4.2.1 -  RELEASE  -
|  1> ! wB97X-D3 SP def2-SVP
|  2> %pal
|  3> nprocs 16
|  4> end
|  5>
|  6> * xyz 0 1
|  7> S 	 -32.0404 	 67.5972 	 117.192
|  8> C 	 -33.7133 	 67.115 	 116.781
|  9> C 	 -33.7085 	 66.4044 	 115.564
| 10> C 	 -32.4457 	 66.5747 	 114.883
| 11> C 	 -31.4087 	 67.0613 	 115.707
| 12> H 	 -32.2276 	 66.089 	 113.967
| 13> C 	 -35.0096 	 65.8028 	 115.02
| 14> H 	 -35.1178 	 66.3657 	 114.097
| 15> H 	 -35.7993 	 66.0966 	 115.723
| 16> C 	 -35.0857 	 64.3087 	 114.893
| 17> H 	 -35.962 	 64.0842 	 114.425
| 18> H 	 -34.3147 	 63.9135 	 114.224
| 19> C 	 -34.865 	 63.5884 	 116.252
| 20> H 	 -34.7621 	 62.5082 	 116.136
| 21> H 	 -33.9569 	 63.9225 	 116.667
| 22> H 	 -35.7304 	 63.8221 	 116.908
| 23> S 	 -28.7746 	 66.8985 	 116.443
| 24> C 	 -27.6668 	 67.937 	 115.536
| 25> C 	 -28.2487 	 68.5817 	 114.502
| 26> C 	 -29.5633 	 68.1103 	 114.267
| 27> C 	 -30.0258 	 67.3534 	 115.331
| 28> H 	 -27.626 	 69.1433 	 113.81
| 29> C 	 -30.3684 	 68.6457 	 113.112
| 30> H 	 -31.1897 	 68.0384 	 112.766
| 31> H 	 -29.6495 	 68.4549 	 112.322
| 32> C 	 -30.7788 	 70.1817 	 113.333
| 33> H 	 -29.8499 	 70.7403 	 113.269
| 34> H 	 -31.221 	 70.2689 	 114.276
| 35> C 	 -31.6424 	 70.7128 	 112.206
| 36> H 	 -31.8209 	 71.7725 	 112.448
| 37> H 	 -32.5737 	 70.0673 	 112.261
| 38> H 	 -31.1314 	 70.8227 	 111.24
| 39> H 	 -34.6157 	 67.3229 	 117.221
| 40> H 	 -26.6473 	 68.1927 	 115.837
| 41> *
| 42>
| 43>                          ****END OF INPUT****

CARTESIAN COORDINATES (ANGSTROEM)
---------------------------------
  S    -32.040400   67.597200  117.192000
  C    -33.713300   67.115000  116.781000
  C    -33.708500   66.404400  115.564000
  C    -32.445700   66.574700  114.883000
  C    -31.408700   67.061300  115.707000
  H    -32.227600   66.089000  113.967000
  C    -35.009600   65.802800  115.020000
  H    -35.117800   66.365700  114.097000
  H    -35.799300   66.096600  115.723000
  C    -35.085700   64.308700  114.893000
  H    -35.962000   64.084200  114.425000
  H    -34.314700   63.913500  114.224000
  C    -34.865000   63.588400  116.252000
  H    -34.762100   62.508200  116.136000
  H    -33.956900   63.922500  116.667000
  H    -35.730400   63.822100  116.908000
  S    -28.774600   66.898500  116.443000
  C    -27.666800   67.937000  115.536000
  C    -28.248700   68.581700  114.502000
  C    -29.563300   68.110300  114.267000
  C    -30.025800   67.353400  115.331000
  H    -27.626000   69.143300  113.810000
  C    -30.368400   68.645700  113.112000
  H    -31.189700   68.038400  112.766000
  H    -29.649500   68.454900  112.322000
  C    -30.778800   70.181700  113.333000
  H    -29.849900   70.740300  113.269000
  H    -31.221000   70.268900  114.276000
  C    -31.642400   70.712800  112.206000
  H    -31.820900   71.772500  112.448000
  H    -32.573700   70.067300  112.261000
  H    -31.131400   70.822700  111.240000
  H    -34.615700   67.322900  117.221000
  H    -26.647300   68.192700  115.837000

 Total Charge           Charge          ....    0
 Multiplicity           Mult            ....    1
 Number of Electrons    NEL             ....  134
 Basis Dimension        Dim             ....  322

ORBITAL ENERGIES
----------------

  NO   OCC          E(Eh)            E(eV)
   0   2.0000     -88.967345     -2420.9245
   1   2.0000     -88.966695     -2420.9069
   2   2.0000     -10.329870      -281.0901
   3   2.0000     -10.323546      -280.9180
   4   2.0000     -10.315294      -280.6934
   5   2.0000     -10.308695      -280.5138
   6   2.0000     -10.302919      -280.3567
   7   2.0000     -10.299760      -280.2707
   8   2.0000     -10.292403      -280.0705
   9   2.0000     -10.292138      -280.0633
  10   2.0000     -10.290120      -280.0084
  11   2.0000     -10.288754      -279.9712
  12   2.0000     -10.283797      -279.8363
  13   2.0000     -10.282368      -279.7975
  14   2.0000     -10.278457      -279.6910
  15   2.0000     -10.273965      -279.5688
  16   2.0000      -8.081887      -219.9193
  17   2.0000      -8.081576      -219.9109
  18   2.0000      -6.040438      -164.3687
  19   2.0000      -6.040093      -164.3593
  20   2.0000      -6.036214      -164.2537
  21   2.0000      -6.036177      -164.2527
  22   2.0000      -6.032803      -164.1609
  23   2.0000      -6.032213      -164.1449
  24   2.0000      -1.009052       -27.4577
  25   2.0000      -0.982991       -26.7485
  26   2.0000      -0.916242       -24.9322
  27   2.0000      -0.905016       -24.6267
  28   2.0000      -0.869392       -23.6574
  29   2.0000      -0.853967       -23.2376
  30   2.0000      -0.841359       -22.8945
  31   2.0000      -0.814235       -22.1565
  32   2.0000      -0.784004       -21.3338
  33   2.0000      -0.770090       -20.9552
  34   2.0000      -0.711033       -19.3482
  35   2.0000      -0.699021       -19.0213
  36   2.0000      -0.695185       -18.9170
  37   2.0000      -0.659915       -17.9572
  38   2.0000      -0.635647       -17.2968
  39   2.0000      -0.619119       -16.8471
  40   2.0000      -0.594907       -16.1882
  41   2.0000      -0.569451       -15.4956
  42   2.0000      -0.566408       -15.4128
  43   2.0000      -0.559281       -15.2188
  44   2.0000      -0.549182       -14.9440
  45   2.0000      -0.522033       -14.2052
  46   2.0000      -0.515618       -14.0307
  47   2.0000      -0.510639       -13.8952
  48   2.0000      -0.503060       -13.6890
  49   2.0000      -0.496871       -13.5205
  50   2.0000      -0.484772       -13.1913
  51   2.0000      -0.478181       -13.0120
  52   2.0000      -0.467448       -12.7199
  53   2.0000      -0.461462       -12.5570
  54   2.0000      -0.457787       -12.4570
  55   2.0000      -0.455315       -12.3898
  56   2.0000      -0.446676       -12.1547
  57   2.0000      -0.441637       -12.0176
  58   2.0000      -0.430989       -11.7278
  59   2.0000      -0.422949       -11.5090
  60   2.0000      -0.419092       -11.4041
  61   2.0000      -0.414507       -11.2793
  62   2.0000      -0.413533       -11.2528
  63   2.0000      -0.345915        -9.4128
  64   2.0000      -0.333481        -9.0745
  65   2.0000      -0.327647        -8.9157
  66   2.0000      -0.285756        -7.7758
  67   0.0000       0.032352         0.8803
  68   0.0000       0.067135         1.8268
  69   0.0000       0.110260         3.0003
  70   0.0000       0.118974         3.2374
  71   0.0000       0.125402         3.4124

MULLIKEN ATOMIC CHARGES
-----------------------
   0 S :    0.120038
   1 C :   -0.090231
   2 C :   -0.140530
   3 C :    0.026568
   4 C :   -0.129107
   5 H :    0.006386
   6 C :    0.066317
   7 H :    0.037614
   8 H :    0.010932
   9 C :   -0.018416
  10 H :    0.007483
  11 H :    0.019717
  12 C :   -0.055408
  13 H :    0.035415
  14 H :    0.038472
  15 H :    0.032494
  16 S :    0.110896
  17 C :   -0.088506
  18 C :   -0.037566
  19 C :   -0.038970
  20 C :   -0.166233
  21 H :    0.025362
  22 C :    0.063037
  23 H :    0.006567
  24 H :    0.018841
  25 C :   -0.056931
  26 H :    0.023622
  27 H :    0.037236
  28 C :   -0.053082
  29 H :    0.032291
  30 H :    0.050942
  31 H :    0.036408
  32 H :    0.012414
  33 H :    0.055928
Sum of atomic charges:   -0.0000000

LOEWDIN ATOMIC CHARGES
----------------------
   0 S :    0.420371
   1 C :   -0.191200
   2 C :   -0.052176
   3 C :   -0.075062
   4 C :   -0.204468
   5 H :    0.020933
   6 C :   -0.028324
   7 H :    0.034529
   8 H :    0.029215
   9 C :   -0.034831
  10 H :    0.011365
  11 H :    0.024219
  12 C :   -0.056712
  13 H :    0.027076
  14 H :    0.021793
  15 H :    0.026811
  16 S :    0.398678
  17 C :   -0.176020
  18 C :   -0.070217
  19 C :   -0.053448
  20 C :   -0.207391
  21 H :    0.035703
  22 C :   -0.034534
  23 H :    0.022185
  24 H :    0.032341
  25 C :   -0.025020
  26 H :    0.022873
  27 H :    0.021258
  28 C :   -0.072699
  29 H :    0.029069
  30 H :    0.034940
  31 H :    0.027634
  32 H :    0.010203
  33 H :    0.030907

  Mayer bond orders larger than 0.100000
B(  0-S ,  1-C ) :   1.1311 B(  0-S ,  4-C ) :   1.1735 B(  1-C ,  2-C ) :   1.5821
B(  1-C ,  4-C ) :   0.1039 B(  1-C , 32-H ) :   0.9773 B(  2-C ,  3-C ) :   1.2614
B(  2-C ,  6-C ) :   1.0156 B(  3-C ,  4-C ) :   1.5469 B(  3-C ,  5-H ) :   0.9897
B(  4-C , 20-C ) :   1.0335 B(  6-C ,  7-H ) :   0.9391 B(  6-C ,  8-H ) :   0.9408
B(  6-C ,  9-C ) :   1.0769 B(  9-C , 10-H ) :   0.9540 B(  9-C , 11-H ) :   0.9544
B(  9-C , 12-C ) :   1.0671 B( 12-C , 13-H ) :   0.9753 B( 12-C , 14-H ) :   0.9760
B( 12-C , 15-H ) :   0.9772 B( 16-S , 17-C ) :   1.1330 B( 16-S , 20-C ) :   1.1376
B( 17-C , 18-C ) :   1.6603 B( 17-C , 33-H ) :   0.9603 B( 18-C , 19-C ) :   1.2301
B( 18-C , 21-H ) :   0.9786 B( 19-C , 20-C ) :   1.5934 B( 19-C , 22-C ) :   1.0460
B( 22-C , 23-H ) :   0.9404 B( 22-C , 24-H ) :   0.9262 B( 22-C , 25-C ) :   1.0405
B( 25-C , 26-H ) :   0.9520 B( 25-C , 27-H ) :   0.9636 B( 25-C , 28-C ) :   1.0913
B( 28-C , 29-H ) :   0.9707 B( 28-C , 30-H ) :   0.9742 B( 28-C , 31-H ) :   0.9731

Dispersion correction           -0.014484388
FINAL SINGLE POINT ENERGY     -1339.854168825868

DIPOLE MOMENT
-------------
                                X             Y             Z
Electronic contribution:     16.70188      -0.09340      16.02753
Nuclear contribution   :    -16.88895       0.28060     -16.62393
                        -----------------------------------------
Total Dipole Moment    :     -0.18707       0.18720      -0.59640
                        -----------------------------------------
Magnitude (a.u.)       :      0.65248
Magnitude (Debye)      :      1.65847

Rotational constants in cm-1:     0.019099     0.008619     0.006938
Rotational constants in MHz :   572.569865   258.402429   208.008675

                             ****ORCA TERMINATED NORMALLY****
TOTAL RUN TIME: 0 days 0 hours 0 minutes 27 seconds 704 msec
