                         Program Version 4.2.1 -  RELEASE  -
|  1> ! wB97X-D3 SP def2-SVP
|  2> %pal
|  3> nprocs 16
|  4> end
|  5>
|  6> * xyz 0 1
|  7> S 	 1.96002 	 16.1957 	 87.4613
|  8> C 	 2.7783 	 17.6381 	 86.8576
|  9> C 	 4.03924 	 17.3547 	 86.282
| 10> C 	 4.37982 	 15.9996 	 86.5032
| 11> C 	 3.387 	 15.2643 	 87.1032
| 12> H 	 5.26834 	 15.4939 	 86.1806
| 13> C 	 4.891 	 18.4302 	 85.6412
| 14> H 	 5.65717 	 17.916 	 85.1641
| 15> H 	 5.2723 	 19.0866 	 86.4007
| 16> C 	 4.18523 	 19.3302 	 84.5646
| 17> H 	 3.64252 	 18.6812 	 83.8869
| 18> H 	 3.36992 	 19.9218 	 84.9921
| 19> C 	 5.12526 	 20.0728 	 83.6759
| 20> H 	 5.41489 	 20.9588 	 84.149
| 21> H 	 6.0862 	 19.535 	 83.5354
| 22> H 	 4.63538 	 20.3254 	 82.78
| 23> S 	 1.84934 	 13.0832 	 86.6648
| 24> C 	 2.52353 	 11.516 	 86.7694
| 25> C 	 3.84075 	 11.5331 	 87.2381
| 26> C 	 4.31817 	 12.8409 	 87.4507
| 27> C 	 3.36836 	 13.7873 	 87.1673
| 28> H 	 4.27007 	 10.5524 	 87.4141
| 29> C 	 5.80997 	 13.0358 	 87.8456
| 30> H 	 5.8317 	 13.7094 	 88.6956
| 31> H 	 6.3312 	 13.4325 	 86.9884
| 32> C 	 6.54325 	 11.7874 	 88.3347
| 33> H 	 7.55882 	 12.1259 	 88.5065
| 34> H 	 6.57615 	 10.947 	 87.6476
| 35> C 	 5.98857 	 11.2616 	 89.6527
| 36> H 	 5.83996 	 12.0702 	 90.3691
| 37> H 	 6.58217 	 10.5244 	 90.2439
| 38> H 	 5.00796 	 10.8293 	 89.4555
| 39> H 	 2.3381 	 18.6274 	 86.8464
| 40> H 	 1.97459 	 10.6474 	 86.4423
| 41> *
| 42>
| 43>                          ****END OF INPUT****

CARTESIAN COORDINATES (ANGSTROEM)
---------------------------------
  S      1.960020   16.195700   87.461300
  C      2.778300   17.638100   86.857600
  C      4.039240   17.354700   86.282000
  C      4.379820   15.999600   86.503200
  C      3.387000   15.264300   87.103200
  H      5.268340   15.493900   86.180600
  C      4.891000   18.430200   85.641200
  H      5.657170   17.916000   85.164100
  H      5.272300   19.086600   86.400700
  C      4.185230   19.330200   84.564600
  H      3.642520   18.681200   83.886900
  H      3.369920   19.921800   84.992100
  C      5.125260   20.072800   83.675900
  H      5.414890   20.958800   84.149000
  H      6.086200   19.535000   83.535400
  H      4.635380   20.325400   82.780000
  S      1.849340   13.083200   86.664800
  C      2.523530   11.516000   86.769400
  C      3.840750   11.533100   87.238100
  C      4.318170   12.840900   87.450700
  C      3.368360   13.787300   87.167300
  H      4.270070   10.552400   87.414100
  C      5.809970   13.035800   87.845600
  H      5.831700   13.709400   88.695600
  H      6.331200   13.432500   86.988400
  C      6.543250   11.787400   88.334700
  H      7.558820   12.125900   88.506500
  H      6.576150   10.947000   87.647600
  C      5.988570   11.261600   89.652700
  H      5.839960   12.070200   90.369100
  H      6.582170   10.524400   90.243900
  H      5.007960   10.829300   89.455500
  H      2.338100   18.627400   86.846400
  H      1.974590   10.647400   86.442300

 Total Charge           Charge          ....    0
 Multiplicity           Mult            ....    1
 Number of Electrons    NEL             ....  134
 Basis Dimension        Dim             ....  322

ORBITAL ENERGIES
----------------

  NO   OCC          E(Eh)            E(eV)
   0   2.0000     -88.969208     -2420.9752
   1   2.0000     -88.963645     -2420.8239
   2   2.0000     -10.326517      -280.9988
   3   2.0000     -10.323724      -280.9228
   4   2.0000     -10.313184      -280.6360
   5   2.0000     -10.311271      -280.5839
   6   2.0000     -10.302367      -280.3416
   7   2.0000     -10.301481      -280.3176
   8   2.0000     -10.295141      -280.1450
   9   2.0000     -10.291550      -280.0473
  10   2.0000     -10.290068      -280.0070
  11   2.0000     -10.287938      -279.9490
  12   2.0000     -10.286040      -279.8974
  13   2.0000     -10.283430      -279.8264
  14   2.0000     -10.275944      -279.6226
  15   2.0000     -10.269845      -279.4567
  16   2.0000      -8.083569      -219.9651
  17   2.0000      -8.079409      -219.8519
  18   2.0000      -6.041993      -164.4110
  19   2.0000      -6.038234      -164.3087
  20   2.0000      -6.037748      -164.2955
  21   2.0000      -6.034357      -164.2032
  22   2.0000      -6.033737      -164.1863
  23   2.0000      -6.030325      -164.0935
  24   2.0000      -1.009291       -27.4642
  25   2.0000      -0.984284       -26.7837
  26   2.0000      -0.915044       -24.8996
  27   2.0000      -0.912211       -24.8225
  28   2.0000      -0.867098       -23.5949
  29   2.0000      -0.856323       -23.3017
  30   2.0000      -0.845917       -23.0186
  31   2.0000      -0.814332       -22.1591
  32   2.0000      -0.786700       -21.4072
  33   2.0000      -0.771855       -21.0032
  34   2.0000      -0.707937       -19.2639
  35   2.0000      -0.701829       -19.0977
  36   2.0000      -0.689431       -18.7604
  37   2.0000      -0.661468       -17.9994
  38   2.0000      -0.639417       -17.3994
  39   2.0000      -0.618848       -16.8397
  40   2.0000      -0.602145       -16.3852
  41   2.0000      -0.572652       -15.5826
  42   2.0000      -0.564658       -15.3651
  43   2.0000      -0.561035       -15.2666
  44   2.0000      -0.533115       -14.5068
  45   2.0000      -0.532184       -14.4815
  46   2.0000      -0.521179       -14.1820
  47   2.0000      -0.512574       -13.9479
  48   2.0000      -0.506073       -13.7710
  49   2.0000      -0.494223       -13.4485
  50   2.0000      -0.490400       -13.3445
  51   2.0000      -0.477553       -12.9949
  52   2.0000      -0.471285       -12.8243
  53   2.0000      -0.462622       -12.5886
  54   2.0000      -0.461218       -12.5504
  55   2.0000      -0.455151       -12.3853
  56   2.0000      -0.444904       -12.1065
  57   2.0000      -0.438242       -11.9252
  58   2.0000      -0.434113       -11.8128
  59   2.0000      -0.428234       -11.6528
  60   2.0000      -0.425163       -11.5693
  61   2.0000      -0.415217       -11.2986
  62   2.0000      -0.413123       -11.2416
  63   2.0000      -0.349452        -9.5091
  64   2.0000      -0.334905        -9.1132
  65   2.0000      -0.332079        -9.0363
  66   2.0000      -0.281667        -7.6646
  67   0.0000       0.030623         0.8333
  68   0.0000       0.070474         1.9177
  69   0.0000       0.107382         2.9220
  70   0.0000       0.127372         3.4660
  71   0.0000       0.142578         3.8798

MULLIKEN ATOMIC CHARGES
-----------------------
   0 S :    0.112517
   1 C :   -0.128951
   2 C :   -0.092974
   3 C :    0.016441
   4 C :   -0.125884
   5 H :   -0.003463
   6 C :    0.123807
   7 H :   -0.005036
   8 H :    0.043274
   9 C :   -0.116084
  10 H :    0.019845
  11 H :    0.027142
  12 C :    0.009867
  13 H :    0.009604
  14 H :    0.028500
  15 H :    0.028349
  16 S :    0.108383
  17 C :   -0.099971
  18 C :   -0.058909
  19 C :   -0.043905
  20 C :   -0.157476
  21 H :    0.025907
  22 C :    0.086389
  23 H :    0.033679
  24 H :    0.047462
  25 C :   -0.065399
  26 H :    0.026823
  27 H :    0.030796
  28 C :   -0.071277
  29 H :    0.021614
  30 H :    0.040511
  31 H :    0.029153
  32 H :    0.046588
  33 H :    0.052677
Sum of atomic charges:   -0.0000000

LOEWDIN ATOMIC CHARGES
----------------------
   0 S :    0.404297
   1 C :   -0.197351
   2 C :   -0.054320
   3 C :   -0.065583
   4 C :   -0.193352
   5 H :    0.028070
   6 C :   -0.020924
   7 H :    0.018997
   8 H :    0.034008
   9 C :   -0.041996
  10 H :    0.022644
  11 H :    0.021443
  12 C :   -0.056083
  13 H :    0.016778
  14 H :    0.031763
  15 H :    0.024155
  16 S :    0.422873
  17 C :   -0.197488
  18 C :   -0.076901
  19 C :   -0.064372
  20 C :   -0.193977
  21 H :    0.033526
  22 C :   -0.020580
  23 H :    0.034311
  24 H :    0.031028
  25 C :   -0.042538
  26 H :    0.027525
  27 H :    0.021192
  28 C :   -0.071703
  29 H :    0.023471
  30 H :    0.029779
  31 H :    0.022822
  32 H :    0.023459
  33 H :    0.025028

  Mayer bond orders larger than 0.100000
B(  0-S ,  1-C ) :   1.1375 B(  0-S ,  4-C ) :   1.1569 B(  1-C ,  2-C ) :   1.5826
B(  1-C , 32-H ) :   0.9723 B(  2-C ,  3-C ) :   1.2662 B(  2-C ,  6-C ) :   1.0232
B(  3-C ,  4-C ) :   1.5612 B(  3-C ,  5-H ) :   0.9947 B(  4-C , 20-C ) :   1.0293
B(  6-C ,  7-H ) :   0.9338 B(  6-C ,  8-H ) :   0.9357 B(  6-C ,  9-C ) :   1.0625
B(  9-C , 10-H ) :   0.9623 B(  9-C , 11-H ) :   0.9520 B(  9-C , 12-C ) :   1.0921
B( 12-C , 13-H ) :   0.9701 B( 12-C , 14-H ) :   0.9706 B( 12-C , 15-H ) :   0.9735
B( 16-S , 17-C ) :   1.1774 B( 16-S , 20-C ) :   1.1527 B( 17-C , 18-C ) :   1.5866
B( 17-C , 33-H ) :   0.9667 B( 18-C , 19-C ) :   1.2484 B( 18-C , 21-H ) :   0.9863
B( 19-C , 20-C ) :   1.6232 B( 19-C , 22-C ) :   1.0046 B( 22-C , 23-H ) :   0.9337
B( 22-C , 24-H ) :   0.9319 B( 22-C , 25-C ) :   1.0981 B( 25-C , 26-H ) :   0.9489
B( 25-C , 27-H ) :   0.9459 B( 25-C , 28-C ) :   1.0765 B( 28-C , 29-H ) :   0.9711
B( 28-C , 30-H ) :   0.9749 B( 28-C , 31-H ) :   0.9742

Dispersion correction           -0.013518838
FINAL SINGLE POINT ENERGY     -1339.879442556444

DIPOLE MOMENT
-------------
                                X             Y             Z
Electronic contribution:    -21.51366      -6.29132       3.16863
Nuclear contribution   :     22.08088       6.38095      -3.40864
                        -----------------------------------------
Total Dipole Moment    :      0.56722       0.08963      -0.24001
                        -----------------------------------------
Magnitude (a.u.)       :      0.62240
Magnitude (Debye)      :      1.58201

Rotational constants in cm-1:     0.022714     0.006941     0.005933
Rotational constants in MHz :   680.952048   208.077664   177.866626

                             ****ORCA TERMINATED NORMALLY****
TOTAL RUN TIME: 0 days 0 hours 0 minutes 34 seconds 274 msec
