                         Program Version 4.2.1 -  RELEASE  -
|  1> ! wB97X-D3 SP def2-SVP
|  2> %pal
|  3> nprocs 16
|  4> end
|  5>
|  6> * xyz 0 1
|  7> S 	 -4.80576 	 38.8797 	 32.8063
|  8> C 	 -6.20213 	 37.7383 	 33.0223
|  9> C 	 -7.42057 	 38.4366 	 33.2162
| 10> C 	 -7.16537 	 39.7996 	 33.5482
| 11> C 	 -5.82149 	 40.1654 	 33.3575
| 12> H 	 -7.88255 	 40.5378 	 33.7903
| 13> C 	 -8.79687 	 37.8005 	 33.3473
| 14> H 	 -9.35017 	 38.0212 	 32.3779
| 15> H 	 -9.41088 	 38.2276 	 34.2005
| 16> C 	 -8.78648 	 36.2181 	 33.4664
| 17> H 	 -8.30815 	 35.8477 	 32.5498
| 18> H 	 -8.17917 	 35.8414 	 34.2864
| 19> C 	 -10.1559 	 35.5259 	 33.3944
| 20> H 	 -9.96696 	 34.3875 	 33.3357
| 21> H 	 -10.7101 	 35.5454 	 34.3096
| 22> H 	 -10.8135 	 35.8647 	 32.6074
| 23> S 	 -4.03075 	 41.7674 	 34.6816
| 24> C 	 -3.82773 	 43.4134 	 34.2896
| 25> C 	 -4.81915 	 43.8253 	 33.4377
| 26> C 	 -5.74679 	 42.8329 	 33.0164
| 27> C 	 -5.398 	 41.5847 	 33.5556
| 28> H 	 -4.89257 	 44.7986 	 33.1231
| 29> C 	 -6.87755 	 43.1706 	 32.0502
| 30> H 	 -7.79414 	 43.3798 	 32.5777
| 31> H 	 -7.05131 	 42.2098 	 31.5678
| 32> C 	 -6.66869 	 44.3711 	 31.108
| 33> H 	 -5.80019 	 44.2631 	 30.5125
| 34> H 	 -6.47621 	 45.2396 	 31.7063
| 35> C 	 -7.79032 	 44.3614 	 30.0876
| 36> H 	 -7.6749 	 43.3972 	 29.5353
| 37> H 	 -7.77837 	 45.215 	 29.4605
| 38> H 	 -8.80449 	 44.2516 	 30.5358
| 39> H 	 -6.12011 	 36.6958 	 32.9956
| 40> H 	 -3.2535 	 44.1639 	 34.7699
| 41> *
| 42>
| 43>                          ****END OF INPUT****

CARTESIAN COORDINATES (ANGSTROEM)
---------------------------------
  S     -4.805760   38.879700   32.806300
  C     -6.202130   37.738300   33.022300
  C     -7.420570   38.436600   33.216200
  C     -7.165370   39.799600   33.548200
  C     -5.821490   40.165400   33.357500
  H     -7.882550   40.537800   33.790300
  C     -8.796870   37.800500   33.347300
  H     -9.350170   38.021200   32.377900
  H     -9.410880   38.227600   34.200500
  C     -8.786480   36.218100   33.466400
  H     -8.308150   35.847700   32.549800
  H     -8.179170   35.841400   34.286400
  C    -10.155900   35.525900   33.394400
  H     -9.966960   34.387500   33.335700
  H    -10.710100   35.545400   34.309600
  H    -10.813500   35.864700   32.607400
  S     -4.030750   41.767400   34.681600
  C     -3.827730   43.413400   34.289600
  C     -4.819150   43.825300   33.437700
  C     -5.746790   42.832900   33.016400
  C     -5.398000   41.584700   33.555600
  H     -4.892570   44.798600   33.123100
  C     -6.877550   43.170600   32.050200
  H     -7.794140   43.379800   32.577700
  H     -7.051310   42.209800   31.567800
  C     -6.668690   44.371100   31.108000
  H     -5.800190   44.263100   30.512500
  H     -6.476210   45.239600   31.706300
  C     -7.790320   44.361400   30.087600
  H     -7.674900   43.397200   29.535300
  H     -7.778370   45.215000   29.460500
  H     -8.804490   44.251600   30.535800
  H     -6.120110   36.695800   32.995600
  H     -3.253500   44.163900   34.769900

 Total Charge           Charge          ....    0
 Multiplicity           Mult            ....    1
 Number of Electrons    NEL             ....  134
 Basis Dimension        Dim             ....  322

ORBITAL ENERGIES
----------------

  NO   OCC          E(Eh)            E(eV)
   0   2.0000     -88.972499     -2421.0648
   1   2.0000     -88.961672     -2420.7702
   2   2.0000     -10.331455      -281.1332
   3   2.0000     -10.329026      -281.0671
   4   2.0000     -10.317637      -280.7572
   5   2.0000     -10.308661      -280.5129
   6   2.0000     -10.308496      -280.5084
   7   2.0000     -10.308057      -280.4965
   8   2.0000     -10.304263      -280.3932
   9   2.0000     -10.293531      -280.1012
  10   2.0000     -10.291832      -280.0550
  11   2.0000     -10.290916      -280.0301
  12   2.0000     -10.284222      -279.8479
  13   2.0000     -10.283529      -279.8291
  14   2.0000     -10.281305      -279.7685
  15   2.0000     -10.280329      -279.7420
  16   2.0000      -8.086065      -220.0330
  17   2.0000      -8.076728      -219.7789
  18   2.0000      -6.044614      -164.4823
  19   2.0000      -6.040859      -164.3801
  20   2.0000      -6.036719      -164.2675
  21   2.0000      -6.035137      -164.2244
  22   2.0000      -6.031071      -164.1138
  23   2.0000      -6.027695      -164.0219
  24   2.0000      -1.001306       -27.2469
  25   2.0000      -0.979554       -26.6550
  26   2.0000      -0.915058       -24.9000
  27   2.0000      -0.904539       -24.6137
  28   2.0000      -0.862233       -23.4625
  29   2.0000      -0.854730       -23.2584
  30   2.0000      -0.847366       -23.0580
  31   2.0000      -0.809823       -22.0364
  32   2.0000      -0.780298       -21.2330
  33   2.0000      -0.769649       -20.9432
  34   2.0000      -0.712590       -19.3905
  35   2.0000      -0.710611       -19.3367
  36   2.0000      -0.689940       -18.7742
  37   2.0000      -0.655852       -17.8467
  38   2.0000      -0.640593       -17.4314
  39   2.0000      -0.612804       -16.6752
  40   2.0000      -0.598590       -16.2885
  41   2.0000      -0.572040       -15.5660
  42   2.0000      -0.567153       -15.4330
  43   2.0000      -0.566370       -15.4117
  44   2.0000      -0.533860       -14.5271
  45   2.0000      -0.520387       -14.1604
  46   2.0000      -0.517114       -14.0714
  47   2.0000      -0.511767       -13.9259
  48   2.0000      -0.502392       -13.6708
  49   2.0000      -0.492077       -13.3901
  50   2.0000      -0.489656       -13.3242
  51   2.0000      -0.478375       -13.0172
  52   2.0000      -0.472343       -12.8531
  53   2.0000      -0.464980       -12.6527
  54   2.0000      -0.457870       -12.4593
  55   2.0000      -0.449738       -12.2380
  56   2.0000      -0.447666       -12.1816
  57   2.0000      -0.437842       -11.9143
  58   2.0000      -0.434807       -11.8317
  59   2.0000      -0.432200       -11.7607
  60   2.0000      -0.422945       -11.5089
  61   2.0000      -0.418095       -11.3770
  62   2.0000      -0.410333       -11.1657
  63   2.0000      -0.336037        -9.1440
  64   2.0000      -0.332695        -9.0531
  65   2.0000      -0.326591        -8.8870
  66   2.0000      -0.292893        -7.9700
  67   0.0000       0.029291         0.7971
  68   0.0000       0.068483         1.8635
  69   0.0000       0.106362         2.8943
  70   0.0000       0.124845         3.3972
  71   0.0000       0.130794         3.5591

MULLIKEN ATOMIC CHARGES
-----------------------
   0 S :    0.133170
   1 C :   -0.124239
   2 C :   -0.049521
   3 C :    0.026435
   4 C :   -0.132047
   5 H :    0.001725
   6 C :    0.024425
   7 H :    0.050061
   8 H :    0.052847
   9 C :   -0.120010
  10 H :    0.034811
  11 H :    0.042387
  12 C :   -0.052183
  13 H :    0.038364
  14 H :    0.023533
  15 H :    0.037449
  16 S :    0.104047
  17 C :   -0.039547
  18 C :   -0.048593
  19 C :    0.002167
  20 C :   -0.216215
  21 H :   -0.024447
  22 C :    0.052197
  23 H :    0.033264
  24 H :    0.022824
  25 C :   -0.070775
  26 H :    0.023331
  27 H :    0.034236
  28 C :   -0.025370
  29 H :    0.035002
  30 H :    0.033201
  31 H :    0.023184
  32 H :    0.031419
  33 H :    0.042870
Sum of atomic charges:   -0.0000000

LOEWDIN ATOMIC CHARGES
----------------------
   0 S :    0.400164
   1 C :   -0.177952
   2 C :   -0.054657
   3 C :   -0.058901
   4 C :   -0.205620
   5 H :    0.025529
   6 C :   -0.039199
   7 H :    0.043596
   8 H :    0.037236
   9 C :   -0.048372
  10 H :    0.025572
  11 H :    0.024662
  12 C :   -0.070217
  13 H :    0.039056
  14 H :    0.017969
  15 H :    0.024170
  16 S :    0.414944
  17 C :   -0.195650
  18 C :   -0.070294
  19 C :   -0.049373
  20 C :   -0.192682
  21 H :    0.011979
  22 C :   -0.029733
  23 H :    0.031772
  24 H :    0.031384
  25 C :   -0.038741
  26 H :    0.022845
  27 H :    0.019362
  28 C :   -0.058566
  29 H :    0.034883
  30 H :    0.020069
  31 H :    0.024394
  32 H :    0.012489
  33 H :    0.027881

  Mayer bond orders larger than 0.100000
B(  0-S ,  1-C ) :   1.1217 B(  0-S ,  4-C ) :   1.1607 B(  1-C ,  2-C ) :   1.5985
B(  1-C , 32-H ) :   0.9692 B(  2-C ,  3-C ) :   1.2399 B(  2-C ,  6-C ) :   1.0203
B(  3-C ,  4-C ) :   1.5561 B(  3-C ,  5-H ) :   1.0019 B(  4-C , 20-C ) :   1.0250
B(  6-C ,  7-H ) :   0.9265 B(  6-C ,  8-H ) :   0.9539 B(  6-C ,  9-C ) :   1.0698
B(  9-C , 10-H ) :   0.9507 B(  9-C , 11-H ) :   0.9584 B(  9-C , 12-C ) :   1.0829
B( 12-C , 13-H ) :   0.9727 B( 12-C , 14-H ) :   0.9746 B( 12-C , 15-H ) :   0.9745
B( 16-S , 17-C ) :   1.1617 B( 16-S , 20-C ) :   1.1543 B( 17-C , 18-C ) :   1.5920
B( 17-C , 33-H ) :   0.9624 B( 18-C , 19-C ) :   1.2735 B( 18-C , 21-H ) :   0.9941
B( 19-C , 20-C ) :   1.5708 B( 19-C , 22-C ) :   1.0230 B( 22-C , 23-H ) :   0.9271
B( 22-C , 24-H ) :   0.9359 B( 22-C , 25-C ) :   1.0717 B( 25-C , 26-H ) :   0.9574
B( 25-C , 27-H ) :   0.9460 B( 25-C , 28-C ) :   1.0781 B( 28-C , 29-H ) :   0.9735
B( 28-C , 30-H ) :   0.9731 B( 28-C , 31-H ) :   0.9736

Dispersion correction           -0.013103229
FINAL SINGLE POINT ENERGY     -1339.862741448161

DIPOLE MOMENT
-------------
                                X             Y             Z
Electronic contribution:     25.06989       2.16714      10.64871
Nuclear contribution   :    -25.72989      -2.00880     -10.85247
                        -----------------------------------------
Total Dipole Moment    :     -0.66000       0.15834      -0.20377
                        -----------------------------------------
Magnitude (a.u.)       :      0.70866
Magnitude (Debye)      :      1.80126

Rotational constants in cm-1:     0.019370     0.007105     0.005678
Rotational constants in MHz :   580.684523   213.003118   170.236558

                             ****ORCA TERMINATED NORMALLY****
TOTAL RUN TIME: 0 days 0 hours 0 minutes 31 seconds 520 msec
