                         Program Version 4.2.1 -  RELEASE  -
|  1> ! wB97X-D3 SP def2-SVP
|  2> %pal
|  3> nprocs 16
|  4> end
|  5>
|  6> * xyz 0 1
|  7> S 	 -3.09471 	 48.9802 	 50.2934
|  8> C 	 -2.86269 	 48.2975 	 51.8644
|  9> C 	 -3.32974 	 49.1118 	 52.9056
| 10> C 	 -3.8673 	 50.3584 	 52.4302
| 11> C 	 -3.76073 	 50.3887 	 51.0073
| 12> H 	 -4.48076 	 51.0441 	 52.9798
| 13> C 	 -3.14176 	 48.7418 	 54.3474
| 14> H 	 -2.32998 	 48.0092 	 54.2847
| 15> H 	 -4.02811 	 48.2575 	 54.6733
| 16> C 	 -2.71544 	 49.9268 	 55.2798
| 17> H 	 -1.73518 	 50.2143 	 54.9062
| 18> H 	 -3.35697 	 50.7763 	 55.0413
| 19> C 	 -2.663 	 49.6001 	 56.7832
| 20> H 	 -1.79504 	 48.9315 	 57.0318
| 21> H 	 -2.48795 	 50.4951 	 57.4091
| 22> H 	 -3.60587 	 49.2107 	 57.2152
| 23> S 	 -3.21928 	 51.9979 	 48.9034
| 24> C 	 -4.35595 	 53.2661 	 48.5052
| 25> C 	 -5.54827 	 53.2223 	 49.2715
| 26> C 	 -5.50761 	 52.1396 	 50.2238
| 27> C 	 -4.31787 	 51.4408 	 50.1151
| 28> H 	 -6.29875 	 53.9614 	 49.0268
| 29> C 	 -6.59943 	 51.9154 	 51.2439
| 30> H 	 -6.22667 	 52.2928 	 52.1534
| 31> H 	 -6.70299 	 50.9047 	 51.4249
| 32> C 	 -7.90635 	 52.5614 	 50.9442
| 33> H 	 -8.66605 	 51.9678 	 51.3939
| 34> H 	 -8.13635 	 52.5404 	 49.8552
| 35> C 	 -8.2341 	 54.0197 	 51.4547
| 36> H 	 -9.25362 	 54.3198 	 51.4796
| 37> H 	 -7.75681 	 54.7958 	 50.9081
| 38> H 	 -7.87752 	 54.1889 	 52.4814
| 39> H 	 -2.32462 	 47.3771 	 52.1503
| 40> H 	 -4.32502 	 54.034 	 47.6441
| 41> *
| 42>
| 43>                          ****END OF INPUT****

CARTESIAN COORDINATES (ANGSTROEM)
---------------------------------
  S     -3.094710   48.980200   50.293400
  C     -2.862690   48.297500   51.864400
  C     -3.329740   49.111800   52.905600
  C     -3.867300   50.358400   52.430200
  C     -3.760730   50.388700   51.007300
  H     -4.480760   51.044100   52.979800
  C     -3.141760   48.741800   54.347400
  H     -2.329980   48.009200   54.284700
  H     -4.028110   48.257500   54.673300
  C     -2.715440   49.926800   55.279800
  H     -1.735180   50.214300   54.906200
  H     -3.356970   50.776300   55.041300
  C     -2.663000   49.600100   56.783200
  H     -1.795040   48.931500   57.031800
  H     -2.487950   50.495100   57.409100
  H     -3.605870   49.210700   57.215200
  S     -3.219280   51.997900   48.903400
  C     -4.355950   53.266100   48.505200
  C     -5.548270   53.222300   49.271500
  C     -5.507610   52.139600   50.223800
  C     -4.317870   51.440800   50.115100
  H     -6.298750   53.961400   49.026800
  C     -6.599430   51.915400   51.243900
  H     -6.226670   52.292800   52.153400
  H     -6.702990   50.904700   51.424900
  C     -7.906350   52.561400   50.944200
  H     -8.666050   51.967800   51.393900
  H     -8.136350   52.540400   49.855200
  C     -8.234100   54.019700   51.454700
  H     -9.253620   54.319800   51.479600
  H     -7.756810   54.795800   50.908100
  H     -7.877520   54.188900   52.481400
  H     -2.324620   47.377100   52.150300
  H     -4.325020   54.034000   47.644100

 Total Charge           Charge          ....    0
 Multiplicity           Mult            ....    1
 Number of Electrons    NEL             ....  134
 Basis Dimension        Dim             ....  322

ORBITAL ENERGIES
----------------

  NO   OCC          E(Eh)            E(eV)
   0   2.0000     -88.972047     -2421.0525
   1   2.0000     -88.969489     -2420.9829
   2   2.0000     -10.331030      -281.1216
   3   2.0000     -10.322852      -280.8991
   4   2.0000     -10.321274      -280.8561
   5   2.0000     -10.310053      -280.5508
   6   2.0000     -10.303814      -280.3810
   7   2.0000     -10.299945      -280.2758
   8   2.0000     -10.297128      -280.1991
   9   2.0000     -10.296976      -280.1950
  10   2.0000     -10.290977      -280.0317
  11   2.0000     -10.288581      -279.9665
  12   2.0000     -10.288107      -279.9536
  13   2.0000     -10.287717      -279.9430
  14   2.0000     -10.282735      -279.8074
  15   2.0000     -10.276983      -279.6509
  16   2.0000      -8.087262      -220.0656
  17   2.0000      -8.084341      -219.9861
  18   2.0000      -6.045576      -164.5085
  19   2.0000      -6.042811      -164.4333
  20   2.0000      -6.041728      -164.4038
  21   2.0000      -6.038871      -164.3260
  22   2.0000      -6.038189      -164.3075
  23   2.0000      -6.035099      -164.2234
  24   2.0000      -1.007169       -27.4065
  25   2.0000      -0.982489       -26.7349
  26   2.0000      -0.916691       -24.9444
  27   2.0000      -0.909208       -24.7408
  28   2.0000      -0.861040       -23.4301
  29   2.0000      -0.851714       -23.1763
  30   2.0000      -0.844728       -22.9862
  31   2.0000      -0.813055       -22.1244
  32   2.0000      -0.791208       -21.5299
  33   2.0000      -0.770187       -20.9579
  34   2.0000      -0.714392       -19.4396
  35   2.0000      -0.703732       -19.1495
  36   2.0000      -0.684159       -18.6169
  37   2.0000      -0.655974       -17.8500
  38   2.0000      -0.634183       -17.2570
  39   2.0000      -0.621395       -16.9090
  40   2.0000      -0.596306       -16.2263
  41   2.0000      -0.569325       -15.4921
  42   2.0000      -0.562155       -15.2970
  43   2.0000      -0.553665       -15.0660
  44   2.0000      -0.532826       -14.4989
  45   2.0000      -0.518046       -14.0967
  46   2.0000      -0.517489       -14.0816
  47   2.0000      -0.510385       -13.8883
  48   2.0000      -0.503778       -13.7085
  49   2.0000      -0.498577       -13.5670
  50   2.0000      -0.488908       -13.3039
  51   2.0000      -0.478692       -13.0259
  52   2.0000      -0.470029       -12.7901
  53   2.0000      -0.464619       -12.6429
  54   2.0000      -0.455161       -12.3856
  55   2.0000      -0.454856       -12.3773
  56   2.0000      -0.453828       -12.3493
  57   2.0000      -0.439984       -11.9726
  58   2.0000      -0.432935       -11.7808
  59   2.0000      -0.427986       -11.6461
  60   2.0000      -0.427286       -11.6270
  61   2.0000      -0.420549       -11.4437
  62   2.0000      -0.416855       -11.3432
  63   2.0000      -0.341544        -9.2939
  64   2.0000      -0.332714        -9.0536
  65   2.0000      -0.330162        -8.9842
  66   2.0000      -0.286303        -7.7907
  67   0.0000       0.031065         0.8453
  68   0.0000       0.071793         1.9536
  69   0.0000       0.108045         2.9400
  70   0.0000       0.119799         3.2599
  71   0.0000       0.134827         3.6688

MULLIKEN ATOMIC CHARGES
-----------------------
   0 S :    0.137840
   1 C :   -0.124112
   2 C :   -0.132796
   3 C :    0.027514
   4 C :   -0.158037
   5 H :    0.012658
   6 C :    0.094517
   7 H :    0.016556
   8 H :    0.030798
   9 C :   -0.087967
  10 H :    0.031387
  11 H :    0.030522
  12 C :   -0.061238
  13 H :    0.043022
  14 H :    0.033793
  15 H :    0.035848
  16 S :    0.126643
  17 C :   -0.117310
  18 C :   -0.067951
  19 C :   -0.054665
  20 C :   -0.162890
  21 H :    0.024021
  22 C :    0.168372
  23 H :    0.020031
  24 H :    0.014917
  25 C :   -0.086473
  26 H :    0.019981
  27 H :    0.035767
  28 C :   -0.037091
  29 H :    0.028173
  30 H :    0.014283
  31 H :    0.020088
  32 H :    0.047903
  33 H :    0.075897
Sum of atomic charges:    0.0000000

LOEWDIN ATOMIC CHARGES
----------------------
   0 S :    0.439742
   1 C :   -0.227769
   2 C :   -0.057478
   3 C :   -0.068745
   4 C :   -0.198647
   5 H :    0.026485
   6 C :   -0.029628
   7 H :    0.030252
   8 H :    0.026168
   9 C :   -0.039748
  10 H :    0.028237
  11 H :    0.021429
  12 C :   -0.075330
  13 H :    0.032314
  14 H :    0.029951
  15 H :    0.027011
  16 S :    0.420599
  17 C :   -0.207302
  18 C :   -0.073091
  19 C :   -0.049317
  20 C :   -0.214623
  21 H :    0.032265
  22 C :   -0.023644
  23 H :    0.029428
  24 H :    0.028120
  25 C :   -0.038977
  26 H :    0.025722
  27 H :    0.030119
  28 C :   -0.065919
  29 H :    0.024075
  30 H :    0.015684
  31 H :    0.025606
  32 H :    0.031601
  33 H :    0.045407

  Mayer bond orders larger than 0.100000
B(  0-S ,  1-C ) :   1.1350 B(  0-S ,  4-C ) :   1.1970 B(  1-C ,  2-C ) :   1.6130
B(  1-C , 32-H ) :   0.9581 B(  2-C ,  3-C ) :   1.2593 B(  2-C ,  6-C ) :   1.0199
B(  3-C ,  4-C ) :   1.5337 B(  3-C ,  5-H ) :   0.9883 B(  4-C , 20-C ) :   1.0000
B(  6-C ,  7-H ) :   0.9447 B(  6-C ,  8-H ) :   0.9281 B(  6-C ,  9-C ) :   1.0589
B(  9-C , 10-H ) :   0.9570 B(  9-C , 11-H ) :   0.9577 B(  9-C , 12-C ) :   1.0824
B( 12-C , 13-H ) :   0.9748 B( 12-C , 14-H ) :   0.9732 B( 12-C , 15-H ) :   0.9752
B( 16-S , 17-C ) :   1.1550 B( 16-S , 20-C ) :   1.1486 B( 17-C , 18-C ) :   1.6249
B( 17-C , 33-H ) :   0.9515 B( 18-C , 19-C ) :   1.2239 B( 18-C , 21-H ) :   0.9861
B( 19-C , 20-C ) :   1.6128 B( 19-C , 22-C ) :   1.0323 B( 22-C , 23-H ) :   0.9129
B( 22-C , 24-H ) :   0.9185 B( 22-C , 25-C ) :   1.0759 B( 25-C , 26-H ) :   0.9499
B( 25-C , 27-H ) :   0.9573 B( 25-C , 28-C ) :   1.0715 B( 28-C , 29-H ) :   0.9761
B( 28-C , 30-H ) :   0.9776 B( 28-C , 31-H ) :   0.9706

Dispersion correction           -0.013767123
FINAL SINGLE POINT ENERGY     -1339.868960635806

DIPOLE MOMENT
-------------
                                X             Y             Z
Electronic contribution:     13.03046      -5.90915     -25.24294
Nuclear contribution   :    -13.44607       6.06383      25.77698
                        -----------------------------------------
Total Dipole Moment    :     -0.41561       0.15469       0.53404
                        -----------------------------------------
Magnitude (a.u.)       :      0.69416
Magnitude (Debye)      :      1.76442

Rotational constants in cm-1:     0.017379     0.008270     0.006309
Rotational constants in MHz :   520.998984   247.921586   189.142572

                             ****ORCA TERMINATED NORMALLY****
TOTAL RUN TIME: 0 days 0 hours 0 minutes 32 seconds 364 msec
