                         Program Version 4.2.1 -  RELEASE  -
|  1> ! wB97X-D3 SP def2-SVP
|  2> %pal
|  3> nprocs 16
|  4> end
|  5>
|  6> * xyz 0 1
|  7> S 	 -2.01708 	 -13.3489 	 87.2474
|  8> C 	 -2.70087 	 -14.4702 	 88.3214
|  9> C 	 -3.9842 	 -14.1055 	 88.7532
| 10> C 	 -4.39825 	 -12.8923 	 88.1532
| 11> C 	 -3.43326 	 -12.2958 	 87.3052
| 12> H 	 -5.40394 	 -12.4795 	 88.2322
| 13> C 	 -4.82082 	 -14.8336 	 89.7574
| 14> H 	 -5.06334 	 -14.0741 	 90.4817
| 15> H 	 -4.17201 	 -15.5453 	 90.266
| 16> C 	 -5.98659 	 -15.7698 	 89.2772
| 17> H 	 -6.77741 	 -15.1304 	 88.8894
| 18> H 	 -5.6295 	 -16.4163 	 88.5553
| 19> C 	 -6.55389 	 -16.6024 	 90.3926
| 20> H 	 -6.96652 	 -15.9812 	 91.1929
| 21> H 	 -7.45644 	 -17.0661 	 89.9952
| 22> H 	 -5.83229 	 -17.3241 	 90.7439
| 23> S 	 -2.65907 	 -9.73399 	 86.5543
| 24> C 	 -3.72137 	 -8.84246 	 85.6267
| 25> C 	 -4.7586 	 -9.54415 	 85.0827
| 26> C 	 -4.65717 	 -10.9407 	 85.4979
| 27> C 	 -3.63502 	 -11.2211 	 86.3408
| 28> H 	 -5.59092 	 -9.08351 	 84.5207
| 29> C 	 -5.84376 	 -11.8671 	 85.2108
| 30> H 	 -6.81989 	 -11.3613 	 84.9684
| 31> H 	 -6.0634 	 -12.3612 	 86.1692
| 32> C 	 -5.59774 	 -12.9789 	 84.1848
| 33> H 	 -4.70023 	 -13.5244 	 84.459
| 34> H 	 -5.35971 	 -12.5315 	 83.1728
| 35> C 	 -6.76763 	 -13.9534 	 83.9523
| 36> H 	 -6.39879 	 -14.8933 	 83.3771
| 37> H 	 -7.63178 	 -13.5662 	 83.4341
| 38> H 	 -7.10124 	 -14.3158 	 84.973
| 39> H 	 -2.22804 	 -15.4114 	 88.5825
| 40> H 	 -3.55086 	 -7.79343 	 85.4377
| 41> *
| 42>
| 43>                          ****END OF INPUT****

CARTESIAN COORDINATES (ANGSTROEM)
---------------------------------
  S     -2.017080  -13.348900   87.247400
  C     -2.700870  -14.470200   88.321400
  C     -3.984200  -14.105500   88.753200
  C     -4.398250  -12.892300   88.153200
  C     -3.433260  -12.295800   87.305200
  H     -5.403940  -12.479500   88.232200
  C     -4.820820  -14.833600   89.757400
  H     -5.063340  -14.074100   90.481700
  H     -4.172010  -15.545300   90.266000
  C     -5.986590  -15.769800   89.277200
  H     -6.777410  -15.130400   88.889400
  H     -5.629500  -16.416300   88.555300
  C     -6.553890  -16.602400   90.392600
  H     -6.966520  -15.981200   91.192900
  H     -7.456440  -17.066100   89.995200
  H     -5.832290  -17.324100   90.743900
  S     -2.659070   -9.733990   86.554300
  C     -3.721370   -8.842460   85.626700
  C     -4.758600   -9.544150   85.082700
  C     -4.657170  -10.940700   85.497900
  C     -3.635020  -11.221100   86.340800
  H     -5.590920   -9.083510   84.520700
  C     -5.843760  -11.867100   85.210800
  H     -6.819890  -11.361300   84.968400
  H     -6.063400  -12.361200   86.169200
  C     -5.597740  -12.978900   84.184800
  H     -4.700230  -13.524400   84.459000
  H     -5.359710  -12.531500   83.172800
  C     -6.767630  -13.953400   83.952300
  H     -6.398790  -14.893300   83.377100
  H     -7.631780  -13.566200   83.434100
  H     -7.101240  -14.315800   84.973000
  H     -2.228040  -15.411400   88.582500
  H     -3.550860   -7.793430   85.437700

 Total Charge           Charge          ....    0
 Multiplicity           Mult            ....    1
 Number of Electrons    NEL             ....  134
 Basis Dimension        Dim             ....  322

ORBITAL ENERGIES
----------------

  NO   OCC          E(Eh)            E(eV)
   0   2.0000     -88.968120     -2420.9456
   1   2.0000     -88.959776     -2420.7186
   2   2.0000     -10.331883      -281.1448
   3   2.0000     -10.323972      -280.9296
   4   2.0000     -10.313628      -280.6481
   5   2.0000     -10.312165      -280.6083
   6   2.0000     -10.305583      -280.4292
   7   2.0000     -10.299822      -280.2724
   8   2.0000     -10.298082      -280.2251
   9   2.0000     -10.294773      -280.1350
  10   2.0000     -10.293449      -280.0990
  11   2.0000     -10.289357      -279.9876
  12   2.0000     -10.286549      -279.9112
  13   2.0000     -10.285401      -279.8800
  14   2.0000     -10.283028      -279.8154
  15   2.0000     -10.277469      -279.6642
  16   2.0000      -8.083329      -219.9586
  17   2.0000      -8.076287      -219.7669
  18   2.0000      -6.041634      -164.4012
  19   2.0000      -6.037576      -164.2908
  20   2.0000      -6.034631      -164.2107
  21   2.0000      -6.034478      -164.2065
  22   2.0000      -6.030560      -164.0999
  23   2.0000      -6.027079      -164.0052
  24   2.0000      -1.008968       -27.4554
  25   2.0000      -0.989200       -26.9175
  26   2.0000      -0.914206       -24.8768
  27   2.0000      -0.904237       -24.6055
  28   2.0000      -0.871471       -23.7139
  29   2.0000      -0.857603       -23.3366
  30   2.0000      -0.846362       -23.0307
  31   2.0000      -0.812604       -22.1121
  32   2.0000      -0.780787       -21.2463
  33   2.0000      -0.768762       -20.9191
  34   2.0000      -0.706097       -19.2139
  35   2.0000      -0.698311       -19.0020
  36   2.0000      -0.686457       -18.6794
  37   2.0000      -0.662688       -18.0327
  38   2.0000      -0.642107       -17.4726
  39   2.0000      -0.621677       -16.9167
  40   2.0000      -0.596623       -16.2349
  41   2.0000      -0.578383       -15.7386
  42   2.0000      -0.566059       -15.4033
  43   2.0000      -0.555808       -15.1243
  44   2.0000      -0.527332       -14.3494
  45   2.0000      -0.518597       -14.1118
  46   2.0000      -0.517207       -14.0739
  47   2.0000      -0.508531       -13.8378
  48   2.0000      -0.506927       -13.7942
  49   2.0000      -0.497234       -13.5304
  50   2.0000      -0.493033       -13.4161
  51   2.0000      -0.485709       -13.2168
  52   2.0000      -0.473219       -12.8769
  53   2.0000      -0.465405       -12.6643
  54   2.0000      -0.456909       -12.4331
  55   2.0000      -0.452448       -12.3117
  56   2.0000      -0.445821       -12.1314
  57   2.0000      -0.437418       -11.9028
  58   2.0000      -0.429733       -11.6936
  59   2.0000      -0.425704       -11.5840
  60   2.0000      -0.419630       -11.4187
  61   2.0000      -0.417727       -11.3669
  62   2.0000      -0.404603       -11.0098
  63   2.0000      -0.342161        -9.3107
  64   2.0000      -0.332974        -9.0607
  65   2.0000      -0.329413        -8.9638
  66   2.0000      -0.294822        -8.0225
  67   0.0000       0.035214         0.9582
  68   0.0000       0.063496         1.7278
  69   0.0000       0.115824         3.1517
  70   0.0000       0.120618         3.2822
  71   0.0000       0.125722         3.4211

MULLIKEN ATOMIC CHARGES
-----------------------
   0 S :    0.126063
   1 C :   -0.112289
   2 C :   -0.106560
   3 C :    0.028937
   4 C :   -0.156151
   5 H :    0.027495
   6 C :    0.051661
   7 H :    0.033477
   8 H :    0.001586
   9 C :   -0.030573
  10 H :    0.022915
  11 H :    0.015937
  12 C :   -0.044492
  13 H :    0.027832
  14 H :    0.030796
  15 H :    0.038680
  16 S :    0.103492
  17 C :   -0.078684
  18 C :   -0.044960
  19 C :   -0.039399
  20 C :   -0.136922
  21 H :    0.033930
  22 C :    0.048829
  23 H :    0.026014
  24 H :    0.001929
  25 C :   -0.074995
  26 H :    0.034062
  27 H :    0.028935
  28 C :   -0.081185
  29 H :    0.050352
  30 H :    0.038253
  31 H :    0.028642
  32 H :    0.049094
  33 H :    0.057301
Sum of atomic charges:    0.0000000

LOEWDIN ATOMIC CHARGES
----------------------
   0 S :    0.433402
   1 C :   -0.212492
   2 C :   -0.071295
   3 C :   -0.055075
   4 C :   -0.202279
   5 H :    0.031970
   6 C :   -0.035138
   7 H :    0.032675
   8 H :    0.027228
   9 C :   -0.028228
  10 H :    0.021609
  11 H :    0.016455
  12 C :   -0.062312
  13 H :    0.026410
  14 H :    0.029880
  15 H :    0.023684
  16 S :    0.416802
  17 C :   -0.195232
  18 C :   -0.082264
  19 C :   -0.044779
  20 C :   -0.200860
  21 H :    0.039173
  22 C :   -0.037519
  23 H :    0.031744
  24 H :    0.026309
  25 C :   -0.047060
  26 H :    0.025197
  27 H :    0.026092
  28 C :   -0.075521
  29 H :    0.039103
  30 H :    0.020061
  31 H :    0.025644
  32 H :    0.028480
  33 H :    0.028134

  Mayer bond orders larger than 0.100000
B(  0-S ,  1-C ) :   1.1759 B(  0-S ,  4-C ) :   1.1685 B(  1-C ,  2-C ) :   1.5600
B(  1-C ,  4-C ) :   0.1061 B(  1-C , 32-H ) :   0.9657 B(  2-C ,  3-C ) :   1.2907
B(  2-C ,  6-C ) :   1.0285 B(  3-C ,  4-C ) :   1.5357 B(  3-C ,  5-H ) :   0.9872
B(  4-C , 20-C ) :   1.0045 B(  6-C ,  7-H ) :   0.9406 B(  6-C ,  8-H ) :   0.9376
B(  6-C ,  9-C ) :   1.0574 B(  9-C , 10-H ) :   0.9546 B(  9-C , 11-H ) :   0.9533
B(  9-C , 12-C ) :   1.0991 B( 12-C , 13-H ) :   0.9730 B( 12-C , 14-H ) :   0.9711
B( 12-C , 15-H ) :   0.9744 B( 16-S , 17-C ) :   1.1917 B( 16-S , 20-C ) :   1.1099
B( 17-C , 18-C ) :   1.6031 B( 17-C , 33-H ) :   0.9624 B( 18-C , 19-C ) :   1.2196
B( 18-C , 21-H ) :   0.9948 B( 19-C , 20-C ) :   1.6529 B( 19-C , 22-C ) :   1.0311
B( 22-C , 23-H ) :   0.9451 B( 22-C , 24-H ) :   0.9302 B( 22-C , 25-C ) :   1.0614
B( 25-C , 26-H ) :   0.9562 B( 25-C , 27-H ) :   0.9536 B( 25-C , 28-C ) :   1.0785
B( 28-C , 29-H ) :   0.9741 B( 28-C , 30-H ) :   0.9760 B( 28-C , 31-H ) :   0.9734

Dispersion correction           -0.014132504
FINAL SINGLE POINT ENERGY     -1339.882394555410

DIPOLE MOMENT
-------------
                                X             Y             Z
Electronic contribution:     24.55321      20.37495      -1.70750
Nuclear contribution   :    -25.25489     -20.66160       1.81216
                        -----------------------------------------
Total Dipole Moment    :     -0.70168      -0.28665       0.10465
                        -----------------------------------------
Magnitude (a.u.)       :      0.76517
Magnitude (Debye)      :      1.94490

Rotational constants in cm-1:     0.018193     0.008525     0.006806
Rotational constants in MHz :   545.419876   255.583034   204.049112

                             ****ORCA TERMINATED NORMALLY****
TOTAL RUN TIME: 0 days 0 hours 0 minutes 33 seconds 701 msec
