                         Program Version 4.2.1 -  RELEASE  -
|  1> ! wB97X-D3 SP def2-SVP
|  2> %pal
|  3> nprocs 16
|  4> end
|  5>
|  6> * xyz 0 1
|  7> S 	 -10.5847 	 49.1955 	 40.5639
|  8> C 	 -11.8086 	 49.4812 	 41.797
|  9> C 	 -11.5946 	 48.7435 	 42.9105
| 10> C 	 -10.499 	 47.8331 	 42.7459
| 11> C 	 -9.75847 	 48.0223 	 41.5741
| 12> H 	 -10.2215 	 47.0987 	 43.4697
| 13> C 	 -12.5924 	 48.733 	 44.1441
| 14> H 	 -13.4673 	 48.1243 	 43.8002
| 15> H 	 -12.7949 	 49.7855 	 44.4858
| 16> C 	 -12.2351 	 47.8772 	 45.3662
| 17> H 	 -13.09 	 47.8877 	 46.0405
| 18> H 	 -12.1906 	 46.795 	 45.1127
| 19> C 	 -11.1418 	 48.5035 	 46.2522
| 20> H 	 -11.2351 	 49.5868 	 46.2716
| 21> H 	 -11.1948 	 48.1161 	 47.2798
| 22> H 	 -10.0972 	 48.3975 	 45.9472
| 23> S 	 -8.27803 	 47.116 	 39.4104
| 24> C 	 -6.68263 	 46.2892 	 39.6136
| 25> C 	 -6.41371 	 46.1434 	 41.0355
| 26> C 	 -7.44928 	 46.6575 	 41.8481
| 27> C 	 -8.53654 	 47.2643 	 41.1746
| 28> H 	 -5.54282 	 45.5568 	 41.4293
| 29> C 	 -7.28792 	 46.7022 	 43.3737
| 30> H 	 -6.5237 	 45.9416 	 43.575
| 31> H 	 -8.15135 	 46.3066 	 43.8849
| 32> C 	 -6.92113 	 48.0914 	 43.8793
| 33> H 	 -7.76372 	 48.7199 	 43.7302
| 34> H 	 -6.13013 	 48.3389 	 43.1804
| 35> C 	 -6.32584 	 48.1599 	 45.349
| 36> H 	 -7.17296 	 48.0848 	 46.0335
| 37> H 	 -5.68036 	 49.0719 	 45.4336
| 38> H 	 -5.69031 	 47.256 	 45.5481
| 39> H 	 -12.6488 	 50.2017 	 41.8313
| 40> H 	 -6.10572 	 46.0195 	 38.7819
| 41> *
| 42>
| 43>                          ****END OF INPUT****

CARTESIAN COORDINATES (ANGSTROEM)
---------------------------------
  S    -10.584700   49.195500   40.563900
  C    -11.808600   49.481200   41.797000
  C    -11.594600   48.743500   42.910500
  C    -10.499000   47.833100   42.745900
  C     -9.758470   48.022300   41.574100
  H    -10.221500   47.098700   43.469700
  C    -12.592400   48.733000   44.144100
  H    -13.467300   48.124300   43.800200
  H    -12.794900   49.785500   44.485800
  C    -12.235100   47.877200   45.366200
  H    -13.090000   47.887700   46.040500
  H    -12.190600   46.795000   45.112700
  C    -11.141800   48.503500   46.252200
  H    -11.235100   49.586800   46.271600
  H    -11.194800   48.116100   47.279800
  H    -10.097200   48.397500   45.947200
  S     -8.278030   47.116000   39.410400
  C     -6.682630   46.289200   39.613600
  C     -6.413710   46.143400   41.035500
  C     -7.449280   46.657500   41.848100
  C     -8.536540   47.264300   41.174600
  H     -5.542820   45.556800   41.429300
  C     -7.287920   46.702200   43.373700
  H     -6.523700   45.941600   43.575000
  H     -8.151350   46.306600   43.884900
  C     -6.921130   48.091400   43.879300
  H     -7.763720   48.719900   43.730200
  H     -6.130130   48.338900   43.180400
  C     -6.325840   48.159900   45.349000
  H     -7.172960   48.084800   46.033500
  H     -5.680360   49.071900   45.433600
  H     -5.690310   47.256000   45.548100
  H    -12.648800   50.201700   41.831300
  H     -6.105720   46.019500   38.781900

 Total Charge           Charge          ....    0
 Multiplicity           Mult            ....    1
 Number of Electrons    NEL             ....  134
 Basis Dimension        Dim             ....  322

ORBITAL ENERGIES
----------------

  NO   OCC          E(Eh)            E(eV)
   0   2.0000     -88.971607     -2421.0405
   1   2.0000     -88.968298     -2420.9505
   2   2.0000     -10.339369      -281.3485
   3   2.0000     -10.338996      -281.3384
   4   2.0000     -10.330854      -281.1168
   5   2.0000     -10.314156      -280.6625
   6   2.0000     -10.310550      -280.5643
   7   2.0000     -10.308973      -280.5214
   8   2.0000     -10.307517      -280.4818
   9   2.0000     -10.302329      -280.3406
  10   2.0000     -10.294808      -280.1360
  11   2.0000     -10.294735      -280.1340
  12   2.0000     -10.289019      -279.9784
  13   2.0000     -10.287767      -279.9444
  14   2.0000     -10.281297      -279.7683
  15   2.0000     -10.280532      -279.7475
  16   2.0000      -8.085594      -220.0202
  17   2.0000      -8.081442      -219.9072
  18   2.0000      -6.044306      -164.4739
  19   2.0000      -6.040205      -164.3623
  20   2.0000      -6.039923      -164.3547
  21   2.0000      -6.036161      -164.2523
  22   2.0000      -6.036036      -164.2489
  23   2.0000      -6.032465      -164.1517
  24   2.0000      -1.000854       -27.2346
  25   2.0000      -0.975583       -26.5470
  26   2.0000      -0.909475       -24.7481
  27   2.0000      -0.903786       -24.5933
  28   2.0000      -0.866411       -23.5762
  29   2.0000      -0.844780       -22.9876
  30   2.0000      -0.839849       -22.8535
  31   2.0000      -0.810118       -22.0444
  32   2.0000      -0.782674       -21.2976
  33   2.0000      -0.772101       -21.0099
  34   2.0000      -0.708492       -19.2790
  35   2.0000      -0.697790       -18.9878
  36   2.0000      -0.690925       -18.8010
  37   2.0000      -0.666954       -18.1488
  38   2.0000      -0.633120       -17.2281
  39   2.0000      -0.620005       -16.8712
  40   2.0000      -0.593337       -16.1455
  41   2.0000      -0.566649       -15.4193
  42   2.0000      -0.562451       -15.3051
  43   2.0000      -0.555406       -15.1134
  44   2.0000      -0.536289       -14.5932
  45   2.0000      -0.520356       -14.1596
  46   2.0000      -0.517367       -14.0783
  47   2.0000      -0.509665       -13.8687
  48   2.0000      -0.500375       -13.6159
  49   2.0000      -0.495308       -13.4780
  50   2.0000      -0.490297       -13.3417
  51   2.0000      -0.485482       -13.2106
  52   2.0000      -0.469157       -12.7664
  53   2.0000      -0.464720       -12.6457
  54   2.0000      -0.454658       -12.3719
  55   2.0000      -0.449872       -12.2416
  56   2.0000      -0.444544       -12.0967
  57   2.0000      -0.439772       -11.9668
  58   2.0000      -0.433457       -11.7950
  59   2.0000      -0.423927       -11.5356
  60   2.0000      -0.418308       -11.3827
  61   2.0000      -0.409071       -11.1314
  62   2.0000      -0.407890       -11.0993
  63   2.0000      -0.353800        -9.6274
  64   2.0000      -0.336046        -9.1443
  65   2.0000      -0.332036        -9.0352
  66   2.0000      -0.283339        -7.7100
  67   0.0000       0.013711         0.3731
  68   0.0000       0.075471         2.0537
  69   0.0000       0.094385         2.5683
  70   0.0000       0.118689         3.2297
  71   0.0000       0.125761         3.4221

MULLIKEN ATOMIC CHARGES
-----------------------
   0 S :    0.118624
   1 C :   -0.123214
   2 C :   -0.077485
   3 C :    0.004243
   4 C :   -0.097913
   5 H :   -0.001720
   6 C :    0.019896
   7 H :    0.056001
   8 H :    0.050176
   9 C :   -0.095559
  10 H :    0.028006
  11 H :    0.040440
  12 C :   -0.052843
  13 H :    0.023880
  14 H :    0.037812
  15 H :    0.028094
  16 S :    0.078482
  17 C :   -0.093338
  18 C :   -0.041052
  19 C :   -0.069472
  20 C :   -0.135801
  21 H :    0.047659
  22 C :    0.051272
  23 H :    0.004685
  24 H :    0.019395
  25 C :   -0.054331
  26 H :    0.039616
  27 H :    0.026364
  28 C :   -0.064138
  29 H :    0.038342
  30 H :    0.056438
  31 H :    0.031490
  32 H :    0.051942
  33 H :    0.054009
Sum of atomic charges:   -0.0000000

LOEWDIN ATOMIC CHARGES
----------------------
   0 S :    0.402833
   1 C :   -0.201320
   2 C :   -0.069815
   3 C :   -0.065833
   4 C :   -0.190507
   5 H :    0.023616
   6 C :   -0.033567
   7 H :    0.045480
   8 H :    0.036380
   9 C :   -0.054445
  10 H :    0.030540
  11 H :    0.029041
  12 C :   -0.072654
  13 H :    0.026894
  14 H :    0.028118
  15 H :    0.021249
  16 S :    0.376267
  17 C :   -0.160788
  18 C :   -0.072775
  19 C :   -0.061539
  20 C :   -0.179314
  21 H :    0.043235
  22 C :   -0.031779
  23 H :    0.025634
  24 H :    0.019305
  25 C :   -0.036112
  26 H :    0.021239
  27 H :    0.025408
  28 C :   -0.069342
  29 H :    0.023479
  30 H :    0.035405
  31 H :    0.027911
  32 H :    0.039712
  33 H :    0.018042

  Mayer bond orders larger than 0.100000
B(  0-S ,  1-C ) :   1.1233 B(  0-S ,  4-C ) :   1.1457 B(  1-C ,  2-C ) :   1.6557
B(  1-C , 32-H ) :   0.9606 B(  2-C ,  3-C ) :   1.2532 B(  2-C ,  6-C ) :   0.9905
B(  3-C ,  4-C ) :   1.5480 B(  3-C ,  5-H ) :   0.9926 B(  4-C , 20-C ) :   1.0686
B(  6-C ,  7-H ) :   0.9434 B(  6-C ,  8-H ) :   0.9460 B(  6-C ,  9-C ) :   1.1011
B(  9-C , 10-H ) :   0.9512 B(  9-C , 11-H ) :   0.9476 B(  9-C , 12-C ) :   1.0595
B( 12-C , 13-H ) :   0.9704 B( 12-C , 14-H ) :   0.9783 B( 12-C , 15-H ) :   0.9773
B( 16-S , 17-C ) :   1.1710 B( 16-S , 20-C ) :   1.1403 B( 17-C , 18-C ) :   1.5336
B( 17-C , 20-C ) :   0.1214 B( 17-C , 33-H ) :   0.9799 B( 18-C , 19-C ) :   1.3063
B( 18-C , 21-H ) :   0.9750 B( 19-C , 20-C ) :   1.5415 B( 19-C , 22-C ) :   1.0421
B( 22-C , 23-H ) :   0.9288 B( 22-C , 24-H ) :   0.9338 B( 22-C , 25-C ) :   1.0550
B( 25-C , 26-H ) :   0.9556 B( 25-C , 27-H ) :   0.9553 B( 25-C , 28-C ) :   1.0707
B( 28-C , 29-H ) :   0.9771 B( 28-C , 30-H ) :   0.9770 B( 28-C , 31-H ) :   0.9753

Dispersion correction           -0.014916376
FINAL SINGLE POINT ENERGY     -1339.863855162248

DIPOLE MOMENT
-------------
                                X             Y             Z
Electronic contribution:     -1.33018       0.05657     -32.19723
Nuclear contribution   :      1.28307      -0.21584      32.91955
                        -----------------------------------------
Total Dipole Moment    :     -0.04711      -0.15927       0.72232
                        -----------------------------------------
Magnitude (a.u.)       :      0.74117
Magnitude (Debye)      :      1.88390

Rotational constants in cm-1:     0.017033     0.010172     0.006985
Rotational constants in MHz :   510.623814   304.937358   209.398098

                             ****ORCA TERMINATED NORMALLY****
TOTAL RUN TIME: 0 days 0 hours 0 minutes 35 seconds 192 msec
