                         Program Version 4.2.1 -  RELEASE  -
|  1> ! wB97X-D3 SP def2-SVP
|  2> %pal
|  3> nprocs 16
|  4> end
|  5>
|  6> * xyz 0 1
|  7> S 	 7.00532 	 -12.2465 	 64.1552
|  8> C 	 8.73689 	 -12.4397 	 64.1745
|  9> C 	 9.34804 	 -11.9146 	 65.3256
| 10> C 	 8.32931 	 -11.4213 	 66.2095
| 11> C 	 7.03181 	 -11.6851 	 65.7878
| 12> H 	 8.52624 	 -11.0006 	 67.162
| 13> C 	 10.831 	 -11.975 	 65.7108
| 14> H 	 10.8753 	 -11.7957 	 66.8231
| 15> H 	 11.3479 	 -11.1272 	 65.2366
| 16> C 	 11.6591 	 -13.156 	 65.3014
| 17> H 	 11.6045 	 -13.232 	 64.2096
| 18> H 	 12.733 	 -13.0169 	 65.3725
| 19> C 	 11.3243 	 -14.4294 	 66.1122
| 20> H 	 11.9943 	 -14.3792 	 66.9576
| 21> H 	 10.2454 	 -14.4155 	 66.4005
| 22> H 	 11.4627 	 -15.3444 	 65.4677
| 23> S 	 4.69503 	 -10.1676 	 65.8108
| 24> C 	 3.59381 	 -10.313 	 67.1926
| 25> C 	 4.07974 	 -11.2442 	 68.1016
| 26> C 	 5.21937 	 -11.9641 	 67.687
| 27> C 	 5.78886 	 -11.3722 	 66.5314
| 28> H 	 3.46301 	 -11.4932 	 68.944
| 29> C 	 5.7038 	 -13.1758 	 68.4415
| 30> H 	 5.88266 	 -12.8447 	 69.4884
| 31> H 	 6.71039 	 -13.4517 	 68.0696
| 32> C 	 4.95377 	 -14.5092 	 68.4412
| 33> H 	 3.94128 	 -14.3449 	 68.8672
| 34> H 	 5.49917 	 -15.0894 	 69.093
| 35> C 	 4.8887 	 -15.3012 	 67.0941
| 36> H 	 4.42784 	 -14.7363 	 66.3053
| 37> H 	 4.4773 	 -16.3133 	 67.2434
| 38> H 	 5.84023 	 -15.4298 	 66.6876
| 39> H 	 9.38398 	 -12.7522 	 63.3351
| 40> H 	 2.68746 	 -9.78711 	 67.4549
| 41> *
| 42>
| 43>                          ****END OF INPUT****

CARTESIAN COORDINATES (ANGSTROEM)
---------------------------------
  S      7.005320  -12.246500   64.155200
  C      8.736890  -12.439700   64.174500
  C      9.348040  -11.914600   65.325600
  C      8.329310  -11.421300   66.209500
  C      7.031810  -11.685100   65.787800
  H      8.526240  -11.000600   67.162000
  C     10.831000  -11.975000   65.710800
  H     10.875300  -11.795700   66.823100
  H     11.347900  -11.127200   65.236600
  C     11.659100  -13.156000   65.301400
  H     11.604500  -13.232000   64.209600
  H     12.733000  -13.016900   65.372500
  C     11.324300  -14.429400   66.112200
  H     11.994300  -14.379200   66.957600
  H     10.245400  -14.415500   66.400500
  H     11.462700  -15.344400   65.467700
  S      4.695030  -10.167600   65.810800
  C      3.593810  -10.313000   67.192600
  C      4.079740  -11.244200   68.101600
  C      5.219370  -11.964100   67.687000
  C      5.788860  -11.372200   66.531400
  H      3.463010  -11.493200   68.944000
  C      5.703800  -13.175800   68.441500
  H      5.882660  -12.844700   69.488400
  H      6.710390  -13.451700   68.069600
  C      4.953770  -14.509200   68.441200
  H      3.941280  -14.344900   68.867200
  H      5.499170  -15.089400   69.093000
  C      4.888700  -15.301200   67.094100
  H      4.427840  -14.736300   66.305300
  H      4.477300  -16.313300   67.243400
  H      5.840230  -15.429800   66.687600
  H      9.383980  -12.752200   63.335100
  H      2.687460   -9.787110   67.454900

 Total Charge           Charge          ....    0
 Multiplicity           Mult            ....    1
 Number of Electrons    NEL             ....  134
 Basis Dimension        Dim             ....  322

ORBITAL ENERGIES
----------------

  NO   OCC          E(Eh)            E(eV)
   0   2.0000     -88.970693     -2421.0156
   1   2.0000     -88.969032     -2420.9704
   2   2.0000     -10.332161      -281.1524
   3   2.0000     -10.328794      -281.0608
   4   2.0000     -10.318841      -280.7899
   5   2.0000     -10.316410      -280.7238
   6   2.0000     -10.305489      -280.4266
   7   2.0000     -10.305411      -280.4245
   8   2.0000     -10.298762      -280.2436
   9   2.0000     -10.293118      -280.0900
  10   2.0000     -10.293027      -280.0875
  11   2.0000     -10.289297      -279.9860
  12   2.0000     -10.286740      -279.9164
  13   2.0000     -10.283930      -279.8400
  14   2.0000     -10.281987      -279.7871
  15   2.0000     -10.269555      -279.4488
  16   2.0000      -8.085564      -220.0194
  17   2.0000      -8.082543      -219.9372
  18   2.0000      -6.044002      -164.4656
  19   2.0000      -6.041143      -164.3879
  20   2.0000      -6.040086      -164.3591
  21   2.0000      -6.037175      -164.2799
  22   2.0000      -6.036363      -164.2578
  23   2.0000      -6.033332      -164.1753
  24   2.0000      -1.003254       -27.2999
  25   2.0000      -0.980348       -26.6766
  26   2.0000      -0.914432       -24.8830
  27   2.0000      -0.905193       -24.6315
  28   2.0000      -0.862890       -23.4804
  29   2.0000      -0.850031       -23.1305
  30   2.0000      -0.846428       -23.0325
  31   2.0000      -0.809357       -22.0237
  32   2.0000      -0.784175       -21.3385
  33   2.0000      -0.773938       -21.0599
  34   2.0000      -0.707470       -19.2512
  35   2.0000      -0.704189       -19.1620
  36   2.0000      -0.691292       -18.8110
  37   2.0000      -0.655609       -17.8400
  38   2.0000      -0.636929       -17.3317
  39   2.0000      -0.611540       -16.6408
  40   2.0000      -0.591653       -16.0997
  41   2.0000      -0.573404       -15.6031
  42   2.0000      -0.553591       -15.0640
  43   2.0000      -0.548978       -14.9384
  44   2.0000      -0.544820       -14.8253
  45   2.0000      -0.537957       -14.6386
  46   2.0000      -0.513008       -13.9597
  47   2.0000      -0.507987       -13.8230
  48   2.0000      -0.499521       -13.5926
  49   2.0000      -0.493793       -13.4368
  50   2.0000      -0.490329       -13.3425
  51   2.0000      -0.472934       -12.8692
  52   2.0000      -0.469765       -12.7830
  53   2.0000      -0.466369       -12.6905
  54   2.0000      -0.457397       -12.4464
  55   2.0000      -0.445701       -12.1282
  56   2.0000      -0.445422       -12.1205
  57   2.0000      -0.439095       -11.9484
  58   2.0000      -0.435982       -11.8637
  59   2.0000      -0.428860       -11.6699
  60   2.0000      -0.420304       -11.4371
  61   2.0000      -0.414412       -11.2767
  62   2.0000      -0.409236       -11.1359
  63   2.0000      -0.338128        -9.2009
  64   2.0000      -0.330403        -8.9907
  65   2.0000      -0.327590        -8.9142
  66   2.0000      -0.296118        -8.0578
  67   0.0000       0.033805         0.9199
  68   0.0000       0.057741         1.5712
  69   0.0000       0.109044         2.9672
  70   0.0000       0.122919         3.3448
  71   0.0000       0.126148         3.4327

MULLIKEN ATOMIC CHARGES
-----------------------
   0 S :    0.134117
   1 C :   -0.127005
   2 C :   -0.102591
   3 C :    0.057122
   4 C :   -0.175936
   5 H :   -0.002126
   6 C :    0.057746
   7 H :    0.028643
   8 H :    0.040328
   9 C :   -0.083238
  10 H :    0.016260
  11 H :    0.023311
  12 C :   -0.061788
  13 H :    0.039276
  14 H :    0.049014
  15 H :    0.043776
  16 S :    0.109697
  17 C :   -0.085712
  18 C :   -0.040972
  19 C :   -0.009049
  20 C :   -0.175152
  21 H :    0.015078
  22 C :    0.026061
  23 H :    0.035786
  24 H :    0.017384
  25 C :   -0.030640
  26 H :    0.027223
  27 H :    0.012786
  28 C :   -0.028829
  29 H :    0.034213
  30 H :    0.041847
  31 H :    0.005658
  32 H :    0.053400
  33 H :    0.054310
Sum of atomic charges:   -0.0000000

LOEWDIN ATOMIC CHARGES
----------------------
   0 S :    0.425986
   1 C :   -0.211075
   2 C :   -0.063404
   3 C :   -0.052718
   4 C :   -0.210294
   5 H :    0.024908
   6 C :   -0.036360
   7 H :    0.033123
   8 H :    0.038965
   9 C :   -0.052769
  10 H :    0.020561
  11 H :    0.026162
  12 C :   -0.067785
  13 H :    0.025443
  14 H :    0.030915
  15 H :    0.033471
  16 S :    0.390264
  17 C :   -0.182501
  18 C :   -0.071405
  19 C :   -0.055645
  20 C :   -0.193406
  21 H :    0.028402
  22 C :   -0.038319
  23 H :    0.037718
  24 H :    0.031164
  25 C :   -0.029751
  26 H :    0.022812
  27 H :    0.016435
  28 C :   -0.061381
  29 H :    0.026414
  30 H :    0.032160
  31 H :    0.016925
  32 H :    0.031951
  33 H :    0.033034

  Mayer bond orders larger than 0.100000
B(  0-S ,  1-C ) :   1.1465 B(  0-S ,  4-C ) :   1.1618 B(  1-C ,  2-C ) :   1.6050
B(  1-C , 32-H ) :   0.9592 B(  2-C ,  3-C ) :   1.2566 B(  2-C ,  6-C ) :   1.0098
B(  3-C ,  4-C ) :   1.5693 B(  3-C ,  5-H ) :   0.9979 B(  4-C , 20-C ) :   1.0160
B(  6-C ,  7-H ) :   0.9498 B(  6-C ,  8-H ) :   0.9232 B(  6-C ,  9-C ) :   1.0924
B(  9-C , 10-H ) :   0.9486 B(  9-C , 11-H ) :   0.9544 B(  9-C , 12-C ) :   1.0533
B( 12-C , 13-H ) :   0.9781 B( 12-C , 14-H ) :   0.9824 B( 12-C , 15-H ) :   0.9759
B( 16-S , 17-C ) :   1.1423 B( 16-S , 20-C ) :   1.1434 B( 17-C , 18-C ) :   1.6267
B( 17-C , 20-C ) :   0.1075 B( 17-C , 33-H ) :   0.9642 B( 18-C , 19-C ) :   1.2483
B( 18-C , 21-H ) :   0.9827 B( 19-C , 20-C ) :   1.5778 B( 19-C , 22-C ) :   1.0481
B( 22-C , 23-H ) :   0.9334 B( 22-C , 24-H ) :   0.9280 B( 22-C , 25-C ) :   1.0828
B( 25-C , 26-H ) :   0.9549 B( 25-C , 27-H ) :   0.9490 B( 25-C , 28-C ) :   1.0740
B( 28-C , 29-H ) :   0.9773 B( 28-C , 30-H ) :   0.9746 B( 28-C , 31-H ) :   0.9696

Dispersion correction           -0.014571692
FINAL SINGLE POINT ENERGY     -1339.871886498800

DIPOLE MOMENT
-------------
                                X             Y             Z
Electronic contribution:    -14.94659      18.99394     -10.65012
Nuclear contribution   :     15.35133     -19.26530      11.05329
                        -----------------------------------------
Total Dipole Moment    :      0.40474      -0.27136       0.40317
                        -----------------------------------------
Magnitude (a.u.)       :      0.63245
Magnitude (Debye)      :      1.60756

Rotational constants in cm-1:     0.020126     0.008419     0.007028
Rotational constants in MHz :   603.350562   252.405463   210.694550

                             ****ORCA TERMINATED NORMALLY****
TOTAL RUN TIME: 0 days 0 hours 0 minutes 35 seconds 121 msec
