                         Program Version 4.2.1 -  RELEASE  -
|  1> ! wB97X-D3 SP def2-SVP
|  2> %pal
|  3> nprocs 16
|  4> end
|  5>
|  6> * xyz 0 1
|  7> S 	 32.8922 	 2.27935 	 65.3325
|  8> C 	 32.5604 	 4.01558 	 65.0821
|  9> C 	 31.231 	 4.18313 	 64.8492
| 10> C 	 30.5005 	 3.0923 	 65.3677
| 11> C 	 31.2576 	 1.93849 	 65.5859
| 12> H 	 29.476 	 3.10063 	 65.556
| 13> C 	 30.4471 	 5.43569 	 64.5693
| 14> H 	 31.1462 	 6.29222 	 64.4634
| 15> H 	 29.8946 	 5.69322 	 65.4661
| 16> C 	 29.5834 	 5.55034 	 63.2855
| 17> H 	 29.2351 	 4.53011 	 63.0862
| 18> H 	 28.6724 	 6.18614 	 63.4473
| 19> C 	 30.3798 	 5.9639 	 62.0564
| 20> H 	 31.0286 	 5.04508 	 61.8845
| 21> H 	 29.7701 	 5.98224 	 61.1003
| 22> H 	 30.9556 	 6.91366 	 62.1373
| 23> S 	 31.6027 	 -0.0420771 	 67.564
| 24> C 	 30.7476 	 -1.53681 	 67.3553
| 25> C 	 29.8139 	 -1.39846 	 66.3263
| 26> C 	 30.0639 	 -0.301025 	 65.4487
| 27> C 	 30.8691 	 0.6343 	 66.0788
| 28> H 	 29.2278 	 -2.30206 	 66.1102
| 29> C 	 29.2798 	 -0.153447 	 64.1563
| 30> H 	 29.9116 	 0.543921 	 63.4399
| 31> H 	 28.3367 	 0.355597 	 64.4137
| 32> C 	 29.0343 	 -1.41416 	 63.356
| 33> H 	 28.2626 	 -2.06633 	 63.813
| 34> H 	 29.9534 	 -1.99562 	 63.0906
| 35> C 	 28.4887 	 -1.11903 	 61.9675
| 36> H 	 29.1673 	 -0.417642 	 61.4666
| 37> H 	 27.4866 	 -0.779497 	 61.9319
| 38> H 	 28.528 	 -2.07117 	 61.3714
| 39> H 	 33.2869 	 4.73199 	 64.8769
| 40> H 	 30.8099 	 -2.3826 	 67.9611
| 41> *
| 42>
| 43>                          ****END OF INPUT****

CARTESIAN COORDINATES (ANGSTROEM)
---------------------------------
  S     32.892200    2.279350   65.332500
  C     32.560400    4.015580   65.082100
  C     31.231000    4.183130   64.849200
  C     30.500500    3.092300   65.367700
  C     31.257600    1.938490   65.585900
  H     29.476000    3.100630   65.556000
  C     30.447100    5.435690   64.569300
  H     31.146200    6.292220   64.463400
  H     29.894600    5.693220   65.466100
  C     29.583400    5.550340   63.285500
  H     29.235100    4.530110   63.086200
  H     28.672400    6.186140   63.447300
  C     30.379800    5.963900   62.056400
  H     31.028600    5.045080   61.884500
  H     29.770100    5.982240   61.100300
  H     30.955600    6.913660   62.137300
  S     31.602700   -0.042077   67.564000
  C     30.747600   -1.536810   67.355300
  C     29.813900   -1.398460   66.326300
  C     30.063900   -0.301025   65.448700
  C     30.869100    0.634300   66.078800
  H     29.227800   -2.302060   66.110200
  C     29.279800   -0.153447   64.156300
  H     29.911600    0.543921   63.439900
  H     28.336700    0.355597   64.413700
  C     29.034300   -1.414160   63.356000
  H     28.262600   -2.066330   63.813000
  H     29.953400   -1.995620   63.090600
  C     28.488700   -1.119030   61.967500
  H     29.167300   -0.417642   61.466600
  H     27.486600   -0.779497   61.931900
  H     28.528000   -2.071170   61.371400
  H     33.286900    4.731990   64.876900
  H     30.809900   -2.382600   67.961100

 Total Charge           Charge          ....    0
 Multiplicity           Mult            ....    1
 Number of Electrons    NEL             ....  134
 Basis Dimension        Dim             ....  322

ORBITAL ENERGIES
----------------

  NO   OCC          E(Eh)            E(eV)
   0   2.0000     -88.965546     -2420.8756
   1   2.0000     -88.961895     -2420.7762
   2   2.0000     -10.325484      -280.9707
   3   2.0000     -10.322412      -280.8871
   4   2.0000     -10.314945      -280.6839
   5   2.0000     -10.310976      -280.5759
   6   2.0000     -10.304710      -280.4054
   7   2.0000     -10.303013      -280.3592
   8   2.0000     -10.298052      -280.2242
   9   2.0000     -10.292883      -280.0836
  10   2.0000     -10.292693      -280.0784
  11   2.0000     -10.292517      -280.0736
  12   2.0000     -10.290515      -280.0191
  13   2.0000     -10.288602      -279.9671
  14   2.0000     -10.286163      -279.9007
  15   2.0000     -10.277059      -279.6530
  16   2.0000      -8.079856      -219.8641
  17   2.0000      -8.077562      -219.8016
  18   2.0000      -6.038374      -164.3125
  19   2.0000      -6.035996      -164.2478
  20   2.0000      -6.034406      -164.2045
  21   2.0000      -6.031932      -164.1372
  22   2.0000      -6.030628      -164.1017
  23   2.0000      -6.028315      -164.0388
  24   2.0000      -1.010298       -27.4916
  25   2.0000      -0.985941       -26.8288
  26   2.0000      -0.913575       -24.8596
  27   2.0000      -0.912014       -24.8172
  28   2.0000      -0.871497       -23.7146
  29   2.0000      -0.854824       -23.2610
  30   2.0000      -0.842848       -22.9351
  31   2.0000      -0.810466       -22.0539
  32   2.0000      -0.782065       -21.2811
  33   2.0000      -0.774339       -21.0708
  34   2.0000      -0.706669       -19.2294
  35   2.0000      -0.695142       -18.9158
  36   2.0000      -0.691906       -18.8277
  37   2.0000      -0.650291       -17.6953
  38   2.0000      -0.645889       -17.5755
  39   2.0000      -0.623367       -16.9627
  40   2.0000      -0.597033       -16.2461
  41   2.0000      -0.577455       -15.7133
  42   2.0000      -0.572044       -15.5661
  43   2.0000      -0.552607       -15.0372
  44   2.0000      -0.536112       -14.5884
  45   2.0000      -0.527886       -14.3645
  46   2.0000      -0.519528       -14.1371
  47   2.0000      -0.511085       -13.9073
  48   2.0000      -0.505750       -13.7622
  49   2.0000      -0.502821       -13.6825
  50   2.0000      -0.484788       -13.1917
  51   2.0000      -0.478807       -13.0290
  52   2.0000      -0.472555       -12.8589
  53   2.0000      -0.461355       -12.5541
  54   2.0000      -0.458451       -12.4751
  55   2.0000      -0.443595       -12.0708
  56   2.0000      -0.440233       -11.9793
  57   2.0000      -0.433095       -11.7851
  58   2.0000      -0.430868       -11.7245
  59   2.0000      -0.422586       -11.4991
  60   2.0000      -0.418865       -11.3979
  61   2.0000      -0.416122       -11.3232
  62   2.0000      -0.412786       -11.2325
  63   2.0000      -0.335694        -9.1347
  64   2.0000      -0.331812        -9.0291
  65   2.0000      -0.325614        -8.8604
  66   2.0000      -0.298282        -8.1167
  67   0.0000       0.028695         0.7808
  68   0.0000       0.069127         1.8811
  69   0.0000       0.108697         2.9578
  70   0.0000       0.120096         3.2680
  71   0.0000       0.126109         3.4316

MULLIKEN ATOMIC CHARGES
-----------------------
   0 S :    0.109407
   1 C :   -0.099598
   2 C :   -0.056325
   3 C :    0.038632
   4 C :   -0.161862
   5 H :   -0.013259
   6 C :    0.030709
   7 H :    0.007803
   8 H :    0.039829
   9 C :   -0.061785
  10 H :    0.022738
  11 H :    0.040286
  12 C :   -0.101804
  13 H :    0.042819
  14 H :    0.044395
  15 H :    0.049198
  16 S :    0.117148
  17 C :   -0.083382
  18 C :   -0.029413
  19 C :   -0.022636
  20 C :   -0.152301
  21 H :    0.029478
  22 C :    0.031335
  23 H :    0.046908
  24 H :    0.051517
  25 C :   -0.111737
  26 H :    0.037341
  27 H :    0.045998
  28 C :   -0.047206
  29 H :    0.026704
  30 H :    0.026261
  31 H :    0.035022
  32 H :    0.027381
  33 H :    0.040399
Sum of atomic charges:   -0.0000000

LOEWDIN ATOMIC CHARGES
----------------------
   0 S :    0.419130
   1 C :   -0.169265
   2 C :   -0.066988
   3 C :   -0.052160
   4 C :   -0.212840
   5 H :    0.019119
   6 C :   -0.036353
   7 H :    0.027740
   8 H :    0.036258
   9 C :   -0.047355
  10 H :    0.023669
  11 H :    0.027606
  12 C :   -0.080849
  13 H :    0.036184
  14 H :    0.032396
  15 H :    0.026152
  16 S :    0.398357
  17 C :   -0.175686
  18 C :   -0.076049
  19 C :   -0.050930
  20 C :   -0.202060
  21 H :    0.031395
  22 C :   -0.039591
  23 H :    0.044099
  24 H :    0.039393
  25 C :   -0.052719
  26 H :    0.025486
  27 H :    0.035458
  28 C :   -0.063015
  29 H :    0.022802
  30 H :    0.015300
  31 H :    0.031991
  32 H :    0.014545
  33 H :    0.018780

  Mayer bond orders larger than 0.100000
B(  0-S ,  1-C ) :   1.1383 B(  0-S ,  4-C ) :   1.1688 B(  1-C ,  2-C ) :   1.6029
B(  1-C , 32-H ) :   0.9746 B(  2-C ,  3-C ) :   1.2206 B(  2-C ,  6-C ) :   1.0372
B(  3-C ,  4-C ) :   1.5636 B(  3-C ,  5-H ) :   1.0066 B(  4-C , 20-C ) :   1.0472
B(  6-C ,  7-H ) :   0.9449 B(  6-C ,  8-H ) :   0.9446 B(  6-C ,  9-C ) :   1.0465
B(  9-C , 10-H ) :   0.9596 B(  9-C , 11-H ) :   0.9565 B(  9-C , 12-C ) :   1.0743
B( 12-C , 13-H ) :   0.9766 B( 12-C , 14-H ) :   0.9730 B( 12-C , 15-H ) :   0.9743
B( 16-S , 17-C ) :   1.1619 B( 16-S , 20-C ) :   1.1263 B( 17-C , 18-C ) :   1.6177
B( 17-C , 20-C ) :   0.1006 B( 17-C , 33-H ) :   0.9739 B( 18-C , 19-C ) :   1.2363
B( 18-C , 21-H ) :   0.9726 B( 19-C , 20-C ) :   1.5947 B( 19-C , 22-C ) :   1.0467
B( 22-C , 23-H ) :   0.9333 B( 22-C , 24-H ) :   0.9328 B( 22-C , 25-C ) :   1.0710
B( 25-C , 26-H ) :   0.9439 B( 25-C , 27-H ) :   0.9593 B( 25-C , 28-C ) :   1.0918
B( 28-C , 29-H ) :   0.9723 B( 28-C , 30-H ) :   0.9742 B( 28-C , 31-H ) :   0.9754

Dispersion correction           -0.013631442
FINAL SINGLE POINT ENERGY     -1339.859435838425

DIPOLE MOMENT
-------------
                                X             Y             Z
Electronic contribution:     16.92440      -7.52222      23.52536
Nuclear contribution   :    -17.47321       7.54240     -23.90443
                        -----------------------------------------
Total Dipole Moment    :     -0.54880       0.02019      -0.37906
                        -----------------------------------------
Magnitude (a.u.)       :      0.66729
Magnitude (Debye)      :      1.69613

Rotational constants in cm-1:     0.017190     0.008841     0.006459
Rotational constants in MHz :   515.347319   265.054124   193.639889

                             ****ORCA TERMINATED NORMALLY****
TOTAL RUN TIME: 0 days 0 hours 0 minutes 29 seconds 341 msec
