                         Program Version 4.2.1 -  RELEASE  -
|  1> ! wB97X-D3 SP def2-SVP
|  2> %pal
|  3> nprocs 16
|  4> end
|  5>
|  6> * xyz 0 1
|  7> S 	 7.11671 	 -10.8838 	 73.8857
|  8> C 	 6.37042 	 -10.9622 	 72.3196
|  9> C 	 6.4908 	 -9.80895 	 71.5799
| 10> C 	 7.31652 	 -8.82526 	 72.2971
| 11> C 	 7.68041 	 -9.2596 	 73.563
| 12> H 	 7.6499 	 -7.87444 	 71.9898
| 13> C 	 5.96071 	 -9.6752 	 70.1674
| 14> H 	 5.34083 	 -10.4832 	 69.7914
| 15> H 	 6.91237 	 -9.80365 	 69.5131
| 16> C 	 5.23701 	 -8.33692 	 69.8778
| 17> H 	 5.67717 	 -7.50327 	 70.3627
| 18> H 	 5.32585 	 -8.18062 	 68.8313
| 19> C 	 3.7364 	 -8.33073 	 70.217
| 20> H 	 3.15984 	 -9.14604 	 69.7127
| 21> H 	 3.47499 	 -8.26783 	 71.3122
| 22> H 	 3.30173 	 -7.42356 	 69.7903
| 23> S 	 9.93802 	 -8.62239 	 75.066
| 24> C 	 9.75851 	 -7.36117 	 76.3066
| 25> C 	 8.50175 	 -6.73351 	 76.2941
| 26> C 	 7.63074 	 -7.32834 	 75.2909
| 27> C 	 8.25359 	 -8.41791 	 74.6247
| 28> H 	 8.46754 	 -5.95477 	 77.0311
| 29> C 	 6.35536 	 -6.66793 	 74.8999
| 30> H 	 6.06087 	 -6.9794 	 73.8803
| 31> H 	 6.45833 	 -5.57396 	 74.8819
| 32> C 	 5.21817 	 -6.82058 	 75.8719
| 33> H 	 4.44027 	 -6.23183 	 75.4869
| 34> H 	 5.58051 	 -6.33129 	 76.7626
| 35> C 	 4.62374 	 -8.19283 	 76.1545
| 36> H 	 3.87935 	 -7.97702 	 76.8988
| 37> H 	 5.41822 	 -8.82128 	 76.5376
| 38> H 	 4.0753 	 -8.7322 	 75.3737
| 39> H 	 5.93019 	 -11.8663 	 71.9337
| 40> H 	 10.5159 	 -6.99314 	 76.9875
| 41> *
| 42>
| 43>                          ****END OF INPUT****

CARTESIAN COORDINATES (ANGSTROEM)
---------------------------------
  S      7.116710  -10.883800   73.885700
  C      6.370420  -10.962200   72.319600
  C      6.490800   -9.808950   71.579900
  C      7.316520   -8.825260   72.297100
  C      7.680410   -9.259600   73.563000
  H      7.649900   -7.874440   71.989800
  C      5.960710   -9.675200   70.167400
  H      5.340830  -10.483200   69.791400
  H      6.912370   -9.803650   69.513100
  C      5.237010   -8.336920   69.877800
  H      5.677170   -7.503270   70.362700
  H      5.325850   -8.180620   68.831300
  C      3.736400   -8.330730   70.217000
  H      3.159840   -9.146040   69.712700
  H      3.474990   -8.267830   71.312200
  H      3.301730   -7.423560   69.790300
  S      9.938020   -8.622390   75.066000
  C      9.758510   -7.361170   76.306600
  C      8.501750   -6.733510   76.294100
  C      7.630740   -7.328340   75.290900
  C      8.253590   -8.417910   74.624700
  H      8.467540   -5.954770   77.031100
  C      6.355360   -6.667930   74.899900
  H      6.060870   -6.979400   73.880300
  H      6.458330   -5.573960   74.881900
  C      5.218170   -6.820580   75.871900
  H      4.440270   -6.231830   75.486900
  H      5.580510   -6.331290   76.762600
  C      4.623740   -8.192830   76.154500
  H      3.879350   -7.977020   76.898800
  H      5.418220   -8.821280   76.537600
  H      4.075300   -8.732200   75.373700
  H      5.930190  -11.866300   71.933700
  H     10.515900   -6.993140   76.987500

 Total Charge           Charge          ....    0
 Multiplicity           Mult            ....    1
 Number of Electrons    NEL             ....  134
 Basis Dimension        Dim             ....  322

ORBITAL ENERGIES
----------------

  NO   OCC          E(Eh)            E(eV)
   0   2.0000     -88.968478     -2420.9554
   1   2.0000     -88.963453     -2420.8186
   2   2.0000     -10.328864      -281.0627
   3   2.0000     -10.327464      -281.0246
   4   2.0000     -10.319847      -280.8173
   5   2.0000     -10.310400      -280.5602
   6   2.0000     -10.309610      -280.5387
   7   2.0000     -10.305202      -280.4188
   8   2.0000     -10.300710      -280.2966
   9   2.0000     -10.298280      -280.2304
  10   2.0000     -10.297232      -280.2019
  11   2.0000     -10.284817      -279.8641
  12   2.0000     -10.284183      -279.8468
  13   2.0000     -10.284118      -279.8451
  14   2.0000     -10.272812      -279.5374
  15   2.0000     -10.266120      -279.3553
  16   2.0000      -8.082432      -219.9341
  17   2.0000      -8.078538      -219.8282
  18   2.0000      -6.040942      -164.3824
  19   2.0000      -6.037065      -164.2769
  20   2.0000      -6.036982      -164.2746
  21   2.0000      -6.033229      -164.1725
  22   2.0000      -6.033008      -164.1665
  23   2.0000      -6.029332      -164.0665
  24   2.0000      -1.000285       -27.2191
  25   2.0000      -0.977046       -26.5868
  26   2.0000      -0.912445       -24.8289
  27   2.0000      -0.908436       -24.7198
  28   2.0000      -0.866785       -23.5864
  29   2.0000      -0.846937       -23.0463
  30   2.0000      -0.844466       -22.9791
  31   2.0000      -0.814880       -22.1740
  32   2.0000      -0.784172       -21.3384
  33   2.0000      -0.770838       -20.9756
  34   2.0000      -0.710132       -19.3237
  35   2.0000      -0.693229       -18.8637
  36   2.0000      -0.685016       -18.6402
  37   2.0000      -0.650883       -17.7114
  38   2.0000      -0.647193       -17.6110
  39   2.0000      -0.621826       -16.9207
  40   2.0000      -0.594675       -16.1819
  41   2.0000      -0.570038       -15.5115
  42   2.0000      -0.550012       -14.9666
  43   2.0000      -0.546634       -14.8747
  44   2.0000      -0.542863       -14.7721
  45   2.0000      -0.535320       -14.5668
  46   2.0000      -0.515594       -14.0300
  47   2.0000      -0.509822       -13.8730
  48   2.0000      -0.501063       -13.6346
  49   2.0000      -0.494288       -13.4503
  50   2.0000      -0.488956       -13.3052
  51   2.0000      -0.475261       -12.9325
  52   2.0000      -0.469509       -12.7760
  53   2.0000      -0.463807       -12.6208
  54   2.0000      -0.461608       -12.5610
  55   2.0000      -0.445700       -12.1281
  56   2.0000      -0.442674       -12.0458
  57   2.0000      -0.436562       -11.8795
  58   2.0000      -0.431632       -11.7453
  59   2.0000      -0.425907       -11.5895
  60   2.0000      -0.420477       -11.4418
  61   2.0000      -0.411476       -11.1968
  62   2.0000      -0.411180       -11.1888
  63   2.0000      -0.334991        -9.1156
  64   2.0000      -0.327132        -8.9017
  65   2.0000      -0.321860        -8.7583
  66   2.0000      -0.302607        -8.2343
  67   0.0000       0.039585         1.0772
  68   0.0000       0.060773         1.6537
  69   0.0000       0.105284         2.8649
  70   0.0000       0.119786         3.2595
  71   0.0000       0.127800         3.4776

MULLIKEN ATOMIC CHARGES
-----------------------
   0 S :    0.119208
   1 C :   -0.119459
   2 C :   -0.072804
   3 C :    0.065986
   4 C :   -0.170499
   5 H :   -0.000346
   6 C :    0.033252
   7 H :    0.016998
   8 H :    0.053084
   9 C :   -0.037943
  10 H :    0.022541
  11 H :    0.019251
  12 C :   -0.080791
  13 H :    0.033993
  14 H :    0.049970
  15 H :    0.027572
  16 S :    0.118728
  17 C :   -0.109632
  18 C :   -0.041124
  19 C :    0.005261
  20 C :   -0.191004
  21 H :    0.019477
  22 C :    0.078142
  23 H :    0.015811
  24 H :    0.027357
  25 C :   -0.070966
  26 H :    0.009802
  27 H :    0.015770
  28 C :   -0.029025
  29 H :    0.024169
  30 H :    0.036265
  31 H :    0.035816
  32 H :    0.041424
  33 H :    0.053714
Sum of atomic charges:   -0.0000000

LOEWDIN ATOMIC CHARGES
----------------------
   0 S :    0.409745
   1 C :   -0.198569
   2 C :   -0.063693
   3 C :   -0.049735
   4 C :   -0.199486
   5 H :    0.023515
   6 C :   -0.036321
   7 H :    0.027725
   8 H :    0.045200
   9 C :   -0.036656
  10 H :    0.019988
  11 H :    0.023078
  12 C :   -0.072962
  13 H :    0.026638
  14 H :    0.031732
  15 H :    0.025695
  16 S :    0.398439
  17 C :   -0.178914
  18 C :   -0.069525
  19 C :   -0.044859
  20 C :   -0.210431
  21 H :    0.033195
  22 C :   -0.037223
  23 H :    0.027623
  24 H :    0.037684
  25 C :   -0.037725
  26 H :    0.017056
  27 H :    0.021480
  28 C :   -0.064075
  29 H :    0.026207
  30 H :    0.024448
  31 H :    0.027785
  32 H :    0.024853
  33 H :    0.028088

  Mayer bond orders larger than 0.100000
B(  0-S ,  1-C ) :   1.1366 B(  0-S ,  4-C ) :   1.1536 B(  1-C ,  2-C ) :   1.6329
B(  1-C , 32-H ) :   0.9696 B(  2-C ,  3-C ) :   1.1950 B(  2-C ,  6-C ) :   1.0245
B(  3-C ,  4-C ) :   1.6037 B(  3-C ,  5-H ) :   1.0003 B(  4-C , 20-C ) :   1.0135
B(  6-C ,  7-H ) :   0.9468 B(  6-C ,  8-H ) :   0.9394 B(  6-C ,  9-C ) :   1.0602
B(  9-C , 10-H ) :   0.9604 B(  9-C , 11-H ) :   0.9515 B(  9-C , 12-C ) :   1.0805
B( 12-C , 13-H ) :   0.9737 B( 12-C , 14-H ) :   0.9767 B( 12-C , 15-H ) :   0.9727
B( 16-S , 17-C ) :   1.1466 B( 16-S , 20-C ) :   1.1454 B( 17-C , 18-C ) :   1.6510
B( 17-C , 33-H ) :   0.9642 B( 18-C , 19-C ) :   1.1915 B( 18-C , 21-H ) :   0.9919
B( 19-C , 20-C ) :   1.5862 B( 19-C , 22-C ) :   1.0528 B( 22-C , 23-H ) :   0.9267
B( 22-C , 24-H ) :   0.9356 B( 22-C , 25-C ) :   1.0789 B( 25-C , 26-H ) :   0.9502
B( 25-C , 27-H ) :   0.9561 B( 25-C , 28-C ) :   1.0820 B( 28-C , 29-H ) :   0.9709
B( 28-C , 30-H ) :   0.9733 B( 28-C , 31-H ) :   0.9742

Dispersion correction           -0.015169799
FINAL SINGLE POINT ENERGY     -1339.874953804758

DIPOLE MOMENT
-------------
                                X             Y             Z
Electronic contribution:     23.55385     -10.82176       9.44222
Nuclear contribution   :    -23.92078      11.34159      -9.79152
                        -----------------------------------------
Total Dipole Moment    :     -0.36693       0.51984      -0.34930
                        -----------------------------------------
Magnitude (a.u.)       :      0.72587
Magnitude (Debye)      :      1.84501

Rotational constants in cm-1:     0.019108     0.009119     0.007719
Rotational constants in MHz :   572.852840   273.374773   231.419541

                             ****ORCA TERMINATED NORMALLY****
TOTAL RUN TIME: 0 days 0 hours 0 minutes 35 seconds 536 msec
