                         Program Version 4.2.1 -  RELEASE  -
|  1> ! wB97X-D3 SP def2-SVP
|  2> %pal
|  3> nprocs 16
|  4> end
|  5>
|  6> * xyz 0 1
|  7> S 	 16.9374 	 32.5264 	 62.8411
|  8> C 	 18.5341 	 32.9907 	 62.2326
|  9> C 	 19.4532 	 32.9123 	 63.2256
| 10> C 	 18.917 	 32.3798 	 64.4101
| 11> C 	 17.5821 	 32.0163 	 64.3765
| 12> H 	 19.4849 	 32.1391 	 65.2942
| 13> C 	 20.9221 	 33.1906 	 63.0462
| 14> H 	 21.1952 	 33.2301 	 61.9629
| 15> H 	 21.5674 	 32.3889 	 63.5044
| 16> C 	 21.337 	 34.5435 	 63.6714
| 17> H 	 20.6508 	 35.3978 	 63.4072
| 18> H 	 21.3307 	 34.3737 	 64.7486
| 19> C 	 22.7313 	 34.8539 	 63.0922
| 20> H 	 23.2337 	 35.6921 	 63.5239
| 21> H 	 23.3962 	 34.0184 	 63.3103
| 22> H 	 22.6915 	 34.973 	 62.0422
| 23> S 	 15.0169 	 31.6781 	 65.3375
| 24> C 	 14.7141 	 30.6806 	 66.7011
| 25> C 	 15.8525 	 30.2504 	 67.2997
| 26> C 	 17.05 	 30.6533 	 66.5798
| 27> C 	 16.7622 	 31.3833 	 65.4082
| 28> H 	 15.8288 	 29.5844 	 68.1456
| 29> C 	 18.4294 	 29.9879 	 66.8773
| 30> H 	 19.1564 	 30.2988 	 66.0122
| 31> H 	 18.421 	 28.9535 	 66.7878
| 32> C 	 19.1284 	 30.2472 	 68.1691
| 33> H 	 20.0264 	 29.7267 	 68.1772
| 34> H 	 18.5945 	 29.9048 	 69.0432
| 35> C 	 19.4557 	 31.7294 	 68.2671
| 36> H 	 20.0829 	 32.1346 	 67.452
| 37> H 	 19.8207 	 31.9492 	 69.2582
| 38> H 	 18.5135 	 32.3219 	 68.3587
| 39> H 	 18.8063 	 33.1825 	 61.2197
| 40> H 	 13.7468 	 30.4581 	 67.0798
| 41> *
| 42>
| 43>                          ****END OF INPUT****

CARTESIAN COORDINATES (ANGSTROEM)
---------------------------------
  S     16.937400   32.526400   62.841100
  C     18.534100   32.990700   62.232600
  C     19.453200   32.912300   63.225600
  C     18.917000   32.379800   64.410100
  C     17.582100   32.016300   64.376500
  H     19.484900   32.139100   65.294200
  C     20.922100   33.190600   63.046200
  H     21.195200   33.230100   61.962900
  H     21.567400   32.388900   63.504400
  C     21.337000   34.543500   63.671400
  H     20.650800   35.397800   63.407200
  H     21.330700   34.373700   64.748600
  C     22.731300   34.853900   63.092200
  H     23.233700   35.692100   63.523900
  H     23.396200   34.018400   63.310300
  H     22.691500   34.973000   62.042200
  S     15.016900   31.678100   65.337500
  C     14.714100   30.680600   66.701100
  C     15.852500   30.250400   67.299700
  C     17.050000   30.653300   66.579800
  C     16.762200   31.383300   65.408200
  H     15.828800   29.584400   68.145600
  C     18.429400   29.987900   66.877300
  H     19.156400   30.298800   66.012200
  H     18.421000   28.953500   66.787800
  C     19.128400   30.247200   68.169100
  H     20.026400   29.726700   68.177200
  H     18.594500   29.904800   69.043200
  C     19.455700   31.729400   68.267100
  H     20.082900   32.134600   67.452000
  H     19.820700   31.949200   69.258200
  H     18.513500   32.321900   68.358700
  H     18.806300   33.182500   61.219700
  H     13.746800   30.458100   67.079800

 Total Charge           Charge          ....    0
 Multiplicity           Mult            ....    1
 Number of Electrons    NEL             ....  134
 Basis Dimension        Dim             ....  322

ORBITAL ENERGIES
----------------

  NO   OCC          E(Eh)            E(eV)
   0   2.0000     -88.965494     -2420.8742
   1   2.0000     -88.964834     -2420.8562
   2   2.0000     -10.335693      -281.2485
   3   2.0000     -10.332712      -281.1674
   4   2.0000     -10.313701      -280.6501
   5   2.0000     -10.312722      -280.6234
   6   2.0000     -10.310959      -280.5755
   7   2.0000     -10.298687      -280.2415
   8   2.0000     -10.295707      -280.1604
   9   2.0000     -10.294650      -280.1317
  10   2.0000     -10.292555      -280.0747
  11   2.0000     -10.291528      -280.0467
  12   2.0000     -10.289296      -279.9860
  13   2.0000     -10.277504      -279.6651
  14   2.0000     -10.275443      -279.6090
  15   2.0000     -10.273301      -279.5507
  16   2.0000      -8.080780      -219.8892
  17   2.0000      -8.079432      -219.8525
  18   2.0000      -6.039332      -164.3386
  19   2.0000      -6.038054      -164.3038
  20   2.0000      -6.035203      -164.2262
  21   2.0000      -6.033964      -164.1925
  22   2.0000      -6.031467      -164.1246
  23   2.0000      -6.030068      -164.0865
  24   2.0000      -1.009112       -27.4593
  25   2.0000      -0.987926       -26.8828
  26   2.0000      -0.916161       -24.9300
  27   2.0000      -0.914377       -24.8815
  28   2.0000      -0.874022       -23.7833
  29   2.0000      -0.850656       -23.1475
  30   2.0000      -0.842336       -22.9211
  31   2.0000      -0.817183       -22.2367
  32   2.0000      -0.782680       -21.2978
  33   2.0000      -0.774205       -21.0672
  34   2.0000      -0.713438       -19.4136
  35   2.0000      -0.697094       -18.9689
  36   2.0000      -0.696599       -18.9554
  37   2.0000      -0.659385       -17.9428
  38   2.0000      -0.640896       -17.4397
  39   2.0000      -0.625378       -17.0174
  40   2.0000      -0.600436       -16.3387
  41   2.0000      -0.575568       -15.6620
  42   2.0000      -0.565932       -15.3998
  43   2.0000      -0.559079       -15.2133
  44   2.0000      -0.548347       -14.9213
  45   2.0000      -0.521704       -14.1963
  46   2.0000      -0.516331       -14.0501
  47   2.0000      -0.513487       -13.9727
  48   2.0000      -0.506683       -13.7875
  49   2.0000      -0.505074       -13.7438
  50   2.0000      -0.489112       -13.3094
  51   2.0000      -0.480271       -13.0688
  52   2.0000      -0.471884       -12.8406
  53   2.0000      -0.469260       -12.7692
  54   2.0000      -0.459773       -12.5111
  55   2.0000      -0.448105       -12.1936
  56   2.0000      -0.440581       -11.9888
  57   2.0000      -0.438135       -11.9222
  58   2.0000      -0.431798       -11.7498
  59   2.0000      -0.427771       -11.6402
  60   2.0000      -0.421541       -11.4707
  61   2.0000      -0.413202       -11.2438
  62   2.0000      -0.409072       -11.1314
  63   2.0000      -0.362926        -9.8757
  64   2.0000      -0.334633        -9.1058
  65   2.0000      -0.328339        -8.9346
  66   2.0000      -0.285283        -7.7629
  67   0.0000       0.019081         0.5192
  68   0.0000       0.085955         2.3389
  69   0.0000       0.100764         2.7419
  70   0.0000       0.117218         3.1897
  71   0.0000       0.130262         3.5446

MULLIKEN ATOMIC CHARGES
-----------------------
   0 S :    0.094681
   1 C :   -0.113121
   2 C :   -0.033164
   3 C :    0.020832
   4 C :   -0.106782
   5 H :   -0.033858
   6 C :    0.004239
   7 H :    0.021064
   8 H :    0.042347
   9 C :   -0.093052
  10 H :    0.049277
  11 H :    0.035396
  12 C :   -0.015546
  13 H :    0.027054
  14 H :    0.017579
  15 H :    0.025781
  16 S :    0.095723
  17 C :   -0.063424
  18 C :   -0.023664
  19 C :   -0.024888
  20 C :   -0.128795
  21 H :    0.016502
  22 C :    0.003834
  23 H :    0.029299
  24 H :    0.020148
  25 C :   -0.012750
  26 H :    0.012662
  27 H :    0.021470
  28 C :   -0.077289
  29 H :    0.050741
  30 H :    0.017378
  31 H :    0.038188
  32 H :    0.036084
  33 H :    0.046053
Sum of atomic charges:    0.0000000

LOEWDIN ATOMIC CHARGES
----------------------
   0 S :    0.394156
   1 C :   -0.182987
   2 C :   -0.066777
   3 C :   -0.068722
   4 C :   -0.186580
   5 H :    0.020264
   6 C :   -0.032950
   7 H :    0.029042
   8 H :    0.035838
   9 C :   -0.038328
  10 H :    0.031743
  11 H :    0.023059
  12 C :   -0.061804
  13 H :    0.021118
  14 H :    0.024579
  15 H :    0.019778
  16 S :    0.405522
  17 C :   -0.183059
  18 C :   -0.070177
  19 C :   -0.053670
  20 C :   -0.183481
  21 H :    0.030889
  22 C :   -0.032892
  23 H :    0.040232
  24 H :    0.020848
  25 C :   -0.038010
  26 H :    0.019004
  27 H :    0.022882
  28 C :   -0.071246
  29 H :    0.025346
  30 H :    0.021843
  31 H :    0.032875
  32 H :    0.026105
  33 H :    0.025561

  Mayer bond orders larger than 0.100000
B(  0-S ,  1-C ) :   1.1240 B(  0-S ,  4-C ) :   1.1472 B(  1-C ,  2-C ) :   1.6169
B(  1-C , 32-H ) :   0.9703 B(  2-C ,  3-C ) :   1.2518 B(  2-C ,  6-C ) :   1.0198
B(  3-C ,  4-C ) :   1.5599 B(  3-C ,  5-H ) :   0.9873 B(  4-C , 20-C ) :   1.0739
B(  6-C ,  7-H ) :   0.9517 B(  6-C ,  8-H ) :   0.9421 B(  6-C ,  9-C ) :   1.0435
B(  9-C , 10-H ) :   0.9601 B(  9-C , 11-H ) :   0.9571 B(  9-C , 12-C ) :   1.0802
B( 12-C , 13-H ) :   0.9735 B( 12-C , 14-H ) :   0.9691 B( 12-C , 15-H ) :   0.9762
B( 16-S , 17-C ) :   1.1532 B( 16-S , 20-C ) :   1.1342 B( 17-C , 18-C ) :   1.6234
B( 17-C , 33-H ) :   0.9704 B( 18-C , 19-C ) :   1.2264 B( 18-C , 21-H ) :   0.9937
B( 19-C , 20-C ) :   1.5915 B( 19-C , 22-C ) :   1.0148 B( 22-C , 23-H ) :   0.9428
B( 22-C , 24-H ) :   0.9437 B( 22-C , 25-C ) :   1.0896 B( 25-C , 26-H ) :   0.9459
B( 25-C , 27-H ) :   0.9481 B( 25-C , 28-C ) :   1.0873 B( 28-C , 29-H ) :   0.9679
B( 28-C , 30-H ) :   0.9683 B( 28-C , 31-H ) :   0.9700

Dispersion correction           -0.014223976
FINAL SINGLE POINT ENERGY     -1339.877407718955

DIPOLE MOMENT
-------------
                                X             Y             Z
Electronic contribution:    -29.39718      -4.07139      -9.02907
Nuclear contribution   :     30.00544       3.81447       9.38691
                        -----------------------------------------
Total Dipole Moment    :      0.60827      -0.25692       0.35784
                        -----------------------------------------
Magnitude (a.u.)       :      0.75103
Magnitude (Debye)      :      1.90896

Rotational constants in cm-1:     0.019548     0.008760     0.006411
Rotational constants in MHz :   586.038718   262.632122   192.211100

                             ****ORCA TERMINATED NORMALLY****
TOTAL RUN TIME: 0 days 0 hours 0 minutes 35 seconds 611 msec
