                         Program Version 4.2.1 -  RELEASE  -
|  1> ! wB97X-D3 SP def2-SVP
|  2> %pal
|  3> nprocs 16
|  4> end
|  5>
|  6> * xyz 0 1
|  7> S 	 -46.9671 	 54.4079 	 100.961
|  8> C 	 -46.2141 	 52.8486 	 101.197
|  9> C 	 -46.132 	 52.1092 	 100.058
| 10> C 	 -46.7398 	 52.7466 	 98.9772
| 11> C 	 -47.1426 	 54.0506 	 99.2523
| 12> H 	 -46.9209 	 52.2957 	 98.0007
| 13> C 	 -45.6107 	 50.7221 	 99.9657
| 14> H 	 -46.1473 	 50.2108 	 99.1637
| 15> H 	 -45.8111 	 50.2377 	 100.92
| 16> C 	 -44.1456 	 50.538 	 99.5925
| 17> H 	 -44.0026 	 49.4296 	 99.3328
| 18> H 	 -44.0714 	 51.1034 	 98.6967
| 19> C 	 -43.1654 	 50.9744 	 100.7
| 20> H 	 -42.1026 	 50.888 	 100.471
| 21> H 	 -43.262 	 52.0523 	 100.741
| 22> H 	 -43.4209 	 50.5723 	 101.684
| 23> S 	 -49.5688 	 54.918 	 98.5952
| 24> C 	 -49.7852 	 55.8326 	 97.1643
| 25> C 	 -48.6058 	 56.2862 	 96.5701
| 26> C 	 -47.4661 	 55.6026 	 97.162
| 27> C 	 -47.8453 	 54.8767 	 98.2647
| 28> H 	 -48.63 	 56.9777 	 95.7393
| 29> C 	 -46.0453 	 55.7886 	 96.5524
| 30> H 	 -46.1819 	 55.9394 	 95.4207
| 31> H 	 -45.4979 	 54.8246 	 96.6256
| 32> C 	 -45.2373 	 56.9633 	 97.1518
| 33> H 	 -45.874 	 57.8837 	 97.2437
| 34> H 	 -44.4303 	 57.1762 	 96.4749
| 35> C 	 -44.7385 	 56.6481 	 98.5968
| 36> H 	 -45.5866 	 56.4295 	 99.3029
| 37> H 	 -44.0527 	 57.4295 	 98.9074
| 38> H 	 -44.1915 	 55.6888 	 98.646
| 39> H 	 -45.7901 	 52.4604 	 102.108
| 40> H 	 -50.6949 	 56.2963 	 96.9555
| 41> *
| 42>
| 43>                          ****END OF INPUT****

CARTESIAN COORDINATES (ANGSTROEM)
---------------------------------
  S    -46.967100   54.407900  100.961000
  C    -46.214100   52.848600  101.197000
  C    -46.132000   52.109200  100.058000
  C    -46.739800   52.746600   98.977200
  C    -47.142600   54.050600   99.252300
  H    -46.920900   52.295700   98.000700
  C    -45.610700   50.722100   99.965700
  H    -46.147300   50.210800   99.163700
  H    -45.811100   50.237700  100.920000
  C    -44.145600   50.538000   99.592500
  H    -44.002600   49.429600   99.332800
  H    -44.071400   51.103400   98.696700
  C    -43.165400   50.974400  100.700000
  H    -42.102600   50.888000  100.471000
  H    -43.262000   52.052300  100.741000
  H    -43.420900   50.572300  101.684000
  S    -49.568800   54.918000   98.595200
  C    -49.785200   55.832600   97.164300
  C    -48.605800   56.286200   96.570100
  C    -47.466100   55.602600   97.162000
  C    -47.845300   54.876700   98.264700
  H    -48.630000   56.977700   95.739300
  C    -46.045300   55.788600   96.552400
  H    -46.181900   55.939400   95.420700
  H    -45.497900   54.824600   96.625600
  C    -45.237300   56.963300   97.151800
  H    -45.874000   57.883700   97.243700
  H    -44.430300   57.176200   96.474900
  C    -44.738500   56.648100   98.596800
  H    -45.586600   56.429500   99.302900
  H    -44.052700   57.429500   98.907400
  H    -44.191500   55.688800   98.646000
  H    -45.790100   52.460400  102.108000
  H    -50.694900   56.296300   96.955500

 Total Charge           Charge          ....    0
 Multiplicity           Mult            ....    1
 Number of Electrons    NEL             ....  134
 Basis Dimension        Dim             ....  322

ORBITAL ENERGIES
----------------

  NO   OCC          E(Eh)            E(eV)
   0   2.0000     -88.972898     -2421.0756
   1   2.0000     -88.963973     -2420.8328
   2   2.0000     -10.328119      -281.0424
   3   2.0000     -10.323883      -280.9272
   4   2.0000     -10.310094      -280.5519
   5   2.0000     -10.308992      -280.5219
   6   2.0000     -10.308699      -280.5140
   7   2.0000     -10.302450      -280.3439
   8   2.0000     -10.296410      -280.1795
   9   2.0000     -10.290996      -280.0322
  10   2.0000     -10.290335      -280.0143
  11   2.0000     -10.289525      -279.9922
  12   2.0000     -10.289456      -279.9903
  13   2.0000     -10.287246      -279.9302
  14   2.0000     -10.277766      -279.6722
  15   2.0000     -10.275214      -279.6028
  16   2.0000      -8.086854      -220.0545
  17   2.0000      -8.079659      -219.8587
  18   2.0000      -6.045313      -164.5013
  19   2.0000      -6.041505      -164.3977
  20   2.0000      -6.037994      -164.3022
  21   2.0000      -6.037668      -164.2933
  22   2.0000      -6.034179      -164.1984
  23   2.0000      -6.030391      -164.0953
  24   2.0000      -1.009538       -27.4709
  25   2.0000      -0.987526       -26.8719
  26   2.0000      -0.916788       -24.9471
  27   2.0000      -0.899810       -24.4851
  28   2.0000      -0.866863       -23.5885
  29   2.0000      -0.851669       -23.1751
  30   2.0000      -0.844066       -22.9682
  31   2.0000      -0.808768       -22.0077
  32   2.0000      -0.784936       -21.3592
  33   2.0000      -0.772478       -21.0202
  34   2.0000      -0.706185       -19.2163
  35   2.0000      -0.696824       -18.9616
  36   2.0000      -0.690060       -18.7775
  37   2.0000      -0.663029       -18.0419
  38   2.0000      -0.639089       -17.3905
  39   2.0000      -0.619592       -16.8599
  40   2.0000      -0.593974       -16.1629
  41   2.0000      -0.570542       -15.5252
  42   2.0000      -0.550971       -14.9927
  43   2.0000      -0.545909       -14.8549
  44   2.0000      -0.542669       -14.7668
  45   2.0000      -0.527439       -14.3523
  46   2.0000      -0.519024       -14.1234
  47   2.0000      -0.507581       -13.8120
  48   2.0000      -0.500003       -13.6058
  49   2.0000      -0.495517       -13.4837
  50   2.0000      -0.484943       -13.1960
  51   2.0000      -0.479349       -13.0437
  52   2.0000      -0.467729       -12.7275
  53   2.0000      -0.467558       -12.7229
  54   2.0000      -0.457289       -12.4435
  55   2.0000      -0.451069       -12.2742
  56   2.0000      -0.446343       -12.1456
  57   2.0000      -0.434778       -11.8309
  58   2.0000      -0.432459       -11.7678
  59   2.0000      -0.429441       -11.6857
  60   2.0000      -0.418653       -11.3921
  61   2.0000      -0.414596       -11.2817
  62   2.0000      -0.412253       -11.2180
  63   2.0000      -0.339582        -9.2405
  64   2.0000      -0.329700        -8.9716
  65   2.0000      -0.326594        -8.8871
  66   2.0000      -0.303236        -8.2515
  67   0.0000       0.040679         1.1069
  68   0.0000       0.057107         1.5540
  69   0.0000       0.114524         3.1163
  70   0.0000       0.118375         3.2212
  71   0.0000       0.120302         3.2736

MULLIKEN ATOMIC CHARGES
-----------------------
   0 S :    0.129861
   1 C :   -0.115802
   2 C :   -0.068685
   3 C :    0.027877
   4 C :   -0.169903
   5 H :    0.018673
   6 C :    0.059542
   7 H :    0.023724
   8 H :    0.019982
   9 C :   -0.061618
  10 H :    0.041238
  11 H :    0.015992
  12 C :   -0.046067
  13 H :    0.038057
  14 H :    0.025896
  15 H :    0.031397
  16 S :    0.117009
  17 C :   -0.061213
  18 C :   -0.050264
  19 C :   -0.021740
  20 C :   -0.199995
  21 H :    0.022833
  22 C :    0.030683
  23 H :    0.035853
  24 H :    0.034427
  25 C :   -0.053320
  26 H :    0.037328
  27 H :    0.030745
  28 C :   -0.065093
  29 H :    0.040179
  30 H :    0.040260
  31 H :    0.024690
  32 H :    0.032625
  33 H :    0.034827
Sum of atomic charges:   -0.0000000

LOEWDIN ATOMIC CHARGES
----------------------
   0 S :    0.414875
   1 C :   -0.194793
   2 C :   -0.072711
   3 C :   -0.056294
   4 C :   -0.204966
   5 H :    0.034147
   6 C :   -0.030338
   7 H :    0.034398
   8 H :    0.027038
   9 C :   -0.037005
  10 H :    0.029658
  11 H :    0.018362
  12 C :   -0.071844
  13 H :    0.028682
  14 H :    0.026629
  15 H :    0.024204
  16 S :    0.421421
  17 C :   -0.187330
  18 C :   -0.065097
  19 C :   -0.051392
  20 C :   -0.201567
  21 H :    0.031444
  22 C :   -0.035824
  23 H :    0.036786
  24 H :    0.031887
  25 C :   -0.040108
  26 H :    0.030297
  27 H :    0.020956
  28 C :   -0.073652
  29 H :    0.025411
  30 H :    0.025005
  31 H :    0.024088
  32 H :    0.025348
  33 H :    0.012282

  Mayer bond orders larger than 0.100000
B(  0-S ,  1-C ) :   1.1345 B(  0-S ,  4-C ) :   1.1545 B(  1-C ,  2-C ) :   1.6117
B(  1-C , 32-H ) :   0.9621 B(  2-C ,  3-C ) :   1.2584 B(  2-C ,  6-C ) :   1.0226
B(  3-C ,  4-C ) :   1.5736 B(  3-C ,  5-H ) :   0.9898 B(  4-C , 20-C ) :   1.0045
B(  6-C ,  7-H ) :   0.9374 B(  6-C ,  8-H ) :   0.9400 B(  6-C ,  9-C ) :   1.0693
B(  9-C , 10-H ) :   0.9569 B(  9-C , 11-H ) :   0.9539 B(  9-C , 12-C ) :   1.0728
B( 12-C , 13-H ) :   0.9736 B( 12-C , 14-H ) :   0.9707 B( 12-C , 15-H ) :   0.9763
B( 16-S , 17-C ) :   1.1639 B( 16-S , 20-C ) :   1.1503 B( 17-C , 18-C ) :   1.6334
B( 17-C , 33-H ) :   0.9678 B( 18-C , 19-C ) :   1.2104 B( 18-C , 21-H ) :   0.9885
B( 19-C , 20-C ) :   1.6454 B( 19-C , 22-C ) :   1.0282 B( 22-C , 23-H ) :   0.9391
B( 22-C , 24-H ) :   0.9408 B( 22-C , 25-C ) :   1.0663 B( 25-C , 26-H ) :   0.9561
B( 25-C , 27-H ) :   0.9556 B( 25-C , 28-C ) :   1.0707 B( 28-C , 29-H ) :   0.9697
B( 28-C , 30-H ) :   0.9743 B( 28-C , 31-H ) :   0.9752

Dispersion correction           -0.015516427
FINAL SINGLE POINT ENERGY     -1339.883572552105

DIPOLE MOMENT
-------------
                                X             Y             Z
Electronic contribution:    -23.38051       6.31807       4.06377
Nuclear contribution   :     23.70147      -6.45749      -4.37227
                        -----------------------------------------
Total Dipole Moment    :      0.32096      -0.13941      -0.30850
                        -----------------------------------------
Magnitude (a.u.)       :      0.46650
Magnitude (Debye)      :      1.18576

Rotational constants in cm-1:     0.021103     0.008725     0.007540
Rotational constants in MHz :   632.645846   261.570817   226.041078

                             ****ORCA TERMINATED NORMALLY****
TOTAL RUN TIME: 0 days 0 hours 0 minutes 32 seconds 13 msec
