                         Program Version 4.2.1 -  RELEASE  -
|  1> ! wB97X-D3 SP def2-SVP
|  2> %pal
|  3> nprocs 16
|  4> end
|  5>
|  6> * xyz 0 1
|  7> S 	 -46.7631 	 66.5408 	 126.668
|  8> C 	 -46.307 	 64.9211 	 125.97
|  9> C 	 -46.2273 	 64.0295 	 127.017
| 10> C 	 -46.5461 	 64.619 	 128.273
| 11> C 	 -46.5897 	 65.9815 	 128.307
| 12> H 	 -46.6952 	 64.0577 	 129.192
| 13> C 	 -46.2026 	 62.4634 	 126.824
| 14> H 	 -45.2642 	 62.2619 	 126.286
| 15> H 	 -47.0229 	 62.2242 	 126.101
| 16> C 	 -46.254 	 61.6185 	 128.131
| 17> H 	 -45.306 	 61.9201 	 128.608
| 18> H 	 -47.1791 	 61.8685 	 128.669
| 19> C 	 -46.2741 	 60.0754 	 127.911
| 20> H 	 -45.5632 	 59.7988 	 127.15
| 21> H 	 -46.1354 	 59.6696 	 128.95
| 22> H 	 -47.226 	 59.6948 	 127.473
| 23> S 	 -44.9778 	 67.7817 	 129.677
| 24> C 	 -45.5093 	 68.3492 	 131.208
| 25> C 	 -46.8023 	 68.1101 	 131.441
| 26> C 	 -47.2879 	 67.0578 	 130.558
| 27> C 	 -46.4388 	 66.8169 	 129.508
| 28> H 	 -47.4192 	 68.5216 	 132.251
| 29> C 	 -48.7382 	 66.5921 	 130.607
| 30> H 	 -48.8732 	 66.0987 	 131.59
| 31> H 	 -48.8684 	 65.8433 	 129.917
| 32> C 	 -49.8873 	 67.6853 	 130.414
| 33> H 	 -49.7368 	 68.3328 	 129.565
| 34> H 	 -49.7578 	 68.2662 	 131.303
| 35> C 	 -51.2793 	 67.0099 	 130.34
| 36> H 	 -51.3266 	 66.0838 	 130.997
| 37> H 	 -51.6259 	 66.7327 	 129.381
| 38> H 	 -51.9643 	 67.719 	 130.788
| 39> H 	 -46.2068 	 64.6475 	 124.94
| 40> H 	 -44.9844 	 69.0598 	 131.807
| 41> *
| 42>
| 43>                          ****END OF INPUT****

CARTESIAN COORDINATES (ANGSTROEM)
---------------------------------
  S    -46.763100   66.540800  126.668000
  C    -46.307000   64.921100  125.970000
  C    -46.227300   64.029500  127.017000
  C    -46.546100   64.619000  128.273000
  C    -46.589700   65.981500  128.307000
  H    -46.695200   64.057700  129.192000
  C    -46.202600   62.463400  126.824000
  H    -45.264200   62.261900  126.286000
  H    -47.022900   62.224200  126.101000
  C    -46.254000   61.618500  128.131000
  H    -45.306000   61.920100  128.608000
  H    -47.179100   61.868500  128.669000
  C    -46.274100   60.075400  127.911000
  H    -45.563200   59.798800  127.150000
  H    -46.135400   59.669600  128.950000
  H    -47.226000   59.694800  127.473000
  S    -44.977800   67.781700  129.677000
  C    -45.509300   68.349200  131.208000
  C    -46.802300   68.110100  131.441000
  C    -47.287900   67.057800  130.558000
  C    -46.438800   66.816900  129.508000
  H    -47.419200   68.521600  132.251000
  C    -48.738200   66.592100  130.607000
  H    -48.873200   66.098700  131.590000
  H    -48.868400   65.843300  129.917000
  C    -49.887300   67.685300  130.414000
  H    -49.736800   68.332800  129.565000
  H    -49.757800   68.266200  131.303000
  C    -51.279300   67.009900  130.340000
  H    -51.326600   66.083800  130.997000
  H    -51.625900   66.732700  129.381000
  H    -51.964300   67.719000  130.788000
  H    -46.206800   64.647500  124.940000
  H    -44.984400   69.059800  131.807000

 Total Charge           Charge          ....    0
 Multiplicity           Mult            ....    1
 Number of Electrons    NEL             ....  134
 Basis Dimension        Dim             ....  322

ORBITAL ENERGIES
----------------

  NO   OCC          E(Eh)            E(eV)
   0   2.0000     -88.963764     -2420.8271
   1   2.0000     -88.961764     -2420.7727
   2   2.0000     -10.326572      -281.0003
   3   2.0000     -10.325202      -280.9630
   4   2.0000     -10.316789      -280.7341
   5   2.0000     -10.309725      -280.5419
   6   2.0000     -10.301962      -280.3306
   7   2.0000     -10.300574      -280.2929
   8   2.0000     -10.299777      -280.2712
   9   2.0000     -10.294719      -280.1335
  10   2.0000     -10.291631      -280.0495
  11   2.0000     -10.288698      -279.9697
  12   2.0000     -10.287513      -279.9374
  13   2.0000     -10.287360      -279.9333
  14   2.0000     -10.285650      -279.8868
  15   2.0000     -10.279843      -279.7288
  16   2.0000      -8.077512      -219.8003
  17   2.0000      -8.077374      -219.7965
  18   2.0000      -6.036254      -164.2548
  19   2.0000      -6.035939      -164.2463
  20   2.0000      -6.032200      -164.1445
  21   2.0000      -6.031908      -164.1366
  22   2.0000      -6.028021      -164.0308
  23   2.0000      -6.027846      -164.0260
  24   2.0000      -1.007421       -27.4133
  25   2.0000      -0.984479       -26.7890
  26   2.0000      -0.903509       -24.5857
  27   2.0000      -0.901122       -24.5208
  28   2.0000      -0.869926       -23.6719
  29   2.0000      -0.848138       -23.0790
  30   2.0000      -0.837963       -22.8021
  31   2.0000      -0.816836       -22.2272
  32   2.0000      -0.778923       -21.1956
  33   2.0000      -0.770620       -20.9696
  34   2.0000      -0.709812       -19.3150
  35   2.0000      -0.703243       -19.1362
  36   2.0000      -0.687979       -18.7209
  37   2.0000      -0.656894       -17.8750
  38   2.0000      -0.636717       -17.3259
  39   2.0000      -0.614106       -16.7107
  40   2.0000      -0.597507       -16.2590
  41   2.0000      -0.572249       -15.5717
  42   2.0000      -0.564015       -15.3476
  43   2.0000      -0.561986       -15.2924
  44   2.0000      -0.530973       -14.4485
  45   2.0000      -0.521143       -14.1810
  46   2.0000      -0.516284       -14.0488
  47   2.0000      -0.507069       -13.7980
  48   2.0000      -0.501146       -13.6369
  49   2.0000      -0.495620       -13.4865
  50   2.0000      -0.487076       -13.2540
  51   2.0000      -0.480782       -13.0827
  52   2.0000      -0.472649       -12.8614
  53   2.0000      -0.466483       -12.6937
  54   2.0000      -0.455747       -12.4015
  55   2.0000      -0.451626       -12.2894
  56   2.0000      -0.444916       -12.1068
  57   2.0000      -0.436212       -11.8699
  58   2.0000      -0.431219       -11.7341
  59   2.0000      -0.427345       -11.6287
  60   2.0000      -0.421874       -11.4798
  61   2.0000      -0.410913       -11.1815
  62   2.0000      -0.406988       -11.0747
  63   2.0000      -0.338434        -9.2093
  64   2.0000      -0.328262        -8.9325
  65   2.0000      -0.323505        -8.8030
  66   2.0000      -0.299886        -8.1603
  67   0.0000       0.036907         1.0043
  68   0.0000       0.061050         1.6613
  69   0.0000       0.109829         2.9886
  70   0.0000       0.114847         3.1251
  71   0.0000       0.133859         3.6425

MULLIKEN ATOMIC CHARGES
-----------------------
   0 S :    0.098939
   1 C :   -0.125721
   2 C :   -0.067619
   3 C :    0.024791
   4 C :   -0.158512
   5 H :    0.016927
   6 C :    0.007188
   7 H :    0.033628
   8 H :    0.044404
   9 C :   -0.117355
  10 H :    0.049779
  11 H :    0.048683
  12 C :   -0.039396
  13 H :    0.028231
  14 H :    0.054940
  15 H :    0.033512
  16 S :    0.115234
  17 C :   -0.060292
  18 C :   -0.040597
  19 C :   -0.055273
  20 C :   -0.156365
  21 H :    0.030661
  22 C :    0.064884
  23 H :    0.026582
  24 H :   -0.002685
  25 C :   -0.055827
  26 H :    0.039893
  27 H :    0.019182
  28 C :   -0.047762
  29 H :    0.031629
  30 H :    0.038217
  31 H :    0.031664
  32 H :    0.043185
  33 H :    0.045252
Sum of atomic charges:    0.0000000

LOEWDIN ATOMIC CHARGES
----------------------
   0 S :    0.379799
   1 C :   -0.175315
   2 C :   -0.065311
   3 C :   -0.068919
   4 C :   -0.198155
   5 H :    0.029756
   6 C :   -0.037724
   7 H :    0.030446
   8 H :    0.032034
   9 C :   -0.047583
  10 H :    0.032328
  11 H :    0.027021
  12 C :   -0.067755
  13 H :    0.021946
  14 H :    0.037922
  15 H :    0.027706
  16 S :    0.411403
  17 C :   -0.183515
  18 C :   -0.071563
  19 C :   -0.054210
  20 C :   -0.195821
  21 H :    0.034846
  22 C :   -0.028383
  23 H :    0.032439
  24 H :    0.011159
  25 C :   -0.027634
  26 H :    0.025860
  27 H :    0.017362
  28 C :   -0.063300
  29 H :    0.031714
  30 H :    0.020558
  31 H :    0.027878
  32 H :    0.027340
  33 H :    0.025672

  Mayer bond orders larger than 0.100000
B(  0-S ,  1-C ) :   1.1182 B(  0-S ,  4-C ) :   1.1484 B(  1-C ,  2-C ) :   1.6189
B(  1-C ,  4-C ) :   0.1051 B(  1-C , 32-H ) :   0.9801 B(  2-C ,  3-C ) :   1.2641
B(  2-C ,  6-C ) :   0.9868 B(  3-C ,  4-C ) :   1.5703 B(  3-C ,  5-H ) :   0.9850
B(  4-C , 20-C ) :   1.0183 B(  6-C ,  7-H ) :   0.9394 B(  6-C ,  8-H ) :   0.9511
B(  6-C ,  9-C ) :   1.0811 B(  9-C , 10-H ) :   0.9555 B(  9-C , 11-H ) :   0.9468
B(  9-C , 12-C ) :   1.0770 B( 12-C , 13-H ) :   0.9747 B( 12-C , 14-H ) :   0.9736
B( 12-C , 15-H ) :   0.9750 B( 16-S , 17-C ) :   1.1517 B( 16-S , 20-C ) :   1.1232
B( 17-C , 18-C ) :   1.6466 B( 17-C , 33-H ) :   0.9648 B( 18-C , 19-C ) :   1.2053
B( 18-C , 21-H ) :   0.9843 B( 19-C , 20-C ) :   1.6418 B( 19-C , 22-C ) :   1.0584
B( 22-C , 23-H ) :   0.9275 B( 22-C , 24-H ) :   0.9359 B( 22-C , 25-C ) :   1.0541
B( 25-C , 26-H ) :   0.9609 B( 25-C , 27-H ) :   0.9575 B( 25-C , 28-C ) :   1.0747
B( 28-C , 29-H ) :   0.9747 B( 28-C , 30-H ) :   0.9792 B( 28-C , 31-H ) :   0.9747

Dispersion correction           -0.013584038
FINAL SINGLE POINT ENERGY     -1339.854587093464

DIPOLE MOMENT
-------------
                                X             Y             Z
Electronic contribution:     15.80216      19.60962      -5.53159
Nuclear contribution   :    -16.23261     -20.00669       5.78633
                        -----------------------------------------
Total Dipole Moment    :     -0.43045      -0.39707       0.25475
                        -----------------------------------------
Magnitude (a.u.)       :      0.63863
Magnitude (Debye)      :      1.62327

Rotational constants in cm-1:     0.016711     0.007827     0.006919
Rotational constants in MHz :   500.971184   234.652391   207.426128

                             ****ORCA TERMINATED NORMALLY****
TOTAL RUN TIME: 0 days 0 hours 0 minutes 33 seconds 584 msec
