                         Program Version 4.2.1 -  RELEASE  -
|  1> ! wB97X-D3 SP def2-SVP
|  2> %pal
|  3> nprocs 16
|  4> end
|  5>
|  6> * xyz 0 1
|  7> S 	 -54.6098 	 12.0799 	 90.5315
|  8> C 	 -53.2988 	 11.9463 	 91.6553
|  9> C 	 -52.1592 	 11.3966 	 91.1415
| 10> C 	 -52.3156 	 10.9865 	 89.7951
| 11> C 	 -53.568 	 11.3361 	 89.2583
| 12> H 	 -51.5396 	 10.433 	 89.2682
| 13> C 	 -50.8968 	 11.195 	 91.9842
| 14> H 	 -50.2669 	 12.1542 	 92.0082
| 15> H 	 -50.2366 	 10.4061 	 91.4827
| 16> C 	 -51.2094 	 10.6499 	 93.3835
| 17> H 	 -50.1966 	 10.4405 	 93.8318
| 18> H 	 -51.5754 	 11.3475 	 94.1103
| 19> C 	 -51.8681 	 9.30843 	 93.2109
| 20> H 	 -51.2963 	 8.67481 	 92.5228
| 21> H 	 -51.9017 	 8.78286 	 94.2047
| 22> H 	 -52.9126 	 9.36983 	 92.9779
| 23> S 	 -53.5624 	 9.72533 	 87.058
| 24> C 	 -54.3981 	 10.164 	 85.6193
| 25> C 	 -55.0236 	 11.379 	 85.8114
| 26> C 	 -54.761 	 11.9677 	 87.0625
| 27> C 	 -54.0027 	 11.1685 	 87.9069
| 28> H 	 -55.6348 	 11.8024 	 85.0707
| 29> C 	 -55.0748 	 13.4599 	 87.3062
| 30> H 	 -55.4911 	 13.6652 	 88.2664
| 31> H 	 -55.952 	 13.5968 	 86.6483
| 32> C 	 -53.8959 	 14.5063 	 87.1304
| 33> H 	 -54.33 	 15.5105 	 87.1916
| 34> H 	 -53.5152 	 14.4799 	 86.2036
| 35> C 	 -52.7779 	 14.1716 	 88.1031
| 36> H 	 -52.1345 	 15.0485 	 88.2555
| 37> H 	 -52.1698 	 13.3545 	 87.7468
| 38> H 	 -53.15 	 14.0407 	 89.1395
| 39> H 	 -53.4401 	 12.1099 	 92.7578
| 40> H 	 -54.3631 	 9.53018 	 84.7449
| 41> *
| 42>
| 43>                          ****END OF INPUT****

CARTESIAN COORDINATES (ANGSTROEM)
---------------------------------
  S    -54.609800   12.079900   90.531500
  C    -53.298800   11.946300   91.655300
  C    -52.159200   11.396600   91.141500
  C    -52.315600   10.986500   89.795100
  C    -53.568000   11.336100   89.258300
  H    -51.539600   10.433000   89.268200
  C    -50.896800   11.195000   91.984200
  H    -50.266900   12.154200   92.008200
  H    -50.236600   10.406100   91.482700
  C    -51.209400   10.649900   93.383500
  H    -50.196600   10.440500   93.831800
  H    -51.575400   11.347500   94.110300
  C    -51.868100    9.308430   93.210900
  H    -51.296300    8.674810   92.522800
  H    -51.901700    8.782860   94.204700
  H    -52.912600    9.369830   92.977900
  S    -53.562400    9.725330   87.058000
  C    -54.398100   10.164000   85.619300
  C    -55.023600   11.379000   85.811400
  C    -54.761000   11.967700   87.062500
  C    -54.002700   11.168500   87.906900
  H    -55.634800   11.802400   85.070700
  C    -55.074800   13.459900   87.306200
  H    -55.491100   13.665200   88.266400
  H    -55.952000   13.596800   86.648300
  C    -53.895900   14.506300   87.130400
  H    -54.330000   15.510500   87.191600
  H    -53.515200   14.479900   86.203600
  C    -52.777900   14.171600   88.103100
  H    -52.134500   15.048500   88.255500
  H    -52.169800   13.354500   87.746800
  H    -53.150000   14.040700   89.139500
  H    -53.440100   12.109900   92.757800
  H    -54.363100    9.530180   84.744900

 Total Charge           Charge          ....    0
 Multiplicity           Mult            ....    1
 Number of Electrons    NEL             ....  134
 Basis Dimension        Dim             ....  322

ORBITAL ENERGIES
----------------

  NO   OCC          E(Eh)            E(eV)
   0   2.0000     -88.970003     -2420.9969
   1   2.0000     -88.962579     -2420.7949
   2   2.0000     -10.334385      -281.2129
   3   2.0000     -10.321425      -280.8603
   4   2.0000     -10.314520      -280.6724
   5   2.0000     -10.312514      -280.6178
   6   2.0000     -10.304301      -280.3943
   7   2.0000     -10.297895      -280.2200
   8   2.0000     -10.297396      -280.2064
   9   2.0000     -10.297007      -280.1958
  10   2.0000     -10.288719      -279.9703
  11   2.0000     -10.287922      -279.9486
  12   2.0000     -10.287662      -279.9415
  13   2.0000     -10.277040      -279.6525
  14   2.0000     -10.275392      -279.6076
  15   2.0000     -10.265960      -279.3510
  16   2.0000      -8.083438      -219.9615
  17   2.0000      -8.078224      -219.8197
  18   2.0000      -6.041989      -164.4109
  19   2.0000      -6.038158      -164.3066
  20   2.0000      -6.036631      -164.2651
  21   2.0000      -6.034206      -164.1991
  22   2.0000      -6.032415      -164.1504
  23   2.0000      -6.029247      -164.0642
  24   2.0000      -1.009014       -27.4567
  25   2.0000      -0.985655       -26.8210
  26   2.0000      -0.915056       -24.9000
  27   2.0000      -0.900298       -24.4984
  28   2.0000      -0.871554       -23.7162
  29   2.0000      -0.851361       -23.1667
  30   2.0000      -0.844538       -22.9811
  31   2.0000      -0.807679       -21.9781
  32   2.0000      -0.778403       -21.1814
  33   2.0000      -0.767182       -20.8761
  34   2.0000      -0.707371       -19.2485
  35   2.0000      -0.702246       -19.1091
  36   2.0000      -0.696742       -18.9593
  37   2.0000      -0.666739       -18.1429
  38   2.0000      -0.633490       -17.2381
  39   2.0000      -0.609499       -16.5853
  40   2.0000      -0.597141       -16.2490
  41   2.0000      -0.577105       -15.7038
  42   2.0000      -0.559140       -15.2150
  43   2.0000      -0.547326       -14.8935
  44   2.0000      -0.539647       -14.6845
  45   2.0000      -0.535155       -14.5623
  46   2.0000      -0.512895       -13.9566
  47   2.0000      -0.506227       -13.7751
  48   2.0000      -0.499008       -13.5787
  49   2.0000      -0.491782       -13.3821
  50   2.0000      -0.481594       -13.1048
  51   2.0000      -0.479205       -13.0398
  52   2.0000      -0.474294       -12.9062
  53   2.0000      -0.466442       -12.6925
  54   2.0000      -0.455222       -12.3872
  55   2.0000      -0.445523       -12.1233
  56   2.0000      -0.443724       -12.0743
  57   2.0000      -0.440606       -11.9895
  58   2.0000      -0.426744       -11.6123
  59   2.0000      -0.421609       -11.4726
  60   2.0000      -0.416233       -11.3263
  61   2.0000      -0.409840       -11.1523
  62   2.0000      -0.408084       -11.1045
  63   2.0000      -0.354259        -9.6399
  64   2.0000      -0.333564        -9.0767
  65   2.0000      -0.330070        -8.9817
  66   2.0000      -0.280278        -7.6267
  67   0.0000       0.021486         0.5847
  68   0.0000       0.077558         2.1104
  69   0.0000       0.106540         2.8991
  70   0.0000       0.118279         3.2185
  71   0.0000       0.133590         3.6352

MULLIKEN ATOMIC CHARGES
-----------------------
   0 S :    0.114996
   1 C :   -0.150965
   2 C :   -0.072053
   3 C :    0.010535
   4 C :   -0.141954
   5 H :    0.018017
   6 C :    0.018323
   7 H :    0.060054
   8 H :    0.032024
   9 C :   -0.096663
  10 H :    0.028015
  11 H :    0.033030
  12 C :   -0.035715
  13 H :    0.034350
  14 H :    0.029990
  15 H :    0.040770
  16 S :    0.103610
  17 C :   -0.098609
  18 C :   -0.010916
  19 C :   -0.063887
  20 C :   -0.141074
  21 H :   -0.000230
  22 C :    0.047830
  23 H :    0.013235
  24 H :    0.011995
  25 C :    0.020852
  26 H :    0.026272
  27 H :   -0.008514
  28 C :   -0.055008
  29 H :    0.021793
  30 H :    0.049641
  31 H :    0.032262
  32 H :    0.066817
  33 H :    0.061175
Sum of atomic charges:    0.0000000

LOEWDIN ATOMIC CHARGES
----------------------
   0 S :    0.406986
   1 C :   -0.209259
   2 C :   -0.072475
   3 C :   -0.060056
   4 C :   -0.168506
   5 H :    0.031662
   6 C :   -0.037125
   7 H :    0.040614
   8 H :    0.033503
   9 C :   -0.054015
  10 H :    0.032036
  11 H :    0.020028
  12 C :   -0.063981
  13 H :    0.028990
  14 H :    0.030494
  15 H :    0.023205
  16 S :    0.430573
  17 C :   -0.193201
  18 C :   -0.065893
  19 C :   -0.067735
  20 C :   -0.207312
  21 H :    0.023868
  22 C :   -0.032699
  23 H :    0.015117
  24 H :    0.028295
  25 C :   -0.022979
  26 H :    0.027596
  27 H :    0.005610
  28 C :   -0.066836
  29 H :    0.025988
  30 H :    0.028258
  31 H :    0.022859
  32 H :    0.036699
  33 H :    0.029689

  Mayer bond orders larger than 0.100000
B(  0-S ,  1-C ) :   1.1368 B(  0-S ,  4-C ) :   1.1402 B(  1-C ,  2-C ) :   1.6130
B(  1-C , 32-H ) :   0.9522 B(  2-C ,  3-C ) :   1.2753 B(  2-C ,  6-C ) :   1.0011
B(  3-C ,  4-C ) :   1.5357 B(  3-C ,  5-H ) :   0.9871 B(  4-C , 20-C ) :   1.0885
B(  6-C ,  7-H ) :   0.9367 B(  6-C ,  8-H ) :   0.9510 B(  6-C ,  9-C ) :   1.0768
B(  9-C , 10-H ) :   0.9515 B(  9-C , 11-H ) :   0.9530 B(  9-C , 12-C ) :   1.0731
B( 12-C , 13-H ) :   0.9730 B( 12-C , 14-H ) :   0.9707 B( 12-C , 15-H ) :   0.9718
B( 16-S , 17-C ) :   1.1744 B( 16-S , 20-C ) :   1.1570 B( 17-C , 18-C ) :   1.5489
B( 17-C , 20-C ) :   0.1021 B( 17-C , 33-H ) :   0.9739 B( 18-C , 19-C ) :   1.2906
B( 18-C , 21-H ) :   1.0009 B( 19-C , 20-C ) :   1.5340 B( 19-C , 22-C ) :   1.0376
B( 22-C , 23-H ) :   0.9389 B( 22-C , 24-H ) :   0.9326 B( 22-C , 25-C ) :   1.0542
B( 25-C , 26-H ) :   0.9551 B( 25-C , 27-H ) :   0.9522 B( 25-C , 28-C ) :   1.0848
B( 28-C , 29-H ) :   0.9678 B( 28-C , 30-H ) :   0.9695 B( 28-C , 31-H ) :   0.9695

Dispersion correction           -0.016337183
FINAL SINGLE POINT ENERGY     -1339.876578328021

DIPOLE MOMENT
-------------
                                X             Y             Z
Electronic contribution:    -10.44616      -7.09282     -10.62005
Nuclear contribution   :     10.75559       7.22477      10.73906
                        -----------------------------------------
Total Dipole Moment    :      0.30943       0.13196       0.11902
                        -----------------------------------------
Magnitude (a.u.)       :      0.35682
Magnitude (Debye)      :      0.90697

Rotational constants in cm-1:     0.024280     0.008774     0.007467
Rotational constants in MHz :   727.908294   263.047289   223.848370

                             ****ORCA TERMINATED NORMALLY****
TOTAL RUN TIME: 0 days 0 hours 0 minutes 30 seconds 633 msec
