                         Program Version 4.2.1 -  RELEASE  -
|  1> ! wB97X-D3 SP def2-SVP
|  2> %pal
|  3> nprocs 16
|  4> end
|  5>
|  6> * xyz 0 1
|  7> S 	 -95.5288 	 53.7405 	 125.857
|  8> C 	 -94.4962 	 52.4506 	 126.463
|  9> C 	 -95.0993 	 51.2381 	 126.344
| 10> C 	 -96.5072 	 51.374 	 125.988
| 11> C 	 -96.931 	 52.6865 	 125.639
| 12> H 	 -97.293 	 50.6868 	 126.012
| 13> C 	 -94.5468 	 49.9093 	 126.835
| 14> H 	 -95.3219 	 49.1676 	 127.133
| 15> H 	 -94.0455 	 50.1523 	 127.762
| 16> C 	 -93.48 	 49.1845 	 125.969
| 17> H 	 -92.8587 	 49.9963 	 125.663
| 18> H 	 -92.8752 	 48.4265 	 126.538
| 19> C 	 -93.9901 	 48.4765 	 124.738
| 20> H 	 -94.6059 	 47.6201 	 124.995
| 21> H 	 -94.7658 	 48.9823 	 124.077
| 22> H 	 -93.1608 	 48.0459 	 124.186
| 23> S 	 -98.8893 	 54.5171 	 126.073
| 24> C 	 -100.322 	 54.5204 	 125.101
| 25> C 	 -100.326 	 53.5012 	 124.189
| 26> C 	 -99.1964 	 52.6461 	 124.394
| 27> C 	 -98.2571 	 53.1301 	 125.274
| 28> H 	 -101.063 	 53.3828 	 123.424
| 29> C 	 -99.0103 	 51.3718 	 123.617
| 30> H 	 -98.1023 	 50.8625 	 123.975
| 31> H 	 -98.5999 	 51.6194 	 122.613
| 32> C 	 -100.145 	 50.4109 	 123.554
| 33> H 	 -100.949 	 50.7899 	 122.918
| 34> H 	 -100.395 	 50.1891 	 124.538
| 35> C 	 -99.701 	 49.0739 	 122.923
| 36> H 	 -98.9785 	 48.6301 	 123.545
| 37> H 	 -99.1568 	 49.1202 	 122.015
| 38> H 	 -100.576 	 48.3861 	 122.869
| 39> H 	 -93.4576 	 52.5558 	 126.764
| 40> H 	 -100.967 	 55.3226 	 125.168
| 41> *
| 42>
| 43>                          ****END OF INPUT****

CARTESIAN COORDINATES (ANGSTROEM)
---------------------------------
  S    -95.528800   53.740500  125.857000
  C    -94.496200   52.450600  126.463000
  C    -95.099300   51.238100  126.344000
  C    -96.507200   51.374000  125.988000
  C    -96.931000   52.686500  125.639000
  H    -97.293000   50.686800  126.012000
  C    -94.546800   49.909300  126.835000
  H    -95.321900   49.167600  127.133000
  H    -94.045500   50.152300  127.762000
  C    -93.480000   49.184500  125.969000
  H    -92.858700   49.996300  125.663000
  H    -92.875200   48.426500  126.538000
  C    -93.990100   48.476500  124.738000
  H    -94.605900   47.620100  124.995000
  H    -94.765800   48.982300  124.077000
  H    -93.160800   48.045900  124.186000
  S    -98.889300   54.517100  126.073000
  C    -100.322000   54.520400  125.101000
  C    -100.326000   53.501200  124.189000
  C    -99.196400   52.646100  124.394000
  C    -98.257100   53.130100  125.274000
  H    -101.063000   53.382800  123.424000
  C    -99.010300   51.371800  123.617000
  H    -98.102300   50.862500  123.975000
  H    -98.599900   51.619400  122.613000
  C    -100.145000   50.410900  123.554000
  H    -100.949000   50.789900  122.918000
  H    -100.395000   50.189100  124.538000
  C    -99.701000   49.073900  122.923000
  H    -98.978500   48.630100  123.545000
  H    -99.156800   49.120200  122.015000
  H    -100.576000   48.386100  122.869000
  H    -93.457600   52.555800  126.764000
  H    -100.967000   55.322600  125.168000

 Total Charge           Charge          ....    0
 Multiplicity           Mult            ....    1
 Number of Electrons    NEL             ....  134
 Basis Dimension        Dim             ....  322

ORBITAL ENERGIES
----------------

  NO   OCC          E(Eh)            E(eV)
   0   2.0000     -88.967692     -2420.9340
   1   2.0000     -88.962177     -2420.7839
   2   2.0000     -10.334886      -281.2265
   3   2.0000     -10.323656      -280.9210
   4   2.0000     -10.316875      -280.7364
   5   2.0000     -10.312721      -280.6234
   6   2.0000     -10.306730      -280.4604
   7   2.0000     -10.301762      -280.3252
   8   2.0000     -10.295711      -280.1605
   9   2.0000     -10.295236      -280.1476
  10   2.0000     -10.294764      -280.1348
  11   2.0000     -10.289585      -279.9938
  12   2.0000     -10.284864      -279.8654
  13   2.0000     -10.281172      -279.7649
  14   2.0000     -10.277594      -279.6676
  15   2.0000     -10.273047      -279.5438
  16   2.0000      -8.081735      -219.9152
  17   2.0000      -8.078299      -219.8217
  18   2.0000      -6.040426      -164.3684
  19   2.0000      -6.036679      -164.2664
  20   2.0000      -6.036206      -164.2535
  21   2.0000      -6.032559      -164.1543
  22   2.0000      -6.032455      -164.1514
  23   2.0000      -6.029148      -164.0615
  24   2.0000      -1.011669       -27.5289
  25   2.0000      -0.985463       -26.8158
  26   2.0000      -0.917777       -24.9740
  27   2.0000      -0.910618       -24.7792
  28   2.0000      -0.875913       -23.8348
  29   2.0000      -0.854858       -23.2619
  30   2.0000      -0.844163       -22.9708
  31   2.0000      -0.817586       -22.2476
  32   2.0000      -0.784035       -21.3347
  33   2.0000      -0.775439       -21.1008
  34   2.0000      -0.710210       -19.3258
  35   2.0000      -0.705475       -19.1970
  36   2.0000      -0.698259       -19.0006
  37   2.0000      -0.665967       -18.1219
  38   2.0000      -0.644864       -17.5476
  39   2.0000      -0.614098       -16.7105
  40   2.0000      -0.601921       -16.3791
  41   2.0000      -0.579026       -15.7561
  42   2.0000      -0.576472       -15.6866
  43   2.0000      -0.550854       -14.9895
  44   2.0000      -0.543748       -14.7961
  45   2.0000      -0.533541       -14.5184
  46   2.0000      -0.518753       -14.1160
  47   2.0000      -0.512096       -13.9348
  48   2.0000      -0.510104       -13.8806
  49   2.0000      -0.501618       -13.6497
  50   2.0000      -0.491162       -13.3652
  51   2.0000      -0.480170       -13.0661
  52   2.0000      -0.472698       -12.8628
  53   2.0000      -0.468149       -12.7390
  54   2.0000      -0.456731       -12.4283
  55   2.0000      -0.452870       -12.3232
  56   2.0000      -0.442000       -12.0274
  57   2.0000      -0.438920       -11.9436
  58   2.0000      -0.426710       -11.6114
  59   2.0000      -0.424860       -11.5610
  60   2.0000      -0.418924       -11.3995
  61   2.0000      -0.417017       -11.3476
  62   2.0000      -0.412053       -11.2125
  63   2.0000      -0.352445        -9.5905
  64   2.0000      -0.330304        -8.9880
  65   2.0000      -0.328201        -8.9308
  66   2.0000      -0.292373        -7.9559
  67   0.0000       0.024926         0.6783
  68   0.0000       0.075207         2.0465
  69   0.0000       0.116260         3.1636
  70   0.0000       0.119102         3.2409
  71   0.0000       0.124817         3.3965

MULLIKEN ATOMIC CHARGES
-----------------------
   0 S :    0.113035
   1 C :   -0.121580
   2 C :   -0.048224
   3 C :    0.043984
   4 C :   -0.168049
   5 H :   -0.006541
   6 C :    0.034281
   7 H :    0.030038
   8 H :    0.027833
   9 C :   -0.055534
  10 H :    0.018602
  11 H :    0.040472
  12 C :   -0.064085
  13 H :    0.010816
  14 H :    0.040438
  15 H :    0.037231
  16 S :    0.103330
  17 C :   -0.061189
  18 C :   -0.005086
  19 C :   -0.039604
  20 C :   -0.147014
  21 H :    0.015714
  22 C :    0.031032
  23 H :   -0.009112
  24 H :    0.027843
  25 C :   -0.023247
  26 H :    0.036369
  27 H :    0.018759
  28 C :   -0.033925
  29 H :    0.005720
  30 H :    0.018664
  31 H :    0.041605
  32 H :    0.054611
  33 H :    0.032814
Sum of atomic charges:   -0.0000000

LOEWDIN ATOMIC CHARGES
----------------------
   0 S :    0.397076
   1 C :   -0.191434
   2 C :   -0.064366
   3 C :   -0.056009
   4 C :   -0.189360
   5 H :    0.017051
   6 C :   -0.034537
   7 H :    0.031604
   8 H :    0.033403
   9 C :   -0.041649
  10 H :    0.018657
  11 H :    0.033340
  12 C :   -0.079510
  13 H :    0.020066
  14 H :    0.033225
  15 H :    0.027533
  16 S :    0.424719
  17 C :   -0.167994
  18 C :   -0.061976
  19 C :   -0.052109
  20 C :   -0.214664
  21 H :    0.031209
  22 C :   -0.046423
  23 H :    0.027327
  24 H :    0.035503
  25 C :   -0.030358
  26 H :    0.025702
  27 H :    0.020375
  28 C :   -0.059610
  29 H :    0.016410
  30 H :    0.019762
  31 H :    0.032007
  32 H :    0.033091
  33 H :    0.011940

  Mayer bond orders larger than 0.100000
B(  0-S ,  1-C ) :   1.1349 B(  0-S ,  4-C ) :   1.1422 B(  1-C ,  2-C ) :   1.6250
B(  1-C , 32-H ) :   0.9629 B(  2-C ,  3-C ) :   1.2144 B(  2-C ,  6-C ) :   1.0146
B(  3-C ,  4-C ) :   1.5713 B(  3-C ,  5-H ) :   0.9949 B(  4-C , 20-C ) :   1.0607
B(  6-C ,  7-H ) :   0.9533 B(  6-C ,  8-H ) :   0.9406 B(  6-C ,  9-C ) :   1.0668
B(  9-C , 10-H ) :   0.9556 B(  9-C , 11-H ) :   0.9541 B(  9-C , 12-C ) :   1.0822
B( 12-C , 13-H ) :   0.9698 B( 12-C , 14-H ) :   0.9741 B( 12-C , 15-H ) :   0.9724
B( 16-S , 17-C ) :   1.1723 B( 16-S , 20-C ) :   1.1406 B( 17-C , 18-C ) :   1.5797
B( 17-C , 33-H ) :   0.9790 B( 18-C , 19-C ) :   1.2434 B( 18-C , 21-H ) :   1.0003
B( 19-C , 20-C ) :   1.5878 B( 19-C , 22-C ) :   1.0507 B( 22-C , 23-H ) :   0.9314
B( 22-C , 24-H ) :   0.9154 B( 22-C , 25-C ) :   1.0714 B( 25-C , 26-H ) :   0.9493
B( 25-C , 27-H ) :   0.9538 B( 25-C , 28-C ) :   1.0903 B( 28-C , 29-H ) :   0.9707
B( 28-C , 30-H ) :   0.9731 B( 28-C , 31-H ) :   0.9746

Dispersion correction           -0.013841275
FINAL SINGLE POINT ENERGY     -1339.869177239438

DIPOLE MOMENT
-------------
                                X             Y             Z
Electronic contribution:     -3.19501      30.14009       9.95209
Nuclear contribution   :      3.12844     -30.72731     -10.09689
                        -----------------------------------------
Total Dipole Moment    :     -0.06657      -0.58722      -0.14480
                        -----------------------------------------
Magnitude (a.u.)       :      0.60846
Magnitude (Debye)      :      1.54659

Rotational constants in cm-1:     0.017234     0.009345     0.006371
Rotational constants in MHz :   516.668903   280.165813   191.006238

                             ****ORCA TERMINATED NORMALLY****
TOTAL RUN TIME: 0 days 0 hours 0 minutes 34 seconds 329 msec
