                         Program Version 4.2.1 -  RELEASE  -
|  1> ! wB97X-D3 SP def2-SVP
|  2> %pal
|  3> nprocs 16
|  4> end
|  5>
|  6> * xyz 0 1
|  7> S 	 -6.79851 	 52.6679 	 50.6651
|  8> C 	 -6.99523 	 53.5656 	 52.164
|  9> C 	 -5.87485 	 54.3456 	 52.3537
| 10> C 	 -4.83224 	 54.1762 	 51.4246
| 11> C 	 -5.2581 	 53.4486 	 50.3022
| 12> H 	 -3.81399 	 54.643 	 51.5378
| 13> C 	 -5.57744 	 55.0568 	 53.6645
| 14> H 	 -4.49871 	 55.0275 	 53.7667
| 15> H 	 -6.06648 	 54.56 	 54.5245
| 16> C 	 -5.92969 	 56.5754 	 53.8305
| 17> H 	 -5.67213 	 57.0972 	 52.9113
| 18> H 	 -6.97839 	 56.7656 	 54.2237
| 19> C 	 -5.07602 	 57.1363 	 55.0125
| 20> H 	 -4.0009 	 57.1336 	 54.9606
| 21> H 	 -5.42243 	 58.1809 	 55.2355
| 22> H 	 -5.4768 	 56.5782 	 55.814
| 23> S 	 -4.77712 	 51.4069 	 48.608
| 24> C 	 -3.40043 	 51.4199 	 47.5558
| 25> C 	 -2.81175 	 52.6715 	 47.5562
| 26> C 	 -3.49314 	 53.5778 	 48.4402
| 27> C 	 -4.50464 	 52.9971 	 49.1721
| 28> H 	 -1.98839 	 52.8994 	 46.9548
| 29> C 	 -3.05839 	 54.9892 	 48.7212
| 30> H 	 -2.13626 	 55.164 	 48.1823
| 31> H 	 -2.75249 	 55.2894 	 49.7848
| 32> C 	 -4.02046 	 56.0621 	 48.1967
| 33> H 	 -5.09194 	 55.8546 	 48.4402
| 34> H 	 -3.96402 	 55.9479 	 47.228
| 35> C 	 -3.53258 	 57.4381 	 48.5264
| 36> H 	 -2.66153 	 57.7841 	 48.0597
| 37> H 	 -3.50737 	 57.6101 	 49.5814
| 38> H 	 -4.15888 	 58.1505 	 48.0356
| 39> H 	 -7.7815 	 53.4527 	 52.8517
| 40> H 	 -3.01098 	 50.7541 	 46.8316
| 41> *
| 42>
| 43>                          ****END OF INPUT****

CARTESIAN COORDINATES (ANGSTROEM)
---------------------------------
  S     -6.798510   52.667900   50.665100
  C     -6.995230   53.565600   52.164000
  C     -5.874850   54.345600   52.353700
  C     -4.832240   54.176200   51.424600
  C     -5.258100   53.448600   50.302200
  H     -3.813990   54.643000   51.537800
  C     -5.577440   55.056800   53.664500
  H     -4.498710   55.027500   53.766700
  H     -6.066480   54.560000   54.524500
  C     -5.929690   56.575400   53.830500
  H     -5.672130   57.097200   52.911300
  H     -6.978390   56.765600   54.223700
  C     -5.076020   57.136300   55.012500
  H     -4.000900   57.133600   54.960600
  H     -5.422430   58.180900   55.235500
  H     -5.476800   56.578200   55.814000
  S     -4.777120   51.406900   48.608000
  C     -3.400430   51.419900   47.555800
  C     -2.811750   52.671500   47.556200
  C     -3.493140   53.577800   48.440200
  C     -4.504640   52.997100   49.172100
  H     -1.988390   52.899400   46.954800
  C     -3.058390   54.989200   48.721200
  H     -2.136260   55.164000   48.182300
  H     -2.752490   55.289400   49.784800
  C     -4.020460   56.062100   48.196700
  H     -5.091940   55.854600   48.440200
  H     -3.964020   55.947900   47.228000
  C     -3.532580   57.438100   48.526400
  H     -2.661530   57.784100   48.059700
  H     -3.507370   57.610100   49.581400
  H     -4.158880   58.150500   48.035600
  H     -7.781500   53.452700   52.851700
  H     -3.010980   50.754100   46.831600

 Total Charge           Charge          ....    0
 Multiplicity           Mult            ....    1
 Number of Electrons    NEL             ....  134
 Basis Dimension        Dim             ....  322

ORBITAL ENERGIES
----------------

  NO   OCC          E(Eh)            E(eV)
   0   2.0000     -88.967634     -2420.9324
   1   2.0000     -88.966760     -2420.9086
   2   2.0000     -10.334645      -281.2200
   3   2.0000     -10.321266      -280.8559
   4   2.0000     -10.313841      -280.6539
   5   2.0000     -10.312883      -280.6278
   6   2.0000     -10.300929      -280.3025
   7   2.0000     -10.299955      -280.2760
   8   2.0000     -10.298336      -280.2320
   9   2.0000     -10.293610      -280.1034
  10   2.0000     -10.292516      -280.0736
  11   2.0000     -10.291808      -280.0543
  12   2.0000     -10.289389      -279.9885
  13   2.0000     -10.277024      -279.6520
  14   2.0000     -10.268759      -279.4271
  15   2.0000     -10.264447      -279.3098
  16   2.0000      -8.082361      -219.9322
  17   2.0000      -8.082012      -219.9227
  18   2.0000      -6.040938      -164.3823
  19   2.0000      -6.040577      -164.3724
  20   2.0000      -6.036580      -164.2637
  21   2.0000      -6.036547      -164.2628
  22   2.0000      -6.033144      -164.1702
  23   2.0000      -6.032764      -164.1599
  24   2.0000      -1.015267       -27.6268
  25   2.0000      -0.987938       -26.8832
  26   2.0000      -0.915697       -24.9174
  27   2.0000      -0.908385       -24.7184
  28   2.0000      -0.875997       -23.8371
  29   2.0000      -0.857275       -23.3276
  30   2.0000      -0.846777       -23.0420
  31   2.0000      -0.818733       -22.2789
  32   2.0000      -0.780389       -21.2355
  33   2.0000      -0.770371       -20.9629
  34   2.0000      -0.715158       -19.4604
  35   2.0000      -0.699115       -19.0239
  36   2.0000      -0.694580       -18.9005
  37   2.0000      -0.669986       -18.2312
  38   2.0000      -0.639980       -17.4147
  39   2.0000      -0.624612       -16.9966
  40   2.0000      -0.598846       -16.2954
  41   2.0000      -0.574308       -15.6277
  42   2.0000      -0.569886       -15.5074
  43   2.0000      -0.566886       -15.4258
  44   2.0000      -0.527535       -14.3549
  45   2.0000      -0.521671       -14.1954
  46   2.0000      -0.518342       -14.1048
  47   2.0000      -0.512297       -13.9403
  48   2.0000      -0.508362       -13.8332
  49   2.0000      -0.503491       -13.7007
  50   2.0000      -0.489232       -13.3127
  51   2.0000      -0.488976       -13.3057
  52   2.0000      -0.474277       -12.9057
  53   2.0000      -0.463717       -12.6184
  54   2.0000      -0.460715       -12.5367
  55   2.0000      -0.455060       -12.3828
  56   2.0000      -0.445433       -12.1208
  57   2.0000      -0.435166       -11.8415
  58   2.0000      -0.431894       -11.7524
  59   2.0000      -0.424041       -11.5387
  60   2.0000      -0.416099       -11.3226
  61   2.0000      -0.412174       -11.2158
  62   2.0000      -0.406417       -11.0592
  63   2.0000      -0.358100        -9.7444
  64   2.0000      -0.336245        -9.1497
  65   2.0000      -0.326500        -8.8845
  66   2.0000      -0.284563        -7.7433
  67   0.0000       0.016573         0.4510
  68   0.0000       0.079652         2.1674
  69   0.0000       0.099019         2.6944
  70   0.0000       0.119608         3.2547
  71   0.0000       0.128489         3.4964

MULLIKEN ATOMIC CHARGES
-----------------------
   0 S :    0.088355
   1 C :   -0.094717
   2 C :   -0.043101
   3 C :   -0.014199
   4 C :   -0.114274
   5 H :    0.041441
   6 C :    0.021359
   7 H :    0.018648
   8 H :    0.029785
   9 C :   -0.078177
  10 H :    0.033244
  11 H :    0.043021
  12 C :   -0.064322
  13 H :    0.041992
  14 H :    0.032915
  15 H :    0.016250
  16 S :    0.113630
  17 C :   -0.055014
  18 C :   -0.027279
  19 C :   -0.034228
  20 C :   -0.122963
  21 H :   -0.002545
  22 C :    0.009493
  23 H :   -0.002316
  24 H :    0.031310
  25 C :   -0.016278
  26 H :    0.046503
  27 H :   -0.021594
  28 C :    0.002297
  29 H :    0.007217
  30 H :    0.026914
  31 H :    0.012366
  32 H :    0.033723
  33 H :    0.040546
Sum of atomic charges:   -0.0000000

LOEWDIN ATOMIC CHARGES
----------------------
   0 S :    0.397610
   1 C :   -0.183574
   2 C :   -0.069383
   3 C :   -0.064488
   4 C :   -0.180321
   5 H :    0.041721
   6 C :   -0.033580
   7 H :    0.028369
   8 H :    0.031052
   9 C :   -0.037724
  10 H :    0.018788
  11 H :    0.032511
  12 C :   -0.068295
  13 H :    0.019572
  14 H :    0.030248
  15 H :    0.018534
  16 S :    0.432978
  17 C :   -0.190413
  18 C :   -0.060074
  19 C :   -0.061357
  20 C :   -0.209545
  21 H :    0.022314
  22 C :   -0.036942
  23 H :    0.024431
  24 H :    0.028867
  25 C :   -0.030174
  26 H :    0.033155
  27 H :    0.002963
  28 C :   -0.059568
  29 H :    0.020928
  30 H :    0.021617
  31 H :    0.028892
  32 H :    0.021614
  33 H :    0.029274

  Mayer bond orders larger than 0.100000
B(  0-S ,  1-C ) :   1.1325 B(  0-S ,  4-C ) :   1.1528 B(  1-C ,  2-C ) :   1.5835
B(  1-C ,  4-C ) :   0.1050 B(  1-C , 32-H ) :   0.9809 B(  2-C ,  3-C ) :   1.2751
B(  2-C ,  6-C ) :   1.0236 B(  3-C ,  4-C ) :   1.5280 B(  3-C ,  5-H ) :   0.9756
B(  4-C , 20-C ) :   1.0878 B(  6-C ,  7-H ) :   0.9491 B(  6-C ,  8-H ) :   0.9450
B(  6-C ,  9-C ) :   1.0549 B(  9-C , 10-H ) :   0.9599 B(  9-C , 11-H ) :   0.9598
B(  9-C , 12-C ) :   1.0648 B( 12-C , 13-H ) :   0.9781 B( 12-C , 14-H ) :   0.9747
B( 12-C , 15-H ) :   0.9771 B( 16-S , 17-C ) :   1.1575 B( 16-S , 20-C ) :   1.1373
B( 17-C , 18-C ) :   1.5964 B( 17-C , 33-H ) :   0.9679 B( 18-C , 19-C ) :   1.2665
B( 18-C , 21-H ) :   0.9976 B( 19-C , 20-C ) :   1.5695 B( 19-C , 22-C ) :   1.0452
B( 22-C , 23-H ) :   0.9270 B( 22-C , 24-H ) :   0.9470 B( 22-C , 25-C ) :   1.0520
B( 25-C , 26-H ) :   0.9582 B( 25-C , 27-H ) :   0.9372 B( 25-C , 28-C ) :   1.1011
B( 28-C , 29-H ) :   0.9646 B( 28-C , 30-H ) :   0.9745 B( 28-C , 31-H ) :   0.9619

Dispersion correction           -0.013823271
FINAL SINGLE POINT ENERGY     -1339.844910694323

DIPOLE MOMENT
-------------
                                X             Y             Z
Electronic contribution:     -8.07213     -28.97297     -12.33260
Nuclear contribution   :      8.48126      29.43910      12.47320
                        -----------------------------------------
Total Dipole Moment    :      0.40913       0.46613       0.14060
                        -----------------------------------------
Magnitude (a.u.)       :      0.63595
Magnitude (Debye)      :      1.61646

Rotational constants in cm-1:     0.018910     0.008897     0.006628
Rotational constants in MHz :   566.895865   266.727519   198.703465

                             ****ORCA TERMINATED NORMALLY****
TOTAL RUN TIME: 0 days 0 hours 0 minutes 33 seconds 98 msec
