                         Program Version 4.2.1 -  RELEASE  -
|  1> ! wB97X-D3 SP def2-SVP
|  2> %pal
|  3> nprocs 16
|  4> end
|  5>
|  6> * xyz 0 1
|  7> S 	 -95.4617 	 52.8108 	 123.02
|  8> C 	 -95.9427 	 52.1348 	 121.471
|  9> C 	 -95.9034 	 50.7171 	 121.484
| 10> C 	 -95.3074 	 50.2888 	 122.681
| 11> C 	 -94.7925 	 51.32 	 123.516
| 12> H 	 -95.1413 	 49.2309 	 123.088
| 13> C 	 -96.4312 	 49.771 	 120.389
| 14> H 	 -95.792 	 48.9347 	 120.419
| 15> H 	 -96.2587 	 50.2061 	 119.398
| 16> C 	 -97.8725 	 49.2225 	 120.48
| 17> H 	 -98.085 	 48.4999 	 119.69
| 18> H 	 -98.1637 	 48.7092 	 121.492
| 19> C 	 -98.8281 	 50.378 	 120.271
| 20> H 	 -98.7307 	 50.7511 	 119.232
| 21> H 	 -99.7835 	 49.9779 	 120.266
| 22> H 	 -98.8185 	 51.2368 	 120.968
| 23> S 	 -92.3488 	 51.5996 	 124.825
| 24> C 	 -92.2513 	 51.0188 	 126.494
| 25> C 	 -93.4697 	 50.5574 	 126.94
| 26> C 	 -94.4031 	 50.5033 	 125.88
| 27> C 	 -94.0446 	 51.136 	 124.731
| 28> H 	 -93.6684 	 50.2391 	 127.945
| 29> C 	 -95.8578 	 50.0339 	 126.148
| 30> H 	 -96.5172 	 50.3067 	 125.324
| 31> H 	 -96.2258 	 50.6676 	 127.058
| 32> C 	 -95.9956 	 48.5005 	 126.522
| 33> H 	 -95.5297 	 48.2729 	 127.494
| 34> H 	 -95.5469 	 47.7801 	 125.844
| 35> C 	 -97.4476 	 47.9758 	 126.619
| 36> H 	 -98.0356 	 47.913 	 125.674
| 37> H 	 -97.9942 	 48.5631 	 127.343
| 38> H 	 -97.4896 	 46.9937 	 127.055
| 39> H 	 -96.395 	 52.7264 	 120.637
| 40> H 	 -91.318 	 50.7598 	 127.142
| 41> *
| 42>
| 43>                          ****END OF INPUT****

CARTESIAN COORDINATES (ANGSTROEM)
---------------------------------
  S    -95.461700   52.810800  123.020000
  C    -95.942700   52.134800  121.471000
  C    -95.903400   50.717100  121.484000
  C    -95.307400   50.288800  122.681000
  C    -94.792500   51.320000  123.516000
  H    -95.141300   49.230900  123.088000
  C    -96.431200   49.771000  120.389000
  H    -95.792000   48.934700  120.419000
  H    -96.258700   50.206100  119.398000
  C    -97.872500   49.222500  120.480000
  H    -98.085000   48.499900  119.690000
  H    -98.163700   48.709200  121.492000
  C    -98.828100   50.378000  120.271000
  H    -98.730700   50.751100  119.232000
  H    -99.783500   49.977900  120.266000
  H    -98.818500   51.236800  120.968000
  S    -92.348800   51.599600  124.825000
  C    -92.251300   51.018800  126.494000
  C    -93.469700   50.557400  126.940000
  C    -94.403100   50.503300  125.880000
  C    -94.044600   51.136000  124.731000
  H    -93.668400   50.239100  127.945000
  C    -95.857800   50.033900  126.148000
  H    -96.517200   50.306700  125.324000
  H    -96.225800   50.667600  127.058000
  C    -95.995600   48.500500  126.522000
  H    -95.529700   48.272900  127.494000
  H    -95.546900   47.780100  125.844000
  C    -97.447600   47.975800  126.619000
  H    -98.035600   47.913000  125.674000
  H    -97.994200   48.563100  127.343000
  H    -97.489600   46.993700  127.055000
  H    -96.395000   52.726400  120.637000
  H    -91.318000   50.759800  127.142000

 Total Charge           Charge          ....    0
 Multiplicity           Mult            ....    1
 Number of Electrons    NEL             ....  134
 Basis Dimension        Dim             ....  322

ORBITAL ENERGIES
----------------

  NO   OCC          E(Eh)            E(eV)
   0   2.0000     -88.969892     -2420.9938
   1   2.0000     -88.966377     -2420.8982
   2   2.0000     -10.326733      -281.0047
   3   2.0000     -10.325387      -280.9681
   4   2.0000     -10.321844      -280.8716
   5   2.0000     -10.320609      -280.8380
   6   2.0000     -10.307567      -280.4831
   7   2.0000     -10.302822      -280.3540
   8   2.0000     -10.300191      -280.2824
   9   2.0000     -10.299994      -280.2771
  10   2.0000     -10.297213      -280.2014
  11   2.0000     -10.293067      -280.0886
  12   2.0000     -10.292111      -280.0626
  13   2.0000     -10.291990      -280.0593
  14   2.0000     -10.276914      -279.6491
  15   2.0000     -10.270108      -279.4639
  16   2.0000      -8.084791      -219.9983
  17   2.0000      -8.080610      -219.8846
  18   2.0000      -6.043028      -164.4392
  19   2.0000      -6.039369      -164.3396
  20   2.0000      -6.039218      -164.3355
  21   2.0000      -6.035740      -164.2408
  22   2.0000      -6.035228      -164.2269
  23   2.0000      -6.031220      -164.1178
  24   2.0000      -1.008673       -27.4474
  25   2.0000      -0.985294       -26.8112
  26   2.0000      -0.912113       -24.8199
  27   2.0000      -0.895705       -24.3734
  28   2.0000      -0.870190       -23.6791
  29   2.0000      -0.850052       -23.1311
  30   2.0000      -0.848226       -23.0814
  31   2.0000      -0.807028       -21.9603
  32   2.0000      -0.785675       -21.3793
  33   2.0000      -0.767758       -20.8917
  34   2.0000      -0.703436       -19.1415
  35   2.0000      -0.695151       -18.9160
  36   2.0000      -0.690849       -18.7990
  37   2.0000      -0.659954       -17.9583
  38   2.0000      -0.636855       -17.3297
  39   2.0000      -0.612036       -16.6544
  40   2.0000      -0.588064       -16.0020
  41   2.0000      -0.569371       -15.4934
  42   2.0000      -0.556988       -15.1564
  43   2.0000      -0.550414       -14.9775
  44   2.0000      -0.543058       -14.7774
  45   2.0000      -0.525670       -14.3042
  46   2.0000      -0.518549       -14.1104
  47   2.0000      -0.509770       -13.8715
  48   2.0000      -0.498460       -13.5638
  49   2.0000      -0.490603       -13.3500
  50   2.0000      -0.480085       -13.0638
  51   2.0000      -0.477066       -12.9816
  52   2.0000      -0.474379       -12.9085
  53   2.0000      -0.463704       -12.6180
  54   2.0000      -0.460677       -12.5357
  55   2.0000      -0.450110       -12.2481
  56   2.0000      -0.440990       -11.9999
  57   2.0000      -0.431571       -11.7437
  58   2.0000      -0.429938       -11.6992
  59   2.0000      -0.424591       -11.5537
  60   2.0000      -0.422971       -11.5096
  61   2.0000      -0.420812       -11.4509
  62   2.0000      -0.410779       -11.1779
  63   2.0000      -0.336271        -9.1504
  64   2.0000      -0.332680        -9.0527
  65   2.0000      -0.326335        -8.8800
  66   2.0000      -0.297523        -8.0960
  67   0.0000       0.032198         0.8762
  68   0.0000       0.055979         1.5233
  69   0.0000       0.108297         2.9469
  70   0.0000       0.118194         3.2162
  71   0.0000       0.125374         3.4116

MULLIKEN ATOMIC CHARGES
-----------------------
   0 S :    0.136407
   1 C :   -0.142154
   2 C :   -0.081726
   3 C :    0.007501
   4 C :   -0.205637
   5 H :    0.039576
   6 C :    0.102190
   7 H :    0.010742
   8 H :    0.025739
   9 C :   -0.089562
  10 H :    0.036362
  11 H :    0.045003
  12 C :   -0.046335
  13 H :    0.016216
  14 H :    0.008821
  15 H :    0.049507
  16 S :    0.116223
  17 C :   -0.119988
  18 C :   -0.023039
  19 C :   -0.004641
  20 C :   -0.164677
  21 H :    0.017807
  22 C :    0.016304
  23 H :    0.036715
  24 H :    0.049716
  25 C :   -0.077446
  26 H :    0.026589
  27 H :    0.030509
  28 C :   -0.059243
  29 H :    0.041811
  30 H :    0.017976
  31 H :    0.024634
  32 H :    0.064642
  33 H :    0.093461
Sum of atomic charges:    0.0000000

LOEWDIN ATOMIC CHARGES
----------------------
   0 S :    0.435529
   1 C :   -0.205605
   2 C :   -0.063860
   3 C :   -0.066259
   4 C :   -0.221115
   5 H :    0.042725
   6 C :   -0.028136
   7 H :    0.023439
   8 H :    0.034297
   9 C :   -0.041239
  10 H :    0.028284
  11 H :    0.034191
  12 C :   -0.070866
  13 H :    0.024549
  14 H :    0.014300
  15 H :    0.028387
  16 S :    0.398290
  17 C :   -0.193199
  18 C :   -0.071985
  19 C :   -0.056477
  20 C :   -0.208963
  21 H :    0.030362
  22 C :   -0.032025
  23 H :    0.026939
  24 H :    0.043312
  25 C :   -0.044791
  26 H :    0.024373
  27 H :    0.023004
  28 C :   -0.071067
  29 H :    0.027847
  30 H :    0.019402
  31 H :    0.024292
  32 H :    0.035078
  33 H :    0.056987

  Mayer bond orders larger than 0.100000
B(  0-S ,  1-C ) :   1.1670 B(  0-S ,  4-C ) :   1.1814 B(  1-C ,  2-C ) :   1.5415
B(  1-C ,  4-C ) :   0.1172 B(  1-C , 32-H ) :   0.9650 B(  2-C ,  3-C ) :   1.2991
B(  2-C ,  6-C ) :   1.0150 B(  3-C ,  4-C ) :   1.5227 B(  3-C ,  5-H ) :   0.9839
B(  4-C , 20-C ) :   1.0423 B(  6-C ,  7-H ) :   0.9349 B(  6-C ,  8-H ) :   0.9427
B(  6-C ,  9-C ) :   1.0729 B(  9-C , 10-H ) :   0.9517 B(  9-C , 11-H ) :   0.9556
B(  9-C , 12-C ) :   1.0810 B( 12-C , 13-H ) :   0.9713 B( 12-C , 14-H ) :   0.9700
B( 12-C , 15-H ) :   0.9752 B( 16-S , 17-C ) :   1.1554 B( 16-S , 20-C ) :   1.1165
B( 17-C , 18-C ) :   1.6117 B( 17-C , 33-H ) :   0.9500 B( 18-C , 19-C ) :   1.2419
B( 18-C , 21-H ) :   0.9902 B( 19-C , 20-C ) :   1.6207 B( 19-C , 22-C ) :   1.0353
B( 22-C , 23-H ) :   0.9445 B( 22-C , 24-H ) :   0.9435 B( 22-C , 25-C ) :   1.0394
B( 25-C , 26-H ) :   0.9554 B( 25-C , 27-H ) :   0.9619 B( 25-C , 28-C ) :   1.0898
B( 28-C , 29-H ) :   0.9766 B( 28-C , 30-H ) :   0.9731 B( 28-C , 31-H ) :   0.9730

Dispersion correction           -0.014473422
FINAL SINGLE POINT ENERGY     -1339.857588601514

DIPOLE MOMENT
-------------
                                X             Y             Z
Electronic contribution:     23.09451      19.04919       2.98585
Nuclear contribution   :    -23.55374     -19.66672      -2.90781
                        -----------------------------------------
Total Dipole Moment    :     -0.45924      -0.61753       0.07803
                        -----------------------------------------
Magnitude (a.u.)       :      0.77352
Magnitude (Debye)      :      1.96613

Rotational constants in cm-1:     0.018020     0.008935     0.006686
Rotational constants in MHz :   540.231035   267.863031   200.440020

                             ****ORCA TERMINATED NORMALLY****
TOTAL RUN TIME: 0 days 0 hours 0 minutes 33 seconds 755 msec
