                         Program Version 4.2.1 -  RELEASE  -
|  1> ! wB97X-D3 SP def2-SVP
|  2> %pal
|  3> nprocs 16
|  4> end
|  5>
|  6> * xyz 0 1
|  7> S 	 -31.8409 	 46.7164 	 96.478
|  8> C 	 -31.7851 	 45.2044 	 95.5713
|  9> C 	 -31.6973 	 45.446 	 94.2467
| 10> C 	 -31.9448 	 46.8457 	 93.9189
| 11> C 	 -32.0824 	 47.6235 	 95.0074
| 12> H 	 -32.0524 	 47.1849 	 92.969
| 13> C 	 -31.8676 	 44.3944 	 93.1467
| 14> H 	 -31.2795 	 43.4993 	 93.4103
| 15> H 	 -31.3919 	 44.6442 	 92.2518
| 16> C 	 -33.314 	 43.8666 	 92.9043
| 17> H 	 -33.6884 	 43.549 	 93.8724
| 18> H 	 -34.0015 	 44.677 	 92.5544
| 19> C 	 -33.447 	 42.6664 	 91.9387
| 20> H 	 -34.5279 	 42.3927 	 91.9396
| 21> H 	 -33.2792 	 42.9159 	 90.9515
| 22> H 	 -32.7392 	 41.875 	 92.2506
| 23> S 	 -34.3271 	 49.1506 	 94.3986
| 24> C 	 -34.3769 	 50.7918 	 95.1375
| 25> C 	 -33.1238 	 51.1985 	 95.5547
| 26> C 	 -32.2297 	 50.1092 	 95.5742
| 27> C 	 -32.7151 	 48.9738 	 95.0124
| 28> H 	 -33.0581 	 52.1598 	 95.9142
| 29> C 	 -30.8462 	 50.313 	 96.3071
| 30> H 	 -30.3018 	 51.2432 	 96.0687
| 31> H 	 -30.1707 	 49.5679 	 95.8475
| 32> C 	 -30.8632 	 50.1093 	 97.8374
| 33> H 	 -29.8162 	 50.0645 	 98.1906
| 34> H 	 -31.2906 	 49.118 	 97.9649
| 35> C 	 -31.7263 	 51.1026 	 98.6819
| 36> H 	 -31.3264 	 51.1415 	 99.7125
| 37> H 	 -32.7071 	 50.6814 	 98.6593
| 38> H 	 -31.6558 	 52.1197 	 98.2497
| 39> H 	 -31.7708 	 44.1855 	 96.002
| 40> H 	 -35.1889 	 51.4934 	 94.9721
| 41> *
| 42>
| 43>                          ****END OF INPUT****

CARTESIAN COORDINATES (ANGSTROEM)
---------------------------------
  S    -31.840900   46.716400   96.478000
  C    -31.785100   45.204400   95.571300
  C    -31.697300   45.446000   94.246700
  C    -31.944800   46.845700   93.918900
  C    -32.082400   47.623500   95.007400
  H    -32.052400   47.184900   92.969000
  C    -31.867600   44.394400   93.146700
  H    -31.279500   43.499300   93.410300
  H    -31.391900   44.644200   92.251800
  C    -33.314000   43.866600   92.904300
  H    -33.688400   43.549000   93.872400
  H    -34.001500   44.677000   92.554400
  C    -33.447000   42.666400   91.938700
  H    -34.527900   42.392700   91.939600
  H    -33.279200   42.915900   90.951500
  H    -32.739200   41.875000   92.250600
  S    -34.327100   49.150600   94.398600
  C    -34.376900   50.791800   95.137500
  C    -33.123800   51.198500   95.554700
  C    -32.229700   50.109200   95.574200
  C    -32.715100   48.973800   95.012400
  H    -33.058100   52.159800   95.914200
  C    -30.846200   50.313000   96.307100
  H    -30.301800   51.243200   96.068700
  H    -30.170700   49.567900   95.847500
  C    -30.863200   50.109300   97.837400
  H    -29.816200   50.064500   98.190600
  H    -31.290600   49.118000   97.964900
  C    -31.726300   51.102600   98.681900
  H    -31.326400   51.141500   99.712500
  H    -32.707100   50.681400   98.659300
  H    -31.655800   52.119700   98.249700
  H    -31.770800   44.185500   96.002000
  H    -35.188900   51.493400   94.972100

 Total Charge           Charge          ....    0
 Multiplicity           Mult            ....    1
 Number of Electrons    NEL             ....  134
 Basis Dimension        Dim             ....  322

ORBITAL ENERGIES
----------------

  NO   OCC          E(Eh)            E(eV)
   0   2.0000     -88.968026     -2420.9431
   1   2.0000     -88.964725     -2420.8532
   2   2.0000     -10.325704      -280.9767
   3   2.0000     -10.324640      -280.9477
   4   2.0000     -10.318777      -280.7882
   5   2.0000     -10.315830      -280.7080
   6   2.0000     -10.300660      -280.2952
   7   2.0000     -10.299589      -280.2661
   8   2.0000     -10.294057      -280.1155
   9   2.0000     -10.289769      -279.9989
  10   2.0000     -10.289523      -279.9921
  11   2.0000     -10.288387      -279.9612
  12   2.0000     -10.285201      -279.8746
  13   2.0000     -10.283728      -279.8345
  14   2.0000     -10.278446      -279.6907
  15   2.0000     -10.277126      -279.6548
  16   2.0000      -8.082215      -219.9283
  17   2.0000      -8.079219      -219.8467
  18   2.0000      -6.040752      -164.3772
  19   2.0000      -6.037972      -164.3016
  20   2.0000      -6.037001      -164.2751
  21   2.0000      -6.033861      -164.1897
  22   2.0000      -6.032769      -164.1600
  23   2.0000      -6.029636      -164.0747
  24   2.0000      -1.008881       -27.4530
  25   2.0000      -0.986341       -26.8397
  26   2.0000      -0.905978       -24.6529
  27   2.0000      -0.897125       -24.4120
  28   2.0000      -0.870078       -23.6760
  29   2.0000      -0.848954       -23.1012
  30   2.0000      -0.841773       -22.9058
  31   2.0000      -0.819803       -22.3080
  32   2.0000      -0.782829       -21.3019
  33   2.0000      -0.773553       -21.0494
  34   2.0000      -0.701192       -19.0804
  35   2.0000      -0.699705       -19.0399
  36   2.0000      -0.683038       -18.5864
  37   2.0000      -0.667447       -18.1622
  38   2.0000      -0.645619       -17.5682
  39   2.0000      -0.621379       -16.9086
  40   2.0000      -0.593618       -16.1532
  41   2.0000      -0.571941       -15.5633
  42   2.0000      -0.559901       -15.2357
  43   2.0000      -0.547877       -14.9085
  44   2.0000      -0.539832       -14.6896
  45   2.0000      -0.522865       -14.2279
  46   2.0000      -0.518910       -14.1202
  47   2.0000      -0.510769       -13.8987
  48   2.0000      -0.508483       -13.8365
  49   2.0000      -0.494958       -13.4685
  50   2.0000      -0.487303       -13.2602
  51   2.0000      -0.478573       -13.0226
  52   2.0000      -0.468246       -12.7416
  53   2.0000      -0.464842       -12.6490
  54   2.0000      -0.457203       -12.4411
  55   2.0000      -0.448816       -12.2129
  56   2.0000      -0.443259       -12.0617
  57   2.0000      -0.434159       -11.8141
  58   2.0000      -0.433116       -11.7857
  59   2.0000      -0.424995       -11.5647
  60   2.0000      -0.415943       -11.3184
  61   2.0000      -0.413275       -11.2458
  62   2.0000      -0.405012       -11.0209
  63   2.0000      -0.344267        -9.3680
  64   2.0000      -0.334326        -9.0975
  65   2.0000      -0.329397        -8.9634
  66   2.0000      -0.303221        -8.2511
  67   0.0000       0.040350         1.0980
  68   0.0000       0.057785         1.5724
  69   0.0000       0.095994         2.6121
  70   0.0000       0.114544         3.1169
  71   0.0000       0.133439         3.6311

MULLIKEN ATOMIC CHARGES
-----------------------
   0 S :    0.096293
   1 C :   -0.137227
   2 C :   -0.047215
   3 C :    0.034305
   4 C :   -0.112557
   5 H :   -0.027892
   6 C :    0.058792
   7 H :    0.010676
   8 H :    0.004861
   9 C :   -0.081062
  10 H :    0.020868
  11 H :    0.032575
  12 C :   -0.032776
  13 H :    0.041386
  14 H :    0.016381
  15 H :    0.038013
  16 S :    0.111905
  17 C :   -0.114784
  18 C :    0.011703
  19 C :   -0.037148
  20 C :   -0.140430
  21 H :   -0.005915
  22 C :    0.033793
  23 H :    0.030031
  24 H :    0.028130
  25 C :   -0.076160
  26 H :    0.035791
  27 H :    0.018052
  28 C :   -0.051308
  29 H :    0.041985
  30 H :    0.046202
  31 H :    0.032650
  32 H :    0.062382
  33 H :    0.057703
Sum of atomic charges:   -0.0000000

LOEWDIN ATOMIC CHARGES
----------------------
   0 S :    0.398207
   1 C :   -0.185008
   2 C :   -0.064081
   3 C :   -0.047662
   4 C :   -0.184498
   5 H :    0.014571
   6 C :   -0.035381
   7 H :    0.029470
   8 H :    0.018179
   9 C :   -0.037932
  10 H :    0.020314
  11 H :    0.026086
  12 C :   -0.062228
  13 H :    0.036856
  14 H :    0.011702
  15 H :    0.028472
  16 S :    0.393992
  17 C :   -0.166667
  18 C :   -0.052701
  19 C :   -0.060229
  20 C :   -0.200915
  21 H :    0.021294
  22 C :   -0.036662
  23 H :    0.029252
  24 H :    0.031120
  25 C :   -0.043289
  26 H :    0.025726
  27 H :    0.012911
  28 C :   -0.067330
  29 H :    0.031761
  30 H :    0.026551
  31 H :    0.023737
  32 H :    0.037893
  33 H :    0.026487

  Mayer bond orders larger than 0.100000
B(  0-S ,  1-C ) :   1.1212 B(  0-S ,  4-C ) :   1.1305 B(  1-C ,  2-C ) :   1.6553
B(  1-C , 32-H ) :   0.9645 B(  2-C ,  3-C ) :   1.1746 B(  2-C ,  6-C ) :   1.0496
B(  3-C ,  4-C ) :   1.6156 B(  3-C ,  5-H ) :   1.0287 B(  4-C , 20-C ) :   1.0020
B(  6-C ,  7-H ) :   0.9356 B(  6-C ,  8-H ) :   0.9412 B(  6-C ,  9-C ) :   1.0517
B(  9-C , 10-H ) :   0.9569 B(  9-C , 11-H ) :   0.9563 B(  9-C , 12-C ) :   1.0818
B( 12-C , 13-H ) :   0.9720 B( 12-C , 14-H ) :   0.9766 B( 12-C , 15-H ) :   0.9745
B( 16-S , 17-C ) :   1.1403 B( 16-S , 20-C ) :   1.1334 B( 17-C , 18-C ) :   1.6365
B( 17-C , 33-H ) :   0.9621 B( 18-C , 19-C ) :   1.2179 B( 18-C , 21-H ) :   1.0016
B( 19-C , 20-C ) :   1.6402 B( 19-C , 22-C ) :   1.0248 B( 22-C , 23-H ) :   0.9473
B( 22-C , 24-H ) :   0.9309 B( 22-C , 25-C ) :   1.0756 B( 25-C , 26-H ) :   0.9581
B( 25-C , 27-H ) :   0.9528 B( 25-C , 28-C ) :   1.0664 B( 28-C , 29-H ) :   0.9746
B( 28-C , 30-H ) :   0.9763 B( 28-C , 31-H ) :   0.9774

Dispersion correction           -0.014853095
FINAL SINGLE POINT ENERGY     -1339.863996687878

DIPOLE MOMENT
-------------
                                X             Y             Z
Electronic contribution:     -4.26038       6.95613       0.85454
Nuclear contribution   :      4.28213      -7.00037      -1.04115
                        -----------------------------------------
Total Dipole Moment    :      0.02175      -0.04424      -0.18661
                        -----------------------------------------
Magnitude (a.u.)       :      0.19302
Magnitude (Debye)      :      0.49061

Rotational constants in cm-1:     0.026198     0.007499     0.006264
Rotational constants in MHz :   785.400318   224.808964   187.781039

                             ****ORCA TERMINATED NORMALLY****
TOTAL RUN TIME: 0 days 0 hours 0 minutes 27 seconds 852 msec
