                         Program Version 4.2.1 -  RELEASE  -
|  1> ! wB97X-D3 SP def2-SVP
|  2> %pal
|  3> nprocs 16
|  4> end
|  5>
|  6> * xyz 0 1
|  7> S 	 -29.707 	 62.8357 	 106.221
|  8> C 	 -31.1835 	 63.5855 	 105.527
|  9> C 	 -32.3062 	 62.8672 	 105.909
| 10> C 	 -32.0362 	 61.7945 	 106.822
| 11> C 	 -30.67 	 61.7025 	 107.172
| 12> H 	 -32.7147 	 61.0155 	 107.196
| 13> C 	 -33.6841 	 63.1808 	 105.347
| 14> H 	 -33.9605 	 62.2692 	 104.753
| 15> H 	 -33.6618 	 63.985 	 104.624
| 16> C 	 -34.7248 	 63.5783 	 106.452
| 17> H 	 -34.7092 	 62.7238 	 107.205
| 18> H 	 -34.3238 	 64.4961 	 106.912
| 19> C 	 -36.1446 	 63.687 	 105.756
| 20> H 	 -36.369 	 64.3659 	 104.949
| 21> H 	 -36.3241 	 62.795 	 105.312
| 22> H 	 -36.9406 	 63.7314 	 106.52
| 23> S 	 -30.488 	 61.0275 	 109.863
| 24> C 	 -29.4527 	 59.6394 	 110.285
| 25> C 	 -28.7894 	 59.1059 	 109.193
| 26> C 	 -29.2085 	 59.7085 	 107.964
| 27> C 	 -30.1158 	 60.7288 	 108.124
| 28> H 	 -28.1423 	 58.2784 	 109.237
| 29> C 	 -28.6108 	 59.2502 	 106.623
| 30> H 	 -27.5072 	 59.1349 	 106.749
| 31> H 	 -28.7436 	 60.089 	 105.944
| 32> C 	 -29.3394 	 57.9565 	 106.178
| 33> H 	 -30.4265 	 58.0838 	 106.259
| 34> H 	 -29.1574 	 57.09 	 106.858
| 35> C 	 -29.0002 	 57.6676 	 104.674
| 36> H 	 -29.3868 	 56.6631 	 104.443
| 37> H 	 -27.9869 	 57.6581 	 104.399
| 38> H 	 -29.4998 	 58.4484 	 103.999
| 39> H 	 -31.2237 	 64.3285 	 104.738
| 40> H 	 -29.2227 	 59.3181 	 111.333
| 41> *
| 42>
| 43>                          ****END OF INPUT****

CARTESIAN COORDINATES (ANGSTROEM)
---------------------------------
  S    -29.707000   62.835700  106.221000
  C    -31.183500   63.585500  105.527000
  C    -32.306200   62.867200  105.909000
  C    -32.036200   61.794500  106.822000
  C    -30.670000   61.702500  107.172000
  H    -32.714700   61.015500  107.196000
  C    -33.684100   63.180800  105.347000
  H    -33.960500   62.269200  104.753000
  H    -33.661800   63.985000  104.624000
  C    -34.724800   63.578300  106.452000
  H    -34.709200   62.723800  107.205000
  H    -34.323800   64.496100  106.912000
  C    -36.144600   63.687000  105.756000
  H    -36.369000   64.365900  104.949000
  H    -36.324100   62.795000  105.312000
  H    -36.940600   63.731400  106.520000
  S    -30.488000   61.027500  109.863000
  C    -29.452700   59.639400  110.285000
  C    -28.789400   59.105900  109.193000
  C    -29.208500   59.708500  107.964000
  C    -30.115800   60.728800  108.124000
  H    -28.142300   58.278400  109.237000
  C    -28.610800   59.250200  106.623000
  H    -27.507200   59.134900  106.749000
  H    -28.743600   60.089000  105.944000
  C    -29.339400   57.956500  106.178000
  H    -30.426500   58.083800  106.259000
  H    -29.157400   57.090000  106.858000
  C    -29.000200   57.667600  104.674000
  H    -29.386800   56.663100  104.443000
  H    -27.986900   57.658100  104.399000
  H    -29.499800   58.448400  103.999000
  H    -31.223700   64.328500  104.738000
  H    -29.222700   59.318100  111.333000

 Total Charge           Charge          ....    0
 Multiplicity           Mult            ....    1
 Number of Electrons    NEL             ....  134
 Basis Dimension        Dim             ....  322

ORBITAL ENERGIES
----------------

  NO   OCC          E(Eh)            E(eV)
   0   2.0000     -88.968508     -2420.9562
   1   2.0000     -88.966334     -2420.8970
   2   2.0000     -10.334743      -281.2226
   3   2.0000     -10.327163      -281.0164
   4   2.0000     -10.325140      -280.9614
   5   2.0000     -10.317428      -280.7515
   6   2.0000     -10.303603      -280.3753
   7   2.0000     -10.302175      -280.3364
   8   2.0000     -10.301137      -280.3082
   9   2.0000     -10.299940      -280.2756
  10   2.0000     -10.295074      -280.1432
  11   2.0000     -10.294926      -280.1392
  12   2.0000     -10.293925      -280.1119
  13   2.0000     -10.292211      -280.0653
  14   2.0000     -10.280519      -279.7471
  15   2.0000     -10.274732      -279.5897
  16   2.0000      -8.081705      -219.9144
  17   2.0000      -8.079766      -219.8616
  18   2.0000      -6.040324      -164.3656
  19   2.0000      -6.038415      -164.3136
  20   2.0000      -6.036380      -164.2583
  21   2.0000      -6.034580      -164.2093
  22   2.0000      -6.032474      -164.1520
  23   2.0000      -6.030320      -164.0934
  24   2.0000      -0.996648       -27.1202
  25   2.0000      -0.975293       -26.5391
  26   2.0000      -0.904265       -24.6063
  27   2.0000      -0.900988       -24.5171
  28   2.0000      -0.863875       -23.5072
  29   2.0000      -0.844991       -22.9934
  30   2.0000      -0.840312       -22.8661
  31   2.0000      -0.810905       -22.0658
  32   2.0000      -0.779616       -21.2144
  33   2.0000      -0.767388       -20.8817
  34   2.0000      -0.707452       -19.2508
  35   2.0000      -0.701028       -19.0760
  36   2.0000      -0.691531       -18.8175
  37   2.0000      -0.665867       -18.1192
  38   2.0000      -0.636081       -17.3086
  39   2.0000      -0.612410       -16.6645
  40   2.0000      -0.589637       -16.0448
  41   2.0000      -0.563209       -15.3257
  42   2.0000      -0.558191       -15.1891
  43   2.0000      -0.552885       -15.0448
  44   2.0000      -0.524744       -14.2790
  45   2.0000      -0.518438       -14.1074
  46   2.0000      -0.513452       -13.9717
  47   2.0000      -0.503696       -13.7063
  48   2.0000      -0.502508       -13.6739
  49   2.0000      -0.498014       -13.5517
  50   2.0000      -0.489609       -13.3229
  51   2.0000      -0.473183       -12.8760
  52   2.0000      -0.470457       -12.8018
  53   2.0000      -0.463414       -12.6101
  54   2.0000      -0.457480       -12.4487
  55   2.0000      -0.451736       -12.2924
  56   2.0000      -0.445224       -12.1151
  57   2.0000      -0.440489       -11.9863
  58   2.0000      -0.434143       -11.8136
  59   2.0000      -0.431919       -11.7531
  60   2.0000      -0.420204       -11.4343
  61   2.0000      -0.411012       -11.1842
  62   2.0000      -0.408641       -11.1197
  63   2.0000      -0.334458        -9.1011
  64   2.0000      -0.332275        -9.0417
  65   2.0000      -0.327184        -8.9031
  66   2.0000      -0.300198        -8.1688
  67   0.0000       0.032714         0.8902
  68   0.0000       0.058734         1.5982
  69   0.0000       0.104553         2.8450
  70   0.0000       0.107295         2.9196
  71   0.0000       0.134242         3.6529

MULLIKEN ATOMIC CHARGES
-----------------------
   0 S :    0.107893
   1 C :   -0.119732
   2 C :   -0.074225
   3 C :    0.017569
   4 C :   -0.161786
   5 H :    0.031554
   6 C :    0.033400
   7 H :    0.042507
   8 H :    0.012426
   9 C :   -0.099997
  10 H :    0.046628
  11 H :    0.047661
  12 C :   -0.000387
  13 H :    0.033120
  14 H :   -0.007632
  15 H :    0.031459
  16 S :    0.104080
  17 C :   -0.103385
  18 C :   -0.003391
  19 C :   -0.059830
  20 C :   -0.179878
  21 H :    0.002993
  22 C :    0.085683
  23 H :    0.039411
  24 H :    0.015082
  25 C :   -0.092285
  26 H :    0.037033
  27 H :    0.036054
  28 C :   -0.047162
  29 H :    0.031762
  30 H :    0.023356
  31 H :    0.047732
  32 H :    0.048813
  33 H :    0.073475
Sum of atomic charges:    0.0000000

LOEWDIN ATOMIC CHARGES
----------------------
   0 S :    0.386138
   1 C :   -0.190186
   2 C :   -0.063016
   3 C :   -0.066035
   4 C :   -0.190528
   5 H :    0.037256
   6 C :   -0.035998
   7 H :    0.035543
   8 H :    0.022806
   9 C :   -0.032551
  10 H :    0.032048
  11 H :    0.028417
  12 C :   -0.066951
  13 H :    0.027241
  14 H :    0.011804
  15 H :    0.030286
  16 S :    0.374524
  17 C :   -0.174354
  18 C :   -0.066459
  19 C :   -0.050312
  20 C :   -0.193271
  21 H :    0.024062
  22 C :   -0.029467
  23 H :    0.035557
  24 H :    0.021172
  25 C :   -0.040024
  26 H :    0.029202
  27 H :    0.026484
  28 C :   -0.068469
  29 H :    0.026145
  30 H :    0.014463
  31 H :    0.036436
  32 H :    0.029681
  33 H :    0.038354

  Mayer bond orders larger than 0.100000
B(  0-S ,  1-C ) :   1.1200 B(  0-S ,  4-C ) :   1.1443 B(  1-C ,  2-C ) :   1.6241
B(  1-C , 32-H ) :   0.9664 B(  2-C ,  3-C ) :   1.2228 B(  2-C ,  6-C ) :   1.0244
B(  3-C ,  4-C ) :   1.5712 B(  3-C ,  5-H ) :   0.9874 B(  4-C , 20-C ) :   1.0363
B(  6-C ,  7-H ) :   0.9412 B(  6-C ,  8-H ) :   0.9471 B(  6-C ,  9-C ) :   1.0441
B(  9-C , 10-H ) :   0.9599 B(  9-C , 11-H ) :   0.9606 B(  9-C , 12-C ) :   1.0592
B( 12-C , 13-H ) :   0.9778 B( 12-C , 14-H ) :   0.9685 B( 12-C , 15-H ) :   0.9745
B( 16-S , 17-C ) :   1.1458 B( 16-S , 20-C ) :   1.1149 B( 17-C , 18-C ) :   1.6236
B( 17-C , 33-H ) :   0.9587 B( 18-C , 19-C ) :   1.2251 B( 18-C , 21-H ) :   0.9939
B( 19-C , 20-C ) :   1.6332 B( 19-C , 22-C ) :   1.0357 B( 22-C , 23-H ) :   0.9378
B( 22-C , 24-H ) :   0.9324 B( 22-C , 25-C ) :   1.0476 B( 25-C , 26-H ) :   0.9565
B( 25-C , 27-H ) :   0.9601 B( 25-C , 28-C ) :   1.0733 B( 28-C , 29-H ) :   0.9753
B( 28-C , 30-H ) :   0.9774 B( 28-C , 31-H ) :   0.9766

Dispersion correction           -0.013993321
FINAL SINGLE POINT ENERGY     -1339.874410216496

DIPOLE MOMENT
-------------
                                X             Y             Z
Electronic contribution:     13.42930       7.10365      15.27973
Nuclear contribution   :    -13.62607      -7.50275     -15.63930
                        -----------------------------------------
Total Dipole Moment    :     -0.19677      -0.39910      -0.35957
                        -----------------------------------------
Magnitude (a.u.)       :      0.57209
Magnitude (Debye)      :      1.45414

Rotational constants in cm-1:     0.018419     0.007667     0.006656
Rotational constants in MHz :   552.184450   229.841495   199.551469

                             ****ORCA TERMINATED NORMALLY****
TOTAL RUN TIME: 0 days 0 hours 0 minutes 29 seconds 369 msec
