                         Program Version 4.2.1 -  RELEASE  -
|  1> ! wB97X-D3 SP def2-SVP
|  2> %pal
|  3> nprocs 16
|  4> end
|  5>
|  6> * xyz 0 1
|  7> S 	 -34.4474 	 52.973 	 103.791
|  8> C 	 -35.9818 	 52.1589 	 103.501
|  9> C 	 -37.0429 	 53.041 	 103.779
| 10> C 	 -36.5468 	 54.3653 	 103.77
| 11> C 	 -35.2406 	 54.5211 	 103.964
| 12> H 	 -37.1043 	 55.2444 	 103.779
| 13> C 	 -38.5283 	 52.6756 	 103.584
| 14> H 	 -39.1811 	 52.7281 	 104.471
| 15> H 	 -38.3987 	 51.6009 	 103.279
| 16> C 	 -39.159 	 53.5235 	 102.478
| 17> H 	 -38.7467 	 54.5681 	 102.471
| 18> H 	 -38.9077 	 53.1796 	 101.488
| 19> C 	 -40.6289 	 53.4537 	 102.552
| 20> H 	 -41.0077 	 54.1687 	 101.755
| 21> H 	 -41.0868 	 52.5412 	 102.172
| 22> H 	 -41.1119 	 53.8062 	 103.467
| 23> S 	 -32.9028 	 55.649 	 103.093
| 24> C 	 -32.6799 	 57.3705 	 103.241
| 25> C 	 -33.7406 	 57.9627 	 103.901
| 26> C 	 -34.8175 	 57.1051 	 104.206
| 27> C 	 -34.5567 	 55.7897 	 103.824
| 28> H 	 -33.5605 	 59.0216 	 104.081
| 29> C 	 -36.1062 	 57.6156 	 104.887
| 30> H 	 -35.7655 	 58.313 	 105.647
| 31> H 	 -36.5549 	 57.002 	 105.671
| 32> C 	 -37.0587 	 58.3822 	 103.956
| 33> H 	 -37.4803 	 57.7763 	 103.193
| 34> H 	 -36.4437 	 59.1726 	 103.459
| 35> C 	 -38.1726 	 59.0181 	 104.728
| 36> H 	 -38.8481 	 58.3165 	 105.292
| 37> H 	 -38.7832 	 59.4072 	 104.029
| 38> H 	 -37.8449 	 59.7998 	 105.392
| 39> H 	 -36.1629 	 51.0935 	 103.244
| 40> H 	 -31.656 	 57.8621 	 103.065
| 41> *
| 42>
| 43>                          ****END OF INPUT****

CARTESIAN COORDINATES (ANGSTROEM)
---------------------------------
  S    -34.447400   52.973000  103.791000
  C    -35.981800   52.158900  103.501000
  C    -37.042900   53.041000  103.779000
  C    -36.546800   54.365300  103.770000
  C    -35.240600   54.521100  103.964000
  H    -37.104300   55.244400  103.779000
  C    -38.528300   52.675600  103.584000
  H    -39.181100   52.728100  104.471000
  H    -38.398700   51.600900  103.279000
  C    -39.159000   53.523500  102.478000
  H    -38.746700   54.568100  102.471000
  H    -38.907700   53.179600  101.488000
  C    -40.628900   53.453700  102.552000
  H    -41.007700   54.168700  101.755000
  H    -41.086800   52.541200  102.172000
  H    -41.111900   53.806200  103.467000
  S    -32.902800   55.649000  103.093000
  C    -32.679900   57.370500  103.241000
  C    -33.740600   57.962700  103.901000
  C    -34.817500   57.105100  104.206000
  C    -34.556700   55.789700  103.824000
  H    -33.560500   59.021600  104.081000
  C    -36.106200   57.615600  104.887000
  H    -35.765500   58.313000  105.647000
  H    -36.554900   57.002000  105.671000
  C    -37.058700   58.382200  103.956000
  H    -37.480300   57.776300  103.193000
  H    -36.443700   59.172600  103.459000
  C    -38.172600   59.018100  104.728000
  H    -38.848100   58.316500  105.292000
  H    -38.783200   59.407200  104.029000
  H    -37.844900   59.799800  105.392000
  H    -36.162900   51.093500  103.244000
  H    -31.656000   57.862100  103.065000

 Total Charge           Charge          ....    0
 Multiplicity           Mult            ....    1
 Number of Electrons    NEL             ....  134
 Basis Dimension        Dim             ....  322

ORBITAL ENERGIES
----------------

  NO   OCC          E(Eh)            E(eV)
   0   2.0000     -88.965533     -2420.8752
   1   2.0000     -88.961332     -2420.7609
   2   2.0000     -10.331562      -281.1361
   3   2.0000     -10.321454      -280.8610
   4   2.0000     -10.319917      -280.8192
   5   2.0000     -10.319602      -280.8106
   6   2.0000     -10.308697      -280.5139
   7   2.0000     -10.302528      -280.3461
   8   2.0000     -10.298160      -280.2272
   9   2.0000     -10.293652      -280.1045
  10   2.0000     -10.293624      -280.1037
  11   2.0000     -10.288497      -279.9642
  12   2.0000     -10.285763      -279.8899
  13   2.0000     -10.280044      -279.7342
  14   2.0000     -10.279440      -279.7178
  15   2.0000     -10.271303      -279.4964
  16   2.0000      -8.080075      -219.8700
  17   2.0000      -8.075598      -219.7482
  18   2.0000      -6.038773      -164.3234
  19   2.0000      -6.034682      -164.2120
  20   2.0000      -6.034065      -164.1953
  21   2.0000      -6.030551      -164.0996
  22   2.0000      -6.030255      -164.0916
  23   2.0000      -6.026335      -163.9849
  24   2.0000      -1.009078       -27.4584
  25   2.0000      -0.981869       -26.7180
  26   2.0000      -0.917327       -24.9617
  27   2.0000      -0.913708       -24.8632
  28   2.0000      -0.872408       -23.7394
  29   2.0000      -0.858131       -23.3509
  30   2.0000      -0.846286       -23.0286
  31   2.0000      -0.815573       -22.1929
  32   2.0000      -0.785815       -21.3831
  33   2.0000      -0.769839       -20.9484
  34   2.0000      -0.709377       -19.3031
  35   2.0000      -0.702271       -19.1098
  36   2.0000      -0.691296       -18.8111
  37   2.0000      -0.659935       -17.9578
  38   2.0000      -0.638501       -17.3745
  39   2.0000      -0.624499       -16.9935
  40   2.0000      -0.598213       -16.2782
  41   2.0000      -0.575361       -15.6564
  42   2.0000      -0.567583       -15.4447
  43   2.0000      -0.556774       -15.1506
  44   2.0000      -0.533133       -14.5073
  45   2.0000      -0.524387       -14.2693
  46   2.0000      -0.517856       -14.0916
  47   2.0000      -0.512316       -13.9408
  48   2.0000      -0.504139       -13.7183
  49   2.0000      -0.498922       -13.5764
  50   2.0000      -0.496353       -13.5065
  51   2.0000      -0.477863       -13.0033
  52   2.0000      -0.470019       -12.7899
  53   2.0000      -0.465230       -12.6596
  54   2.0000      -0.456328       -12.4173
  55   2.0000      -0.453841       -12.3496
  56   2.0000      -0.447146       -12.1675
  57   2.0000      -0.440285       -11.9808
  58   2.0000      -0.431429       -11.7398
  59   2.0000      -0.426422       -11.6035
  60   2.0000      -0.417559       -11.3623
  61   2.0000      -0.409615       -11.1462
  62   2.0000      -0.405987       -11.0475
  63   2.0000      -0.356740        -9.7074
  64   2.0000      -0.334273        -9.0960
  65   2.0000      -0.327328        -8.9071
  66   2.0000      -0.282704        -7.6928
  67   0.0000       0.021366         0.5814
  68   0.0000       0.079614         2.1664
  69   0.0000       0.099906         2.7186
  70   0.0000       0.118515         3.2250
  71   0.0000       0.128847         3.5061

MULLIKEN ATOMIC CHARGES
-----------------------
   0 S :    0.095356
   1 C :   -0.143526
   2 C :   -0.058805
   3 C :   -0.016449
   4 C :   -0.071069
   5 H :   -0.010623
   6 C :    0.064256
   7 H :    0.042617
   8 H :    0.024067
   9 C :   -0.084325
  10 H :    0.041080
  11 H :    0.021984
  12 C :   -0.059677
  13 H :    0.022835
  14 H :    0.034821
  15 H :    0.037039
  16 S :    0.080649
  17 C :   -0.130990
  18 C :   -0.049830
  19 C :    0.002700
  20 C :   -0.149361
  21 H :    0.023814
  22 C :    0.036302
  23 H :    0.004492
  24 H :    0.024675
  25 C :   -0.058850
  26 H :    0.024402
  27 H :    0.034358
  28 C :   -0.001292
  29 H :    0.030255
  30 H :    0.003320
  31 H :    0.030484
  32 H :    0.068368
  33 H :    0.086924
Sum of atomic charges:   -0.0000000

LOEWDIN ATOMIC CHARGES
----------------------
   0 S :    0.393425
   1 C :   -0.195328
   2 C :   -0.060799
   3 C :   -0.059202
   4 C :   -0.194580
   5 H :    0.020046
   6 C :   -0.032101
   7 H :    0.032322
   8 H :    0.036029
   9 C :   -0.048448
  10 H :    0.030358
  11 H :    0.027884
  12 C :   -0.074387
  13 H :    0.033838
  14 H :    0.026973
  15 H :    0.022696
  16 S :    0.373997
  17 C :   -0.202613
  18 C :   -0.078854
  19 C :   -0.058559
  20 C :   -0.159906
  21 H :    0.035657
  22 C :   -0.047420
  23 H :    0.033511
  24 H :    0.032789
  25 C :   -0.032612
  26 H :    0.017341
  27 H :    0.033312
  28 C :   -0.057654
  29 H :    0.031413
  30 H :    0.012543
  31 H :    0.024530
  32 H :    0.037225
  33 H :    0.046571

  Mayer bond orders larger than 0.100000
B(  0-S ,  1-C ) :   1.1451 B(  0-S ,  4-C ) :   1.1091 B(  1-C ,  2-C ) :   1.6008
B(  1-C , 32-H ) :   0.9572 B(  2-C ,  3-C ) :   1.2163 B(  2-C ,  6-C ) :   1.0270
B(  3-C ,  4-C ) :   1.6229 B(  3-C ,  5-H ) :   0.9891 B(  4-C , 20-C ) :   1.0716
B(  6-C ,  7-H ) :   0.9449 B(  6-C ,  8-H ) :   0.9408 B(  6-C ,  9-C ) :   1.0534
B(  9-C , 10-H ) :   0.9584 B(  9-C , 11-H ) :   0.9450 B(  9-C , 12-C ) :   1.0974
B( 12-C , 13-H ) :   0.9659 B( 12-C , 14-H ) :   0.9707 B( 12-C , 15-H ) :   0.9740
B( 16-S , 17-C ) :   1.1508 B( 16-S , 20-C ) :   1.1284 B( 17-C , 18-C ) :   1.6242
B( 17-C , 33-H ) :   0.9539 B( 18-C , 19-C ) :   1.2293 B( 18-C , 21-H ) :   0.9900
B( 19-C , 20-C ) :   1.5967 B( 19-C , 22-C ) :   1.0260 B( 22-C , 23-H ) :   0.9243
B( 22-C , 24-H ) :   0.9374 B( 22-C , 25-C ) :   1.0547 B( 25-C , 26-H ) :   0.9569
B( 25-C , 27-H ) :   0.9495 B( 25-C , 28-C ) :   1.0944 B( 28-C , 29-H ) :   0.9694
B( 28-C , 30-H ) :   0.9670 B( 28-C , 31-H ) :   0.9729

Dispersion correction           -0.013706087
FINAL SINGLE POINT ENERGY     -1339.844305729539

DIPOLE MOMENT
-------------
                                X             Y             Z
Electronic contribution:     31.07148     -10.54522      -0.12429
Nuclear contribution   :    -31.77391      10.95260       0.10436
                        -----------------------------------------
Total Dipole Moment    :     -0.70242       0.40737      -0.01993
                        -----------------------------------------
Magnitude (a.u.)       :      0.81225
Magnitude (Debye)      :      2.06457

Rotational constants in cm-1:     0.015747     0.010163     0.006588
Rotational constants in MHz :   472.087458   304.687766   197.489190

                             ****ORCA TERMINATED NORMALLY****
TOTAL RUN TIME: 0 days 0 hours 0 minutes 29 seconds 946 msec
