                         Program Version 4.2.1 -  RELEASE  -
|  1> ! wB97X-D3 SP def2-SVP
|  2> %pal
|  3> nprocs 16
|  4> end
|  5>
|  6> * xyz 0 1
|  7> S 	 -31.8008 	 61.1083 	 108.885
|  8> C 	 -31.1266 	 61.7811 	 110.344
|  9> C 	 -32.091 	 62.3576 	 111.169
| 10> C 	 -33.3991 	 62.2545 	 110.555
| 11> C 	 -33.349 	 61.7728 	 109.254
| 12> H 	 -34.3647 	 62.5723 	 110.988
| 13> C 	 -31.9106 	 63.0566 	 112.502
| 14> H 	 -32.6655 	 63.8768 	 112.399
| 15> H 	 -30.8768 	 63.4942 	 112.524
| 16> C 	 -32.2691 	 62.3955 	 113.826
| 17> H 	 -31.5278 	 61.6225 	 114.021
| 18> H 	 -32.0549 	 63.1837 	 114.565
| 19> C 	 -33.715 	 62.0044 	 114.078
| 20> H 	 -34.4098 	 62.7781 	 113.783
| 21> H 	 -33.8875 	 61.1294 	 113.416
| 22> H 	 -33.836 	 61.8032 	 115.11
| 23> S 	 -34.4871 	 59.8062 	 107.86
| 24> C 	 -36.1174 	 59.8881 	 107.223
| 25> C 	 -36.7308 	 61.015 	 107.734
| 26> C 	 -35.887 	 61.8878 	 108.554
| 27> C 	 -34.5759 	 61.393 	 108.565
| 28> H 	 -37.774 	 61.1164 	 107.403
| 29> C 	 -36.4412 	 63.1598 	 109.205
| 30> H 	 -36.8297 	 63.7797 	 108.384
| 31> H 	 -35.6457 	 63.7487 	 109.648
| 32> C 	 -37.5371 	 62.9371 	 110.319
| 33> H 	 -38.3872 	 62.4003 	 109.925
| 34> H 	 -37.9226 	 63.9277 	 110.563
| 35> C 	 -37.022 	 62.4411 	 111.68
| 36> H 	 -36.4984 	 61.4944 	 111.606
| 37> H 	 -37.9221 	 62.583 	 112.41
| 38> H 	 -36.2879 	 63.2616 	 111.929
| 39> H 	 -30.081 	 61.815 	 110.664
| 40> H 	 -36.5706 	 59.149 	 106.565
| 41> *
| 42>
| 43>                          ****END OF INPUT****

CARTESIAN COORDINATES (ANGSTROEM)
---------------------------------
  S    -31.800800   61.108300  108.885000
  C    -31.126600   61.781100  110.344000
  C    -32.091000   62.357600  111.169000
  C    -33.399100   62.254500  110.555000
  C    -33.349000   61.772800  109.254000
  H    -34.364700   62.572300  110.988000
  C    -31.910600   63.056600  112.502000
  H    -32.665500   63.876800  112.399000
  H    -30.876800   63.494200  112.524000
  C    -32.269100   62.395500  113.826000
  H    -31.527800   61.622500  114.021000
  H    -32.054900   63.183700  114.565000
  C    -33.715000   62.004400  114.078000
  H    -34.409800   62.778100  113.783000
  H    -33.887500   61.129400  113.416000
  H    -33.836000   61.803200  115.110000
  S    -34.487100   59.806200  107.860000
  C    -36.117400   59.888100  107.223000
  C    -36.730800   61.015000  107.734000
  C    -35.887000   61.887800  108.554000
  C    -34.575900   61.393000  108.565000
  H    -37.774000   61.116400  107.403000
  C    -36.441200   63.159800  109.205000
  H    -36.829700   63.779700  108.384000
  H    -35.645700   63.748700  109.648000
  C    -37.537100   62.937100  110.319000
  H    -38.387200   62.400300  109.925000
  H    -37.922600   63.927700  110.563000
  C    -37.022000   62.441100  111.680000
  H    -36.498400   61.494400  111.606000
  H    -37.922100   62.583000  112.410000
  H    -36.287900   63.261600  111.929000
  H    -30.081000   61.815000  110.664000
  H    -36.570600   59.149000  106.565000

 Total Charge           Charge          ....    0
 Multiplicity           Mult            ....    1
 Number of Electrons    NEL             ....  134
 Basis Dimension        Dim             ....  322

ORBITAL ENERGIES
----------------

  NO   OCC          E(Eh)            E(eV)
   0   2.0000     -88.971555     -2421.0391
   1   2.0000     -88.959079     -2420.6996
   2   2.0000     -10.328503      -281.0529
   3   2.0000     -10.326809      -281.0068
   4   2.0000     -10.316595      -280.7288
   5   2.0000     -10.314531      -280.6727
   6   2.0000     -10.309818      -280.5444
   7   2.0000     -10.303548      -280.3738
   8   2.0000     -10.298529      -280.2372
   9   2.0000     -10.298202      -280.2283
  10   2.0000     -10.297014      -280.1960
  11   2.0000     -10.295729      -280.1610
  12   2.0000     -10.294281      -280.1216
  13   2.0000     -10.290387      -280.0157
  14   2.0000     -10.286998      -279.9234
  15   2.0000     -10.277692      -279.6702
  16   2.0000      -8.086395      -220.0420
  17   2.0000      -8.074416      -219.7160
  18   2.0000      -6.045018      -164.4933
  19   2.0000      -6.040919      -164.3818
  20   2.0000      -6.036987      -164.2748
  21   2.0000      -6.032996      -164.1662
  22   2.0000      -6.028879      -164.0541
  23   2.0000      -6.025016      -163.9490
  24   2.0000      -1.009489       -27.4696
  25   2.0000      -0.981139       -26.6982
  26   2.0000      -0.914667       -24.8893
  27   2.0000      -0.905164       -24.6308
  28   2.0000      -0.871225       -23.7072
  29   2.0000      -0.853365       -23.2212
  30   2.0000      -0.843338       -22.9484
  31   2.0000      -0.813005       -22.1230
  32   2.0000      -0.783255       -21.3135
  33   2.0000      -0.773936       -21.0599
  34   2.0000      -0.704274       -19.1643
  35   2.0000      -0.702444       -19.1145
  36   2.0000      -0.691443       -18.8151
  37   2.0000      -0.655740       -17.8436
  38   2.0000      -0.631831       -17.1930
  39   2.0000      -0.614083       -16.7100
  40   2.0000      -0.593293       -16.1443
  41   2.0000      -0.570705       -15.5297
  42   2.0000      -0.554201       -15.0806
  43   2.0000      -0.552390       -15.0313
  44   2.0000      -0.546327       -14.8663
  45   2.0000      -0.539228       -14.6731
  46   2.0000      -0.519718       -14.1422
  47   2.0000      -0.510568       -13.8933
  48   2.0000      -0.505281       -13.7494
  49   2.0000      -0.498612       -13.5679
  50   2.0000      -0.488427       -13.2908
  51   2.0000      -0.480092       -13.0640
  52   2.0000      -0.471769       -12.8375
  53   2.0000      -0.461387       -12.5550
  54   2.0000      -0.459802       -12.5118
  55   2.0000      -0.453928       -12.3520
  56   2.0000      -0.440765       -11.9938
  57   2.0000      -0.438111       -11.9216
  58   2.0000      -0.434018       -11.8102
  59   2.0000      -0.427646       -11.6368
  60   2.0000      -0.422753       -11.5037
  61   2.0000      -0.412005       -11.2112
  62   2.0000      -0.407544       -11.0898
  63   2.0000      -0.355584        -9.6759
  64   2.0000      -0.328793        -8.9469
  65   2.0000      -0.323824        -8.8117
  66   2.0000      -0.286181        -7.7874
  67   0.0000       0.024517         0.6671
  68   0.0000       0.080520         2.1911
  69   0.0000       0.102509         2.7894
  70   0.0000       0.108876         2.9627
  71   0.0000       0.124563         3.3895

MULLIKEN ATOMIC CHARGES
-----------------------
   0 S :    0.119692
   1 C :   -0.115028
   2 C :   -0.079147
   3 C :   -0.002142
   4 C :   -0.101379
   5 H :   -0.023076
   6 C :    0.027448
   7 H :    0.024731
   8 H :    0.035435
   9 C :   -0.068825
  10 H :    0.028730
  11 H :    0.026030
  12 C :   -0.027504
  13 H :    0.023289
  14 H :    0.047897
  15 H :    0.035978
  16 S :    0.074323
  17 C :   -0.103764
  18 C :   -0.047779
  19 C :   -0.048668
  20 C :   -0.131448
  21 H :    0.027192
  22 C :    0.049805
  23 H :    0.041924
  24 H :    0.015406
  25 C :   -0.076547
  26 H :    0.030275
  27 H :    0.021093
  28 C :   -0.082293
  29 H :    0.065866
  30 H :    0.060886
  31 H :    0.042679
  32 H :    0.046315
  33 H :    0.062608
Sum of atomic charges:    0.0000000

LOEWDIN ATOMIC CHARGES
----------------------
   0 S :    0.422512
   1 C :   -0.205488
   2 C :   -0.064828
   3 C :   -0.060324
   4 C :   -0.208626
   5 H :    0.028360
   6 C :   -0.040533
   7 H :    0.034405
   8 H :    0.037628
   9 C :   -0.042947
  10 H :    0.022552
  11 H :    0.027046
  12 C :   -0.059761
  13 H :    0.022239
  14 H :    0.033063
  15 H :    0.025709
  16 S :    0.394027
  17 C :   -0.192995
  18 C :   -0.073297
  19 C :   -0.068446
  20 C :   -0.186526
  21 H :    0.034318
  22 C :   -0.033978
  23 H :    0.037934
  24 H :    0.024571
  25 C :   -0.039732
  26 H :    0.017301
  27 H :    0.024401
  28 C :   -0.072883
  29 H :    0.026851
  30 H :    0.045653
  31 H :    0.025932
  32 H :    0.032883
  33 H :    0.032978

  Mayer bond orders larger than 0.100000
B(  0-S ,  1-C ) :   1.1329 B(  0-S ,  4-C ) :   1.1525 B(  1-C ,  2-C ) :   1.6106
B(  1-C , 32-H ) :   0.9624 B(  2-C ,  3-C ) :   1.2477 B(  2-C ,  6-C ) :   1.0136
B(  3-C ,  4-C ) :   1.5523 B(  3-C ,  5-H ) :   0.9727 B(  4-C , 20-C ) :   1.0546
B(  6-C ,  7-H ) :   0.9374 B(  6-C ,  8-H ) :   0.9402 B(  6-C ,  9-C ) :   1.0817
B(  9-C , 10-H ) :   0.9528 B(  9-C , 11-H ) :   0.9496 B(  9-C , 12-C ) :   1.0815
B( 12-C , 13-H ) :   0.9704 B( 12-C , 14-H ) :   0.9727 B( 12-C , 15-H ) :   0.9702
B( 16-S , 17-C ) :   1.1307 B( 16-S , 20-C ) :   1.1503 B( 17-C , 18-C ) :   1.6406
B( 17-C , 33-H ) :   0.9701 B( 18-C , 19-C ) :   1.2020 B( 18-C , 21-H ) :   0.9872
B( 19-C , 20-C ) :   1.5981 B( 19-C , 22-C ) :   1.0403 B( 22-C , 23-H ) :   0.9350
B( 22-C , 24-H ) :   0.9359 B( 22-C , 25-C ) :   1.0703 B( 25-C , 26-H ) :   0.9581
B( 25-C , 27-H ) :   0.9558 B( 25-C , 28-C ) :   1.0690 B( 28-C , 29-H ) :   0.9714
B( 28-C , 30-H ) :   0.9675 B( 28-C , 31-H ) :   0.9568

Dispersion correction           -0.015603398
FINAL SINGLE POINT ENERGY     -1339.871792442357

DIPOLE MOMENT
-------------
                                X             Y             Z
Electronic contribution:     11.90174     -12.82116     -25.01001
Nuclear contribution   :    -12.28503      13.19297      25.61182
                        -----------------------------------------
Total Dipole Moment    :     -0.38329       0.37181       0.60181
                        -----------------------------------------
Magnitude (a.u.)       :      0.80457
Magnitude (Debye)      :      2.04505

Rotational constants in cm-1:     0.017440     0.010807     0.007422
Rotational constants in MHz :   522.831801   323.994383   222.509542

                             ****ORCA TERMINATED NORMALLY****
TOTAL RUN TIME: 0 days 0 hours 0 minutes 32 seconds 515 msec
