                         Program Version 4.2.1 -  RELEASE  -
|  1> ! wB97X-D3 SP def2-SVP
|  2> %pal
|  3> nprocs 16
|  4> end
|  5>
|  6> * xyz 0 1
|  7> S 	 -44.0715 	 25.6901 	 82.7902
|  8> C 	 -44.5406 	 24.4813 	 84.0018
|  9> C 	 -43.7738 	 23.3529 	 83.8977
| 10> C 	 -42.6761 	 23.5048 	 83.0345
| 11> C 	 -42.5229 	 24.7894 	 82.5007
| 12> H 	 -42.0395 	 22.7473 	 82.6838
| 13> C 	 -44.1324 	 22.0555 	 84.6366
| 14> H 	 -44.5395 	 21.4061 	 83.8216
| 15> H 	 -44.9692 	 22.2273 	 85.3206
| 16> C 	 -43.0706 	 21.2956 	 85.3939
| 17> H 	 -43.5831 	 20.5345 	 85.9306
| 18> H 	 -42.5736 	 20.6454 	 84.7021
| 19> C 	 -42.2259 	 21.973 	 86.4763
| 20> H 	 -41.1598 	 21.6053 	 86.5559
| 21> H 	 -42.1691 	 23.0366 	 86.2792
| 22> H 	 -42.6766 	 21.8697 	 87.4659
| 23> S 	 -42.3591 	 25.6394 	 79.8601
| 24> C 	 -40.8464 	 25.6345 	 79.0043
| 25> C 	 -39.879 	 25.5167 	 79.9398
| 26> C 	 -40.2491 	 25.2641 	 81.2987
| 27> C 	 -41.6324 	 25.1932 	 81.4413
| 28> H 	 -38.8894 	 25.6462 	 79.5125
| 29> C 	 -39.1377 	 25.0558 	 82.3358
| 30> H 	 -39.7032 	 25.1957 	 83.2371
| 31> H 	 -38.4722 	 25.908 	 82.2719
| 32> C 	 -38.4935 	 23.6764 	 82.4278
| 33> H 	 -38.4395 	 23.1894 	 81.5037
| 34> H 	 -39.1192 	 22.9967 	 82.9979
| 35> C 	 -37.1919 	 23.725 	 83.1558
| 36> H 	 -36.747 	 22.7485 	 83.1619
| 37> H 	 -37.3292 	 24.0034 	 84.1754
| 38> H 	 -36.524 	 24.4289 	 82.6909
| 39> H 	 -45.417 	 24.5173 	 84.6406
| 40> H 	 -40.7073 	 25.7809 	 77.908
| 41> *
| 42>
| 43>                          ****END OF INPUT****

CARTESIAN COORDINATES (ANGSTROEM)
---------------------------------
  S    -44.071500   25.690100   82.790200
  C    -44.540600   24.481300   84.001800
  C    -43.773800   23.352900   83.897700
  C    -42.676100   23.504800   83.034500
  C    -42.522900   24.789400   82.500700
  H    -42.039500   22.747300   82.683800
  C    -44.132400   22.055500   84.636600
  H    -44.539500   21.406100   83.821600
  H    -44.969200   22.227300   85.320600
  C    -43.070600   21.295600   85.393900
  H    -43.583100   20.534500   85.930600
  H    -42.573600   20.645400   84.702100
  C    -42.225900   21.973000   86.476300
  H    -41.159800   21.605300   86.555900
  H    -42.169100   23.036600   86.279200
  H    -42.676600   21.869700   87.465900
  S    -42.359100   25.639400   79.860100
  C    -40.846400   25.634500   79.004300
  C    -39.879000   25.516700   79.939800
  C    -40.249100   25.264100   81.298700
  C    -41.632400   25.193200   81.441300
  H    -38.889400   25.646200   79.512500
  C    -39.137700   25.055800   82.335800
  H    -39.703200   25.195700   83.237100
  H    -38.472200   25.908000   82.271900
  C    -38.493500   23.676400   82.427800
  H    -38.439500   23.189400   81.503700
  H    -39.119200   22.996700   82.997900
  C    -37.191900   23.725000   83.155800
  H    -36.747000   22.748500   83.161900
  H    -37.329200   24.003400   84.175400
  H    -36.524000   24.428900   82.690900
  H    -45.417000   24.517300   84.640600
  H    -40.707300   25.780900   77.908000

 Total Charge           Charge          ....    0
 Multiplicity           Mult            ....    1
 Number of Electrons    NEL             ....  134
 Basis Dimension        Dim             ....  322

ORBITAL ENERGIES
----------------

  NO   OCC          E(Eh)            E(eV)
   0   2.0000     -88.965496     -2420.8742
   1   2.0000     -88.957193     -2420.6483
   2   2.0000     -10.336253      -281.2638
   3   2.0000     -10.331260      -281.1279
   4   2.0000     -10.316362      -280.7225
   5   2.0000     -10.315989      -280.7123
   6   2.0000     -10.305729      -280.4331
   7   2.0000     -10.300073      -280.2792
   8   2.0000     -10.297887      -280.2197
   9   2.0000     -10.295612      -280.1578
  10   2.0000     -10.287346      -279.9329
  11   2.0000     -10.286318      -279.9050
  12   2.0000     -10.281301      -279.7684
  13   2.0000     -10.280704      -279.7522
  14   2.0000     -10.277124      -279.6548
  15   2.0000     -10.268885      -279.4306
  16   2.0000      -8.079032      -219.8416
  17   2.0000      -8.071993      -219.6501
  18   2.0000      -6.037686      -164.2938
  19   2.0000      -6.033963      -164.1925
  20   2.0000      -6.030672      -164.1029
  21   2.0000      -6.029437      -164.0693
  22   2.0000      -6.026490      -163.9891
  23   2.0000      -6.022524      -163.8812
  24   2.0000      -1.002953       -27.2917
  25   2.0000      -0.982246       -26.7283
  26   2.0000      -0.913901       -24.8685
  27   2.0000      -0.911942       -24.8152
  28   2.0000      -0.873463       -23.7681
  29   2.0000      -0.852375       -23.1943
  30   2.0000      -0.842934       -22.9374
  31   2.0000      -0.816628       -22.2216
  32   2.0000      -0.784660       -21.3517
  33   2.0000      -0.775096       -21.0914
  34   2.0000      -0.715805       -19.4780
  35   2.0000      -0.703398       -19.1404
  36   2.0000      -0.696128       -18.9426
  37   2.0000      -0.653862       -17.7925
  38   2.0000      -0.640939       -17.4408
  39   2.0000      -0.621378       -16.9085
  40   2.0000      -0.594419       -16.1750
  41   2.0000      -0.566652       -15.4194
  42   2.0000      -0.560138       -15.2421
  43   2.0000      -0.556054       -15.1310
  44   2.0000      -0.544345       -14.8124
  45   2.0000      -0.533210       -14.5094
  46   2.0000      -0.522332       -14.2134
  47   2.0000      -0.512032       -13.9331
  48   2.0000      -0.509980       -13.8773
  49   2.0000      -0.502307       -13.6685
  50   2.0000      -0.488100       -13.2819
  51   2.0000      -0.481192       -13.0939
  52   2.0000      -0.471353       -12.8262
  53   2.0000      -0.467295       -12.7157
  54   2.0000      -0.457967       -12.4619
  55   2.0000      -0.447981       -12.1902
  56   2.0000      -0.444178       -12.0867
  57   2.0000      -0.441018       -12.0007
  58   2.0000      -0.436988       -11.8910
  59   2.0000      -0.420160       -11.4331
  60   2.0000      -0.411591       -11.2000
  61   2.0000      -0.408721       -11.1219
  62   2.0000      -0.406966       -11.0741
  63   2.0000      -0.349579        -9.5125
  64   2.0000      -0.329519        -8.9667
  65   2.0000      -0.325264        -8.8509
  66   2.0000      -0.291624        -7.9355
  67   0.0000       0.023698         0.6449
  68   0.0000       0.059215         1.6113
  69   0.0000       0.102838         2.7984
  70   0.0000       0.125313         3.4100
  71   0.0000       0.132351         3.6014

MULLIKEN ATOMIC CHARGES
-----------------------
   0 S :    0.085671
   1 C :   -0.110845
   2 C :   -0.082754
   3 C :    0.051425
   4 C :   -0.152700
   5 H :    0.003408
   6 C :    0.047300
   7 H :    0.047828
   8 H :    0.015789
   9 C :   -0.038320
  10 H :    0.011439
  11 H :    0.012475
  12 C :   -0.059125
  13 H :    0.044973
  14 H :    0.037346
  15 H :    0.033880
  16 S :    0.077454
  17 C :   -0.107262
  18 C :   -0.043378
  19 C :   -0.042905
  20 C :   -0.155311
  21 H :    0.013563
  22 C :    0.084536
  23 H :    0.016893
  24 H :    0.029781
  25 C :   -0.030179
  26 H :    0.012398
  27 H :    0.015210
  28 C :   -0.016782
  29 H :    0.025854
  30 H :    0.022721
  31 H :    0.024381
  32 H :    0.047472
  33 H :    0.077761
Sum of atomic charges:   -0.0000000

LOEWDIN ATOMIC CHARGES
----------------------
   0 S :    0.367293
   1 C :   -0.180659
   2 C :   -0.071055
   3 C :   -0.044825
   4 C :   -0.171707
   5 H :    0.025634
   6 C :   -0.029750
   7 H :    0.045147
   8 H :    0.027289
   9 C :   -0.055833
  10 H :    0.027253
  11 H :    0.021131
  12 C :   -0.069843
  13 H :    0.036739
  14 H :    0.025376
  15 H :    0.026841
  16 S :    0.377531
  17 C :   -0.190607
  18 C :   -0.083831
  19 C :   -0.056632
  20 C :   -0.185398
  21 H :    0.029539
  22 C :   -0.027117
  23 H :    0.031838
  24 H :    0.031954
  25 C :   -0.036194
  26 H :    0.014713
  27 H :    0.025267
  28 C :   -0.054329
  29 H :    0.025594
  30 H :    0.022795
  31 H :    0.021013
  32 H :    0.029715
  33 H :    0.045120

  Mayer bond orders larger than 0.100000
B(  0-S ,  1-C ) :   1.1292 B(  0-S ,  4-C ) :   1.1245 B(  1-C ,  2-C ) :   1.6206
B(  1-C ,  4-C ) :   0.1030 B(  1-C , 32-H ) :   0.9649 B(  2-C ,  3-C ) :   1.2342
B(  2-C ,  6-C ) :   1.0155 B(  3-C ,  4-C ) :   1.5656 B(  3-C ,  5-H ) :   1.0015
B(  4-C , 20-C ) :   1.0671 B(  6-C ,  7-H ) :   0.9314 B(  6-C ,  8-H ) :   0.9462
B(  6-C ,  9-C ) :   1.0919 B(  9-C , 10-H ) :   0.9488 B(  9-C , 11-H ) :   0.9509
B(  9-C , 12-C ) :   1.0531 B( 12-C , 13-H ) :   0.9750 B( 12-C , 14-H ) :   0.9807
B( 12-C , 15-H ) :   0.9790 B( 16-S , 17-C ) :   1.1383 B( 16-S , 20-C ) :   1.1254
B( 17-C , 18-C ) :   1.6343 B( 17-C , 33-H ) :   0.9629 B( 18-C , 19-C ) :   1.2115
B( 18-C , 21-H ) :   0.9916 B( 19-C , 20-C ) :   1.6043 B( 19-C , 22-C ) :   1.0363
B( 22-C , 23-H ) :   0.9210 B( 22-C , 24-H ) :   0.9467 B( 22-C , 25-C ) :   1.0570
B( 25-C , 26-H ) :   0.9609 B( 25-C , 27-H ) :   0.9447 B( 25-C , 28-C ) :   1.0939
B( 28-C , 29-H ) :   0.9695 B( 28-C , 30-H ) :   0.9721 B( 28-C , 31-H ) :   0.9769

Dispersion correction           -0.013892054
FINAL SINGLE POINT ENERGY     -1339.857761930284

DIPOLE MOMENT
-------------
                                X             Y             Z
Electronic contribution:    -17.03872      17.97118     -18.52552
Nuclear contribution   :     17.37853     -18.64317      18.74841
                        -----------------------------------------
Total Dipole Moment    :      0.33980      -0.67199       0.22289
                        -----------------------------------------
Magnitude (a.u.)       :      0.78531
Magnitude (Debye)      :      1.99610

Rotational constants in cm-1:     0.015938     0.009846     0.006640
Rotational constants in MHz :   477.815487   295.166751   199.066788

                             ****ORCA TERMINATED NORMALLY****
TOTAL RUN TIME: 0 days 0 hours 0 minutes 30 seconds 70 msec
