                         Program Version 4.2.1 -  RELEASE  -
|  1> ! wB97X-D3 SP def2-SVP
|  2> %pal
|  3> nprocs 16
|  4> end
|  5>
|  6> * xyz 0 1
|  7> S 	 -42.0309 	 25.1095 	 76.8892
|  8> C 	 -43.2125 	 24.2629 	 77.9317
|  9> C 	 -42.8897 	 22.8813 	 78.0447
| 10> C 	 -41.81 	 22.5805 	 77.1601
| 11> C 	 -41.3797 	 23.6324 	 76.3679
| 12> H 	 -41.3964 	 21.5495 	 77.114
| 13> C 	 -43.5371 	 21.9182 	 79.0504
| 14> H 	 -43.876 	 21.0709 	 78.4629
| 15> H 	 -44.4827 	 22.3546 	 79.3436
| 16> C 	 -42.8406 	 21.4107 	 80.3125
| 17> H 	 -43.4151 	 20.7642 	 80.8671
| 18> H 	 -41.9118 	 20.8145 	 80.0623
| 19> C 	 -42.3237 	 22.6193 	 81.0806
| 20> H 	 -41.6995 	 22.1915 	 81.9029
| 21> H 	 -41.5742 	 23.1929 	 80.5877
| 22> H 	 -43.0755 	 23.3186 	 81.5156
| 23> S 	 -40.2059 	 22.0175 	 74.3995
| 24> C 	 -38.9534 	 22.6543 	 73.4166
| 25> C 	 -38.6522 	 23.9527 	 73.8072
| 26> C 	 -39.4656 	 24.5113 	 74.8472
| 27> C 	 -40.3369 	 23.568 	 75.3484
| 28> H 	 -37.7729 	 24.4953 	 73.3832
| 29> C 	 -39.2622 	 25.9486 	 75.282
| 30> H 	 -38.3345 	 26.3183 	 74.8287
| 31> H 	 -39.2748 	 26.0415 	 76.4128
| 32> C 	 -40.2919 	 27.008 	 74.7509
| 33> H 	 -41.2722 	 26.7972 	 75.0665
| 34> H 	 -40.3475 	 26.8633 	 73.6339
| 35> C 	 -39.8415 	 28.488 	 75.019
| 36> H 	 -39.4699 	 28.6809 	 76.0228
| 37> H 	 -40.5844 	 29.2197 	 74.7737
| 38> H 	 -39.0777 	 28.7564 	 74.2561
| 39> H 	 -43.9874 	 24.647 	 78.5706
| 40> H 	 -38.2474 	 22.0775 	 72.7901
| 41> *
| 42>
| 43>                          ****END OF INPUT****

CARTESIAN COORDINATES (ANGSTROEM)
---------------------------------
  S    -42.030900   25.109500   76.889200
  C    -43.212500   24.262900   77.931700
  C    -42.889700   22.881300   78.044700
  C    -41.810000   22.580500   77.160100
  C    -41.379700   23.632400   76.367900
  H    -41.396400   21.549500   77.114000
  C    -43.537100   21.918200   79.050400
  H    -43.876000   21.070900   78.462900
  H    -44.482700   22.354600   79.343600
  C    -42.840600   21.410700   80.312500
  H    -43.415100   20.764200   80.867100
  H    -41.911800   20.814500   80.062300
  C    -42.323700   22.619300   81.080600
  H    -41.699500   22.191500   81.902900
  H    -41.574200   23.192900   80.587700
  H    -43.075500   23.318600   81.515600
  S    -40.205900   22.017500   74.399500
  C    -38.953400   22.654300   73.416600
  C    -38.652200   23.952700   73.807200
  C    -39.465600   24.511300   74.847200
  C    -40.336900   23.568000   75.348400
  H    -37.772900   24.495300   73.383200
  C    -39.262200   25.948600   75.282000
  H    -38.334500   26.318300   74.828700
  H    -39.274800   26.041500   76.412800
  C    -40.291900   27.008000   74.750900
  H    -41.272200   26.797200   75.066500
  H    -40.347500   26.863300   73.633900
  C    -39.841500   28.488000   75.019000
  H    -39.469900   28.680900   76.022800
  H    -40.584400   29.219700   74.773700
  H    -39.077700   28.756400   74.256100
  H    -43.987400   24.647000   78.570600
  H    -38.247400   22.077500   72.790100

 Total Charge           Charge          ....    0
 Multiplicity           Mult            ....    1
 Number of Electrons    NEL             ....  134
 Basis Dimension        Dim             ....  322

ORBITAL ENERGIES
----------------

  NO   OCC          E(Eh)            E(eV)
   0   2.0000     -88.973894     -2421.1027
   1   2.0000     -88.966842     -2420.9108
   2   2.0000     -10.333970      -281.2016
   3   2.0000     -10.330658      -281.1115
   4   2.0000     -10.318167      -280.7716
   5   2.0000     -10.317877      -280.7637
   6   2.0000     -10.307887      -280.4919
   7   2.0000     -10.305320      -280.4220
   8   2.0000     -10.301184      -280.3095
   9   2.0000     -10.296856      -280.1917
  10   2.0000     -10.295781      -280.1624
  11   2.0000     -10.292825      -280.0820
  12   2.0000     -10.288929      -279.9760
  13   2.0000     -10.287091      -279.9260
  14   2.0000     -10.280293      -279.7410
  15   2.0000     -10.275499      -279.6106
  16   2.0000      -8.087928      -220.0837
  17   2.0000      -8.080903      -219.8926
  18   2.0000      -6.046505      -164.5338
  19   2.0000      -6.042560      -164.4264
  20   2.0000      -6.039602      -164.3459
  21   2.0000      -6.038616      -164.3191
  22   2.0000      -6.035473      -164.2336
  23   2.0000      -6.031528      -164.1262
  24   2.0000      -1.007578       -27.4176
  25   2.0000      -0.982647       -26.7392
  26   2.0000      -0.914964       -24.8974
  27   2.0000      -0.903028       -24.5726
  28   2.0000      -0.867032       -23.5932
  29   2.0000      -0.849282       -23.1101
  30   2.0000      -0.846401       -23.0317
  31   2.0000      -0.806067       -21.9342
  32   2.0000      -0.784726       -21.3535
  33   2.0000      -0.775464       -21.1015
  34   2.0000      -0.711917       -19.3722
  35   2.0000      -0.700494       -19.0614
  36   2.0000      -0.692164       -18.8348
  37   2.0000      -0.665901       -18.1201
  38   2.0000      -0.625727       -17.0269
  39   2.0000      -0.616549       -16.7771
  40   2.0000      -0.595209       -16.1965
  41   2.0000      -0.565015       -15.3748
  42   2.0000      -0.564412       -15.3584
  43   2.0000      -0.552212       -15.0264
  44   2.0000      -0.547264       -14.8918
  45   2.0000      -0.520518       -14.1640
  46   2.0000      -0.516869       -14.0647
  47   2.0000      -0.513796       -13.9811
  48   2.0000      -0.504293       -13.7225
  49   2.0000      -0.492331       -13.3970
  50   2.0000      -0.481993       -13.1157
  51   2.0000      -0.479796       -13.0559
  52   2.0000      -0.471765       -12.8374
  53   2.0000      -0.464157       -12.6303
  54   2.0000      -0.459505       -12.5038
  55   2.0000      -0.452705       -12.3187
  56   2.0000      -0.447456       -12.1759
  57   2.0000      -0.434228       -11.8159
  58   2.0000      -0.427706       -11.6385
  59   2.0000      -0.422301       -11.4914
  60   2.0000      -0.420367       -11.4388
  61   2.0000      -0.415603       -11.3091
  62   2.0000      -0.414185       -11.2705
  63   2.0000      -0.355947        -9.6858
  64   2.0000      -0.333031        -9.0622
  65   2.0000      -0.330576        -8.9954
  66   2.0000      -0.283040        -7.7019
  67   0.0000       0.017998         0.4898
  68   0.0000       0.076945         2.0938
  69   0.0000       0.095659         2.6030
  70   0.0000       0.117167         3.1883
  71   0.0000       0.128557         3.4982

MULLIKEN ATOMIC CHARGES
-----------------------
   0 S :    0.105829
   1 C :   -0.093066
   2 C :   -0.121669
   3 C :   -0.025087
   4 C :   -0.103531
   5 H :    0.027508
   6 C :    0.074016
   7 H :    0.025729
   8 H :    0.008721
   9 C :   -0.018083
  10 H :    0.018524
  11 H :    0.030809
  12 C :   -0.075637
  13 H :    0.023856
  14 H :    0.038193
  15 H :    0.037855
  16 S :    0.097661
  17 C :   -0.087044
  18 C :   -0.065155
  19 C :   -0.041216
  20 C :   -0.119121
  21 H :    0.031176
  22 C :    0.021370
  23 H :    0.018716
  24 H :    0.049855
  25 C :   -0.076950
  26 H :    0.025521
  27 H :    0.029775
  28 C :   -0.048585
  29 H :    0.039121
  30 H :    0.029727
  31 H :    0.030845
  32 H :    0.037323
  33 H :    0.073016
Sum of atomic charges:   -0.0000000

LOEWDIN ATOMIC CHARGES
----------------------
   0 S :    0.447319
   1 C :   -0.194470
   2 C :   -0.052777
   3 C :   -0.076995
   4 C :   -0.205946
   5 H :    0.033825
   6 C :   -0.035405
   7 H :    0.030508
   8 H :    0.028437
   9 C :   -0.031696
  10 H :    0.016288
  11 H :    0.032682
  12 C :   -0.071581
  13 H :    0.029082
  14 H :    0.024064
  15 H :    0.026082
  16 S :    0.395748
  17 C :   -0.208070
  18 C :   -0.075776
  19 C :   -0.066462
  20 C :   -0.165635
  21 H :    0.035307
  22 C :   -0.039639
  23 H :    0.032559
  24 H :    0.033215
  25 C :   -0.042679
  26 H :   -0.004774
  27 H :    0.029467
  28 C :   -0.068948
  29 H :    0.024542
  30 H :    0.025926
  31 H :    0.030200
  32 H :    0.024755
  33 H :    0.040844

  Mayer bond orders larger than 0.100000
B(  0-S ,  1-C ) :   1.1326 B(  0-S ,  4-C ) :   1.1583 B(  1-C ,  2-C ) :   1.5898
B(  1-C , 32-H ) :   0.9652 B(  2-C ,  3-C ) :   1.2774 B(  2-C ,  6-C ) :   1.0234
B(  3-C ,  4-C ) :   1.5150 B(  3-C ,  5-H ) :   0.9870 B(  4-C , 20-C ) :   1.0747
B(  6-C ,  7-H ) :   0.9335 B(  6-C ,  8-H ) :   0.9362 B(  6-C ,  9-C ) :   1.0758
B(  9-C , 10-H ) :   0.9540 B(  9-C , 11-H ) :   0.9515 B(  9-C , 12-C ) :   1.0766
B( 12-C , 13-H ) :   0.9721 B( 12-C , 14-H ) :   0.9725 B( 12-C , 15-H ) :   0.9771
B( 16-S , 17-C ) :   1.1504 B( 16-S , 20-C ) :   1.1257 B( 17-C , 18-C ) :   1.6168
B( 17-C , 33-H ) :   0.9570 B( 18-C , 19-C ) :   1.2492 B( 18-C , 21-H ) :   0.9760
B( 19-C , 20-C ) :   1.5822 B( 19-C , 22-C ) :   1.0482 B( 22-C , 23-H ) :   0.9323
B( 22-C , 24-H ) :   0.9347 B( 22-C , 25-C ) :   1.0510 B( 25-C , 26-H ) :   0.9546
B( 25-C , 27-H ) :   0.9534 B( 25-C , 28-C ) :   1.0729 B( 28-C , 29-H ) :   0.9777
B( 28-C , 30-H ) :   0.9736 B( 28-C , 31-H ) :   0.9755

Dispersion correction           -0.014225166
FINAL SINGLE POINT ENERGY     -1339.870471884900

DIPOLE MOMENT
-------------
                                X             Y             Z
Electronic contribution:      0.54828      -8.56602     -13.23880
Nuclear contribution   :     -0.40630       8.58823      13.55379
                        -----------------------------------------
Total Dipole Moment    :      0.14199       0.02221       0.31499
                        -----------------------------------------
Magnitude (a.u.)       :      0.34623
Magnitude (Debye)      :      0.88003

Rotational constants in cm-1:     0.019838     0.008497     0.006467
Rotational constants in MHz :   594.738854   254.732888   193.881771

                             ****ORCA TERMINATED NORMALLY****
TOTAL RUN TIME: 0 days 0 hours 0 minutes 27 seconds 951 msec
