                         Program Version 4.2.1 -  RELEASE  -
|  1> ! wB97X-D3 SP def2-SVP
|  2> %pal
|  3> nprocs 16
|  4> end
|  5>
|  6> * xyz 0 1
|  7> S 	 70.3127 	 24.4104 	 79.5305
|  8> C 	 71.3935 	 23.6006 	 80.5901
|  9> C 	 72.6069 	 24.1882 	 80.4537
| 10> C 	 72.8142 	 24.8594 	 79.1988
| 11> C 	 71.6229 	 24.8937 	 78.4803
| 12> H 	 73.6782 	 25.3185 	 78.8579
| 13> C 	 73.8109 	 23.9351 	 81.352
| 14> H 	 74.2085 	 22.9366 	 81.1161
| 15> H 	 73.5071 	 23.8871 	 82.4118
| 16> C 	 74.8931 	 25.0203 	 81.4099
| 17> H 	 75.8172 	 24.5298 	 81.7916
| 18> H 	 75.1478 	 25.3491 	 80.4381
| 19> C 	 74.5417 	 26.1411 	 82.3248
| 20> H 	 73.5626 	 26.6054 	 82.0931
| 21> H 	 74.5807 	 25.7366 	 83.3545
| 22> H 	 75.2758 	 27.0052 	 82.3898
| 23> S 	 69.8098 	 25.0315 	 76.3296
| 24> C 	 70.3823 	 25.7281 	 74.814
| 25> C 	 71.6484 	 26.1544 	 74.8902
| 26> C 	 72.2648 	 26.0235 	 76.1669
| 27> C 	 71.3511 	 25.3572 	 77.096
| 28> H 	 72.0042 	 26.793 	 74.0649
| 29> C 	 73.6106 	 26.6529 	 76.4392
| 30> H 	 74.0117 	 26.9445 	 75.57
| 31> H 	 74.1408 	 25.787 	 76.8579
| 32> C 	 73.6776 	 27.7187 	 77.4985
| 33> H 	 73.099 	 27.3123 	 78.3828
| 34> H 	 73.2013 	 28.6481 	 77.1595
| 35> C 	 75.1365 	 28.0449 	 77.9497
| 36> H 	 75.9489 	 28.2762 	 77.2125
| 37> H 	 75.5211 	 27.1826 	 78.4103
| 38> H 	 75.1341 	 28.8314 	 78.7127
| 39> H 	 71.1402 	 23.0854 	 81.5165
| 40> H 	 69.7371 	 26.1515 	 74.0226
| 41> *
| 42>
| 43>                          ****END OF INPUT****

CARTESIAN COORDINATES (ANGSTROEM)
---------------------------------
  S     70.312700   24.410400   79.530500
  C     71.393500   23.600600   80.590100
  C     72.606900   24.188200   80.453700
  C     72.814200   24.859400   79.198800
  C     71.622900   24.893700   78.480300
  H     73.678200   25.318500   78.857900
  C     73.810900   23.935100   81.352000
  H     74.208500   22.936600   81.116100
  H     73.507100   23.887100   82.411800
  C     74.893100   25.020300   81.409900
  H     75.817200   24.529800   81.791600
  H     75.147800   25.349100   80.438100
  C     74.541700   26.141100   82.324800
  H     73.562600   26.605400   82.093100
  H     74.580700   25.736600   83.354500
  H     75.275800   27.005200   82.389800
  S     69.809800   25.031500   76.329600
  C     70.382300   25.728100   74.814000
  C     71.648400   26.154400   74.890200
  C     72.264800   26.023500   76.166900
  C     71.351100   25.357200   77.096000
  H     72.004200   26.793000   74.064900
  C     73.610600   26.652900   76.439200
  H     74.011700   26.944500   75.570000
  H     74.140800   25.787000   76.857900
  C     73.677600   27.718700   77.498500
  H     73.099000   27.312300   78.382800
  H     73.201300   28.648100   77.159500
  C     75.136500   28.044900   77.949700
  H     75.948900   28.276200   77.212500
  H     75.521100   27.182600   78.410300
  H     75.134100   28.831400   78.712700
  H     71.140200   23.085400   81.516500
  H     69.737100   26.151500   74.022600

 Total Charge           Charge          ....    0
 Multiplicity           Mult            ....    1
 Number of Electrons    NEL             ....  134
 Basis Dimension        Dim             ....  322

ORBITAL ENERGIES
----------------

  NO   OCC          E(Eh)            E(eV)
   0   2.0000     -88.969909     -2420.9943
   1   2.0000     -88.962686     -2420.7977
   2   2.0000     -10.338091      -281.3138
   3   2.0000     -10.335913      -281.2545
   4   2.0000     -10.314891      -280.6825
   5   2.0000     -10.311658      -280.5945
   6   2.0000     -10.307236      -280.4742
   7   2.0000     -10.299760      -280.2707
   8   2.0000     -10.293405      -280.0978
   9   2.0000     -10.292303      -280.0678
  10   2.0000     -10.291921      -280.0574
  11   2.0000     -10.291810      -280.0544
  12   2.0000     -10.286013      -279.8966
  13   2.0000     -10.285393      -279.8798
  14   2.0000     -10.284155      -279.8461
  15   2.0000     -10.282125      -279.7908
  16   2.0000      -8.083996      -219.9767
  17   2.0000      -8.078365      -219.8235
  18   2.0000      -6.042635      -164.4285
  19   2.0000      -6.038566      -164.3177
  20   2.0000      -6.036919      -164.2729
  21   2.0000      -6.034685      -164.2121
  22   2.0000      -6.033090      -164.1687
  23   2.0000      -6.028664      -164.0483
  24   2.0000      -1.010442       -27.4955
  25   2.0000      -0.988000       -26.8849
  26   2.0000      -0.917775       -24.9739
  27   2.0000      -0.915705       -24.9176
  28   2.0000      -0.873566       -23.7709
  29   2.0000      -0.851494       -23.1703
  30   2.0000      -0.846124       -23.0242
  31   2.0000      -0.821646       -22.3581
  32   2.0000      -0.783976       -21.3331
  33   2.0000      -0.771484       -20.9932
  34   2.0000      -0.715435       -19.4680
  35   2.0000      -0.700494       -19.0614
  36   2.0000      -0.688058       -18.7230
  37   2.0000      -0.659700       -17.9513
  38   2.0000      -0.636739       -17.3266
  39   2.0000      -0.631549       -17.1853
  40   2.0000      -0.594811       -16.1856
  41   2.0000      -0.577403       -15.7119
  42   2.0000      -0.567963       -15.4551
  43   2.0000      -0.559348       -15.2206
  44   2.0000      -0.540460       -14.7067
  45   2.0000      -0.526194       -14.3185
  46   2.0000      -0.512808       -13.9542
  47   2.0000      -0.511990       -13.9320
  48   2.0000      -0.508075       -13.8254
  49   2.0000      -0.501553       -13.6480
  50   2.0000      -0.493752       -13.4357
  51   2.0000      -0.484693       -13.1892
  52   2.0000      -0.470981       -12.8160
  53   2.0000      -0.463309       -12.6073
  54   2.0000      -0.455551       -12.3962
  55   2.0000      -0.451294       -12.2803
  56   2.0000      -0.447920       -12.1885
  57   2.0000      -0.443433       -12.0664
  58   2.0000      -0.435545       -11.8518
  59   2.0000      -0.427514       -11.6332
  60   2.0000      -0.419519       -11.4157
  61   2.0000      -0.418301       -11.3826
  62   2.0000      -0.412990       -11.2380
  63   2.0000      -0.362659        -9.8685
  64   2.0000      -0.334305        -9.0969
  65   2.0000      -0.322783        -8.7834
  66   2.0000      -0.279779        -7.6132
  67   0.0000       0.008699         0.2367
  68   0.0000       0.085703         2.3321
  69   0.0000       0.090835         2.4717
  70   0.0000       0.122796         3.3415
  71   0.0000       0.128600         3.4994

MULLIKEN ATOMIC CHARGES
-----------------------
   0 S :    0.096205
   1 C :   -0.102485
   2 C :   -0.083921
   3 C :    0.030673
   4 C :   -0.100009
   5 H :   -0.049750
   6 C :    0.031905
   7 H :    0.050567
   8 H :    0.012368
   9 C :   -0.049616
  10 H :    0.027332
  11 H :    0.013794
  12 C :   -0.080854
  13 H :    0.047325
  14 H :    0.033092
  15 H :    0.039787
  16 S :    0.111171
  17 C :   -0.095344
  18 C :   -0.046505
  19 C :   -0.076770
  20 C :   -0.136140
  21 H :    0.029980
  22 C :    0.132656
  23 H :   -0.018604
  24 H :    0.028442
  25 C :   -0.093613
  26 H :    0.050390
  27 H :    0.033781
  28 C :   -0.038993
  29 H :    0.037741
  30 H :    0.003689
  31 H :    0.038266
  32 H :    0.052270
  33 H :    0.071171
Sum of atomic charges:    0.0000000

LOEWDIN ATOMIC CHARGES
----------------------
   0 S :    0.405505
   1 C :   -0.209186
   2 C :   -0.061247
   3 C :   -0.068136
   4 C :   -0.170866
   5 H :    0.011308
   6 C :   -0.034341
   7 H :    0.037331
   8 H :    0.028388
   9 C :   -0.044731
  10 H :    0.032735
  11 H :    0.010019
  12 C :   -0.073694
  13 H :    0.029179
  14 H :    0.028093
  15 H :    0.031899
  16 S :    0.404488
  17 C :   -0.192016
  18 C :   -0.079229
  19 C :   -0.043615
  20 C :   -0.203771
  21 H :    0.038817
  22 C :   -0.024900
  23 H :    0.011847
  24 H :    0.036616
  25 C :   -0.039174
  26 H :    0.036030
  27 H :    0.024114
  28 C :   -0.069370
  29 H :    0.031657
  30 H :    0.012419
  31 H :    0.029426
  32 H :    0.033401
  33 H :    0.041003

  Mayer bond orders larger than 0.100000
B(  0-S ,  1-C ) :   1.1170 B(  0-S ,  4-C ) :   1.1613 B(  1-C ,  2-C ) :   1.6225
B(  1-C , 32-H ) :   0.9670 B(  2-C ,  3-C ) :   1.2222 B(  2-C ,  6-C ) :   1.0203
B(  3-C ,  4-C ) :   1.5401 B(  3-C ,  5-H ) :   0.9999 B(  4-C , 20-C ) :   1.0940
B(  6-C ,  7-H ) :   0.9434 B(  6-C ,  8-H ) :   0.9416 B(  6-C ,  9-C ) :   1.0699
B(  9-C , 10-H ) :   0.9472 B(  9-C , 11-H ) :   0.9537 B(  9-C , 12-C ) :   1.0825
B( 12-C , 13-H ) :   0.9758 B( 12-C , 14-H ) :   0.9696 B( 12-C , 15-H ) :   0.9727
B( 16-S , 17-C ) :   1.1385 B( 16-S , 20-C ) :   1.1533 B( 17-C , 18-C ) :   1.6353
B( 17-C , 33-H ) :   0.9522 B( 18-C , 19-C ) :   1.2859 B( 18-C , 21-H ) :   0.9742
B( 19-C , 20-C ) :   1.5093 B( 19-C , 22-C ) :   1.0383 B( 22-C , 23-H ) :   0.9256
B( 22-C , 24-H ) :   0.9199 B( 22-C , 25-C ) :   1.0676 B( 25-C , 26-H ) :   0.9482
B( 25-C , 27-H ) :   0.9552 B( 25-C , 28-C ) :   1.0695 B( 28-C , 29-H ) :   0.9731
B( 28-C , 30-H ) :   0.9723 B( 28-C , 31-H ) :   0.9744

Dispersion correction           -0.015181560
FINAL SINGLE POINT ENERGY     -1339.849299537522

DIPOLE MOMENT
-------------
                                X             Y             Z
Electronic contribution:    -27.64260     -11.82026     -12.53279
Nuclear contribution   :     28.32628      12.24400      12.65054
                        -----------------------------------------
Total Dipole Moment    :      0.68368       0.42374       0.11775
                        -----------------------------------------
Magnitude (a.u.)       :      0.81292
Magnitude (Debye)      :      2.06628

Rotational constants in cm-1:     0.018829     0.010252     0.007039
Rotational constants in MHz :   564.465342   307.345272   211.011647

                             ****ORCA TERMINATED NORMALLY****
TOTAL RUN TIME: 0 days 0 hours 0 minutes 32 seconds 588 msec
