                         Program Version 4.2.1 -  RELEASE  -
|  1> ! wB97X-D3 SP def2-SVP
|  2> %pal
|  3> nprocs 16
|  4> end
|  5>
|  6> * xyz 0 1
|  7> S 	 35.2524 	 3.56383 	 89.0038
|  8> C 	 33.9646 	 3.29315 	 87.8074
|  9> C 	 34.4377 	 3.19847 	 86.485
| 10> C 	 35.8679 	 3.29946 	 86.546
| 11> C 	 36.4748 	 3.43137 	 87.7571
| 12> H 	 36.4925 	 3.2588 	 85.693
| 13> C 	 33.6787 	 2.95694 	 85.1862
| 14> H 	 32.7136 	 2.55688 	 85.4352
| 15> H 	 34.2063 	 2.17793 	 84.6484
| 16> C 	 33.3849 	 4.19886 	 84.3043
| 17> H 	 34.3957 	 4.62978 	 84.1416
| 18> H 	 32.956 	 3.92873 	 83.2813
| 19> C 	 32.4694 	 5.17325 	 84.9498
| 20> H 	 32.4645 	 6.10699 	 84.4159
| 21> H 	 31.4729 	 4.8927 	 85.0141
| 22> H 	 32.7514 	 5.36128 	 85.9717
| 23> S 	 38.5586 	 2.31352 	 89.1423
| 24> C 	 40.2685 	 2.70459 	 88.7378
| 25> C 	 40.2472 	 3.69956 	 87.7377
| 26> C 	 38.9376 	 4.22715 	 87.3982
| 27> C 	 37.945 	 3.42833 	 87.9822
| 28> H 	 41.1549 	 4.05115 	 87.3949
| 29> C 	 38.8221 	 5.31931 	 86.3473
| 30> H 	 38.0092 	 5.08493 	 85.6414
| 31> H 	 39.6373 	 5.40591 	 85.6625
| 32> C 	 38.6086 	 6.71228 	 86.9907
| 33> H 	 39.4386 	 7.06957 	 87.5782
| 34> H 	 37.8687 	 6.70655 	 87.799
| 35> C 	 38.2216 	 7.78477 	 85.9754
| 36> H 	 38.262 	 8.74665 	 86.4221
| 37> H 	 37.2276 	 7.68238 	 85.622
| 38> H 	 38.9239 	 7.78569 	 85.1973
| 39> H 	 32.916 	 3.39612 	 87.8568
| 40> H 	 41.1421 	 2.62147 	 89.3869
| 41> *
| 42>
| 43>                          ****END OF INPUT****

CARTESIAN COORDINATES (ANGSTROEM)
---------------------------------
  S     35.252400    3.563830   89.003800
  C     33.964600    3.293150   87.807400
  C     34.437700    3.198470   86.485000
  C     35.867900    3.299460   86.546000
  C     36.474800    3.431370   87.757100
  H     36.492500    3.258800   85.693000
  C     33.678700    2.956940   85.186200
  H     32.713600    2.556880   85.435200
  H     34.206300    2.177930   84.648400
  C     33.384900    4.198860   84.304300
  H     34.395700    4.629780   84.141600
  H     32.956000    3.928730   83.281300
  C     32.469400    5.173250   84.949800
  H     32.464500    6.106990   84.415900
  H     31.472900    4.892700   85.014100
  H     32.751400    5.361280   85.971700
  S     38.558600    2.313520   89.142300
  C     40.268500    2.704590   88.737800
  C     40.247200    3.699560   87.737700
  C     38.937600    4.227150   87.398200
  C     37.945000    3.428330   87.982200
  H     41.154900    4.051150   87.394900
  C     38.822100    5.319310   86.347300
  H     38.009200    5.084930   85.641400
  H     39.637300    5.405910   85.662500
  C     38.608600    6.712280   86.990700
  H     39.438600    7.069570   87.578200
  H     37.868700    6.706550   87.799000
  C     38.221600    7.784770   85.975400
  H     38.262000    8.746650   86.422100
  H     37.227600    7.682380   85.622000
  H     38.923900    7.785690   85.197300
  H     32.916000    3.396120   87.856800
  H     41.142100    2.621470   89.386900

 Total Charge           Charge          ....    0
 Multiplicity           Mult            ....    1
 Number of Electrons    NEL             ....  134
 Basis Dimension        Dim             ....  322

ORBITAL ENERGIES
----------------

  NO   OCC          E(Eh)            E(eV)
   0   2.0000     -88.972691     -2421.0700
   1   2.0000     -88.967142     -2420.9190
   2   2.0000     -10.333938      -281.2008
   3   2.0000     -10.329912      -281.0912
   4   2.0000     -10.320875      -280.8453
   5   2.0000     -10.318187      -280.7721
   6   2.0000     -10.309260      -280.5292
   7   2.0000     -10.306379      -280.4508
   8   2.0000     -10.296065      -280.1702
   9   2.0000     -10.295240      -280.1477
  10   2.0000     -10.294955      -280.1400
  11   2.0000     -10.294677      -280.1324
  12   2.0000     -10.288927      -279.9759
  13   2.0000     -10.281742      -279.7804
  14   2.0000     -10.266875      -279.3759
  15   2.0000     -10.265079      -279.3270
  16   2.0000      -8.086433      -220.0430
  17   2.0000      -8.081407      -219.9063
  18   2.0000      -6.045174      -164.4976
  19   2.0000      -6.041034      -164.3849
  20   2.0000      -6.040046      -164.3580
  21   2.0000      -6.037038      -164.2762
  22   2.0000      -6.035831      -164.2433
  23   2.0000      -6.032193      -164.1443
  24   2.0000      -1.003669       -27.3112
  25   2.0000      -0.979728       -26.6597
  26   2.0000      -0.916222       -24.9317
  27   2.0000      -0.907193       -24.6860
  28   2.0000      -0.867738       -23.6124
  29   2.0000      -0.852172       -23.1888
  30   2.0000      -0.848414       -23.0865
  31   2.0000      -0.816195       -22.2098
  32   2.0000      -0.788954       -21.4685
  33   2.0000      -0.776054       -21.1175
  34   2.0000      -0.708478       -19.2787
  35   2.0000      -0.700827       -19.0705
  36   2.0000      -0.696195       -18.9444
  37   2.0000      -0.664845       -18.0914
  38   2.0000      -0.639898       -17.4125
  39   2.0000      -0.623167       -16.9572
  40   2.0000      -0.596541       -16.2327
  41   2.0000      -0.573602       -15.6085
  42   2.0000      -0.560773       -15.2594
  43   2.0000      -0.552807       -15.0426
  44   2.0000      -0.546057       -14.8590
  45   2.0000      -0.527434       -14.3522
  46   2.0000      -0.520985       -14.1767
  47   2.0000      -0.514133       -13.9903
  48   2.0000      -0.506081       -13.7712
  49   2.0000      -0.502124       -13.6635
  50   2.0000      -0.487003       -13.2520
  51   2.0000      -0.482389       -13.1265
  52   2.0000      -0.471928       -12.8418
  53   2.0000      -0.466320       -12.6892
  54   2.0000      -0.462509       -12.5855
  55   2.0000      -0.446466       -12.1490
  56   2.0000      -0.443040       -12.0557
  57   2.0000      -0.438877       -11.9425
  58   2.0000      -0.436174       -11.8689
  59   2.0000      -0.426796       -11.6137
  60   2.0000      -0.421005       -11.4561
  61   2.0000      -0.417125       -11.3505
  62   2.0000      -0.411748       -11.2042
  63   2.0000      -0.342590        -9.3224
  64   2.0000      -0.332698        -9.0532
  65   2.0000      -0.329338        -8.9617
  66   2.0000      -0.297400        -8.0927
  67   0.0000       0.026651         0.7252
  68   0.0000       0.064869         1.7652
  69   0.0000       0.110127         2.9967
  70   0.0000       0.115487         3.1425
  71   0.0000       0.124083         3.3765

MULLIKEN ATOMIC CHARGES
-----------------------
   0 S :    0.123663
   1 C :   -0.079981
   2 C :   -0.131165
   3 C :    0.037438
   4 C :   -0.136590
   5 H :   -0.008626
   6 C :    0.086913
   7 H :    0.007641
   8 H :    0.037689
   9 C :   -0.080296
  10 H :    0.027594
  11 H :    0.043276
  12 C :   -0.014107
  13 H :    0.030077
  14 H :    0.010068
  15 H :    0.022294
  16 S :    0.104923
  17 C :   -0.104115
  18 C :   -0.025190
  19 C :   -0.018052
  20 C :   -0.162757
  21 H :   -0.004915
  22 C :    0.086082
  23 H :    0.015398
  24 H :    0.013720
  25 C :   -0.094465
  26 H :    0.016926
  27 H :    0.025292
  28 C :    0.012880
  29 H :    0.017369
  30 H :    0.027095
  31 H :    0.010882
  32 H :    0.026800
  33 H :    0.076235
Sum of atomic charges:   -0.0000000

LOEWDIN ATOMIC CHARGES
----------------------
   0 S :    0.399589
   1 C :   -0.184808
   2 C :   -0.057880
   3 C :   -0.055951
   4 C :   -0.200070
   5 H :    0.020135
   6 C :   -0.028580
   7 H :    0.025108
   8 H :    0.034990
   9 C :   -0.041099
  10 H :    0.024212
  11 H :    0.032885
  12 C :   -0.063995
  13 H :    0.029444
  14 H :    0.016082
  15 H :    0.024580
  16 S :    0.405272
  17 C :   -0.195105
  18 C :   -0.049123
  19 C :   -0.055931
  20 C :   -0.197786
  21 H :    0.015412
  22 C :   -0.029088
  23 H :    0.031061
  24 H :    0.026832
  25 C :   -0.039516
  26 H :    0.021380
  27 H :    0.024762
  28 C :   -0.053357
  29 H :    0.024301
  30 H :    0.021829
  31 H :    0.015751
  32 H :    0.020315
  33 H :    0.038347

  Mayer bond orders larger than 0.100000
B(  0-S ,  1-C ) :   1.1392 B(  0-S ,  4-C ) :   1.1240 B(  1-C ,  2-C ) :   1.6180
B(  1-C , 32-H ) :   0.9594 B(  2-C ,  3-C ) :   1.2373 B(  2-C ,  6-C ) :   1.0219
B(  3-C ,  4-C ) :   1.6091 B(  3-C ,  5-H ) :   0.9927 B(  4-C , 20-C ) :   1.0174
B(  6-C ,  7-H ) :   0.9366 B(  6-C ,  8-H ) :   0.9429 B(  6-C ,  9-C ) :   1.0618
B(  9-C , 10-H ) :   0.9576 B(  9-C , 11-H ) :   0.9540 B(  9-C , 12-C ) :   1.0847
B( 12-C , 13-H ) :   0.9680 B( 12-C , 14-H ) :   0.9704 B( 12-C , 15-H ) :   0.9712
B( 16-S , 17-C ) :   1.1322 B( 16-S , 20-C ) :   1.1671 B( 17-C , 18-C ) :   1.6094
B( 17-C , 20-C ) :   0.1043 B( 17-C , 33-H ) :   0.9614 B( 18-C , 19-C ) :   1.2547
B( 18-C , 21-H ) :   0.9910 B( 19-C , 20-C ) :   1.5627 B( 19-C , 22-C ) :   1.0414
B( 22-C , 23-H ) :   0.9387 B( 22-C , 24-H ) :   0.9375 B( 22-C , 25-C ) :   1.0441
B( 25-C , 26-H ) :   0.9545 B( 25-C , 27-H ) :   0.9590 B( 25-C , 28-C ) :   1.0903
B( 28-C , 29-H ) :   0.9702 B( 28-C , 30-H ) :   0.9752 B( 28-C , 31-H ) :   0.9717

Dispersion correction           -0.014283142
FINAL SINGLE POINT ENERGY     -1339.862255560183

DIPOLE MOMENT
-------------
                                X             Y             Z
Electronic contribution:      7.93256     -18.32561      21.76181
Nuclear contribution   :     -7.97375      18.80992     -22.38689
                        -----------------------------------------
Total Dipole Moment    :     -0.04119       0.48431      -0.62508
                        -----------------------------------------
Magnitude (a.u.)       :      0.79182
Magnitude (Debye)      :      2.01265

Rotational constants in cm-1:     0.017934     0.009016     0.006926
Rotational constants in MHz :   537.651208   270.299007   207.649848

                             ****ORCA TERMINATED NORMALLY****
TOTAL RUN TIME: 0 days 0 hours 0 minutes 30 seconds 304 msec
