                         Program Version 4.2.1 -  RELEASE  -
|  1> ! wB97X-D3 SP def2-SVP
|  2> %pal
|  3> nprocs 16
|  4> end
|  5>
|  6> * xyz 0 1
|  7> S 	 43.3033 	 12.7984 	 88.6134
|  8> C 	 44.505 	 12.1526 	 87.5204
|  9> C 	 44.0247 	 11.9565 	 86.2356
| 10> C 	 42.7397 	 12.6037 	 86.0792
| 11> C 	 42.1194 	 12.8897 	 87.2965
| 12> H 	 42.123 	 12.5554 	 85.18
| 13> C 	 44.6803 	 11.1894 	 85.1231
| 14> H 	 44.7127 	 10.1897 	 85.4197
| 15> H 	 45.6534 	 11.5501 	 84.9854
| 16> C 	 43.9104 	 11.2415 	 83.7741
| 17> H 	 42.9535 	 10.8564 	 83.942
| 18> H 	 43.9105 	 12.2209 	 83.341
| 19> C 	 44.5699 	 10.2477 	 82.7814
| 20> H 	 45.5678 	 10.4802 	 82.4904
| 21> H 	 44.5237 	 9.23083 	 83.1985
| 22> H 	 43.9449 	 10.134 	 81.9178
| 23> S 	 40.531 	 14.8384 	 88.3023
| 24> C 	 38.7996 	 14.8586 	 87.9516
| 25> C 	 38.4405 	 13.6805 	 87.2822
| 26> C 	 39.5055 	 12.7571 	 87
| 27> C 	 40.6958 	 13.2281 	 87.5685
| 28> H 	 37.4214 	 13.5935 	 86.9508
| 29> C 	 39.1329 	 11.636 	 86.0163
| 30> H 	 40.0786 	 11.0696 	 85.9299
| 31> H 	 38.8729 	 12.1646 	 85.0865
| 32> C 	 37.9812 	 10.7138 	 86.5229
| 33> H 	 37.1406 	 11.3824 	 86.7227
| 34> H 	 38.1826 	 10.2521 	 87.4874
| 35> C 	 37.779 	 9.49487 	 85.595
| 36> H 	 37.387 	 9.7545 	 84.5604
| 37> H 	 37.0488 	 8.81966 	 86.0663
| 38> H 	 38.6841 	 9.0152 	 85.215
| 39> H 	 45.4616 	 11.7568 	 87.7341
| 40> H 	 38.1024 	 15.718 	 88.1022
| 41> *
| 42>
| 43>                          ****END OF INPUT****

CARTESIAN COORDINATES (ANGSTROEM)
---------------------------------
  S     43.303300   12.798400   88.613400
  C     44.505000   12.152600   87.520400
  C     44.024700   11.956500   86.235600
  C     42.739700   12.603700   86.079200
  C     42.119400   12.889700   87.296500
  H     42.123000   12.555400   85.180000
  C     44.680300   11.189400   85.123100
  H     44.712700   10.189700   85.419700
  H     45.653400   11.550100   84.985400
  C     43.910400   11.241500   83.774100
  H     42.953500   10.856400   83.942000
  H     43.910500   12.220900   83.341000
  C     44.569900   10.247700   82.781400
  H     45.567800   10.480200   82.490400
  H     44.523700    9.230830   83.198500
  H     43.944900   10.134000   81.917800
  S     40.531000   14.838400   88.302300
  C     38.799600   14.858600   87.951600
  C     38.440500   13.680500   87.282200
  C     39.505500   12.757100   87.000000
  C     40.695800   13.228100   87.568500
  H     37.421400   13.593500   86.950800
  C     39.132900   11.636000   86.016300
  H     40.078600   11.069600   85.929900
  H     38.872900   12.164600   85.086500
  C     37.981200   10.713800   86.522900
  H     37.140600   11.382400   86.722700
  H     38.182600   10.252100   87.487400
  C     37.779000    9.494870   85.595000
  H     37.387000    9.754500   84.560400
  H     37.048800    8.819660   86.066300
  H     38.684100    9.015200   85.215000
  H     45.461600   11.756800   87.734100
  H     38.102400   15.718000   88.102200

 Total Charge           Charge          ....    0
 Multiplicity           Mult            ....    1
 Number of Electrons    NEL             ....  134
 Basis Dimension        Dim             ....  322

ORBITAL ENERGIES
----------------

  NO   OCC          E(Eh)            E(eV)
   0   2.0000     -88.965851     -2420.8839
   1   2.0000     -88.965000     -2420.8607
   2   2.0000     -10.333270      -281.1826
   3   2.0000     -10.332018      -281.1485
   4   2.0000     -10.324686      -280.9490
   5   2.0000     -10.310717      -280.5689
   6   2.0000     -10.305608      -280.4298
   7   2.0000     -10.303150      -280.3630
   8   2.0000     -10.298297      -280.2309
   9   2.0000     -10.294842      -280.1369
  10   2.0000     -10.294134      -280.1176
  11   2.0000     -10.292982      -280.0863
  12   2.0000     -10.288476      -279.9637
  13   2.0000     -10.285099      -279.8718
  14   2.0000     -10.283840      -279.8375
  15   2.0000     -10.276486      -279.6374
  16   2.0000      -8.079910      -219.8655
  17   2.0000      -8.079125      -219.8442
  18   2.0000      -6.038537      -164.3169
  19   2.0000      -6.037742      -164.2953
  20   2.0000      -6.034516      -164.2075
  21   2.0000      -6.033720      -164.1859
  22   2.0000      -6.030549      -164.0996
  23   2.0000      -6.029821      -164.0798
  24   2.0000      -0.998345       -27.1664
  25   2.0000      -0.977215       -26.5914
  26   2.0000      -0.915101       -24.9012
  27   2.0000      -0.906894       -24.6779
  28   2.0000      -0.864276       -23.5182
  29   2.0000      -0.850214       -23.1355
  30   2.0000      -0.842892       -22.9363
  31   2.0000      -0.810813       -22.0633
  32   2.0000      -0.781193       -21.2573
  33   2.0000      -0.772212       -21.0130
  34   2.0000      -0.715795       -19.4778
  35   2.0000      -0.705724       -19.2037
  36   2.0000      -0.687990       -18.7212
  37   2.0000      -0.658987       -17.9319
  38   2.0000      -0.636133       -17.3101
  39   2.0000      -0.615159       -16.7393
  40   2.0000      -0.590340       -16.0640
  41   2.0000      -0.586975       -15.9724
  42   2.0000      -0.563754       -15.3405
  43   2.0000      -0.560548       -15.2533
  44   2.0000      -0.535581       -14.5739
  45   2.0000      -0.523081       -14.2338
  46   2.0000      -0.515594       -14.0300
  47   2.0000      -0.506645       -13.7865
  48   2.0000      -0.499613       -13.5952
  49   2.0000      -0.497080       -13.5262
  50   2.0000      -0.492054       -13.3895
  51   2.0000      -0.481558       -13.1038
  52   2.0000      -0.471909       -12.8413
  53   2.0000      -0.465301       -12.6615
  54   2.0000      -0.453960       -12.3529
  55   2.0000      -0.451834       -12.2950
  56   2.0000      -0.444656       -12.0997
  57   2.0000      -0.443132       -12.0582
  58   2.0000      -0.436319       -11.8728
  59   2.0000      -0.426584       -11.6080
  60   2.0000      -0.421460       -11.4685
  61   2.0000      -0.417668       -11.3653
  62   2.0000      -0.412938       -11.2366
  63   2.0000      -0.341496        -9.2926
  64   2.0000      -0.328467        -8.9380
  65   2.0000      -0.327100        -8.9008
  66   2.0000      -0.290316        -7.8999
  67   0.0000       0.031009         0.8438
  68   0.0000       0.064449         1.7537
  69   0.0000       0.105904         2.8818
  70   0.0000       0.114715         3.1215
  71   0.0000       0.136081         3.7029

MULLIKEN ATOMIC CHARGES
-----------------------
   0 S :    0.112144
   1 C :   -0.084045
   2 C :   -0.149610
   3 C :    0.034255
   4 C :   -0.165525
   5 H :    0.018104
   6 C :    0.118089
   7 H :    0.019436
   8 H :    0.020879
   9 C :   -0.093830
  10 H :    0.021590
  11 H :    0.041807
  12 C :   -0.022859
  13 H :    0.030889
  14 H :    0.020640
  15 H :    0.021910
  16 S :    0.098909
  17 C :   -0.105631
  18 C :   -0.066760
  19 C :   -0.026672
  20 C :   -0.140481
  21 H :    0.021890
  22 C :    0.050532
  23 H :    0.030626
  24 H :    0.054234
  25 C :   -0.073461
  26 H :    0.031522
  27 H :    0.037178
  28 C :   -0.055207
  29 H :    0.020656
  30 H :    0.049428
  31 H :    0.032282
  32 H :    0.020424
  33 H :    0.076660
Sum of atomic charges:   -0.0000000

LOEWDIN ATOMIC CHARGES
----------------------
   0 S :    0.395303
   1 C :   -0.203231
   2 C :   -0.057122
   3 C :   -0.070930
   4 C :   -0.188199
   5 H :    0.030028
   6 C :   -0.020822
   7 H :    0.028190
   8 H :    0.026449
   9 C :   -0.027616
  10 H :    0.016843
  11 H :    0.023949
  12 C :   -0.058590
  13 H :    0.019298
  14 H :    0.026104
  15 H :    0.022926
  16 S :    0.394909
  17 C :   -0.187656
  18 C :   -0.075969
  19 C :   -0.051052
  20 C :   -0.196245
  21 H :    0.025749
  22 C :   -0.028317
  23 H :    0.030265
  24 H :    0.039108
  25 C :   -0.039606
  26 H :    0.023748
  27 H :    0.030578
  28 C :   -0.075734
  29 H :    0.027211
  30 H :    0.030944
  31 H :    0.028591
  32 H :    0.019857
  33 H :    0.041041

  Mayer bond orders larger than 0.100000
B(  0-S ,  1-C ) :   1.1248 B(  0-S ,  4-C ) :   1.1488 B(  1-C ,  2-C ) :   1.6501
B(  1-C , 32-H ) :   0.9711 B(  2-C ,  3-C ) :   1.2387 B(  2-C ,  6-C ) :   1.0042
B(  3-C ,  4-C ) :   1.5800 B(  3-C ,  5-H ) :   0.9770 B(  4-C , 20-C ) :   0.9947
B(  6-C ,  7-H ) :   0.9308 B(  6-C ,  8-H ) :   0.9308 B(  6-C ,  9-C ) :   1.1053
B(  9-C , 10-H ) :   0.9455 B(  9-C , 11-H ) :   0.9525 B(  9-C , 12-C ) :   1.0925
B( 12-C , 13-H ) :   0.9766 B( 12-C , 14-H ) :   0.9728 B( 12-C , 15-H ) :   0.9721
B( 16-S , 17-C ) :   1.1489 B( 16-S , 20-C ) :   1.1440 B( 17-C , 18-C ) :   1.6260
B( 17-C , 33-H ) :   0.9618 B( 18-C , 19-C ) :   1.2181 B( 18-C , 21-H ) :   0.9844
B( 19-C , 20-C ) :   1.6159 B( 19-C , 22-C ) :   1.0276 B( 22-C , 23-H ) :   0.9343
B( 22-C , 24-H ) :   0.9404 B( 22-C , 25-C ) :   1.0569 B( 25-C , 26-H ) :   0.9566
B( 25-C , 27-H ) :   0.9565 B( 25-C , 28-C ) :   1.0743 B( 28-C , 29-H ) :   0.9715
B( 28-C , 30-H ) :   0.9768 B( 28-C , 31-H ) :   0.9717

Dispersion correction           -0.013386347
FINAL SINGLE POINT ENERGY     -1339.858287246672

DIPOLE MOMENT
-------------
                                X             Y             Z
Electronic contribution:      4.36473      21.27116      24.06203
Nuclear contribution   :     -4.66642     -21.74525     -24.84955
                        -----------------------------------------
Total Dipole Moment    :     -0.30169      -0.47409      -0.78752
                        -----------------------------------------
Magnitude (a.u.)       :      0.96745
Magnitude (Debye)      :      2.45906

Rotational constants in cm-1:     0.014977     0.009257     0.006452
Rotational constants in MHz :   448.993267   277.519123   193.411989

                             ****ORCA TERMINATED NORMALLY****
TOTAL RUN TIME: 0 days 0 hours 0 minutes 29 seconds 256 msec
