                         Program Version 4.2.1 -  RELEASE  -
|  1> ! wB97X-D3 SP def2-SVP
|  2> %pal
|  3> nprocs 16
|  4> end
|  5>
|  6> * xyz 0 1
|  7> S 	 -4.36046 	 -6.84959 	 83.6949
|  8> C 	 -3.17104 	 -8.10456 	 83.3867
|  9> C 	 -3.53393 	 -9.24989 	 84.0131
| 10> C 	 -4.84241 	 -9.14892 	 84.6193
| 11> C 	 -5.33392 	 -7.86762 	 84.6279
| 12> H 	 -5.10923 	 -10.0299 	 85.2327
| 13> C 	 -2.79861 	 -10.6247 	 83.9047
| 14> H 	 -2.8438 	 -11.1657 	 84.8128
| 15> H 	 -1.81742 	 -10.4304 	 83.7354
| 16> C 	 -3.41491 	 -11.5779 	 82.8221
| 17> H 	 -4.29071 	 -12.0667 	 83.0773
| 18> H 	 -3.63683 	 -10.91 	 82.0052
| 19> C 	 -2.43319 	 -12.603 	 82.3567
| 20> H 	 -2.41825 	 -13.4043 	 83.1833
| 21> H 	 -2.64886 	 -13.1167 	 81.4637
| 22> H 	 -1.41294 	 -12.2571 	 82.1634
| 23> S 	 -7.86238 	 -6.76128 	 84.3745
| 24> C 	 -8.66378 	 -6.29301 	 85.8805
| 25> C 	 -7.90579 	 -6.62911 	 87.0132
| 26> C 	 -6.63083 	 -7.15653 	 86.7154
| 27> C 	 -6.43389 	 -7.27175 	 85.3109
| 28> H 	 -8.33534 	 -6.47869 	 87.9822
| 29> C 	 -5.58686 	 -7.13676 	 87.8534
| 30> H 	 -6.0038 	 -6.73487 	 88.809
| 31> H 	 -4.83237 	 -6.35963 	 87.6698
| 32> C 	 -4.70713 	 -8.44602 	 87.9973
| 33> H 	 -4.20517 	 -8.60757 	 87.0881
| 34> H 	 -5.38104 	 -9.21415 	 88.0899
| 35> C 	 -3.69849 	 -8.50174 	 89.0655
| 36> H 	 -2.93432 	 -7.67184 	 88.9649
| 37> H 	 -3.16318 	 -9.41947 	 88.9598
| 38> H 	 -4.07645 	 -8.5513 	 90.1132
| 39> H 	 -2.27948 	 -7.92579 	 82.8868
| 40> H 	 -9.59702 	 -5.83294 	 85.9631
| 41> *
| 42>
| 43>                          ****END OF INPUT****

CARTESIAN COORDINATES (ANGSTROEM)
---------------------------------
  S     -4.360460   -6.849590   83.694900
  C     -3.171040   -8.104560   83.386700
  C     -3.533930   -9.249890   84.013100
  C     -4.842410   -9.148920   84.619300
  C     -5.333920   -7.867620   84.627900
  H     -5.109230  -10.029900   85.232700
  C     -2.798610  -10.624700   83.904700
  H     -2.843800  -11.165700   84.812800
  H     -1.817420  -10.430400   83.735400
  C     -3.414910  -11.577900   82.822100
  H     -4.290710  -12.066700   83.077300
  H     -3.636830  -10.910000   82.005200
  C     -2.433190  -12.603000   82.356700
  H     -2.418250  -13.404300   83.183300
  H     -2.648860  -13.116700   81.463700
  H     -1.412940  -12.257100   82.163400
  S     -7.862380   -6.761280   84.374500
  C     -8.663780   -6.293010   85.880500
  C     -7.905790   -6.629110   87.013200
  C     -6.630830   -7.156530   86.715400
  C     -6.433890   -7.271750   85.310900
  H     -8.335340   -6.478690   87.982200
  C     -5.586860   -7.136760   87.853400
  H     -6.003800   -6.734870   88.809000
  H     -4.832370   -6.359630   87.669800
  C     -4.707130   -8.446020   87.997300
  H     -4.205170   -8.607570   87.088100
  H     -5.381040   -9.214150   88.089900
  C     -3.698490   -8.501740   89.065500
  H     -2.934320   -7.671840   88.964900
  H     -3.163180   -9.419470   88.959800
  H     -4.076450   -8.551300   90.113200
  H     -2.279480   -7.925790   82.886800
  H     -9.597020   -5.832940   85.963100

 Total Charge           Charge          ....    0
 Multiplicity           Mult            ....    1
 Number of Electrons    NEL             ....  134
 Basis Dimension        Dim             ....  322

ORBITAL ENERGIES
----------------

  NO   OCC          E(Eh)            E(eV)
   0   2.0000     -88.971033     -2421.0249
   1   2.0000     -88.960984     -2420.7514
   2   2.0000     -10.328618      -281.0560
   3   2.0000     -10.323373      -280.9133
   4   2.0000     -10.316435      -280.7245
   5   2.0000     -10.308673      -280.5132
   6   2.0000     -10.307511      -280.4816
   7   2.0000     -10.299372      -280.2602
   8   2.0000     -10.297354      -280.2052
   9   2.0000     -10.293747      -280.1071
  10   2.0000     -10.292353      -280.0692
  11   2.0000     -10.286854      -279.9195
  12   2.0000     -10.278604      -279.6950
  13   2.0000     -10.277813      -279.6735
  14   2.0000     -10.276139      -279.6280
  15   2.0000     -10.268833      -279.4291
  16   2.0000      -8.084616      -219.9936
  17   2.0000      -8.077340      -219.7956
  18   2.0000      -6.043072      -164.4404
  19   2.0000      -6.039288      -164.3374
  20   2.0000      -6.035735      -164.2407
  21   2.0000      -6.035512      -164.2346
  22   2.0000      -6.031496      -164.1254
  23   2.0000      -6.028223      -164.0363
  24   2.0000      -1.011210       -27.5164
  25   2.0000      -0.980008       -26.6674
  26   2.0000      -0.913938       -24.8695
  27   2.0000      -0.904802       -24.6209
  28   2.0000      -0.874204       -23.7883
  29   2.0000      -0.855334       -23.2748
  30   2.0000      -0.845291       -23.0015
  31   2.0000      -0.812700       -22.1147
  32   2.0000      -0.785974       -21.3875
  33   2.0000      -0.772028       -21.0079
  34   2.0000      -0.712308       -19.3829
  35   2.0000      -0.704681       -19.1753
  36   2.0000      -0.692042       -18.8314
  37   2.0000      -0.660430       -17.9712
  38   2.0000      -0.646108       -17.5815
  39   2.0000      -0.625075       -17.0092
  40   2.0000      -0.596266       -16.2252
  41   2.0000      -0.575913       -15.6714
  42   2.0000      -0.564159       -15.3516
  43   2.0000      -0.561789       -15.2870
  44   2.0000      -0.527575       -14.3561
  45   2.0000      -0.521763       -14.1979
  46   2.0000      -0.515779       -14.0351
  47   2.0000      -0.514989       -14.0136
  48   2.0000      -0.507722       -13.8158
  49   2.0000      -0.504899       -13.7390
  50   2.0000      -0.494603       -13.4588
  51   2.0000      -0.477623       -12.9968
  52   2.0000      -0.468088       -12.7373
  53   2.0000      -0.462162       -12.5761
  54   2.0000      -0.460401       -12.5281
  55   2.0000      -0.450053       -12.2466
  56   2.0000      -0.447629       -12.1806
  57   2.0000      -0.442969       -12.0538
  58   2.0000      -0.432340       -11.7646
  59   2.0000      -0.421122       -11.4593
  60   2.0000      -0.417511       -11.3611
  61   2.0000      -0.415233       -11.2991
  62   2.0000      -0.411113       -11.1869
  63   2.0000      -0.336192        -9.1482
  64   2.0000      -0.333073        -9.0634
  65   2.0000      -0.325724        -8.8634
  66   2.0000      -0.299676        -8.1546
  67   0.0000       0.032899         0.8952
  68   0.0000       0.059757         1.6261
  69   0.0000       0.112685         3.0663
  70   0.0000       0.120714         3.2848
  71   0.0000       0.126951         3.4545

MULLIKEN ATOMIC CHARGES
-----------------------
   0 S :    0.109082
   1 C :   -0.098250
   2 C :   -0.141172
   3 C :    0.048585
   4 C :   -0.159251
   5 H :    0.022892
   6 C :    0.126614
   7 H :    0.009698
   8 H :   -0.011238
   9 C :   -0.030763
  10 H :    0.019422
  11 H :    0.024338
  12 C :   -0.062479
  13 H :    0.029801
  14 H :    0.024145
  15 H :    0.026446
  16 S :    0.123440
  17 C :   -0.077124
  18 C :   -0.045621
  19 C :    0.035505
  20 C :   -0.168924
  21 H :    0.015242
  22 C :    0.026420
  23 H :    0.023368
  24 H :    0.033700
  25 C :   -0.050448
  26 H :    0.035983
  27 H :    0.003686
  28 C :   -0.036615
  29 H :    0.033688
  30 H :    0.020846
  31 H :    0.031201
  32 H :    0.021401
  33 H :    0.036380
Sum of atomic charges:   -0.0000000

LOEWDIN ATOMIC CHARGES
----------------------
   0 S :    0.430748
   1 C :   -0.185861
   2 C :   -0.061277
   3 C :   -0.065759
   4 C :   -0.217045
   5 H :    0.035436
   6 C :   -0.010268
   7 H :    0.023343
   8 H :    0.013736
   9 C :   -0.031410
  10 H :    0.016969
  11 H :    0.022996
  12 C :   -0.066944
  13 H :    0.031398
  14 H :    0.019396
  15 H :    0.023648
  16 S :    0.399815
  17 C :   -0.173324
  18 C :   -0.064743
  19 C :   -0.046907
  20 C :   -0.201173
  21 H :    0.029241
  22 C :   -0.029439
  23 H :    0.031242
  24 H :    0.034843
  25 C :   -0.038849
  26 H :    0.023550
  27 H :    0.010829
  28 C :   -0.066202
  29 H :    0.029879
  30 H :    0.025197
  31 H :    0.025841
  32 H :    0.014051
  33 H :    0.017043

  Mayer bond orders larger than 0.100000
B(  0-S ,  1-C ) :   1.1335 B(  0-S ,  4-C ) :   1.1808 B(  1-C ,  2-C ) :   1.6203
B(  1-C , 32-H ) :   0.9812 B(  2-C ,  3-C ) :   1.2359 B(  2-C ,  6-C ) :   1.0411
B(  3-C ,  4-C ) :   1.5619 B(  3-C ,  5-H ) :   0.9946 B(  4-C , 20-C ) :   1.0138
B(  6-C ,  7-H ) :   0.9344 B(  6-C ,  8-H ) :   0.9393 B(  6-C ,  9-C ) :   1.0510
B(  9-C , 10-H ) :   0.9555 B(  9-C , 11-H ) :   0.9583 B(  9-C , 12-C ) :   1.0913
B( 12-C , 13-H ) :   0.9745 B( 12-C , 14-H ) :   0.9727 B( 12-C , 15-H ) :   0.9751
B( 16-S , 17-C ) :   1.1544 B( 16-S , 20-C ) :   1.1487 B( 17-C , 18-C ) :   1.6001
B( 17-C , 20-C ) :   0.1162 B( 17-C , 33-H ) :   0.9737 B( 18-C , 19-C ) :   1.2556
B( 18-C , 21-H ) :   0.9896 B( 19-C , 20-C ) :   1.5670 B( 19-C , 22-C ) :   1.0318
B( 22-C , 23-H ) :   0.9507 B( 22-C , 24-H ) :   0.9383 B( 22-C , 25-C ) :   1.0401
B( 25-C , 26-H ) :   0.9467 B( 25-C , 27-H ) :   0.9563 B( 25-C , 28-C ) :   1.1073
B( 28-C , 29-H ) :   0.9692 B( 28-C , 30-H ) :   0.9666 B( 28-C , 31-H ) :   0.9715

Dispersion correction           -0.014472083
FINAL SINGLE POINT ENERGY     -1339.850173481149

DIPOLE MOMENT
-------------
                                X             Y             Z
Electronic contribution:    -16.95784      20.66713     -10.00569
Nuclear contribution   :     17.23990     -21.05096      10.34193
                        -----------------------------------------
Total Dipole Moment    :      0.28206      -0.38383       0.33624
                        -----------------------------------------
Magnitude (a.u.)       :      0.58304
Magnitude (Debye)      :      1.48198

Rotational constants in cm-1:     0.018773     0.008409     0.006851
Rotational constants in MHz :   562.803776   252.104463   205.387061

                             ****ORCA TERMINATED NORMALLY****
TOTAL RUN TIME: 0 days 0 hours 0 minutes 35 seconds 215 msec
