                         Program Version 4.2.1 -  RELEASE  -
|  1> ! wB97X-D3 SP def2-SVP
|  2> %pal
|  3> nprocs 16
|  4> end
|  5>
|  6> * xyz 0 1
|  7> S 	 11.9834 	 -8.35972 	 64.3684
|  8> C 	 10.3898 	 -7.94362 	 64.8352
|  9> C 	 9.96209 	 -8.82253 	 65.8162
| 10> C 	 10.9693 	 -9.81103 	 66.2333
| 11> C 	 12.1776 	 -9.60418 	 65.5465
| 12> H 	 10.8991 	 -10.4811 	 67.1027
| 13> C 	 8.68958 	 -8.49449 	 66.6154
| 14> H 	 8.12647 	 -9.45686 	 66.6962
| 15> H 	 8.03219 	 -7.80006 	 66.0658
| 16> C 	 8.85643 	 -7.87139 	 68.0036
| 17> H 	 9.40359 	 -8.62533 	 68.5936
| 18> H 	 9.39892 	 -6.98509 	 67.9311
| 19> C 	 7.56303 	 -7.58319 	 68.7346
| 20> H 	 7.63985 	 -7.04368 	 69.6303
| 21> H 	 7.02261 	 -7.05881 	 67.9175
| 22> H 	 7.07354 	 -8.56128 	 68.8957
| 23> S 	 14.8476 	 -9.24521 	 65.7246
| 24> C 	 15.8618 	 -10.6014 	 66.0046
| 25> C 	 15.1828 	 -11.8055 	 66.106
| 26> C 	 13.8015 	 -11.5939 	 66.1399
| 27> C 	 13.4333 	 -10.2399 	 65.8247
| 28> H 	 15.655 	 -12.7167 	 66.1568
| 29> C 	 12.9183 	 -12.7857 	 66.3519
| 30> H 	 11.9382 	 -12.4478 	 66.8067
| 31> H 	 13.3436 	 -13.4868 	 67.0921
| 32> C 	 12.5476 	 -13.5147 	 65.0687
| 33> H 	 13.505 	 -13.6314 	 64.5233
| 34> H 	 12.048 	 -12.7315 	 64.4588
| 35> C 	 11.7006 	 -14.7551 	 65.3441
| 36> H 	 12.3425 	 -15.5256 	 65.841
| 37> H 	 11.4381 	 -15.0881 	 64.3725
| 38> H 	 10.8202 	 -14.4924 	 65.968
| 39> H 	 9.87827 	 -7.03523 	 64.4926
| 40> H 	 16.9715 	 -10.4847 	 66.0002
| 41> *
| 42>
| 43>                          ****END OF INPUT****

CARTESIAN COORDINATES (ANGSTROEM)
---------------------------------
  S     11.983400   -8.359720   64.368400
  C     10.389800   -7.943620   64.835200
  C      9.962090   -8.822530   65.816200
  C     10.969300   -9.811030   66.233300
  C     12.177600   -9.604180   65.546500
  H     10.899100  -10.481100   67.102700
  C      8.689580   -8.494490   66.615400
  H      8.126470   -9.456860   66.696200
  H      8.032190   -7.800060   66.065800
  C      8.856430   -7.871390   68.003600
  H      9.403590   -8.625330   68.593600
  H      9.398920   -6.985090   67.931100
  C      7.563030   -7.583190   68.734600
  H      7.639850   -7.043680   69.630300
  H      7.022610   -7.058810   67.917500
  H      7.073540   -8.561280   68.895700
  S     14.847600   -9.245210   65.724600
  C     15.861800  -10.601400   66.004600
  C     15.182800  -11.805500   66.106000
  C     13.801500  -11.593900   66.139900
  C     13.433300  -10.239900   65.824700
  H     15.655000  -12.716700   66.156800
  C     12.918300  -12.785700   66.351900
  H     11.938200  -12.447800   66.806700
  H     13.343600  -13.486800   67.092100
  C     12.547600  -13.514700   65.068700
  H     13.505000  -13.631400   64.523300
  H     12.048000  -12.731500   64.458800
  C     11.700600  -14.755100   65.344100
  H     12.342500  -15.525600   65.841000
  H     11.438100  -15.088100   64.372500
  H     10.820200  -14.492400   65.968000
  H      9.878270   -7.035230   64.492600
  H     16.971500  -10.484700   66.000200

 Total Charge           Charge          ....    0
 Multiplicity           Mult            ....    1
 Number of Electrons    NEL             ....  134
 Basis Dimension        Dim             ....  322

ORBITAL ENERGIES
----------------

  NO   OCC          E(Eh)            E(eV)
   0   2.0000     -88.970142     -2421.0006
   1   2.0000     -88.964557     -2420.8487
   2   2.0000     -10.331271      -281.1282
   3   2.0000     -10.328574      -281.0548
   4   2.0000     -10.318599      -280.7834
   5   2.0000     -10.312563      -280.6191
   6   2.0000     -10.306459      -280.4530
   7   2.0000     -10.305180      -280.4182
   8   2.0000     -10.300882      -280.3012
   9   2.0000     -10.294645      -280.1315
  10   2.0000     -10.290996      -280.0322
  11   2.0000     -10.288275      -279.9582
  12   2.0000     -10.284690      -279.8606
  13   2.0000     -10.282644      -279.8050
  14   2.0000     -10.277385      -279.6619
  15   2.0000     -10.276019      -279.6247
  16   2.0000      -8.085608      -220.0206
  17   2.0000      -8.080428      -219.8796
  18   2.0000      -6.043863      -164.4619
  19   2.0000      -6.039936      -164.3550
  20   2.0000      -6.038880      -164.3263
  21   2.0000      -6.036675      -164.2663
  22   2.0000      -6.034585      -164.2094
  23   2.0000      -6.031372      -164.1220
  24   2.0000      -1.012443       -27.5500
  25   2.0000      -0.988518       -26.8989
  26   2.0000      -0.915099       -24.9011
  27   2.0000      -0.912201       -24.8223
  28   2.0000      -0.875892       -23.8342
  29   2.0000      -0.856031       -23.2938
  30   2.0000      -0.846047       -23.0221
  31   2.0000      -0.813089       -22.1253
  32   2.0000      -0.780728       -21.2447
  33   2.0000      -0.766464       -20.8565
  34   2.0000      -0.705486       -19.1972
  35   2.0000      -0.692383       -18.8407
  36   2.0000      -0.687682       -18.7128
  37   2.0000      -0.669389       -18.2150
  38   2.0000      -0.640854       -17.4385
  39   2.0000      -0.619951       -16.8697
  40   2.0000      -0.600598       -16.3431
  41   2.0000      -0.573085       -15.5944
  42   2.0000      -0.569928       -15.5085
  43   2.0000      -0.558352       -15.1935
  44   2.0000      -0.532345       -14.4858
  45   2.0000      -0.528321       -14.3763
  46   2.0000      -0.514060       -13.9883
  47   2.0000      -0.510283       -13.8855
  48   2.0000      -0.507462       -13.8087
  49   2.0000      -0.502357       -13.6698
  50   2.0000      -0.497515       -13.5381
  51   2.0000      -0.485168       -13.2021
  52   2.0000      -0.471080       -12.8187
  53   2.0000      -0.462116       -12.5748
  54   2.0000      -0.457469       -12.4484
  55   2.0000      -0.456144       -12.4123
  56   2.0000      -0.447418       -12.1749
  57   2.0000      -0.437164       -11.8958
  58   2.0000      -0.434181       -11.8147
  59   2.0000      -0.425766       -11.5857
  60   2.0000      -0.411627       -11.2009
  61   2.0000      -0.410450       -11.1689
  62   2.0000      -0.409150       -11.1335
  63   2.0000      -0.356120        -9.6905
  64   2.0000      -0.335243        -9.1224
  65   2.0000      -0.326524        -8.8852
  66   2.0000      -0.281709        -7.6657
  67   0.0000       0.022076         0.6007
  68   0.0000       0.078389         2.1331
  69   0.0000       0.114061         3.1038
  70   0.0000       0.120162         3.2698
  71   0.0000       0.129431         3.5220

MULLIKEN ATOMIC CHARGES
-----------------------
   0 S :    0.109947
   1 C :   -0.134466
   2 C :   -0.063886
   3 C :    0.002876
   4 C :   -0.137540
   5 H :    0.036461
   6 C :    0.002982
   7 H :    0.029430
   8 H :    0.013688
   9 C :   -0.047664
  10 H :    0.020769
  11 H :    0.017129
  12 C :   -0.027797
  13 H :    0.039569
  14 H :    0.022631
  15 H :    0.028283
  16 S :    0.125861
  17 C :   -0.105990
  18 C :    0.001730
  19 C :   -0.022856
  20 C :   -0.160436
  21 H :   -0.010281
  22 C :    0.020643
  23 H :    0.011242
  24 H :    0.025563
  25 C :   -0.106347
  26 H :    0.022109
  27 H :    0.034585
  28 C :    0.001485
  29 H :    0.038820
  30 H :    0.032889
  31 H :    0.042535
  32 H :    0.065403
  33 H :    0.070635
Sum of atomic charges:    0.0000000

LOEWDIN ATOMIC CHARGES
----------------------
   0 S :    0.425008
   1 C :   -0.218161
   2 C :   -0.060361
   3 C :   -0.072495
   4 C :   -0.201720
   5 H :    0.033908
   6 C :   -0.036488
   7 H :    0.031122
   8 H :    0.023754
   9 C :   -0.038858
  10 H :    0.020653
  11 H :    0.014730
  12 C :   -0.058390
  13 H :    0.020672
  14 H :    0.027691
  15 H :    0.027502
  16 S :    0.441559
  17 C :   -0.198036
  18 C :   -0.060356
  19 C :   -0.047481
  20 C :   -0.213016
  21 H :    0.021037
  22 C :   -0.042635
  23 H :    0.027651
  24 H :    0.028184
  25 C :   -0.047687
  26 H :    0.023041
  27 H :    0.029458
  28 C :   -0.059652
  29 H :    0.031746
  30 H :    0.024366
  31 H :    0.032458
  32 H :    0.036687
  33 H :    0.034109

  Mayer bond orders larger than 0.100000
B(  0-S ,  1-C ) :   1.1346 B(  0-S ,  4-C ) :   1.1673 B(  1-C ,  2-C ) :   1.5948
B(  1-C , 32-H ) :   0.9700 B(  2-C ,  3-C ) :   1.2407 B(  2-C ,  6-C ) :   1.0395
B(  3-C ,  4-C ) :   1.5409 B(  3-C ,  5-H ) :   0.9843 B(  4-C , 20-C ) :   1.0912
B(  6-C ,  7-H ) :   0.9358 B(  6-C ,  8-H ) :   0.9446 B(  6-C ,  9-C ) :   1.0651
B(  9-C , 10-H ) :   0.9517 B(  9-C , 11-H ) :   0.9553 B(  9-C , 12-C ) :   1.0780
B( 12-C , 13-H ) :   0.9742 B( 12-C , 14-H ) :   0.9749 B( 12-C , 15-H ) :   0.9756
B( 16-S , 17-C ) :   1.1876 B( 16-S , 20-C ) :   1.1638 B( 17-C , 18-C ) :   1.5428
B( 17-C , 20-C ) :   0.1088 B( 17-C , 33-H ) :   0.9622 B( 18-C , 19-C ) :   1.2991
B( 18-C , 21-H ) :   1.0064 B( 19-C , 20-C ) :   1.5011 B( 19-C , 22-C ) :   1.0548
B( 22-C , 23-H ) :   0.9285 B( 22-C , 24-H ) :   0.9359 B( 22-C , 25-C ) :   1.0582
B( 25-C , 26-H ) :   0.9557 B( 25-C , 27-H ) :   0.9513 B( 25-C , 28-C ) :   1.0671
B( 28-C , 29-H ) :   0.9727 B( 28-C , 30-H ) :   0.9726 B( 28-C , 31-H ) :   0.9710

Dispersion correction           -0.013718829
FINAL SINGLE POINT ENERGY     -1339.876268973535

DIPOLE MOMENT
-------------
                                X             Y             Z
Electronic contribution:     20.70726      12.44248     -10.92259
Nuclear contribution   :    -20.80817     -12.73291      11.22399
                        -----------------------------------------
Total Dipole Moment    :     -0.10092      -0.29043       0.30140
                        -----------------------------------------
Magnitude (a.u.)       :      0.43055
Magnitude (Debye)      :      1.09437

Rotational constants in cm-1:     0.017864     0.008119     0.006637
Rotational constants in MHz :   535.562034   243.408042   198.959102

                             ****ORCA TERMINATED NORMALLY****
TOTAL RUN TIME: 0 days 0 hours 0 minutes 33 seconds 837 msec
