                         Program Version 4.2.1 -  RELEASE  -
|  1> ! wB97X-D3 SP def2-SVP
|  2> %pal
|  3> nprocs 16
|  4> end
|  5>
|  6> * xyz 0 1
|  7> S 	 55.0742 	 13.9274 	 78.4899
|  8> C 	 56.0274 	 14.5741 	 77.2362
|  9> C 	 57.3064 	 14.0046 	 77.1238
| 10> C 	 57.5025 	 13.1249 	 78.2899
| 11> C 	 56.3188 	 12.8484 	 78.9674
| 12> H 	 58.4181 	 12.5297 	 78.4688
| 13> C 	 58.3077 	 14.4587 	 76.1537
| 14> H 	 59.2245 	 14.6251 	 76.7163
| 15> H 	 57.9519 	 15.4088 	 75.7974
| 16> C 	 58.5281 	 13.5186 	 74.9317
| 17> H 	 57.5634 	 13.2198 	 74.5225
| 18> H 	 58.9217 	 14.0885 	 74.131
| 19> C 	 59.2603 	 12.1888 	 75.1527
| 20> H 	 59.39 	 11.6352 	 74.2134
| 21> H 	 60.252 	 12.4839 	 75.5496
| 22> H 	 58.7225 	 11.5097 	 75.7396
| 23> S 	 55.6984 	 12.7998 	 81.5931
| 24> C 	 55.1139 	 11.3111 	 82.4151
| 25> C 	 55.3849 	 10.2517 	 81.5282
| 26> C 	 55.9616 	 10.6285 	 80.2738
| 27> C 	 56.0782 	 12.0208 	 80.0876
| 28> H 	 55.0558 	 9.25377 	 81.8356
| 29> C 	 56.2254 	 9.61746 	 79.177
| 30> H 	 56.9209 	 8.80086 	 79.5009
| 31> H 	 56.7832 	 10.2226 	 78.4166
| 32> C 	 54.959 	 8.99717 	 78.5727
| 33> H 	 54.5271 	 8.21258 	 79.1241
| 34> H 	 55.3587 	 8.48547 	 77.671
| 35> C 	 53.9215 	 10.0488 	 78.2088
| 36> H 	 54.4271 	 10.792 	 77.6213
| 37> H 	 53.5733 	 10.6229 	 79.1235
| 38> H 	 53.1059 	 9.53371 	 77.6963
| 39> H 	 55.7156 	 15.3178 	 76.5204
| 40> H 	 54.6958 	 11.2061 	 83.4063
| 41> *
| 42>
| 43>                          ****END OF INPUT****

CARTESIAN COORDINATES (ANGSTROEM)
---------------------------------
  S     55.074200   13.927400   78.489900
  C     56.027400   14.574100   77.236200
  C     57.306400   14.004600   77.123800
  C     57.502500   13.124900   78.289900
  C     56.318800   12.848400   78.967400
  H     58.418100   12.529700   78.468800
  C     58.307700   14.458700   76.153700
  H     59.224500   14.625100   76.716300
  H     57.951900   15.408800   75.797400
  C     58.528100   13.518600   74.931700
  H     57.563400   13.219800   74.522500
  H     58.921700   14.088500   74.131000
  C     59.260300   12.188800   75.152700
  H     59.390000   11.635200   74.213400
  H     60.252000   12.483900   75.549600
  H     58.722500   11.509700   75.739600
  S     55.698400   12.799800   81.593100
  C     55.113900   11.311100   82.415100
  C     55.384900   10.251700   81.528200
  C     55.961600   10.628500   80.273800
  C     56.078200   12.020800   80.087600
  H     55.055800    9.253770   81.835600
  C     56.225400    9.617460   79.177000
  H     56.920900    8.800860   79.500900
  H     56.783200   10.222600   78.416600
  C     54.959000    8.997170   78.572700
  H     54.527100    8.212580   79.124100
  H     55.358700    8.485470   77.671000
  C     53.921500   10.048800   78.208800
  H     54.427100   10.792000   77.621300
  H     53.573300   10.622900   79.123500
  H     53.105900    9.533710   77.696300
  H     55.715600   15.317800   76.520400
  H     54.695800   11.206100   83.406300

 Total Charge           Charge          ....    0
 Multiplicity           Mult            ....    1
 Number of Electrons    NEL             ....  134
 Basis Dimension        Dim             ....  322

ORBITAL ENERGIES
----------------

  NO   OCC          E(Eh)            E(eV)
   0   2.0000     -88.968993     -2420.9694
   1   2.0000     -88.962331     -2420.7881
   2   2.0000     -10.326108      -280.9877
   3   2.0000     -10.324476      -280.9433
   4   2.0000     -10.323530      -280.9175
   5   2.0000     -10.311232      -280.5829
   6   2.0000     -10.304064      -280.3878
   7   2.0000     -10.303523      -280.3731
   8   2.0000     -10.303038      -280.3599
   9   2.0000     -10.297587      -280.2116
  10   2.0000     -10.292253      -280.0664
  11   2.0000     -10.291811      -280.0544
  12   2.0000     -10.284625      -279.8589
  13   2.0000     -10.278217      -279.6845
  14   2.0000     -10.278131      -279.6822
  15   2.0000     -10.270343      -279.4702
  16   2.0000      -8.084860      -220.0002
  17   2.0000      -8.076446      -219.7713
  18   2.0000      -6.043180      -164.4433
  19   2.0000      -6.039105      -164.3324
  20   2.0000      -6.035813      -164.2428
  21   2.0000      -6.035059      -164.2223
  22   2.0000      -6.030809      -164.1067
  23   2.0000      -6.027327      -164.0119
  24   2.0000      -1.012283       -27.5456
  25   2.0000      -0.981185       -26.6994
  26   2.0000      -0.917103       -24.9556
  27   2.0000      -0.906062       -24.6552
  28   2.0000      -0.873125       -23.7589
  29   2.0000      -0.850650       -23.1474
  30   2.0000      -0.838129       -22.8067
  31   2.0000      -0.817196       -22.2370
  32   2.0000      -0.784090       -21.3362
  33   2.0000      -0.767375       -20.8813
  34   2.0000      -0.711360       -19.3571
  35   2.0000      -0.702804       -19.1243
  36   2.0000      -0.692811       -18.8523
  37   2.0000      -0.654937       -17.8217
  38   2.0000      -0.642513       -17.4837
  39   2.0000      -0.614521       -16.7220
  40   2.0000      -0.588259       -16.0074
  41   2.0000      -0.575633       -15.6638
  42   2.0000      -0.554355       -15.0848
  43   2.0000      -0.550445       -14.9784
  44   2.0000      -0.548364       -14.9218
  45   2.0000      -0.531499       -14.4628
  46   2.0000      -0.522679       -14.2228
  47   2.0000      -0.517082       -14.0705
  48   2.0000      -0.504426       -13.7261
  49   2.0000      -0.502766       -13.6810
  50   2.0000      -0.497280       -13.5317
  51   2.0000      -0.476434       -12.9644
  52   2.0000      -0.467178       -12.7126
  53   2.0000      -0.462932       -12.5970
  54   2.0000      -0.451252       -12.2792
  55   2.0000      -0.442714       -12.0468
  56   2.0000      -0.441009       -12.0005
  57   2.0000      -0.439000       -11.9458
  58   2.0000      -0.432198       -11.7607
  59   2.0000      -0.431516       -11.7422
  60   2.0000      -0.415901       -11.3172
  61   2.0000      -0.414129       -11.2690
  62   2.0000      -0.403564       -10.9815
  63   2.0000      -0.340546        -9.2667
  64   2.0000      -0.326967        -8.8972
  65   2.0000      -0.324627        -8.8336
  66   2.0000      -0.297522        -8.0960
  67   0.0000       0.031005         0.8437
  68   0.0000       0.061434         1.6717
  69   0.0000       0.112625         3.0647
  70   0.0000       0.116746         3.1768
  71   0.0000       0.127612         3.4725

MULLIKEN ATOMIC CHARGES
-----------------------
   0 S :    0.148093
   1 C :   -0.108753
   2 C :   -0.132209
   3 C :    0.058629
   4 C :   -0.198682
   5 H :    0.030023
   6 C :    0.083997
   7 H :    0.032174
   8 H :    0.010872
   9 C :   -0.054385
  10 H :    0.012865
  11 H :    0.019213
  12 C :   -0.037670
  13 H :    0.033897
  14 H :    0.032991
  15 H :    0.028200
  16 S :    0.100834
  17 C :   -0.108372
  18 C :   -0.042083
  19 C :   -0.030423
  20 C :   -0.171321
  21 H :    0.025539
  22 C :    0.044511
  23 H :    0.040119
  24 H :    0.025199
  25 C :   -0.065576
  26 H :    0.016887
  27 H :    0.026669
  28 C :   -0.045048
  29 H :    0.023230
  30 H :    0.052797
  31 H :    0.039818
  32 H :    0.043120
  33 H :    0.064844
Sum of atomic charges:    0.0000000

LOEWDIN ATOMIC CHARGES
----------------------
   0 S :    0.455611
   1 C :   -0.212178
   2 C :   -0.061755
   3 C :   -0.055727
   4 C :   -0.221603
   5 H :    0.035355
   6 C :   -0.030886
   7 H :    0.034487
   8 H :    0.031853
   9 C :   -0.037895
  10 H :    0.023300
  11 H :    0.018686
  12 C :   -0.061428
  13 H :    0.031795
  14 H :    0.026685
  15 H :    0.017036
  16 S :    0.397126
  17 C :   -0.177927
  18 C :   -0.072635
  19 C :   -0.059666
  20 C :   -0.214868
  21 H :    0.032592
  22 C :   -0.039742
  23 H :    0.036479
  24 H :    0.031684
  25 C :   -0.042153
  26 H :    0.012572
  27 H :    0.028780
  28 C :   -0.065709
  29 H :    0.019544
  30 H :    0.034810
  31 H :    0.027085
  32 H :    0.025095
  33 H :    0.033596

  Mayer bond orders larger than 0.100000
B(  0-S ,  1-C ) :   1.1641 B(  0-S ,  4-C ) :   1.1615 B(  1-C ,  2-C ) :   1.5980
B(  1-C , 32-H ) :   0.9611 B(  2-C ,  3-C ) :   1.2356 B(  2-C ,  6-C ) :   1.0399
B(  3-C ,  4-C ) :   1.5667 B(  3-C ,  5-H ) :   0.9813 B(  4-C , 20-C ) :   1.0449
B(  6-C ,  7-H ) :   0.9413 B(  6-C ,  8-H ) :   0.9312 B(  6-C ,  9-C ) :   1.0621
B(  9-C , 10-H ) :   0.9519 B(  9-C , 11-H ) :   0.9578 B(  9-C , 12-C ) :   1.0778
B( 12-C , 13-H ) :   0.9704 B( 12-C , 14-H ) :   0.9777 B( 12-C , 15-H ) :   0.9756
B( 16-S , 17-C ) :   1.1463 B( 16-S , 20-C ) :   1.1596 B( 17-C , 18-C ) :   1.5873
B( 17-C , 20-C ) :   0.1121 B( 17-C , 33-H ) :   0.9725 B( 18-C , 19-C ) :   1.2467
B( 18-C , 21-H ) :   0.9901 B( 19-C , 20-C ) :   1.5475 B( 19-C , 22-C ) :   1.0529
B( 22-C , 23-H ) :   0.9342 B( 22-C , 24-H ) :   0.9317 B( 22-C , 25-C ) :   1.0691
B( 25-C , 26-H ) :   0.9552 B( 25-C , 27-H ) :   0.9530 B( 25-C , 28-C ) :   1.0791
B( 28-C , 29-H ) :   0.9754 B( 28-C , 30-H ) :   0.9654 B( 28-C , 31-H ) :   0.9724

Dispersion correction           -0.015770808
FINAL SINGLE POINT ENERGY     -1339.875879242710

DIPOLE MOMENT
-------------
                                X             Y             Z
Electronic contribution:     -7.88884      12.34983      20.31497
Nuclear contribution   :      8.08788     -12.63522     -20.77022
                        -----------------------------------------
Total Dipole Moment    :      0.19904      -0.28539      -0.45525
                        -----------------------------------------
Magnitude (a.u.)       :      0.57300
Magnitude (Debye)      :      1.45644

Rotational constants in cm-1:     0.021126     0.009006     0.007649
Rotational constants in MHz :   633.348835   269.997263   229.301729

                             ****ORCA TERMINATED NORMALLY****
TOTAL RUN TIME: 0 days 0 hours 0 minutes 30 seconds 18 msec
