                         Program Version 4.2.1 -  RELEASE  -
|  1> ! wB97X-D3 SP def2-SVP
|  2> %pal
|  3> nprocs 16
|  4> end
|  5>
|  6> * xyz 0 1
|  7> S 	 18.6588 	 -0.553739 	 84.5138
|  8> C 	 19.9836 	 0.486214 	 84.119
|  9> C 	 19.619 	 1.79284 	 83.9693
| 10> C 	 18.2439 	 2.00569 	 84.2228
| 11> C 	 17.5863 	 0.828835 	 84.5414
| 12> H 	 17.7675 	 2.98467 	 84.2877
| 13> C 	 20.6005 	 2.96519 	 83.829
| 14> H 	 21.6195 	 2.60755 	 83.6329
| 15> H 	 20.5517 	 3.48301 	 84.769
| 16> C 	 20.1596 	 3.91402 	 82.6505
| 17> H 	 20.324 	 3.45879 	 81.6419
| 18> H 	 19.0895 	 4.09592 	 82.8624
| 19> C 	 20.9601 	 5.21277 	 82.83
| 20> H 	 20.7895 	 5.64027 	 81.8441
| 21> H 	 20.5706 	 5.84893 	 83.6518
| 22> H 	 22.0025 	 5.09583 	 82.9825
| 23> S 	 16.0748 	 0.773621 	 86.821
| 24> C 	 14.499 	 1.492 	 86.774
| 25> C 	 14.0211 	 1.67537 	 85.5113
| 26> C 	 14.9993 	 1.31426 	 84.5161
| 27> C 	 16.2079 	 0.826639 	 85.074
| 28> H 	 13.0677 	 2.07907 	 85.3111
| 29> C 	 14.8852 	 1.59709 	 82.9849
| 30> H 	 15.8046 	 1.75904 	 82.5344
| 31> H 	 14.3125 	 2.52772 	 82.9597
| 32> C 	 14.0749 	 0.561869 	 82.1999
| 33> H 	 13.1006 	 0.666986 	 82.5073
| 34> H 	 14.4808 	 -0.384853 	 82.4044
| 35> C 	 14.1771 	 0.83553 	 80.6795
| 36> H 	 13.9156 	 1.86912 	 80.3703
| 37> H 	 13.4352 	 0.248942 	 80.2064
| 38> H 	 15.2029 	 0.494211 	 80.4008
| 39> H 	 21.0668 	 0.259246 	 84.107
| 40> H 	 13.9891 	 1.78906 	 87.7073
| 41> *
| 42>
| 43>                          ****END OF INPUT****

CARTESIAN COORDINATES (ANGSTROEM)
---------------------------------
  S     18.658800   -0.553739   84.513800
  C     19.983600    0.486214   84.119000
  C     19.619000    1.792840   83.969300
  C     18.243900    2.005690   84.222800
  C     17.586300    0.828835   84.541400
  H     17.767500    2.984670   84.287700
  C     20.600500    2.965190   83.829000
  H     21.619500    2.607550   83.632900
  H     20.551700    3.483010   84.769000
  C     20.159600    3.914020   82.650500
  H     20.324000    3.458790   81.641900
  H     19.089500    4.095920   82.862400
  C     20.960100    5.212770   82.830000
  H     20.789500    5.640270   81.844100
  H     20.570600    5.848930   83.651800
  H     22.002500    5.095830   82.982500
  S     16.074800    0.773621   86.821000
  C     14.499000    1.492000   86.774000
  C     14.021100    1.675370   85.511300
  C     14.999300    1.314260   84.516100
  C     16.207900    0.826639   85.074000
  H     13.067700    2.079070   85.311100
  C     14.885200    1.597090   82.984900
  H     15.804600    1.759040   82.534400
  H     14.312500    2.527720   82.959700
  C     14.074900    0.561869   82.199900
  H     13.100600    0.666986   82.507300
  H     14.480800   -0.384853   82.404400
  C     14.177100    0.835530   80.679500
  H     13.915600    1.869120   80.370300
  H     13.435200    0.248942   80.206400
  H     15.202900    0.494211   80.400800
  H     21.066800    0.259246   84.107000
  H     13.989100    1.789060   87.707300

 Total Charge           Charge          ....    0
 Multiplicity           Mult            ....    1
 Number of Electrons    NEL             ....  134
 Basis Dimension        Dim             ....  322

ORBITAL ENERGIES
----------------

  NO   OCC          E(Eh)            E(eV)
   0   2.0000     -88.967981     -2420.9418
   1   2.0000     -88.961405     -2420.7629
   2   2.0000     -10.328691      -281.0580
   3   2.0000     -10.324243      -280.9369
   4   2.0000     -10.318187      -280.7721
   5   2.0000     -10.308056      -280.4965
   6   2.0000     -10.307849      -280.4908
   7   2.0000     -10.293553      -280.1018
   8   2.0000     -10.293085      -280.0891
   9   2.0000     -10.292013      -280.0599
  10   2.0000     -10.291919      -280.0574
  11   2.0000     -10.291605      -280.0488
  12   2.0000     -10.282791      -279.8090
  13   2.0000     -10.277057      -279.6529
  14   2.0000     -10.276574      -279.6398
  15   2.0000     -10.271345      -279.4975
  16   2.0000      -8.082781      -219.9436
  17   2.0000      -8.076826      -219.7816
  18   2.0000      -6.041289      -164.3918
  19   2.0000      -6.037308      -164.2835
  20   2.0000      -6.035223      -164.2268
  21   2.0000      -6.033521      -164.1805
  22   2.0000      -6.031205      -164.1174
  23   2.0000      -6.027683      -164.0216
  24   2.0000      -1.005595       -27.3636
  25   2.0000      -0.984449       -26.7882
  26   2.0000      -0.908714       -24.7274
  27   2.0000      -0.907684       -24.6993
  28   2.0000      -0.867987       -23.6191
  29   2.0000      -0.850330       -23.1387
  30   2.0000      -0.845993       -23.0206
  31   2.0000      -0.811862       -22.0919
  32   2.0000      -0.778417       -21.1818
  33   2.0000      -0.766559       -20.8591
  34   2.0000      -0.704849       -19.1799
  35   2.0000      -0.696177       -18.9439
  36   2.0000      -0.687793       -18.7158
  37   2.0000      -0.658896       -17.9295
  38   2.0000      -0.635289       -17.2871
  39   2.0000      -0.621058       -16.8999
  40   2.0000      -0.596588       -16.2340
  41   2.0000      -0.578214       -15.7340
  42   2.0000      -0.568920       -15.4811
  43   2.0000      -0.561635       -15.2829
  44   2.0000      -0.527419       -14.3518
  45   2.0000      -0.517978       -14.0949
  46   2.0000      -0.515510       -14.0277
  47   2.0000      -0.507591       -13.8122
  48   2.0000      -0.499018       -13.5790
  49   2.0000      -0.492826       -13.4105
  50   2.0000      -0.491114       -13.3639
  51   2.0000      -0.481724       -13.1084
  52   2.0000      -0.468684       -12.7536
  53   2.0000      -0.466860       -12.7039
  54   2.0000      -0.461059       -12.5461
  55   2.0000      -0.450578       -12.2609
  56   2.0000      -0.450002       -12.2452
  57   2.0000      -0.443248       -12.0614
  58   2.0000      -0.430934       -11.7263
  59   2.0000      -0.429017       -11.6741
  60   2.0000      -0.428636       -11.6638
  61   2.0000      -0.410229       -11.1629
  62   2.0000      -0.400453       -10.8969
  63   2.0000      -0.342298        -9.3144
  64   2.0000      -0.329433        -8.9643
  65   2.0000      -0.321561        -8.7501
  66   2.0000      -0.299187        -8.1413
  67   0.0000       0.041444         1.1277
  68   0.0000       0.060769         1.6536
  69   0.0000       0.122470         3.3326
  70   0.0000       0.125889         3.4256
  71   0.0000       0.131781         3.5859

MULLIKEN ATOMIC CHARGES
-----------------------
   0 S :    0.122539
   1 C :   -0.124387
   2 C :   -0.088450
   3 C :    0.031835
   4 C :   -0.173063
   5 H :    0.027889
   6 C :    0.062179
   7 H :    0.020300
   8 H :    0.037617
   9 C :   -0.128952
  10 H :    0.050613
  11 H :    0.035246
  12 C :   -0.029951
  13 H :    0.032388
  14 H :    0.041077
  15 H :    0.027197
  16 S :    0.104998
  17 C :   -0.107972
  18 C :    0.001167
  19 C :   -0.064602
  20 C :   -0.150792
  21 H :    0.002805
  22 C :    0.083934
  23 H :    0.005332
  24 H :    0.011580
  25 C :   -0.025980
  26 H :    0.004177
  27 H :    0.023228
  28 C :   -0.048874
  29 H :    0.030933
  30 H :    0.023550
  31 H :    0.045818
  32 H :    0.047239
  33 H :    0.069381
Sum of atomic charges:    0.0000000

LOEWDIN ATOMIC CHARGES
----------------------
   0 S :    0.413067
   1 C :   -0.215250
   2 C :   -0.071750
   3 C :   -0.059414
   4 C :   -0.201258
   5 H :    0.034599
   6 C :   -0.024977
   7 H :    0.025637
   8 H :    0.030373
   9 C :   -0.037986
  10 H :    0.031220
  11 H :    0.025135
  12 C :   -0.066745
  13 H :    0.028598
  14 H :    0.030282
  15 H :    0.017880
  16 S :    0.411175
  17 C :   -0.184656
  18 C :   -0.074010
  19 C :   -0.042978
  20 C :   -0.210972
  21 H :    0.025985
  22 C :   -0.019808
  23 H :    0.015534
  24 H :    0.027924
  25 C :   -0.023488
  26 H :    0.009665
  27 H :    0.019820
  28 C :   -0.062051
  29 H :    0.026474
  30 H :    0.019476
  31 H :    0.032703
  32 H :    0.035420
  33 H :    0.034373

  Mayer bond orders larger than 0.100000
B(  0-S ,  1-C ) :   1.1295 B(  0-S ,  4-C ) :   1.1571 B(  1-C ,  2-C ) :   1.6460
B(  1-C , 32-H ) :   0.9576 B(  2-C ,  3-C ) :   1.2389 B(  2-C ,  6-C ) :   1.0149
B(  3-C ,  4-C ) :   1.5757 B(  3-C ,  5-H ) :   0.9876 B(  4-C , 20-C ) :   1.0041
B(  6-C ,  7-H ) :   0.9428 B(  6-C ,  8-H ) :   0.9486 B(  6-C ,  9-C ) :   1.0512
B(  9-C , 10-H ) :   0.9619 B(  9-C , 11-H ) :   0.9582 B(  9-C , 12-C ) :   1.0704
B( 12-C , 13-H ) :   0.9757 B( 12-C , 14-H ) :   0.9757 B( 12-C , 15-H ) :   0.9744
B( 16-S , 17-C ) :   1.1777 B( 16-S , 20-C ) :   1.1411 B( 17-C , 18-C ) :   1.5921
B( 17-C , 33-H ) :   0.9627 B( 18-C , 19-C ) :   1.2488 B( 18-C , 21-H ) :   1.0021
B( 19-C , 20-C ) :   1.5938 B( 19-C , 22-C ) :   1.0293 B( 22-C , 23-H ) :   0.9429
B( 22-C , 24-H ) :   0.9342 B( 22-C , 25-C ) :   1.0696 B( 25-C , 26-H ) :   0.9549
B( 25-C , 27-H ) :   0.9575 B( 25-C , 28-C ) :   1.0888 B( 28-C , 29-H ) :   0.9739
B( 28-C , 30-H ) :   0.9748 B( 28-C , 31-H ) :   0.9768

Dispersion correction           -0.013699035
FINAL SINGLE POINT ENERGY     -1339.869723959322

DIPOLE MOMENT
-------------
                                X             Y             Z
Electronic contribution:     -1.24843     -17.01239      20.89488
Nuclear contribution   :      1.20067      17.68445     -21.09817
                        -----------------------------------------
Total Dipole Moment    :     -0.04775       0.67206      -0.20330
                        -----------------------------------------
Magnitude (a.u.)       :      0.70375
Magnitude (Debye)      :      1.78880

Rotational constants in cm-1:     0.015757     0.008464     0.007250
Rotational constants in MHz :   472.369152   253.740405   217.345224

                             ****ORCA TERMINATED NORMALLY****
TOTAL RUN TIME: 0 days 0 hours 0 minutes 34 seconds 291 msec
