                         Program Version 4.2.1 -  RELEASE  -
|  1> ! wB97X-D3 SP def2-SVP
|  2> %pal
|  3> nprocs 16
|  4> end
|  5>
|  6> * xyz 0 1
|  7> S 	 -55.7675 	 38.8284 	 90.5678
|  8> C 	 -56.9451 	 39.1385 	 91.7935
|  9> C 	 -57.144 	 38.0582 	 92.6229
| 10> C 	 -56.5258 	 36.8594 	 92.1497
| 11> C 	 -55.7626 	 37.0599 	 90.9983
| 12> H 	 -56.7987 	 35.8361 	 92.4495
| 13> C 	 -57.9699 	 38.0862 	 93.8827
| 14> H 	 -58.7216 	 38.9213 	 93.7574
| 15> H 	 -57.215 	 38.2987 	 94.6493
| 16> C 	 -58.6282 	 36.7024 	 94.2508
| 17> H 	 -57.9381 	 35.8378 	 94.3066
| 18> H 	 -59.1783 	 36.7312 	 95.2509
| 19> C 	 -59.6712 	 36.2708 	 93.2193
| 20> H 	 -59.3054 	 36.2125 	 92.1861
| 21> H 	 -60.1018 	 35.2664 	 93.3655
| 22> H 	 -60.4973 	 37.036 	 93.2487
| 23> S 	 -53.8648 	 35.0651 	 90.7161
| 24> C 	 -53.7182 	 34.1104 	 89.2197
| 25> C 	 -54.7394 	 34.4781 	 88.372
| 26> C 	 -55.5464 	 35.5791 	 88.8771
| 27> C 	 -55.2269 	 35.9733 	 90.1572
| 28> H 	 -54.8675 	 33.9247 	 87.4372
| 29> C 	 -56.5861 	 36.1898 	 88.0558
| 30> H 	 -56.165 	 36.3262 	 86.9894
| 31> H 	 -57.0022 	 37.1332 	 88.4771
| 32> C 	 -57.8483 	 35.3598 	 87.9835
| 33> H 	 -57.7181 	 34.2598 	 87.8267
| 34> H 	 -58.3776 	 35.567 	 87.0369
| 35> C 	 -58.8472 	 35.4825 	 89.1118
| 36> H 	 -59.385 	 36.4119 	 89.1294
| 37> H 	 -58.3454 	 35.46 	 90.1083
| 38> H 	 -59.6688 	 34.7066 	 89.0727
| 39> H 	 -57.2017 	 40.2146 	 92.0482
| 40> H 	 -52.8977 	 33.4365 	 88.9445
| 41> *
| 42>
| 43>                          ****END OF INPUT****

CARTESIAN COORDINATES (ANGSTROEM)
---------------------------------
  S    -55.767500   38.828400   90.567800
  C    -56.945100   39.138500   91.793500
  C    -57.144000   38.058200   92.622900
  C    -56.525800   36.859400   92.149700
  C    -55.762600   37.059900   90.998300
  H    -56.798700   35.836100   92.449500
  C    -57.969900   38.086200   93.882700
  H    -58.721600   38.921300   93.757400
  H    -57.215000   38.298700   94.649300
  C    -58.628200   36.702400   94.250800
  H    -57.938100   35.837800   94.306600
  H    -59.178300   36.731200   95.250900
  C    -59.671200   36.270800   93.219300
  H    -59.305400   36.212500   92.186100
  H    -60.101800   35.266400   93.365500
  H    -60.497300   37.036000   93.248700
  S    -53.864800   35.065100   90.716100
  C    -53.718200   34.110400   89.219700
  C    -54.739400   34.478100   88.372000
  C    -55.546400   35.579100   88.877100
  C    -55.226900   35.973300   90.157200
  H    -54.867500   33.924700   87.437200
  C    -56.586100   36.189800   88.055800
  H    -56.165000   36.326200   86.989400
  H    -57.002200   37.133200   88.477100
  C    -57.848300   35.359800   87.983500
  H    -57.718100   34.259800   87.826700
  H    -58.377600   35.567000   87.036900
  C    -58.847200   35.482500   89.111800
  H    -59.385000   36.411900   89.129400
  H    -58.345400   35.460000   90.108300
  H    -59.668800   34.706600   89.072700
  H    -57.201700   40.214600   92.048200
  H    -52.897700   33.436500   88.944500

 Total Charge           Charge          ....    0
 Multiplicity           Mult            ....    1
 Number of Electrons    NEL             ....  134
 Basis Dimension        Dim             ....  322

ORBITAL ENERGIES
----------------

  NO   OCC          E(Eh)            E(eV)
   0   2.0000     -88.969266     -2420.9768
   1   2.0000     -88.961634     -2420.7691
   2   2.0000     -10.338755      -281.3318
   3   2.0000     -10.325300      -280.9657
   4   2.0000     -10.322769      -280.8968
   5   2.0000     -10.318831      -280.7897
   6   2.0000     -10.303296      -280.3669
   7   2.0000     -10.303155      -280.3631
   8   2.0000     -10.301071      -280.3064
   9   2.0000     -10.300716      -280.2967
  10   2.0000     -10.299773      -280.2711
  11   2.0000     -10.298029      -280.2236
  12   2.0000     -10.291811      -280.0544
  13   2.0000     -10.282383      -279.7979
  14   2.0000     -10.280243      -279.7396
  15   2.0000     -10.276103      -279.6270
  16   2.0000      -8.082944      -219.9481
  17   2.0000      -8.076386      -219.7696
  18   2.0000      -6.041514      -164.3980
  19   2.0000      -6.037609      -164.2917
  20   2.0000      -6.035068      -164.2226
  21   2.0000      -6.033673      -164.1846
  22   2.0000      -6.030735      -164.1047
  23   2.0000      -6.027084      -164.0053
  24   2.0000      -1.004106       -27.3231
  25   2.0000      -0.984208       -26.7817
  26   2.0000      -0.912036       -24.8178
  27   2.0000      -0.907736       -24.7007
  28   2.0000      -0.871003       -23.7012
  29   2.0000      -0.846352       -23.0304
  30   2.0000      -0.843295       -22.9472
  31   2.0000      -0.819069       -22.2880
  32   2.0000      -0.777285       -21.1510
  33   2.0000      -0.767063       -20.8728
  34   2.0000      -0.706784       -19.2326
  35   2.0000      -0.693821       -18.8798
  36   2.0000      -0.685773       -18.6608
  37   2.0000      -0.659723       -17.9520
  38   2.0000      -0.636840       -17.3293
  39   2.0000      -0.619600       -16.8602
  40   2.0000      -0.597144       -16.2491
  41   2.0000      -0.565866       -15.3980
  42   2.0000      -0.557518       -15.1708
  43   2.0000      -0.555597       -15.1186
  44   2.0000      -0.530088       -14.4244
  45   2.0000      -0.527179       -14.3453
  46   2.0000      -0.520720       -14.1695
  47   2.0000      -0.514785       -14.0080
  48   2.0000      -0.503715       -13.7068
  49   2.0000      -0.492276       -13.3955
  50   2.0000      -0.489130       -13.3099
  51   2.0000      -0.480226       -13.0676
  52   2.0000      -0.470970       -12.8157
  53   2.0000      -0.463117       -12.6021
  54   2.0000      -0.453560       -12.3420
  55   2.0000      -0.446847       -12.1593
  56   2.0000      -0.438516       -11.9326
  57   2.0000      -0.433713       -11.8019
  58   2.0000      -0.429712       -11.6931
  59   2.0000      -0.425965       -11.5911
  60   2.0000      -0.416461       -11.3325
  61   2.0000      -0.415965       -11.3190
  62   2.0000      -0.398793       -10.8517
  63   2.0000      -0.346772        -9.4361
  64   2.0000      -0.332077        -9.0363
  65   2.0000      -0.319957        -8.7065
  66   2.0000      -0.301110        -8.1936
  67   0.0000       0.033610         0.9146
  68   0.0000       0.059732         1.6254
  69   0.0000       0.107162         2.9160
  70   0.0000       0.117625         3.2007
  71   0.0000       0.128731         3.5030

MULLIKEN ATOMIC CHARGES
-----------------------
   0 S :    0.112233
   1 C :   -0.153498
   2 C :   -0.115364
   3 C :    0.034719
   4 C :   -0.158810
   5 H :    0.036979
   6 C :    0.084600
   7 H :    0.043154
   8 H :    0.055433
   9 C :   -0.114879
  10 H :    0.040286
  11 H :    0.046950
  12 C :   -0.082470
  13 H :    0.033147
  14 H :    0.037175
  15 H :    0.032596
  16 S :    0.094917
  17 C :   -0.106300
  18 C :   -0.034120
  19 C :   -0.028475
  20 C :   -0.160644
  21 H :    0.030227
  22 C :    0.059487
  23 H :    0.046301
  24 H :    0.031172
  25 C :   -0.078609
  26 H :    0.019983
  27 H :    0.018551
  28 C :   -0.074956
  29 H :    0.026865
  30 H :    0.038044
  31 H :    0.038521
  32 H :    0.075518
  33 H :    0.071265
Sum of atomic charges:    0.0000000

LOEWDIN ATOMIC CHARGES
----------------------
   0 S :    0.392378
   1 C :   -0.214914
   2 C :   -0.070925
   3 C :   -0.058349
   4 C :   -0.172582
   5 H :    0.037652
   6 C :   -0.031652
   7 H :    0.039374
   8 H :    0.041705
   9 C :   -0.051714
  10 H :    0.024696
  11 H :    0.035222
  12 C :   -0.077731
  13 H :    0.022713
  14 H :    0.027376
  15 H :    0.027486
  16 S :    0.398317
  17 C :   -0.178508
  18 C :   -0.070062
  19 C :   -0.060257
  20 C :   -0.211958
  21 H :    0.035451
  22 C :   -0.041713
  23 H :    0.045585
  24 H :    0.032968
  25 C :   -0.053195
  26 H :    0.023476
  27 H :    0.024235
  28 C :   -0.073785
  29 H :    0.019216
  30 H :    0.025712
  31 H :    0.033596
  32 H :    0.041283
  33 H :    0.038906

  Mayer bond orders larger than 0.100000
B(  0-S ,  1-C ) :   1.1370 B(  0-S ,  4-C ) :   1.1352 B(  1-C ,  2-C ) :   1.6323
B(  1-C , 32-H ) :   0.9544 B(  2-C ,  3-C ) :   1.2385 B(  2-C ,  6-C ) :   1.0021
B(  3-C ,  4-C ) :   1.5886 B(  3-C ,  5-H ) :   0.9732 B(  4-C , 20-C ) :   1.0163
B(  6-C ,  7-H ) :   0.9496 B(  6-C ,  8-H ) :   0.9290 B(  6-C ,  9-C ) :   1.0681
B(  9-C , 10-H ) :   0.9512 B(  9-C , 11-H ) :   0.9562 B(  9-C , 12-C ) :   1.0701
B( 12-C , 13-H ) :   0.9734 B( 12-C , 14-H ) :   0.9736 B( 12-C , 15-H ) :   0.9736
B( 16-S , 17-C ) :   1.1458 B( 16-S , 20-C ) :   1.1311 B( 17-C , 18-C ) :   1.6253
B( 17-C , 33-H ) :   0.9663 B( 18-C , 19-C ) :   1.2131 B( 18-C , 21-H ) :   0.9866
B( 19-C , 20-C ) :   1.6045 B( 19-C , 22-C ) :   1.0768 B( 22-C , 23-H ) :   0.9275
B( 22-C , 24-H ) :   0.9269 B( 22-C , 25-C ) :   1.0549 B( 25-C , 26-H ) :   0.9550
B( 25-C , 27-H ) :   0.9486 B( 25-C , 28-C ) :   1.0865 B( 28-C , 29-H ) :   0.9727
B( 28-C , 30-H ) :   0.9682 B( 28-C , 31-H ) :   0.9702

Dispersion correction           -0.016411384
FINAL SINGLE POINT ENERGY     -1339.879704639723

DIPOLE MOMENT
-------------
                                X             Y             Z
Electronic contribution:     24.79154       5.21286      -2.77015
Nuclear contribution   :    -25.22182      -5.33514       2.73866
                        -----------------------------------------
Total Dipole Moment    :     -0.43029      -0.12228      -0.03149
                        -----------------------------------------
Magnitude (a.u.)       :      0.44843
Magnitude (Debye)      :      1.13982

Rotational constants in cm-1:     0.018865     0.009471     0.008665
Rotational constants in MHz :   565.562380   283.941124   259.773604

                             ****ORCA TERMINATED NORMALLY****
TOTAL RUN TIME: 0 days 0 hours 0 minutes 33 seconds 147 msec
