                         Program Version 4.2.1 -  RELEASE  -
|  1> ! wB97X-D3 SP def2-SVP
|  2> %pal
|  3> nprocs 16
|  4> end
|  5>
|  6> * xyz 0 1
|  7> S 	 -30.8273 	 46.1513 	 96.7207
|  8> C 	 -30.8853 	 44.6832 	 95.7173
|  9> C 	 -31.7798 	 44.8547 	 94.6453
| 10> C 	 -32.2379 	 46.2374 	 94.5333
| 11> C 	 -31.8082 	 47.0562 	 95.574
| 12> H 	 -32.9329 	 46.6712 	 93.7567
| 13> C 	 -32.0982 	 43.8309 	 93.6751
| 14> H 	 -32.3077 	 42.9381 	 94.2025
| 15> H 	 -31.0938 	 43.7037 	 93.2788
| 16> C 	 -33.1408 	 44.1588 	 92.548
| 17> H 	 -32.8268 	 45.0519 	 92.0514
| 18> H 	 -33.0316 	 43.4244 	 91.7171
| 19> C 	 -34.5357 	 44.2311 	 93.0385
| 20> H 	 -35.2335 	 44.2924 	 92.2241
| 21> H 	 -34.7587 	 43.3084 	 93.5028
| 22> H 	 -34.7216 	 45.1026 	 93.7246
| 23> S 	 -33.6063 	 48.9732 	 95.1979
| 24> C 	 -33.3519 	 50.647 	 95.5188
| 25> C 	 -32.0581 	 50.812 	 95.9274
| 26> C 	 -31.2254 	 49.5995 	 95.9626
| 27> C 	 -32.0304 	 48.5183 	 95.628
| 28> H 	 -31.7502 	 51.8449 	 95.995
| 29> C 	 -29.7568 	 49.5517 	 96.3396
| 30> H 	 -29.4593 	 50.5629 	 95.908
| 31> H 	 -29.254 	 48.8709 	 95.7124
| 32> C 	 -29.3986 	 49.546 	 97.814
| 33> H 	 -28.3166 	 49.3245 	 97.9325
| 34> H 	 -29.8614 	 48.7085 	 98.3645
| 35> C 	 -29.7355 	 50.807 	 98.6432
| 36> H 	 -29.2839 	 50.8386 	 99.6104
| 37> H 	 -30.8356 	 50.8715 	 98.7499
| 38> H 	 -29.4939 	 51.7616 	 98.1001
| 39> H 	 -30.4941 	 43.7379 	 96.0205
| 40> H 	 -34.1106 	 51.4666 	 95.3091
| 41> *
| 42>
| 43>                          ****END OF INPUT****

CARTESIAN COORDINATES (ANGSTROEM)
---------------------------------
  S    -30.827300   46.151300   96.720700
  C    -30.885300   44.683200   95.717300
  C    -31.779800   44.854700   94.645300
  C    -32.237900   46.237400   94.533300
  C    -31.808200   47.056200   95.574000
  H    -32.932900   46.671200   93.756700
  C    -32.098200   43.830900   93.675100
  H    -32.307700   42.938100   94.202500
  H    -31.093800   43.703700   93.278800
  C    -33.140800   44.158800   92.548000
  H    -32.826800   45.051900   92.051400
  H    -33.031600   43.424400   91.717100
  C    -34.535700   44.231100   93.038500
  H    -35.233500   44.292400   92.224100
  H    -34.758700   43.308400   93.502800
  H    -34.721600   45.102600   93.724600
  S    -33.606300   48.973200   95.197900
  C    -33.351900   50.647000   95.518800
  C    -32.058100   50.812000   95.927400
  C    -31.225400   49.599500   95.962600
  C    -32.030400   48.518300   95.628000
  H    -31.750200   51.844900   95.995000
  C    -29.756800   49.551700   96.339600
  H    -29.459300   50.562900   95.908000
  H    -29.254000   48.870900   95.712400
  C    -29.398600   49.546000   97.814000
  H    -28.316600   49.324500   97.932500
  H    -29.861400   48.708500   98.364500
  C    -29.735500   50.807000   98.643200
  H    -29.283900   50.838600   99.610400
  H    -30.835600   50.871500   98.749900
  H    -29.493900   51.761600   98.100100
  H    -30.494100   43.737900   96.020500
  H    -34.110600   51.466600   95.309100

 Total Charge           Charge          ....    0
 Multiplicity           Mult            ....    1
 Number of Electrons    NEL             ....  134
 Basis Dimension        Dim             ....  322

ORBITAL ENERGIES
----------------

  NO   OCC          E(Eh)            E(eV)
   0   2.0000     -88.967619     -2420.9320
   1   2.0000     -88.960649     -2420.7423
   2   2.0000     -10.332892      -281.1723
   3   2.0000     -10.324605      -280.9468
   4   2.0000     -10.317530      -280.7543
   5   2.0000     -10.312486      -280.6170
   6   2.0000     -10.306882      -280.4645
   7   2.0000     -10.305260      -280.4204
   8   2.0000     -10.299291      -280.2579
   9   2.0000     -10.294746      -280.1343
  10   2.0000     -10.293170      -280.0914
  11   2.0000     -10.288659      -279.9686
  12   2.0000     -10.287776      -279.9446
  13   2.0000     -10.285449      -279.8813
  14   2.0000     -10.277641      -279.6688
  15   2.0000     -10.273396      -279.5533
  16   2.0000      -8.080952      -219.8939
  17   2.0000      -8.077034      -219.7873
  18   2.0000      -6.039591      -164.3456
  19   2.0000      -6.035635      -164.2380
  20   2.0000      -6.035502      -164.2344
  21   2.0000      -6.031704      -164.1310
  22   2.0000      -6.031157      -164.1161
  23   2.0000      -6.027896      -164.0274
  24   2.0000      -1.008923       -27.4542
  25   2.0000      -0.981341       -26.7036
  26   2.0000      -0.918788       -25.0015
  27   2.0000      -0.906769       -24.6744
  28   2.0000      -0.872432       -23.7401
  29   2.0000      -0.850892       -23.1539
  30   2.0000      -0.843073       -22.9412
  31   2.0000      -0.814914       -22.1749
  32   2.0000      -0.784320       -21.3424
  33   2.0000      -0.771838       -21.0028
  34   2.0000      -0.712701       -19.3936
  35   2.0000      -0.699553       -19.0358
  36   2.0000      -0.688409       -18.7326
  37   2.0000      -0.661953       -18.0127
  38   2.0000      -0.627791       -17.0831
  39   2.0000      -0.619277       -16.8514
  40   2.0000      -0.591314       -16.0905
  41   2.0000      -0.569937       -15.5088
  42   2.0000      -0.558196       -15.1893
  43   2.0000      -0.550617       -14.9830
  44   2.0000      -0.540724       -14.7139
  45   2.0000      -0.531664       -14.4673
  46   2.0000      -0.523485       -14.2448
  47   2.0000      -0.511725       -13.9247
  48   2.0000      -0.502943       -13.6858
  49   2.0000      -0.496730       -13.5167
  50   2.0000      -0.487786       -13.2733
  51   2.0000      -0.481410       -13.0998
  52   2.0000      -0.474977       -12.9248
  53   2.0000      -0.466751       -12.7009
  54   2.0000      -0.459524       -12.5043
  55   2.0000      -0.449454       -12.2303
  56   2.0000      -0.442406       -12.0385
  57   2.0000      -0.439993       -11.9728
  58   2.0000      -0.428636       -11.6638
  59   2.0000      -0.422109       -11.4862
  60   2.0000      -0.419488       -11.4148
  61   2.0000      -0.416318       -11.3286
  62   2.0000      -0.403173       -10.9709
  63   2.0000      -0.352193        -9.5837
  64   2.0000      -0.326806        -8.8929
  65   2.0000      -0.322041        -8.7632
  66   2.0000      -0.290032        -7.8922
  67   0.0000       0.028523         0.7761
  68   0.0000       0.080670         2.1951
  69   0.0000       0.110518         3.0073
  70   0.0000       0.114641         3.1195
  71   0.0000       0.138076         3.7572

MULLIKEN ATOMIC CHARGES
-----------------------
   0 S :    0.107704
   1 C :   -0.129557
   2 C :   -0.094699
   3 C :   -0.030285
   4 C :   -0.112987
   5 H :    0.046594
   6 C :    0.062465
   7 H :    0.019703
   8 H :    0.044199
   9 C :   -0.066501
  10 H :    0.019403
  11 H :    0.028150
  12 C :   -0.017177
  13 H :    0.025909
  14 H :    0.017773
  15 H :    0.049143
  16 S :    0.093148
  17 C :   -0.120632
  18 C :   -0.044532
  19 C :   -0.063322
  20 C :   -0.152215
  21 H :    0.017178
  22 C :    0.080368
  23 H :    0.024693
  24 H :    0.025808
  25 C :   -0.051651
  26 H :    0.032851
  27 H :    0.029581
  28 C :   -0.069037
  29 H :    0.038619
  30 H :    0.039955
  31 H :    0.024334
  32 H :    0.039146
  33 H :    0.085870
Sum of atomic charges:   -0.0000000

LOEWDIN ATOMIC CHARGES
----------------------
   0 S :    0.397828
   1 C :   -0.202458
   2 C :   -0.049360
   3 C :   -0.083562
   4 C :   -0.190453
   5 H :    0.035933
   6 C :   -0.038414
   7 H :    0.027910
   8 H :    0.047088
   9 C :   -0.040648
  10 H :    0.019001
  11 H :    0.031204
  12 C :   -0.062831
  13 H :    0.025675
  14 H :    0.021588
  15 H :    0.033782
  16 S :    0.437335
  17 C :   -0.211071
  18 C :   -0.076524
  19 C :   -0.062291
  20 C :   -0.206499
  21 H :    0.028739
  22 C :   -0.035289
  23 H :    0.041609
  24 H :    0.027403
  25 C :   -0.045345
  26 H :    0.028597
  27 H :    0.023434
  28 C :   -0.069597
  29 H :    0.024363
  30 H :    0.028480
  31 H :    0.024483
  32 H :    0.021520
  33 H :    0.048372

  Mayer bond orders larger than 0.100000
B(  0-S ,  1-C ) :   1.1211 B(  0-S ,  4-C ) :   1.1535 B(  1-C ,  2-C ) :   1.6044
B(  1-C , 32-H ) :   0.9751 B(  2-C ,  3-C ) :   1.2424 B(  2-C ,  6-C ) :   1.0067
B(  3-C ,  4-C ) :   1.5659 B(  3-C ,  5-H ) :   0.9652 B(  4-C , 20-C ) :   1.0114
B(  6-C ,  7-H ) :   0.9330 B(  6-C ,  8-H ) :   0.9296 B(  6-C ,  9-C ) :   1.0901
B(  9-C , 10-H ) :   0.9442 B(  9-C , 11-H ) :   0.9505 B(  9-C , 12-C ) :   1.0846
B( 12-C , 13-H ) :   0.9688 B( 12-C , 14-H ) :   0.9700 B( 12-C , 15-H ) :   0.9713
B( 16-S , 17-C ) :   1.1468 B( 16-S , 20-C ) :   1.1730 B( 17-C , 18-C ) :   1.6247
B( 17-C , 33-H ) :   0.9597 B( 18-C , 19-C ) :   1.2200 B( 18-C , 21-H ) :   0.9864
B( 19-C , 20-C ) :   1.5811 B( 19-C , 22-C ) :   1.0328 B( 22-C , 23-H ) :   0.9322
B( 22-C , 24-H ) :   0.9346 B( 22-C , 25-C ) :   1.0662 B( 25-C , 26-H ) :   0.9547
B( 25-C , 27-H ) :   0.9518 B( 25-C , 28-C ) :   1.0751 B( 28-C , 29-H ) :   0.9742
B( 28-C , 30-H ) :   0.9734 B( 28-C , 31-H ) :   0.9748

Dispersion correction           -0.014792827
FINAL SINGLE POINT ENERGY     -1339.875601588301

DIPOLE MOMENT
-------------
                                X             Y             Z
Electronic contribution:     -3.11970       1.98633       2.95267
Nuclear contribution   :      3.17849      -2.08851      -3.31923
                        -----------------------------------------
Total Dipole Moment    :      0.05879      -0.10218      -0.36656
                        -----------------------------------------
Magnitude (a.u.)       :      0.38505
Magnitude (Debye)      :      0.97873

Rotational constants in cm-1:     0.023502     0.008474     0.006577
Rotational constants in MHz :   704.557676   254.039891   197.160771

                             ****ORCA TERMINATED NORMALLY****
TOTAL RUN TIME: 0 days 0 hours 0 minutes 28 seconds 521 msec
