                         Program Version 4.2.1 -  RELEASE  -
|  1> ! wB97X-D3 SP def2-SVP
|  2> %pal
|  3> nprocs 16
|  4> end
|  5>
|  6> * xyz 0 1
|  7> S 	 18.2146 	 9.12163 	 87.2731
|  8> C 	 19.2761 	 9.75883 	 86.0208
|  9> C 	 18.5839 	 10.2402 	 84.9616
| 10> C 	 17.1558 	 10.1119 	 85.137
| 11> C 	 16.7542 	 9.48291 	 86.351
| 12> H 	 16.4696 	 10.5531 	 84.4934
| 13> C 	 19.0936 	 10.7553 	 83.645
| 14> H 	 18.2245 	 10.9601 	 82.997
| 15> H 	 19.6414 	 9.96318 	 83.154
| 16> C 	 19.8482 	 12.0143 	 83.7205
| 17> H 	 20.9118 	 11.8721 	 84.0639
| 18> H 	 19.8751 	 12.2697 	 82.6371
| 19> C 	 19.2201 	 13.267 	 84.3695
| 20> H 	 18.1226 	 13.3338 	 84.1055
| 21> H 	 19.1543 	 13.0435 	 85.4069
| 22> H 	 19.7054 	 14.2697 	 84.2955
| 23> S 	 15.0159 	 10.3292 	 88.3011
| 24> C 	 13.2881 	 9.88841 	 88.172
| 25> C 	 13.0809 	 9.16508 	 87.0283
| 26> C 	 14.242 	 8.90448 	 86.2393
| 27> C 	 15.3958 	 9.41481 	 86.8235
| 28> H 	 12.0755 	 8.7838 	 86.7673
| 29> C 	 14.1556 	 7.96235 	 85.0419
| 30> H 	 14.1793 	 6.95481 	 85.4987
| 31> H 	 15.0223 	 8.05441 	 84.3909
| 32> C 	 12.833 	 8.14456 	 84.1347
| 33> H 	 11.8473 	 7.77816 	 84.6368
| 34> H 	 13.0766 	 7.49064 	 83.3067
| 35> C 	 12.7824 	 9.56501 	 83.5118
| 36> H 	 13.7869 	 9.93584 	 83.2142
| 37> H 	 12.4018 	 10.3144 	 84.1795
| 38> H 	 12.1351 	 9.61621 	 82.6316
| 39> H 	 20.3723 	 9.51582 	 86.0615
| 40> H 	 12.5171 	 10.4167 	 88.6748
| 41> *
| 42>
| 43>                          ****END OF INPUT****

CARTESIAN COORDINATES (ANGSTROEM)
---------------------------------
  S     18.214600    9.121630   87.273100
  C     19.276100    9.758830   86.020800
  C     18.583900   10.240200   84.961600
  C     17.155800   10.111900   85.137000
  C     16.754200    9.482910   86.351000
  H     16.469600   10.553100   84.493400
  C     19.093600   10.755300   83.645000
  H     18.224500   10.960100   82.997000
  H     19.641400    9.963180   83.154000
  C     19.848200   12.014300   83.720500
  H     20.911800   11.872100   84.063900
  H     19.875100   12.269700   82.637100
  C     19.220100   13.267000   84.369500
  H     18.122600   13.333800   84.105500
  H     19.154300   13.043500   85.406900
  H     19.705400   14.269700   84.295500
  S     15.015900   10.329200   88.301100
  C     13.288100    9.888410   88.172000
  C     13.080900    9.165080   87.028300
  C     14.242000    8.904480   86.239300
  C     15.395800    9.414810   86.823500
  H     12.075500    8.783800   86.767300
  C     14.155600    7.962350   85.041900
  H     14.179300    6.954810   85.498700
  H     15.022300    8.054410   84.390900
  C     12.833000    8.144560   84.134700
  H     11.847300    7.778160   84.636800
  H     13.076600    7.490640   83.306700
  C     12.782400    9.565010   83.511800
  H     13.786900    9.935840   83.214200
  H     12.401800   10.314400   84.179500
  H     12.135100    9.616210   82.631600
  H     20.372300    9.515820   86.061500
  H     12.517100   10.416700   88.674800

 Total Charge           Charge          ....    0
 Multiplicity           Mult            ....    1
 Number of Electrons    NEL             ....  134
 Basis Dimension        Dim             ....  322

ORBITAL ENERGIES
----------------

  NO   OCC          E(Eh)            E(eV)
   0   2.0000     -88.966806     -2420.9099
   1   2.0000     -88.962652     -2420.7968
   2   2.0000     -10.333936      -281.2007
   3   2.0000     -10.328979      -281.0658
   4   2.0000     -10.317115      -280.7430
   5   2.0000     -10.316166      -280.7172
   6   2.0000     -10.304069      -280.3880
   7   2.0000     -10.303777      -280.3800
   8   2.0000     -10.299619      -280.2669
   9   2.0000     -10.297924      -280.2208
  10   2.0000     -10.295079      -280.1434
  11   2.0000     -10.293292      -280.0947
  12   2.0000     -10.291740      -280.0525
  13   2.0000     -10.289051      -279.9793
  14   2.0000     -10.281539      -279.7749
  15   2.0000     -10.280031      -279.7339
  16   2.0000      -8.081039      -219.8962
  17   2.0000      -8.076628      -219.7762
  18   2.0000      -6.039696      -164.3485
  19   2.0000      -6.035475      -164.2336
  20   2.0000      -6.035270      -164.2280
  21   2.0000      -6.031811      -164.1339
  22   2.0000      -6.031261      -164.1189
  23   2.0000      -6.027265      -164.0102
  24   2.0000      -1.001361       -27.2484
  25   2.0000      -0.979943       -26.6656
  26   2.0000      -0.919950       -25.0331
  27   2.0000      -0.898873       -24.4596
  28   2.0000      -0.870513       -23.6879
  29   2.0000      -0.845882       -23.0176
  30   2.0000      -0.840908       -22.8823
  31   2.0000      -0.810024       -22.0419
  32   2.0000      -0.786660       -21.4061
  33   2.0000      -0.774083       -21.0639
  34   2.0000      -0.708551       -19.2807
  35   2.0000      -0.698901       -19.0181
  36   2.0000      -0.693540       -18.8722
  37   2.0000      -0.658854       -17.9283
  38   2.0000      -0.638820       -17.3832
  39   2.0000      -0.609498       -16.5853
  40   2.0000      -0.594456       -16.1760
  41   2.0000      -0.577639       -15.7183
  42   2.0000      -0.557142       -15.1606
  43   2.0000      -0.551632       -15.0107
  44   2.0000      -0.538092       -14.6422
  45   2.0000      -0.531587       -14.4652
  46   2.0000      -0.517477       -14.0813
  47   2.0000      -0.510784       -13.8991
  48   2.0000      -0.498369       -13.5613
  49   2.0000      -0.493450       -13.4275
  50   2.0000      -0.489390       -13.3170
  51   2.0000      -0.475987       -12.9523
  52   2.0000      -0.474270       -12.9055
  53   2.0000      -0.468936       -12.7604
  54   2.0000      -0.457601       -12.4520
  55   2.0000      -0.450698       -12.2641
  56   2.0000      -0.440855       -11.9963
  57   2.0000      -0.438849       -11.9417
  58   2.0000      -0.432907       -11.7800
  59   2.0000      -0.427601       -11.6356
  60   2.0000      -0.417202       -11.3526
  61   2.0000      -0.410982       -11.1834
  62   2.0000      -0.398831       -10.8527
  63   2.0000      -0.347869        -9.4660
  64   2.0000      -0.331643        -9.0245
  65   2.0000      -0.327511        -8.9120
  66   2.0000      -0.291864        -7.9420
  67   0.0000       0.028187         0.7670
  68   0.0000       0.060666         1.6508
  69   0.0000       0.112401         3.0586
  70   0.0000       0.117722         3.2034
  71   0.0000       0.126794         3.4502

MULLIKEN ATOMIC CHARGES
-----------------------
   0 S :    0.104083
   1 C :   -0.157285
   2 C :   -0.083712
   3 C :    0.048543
   4 C :   -0.162047
   5 H :   -0.013211
   6 C :    0.094590
   7 H :    0.013673
   8 H :    0.040960
   9 C :   -0.101071
  10 H :    0.039551
  11 H :    0.029061
  12 C :   -0.060522
  13 H :    0.024515
  14 H :    0.029716
  15 H :    0.055653
  16 S :    0.089089
  17 C :   -0.076530
  18 C :   -0.045695
  19 C :   -0.032948
  20 C :   -0.152643
  21 H :    0.028136
  22 C :    0.045815
  23 H :    0.055941
  24 H :    0.026734
  25 C :   -0.111899
  26 H :    0.057328
  27 H :    0.036525
  28 C :   -0.050429
  29 H :    0.029384
  30 H :    0.032673
  31 H :    0.035967
  32 H :    0.072871
  33 H :    0.057183
Sum of atomic charges:    0.0000000

LOEWDIN ATOMIC CHARGES
----------------------
   0 S :    0.398413
   1 C :   -0.201311
   2 C :   -0.069785
   3 C :   -0.051282
   4 C :   -0.194643
   5 H :    0.015419
   6 C :   -0.031385
   7 H :    0.032700
   8 H :    0.038310
   9 C :   -0.050670
  10 H :    0.026559
  11 H :    0.028602
  12 C :   -0.075726
  13 H :    0.030029
  14 H :    0.020985
  15 H :    0.035926
  16 S :    0.377358
  17 C :   -0.172238
  18 C :   -0.069841
  19 C :   -0.061811
  20 C :   -0.189073
  21 H :    0.035124
  22 C :   -0.027976
  23 H :    0.041277
  24 H :    0.027749
  25 C :   -0.046534
  26 H :    0.033938
  27 H :    0.026109
  28 C :   -0.070194
  29 H :    0.028462
  30 H :    0.022387
  31 H :    0.026888
  32 H :    0.039875
  33 H :    0.026359

  Mayer bond orders larger than 0.100000
B(  0-S ,  1-C ) :   1.1325 B(  0-S ,  4-C ) :   1.1551 B(  1-C ,  2-C ) :   1.6113
B(  1-C , 32-H ) :   0.9606 B(  2-C ,  3-C ) :   1.2583 B(  2-C ,  6-C ) :   1.0094
B(  3-C ,  4-C ) :   1.5417 B(  3-C ,  5-H ) :   0.9976 B(  4-C , 20-C ) :   1.0551
B(  6-C ,  7-H ) :   0.9371 B(  6-C ,  8-H ) :   0.9334 B(  6-C ,  9-C ) :   1.0882
B(  9-C , 10-H ) :   0.9534 B(  9-C , 11-H ) :   0.9565 B(  9-C , 12-C ) :   1.0663
B( 12-C , 13-H ) :   0.9703 B( 12-C , 14-H ) :   0.9697 B( 12-C , 15-H ) :   0.9766
B( 16-S , 17-C ) :   1.1357 B( 16-S , 20-C ) :   1.1339 B( 17-C , 18-C ) :   1.6288
B( 17-C , 33-H ) :   0.9661 B( 18-C , 19-C ) :   1.2389 B( 18-C , 21-H ) :   0.9784
B( 19-C , 20-C ) :   1.6023 B( 19-C , 22-C ) :   1.0314 B( 22-C , 23-H ) :   0.9403
B( 22-C , 24-H ) :   0.9377 B( 22-C , 25-C ) :   1.0673 B( 25-C , 26-H ) :   0.9524
B( 25-C , 27-H ) :   0.9586 B( 25-C , 28-C ) :   1.0634 B( 28-C , 29-H ) :   0.9739
B( 28-C , 30-H ) :   0.9742 B( 28-C , 31-H ) :   0.9761

Dispersion correction           -0.014702586
FINAL SINGLE POINT ENERGY     -1339.870775953035

DIPOLE MOMENT
-------------
                                X             Y             Z
Electronic contribution:      2.55055      -6.71925      23.82034
Nuclear contribution   :     -2.74480       6.73037     -24.58989
                        -----------------------------------------
Total Dipole Moment    :     -0.19425       0.01113      -0.76955
                        -----------------------------------------
Magnitude (a.u.)       :      0.79377
Magnitude (Debye)      :      2.01760

Rotational constants in cm-1:     0.019013     0.008414     0.007049
Rotational constants in MHz :   570.005391   252.250928   211.321559

                             ****ORCA TERMINATED NORMALLY****
TOTAL RUN TIME: 0 days 0 hours 0 minutes 34 seconds 903 msec
