                         Program Version 4.2.1 -  RELEASE  -
|  1> ! wB97X-D3 SP def2-SVP
|  2> %pal
|  3> nprocs 16
|  4> end
|  5>
|  6> * xyz 0 1
|  7> S 	 -10.1747 	 60.4276 	 62.2747
|  8> C 	 -10.0202 	 58.6887 	 62.4582
|  9> C 	 -11.2629 	 58.0799 	 62.4935
| 10> C 	 -12.2714 	 59.0412 	 62.2563
| 11> C 	 -11.8744 	 60.3581 	 62.1008
| 12> H 	 -13.3381 	 58.9087 	 62.3392
| 13> C 	 -11.5367 	 56.5633 	 62.6068
| 14> H 	 -11.3072 	 55.9739 	 61.7156
| 15> H 	 -12.6237 	 56.5305 	 62.7163
| 16> C 	 -10.9189 	 55.9551 	 63.8586
| 17> H 	 -11.2725 	 54.968 	 64.0846
| 18> H 	 -9.86463 	 55.8943 	 64.0063
| 19> C 	 -11.4056 	 56.6023 	 65.2088
| 20> H 	 -11.6542 	 57.6124 	 65.1854
| 21> H 	 -12.2927 	 56.0622 	 65.5854
| 22> H 	 -10.6268 	 56.4531 	 65.963
| 23> S 	 -12.5017 	 62.6841 	 63.6295
| 24> C 	 -13.4836 	 63.9008 	 62.8455
| 25> C 	 -13.9983 	 63.42 	 61.6285
| 26> C 	 -13.4687 	 62.1541 	 61.2559
| 27> C 	 -12.6726 	 61.5708 	 62.2329
| 28> H 	 -14.7396 	 63.9481 	 61.1096
| 29> C 	 -13.7714 	 61.567 	 59.8662
| 30> H 	 -14.7518 	 62.0748 	 59.7065
| 31> H 	 -13.7922 	 60.4838 	 59.8568
| 32> C 	 -12.9179 	 62.088 	 58.7094
| 33> H 	 -12.9608 	 63.2162 	 58.7914
| 34> H 	 -13.2811 	 61.8965 	 57.6614
| 35> C 	 -11.4688 	 61.8142 	 58.8676
| 36> H 	 -11.0659 	 62.0993 	 59.8415
| 37> H 	 -10.8969 	 62.3251 	 58.0561
| 38> H 	 -11.313 	 60.7268 	 58.8947
| 39> H 	 -9.06734 	 58.1733 	 62.5003
| 40> H 	 -13.7405 	 64.8907 	 63.1642
| 41> *
| 42>
| 43>                          ****END OF INPUT****

CARTESIAN COORDINATES (ANGSTROEM)
---------------------------------
  S    -10.174700   60.427600   62.274700
  C    -10.020200   58.688700   62.458200
  C    -11.262900   58.079900   62.493500
  C    -12.271400   59.041200   62.256300
  C    -11.874400   60.358100   62.100800
  H    -13.338100   58.908700   62.339200
  C    -11.536700   56.563300   62.606800
  H    -11.307200   55.973900   61.715600
  H    -12.623700   56.530500   62.716300
  C    -10.918900   55.955100   63.858600
  H    -11.272500   54.968000   64.084600
  H     -9.864630   55.894300   64.006300
  C    -11.405600   56.602300   65.208800
  H    -11.654200   57.612400   65.185400
  H    -12.292700   56.062200   65.585400
  H    -10.626800   56.453100   65.963000
  S    -12.501700   62.684100   63.629500
  C    -13.483600   63.900800   62.845500
  C    -13.998300   63.420000   61.628500
  C    -13.468700   62.154100   61.255900
  C    -12.672600   61.570800   62.232900
  H    -14.739600   63.948100   61.109600
  C    -13.771400   61.567000   59.866200
  H    -14.751800   62.074800   59.706500
  H    -13.792200   60.483800   59.856800
  C    -12.917900   62.088000   58.709400
  H    -12.960800   63.216200   58.791400
  H    -13.281100   61.896500   57.661400
  C    -11.468800   61.814200   58.867600
  H    -11.065900   62.099300   59.841500
  H    -10.896900   62.325100   58.056100
  H    -11.313000   60.726800   58.894700
  H     -9.067340   58.173300   62.500300
  H    -13.740500   64.890700   63.164200

 Total Charge           Charge          ....    0
 Multiplicity           Mult            ....    1
 Number of Electrons    NEL             ....  134
 Basis Dimension        Dim             ....  322

ORBITAL ENERGIES
----------------

  NO   OCC          E(Eh)            E(eV)
   0   2.0000     -88.971384     -2421.0344
   1   2.0000     -88.966984     -2420.9147
   2   2.0000     -10.328964      -281.0654
   3   2.0000     -10.325359      -280.9673
   4   2.0000     -10.321677      -280.8671
   5   2.0000     -10.317046      -280.7411
   6   2.0000     -10.304677      -280.4045
   7   2.0000     -10.304671      -280.4043
   8   2.0000     -10.300531      -280.2917
   9   2.0000     -10.293771      -280.1077
  10   2.0000     -10.292989      -280.0865
  11   2.0000     -10.292651      -280.0773
  12   2.0000     -10.285537      -279.8837
  13   2.0000     -10.283109      -279.8176
  14   2.0000     -10.269592      -279.4498
  15   2.0000     -10.266992      -279.3790
  16   2.0000      -8.084939      -220.0024
  17   2.0000      -8.082054      -219.9239
  18   2.0000      -6.043566      -164.4538
  19   2.0000      -6.040414      -164.3680
  20   2.0000      -6.039527      -164.3439
  21   2.0000      -6.036328      -164.2568
  22   2.0000      -6.035712      -164.2401
  23   2.0000      -6.033116      -164.1694
  24   2.0000      -1.009398       -27.4671
  25   2.0000      -0.984035       -26.7770
  26   2.0000      -0.911978       -24.8162
  27   2.0000      -0.909552       -24.7502
  28   2.0000      -0.867861       -23.6157
  29   2.0000      -0.850311       -23.1381
  30   2.0000      -0.845297       -23.0017
  31   2.0000      -0.811861       -22.0919
  32   2.0000      -0.786432       -21.3999
  33   2.0000      -0.773600       -21.0507
  34   2.0000      -0.706235       -19.2176
  35   2.0000      -0.701399       -19.0860
  36   2.0000      -0.685386       -18.6503
  37   2.0000      -0.660673       -17.9778
  38   2.0000      -0.647426       -17.6173
  39   2.0000      -0.613490       -16.6939
  40   2.0000      -0.592819       -16.1314
  41   2.0000      -0.575851       -15.6697
  42   2.0000      -0.554711       -15.0945
  43   2.0000      -0.552475       -15.0336
  44   2.0000      -0.545908       -14.8549
  45   2.0000      -0.539472       -14.6798
  46   2.0000      -0.514892       -14.0109
  47   2.0000      -0.511405       -13.9160
  48   2.0000      -0.504013       -13.7149
  49   2.0000      -0.501274       -13.6403
  50   2.0000      -0.493500       -13.4288
  51   2.0000      -0.474239       -12.9047
  52   2.0000      -0.467826       -12.7302
  53   2.0000      -0.461979       -12.5711
  54   2.0000      -0.458872       -12.4865
  55   2.0000      -0.448870       -12.2144
  56   2.0000      -0.444686       -12.1005
  57   2.0000      -0.432919       -11.7803
  58   2.0000      -0.429863       -11.6972
  59   2.0000      -0.421493       -11.4694
  60   2.0000      -0.414490       -11.2788
  61   2.0000      -0.411512       -11.1978
  62   2.0000      -0.399890       -10.8816
  63   2.0000      -0.339952        -9.2506
  64   2.0000      -0.337876        -9.1941
  65   2.0000      -0.328041        -8.9264
  66   2.0000      -0.299505        -8.1499
  67   0.0000       0.030813         0.8385
  68   0.0000       0.056310         1.5323
  69   0.0000       0.115192         3.1345
  70   0.0000       0.118863         3.2344
  71   0.0000       0.127103         3.4587

MULLIKEN ATOMIC CHARGES
-----------------------
   0 S :    0.115143
   1 C :   -0.131291
   2 C :   -0.092161
   3 C :    0.037382
   4 C :   -0.183527
   5 H :    0.008111
   6 C :    0.118820
   7 H :    0.052762
   8 H :    0.016578
   9 C :   -0.072627
  10 H :    0.021827
  11 H :    0.027050
  12 C :   -0.079617
  13 H :    0.031321
  14 H :    0.026537
  15 H :    0.027577
  16 S :    0.124733
  17 C :   -0.084954
  18 C :   -0.022041
  19 C :   -0.060939
  20 C :   -0.162953
  21 H :    0.002476
  22 C :    0.097995
  23 H :    0.026355
  24 H :    0.032122
  25 C :   -0.088356
  26 H :    0.017162
  27 H :    0.042996
  28 C :   -0.043143
  29 H :    0.026106
  30 H :    0.041379
  31 H :    0.021782
  32 H :    0.053513
  33 H :    0.051881
Sum of atomic charges:    0.0000000

LOEWDIN ATOMIC CHARGES
----------------------
   0 S :    0.433922
   1 C :   -0.187299
   2 C :   -0.066995
   3 C :   -0.062814
   4 C :   -0.214764
   5 H :    0.028774
   6 C :   -0.024061
   7 H :    0.036627
   8 H :    0.033766
   9 C :   -0.045231
  10 H :    0.026339
  11 H :    0.019099
  12 C :   -0.060935
  13 H :    0.012767
  14 H :    0.023843
  15 H :    0.027131
  16 S :    0.397670
  17 C :   -0.180140
  18 C :   -0.067545
  19 C :   -0.051107
  20 C :   -0.200887
  21 H :    0.021954
  22 C :   -0.027631
  23 H :    0.039268
  24 H :    0.026737
  25 C :   -0.053054
  26 H :    0.025745
  27 H :    0.030315
  28 C :   -0.072463
  29 H :    0.019683
  30 H :    0.030923
  31 H :    0.021622
  32 H :    0.029130
  33 H :    0.029611

  Mayer bond orders larger than 0.100000
B(  0-S ,  1-C ) :   1.1683 B(  0-S ,  4-C ) :   1.1631 B(  1-C ,  2-C ) :   1.5647
B(  1-C , 32-H ) :   0.9739 B(  2-C ,  3-C ) :   1.2806 B(  2-C ,  6-C ) :   1.0004
B(  3-C ,  4-C ) :   1.5672 B(  3-C ,  5-H ) :   0.9872 B(  4-C , 20-C ) :   1.0340
B(  6-C ,  7-H ) :   0.9444 B(  6-C ,  8-H ) :   0.9396 B(  6-C ,  9-C ) :   1.0653
B(  9-C , 10-H ) :   0.9613 B(  9-C , 11-H ) :   0.9707 B(  9-C , 12-C ) :   1.0540
B( 12-C , 13-H ) :   0.9798 B( 12-C , 14-H ) :   0.9845 B( 12-C , 15-H ) :   0.9786
B( 16-S , 17-C ) :   1.1607 B( 16-S , 20-C ) :   1.1256 B( 17-C , 18-C ) :   1.6009
B( 17-C , 33-H ) :   0.9661 B( 18-C , 19-C ) :   1.2620 B( 18-C , 21-H ) :   0.9913
B( 19-C , 20-C ) :   1.5886 B( 19-C , 22-C ) :   1.0278 B( 22-C , 23-H ) :   0.9282
B( 22-C , 24-H ) :   0.9381 B( 22-C , 25-C ) :   1.0733 B( 25-C , 26-H ) :   0.9489
B( 25-C , 27-H ) :   0.9558 B( 25-C , 28-C ) :   1.0858 B( 28-C , 29-H ) :   0.9674
B( 28-C , 30-H ) :   0.9708 B( 28-C , 31-H ) :   0.9712

Dispersion correction           -0.015477143
FINAL SINGLE POINT ENERGY     -1339.867220143690

DIPOLE MOMENT
-------------
                                X             Y             Z
Electronic contribution:      2.41180      14.71684       6.89821
Nuclear contribution   :     -2.66443     -15.00685      -7.05446
                        -----------------------------------------
Total Dipole Moment    :     -0.25263      -0.29001      -0.15625
                        -----------------------------------------
Magnitude (a.u.)       :      0.41514
Magnitude (Debye)      :      1.05521

Rotational constants in cm-1:     0.022663     0.008352     0.007279
Rotational constants in MHz :   679.409779   250.400981   218.207443

                             ****ORCA TERMINATED NORMALLY****
TOTAL RUN TIME: 0 days 0 hours 0 minutes 32 seconds 447 msec
