                         Program Version 4.2.1 -  RELEASE  -
|  1> ! wB97X-D3 SP def2-SVP
|  2> %pal
|  3> nprocs 16
|  4> end
|  5>
|  6> * xyz 0 1
|  7> S 	 2.45568 	 -1.57711 	 81.8613
|  8> C 	 2.51802 	 -1.96444 	 83.5249
|  9> C 	 1.80697 	 -3.14163 	 83.8646
| 10> C 	 1.24222 	 -3.74156 	 82.7221
| 11> C 	 1.42416 	 -2.99987 	 81.5922
| 12> H 	 0.875051 	 -4.72307 	 82.6621
| 13> C 	 1.88317 	 -3.86267 	 85.1478
| 14> H 	 0.924487 	 -3.99732 	 85.6173
| 15> H 	 2.41092 	 -3.25727 	 85.9464
| 16> C 	 2.60431 	 -5.1847 	 85.1038
| 17> H 	 2.90155 	 -5.31832 	 86.158
| 18> H 	 1.86325 	 -5.95075 	 84.776
| 19> C 	 3.94475 	 -5.27278 	 84.4388
| 20> H 	 3.90669 	 -5.47434 	 83.3507
| 21> H 	 4.56563 	 -4.39621 	 84.6948
| 22> H 	 4.53544 	 -6.05565 	 84.9233
| 23> S 	 -0.300804 	 -2.31618 	 79.5053
| 24> C 	 -0.245171 	 -3.16731 	 77.9801
| 25> C 	 0.607164 	 -4.20142 	 78.0211
| 26> C 	 1.29362 	 -4.2834 	 79.3199
| 27> C 	 0.864884 	 -3.35925 	 80.2522
| 28> H 	 0.794229 	 -4.79789 	 77.1217
| 29> C 	 2.19366 	 -5.48091 	 79.6033
| 30> H 	 3.126 	 -5.16857 	 80.0442
| 31> H 	 2.39192 	 -5.84542 	 78.6393
| 32> C 	 1.59834 	 -6.75249 	 80.3084
| 33> H 	 0.899133 	 -6.21824 	 81.0063
| 34> H 	 2.32616 	 -7.34013 	 80.8921
| 35> C 	 0.691126 	 -7.55316 	 79.2689
| 36> H 	 0.0233548 	 -8.21487 	 79.8732
| 37> H 	 1.29916 	 -8.15756 	 78.6533
| 38> H 	 0.0411586 	 -6.97045 	 78.609
| 39> H 	 3.23441 	 -1.48792 	 84.2351
| 40> H 	 -0.852082 	 -2.90658 	 77.1613
| 41> *
| 42>
| 43>                          ****END OF INPUT****

CARTESIAN COORDINATES (ANGSTROEM)
---------------------------------
  S      2.455680   -1.577110   81.861300
  C      2.518020   -1.964440   83.524900
  C      1.806970   -3.141630   83.864600
  C      1.242220   -3.741560   82.722100
  C      1.424160   -2.999870   81.592200
  H      0.875051   -4.723070   82.662100
  C      1.883170   -3.862670   85.147800
  H      0.924487   -3.997320   85.617300
  H      2.410920   -3.257270   85.946400
  C      2.604310   -5.184700   85.103800
  H      2.901550   -5.318320   86.158000
  H      1.863250   -5.950750   84.776000
  C      3.944750   -5.272780   84.438800
  H      3.906690   -5.474340   83.350700
  H      4.565630   -4.396210   84.694800
  H      4.535440   -6.055650   84.923300
  S     -0.300804   -2.316180   79.505300
  C     -0.245171   -3.167310   77.980100
  C      0.607164   -4.201420   78.021100
  C      1.293620   -4.283400   79.319900
  C      0.864884   -3.359250   80.252200
  H      0.794229   -4.797890   77.121700
  C      2.193660   -5.480910   79.603300
  H      3.126000   -5.168570   80.044200
  H      2.391920   -5.845420   78.639300
  C      1.598340   -6.752490   80.308400
  H      0.899133   -6.218240   81.006300
  H      2.326160   -7.340130   80.892100
  C      0.691126   -7.553160   79.268900
  H      0.023355   -8.214870   79.873200
  H      1.299160   -8.157560   78.653300
  H      0.041159   -6.970450   78.609000
  H      3.234410   -1.487920   84.235100
  H     -0.852082   -2.906580   77.161300

 Total Charge           Charge          ....    0
 Multiplicity           Mult            ....    1
 Number of Electrons    NEL             ....  134
 Basis Dimension        Dim             ....  322

ORBITAL ENERGIES
----------------

  NO   OCC          E(Eh)            E(eV)
   0   2.0000     -88.971179     -2421.0289
   1   2.0000     -88.959437     -2420.7093
   2   2.0000     -10.330223      -281.0997
   3   2.0000     -10.324974      -280.9568
   4   2.0000     -10.317074      -280.7419
   5   2.0000     -10.311164      -280.5810
   6   2.0000     -10.303653      -280.3767
   7   2.0000     -10.297722      -280.2153
   8   2.0000     -10.297627      -280.2127
   9   2.0000     -10.294336      -280.1231
  10   2.0000     -10.288211      -279.9564
  11   2.0000     -10.288179      -279.9556
  12   2.0000     -10.286785      -279.9176
  13   2.0000     -10.281968      -279.7866
  14   2.0000     -10.281807      -279.7822
  15   2.0000     -10.279287      -279.7136
  16   2.0000      -8.085837      -220.0268
  17   2.0000      -8.075023      -219.7326
  18   2.0000      -6.044181      -164.4705
  19   2.0000      -6.040436      -164.3686
  20   2.0000      -6.036690      -164.2667
  21   2.0000      -6.033555      -164.1814
  22   2.0000      -6.029322      -164.0662
  23   2.0000      -6.025784      -163.9699
  24   2.0000      -1.006760       -27.3953
  25   2.0000      -0.987642       -26.8751
  26   2.0000      -0.919815       -25.0294
  27   2.0000      -0.901084       -24.5198
  28   2.0000      -0.869301       -23.6549
  29   2.0000      -0.855322       -23.2745
  30   2.0000      -0.837825       -22.7984
  31   2.0000      -0.820247       -22.3201
  32   2.0000      -0.784242       -21.3403
  33   2.0000      -0.771016       -20.9804
  34   2.0000      -0.707158       -19.2427
  35   2.0000      -0.694152       -18.8888
  36   2.0000      -0.686177       -18.6718
  37   2.0000      -0.661826       -18.0092
  38   2.0000      -0.642573       -17.4853
  39   2.0000      -0.625876       -17.0310
  40   2.0000      -0.589697       -16.0465
  41   2.0000      -0.571418       -15.5491
  42   2.0000      -0.563263       -15.3272
  43   2.0000      -0.549566       -14.9545
  44   2.0000      -0.545011       -14.8305
  45   2.0000      -0.541690       -14.7401
  46   2.0000      -0.513056       -13.9610
  47   2.0000      -0.506495       -13.7824
  48   2.0000      -0.501799       -13.6546
  49   2.0000      -0.495071       -13.4716
  50   2.0000      -0.486536       -13.2393
  51   2.0000      -0.480311       -13.0699
  52   2.0000      -0.476320       -12.9613
  53   2.0000      -0.466949       -12.7063
  54   2.0000      -0.462973       -12.5981
  55   2.0000      -0.452748       -12.3199
  56   2.0000      -0.443551       -12.0696
  57   2.0000      -0.440122       -11.9763
  58   2.0000      -0.428279       -11.6541
  59   2.0000      -0.423045       -11.5116
  60   2.0000      -0.413612       -11.2550
  61   2.0000      -0.410730       -11.1765
  62   2.0000      -0.401638       -10.9291
  63   2.0000      -0.345048        -9.3892
  64   2.0000      -0.331681        -9.0255
  65   2.0000      -0.323877        -8.8131
  66   2.0000      -0.301369        -8.2007
  67   0.0000       0.043356         1.1798
  68   0.0000       0.057996         1.5781
  69   0.0000       0.112682         3.0662
  70   0.0000       0.124896         3.3986
  71   0.0000       0.127057         3.4574

MULLIKEN ATOMIC CHARGES
-----------------------
   0 S :    0.140584
   1 C :   -0.134649
   2 C :   -0.060821
   3 C :    0.042176
   4 C :   -0.145943
   5 H :   -0.004625
   6 C :    0.061062
   7 H :    0.029773
   8 H :    0.012447
   9 C :   -0.112701
  10 H :    0.029216
  11 H :    0.040689
  12 C :   -0.035087
  13 H :    0.045643
  14 H :    0.022791
  15 H :    0.028473
  16 S :    0.094503
  17 C :   -0.075400
  18 C :   -0.026566
  19 C :   -0.073973
  20 C :   -0.166577
  21 H :    0.032786
  22 C :    0.101206
  23 H :    0.027606
  24 H :   -0.011964
  25 C :   -0.088305
  26 H :    0.034955
  27 H :    0.046929
  28 C :   -0.065640
  29 H :    0.036168
  30 H :    0.027237
  31 H :    0.042919
  32 H :    0.063972
  33 H :    0.041117
Sum of atomic charges:    0.0000000

LOEWDIN ATOMIC CHARGES
----------------------
   0 S :    0.422026
   1 C :   -0.214723
   2 C :   -0.065919
   3 C :   -0.047772
   4 C :   -0.185589
   5 H :    0.024356
   6 C :   -0.042643
   7 H :    0.032240
   8 H :    0.031402
   9 C :   -0.050925
  10 H :    0.033266
  11 H :    0.025761
  12 C :   -0.070593
  13 H :    0.027602
  14 H :    0.029582
  15 H :    0.028794
  16 S :    0.406009
  17 C :   -0.173072
  18 C :   -0.077356
  19 C :   -0.055258
  20 C :   -0.207842
  21 H :    0.036931
  22 C :   -0.033163
  23 H :    0.027707
  24 H :    0.016944
  25 C :   -0.037493
  26 H :    0.023672
  27 H :    0.029037
  28 C :   -0.064924
  29 H :    0.030731
  30 H :    0.015959
  31 H :    0.028286
  32 H :    0.034959
  33 H :    0.022009

  Mayer bond orders larger than 0.100000
B(  0-S ,  1-C ) :   1.1613 B(  0-S ,  4-C ) :   1.1528 B(  1-C ,  2-C ) :   1.5844
B(  1-C , 32-H ) :   0.9555 B(  2-C ,  3-C ) :   1.2477 B(  2-C ,  6-C ) :   1.0503
B(  3-C ,  4-C ) :   1.5890 B(  3-C ,  5-H ) :   0.9984 B(  4-C , 20-C ) :   1.0056
B(  6-C ,  7-H ) :   0.9295 B(  6-C ,  8-H ) :   0.9392 B(  6-C ,  9-C ) :   1.0789
B(  9-C , 10-H ) :   0.9568 B(  9-C , 11-H ) :   0.9512 B(  9-C , 12-C ) :   1.0861
B( 12-C , 13-H ) :   0.9698 B( 12-C , 14-H ) :   0.9674 B( 12-C , 15-H ) :   0.9739
B( 16-S , 17-C ) :   1.1547 B( 16-S , 20-C ) :   1.1372 B( 17-C , 18-C ) :   1.6331
B( 17-C , 33-H ) :   0.9706 B( 18-C , 19-C ) :   1.2187 B( 18-C , 21-H ) :   0.9830
B( 19-C , 20-C ) :   1.6185 B( 19-C , 22-C ) :   1.0634 B( 22-C , 23-H ) :   0.9287
B( 22-C , 24-H ) :   0.9300 B( 22-C , 25-C ) :   1.0402 B( 25-C , 26-H ) :   0.9600
B( 25-C , 27-H ) :   0.9593 B( 25-C , 28-C ) :   1.0623 B( 28-C , 29-H ) :   0.9760
B( 28-C , 30-H ) :   0.9775 B( 28-C , 31-H ) :   0.9767

Dispersion correction           -0.015877076
FINAL SINGLE POINT ENERGY     -1339.865440779311

DIPOLE MOMENT
-------------
                                X             Y             Z
Electronic contribution:     -7.59338      25.47213      -9.70015
Nuclear contribution   :      7.88872     -26.09356       9.85700
                        -----------------------------------------
Total Dipole Moment    :      0.29533      -0.62143       0.15685
                        -----------------------------------------
Magnitude (a.u.)       :      0.70569
Magnitude (Debye)      :      1.79372

Rotational constants in cm-1:     0.018922     0.010024     0.007325
Rotational constants in MHz :   567.276246   300.504198   219.612121

                             ****ORCA TERMINATED NORMALLY****
TOTAL RUN TIME: 0 days 0 hours 0 minutes 37 seconds 334 msec
