                         Program Version 4.2.1 -  RELEASE  -
|  1> ! wB97X-D3 SP def2-SVP
|  2> %pal
|  3> nprocs 16
|  4> end
|  5>
|  6> * xyz 0 1
|  7> S 	 6.55099 	 -10.7303 	 77.224
|  8> C 	 5.49962 	 -11.8176 	 78.1043
|  9> C 	 5.63703 	 -13.1362 	 77.7253
| 10> C 	 6.72464 	 -13.3428 	 76.7908
| 11> C 	 7.42722 	 -12.1525 	 76.5528
| 12> H 	 6.90686 	 -14.2097 	 76.1639
| 13> C 	 4.67328 	 -14.2282 	 78.1092
| 14> H 	 3.87465 	 -13.7532 	 78.741
| 15> H 	 4.93926 	 -15.0448 	 78.6555
| 16> C 	 3.94977 	 -14.7258 	 76.8255
| 17> H 	 3.43415 	 -13.8876 	 76.3566
| 18> H 	 4.72437 	 -15.1428 	 76.1304
| 19> C 	 2.99819 	 -15.9739 	 77.1187
| 20> H 	 2.06827 	 -15.6184 	 77.5218
| 21> H 	 2.7279 	 -16.4678 	 76.139
| 22> H 	 3.44057 	 -16.6632 	 77.7704
| 23> S 	 8.92406 	 -10.3922 	 75.1329
| 24> C 	 10.1829 	 -10.966 	 73.9936
| 25> C 	 10.4072 	 -12.299 	 74.2167
| 26> C 	 9.45684 	 -12.8863 	 75.0871
| 27> C 	 8.50565 	 -12.0021 	 75.5191
| 28> H 	 11.2849 	 -12.7279 	 73.7594
| 29> C 	 9.51734 	 -14.3816 	 75.1994
| 30> H 	 8.57566 	 -14.8231 	 74.6901
| 31> H 	 9.32663 	 -14.6119 	 76.233
| 32> C 	 10.6873 	 -15.141 	 74.6406
| 33> H 	 11.6265 	 -14.8021 	 75.1621
| 34> H 	 10.885 	 -14.8842 	 73.5735
| 35> C 	 10.5255 	 -16.6442 	 74.8806
| 36> H 	 11.3088 	 -17.1977 	 74.4945
| 37> H 	 9.62992 	 -17.1336 	 74.4966
| 38> H 	 10.4773 	 -16.8659 	 75.9542
| 39> H 	 4.72211 	 -11.4947 	 78.7099
| 40> H 	 10.8645 	 -10.2575 	 73.4248
| 41> *
| 42>
| 43>                          ****END OF INPUT****

CARTESIAN COORDINATES (ANGSTROEM)
---------------------------------
  S      6.550990  -10.730300   77.224000
  C      5.499620  -11.817600   78.104300
  C      5.637030  -13.136200   77.725300
  C      6.724640  -13.342800   76.790800
  C      7.427220  -12.152500   76.552800
  H      6.906860  -14.209700   76.163900
  C      4.673280  -14.228200   78.109200
  H      3.874650  -13.753200   78.741000
  H      4.939260  -15.044800   78.655500
  C      3.949770  -14.725800   76.825500
  H      3.434150  -13.887600   76.356600
  H      4.724370  -15.142800   76.130400
  C      2.998190  -15.973900   77.118700
  H      2.068270  -15.618400   77.521800
  H      2.727900  -16.467800   76.139000
  H      3.440570  -16.663200   77.770400
  S      8.924060  -10.392200   75.132900
  C     10.182900  -10.966000   73.993600
  C     10.407200  -12.299000   74.216700
  C      9.456840  -12.886300   75.087100
  C      8.505650  -12.002100   75.519100
  H     11.284900  -12.727900   73.759400
  C      9.517340  -14.381600   75.199400
  H      8.575660  -14.823100   74.690100
  H      9.326630  -14.611900   76.233000
  C     10.687300  -15.141000   74.640600
  H     11.626500  -14.802100   75.162100
  H     10.885000  -14.884200   73.573500
  C     10.525500  -16.644200   74.880600
  H     11.308800  -17.197700   74.494500
  H      9.629920  -17.133600   74.496600
  H     10.477300  -16.865900   75.954200
  H      4.722110  -11.494700   78.709900
  H     10.864500  -10.257500   73.424800

 Total Charge           Charge          ....    0
 Multiplicity           Mult            ....    1
 Number of Electrons    NEL             ....  134
 Basis Dimension        Dim             ....  322

ORBITAL ENERGIES
----------------

  NO   OCC          E(Eh)            E(eV)
   0   2.0000     -88.969183     -2420.9746
   1   2.0000     -88.962274     -2420.7865
   2   2.0000     -10.338827      -281.3338
   3   2.0000     -10.326186      -280.9898
   4   2.0000     -10.321411      -280.8599
   5   2.0000     -10.310252      -280.5562
   6   2.0000     -10.304241      -280.3926
   7   2.0000     -10.299754      -280.2706
   8   2.0000     -10.298578      -280.2385
   9   2.0000     -10.296699      -280.1874
  10   2.0000     -10.295099      -280.1439
  11   2.0000     -10.293633      -280.1040
  12   2.0000     -10.290981      -280.0318
  13   2.0000     -10.288864      -279.9742
  14   2.0000     -10.280796      -279.7547
  15   2.0000     -10.276636      -279.6415
  16   2.0000      -8.083010      -219.9499
  17   2.0000      -8.077545      -219.8012
  18   2.0000      -6.041685      -164.4026
  19   2.0000      -6.037913      -164.3000
  20   2.0000      -6.036029      -164.2487
  21   2.0000      -6.033394      -164.1770
  22   2.0000      -6.032202      -164.1446
  23   2.0000      -6.028099      -164.0329
  24   2.0000      -1.008248       -27.4358
  25   2.0000      -0.982751       -26.7420
  26   2.0000      -0.916661       -24.9436
  27   2.0000      -0.907332       -24.6898
  28   2.0000      -0.867253       -23.5992
  29   2.0000      -0.855017       -23.2662
  30   2.0000      -0.841357       -22.8945
  31   2.0000      -0.817425       -22.2433
  32   2.0000      -0.780476       -21.2378
  33   2.0000      -0.773891       -21.0586
  34   2.0000      -0.712746       -19.3948
  35   2.0000      -0.701404       -19.0862
  36   2.0000      -0.693109       -18.8604
  37   2.0000      -0.658523       -17.9193
  38   2.0000      -0.641013       -17.4428
  39   2.0000      -0.622370       -16.9356
  40   2.0000      -0.600596       -16.3430
  41   2.0000      -0.576613       -15.6904
  42   2.0000      -0.567788       -15.4503
  43   2.0000      -0.557534       -15.1713
  44   2.0000      -0.530393       -14.4327
  45   2.0000      -0.520119       -14.1532
  46   2.0000      -0.515932       -14.0392
  47   2.0000      -0.511693       -13.9239
  48   2.0000      -0.503937       -13.7128
  49   2.0000      -0.496463       -13.5094
  50   2.0000      -0.489871       -13.3301
  51   2.0000      -0.479682       -13.0528
  52   2.0000      -0.474059       -12.8998
  53   2.0000      -0.463716       -12.6184
  54   2.0000      -0.459528       -12.5044
  55   2.0000      -0.454183       -12.3589
  56   2.0000      -0.448497       -12.2042
  57   2.0000      -0.445789       -12.1305
  58   2.0000      -0.434998       -11.8369
  59   2.0000      -0.425727       -11.5846
  60   2.0000      -0.419984       -11.4284
  61   2.0000      -0.413990       -11.2652
  62   2.0000      -0.413733       -11.2583
  63   2.0000      -0.361750        -9.8437
  64   2.0000      -0.334389        -9.0992
  65   2.0000      -0.323340        -8.7985
  66   2.0000      -0.283238        -7.7073
  67   0.0000       0.018479         0.5028
  68   0.0000       0.078595         2.1387
  69   0.0000       0.089889         2.4460
  70   0.0000       0.117441         3.1957
  71   0.0000       0.131345         3.5741

MULLIKEN ATOMIC CHARGES
-----------------------
   0 S :    0.087307
   1 C :   -0.075608
   2 C :   -0.060543
   3 C :   -0.028208
   4 C :   -0.094463
   5 H :    0.022688
   6 C :    0.101227
   7 H :    0.014347
   8 H :    0.006771
   9 C :   -0.147420
  10 H :    0.043166
  11 H :    0.039728
  12 C :   -0.033894
  13 H :    0.028554
  14 H :    0.041566
  15 H :    0.026154
  16 S :    0.069255
  17 C :   -0.104529
  18 C :   -0.048447
  19 C :   -0.025446
  20 C :   -0.112619
  21 H :    0.022878
  22 C :   -0.012715
  23 H :    0.054081
  24 H :    0.024881
  25 C :   -0.082121
  26 H :    0.036385
  27 H :    0.042269
  28 C :    0.000699
  29 H :    0.015855
  30 H :    0.023545
  31 H :    0.026112
  32 H :    0.021240
  33 H :    0.077304
Sum of atomic charges:    0.0000000

LOEWDIN ATOMIC CHARGES
----------------------
   0 S :    0.377134
   1 C :   -0.183861
   2 C :   -0.054558
   3 C :   -0.066710
   4 C :   -0.164324
   5 H :    0.031707
   6 C :   -0.027677
   7 H :    0.033533
   8 H :    0.012616
   9 C :   -0.034235
  10 H :    0.025835
  11 H :    0.023419
  12 C :   -0.062545
  13 H :    0.020911
  14 H :    0.034081
  15 H :    0.015381
  16 S :    0.395222
  17 C :   -0.179748
  18 C :   -0.071317
  19 C :   -0.065614
  20 C :   -0.200240
  21 H :    0.033865
  22 C :   -0.043007
  23 H :    0.040900
  24 H :    0.027847
  25 C :   -0.046643
  26 H :    0.030920
  27 H :    0.027350
  28 C :   -0.059114
  29 H :    0.017436
  30 H :    0.025499
  31 H :    0.029717
  32 H :    0.014411
  33 H :    0.041809

  Mayer bond orders larger than 0.100000
B(  0-S ,  1-C ) :   1.1193 B(  0-S ,  4-C ) :   1.1351 B(  1-C ,  2-C ) :   1.6429
B(  1-C , 32-H ) :   0.9699 B(  2-C ,  3-C ) :   1.2025 B(  2-C ,  6-C ) :   1.0335
B(  3-C ,  4-C ) :   1.5922 B(  3-C ,  5-H ) :   0.9868 B(  4-C , 20-C ) :   1.0614
B(  6-C ,  7-H ) :   0.9406 B(  6-C ,  8-H ) :   0.9441 B(  6-C ,  9-C ) :   1.0461
B(  9-C , 10-H ) :   0.9607 B(  9-C , 11-H ) :   0.9616 B(  9-C , 12-C ) :   1.0687
B( 12-C , 13-H ) :   0.9786 B( 12-C , 14-H ) :   0.9770 B( 12-C , 15-H ) :   0.9759
B( 16-S , 17-C ) :   1.1444 B( 16-S , 20-C ) :   1.1338 B( 17-C , 18-C ) :   1.6084
B( 17-C , 33-H ) :   0.9576 B( 18-C , 19-C ) :   1.2499 B( 18-C , 21-H ) :   0.9864
B( 19-C , 20-C ) :   1.5941 B( 19-C , 22-C ) :   1.0316 B( 22-C , 23-H ) :   0.9297
B( 22-C , 24-H ) :   0.9195 B( 22-C , 25-C ) :   1.0859 B( 25-C , 26-H ) :   0.9466
B( 25-C , 27-H ) :   0.9383 B( 25-C , 28-C ) :   1.0806 B( 28-C , 29-H ) :   0.9700
B( 28-C , 30-H ) :   0.9738 B( 28-C , 31-H ) :   0.9720

Dispersion correction           -0.013268198
FINAL SINGLE POINT ENERGY     -1339.858885392751

DIPOLE MOMENT
-------------
                                X             Y             Z
Electronic contribution:      5.64043      31.16766       1.28068
Nuclear contribution   :     -5.64057     -31.93065      -1.41604
                        -----------------------------------------
Total Dipole Moment    :     -0.00014      -0.76299      -0.13536
                        -----------------------------------------
Magnitude (a.u.)       :      0.77491
Magnitude (Debye)      :      1.96965

Rotational constants in cm-1:     0.016193     0.008933     0.006092
Rotational constants in MHz :   485.456457   267.811948   182.646316

                             ****ORCA TERMINATED NORMALLY****
TOTAL RUN TIME: 0 days 0 hours 0 minutes 27 seconds 717 msec
