                         Program Version 4.2.1 -  RELEASE  -
|  1> ! wB97X-D3 SP def2-SVP
|  2> %pal
|  3> nprocs 16
|  4> end
|  5>
|  6> * xyz 0 1
|  7> S 	 8.73737 	 22.6912 	 60.4465
|  8> C 	 9.25968 	 21.0073 	 60.3672
|  9> C 	 8.4561 	 20.1627 	 61.1022
| 10> C 	 7.34064 	 20.8462 	 61.6212
| 11> C 	 7.31275 	 22.1889 	 61.3318
| 12> H 	 6.50827 	 20.4668 	 62.2155
| 13> C 	 8.69765 	 18.7062 	 61.3452
| 14> H 	 8.99787 	 18.2128 	 60.3745
| 15> H 	 7.78983 	 18.2567 	 61.7125
| 16> C 	 9.78278 	 18.4439 	 62.3929
| 17> H 	 10.2337 	 17.492 	 62.2077
| 18> H 	 10.5329 	 19.188 	 62.1645
| 19> C 	 9.37213 	 18.6061 	 63.8377
| 20> H 	 8.65781 	 17.8054 	 64.1743
| 21> H 	 10.2344 	 18.3205 	 64.3977
| 22> H 	 8.98337 	 19.6366 	 64.0719
| 23> S 	 6.82546 	 24.7035 	 62.1359
| 24> C 	 5.1896 	 25.2456 	 62.5707
| 25> C 	 4.32029 	 24.2595 	 62.3237
| 26> C 	 4.91209 	 23.0401 	 61.8893
| 27> C 	 6.28877 	 23.1178 	 61.7835
| 28> H 	 3.28211 	 24.4491 	 62.5348
| 29> C 	 4.07092 	 21.8543 	 61.5435
| 30> H 	 4.66131 	 21.0974 	 61.092
| 31> H 	 3.38399 	 22.2247 	 60.8081
| 32> C 	 3.43146 	 21.2483 	 62.7851
| 33> H 	 2.54236 	 21.683 	 63.0457
| 34> H 	 4.15778 	 21.4806 	 63.6401
| 35> C 	 3.21863 	 19.7505 	 62.5187
| 36> H 	 2.97455 	 19.4283 	 63.4873
| 37> H 	 4.13278 	 19.1887 	 62.1962
| 38> H 	 2.33989 	 19.6584 	 61.8122
| 39> H 	 10.3305 	 20.8517 	 60.0003
| 40> H 	 4.91723 	 26.2088 	 62.9498
| 41> *
| 42>
| 43>                          ****END OF INPUT****

CARTESIAN COORDINATES (ANGSTROEM)
---------------------------------
  S      8.737370   22.691200   60.446500
  C      9.259680   21.007300   60.367200
  C      8.456100   20.162700   61.102200
  C      7.340640   20.846200   61.621200
  C      7.312750   22.188900   61.331800
  H      6.508270   20.466800   62.215500
  C      8.697650   18.706200   61.345200
  H      8.997870   18.212800   60.374500
  H      7.789830   18.256700   61.712500
  C      9.782780   18.443900   62.392900
  H     10.233700   17.492000   62.207700
  H     10.532900   19.188000   62.164500
  C      9.372130   18.606100   63.837700
  H      8.657810   17.805400   64.174300
  H     10.234400   18.320500   64.397700
  H      8.983370   19.636600   64.071900
  S      6.825460   24.703500   62.135900
  C      5.189600   25.245600   62.570700
  C      4.320290   24.259500   62.323700
  C      4.912090   23.040100   61.889300
  C      6.288770   23.117800   61.783500
  H      3.282110   24.449100   62.534800
  C      4.070920   21.854300   61.543500
  H      4.661310   21.097400   61.092000
  H      3.383990   22.224700   60.808100
  C      3.431460   21.248300   62.785100
  H      2.542360   21.683000   63.045700
  H      4.157780   21.480600   63.640100
  C      3.218630   19.750500   62.518700
  H      2.974550   19.428300   63.487300
  H      4.132780   19.188700   62.196200
  H      2.339890   19.658400   61.812200
  H     10.330500   20.851700   60.000300
  H      4.917230   26.208800   62.949800

 Total Charge           Charge          ....    0
 Multiplicity           Mult            ....    1
 Number of Electrons    NEL             ....  134
 Basis Dimension        Dim             ....  322

ORBITAL ENERGIES
----------------

  NO   OCC          E(Eh)            E(eV)
   0   2.0000     -88.967103     -2420.9180
   1   2.0000     -88.959002     -2420.6975
   2   2.0000     -10.327557      -281.0271
   3   2.0000     -10.321270      -280.8560
   4   2.0000     -10.318368      -280.7771
   5   2.0000     -10.312805      -280.6257
   6   2.0000     -10.300737      -280.2973
   7   2.0000     -10.296511      -280.1823
   8   2.0000     -10.290866      -280.0287
   9   2.0000     -10.290581      -280.0210
  10   2.0000     -10.287502      -279.9372
  11   2.0000     -10.283140      -279.8185
  12   2.0000     -10.282956      -279.8135
  13   2.0000     -10.280242      -279.7396
  14   2.0000     -10.279775      -279.7269
  15   2.0000     -10.278116      -279.6817
  16   2.0000      -8.081659      -219.9131
  17   2.0000      -8.074503      -219.7184
  18   2.0000      -6.040119      -164.3600
  19   2.0000      -6.036292      -164.2559
  20   2.0000      -6.033054      -164.1678
  21   2.0000      -6.032390      -164.1497
  22   2.0000      -6.028942      -164.0559
  23   2.0000      -6.025140      -163.9524
  24   2.0000      -1.012259       -27.5450
  25   2.0000      -0.988357       -26.8946
  26   2.0000      -0.918150       -24.9841
  27   2.0000      -0.915431       -24.9101
  28   2.0000      -0.874085       -23.7851
  29   2.0000      -0.854068       -23.2404
  30   2.0000      -0.846805       -23.0427
  31   2.0000      -0.819100       -22.2888
  32   2.0000      -0.781829       -21.2747
  33   2.0000      -0.769475       -20.9385
  34   2.0000      -0.703675       -19.1480
  35   2.0000      -0.702886       -19.1265
  36   2.0000      -0.695869       -18.9356
  37   2.0000      -0.664500       -18.0820
  38   2.0000      -0.637925       -17.3588
  39   2.0000      -0.616900       -16.7867
  40   2.0000      -0.598753       -16.2929
  41   2.0000      -0.577418       -15.7123
  42   2.0000      -0.575564       -15.6619
  43   2.0000      -0.557152       -15.1609
  44   2.0000      -0.538288       -14.6476
  45   2.0000      -0.530276       -14.4295
  46   2.0000      -0.516262       -14.0482
  47   2.0000      -0.509797       -13.8723
  48   2.0000      -0.503248       -13.6941
  49   2.0000      -0.497174       -13.5288
  50   2.0000      -0.487052       -13.2534
  51   2.0000      -0.482078       -13.1180
  52   2.0000      -0.478395       -13.0178
  53   2.0000      -0.469036       -12.7631
  54   2.0000      -0.461044       -12.5457
  55   2.0000      -0.451786       -12.2937
  56   2.0000      -0.441994       -12.0273
  57   2.0000      -0.435813       -11.8591
  58   2.0000      -0.428969       -11.6728
  59   2.0000      -0.427092       -11.6218
  60   2.0000      -0.423049       -11.5118
  61   2.0000      -0.415991       -11.3197
  62   2.0000      -0.408861       -11.1257
  63   2.0000      -0.357827        -9.7370
  64   2.0000      -0.335811        -9.1379
  65   2.0000      -0.325589        -8.8597
  66   2.0000      -0.286045        -7.7837
  67   0.0000       0.027110         0.7377
  68   0.0000       0.077632         2.1125
  69   0.0000       0.104324         2.8388
  70   0.0000       0.125217         3.4073
  71   0.0000       0.126193         3.4339

MULLIKEN ATOMIC CHARGES
-----------------------
   0 S :    0.108309
   1 C :   -0.167366
   2 C :   -0.059656
   3 C :   -0.007065
   4 C :   -0.122327
   5 H :    0.006089
   6 C :    0.075727
   7 H :    0.042335
   8 H :    0.008734
   9 C :   -0.056493
  10 H :    0.019852
  11 H :    0.016281
  12 C :   -0.055898
  13 H :    0.028211
  14 H :    0.027923
  15 H :    0.059230
  16 S :    0.075544
  17 C :   -0.076726
  18 C :   -0.019558
  19 C :   -0.088791
  20 C :   -0.133915
  21 H :    0.011964
  22 C :    0.125341
  23 H :   -0.000948
  24 H :    0.027939
  25 C :   -0.093453
  26 H :    0.010447
  27 H :    0.046262
  28 C :   -0.049428
  29 H :    0.021269
  30 H :    0.046232
  31 H :    0.048970
  32 H :    0.079449
  33 H :    0.045515
Sum of atomic charges:    0.0000000

LOEWDIN ATOMIC CHARGES
----------------------
   0 S :    0.397280
   1 C :   -0.204771
   2 C :   -0.064211
   3 C :   -0.071317
   4 C :   -0.185933
   5 H :    0.032651
   6 C :   -0.030934
   7 H :    0.041039
   8 H :    0.023183
   9 C :   -0.040383
  10 H :    0.020405
  11 H :    0.021935
  12 C :   -0.070110
  13 H :    0.027672
  14 H :    0.025893
  15 H :    0.035680
  16 S :    0.395322
  17 C :   -0.167407
  18 C :   -0.070178
  19 C :   -0.060593
  20 C :   -0.205077
  21 H :    0.031720
  22 C :   -0.029329
  23 H :    0.020461
  24 H :    0.031688
  25 C :   -0.034272
  26 H :    0.010217
  27 H :    0.031924
  28 C :   -0.062812
  29 H :    0.018537
  30 H :    0.028145
  31 H :    0.036261
  32 H :    0.039448
  33 H :    0.027867

  Mayer bond orders larger than 0.100000
B(  0-S ,  1-C ) :   1.1332 B(  0-S ,  4-C ) :   1.1538 B(  1-C ,  2-C ) :   1.5974
B(  1-C , 32-H ) :   0.9565 B(  2-C ,  3-C ) :   1.2423 B(  2-C ,  6-C ) :   1.0272
B(  3-C ,  4-C ) :   1.5680 B(  3-C ,  5-H ) :   0.9949 B(  4-C , 20-C ) :   1.0538
B(  6-C ,  7-H ) :   0.9379 B(  6-C ,  8-H ) :   0.9409 B(  6-C ,  9-C ) :   1.0659
B(  9-C , 10-H ) :   0.9528 B(  9-C , 11-H ) :   0.9552 B(  9-C , 12-C ) :   1.0891
B( 12-C , 13-H ) :   0.9708 B( 12-C , 14-H ) :   0.9689 B( 12-C , 15-H ) :   0.9721
B( 16-S , 17-C ) :   1.1339 B( 16-S , 20-C ) :   1.1321 B( 17-C , 18-C ) :   1.6356
B( 17-C , 33-H ) :   0.9719 B( 18-C , 19-C ) :   1.2196 B( 18-C , 21-H ) :   0.9950
B( 19-C , 20-C ) :   1.5939 B( 19-C , 22-C ) :   1.0588 B( 22-C , 23-H ) :   0.9387
B( 22-C , 24-H ) :   0.9168 B( 22-C , 25-C ) :   1.0392 B( 25-C , 26-H ) :   0.9476
B( 25-C , 27-H ) :   0.9643 B( 25-C , 28-C ) :   1.0844 B( 28-C , 29-H ) :   0.9740
B( 28-C , 30-H ) :   0.9756 B( 28-C , 31-H ) :   0.9701

Dispersion correction           -0.014608241
FINAL SINGLE POINT ENERGY     -1339.876764279489

DIPOLE MOMENT
-------------
                                X             Y             Z
Electronic contribution:      7.78271      25.64838      -9.29599
Nuclear contribution   :     -8.15977     -26.14394       9.56247
                        -----------------------------------------
Total Dipole Moment    :     -0.37706      -0.49556       0.26648
                        -----------------------------------------
Magnitude (a.u.)       :      0.67732
Magnitude (Debye)      :      1.72162

Rotational constants in cm-1:     0.017621     0.009674     0.007119
Rotational constants in MHz :   528.255362   290.025162   213.430888

                             ****ORCA TERMINATED NORMALLY****
TOTAL RUN TIME: 0 days 0 hours 0 minutes 36 seconds 632 msec
