                         Program Version 4.2.1 -  RELEASE  -
|  1> ! wB97X-D3 SP def2-SVP
|  2> %pal
|  3> nprocs 16
|  4> end
|  5>
|  6> * xyz 0 1
|  7> S 	 60.5675 	 16.5624 	 79.9381
|  8> C 	 62.0795 	 15.7726 	 79.5175
|  9> C 	 61.9808 	 15.0455 	 78.3377
| 10> C 	 60.7411 	 15.1932 	 77.6578
| 11> C 	 59.8937 	 16.0841 	 78.3041
| 12> H 	 60.4956 	 14.609 	 76.8044
| 13> C 	 63.105 	 13.9997 	 77.8643
| 14> H 	 63.8037 	 14.0677 	 78.7191
| 15> H 	 63.5713 	 14.5641 	 77.1118
| 16> C 	 62.663 	 12.5034 	 77.5717
| 17> H 	 61.8444 	 12.6169 	 76.8655
| 18> H 	 63.346 	 11.9797 	 76.9607
| 19> C 	 62.4124 	 11.6061 	 78.7528
| 20> H 	 62.557 	 10.6037 	 78.3833
| 21> H 	 62.9523 	 11.8374 	 79.7301
| 22> H 	 61.3263 	 11.6999 	 79.0377
| 23> S 	 57.2198 	 15.652 	 78.6775
| 24> C 	 56.0336 	 16.2275 	 77.5086
| 25> C 	 56.7045 	 16.9345 	 76.4881
| 26> C 	 58.1111 	 17.0602 	 76.6488
| 27> C 	 58.5364 	 16.3673 	 77.7848
| 28> H 	 56.1275 	 17.3541 	 75.665
| 29> C 	 59.0678 	 17.752 	 75.6392
| 30> H 	 58.7839 	 17.4236 	 74.662
| 31> H 	 60.0282 	 17.3522 	 75.9289
| 32> C 	 58.9126 	 19.3069 	 75.5937
| 33> H 	 57.8869 	 19.6057 	 75.5483
| 34> H 	 59.3875 	 19.758 	 74.7116
| 35> C 	 59.5645 	 19.9741 	 76.8272
| 36> H 	 60.6049 	 20.0093 	 76.7143
| 37> H 	 59.4581 	 19.3701 	 77.7585
| 38> H 	 59.2155 	 20.9961 	 76.9425
| 39> H 	 62.9857 	 15.8019 	 80.0942
| 40> H 	 54.9233 	 16.1247 	 77.5849
| 41> *
| 42>
| 43>                          ****END OF INPUT****

CARTESIAN COORDINATES (ANGSTROEM)
---------------------------------
  S     60.567500   16.562400   79.938100
  C     62.079500   15.772600   79.517500
  C     61.980800   15.045500   78.337700
  C     60.741100   15.193200   77.657800
  C     59.893700   16.084100   78.304100
  H     60.495600   14.609000   76.804400
  C     63.105000   13.999700   77.864300
  H     63.803700   14.067700   78.719100
  H     63.571300   14.564100   77.111800
  C     62.663000   12.503400   77.571700
  H     61.844400   12.616900   76.865500
  H     63.346000   11.979700   76.960700
  C     62.412400   11.606100   78.752800
  H     62.557000   10.603700   78.383300
  H     62.952300   11.837400   79.730100
  H     61.326300   11.699900   79.037700
  S     57.219800   15.652000   78.677500
  C     56.033600   16.227500   77.508600
  C     56.704500   16.934500   76.488100
  C     58.111100   17.060200   76.648800
  C     58.536400   16.367300   77.784800
  H     56.127500   17.354100   75.665000
  C     59.067800   17.752000   75.639200
  H     58.783900   17.423600   74.662000
  H     60.028200   17.352200   75.928900
  C     58.912600   19.306900   75.593700
  H     57.886900   19.605700   75.548300
  H     59.387500   19.758000   74.711600
  C     59.564500   19.974100   76.827200
  H     60.604900   20.009300   76.714300
  H     59.458100   19.370100   77.758500
  H     59.215500   20.996100   76.942500
  H     62.985700   15.801900   80.094200
  H     54.923300   16.124700   77.584900

 Total Charge           Charge          ....    0
 Multiplicity           Mult            ....    1
 Number of Electrons    NEL             ....  134
 Basis Dimension        Dim             ....  322

ORBITAL ENERGIES
----------------

  NO   OCC          E(Eh)            E(eV)
   0   2.0000     -88.972422     -2421.0627
   1   2.0000     -88.965394     -2420.8714
   2   2.0000     -10.337974      -281.3106
   3   2.0000     -10.326825      -281.0072
   4   2.0000     -10.323095      -280.9057
   5   2.0000     -10.315991      -280.7124
   6   2.0000     -10.304826      -280.4086
   7   2.0000     -10.303069      -280.3608
   8   2.0000     -10.298338      -280.2320
   9   2.0000     -10.295820      -280.1635
  10   2.0000     -10.295747      -280.1615
  11   2.0000     -10.291844      -280.0553
  12   2.0000     -10.290778      -280.0263
  13   2.0000     -10.284996      -279.8690
  14   2.0000     -10.284508      -279.8557
  15   2.0000     -10.264904      -279.3222
  16   2.0000      -8.085334      -220.0131
  17   2.0000      -8.079913      -219.8656
  18   2.0000      -6.044013      -164.4660
  19   2.0000      -6.040222      -164.3628
  20   2.0000      -6.038434      -164.3141
  21   2.0000      -6.035899      -164.2452
  22   2.0000      -6.034326      -164.2024
  23   2.0000      -6.030807      -164.1066
  24   2.0000      -0.998843       -27.1799
  25   2.0000      -0.976586       -26.5742
  26   2.0000      -0.901375       -24.5276
  27   2.0000      -0.900608       -24.5068
  28   2.0000      -0.865228       -23.5441
  29   2.0000      -0.849442       -23.1145
  30   2.0000      -0.843370       -22.9493
  31   2.0000      -0.810921       -22.0663
  32   2.0000      -0.779679       -21.2161
  33   2.0000      -0.768186       -20.9034
  34   2.0000      -0.707962       -19.2646
  35   2.0000      -0.698595       -19.0097
  36   2.0000      -0.693941       -18.8831
  37   2.0000      -0.655376       -17.8337
  38   2.0000      -0.638646       -17.3784
  39   2.0000      -0.617430       -16.8011
  40   2.0000      -0.587088       -15.9755
  41   2.0000      -0.560498       -15.2519
  42   2.0000      -0.552963       -15.0469
  43   2.0000      -0.546603       -14.8738
  44   2.0000      -0.539864       -14.6904
  45   2.0000      -0.534209       -14.5366
  46   2.0000      -0.522607       -14.2209
  47   2.0000      -0.510512       -13.8917
  48   2.0000      -0.497766       -13.5449
  49   2.0000      -0.491816       -13.3830
  50   2.0000      -0.486796       -13.2464
  51   2.0000      -0.476643       -12.9701
  52   2.0000      -0.470054       -12.7908
  53   2.0000      -0.459013       -12.4904
  54   2.0000      -0.453426       -12.3384
  55   2.0000      -0.445027       -12.1098
  56   2.0000      -0.443557       -12.0698
  57   2.0000      -0.441253       -12.0071
  58   2.0000      -0.433235       -11.7889
  59   2.0000      -0.426322       -11.6008
  60   2.0000      -0.423974       -11.5369
  61   2.0000      -0.412703       -11.2302
  62   2.0000      -0.402463       -10.9516
  63   2.0000      -0.341993        -9.3061
  64   2.0000      -0.330164        -8.9842
  65   2.0000      -0.326033        -8.8718
  66   2.0000      -0.296943        -8.0802
  67   0.0000       0.032319         0.8794
  68   0.0000       0.056131         1.5274
  69   0.0000       0.105713         2.8766
  70   0.0000       0.125833         3.4241
  71   0.0000       0.127965         3.4821

MULLIKEN ATOMIC CHARGES
-----------------------
   0 S :    0.115986
   1 C :   -0.119872
   2 C :   -0.124320
   3 C :    0.058367
   4 C :   -0.164131
   5 H :    0.015020
   6 C :    0.082273
   7 H :    0.007842
   8 H :    0.029905
   9 C :   -0.042002
  10 H :    0.020124
  11 H :    0.016013
  12 C :   -0.066463
  13 H :    0.037201
  14 H :    0.053666
  15 H :    0.044085
  16 S :    0.111226
  17 C :   -0.117484
  18 C :   -0.050620
  19 C :   -0.036498
  20 C :   -0.197901
  21 H :    0.020650
  22 C :    0.117427
  23 H :    0.018080
  24 H :    0.025056
  25 C :   -0.065382
  26 H :    0.024041
  27 H :    0.029777
  28 C :   -0.045680
  29 H :    0.013688
  30 H :    0.035816
  31 H :    0.031655
  32 H :    0.045438
  33 H :    0.077019
Sum of atomic charges:    0.0000000

LOEWDIN ATOMIC CHARGES
----------------------
   0 S :    0.375635
   1 C :   -0.197502
   2 C :   -0.064542
   3 C :   -0.051846
   4 C :   -0.177054
   5 H :    0.029930
   6 C :   -0.023170
   7 H :    0.025461
   8 H :    0.024630
   9 C :   -0.042792
  10 H :    0.025023
  11 H :    0.021148
  12 C :   -0.071383
  13 H :    0.027607
  14 H :    0.038110
  15 H :    0.034554
  16 S :    0.409042
  17 C :   -0.197007
  18 C :   -0.074247
  19 C :   -0.055636
  20 C :   -0.205173
  21 H :    0.030302
  22 C :   -0.017124
  23 H :    0.027219
  24 H :    0.028479
  25 C :   -0.035443
  26 H :    0.019257
  27 H :    0.025243
  28 C :   -0.066137
  29 H :    0.015949
  30 H :    0.029637
  31 H :    0.024326
  32 H :    0.026402
  33 H :    0.041101

  Mayer bond orders larger than 0.100000
B(  0-S ,  1-C ) :   1.1283 B(  0-S ,  4-C ) :   1.1291 B(  1-C ,  2-C ) :   1.6375
B(  1-C , 32-H ) :   0.9617 B(  2-C ,  3-C ) :   1.2475 B(  2-C ,  6-C ) :   0.9864
B(  3-C ,  4-C ) :   1.5702 B(  3-C ,  5-H ) :   0.9936 B(  4-C , 20-C ) :   1.0270
B(  6-C ,  7-H ) :   0.9487 B(  6-C ,  8-H ) :   0.9441 B(  6-C ,  9-C ) :   1.0516
B(  9-C , 10-H ) :   0.9550 B(  9-C , 11-H ) :   0.9612 B(  9-C , 12-C ) :   1.0625
B( 12-C , 13-H ) :   0.9764 B( 12-C , 14-H ) :   0.9763 B( 12-C , 15-H ) :   0.9767
B( 16-S , 17-C ) :   1.1535 B( 16-S , 20-C ) :   1.1637 B( 17-C , 18-C ) :   1.5928
B( 17-C , 20-C ) :   0.1050 B( 17-C , 33-H ) :   0.9642 B( 18-C , 19-C ) :   1.2582
B( 18-C , 21-H ) :   0.9847 B( 19-C , 20-C ) :   1.5776 B( 19-C , 22-C ) :   1.0244
B( 22-C , 23-H ) :   0.9345 B( 22-C , 24-H ) :   0.9386 B( 22-C , 25-C ) :   1.0631
B( 25-C , 26-H ) :   0.9628 B( 25-C , 27-H ) :   0.9586 B( 25-C , 28-C ) :   1.0679
B( 28-C , 29-H ) :   0.9762 B( 28-C , 30-H ) :   0.9774 B( 28-C , 31-H ) :   0.9751

Dispersion correction           -0.014673868
FINAL SINGLE POINT ENERGY     -1339.861355197602

DIPOLE MOMENT
-------------
                                X             Y             Z
Electronic contribution:    -12.81900       2.00462      11.98020
Nuclear contribution   :     13.08148      -2.26608     -12.51687
                        -----------------------------------------
Total Dipole Moment    :      0.26249      -0.26147      -0.53667
                        -----------------------------------------
Magnitude (a.u.)       :      0.65214
Magnitude (Debye)      :      1.65760

Rotational constants in cm-1:     0.019388     0.008141     0.007349
Rotational constants in MHz :   581.235777   244.074396   220.322842

                             ****ORCA TERMINATED NORMALLY****
TOTAL RUN TIME: 0 days 0 hours 0 minutes 27 seconds 988 msec
