                         Program Version 4.2.1 -  RELEASE  -
|  1> ! wB97X-D3 SP def2-SVP
|  2> %pal
|  3> nprocs 16
|  4> end
|  5>
|  6> * xyz 0 1
|  7> S 	 -55.6416 	 38.3659 	 108.092
|  8> C 	 -54.5765 	 39.0864 	 106.9
|  9> C 	 -53.3405 	 38.4104 	 106.911
| 10> C 	 -53.2718 	 37.2658 	 107.777
| 11> C 	 -54.4675 	 37.0996 	 108.429
| 12> H 	 -52.3702 	 36.6498 	 107.919
| 13> C 	 -52.1944 	 38.834 	 105.979
| 14> H 	 -51.9673 	 39.8806 	 106.022
| 15> H 	 -52.5072 	 38.7556 	 104.917
| 16> C 	 -50.8929 	 37.9778 	 105.995
| 17> H 	 -50.6636 	 37.9758 	 107.092
| 18> H 	 -51.2621 	 36.9904 	 105.63
| 19> C 	 -49.9407 	 38.5543 	 105.067
| 20> H 	 -50.2106 	 38.2942 	 104.014
| 21> H 	 -49.7727 	 39.5861 	 105.186
| 22> H 	 -48.9528 	 38.0584 	 105.171
| 23> S 	 -53.8778 	 36.5554 	 111.04
| 24> C 	 -54.569 	 35.1541 	 111.827
| 25> C 	 -55.0803 	 34.33 	 110.854
| 26> C 	 -55.0454 	 34.8459 	 109.485
| 27> C 	 -54.6434 	 36.15 	 109.488
| 28> H 	 -55.4496 	 33.379 	 111.101
| 29> C 	 -55.8165 	 34.1857 	 108.39
| 30> H 	 -55.1001 	 33.7587 	 107.65
| 31> H 	 -56.3983 	 34.9331 	 107.847
| 32> C 	 -56.8345 	 33.1783 	 108.829
| 33> H 	 -57.5037 	 33.2423 	 107.971
| 34> H 	 -57.413 	 33.4606 	 109.742
| 35> C 	 -56.3413 	 31.7132 	 108.817
| 36> H 	 -57.0698 	 30.8941 	 108.897
| 37> H 	 -55.5866 	 31.4902 	 109.563
| 38> H 	 -55.8734 	 31.5318 	 107.778
| 39> H 	 -54.9445 	 39.8666 	 106.307
| 40> H 	 -54.3621 	 34.912 	 112.844
| 41> *
| 42>
| 43>                          ****END OF INPUT****

CARTESIAN COORDINATES (ANGSTROEM)
---------------------------------
  S    -55.641600   38.365900  108.092000
  C    -54.576500   39.086400  106.900000
  C    -53.340500   38.410400  106.911000
  C    -53.271800   37.265800  107.777000
  C    -54.467500   37.099600  108.429000
  H    -52.370200   36.649800  107.919000
  C    -52.194400   38.834000  105.979000
  H    -51.967300   39.880600  106.022000
  H    -52.507200   38.755600  104.917000
  C    -50.892900   37.977800  105.995000
  H    -50.663600   37.975800  107.092000
  H    -51.262100   36.990400  105.630000
  C    -49.940700   38.554300  105.067000
  H    -50.210600   38.294200  104.014000
  H    -49.772700   39.586100  105.186000
  H    -48.952800   38.058400  105.171000
  S    -53.877800   36.555400  111.040000
  C    -54.569000   35.154100  111.827000
  C    -55.080300   34.330000  110.854000
  C    -55.045400   34.845900  109.485000
  C    -54.643400   36.150000  109.488000
  H    -55.449600   33.379000  111.101000
  C    -55.816500   34.185700  108.390000
  H    -55.100100   33.758700  107.650000
  H    -56.398300   34.933100  107.847000
  C    -56.834500   33.178300  108.829000
  H    -57.503700   33.242300  107.971000
  H    -57.413000   33.460600  109.742000
  C    -56.341300   31.713200  108.817000
  H    -57.069800   30.894100  108.897000
  H    -55.586600   31.490200  109.563000
  H    -55.873400   31.531800  107.778000
  H    -54.944500   39.866600  106.307000
  H    -54.362100   34.912000  112.844000

 Total Charge           Charge          ....    0
 Multiplicity           Mult            ....    1
 Number of Electrons    NEL             ....  134
 Basis Dimension        Dim             ....  322

ORBITAL ENERGIES
----------------

  NO   OCC          E(Eh)            E(eV)
   0   2.0000     -88.966551     -2420.9029
   1   2.0000     -88.954689     -2420.5801
   2   2.0000     -10.324983      -280.9571
   3   2.0000     -10.318340      -280.7763
   4   2.0000     -10.313692      -280.6498
   5   2.0000     -10.313476      -280.6440
   6   2.0000     -10.306851      -280.4637
   7   2.0000     -10.298737      -280.2429
   8   2.0000     -10.298173      -280.2275
   9   2.0000     -10.289607      -279.9944
  10   2.0000     -10.289385      -279.9884
  11   2.0000     -10.289035      -279.9789
  12   2.0000     -10.288296      -279.9588
  13   2.0000     -10.287316      -279.9321
  14   2.0000     -10.285346      -279.8785
  15   2.0000     -10.277686      -279.6701
  16   2.0000      -8.081051      -219.8966
  17   2.0000      -8.069700      -219.5877
  18   2.0000      -6.039471      -164.3424
  19   2.0000      -6.035523      -164.2349
  20   2.0000      -6.031996      -164.1390
  21   2.0000      -6.028336      -164.0394
  22   2.0000      -6.024212      -163.9271
  23   2.0000      -6.020254      -163.8194
  24   2.0000      -1.004820       -27.3425
  25   2.0000      -0.979876       -26.6638
  26   2.0000      -0.917440       -24.9648
  27   2.0000      -0.914479       -24.8842
  28   2.0000      -0.873905       -23.7802
  29   2.0000      -0.851140       -23.1607
  30   2.0000      -0.841501       -22.8984
  31   2.0000      -0.812463       -22.1082
  32   2.0000      -0.781957       -21.2781
  33   2.0000      -0.769560       -20.9408
  34   2.0000      -0.710341       -19.3294
  35   2.0000      -0.697755       -18.9869
  36   2.0000      -0.687368       -18.7042
  37   2.0000      -0.658160       -17.9094
  38   2.0000      -0.643466       -17.5096
  39   2.0000      -0.619829       -16.8664
  40   2.0000      -0.606106       -16.4930
  41   2.0000      -0.579100       -15.7581
  42   2.0000      -0.561933       -15.2910
  43   2.0000      -0.554692       -15.0939
  44   2.0000      -0.532019       -14.4770
  45   2.0000      -0.525652       -14.3037
  46   2.0000      -0.519219       -14.1287
  47   2.0000      -0.511761       -13.9257
  48   2.0000      -0.504849       -13.7376
  49   2.0000      -0.501310       -13.6413
  50   2.0000      -0.487894       -13.2763
  51   2.0000      -0.484217       -13.1762
  52   2.0000      -0.480099       -13.0642
  53   2.0000      -0.465093       -12.6558
  54   2.0000      -0.456168       -12.4130
  55   2.0000      -0.452555       -12.3147
  56   2.0000      -0.438250       -11.9254
  57   2.0000      -0.431830       -11.7507
  58   2.0000      -0.428197       -11.6518
  59   2.0000      -0.425084       -11.5671
  60   2.0000      -0.423198       -11.5158
  61   2.0000      -0.409463       -11.1421
  62   2.0000      -0.399618       -10.8742
  63   2.0000      -0.337567        -9.1857
  64   2.0000      -0.320599        -8.7240
  65   2.0000      -0.317942        -8.6516
  66   2.0000      -0.309085        -8.4106
  67   0.0000       0.043677         1.1885
  68   0.0000       0.050157         1.3649
  69   0.0000       0.111987         3.0473
  70   0.0000       0.120332         3.2744
  71   0.0000       0.131154         3.5689

MULLIKEN ATOMIC CHARGES
-----------------------
   0 S :    0.112115
   1 C :   -0.114002
   2 C :   -0.039818
   3 C :    0.007226
   4 C :   -0.150902
   5 H :    0.040221
   6 C :   -0.005069
   7 H :    0.020866
   8 H :    0.022383
   9 C :   -0.105549
  10 H :    0.046923
  11 H :    0.039501
  12 C :   -0.007501
  13 H :    0.034272
  14 H :    0.025936
  15 H :    0.031441
  16 S :    0.086693
  17 C :   -0.062709
  18 C :   -0.028400
  19 C :    0.008324
  20 C :   -0.194266
  21 H :   -0.002666
  22 C :    0.064425
  23 H :    0.036992
  24 H :    0.033155
  25 C :   -0.089910
  26 H :    0.026470
  27 H :    0.051965
  28 C :   -0.075428
  29 H :    0.038545
  30 H :    0.031495
  31 H :    0.030609
  32 H :    0.035490
  33 H :    0.051174
Sum of atomic charges:    0.0000000

LOEWDIN ATOMIC CHARGES
----------------------
   0 S :    0.407955
   1 C :   -0.186762
   2 C :   -0.056067
   3 C :   -0.061697
   4 C :   -0.198726
   5 H :    0.042782
   6 C :   -0.042523
   7 H :    0.022167
   8 H :    0.030914
   9 C :   -0.051499
  10 H :    0.027242
  11 H :    0.031083
  12 C :   -0.064415
  13 H :    0.034757
  14 H :    0.019636
  15 H :    0.032421
  16 S :    0.382164
  17 C :   -0.176689
  18 C :   -0.065650
  19 C :   -0.053822
  20 C :   -0.190638
  21 H :    0.017989
  22 C :   -0.034196
  23 H :    0.040573
  24 H :    0.036087
  25 C :   -0.050277
  26 H :    0.030808
  27 H :    0.032233
  28 C :   -0.074983
  29 H :    0.025858
  30 H :    0.017448
  31 H :    0.033231
  32 H :    0.016751
  33 H :    0.025844

  Mayer bond orders larger than 0.100000
B(  0-S ,  1-C ) :   1.1432 B(  0-S ,  4-C ) :   1.1621 B(  1-C ,  2-C ) :   1.5799
B(  1-C ,  4-C ) :   0.1023 B(  1-C , 32-H ) :   0.9894 B(  2-C ,  3-C ) :   1.2550
B(  2-C ,  6-C ) :   0.9978 B(  3-C ,  4-C ) :   1.5576 B(  3-C ,  5-H ) :   0.9899
B(  4-C , 20-C ) :   1.0174 B(  6-C ,  7-H ) :   0.9457 B(  6-C ,  8-H ) :   0.9440
B(  6-C ,  9-C ) :   1.0656 B(  9-C , 10-H ) :   0.9513 B(  9-C , 11-H ) :   0.9488
B(  9-C , 12-C ) :   1.0994 B( 12-C , 13-H ) :   0.9657 B( 12-C , 14-H ) :   0.9719
B( 12-C , 15-H ) :   0.9648 B( 16-S , 17-C ) :   1.1371 B( 16-S , 20-C ) :   1.1306
B( 17-C , 18-C ) :   1.6219 B( 17-C , 33-H ) :   0.9717 B( 18-C , 19-C ) :   1.2165
B( 18-C , 21-H ) :   0.9868 B( 19-C , 20-C ) :   1.6289 B( 19-C , 22-C ) :   1.0380
B( 22-C , 23-H ) :   0.9130 B( 22-C , 24-H ) :   0.9459 B( 22-C , 25-C ) :   1.0803
B( 25-C , 26-H ) :   0.9548 B( 25-C , 27-H ) :   0.9510 B( 25-C , 28-C ) :   1.0655
B( 28-C , 29-H ) :   0.9760 B( 28-C , 30-H ) :   0.9795 B( 28-C , 31-H ) :   0.9715

Dispersion correction           -0.013620402
FINAL SINGLE POINT ENERGY     -1339.860585847652

DIPOLE MOMENT
-------------
                                X             Y             Z
Electronic contribution:     -7.94755      12.11923      15.84381
Nuclear contribution   :      8.13410     -12.40549     -16.32426
                        -----------------------------------------
Total Dipole Moment    :      0.18656      -0.28627      -0.48045
                        -----------------------------------------
Magnitude (a.u.)       :      0.58956
Magnitude (Debye)      :      1.49854

Rotational constants in cm-1:     0.020195     0.007005     0.006747
Rotational constants in MHz :   605.420796   210.000243   202.268862

                             ****ORCA TERMINATED NORMALLY****
TOTAL RUN TIME: 0 days 0 hours 0 minutes 29 seconds 244 msec
