                         Program Version 4.2.1 -  RELEASE  -
|  1> ! wB97X-D3 SP def2-SVP
|  2> %pal
|  3> nprocs 16
|  4> end
|  5>
|  6> * xyz 0 1
|  7> S 	 -41.1677 	 27.753 	 78.4781
|  8> C 	 -41.2127 	 28.7721 	 79.9127
|  9> C 	 -41.6842 	 28.0761 	 80.9554
| 10> C 	 -42.0158 	 26.7088 	 80.6576
| 11> C 	 -41.829 	 26.2921 	 79.3513
| 12> H 	 -42.4473 	 25.9189 	 81.2669
| 13> C 	 -41.8637 	 28.6414 	 82.3387
| 14> H 	 -41.3146 	 29.5408 	 82.2195
| 15> H 	 -41.2715 	 28.0592 	 83.0691
| 16> C 	 -43.2669 	 29.0209 	 82.8496
| 17> H 	 -44.0089 	 29.4931 	 82.0942
| 18> H 	 -43.8083 	 28.0874 	 83.0135
| 19> C 	 -43.1573 	 29.806 	 84.1592
| 20> H 	 -42.905 	 30.8422 	 83.8533
| 21> H 	 -44.102 	 29.8039 	 84.6776
| 22> H 	 -42.4746 	 29.3548 	 84.8547
| 23> S 	 -43.5028 	 25.3612 	 77.3191
| 24> C 	 -43.5556 	 23.6076 	 77.0877
| 25> C 	 -42.7553 	 22.9048 	 78.0348
| 26> C 	 -42.1178 	 23.7882 	 78.9666
| 27> C 	 -42.2661 	 25.145 	 78.6066
| 28> H 	 -42.5842 	 21.8429 	 78.0691
| 29> C 	 -41.3124 	 23.2819 	 80.0792
| 30> H 	 -42.0279 	 22.8724 	 80.76
| 31> H 	 -40.9234 	 24.1623 	 80.5867
| 32> C 	 -40.128 	 22.3176 	 79.6696
| 33> H 	 -39.4641 	 22.8883 	 79.05
| 34> H 	 -40.496 	 21.518 	 79.0379
| 35> C 	 -39.3784 	 21.6735 	 80.8572
| 36> H 	 -38.961 	 22.5464 	 81.4409
| 37> H 	 -38.5735 	 21.0464 	 80.5361
| 38> H 	 -39.9363 	 21.1208 	 81.478
| 39> H 	 -40.9122 	 29.8411 	 79.9805
| 40> H 	 -44.2177 	 23.0793 	 76.4274
| 41> *
| 42>
| 43>                          ****END OF INPUT****

CARTESIAN COORDINATES (ANGSTROEM)
---------------------------------
  S    -41.167700   27.753000   78.478100
  C    -41.212700   28.772100   79.912700
  C    -41.684200   28.076100   80.955400
  C    -42.015800   26.708800   80.657600
  C    -41.829000   26.292100   79.351300
  H    -42.447300   25.918900   81.266900
  C    -41.863700   28.641400   82.338700
  H    -41.314600   29.540800   82.219500
  H    -41.271500   28.059200   83.069100
  C    -43.266900   29.020900   82.849600
  H    -44.008900   29.493100   82.094200
  H    -43.808300   28.087400   83.013500
  C    -43.157300   29.806000   84.159200
  H    -42.905000   30.842200   83.853300
  H    -44.102000   29.803900   84.677600
  H    -42.474600   29.354800   84.854700
  S    -43.502800   25.361200   77.319100
  C    -43.555600   23.607600   77.087700
  C    -42.755300   22.904800   78.034800
  C    -42.117800   23.788200   78.966600
  C    -42.266100   25.145000   78.606600
  H    -42.584200   21.842900   78.069100
  C    -41.312400   23.281900   80.079200
  H    -42.027900   22.872400   80.760000
  H    -40.923400   24.162300   80.586700
  C    -40.128000   22.317600   79.669600
  H    -39.464100   22.888300   79.050000
  H    -40.496000   21.518000   79.037900
  C    -39.378400   21.673500   80.857200
  H    -38.961000   22.546400   81.440900
  H    -38.573500   21.046400   80.536100
  H    -39.936300   21.120800   81.478000
  H    -40.912200   29.841100   79.980500
  H    -44.217700   23.079300   76.427400

 Total Charge           Charge          ....    0
 Multiplicity           Mult            ....    1
 Number of Electrons    NEL             ....  134
 Basis Dimension        Dim             ....  322

ORBITAL ENERGIES
----------------

  NO   OCC          E(Eh)            E(eV)
   0   2.0000     -88.972100     -2421.0539
   1   2.0000     -88.957135     -2420.6467
   2   2.0000     -10.332336      -281.1571
   3   2.0000     -10.330154      -281.0978
   4   2.0000     -10.326262      -280.9919
   5   2.0000     -10.315263      -280.6926
   6   2.0000     -10.304664      -280.4042
   7   2.0000     -10.299110      -280.2530
   8   2.0000     -10.297001      -280.1956
   9   2.0000     -10.295386      -280.1517
  10   2.0000     -10.292929      -280.0848
  11   2.0000     -10.290464      -280.0178
  12   2.0000     -10.289111      -279.9810
  13   2.0000     -10.288782      -279.9720
  14   2.0000     -10.279083      -279.7081
  15   2.0000     -10.273205      -279.5481
  16   2.0000      -8.085329      -220.0130
  17   2.0000      -8.071095      -219.6257
  18   2.0000      -6.043927      -164.4636
  19   2.0000      -6.040118      -164.3600
  20   2.0000      -6.035981      -164.2474
  21   2.0000      -6.029777      -164.0786
  22   2.0000      -6.025704      -163.9678
  23   2.0000      -6.021689      -163.8585
  24   2.0000      -0.999201       -27.1896
  25   2.0000      -0.977688       -26.6042
  26   2.0000      -0.910069       -24.7642
  27   2.0000      -0.908341       -24.7172
  28   2.0000      -0.871988       -23.7280
  29   2.0000      -0.855416       -23.2771
  30   2.0000      -0.840684       -22.8762
  31   2.0000      -0.815095       -22.1799
  32   2.0000      -0.784355       -21.3434
  33   2.0000      -0.767395       -20.8819
  34   2.0000      -0.715220       -19.4621
  35   2.0000      -0.705514       -19.1980
  36   2.0000      -0.695603       -18.9283
  37   2.0000      -0.661211       -17.9925
  38   2.0000      -0.644545       -17.5390
  39   2.0000      -0.611761       -16.6469
  40   2.0000      -0.594175       -16.1683
  41   2.0000      -0.569650       -15.5010
  42   2.0000      -0.564762       -15.3679
  43   2.0000      -0.555328       -15.1112
  44   2.0000      -0.530144       -14.4260
  45   2.0000      -0.527009       -14.3407
  46   2.0000      -0.518944       -14.1212
  47   2.0000      -0.515525       -14.0282
  48   2.0000      -0.505830       -13.7643
  49   2.0000      -0.502939       -13.6857
  50   2.0000      -0.497369       -13.5341
  51   2.0000      -0.473065       -12.8728
  52   2.0000      -0.466317       -12.6891
  53   2.0000      -0.462652       -12.5894
  54   2.0000      -0.457205       -12.4412
  55   2.0000      -0.455095       -12.3838
  56   2.0000      -0.444399       -12.0927
  57   2.0000      -0.441788       -12.0217
  58   2.0000      -0.434330       -11.8187
  59   2.0000      -0.427643       -11.6368
  60   2.0000      -0.420983       -11.4555
  61   2.0000      -0.409010       -11.1297
  62   2.0000      -0.406993       -11.0748
  63   2.0000      -0.348462        -9.4821
  64   2.0000      -0.331616        -9.0237
  65   2.0000      -0.324494        -8.8299
  66   2.0000      -0.290796        -7.9130
  67   0.0000       0.025030         0.6811
  68   0.0000       0.062278         1.6947
  69   0.0000       0.106977         2.9110
  70   0.0000       0.121058         3.2942
  71   0.0000       0.130223         3.5436

MULLIKEN ATOMIC CHARGES
-----------------------
   0 S :    0.068475
   1 C :   -0.117837
   2 C :   -0.098466
   3 C :    0.056272
   4 C :   -0.199990
   5 H :    0.010950
   6 C :    0.079764
   7 H :   -0.009848
   8 H :    0.036760
   9 C :   -0.093543
  10 H :    0.045142
  11 H :    0.018848
  12 C :   -0.032494
  13 H :    0.044176
  14 H :    0.029544
  15 H :    0.029955
  16 S :    0.122320
  17 C :   -0.081194
  18 C :   -0.032094
  19 C :   -0.069663
  20 C :   -0.124465
  21 H :    0.020166
  22 C :    0.084022
  23 H :    0.030130
  24 H :    0.017373
  25 C :   -0.080138
  26 H :    0.034364
  27 H :    0.023409
  28 C :   -0.002749
  29 H :    0.032684
  30 H :    0.031751
  31 H :    0.005125
  32 H :    0.064501
  33 H :    0.056752
Sum of atomic charges:   -0.0000000

LOEWDIN ATOMIC CHARGES
----------------------
   0 S :    0.354552
   1 C :   -0.189568
   2 C :   -0.075582
   3 C :   -0.062083
   4 C :   -0.170163
   5 H :    0.031103
   6 C :   -0.034349
   7 H :    0.021542
   8 H :    0.036158
   9 C :   -0.049940
  10 H :    0.036832
  11 H :    0.017710
  12 C :   -0.061862
  13 H :    0.031303
  14 H :    0.025772
  15 H :    0.023696
  16 S :    0.395361
  17 C :   -0.173841
  18 C :   -0.066068
  19 C :   -0.044828
  20 C :   -0.201158
  21 H :    0.028730
  22 C :   -0.035338
  23 H :    0.032211
  24 H :    0.030412
  25 C :   -0.027186
  26 H :    0.026609
  27 H :    0.017772
  28 C :   -0.053750
  29 H :    0.034149
  30 H :    0.026753
  31 H :    0.005669
  32 H :    0.042656
  33 H :    0.026728

  Mayer bond orders larger than 0.100000
B(  0-S ,  1-C ) :   1.1191 B(  0-S ,  4-C ) :   1.1134 B(  1-C ,  2-C ) :   1.6606
B(  1-C , 32-H ) :   0.9555 B(  2-C ,  3-C ) :   1.1958 B(  2-C ,  6-C ) :   1.0199
B(  3-C ,  4-C ) :   1.6038 B(  3-C ,  5-H ) :   0.9909 B(  4-C , 20-C ) :   1.0624
B(  6-C ,  7-H ) :   0.9378 B(  6-C ,  8-H ) :   0.9356 B(  6-C ,  9-C ) :   1.0494
B(  9-C , 10-H ) :   0.9571 B(  9-C , 11-H ) :   0.9534 B(  9-C , 12-C ) :   1.0774
B( 12-C , 13-H ) :   0.9781 B( 12-C , 14-H ) :   0.9728 B( 12-C , 15-H ) :   0.9733
B( 16-S , 17-C ) :   1.1591 B( 16-S , 20-C ) :   1.1212 B( 17-C , 18-C ) :   1.5848
B( 17-C , 20-C ) :   0.1023 B( 17-C , 33-H ) :   0.9683 B( 18-C , 19-C ) :   1.2526
B( 18-C , 21-H ) :   0.9872 B( 19-C , 20-C ) :   1.5635 B( 19-C , 22-C ) :   1.0655
B( 22-C , 23-H ) :   0.9209 B( 22-C , 24-H ) :   0.9219 B( 22-C , 25-C ) :   1.0479
B( 25-C , 26-H ) :   0.9573 B( 25-C , 27-H ) :   0.9595 B( 25-C , 28-C ) :   1.0848
B( 28-C , 29-H ) :   0.9748 B( 28-C , 30-H ) :   0.9731 B( 28-C , 31-H ) :   0.9764

Dispersion correction           -0.013404865
FINAL SINGLE POINT ENERGY     -1339.862496621006

DIPOLE MOMENT
-------------
                                X             Y             Z
Electronic contribution:     -5.24207       4.04833     -25.15440
Nuclear contribution   :      5.13776      -4.43993      25.84175
                        -----------------------------------------
Total Dipole Moment    :     -0.10431      -0.39160       0.68735
                        -----------------------------------------
Magnitude (a.u.)       :      0.79792
Magnitude (Debye)      :      2.02815

Rotational constants in cm-1:     0.017614     0.007545     0.006300
Rotational constants in MHz :   528.047573   226.183817   188.862767

                             ****ORCA TERMINATED NORMALLY****
TOTAL RUN TIME: 0 days 0 hours 0 minutes 29 seconds 4 msec
