                         Program Version 4.2.1 -  RELEASE  -
|  1> ! wB97X-D3 SP def2-SVP
|  2> %pal
|  3> nprocs 16
|  4> end
|  5>
|  6> * xyz 0 1
|  7> S 	 -82.3648 	 44.4918 	 136.655
|  8> C 	 -82.7705 	 43.4729 	 138.104
|  9> C 	 -82.8953 	 44.2551 	 139.252
| 10> C 	 -82.7785 	 45.6405 	 138.929
| 11> C 	 -82.4214 	 45.9384 	 137.632
| 12> H 	 -82.9355 	 46.41 	 139.655
| 13> C 	 -83.1859 	 43.7274 	 140.648
| 14> H 	 -83.7196 	 42.8002 	 140.384
| 15> H 	 -83.8308 	 44.3709 	 141.191
| 16> C 	 -81.9942 	 43.3975 	 141.561
| 17> H 	 -81.3572 	 44.2659 	 141.69
| 18> H 	 -82.3652 	 43.2958 	 142.55
| 19> C 	 -81.1094 	 42.1794 	 141.119
| 20> H 	 -80.1364 	 42.4787 	 140.539
| 21> H 	 -80.8676 	 41.5254 	 141.954
| 22> H 	 -81.6913 	 41.4945 	 140.489
| 23> S 	 -82.7743 	 47.3751 	 135.293
| 24> C 	 -82.4023 	 49.1069 	 135.26
| 25> C 	 -81.8678 	 49.4302 	 136.457
| 26> C 	 -81.7124 	 48.4218 	 137.487
| 27> C 	 -82.2068 	 47.2297 	 136.981
| 28> H 	 -81.4617 	 50.3809 	 136.634
| 29> C 	 -81.2157 	 48.5735 	 138.885
| 30> H 	 -81.9129 	 48.1288 	 139.562
| 31> H 	 -81.1922 	 49.6447 	 139.148
| 32> C 	 -79.7808 	 47.997 	 139.224
| 33> H 	 -79.8196 	 46.9357 	 139.317
| 34> H 	 -79.325 	 48.2709 	 140.16
| 35> C 	 -78.7199 	 48.4143 	 138.24
| 36> H 	 -78.5538 	 49.4591 	 138.183
| 37> H 	 -79.1195 	 48.1177 	 137.272
| 38> H 	 -77.7918 	 47.8649 	 138.365
| 39> H 	 -82.806 	 42.4219 	 138.144
| 40> H 	 -82.4016 	 49.6241 	 134.388
| 41> *
| 42>
| 43>                          ****END OF INPUT****

CARTESIAN COORDINATES (ANGSTROEM)
---------------------------------
  S    -82.364800   44.491800  136.655000
  C    -82.770500   43.472900  138.104000
  C    -82.895300   44.255100  139.252000
  C    -82.778500   45.640500  138.929000
  C    -82.421400   45.938400  137.632000
  H    -82.935500   46.410000  139.655000
  C    -83.185900   43.727400  140.648000
  H    -83.719600   42.800200  140.384000
  H    -83.830800   44.370900  141.191000
  C    -81.994200   43.397500  141.561000
  H    -81.357200   44.265900  141.690000
  H    -82.365200   43.295800  142.550000
  C    -81.109400   42.179400  141.119000
  H    -80.136400   42.478700  140.539000
  H    -80.867600   41.525400  141.954000
  H    -81.691300   41.494500  140.489000
  S    -82.774300   47.375100  135.293000
  C    -82.402300   49.106900  135.260000
  C    -81.867800   49.430200  136.457000
  C    -81.712400   48.421800  137.487000
  C    -82.206800   47.229700  136.981000
  H    -81.461700   50.380900  136.634000
  C    -81.215700   48.573500  138.885000
  H    -81.912900   48.128800  139.562000
  H    -81.192200   49.644700  139.148000
  C    -79.780800   47.997000  139.224000
  H    -79.819600   46.935700  139.317000
  H    -79.325000   48.270900  140.160000
  C    -78.719900   48.414300  138.240000
  H    -78.553800   49.459100  138.183000
  H    -79.119500   48.117700  137.272000
  H    -77.791800   47.864900  138.365000
  H    -82.806000   42.421900  138.144000
  H    -82.401600   49.624100  134.388000

 Total Charge           Charge          ....    0
 Multiplicity           Mult            ....    1
 Number of Electrons    NEL             ....  134
 Basis Dimension        Dim             ....  322

ORBITAL ENERGIES
----------------

  NO   OCC          E(Eh)            E(eV)
   0   2.0000     -88.967822     -2420.9375
   1   2.0000     -88.962527     -2420.7934
   2   2.0000     -10.331578      -281.1365
   3   2.0000     -10.331317      -281.1294
   4   2.0000     -10.316941      -280.7382
   5   2.0000     -10.312614      -280.6205
   6   2.0000     -10.306465      -280.4532
   7   2.0000     -10.303907      -280.3836
   8   2.0000     -10.297307      -280.2040
   9   2.0000     -10.295216      -280.1471
  10   2.0000     -10.292906      -280.0842
  11   2.0000     -10.292388      -280.0701
  12   2.0000     -10.289566      -279.9933
  13   2.0000     -10.289100      -279.9807
  14   2.0000     -10.280772      -279.7540
  15   2.0000     -10.264760      -279.3183
  16   2.0000      -8.081524      -219.9095
  17   2.0000      -8.076804      -219.7810
  18   2.0000      -6.040204      -164.3623
  19   2.0000      -6.036251      -164.2547
  20   2.0000      -6.035449      -164.2329
  21   2.0000      -6.032093      -164.1416
  22   2.0000      -6.031441      -164.1239
  23   2.0000      -6.027373      -164.0131
  24   2.0000      -1.004365       -27.3302
  25   2.0000      -0.979570       -26.6555
  26   2.0000      -0.911751       -24.8100
  27   2.0000      -0.909786       -24.7565
  28   2.0000      -0.868149       -23.6235
  29   2.0000      -0.853784       -23.2326
  30   2.0000      -0.839371       -22.8404
  31   2.0000      -0.815581       -22.1931
  32   2.0000      -0.786450       -21.4004
  33   2.0000      -0.778477       -21.1834
  34   2.0000      -0.714924       -19.4541
  35   2.0000      -0.705294       -19.1920
  36   2.0000      -0.697526       -18.9807
  37   2.0000      -0.666985       -18.1496
  38   2.0000      -0.641532       -17.4570
  39   2.0000      -0.621774       -16.9193
  40   2.0000      -0.599425       -16.3112
  41   2.0000      -0.568476       -15.4690
  42   2.0000      -0.560762       -15.2591
  43   2.0000      -0.554497       -15.0886
  44   2.0000      -0.545277       -14.8378
  45   2.0000      -0.537833       -14.6352
  46   2.0000      -0.518630       -14.1127
  47   2.0000      -0.512887       -13.9564
  48   2.0000      -0.509433       -13.8624
  49   2.0000      -0.492757       -13.4086
  50   2.0000      -0.487919       -13.2769
  51   2.0000      -0.484754       -13.1908
  52   2.0000      -0.472652       -12.8615
  53   2.0000      -0.460794       -12.5388
  54   2.0000      -0.459765       -12.5108
  55   2.0000      -0.449192       -12.2231
  56   2.0000      -0.437294       -11.8994
  57   2.0000      -0.437169       -11.8960
  58   2.0000      -0.434776       -11.8309
  59   2.0000      -0.428321       -11.6552
  60   2.0000      -0.422151       -11.4873
  61   2.0000      -0.415417       -11.3041
  62   2.0000      -0.407932       -11.1004
  63   2.0000      -0.354633        -9.6501
  64   2.0000      -0.334355        -9.0983
  65   2.0000      -0.328681        -8.9439
  66   2.0000      -0.288657        -7.8548
  67   0.0000       0.018726         0.5096
  68   0.0000       0.076237         2.0745
  69   0.0000       0.096126         2.6157
  70   0.0000       0.119637         3.2555
  71   0.0000       0.127716         3.4753

MULLIKEN ATOMIC CHARGES
-----------------------
   0 S :    0.096118
   1 C :   -0.101661
   2 C :   -0.092053
   3 C :    0.015055
   4 C :   -0.115010
   5 H :   -0.003339
   6 C :    0.064648
   7 H :    0.027749
   8 H :    0.019003
   9 C :   -0.031490
  10 H :    0.022100
  11 H :    0.019831
  12 C :   -0.087262
  13 H :    0.066123
  14 H :    0.035729
  15 H :    0.018152
  16 S :    0.076222
  17 C :   -0.038051
  18 C :    0.006251
  19 C :   -0.072272
  20 C :   -0.129687
  21 H :   -0.008331
  22 C :    0.083418
  23 H :    0.022687
  24 H :    0.021492
  25 C :   -0.050967
  26 H :    0.023744
  27 H :    0.017152
  28 C :   -0.043350
  29 H :    0.020694
  30 H :    0.030502
  31 H :    0.032202
  32 H :    0.027197
  33 H :    0.027406
Sum of atomic charges:   -0.0000000

LOEWDIN ATOMIC CHARGES
----------------------
   0 S :    0.382150
   1 C :   -0.172117
   2 C :   -0.055942
   3 C :   -0.066705
   4 C :   -0.185698
   5 H :    0.023699
   6 C :   -0.026116
   7 H :    0.034719
   8 H :    0.027188
   9 C :   -0.039060
  10 H :    0.024980
  11 H :    0.021523
  12 C :   -0.077889
  13 H :    0.043420
  14 H :    0.027411
  15 H :    0.020063
  16 S :    0.371692
  17 C :   -0.158545
  18 C :   -0.056801
  19 C :   -0.060649
  20 C :   -0.172788
  21 H :    0.019354
  22 C :   -0.027353
  23 H :    0.027860
  24 H :    0.034566
  25 C :   -0.036057
  26 H :    0.019942
  27 H :    0.021980
  28 C :   -0.062660
  29 H :    0.016823
  30 H :    0.024806
  31 H :    0.027671
  32 H :    0.016283
  33 H :    0.012252

  Mayer bond orders larger than 0.100000
B(  0-S ,  1-C ) :   1.1187 B(  0-S ,  4-C ) :   1.1420 B(  1-C ,  2-C ) :   1.6272
B(  1-C ,  4-C ) :   0.1001 B(  1-C , 32-H ) :   0.9697 B(  2-C ,  3-C ) :   1.2432
B(  2-C ,  6-C ) :   1.0144 B(  3-C ,  4-C ) :   1.5738 B(  3-C ,  5-H ) :   0.9915
B(  4-C , 20-C ) :   1.0534 B(  6-C ,  7-H ) :   0.9431 B(  6-C ,  8-H ) :   0.9404
B(  6-C ,  9-C ) :   1.0823 B(  9-C , 10-H ) :   0.9549 B(  9-C , 11-H ) :   0.9579
B(  9-C , 12-C ) :   1.0534 B( 12-C , 13-H ) :   0.9765 B( 12-C , 14-H ) :   0.9757
B( 12-C , 15-H ) :   0.9794 B( 16-S , 17-C ) :   1.1178 B( 16-S , 20-C ) :   1.1412
B( 17-C , 18-C ) :   1.6176 B( 17-C , 33-H ) :   0.9872 B( 18-C , 19-C ) :   1.2296
B( 18-C , 21-H ) :   0.9886 B( 19-C , 20-C ) :   1.5859 B( 19-C , 22-C ) :   1.0483
B( 22-C , 23-H ) :   0.9372 B( 22-C , 24-H ) :   0.9287 B( 22-C , 25-C ) :   1.0584
B( 25-C , 26-H ) :   0.9547 B( 25-C , 27-H ) :   0.9586 B( 25-C , 28-C ) :   1.0850
B( 28-C , 29-H ) :   0.9769 B( 28-C , 30-H ) :   0.9707 B( 28-C , 31-H ) :   0.9712

Dispersion correction           -0.014948633
FINAL SINGLE POINT ENERGY     -1339.870015590051

DIPOLE MOMENT
-------------
                                X             Y             Z
Electronic contribution:    -12.72392       3.32639     -24.11397
Nuclear contribution   :     12.92092      -3.20812      24.87337
                        -----------------------------------------
Total Dipole Moment    :      0.19700       0.11827       0.75940
                        -----------------------------------------
Magnitude (a.u.)       :      0.79340
Magnitude (Debye)      :      2.01667

Rotational constants in cm-1:     0.021059     0.008832     0.007012
Rotational constants in MHz :   631.328988   264.777514   210.201039

                             ****ORCA TERMINATED NORMALLY****
TOTAL RUN TIME: 0 days 0 hours 0 minutes 34 seconds 432 msec
