                         Program Version 4.2.1 -  RELEASE  -
|  1> ! wB97X-D3 SP def2-SVP
|  2> %pal
|  3> nprocs 16
|  4> end
|  5>
|  6> * xyz 0 1
|  7> S 	 3.48485 	 -6.46039 	 74.9061
|  8> C 	 1.88092 	 -6.74851 	 74.4916
|  9> C 	 0.927393 	 -6.36305 	 75.422
| 10> C 	 1.51249 	 -5.65033 	 76.4687
| 11> C 	 2.89551 	 -5.65691 	 76.3985
| 12> H 	 0.913751 	 -5.37245 	 77.3307
| 13> C 	 -0.564967 	 -6.67247 	 75.4018
| 14> H 	 -0.594458 	 -7.4533 	 76.0914
| 15> H 	 -0.777365 	 -7.17544 	 74.4072
| 16> C 	 -1.43322 	 -5.37413 	 75.8287
| 17> H 	 -2.48368 	 -5.79533 	 75.5727
| 18> H 	 -1.46092 	 -5.18942 	 76.9336
| 19> C 	 -1.16856 	 -4.17491 	 74.9533
| 20> H 	 -1.85036 	 -3.44555 	 75.3732
| 21> H 	 -0.122739 	 -3.75687 	 75.1145
| 22> H 	 -1.2311 	 -4.12872 	 73.8117
| 23> S 	 5.33087 	 -4.26094 	 76.8261
| 24> C 	 5.82026 	 -3.89748 	 78.4542
| 25> C 	 5.00718 	 -4.48493 	 79.3488
| 26> C 	 3.91078 	 -5.2229 	 78.7865
| 27> C 	 3.90048 	 -5.15243 	 77.3893
| 28> H 	 5.23447 	 -4.37597 	 80.3939
| 29> C 	 2.83342 	 -5.88441 	 79.663
| 30> H 	 3.19116 	 -6.68841 	 80.2487
| 31> H 	 2.21155 	 -6.29902 	 78.8984
| 32> C 	 2.02853 	 -4.91161 	 80.5632
| 33> H 	 1.10086 	 -5.34786 	 80.9067
| 34> H 	 1.78273 	 -4.05139 	 79.9154
| 35> C 	 2.69504 	 -4.53077 	 81.8414
| 36> H 	 2.98329 	 -5.33079 	 82.5183
| 37> H 	 2.07337 	 -3.94081 	 82.597
| 38> H 	 3.58224 	 -3.93073 	 81.6655
| 39> H 	 1.46284 	 -7.22888 	 73.6062
| 40> H 	 6.65856 	 -3.30914 	 78.7715
| 41> *
| 42>
| 43>                          ****END OF INPUT****

CARTESIAN COORDINATES (ANGSTROEM)
---------------------------------
  S      3.484850   -6.460390   74.906100
  C      1.880920   -6.748510   74.491600
  C      0.927393   -6.363050   75.422000
  C      1.512490   -5.650330   76.468700
  C      2.895510   -5.656910   76.398500
  H      0.913751   -5.372450   77.330700
  C     -0.564967   -6.672470   75.401800
  H     -0.594458   -7.453300   76.091400
  H     -0.777365   -7.175440   74.407200
  C     -1.433220   -5.374130   75.828700
  H     -2.483680   -5.795330   75.572700
  H     -1.460920   -5.189420   76.933600
  C     -1.168560   -4.174910   74.953300
  H     -1.850360   -3.445550   75.373200
  H     -0.122739   -3.756870   75.114500
  H     -1.231100   -4.128720   73.811700
  S      5.330870   -4.260940   76.826100
  C      5.820260   -3.897480   78.454200
  C      5.007180   -4.484930   79.348800
  C      3.910780   -5.222900   78.786500
  C      3.900480   -5.152430   77.389300
  H      5.234470   -4.375970   80.393900
  C      2.833420   -5.884410   79.663000
  H      3.191160   -6.688410   80.248700
  H      2.211550   -6.299020   78.898400
  C      2.028530   -4.911610   80.563200
  H      1.100860   -5.347860   80.906700
  H      1.782730   -4.051390   79.915400
  C      2.695040   -4.530770   81.841400
  H      2.983290   -5.330790   82.518300
  H      2.073370   -3.940810   82.597000
  H      3.582240   -3.930730   81.665500
  H      1.462840   -7.228880   73.606200
  H      6.658560   -3.309140   78.771500

 Total Charge           Charge          ....    0
 Multiplicity           Mult            ....    1
 Number of Electrons    NEL             ....  134
 Basis Dimension        Dim             ....  322

ORBITAL ENERGIES
----------------

  NO   OCC          E(Eh)            E(eV)
   0   2.0000     -88.970403     -2421.0077
   1   2.0000     -88.963393     -2420.8170
   2   2.0000     -10.335770      -281.2506
   3   2.0000     -10.331935      -281.1462
   4   2.0000     -10.310911      -280.5742
   5   2.0000     -10.310512      -280.5633
   6   2.0000     -10.304968      -280.4124
   7   2.0000     -10.304139      -280.3899
   8   2.0000     -10.298064      -280.2246
   9   2.0000     -10.292134      -280.0632
  10   2.0000     -10.290917      -280.0301
  11   2.0000     -10.287577      -279.9392
  12   2.0000     -10.286683      -279.9149
  13   2.0000     -10.286401      -279.9072
  14   2.0000     -10.285909      -279.8938
  15   2.0000     -10.279600      -279.7221
  16   2.0000      -8.085390      -220.0147
  17   2.0000      -8.078009      -219.8138
  18   2.0000      -6.043736      -164.4584
  19   2.0000      -6.040014      -164.3571
  20   2.0000      -6.036608      -164.2644
  21   2.0000      -6.036161      -164.2523
  22   2.0000      -6.032543      -164.1538
  23   2.0000      -6.028672      -164.0485
  24   2.0000      -1.005715       -27.3669
  25   2.0000      -0.986819       -26.8527
  26   2.0000      -0.910136       -24.7661
  27   2.0000      -0.906278       -24.6611
  28   2.0000      -0.866555       -23.5802
  29   2.0000      -0.854103       -23.2413
  30   2.0000      -0.844939       -22.9920
  31   2.0000      -0.818334       -22.2680
  32   2.0000      -0.785391       -21.3716
  33   2.0000      -0.770635       -20.9700
  34   2.0000      -0.708134       -19.2693
  35   2.0000      -0.697297       -18.9744
  36   2.0000      -0.691124       -18.8065
  37   2.0000      -0.657776       -17.8990
  38   2.0000      -0.631173       -17.1751
  39   2.0000      -0.627800       -17.0833
  40   2.0000      -0.597256       -16.2522
  41   2.0000      -0.563047       -15.3213
  42   2.0000      -0.556093       -15.1320
  43   2.0000      -0.552735       -15.0407
  44   2.0000      -0.546447       -14.8696
  45   2.0000      -0.528909       -14.3924
  46   2.0000      -0.514340       -13.9959
  47   2.0000      -0.508609       -13.8399
  48   2.0000      -0.502900       -13.6846
  49   2.0000      -0.494904       -13.4670
  50   2.0000      -0.486960       -13.2509
  51   2.0000      -0.482365       -13.1258
  52   2.0000      -0.475583       -12.9413
  53   2.0000      -0.469246       -12.7688
  54   2.0000      -0.457670       -12.4538
  55   2.0000      -0.451952       -12.2982
  56   2.0000      -0.443403       -12.0656
  57   2.0000      -0.439088       -11.9482
  58   2.0000      -0.428021       -11.6470
  59   2.0000      -0.424979       -11.5643
  60   2.0000      -0.420354       -11.4384
  61   2.0000      -0.410774       -11.1777
  62   2.0000      -0.403190       -10.9713
  63   2.0000      -0.352415        -9.5897
  64   2.0000      -0.333704        -9.0806
  65   2.0000      -0.328821        -8.9477
  66   2.0000      -0.286275        -7.7899
  67   0.0000       0.030516         0.8304
  68   0.0000       0.075919         2.0659
  69   0.0000       0.108014         2.9392
  70   0.0000       0.126104         3.4315
  71   0.0000       0.132063         3.5936

MULLIKEN ATOMIC CHARGES
-----------------------
   0 S :    0.132116
   1 C :   -0.095601
   2 C :   -0.169511
   3 C :    0.038522
   4 C :   -0.155594
   5 H :    0.012566
   6 C :    0.099501
   7 H :    0.028153
   8 H :    0.026209
   9 C :   -0.128048
  10 H :    0.048208
  11 H :    0.058689
  12 C :   -0.072763
  13 H :    0.034997
  14 H :    0.050024
  15 H :    0.056954
  16 S :    0.096756
  17 C :   -0.071129
  18 C :   -0.037667
  19 C :   -0.058332
  20 C :   -0.149903
  21 H :    0.013750
  22 C :    0.121234
  23 H :    0.020208
  24 H :    0.001001
  25 C :   -0.048868
  26 H :    0.024992
  27 H :    0.037681
  28 C :   -0.077480
  29 H :    0.024557
  30 H :    0.033721
  31 H :    0.026694
  32 H :    0.030941
  33 H :    0.047422
Sum of atomic charges:   -0.0000000

LOEWDIN ATOMIC CHARGES
----------------------
   0 S :    0.422158
   1 C :   -0.229324
   2 C :   -0.072142
   3 C :   -0.064247
   4 C :   -0.174041
   5 H :    0.032600
   6 C :   -0.031337
   7 H :    0.024854
   8 H :    0.036466
   9 C :   -0.048883
  10 H :    0.036971
  11 H :    0.034979
  12 C :   -0.085867
  13 H :    0.028049
  14 H :    0.034691
  15 H :    0.040480
  16 S :    0.390354
  17 C :   -0.181952
  18 C :   -0.076207
  19 C :   -0.052785
  20 C :   -0.193030
  21 H :    0.028336
  22 C :   -0.023258
  23 H :    0.025141
  24 H :    0.026292
  25 C :   -0.041142
  26 H :    0.024982
  27 H :    0.029804
  28 C :   -0.077960
  29 H :    0.024245
  30 H :    0.034341
  31 H :    0.018905
  32 H :    0.027714
  33 H :    0.030814

  Mayer bond orders larger than 0.100000
B(  0-S ,  1-C ) :   1.1452 B(  0-S ,  4-C ) :   1.1589 B(  1-C ,  2-C ) :   1.6222
B(  1-C , 32-H ) :   0.9509 B(  2-C ,  3-C ) :   1.2813 B(  2-C ,  6-C ) :   0.9992
B(  3-C ,  4-C ) :   1.5512 B(  3-C ,  5-H ) :   0.9823 B(  4-C , 20-C ) :   1.0265
B(  6-C ,  7-H ) :   0.9372 B(  6-C ,  8-H ) :   0.9418 B(  6-C ,  9-C ) :   1.0477
B(  9-C , 10-H ) :   0.9581 B(  9-C , 11-H ) :   0.9510 B(  9-C , 12-C ) :   1.0657
B( 12-C , 13-H ) :   0.9705 B( 12-C , 14-H ) :   0.9661 B( 12-C , 15-H ) :   0.9762
B( 16-S , 17-C ) :   1.1372 B( 16-S , 20-C ) :   1.1374 B( 17-C , 18-C ) :   1.6453
B( 17-C , 33-H ) :   0.9651 B( 18-C , 19-C ) :   1.2191 B( 18-C , 21-H ) :   0.9868
B( 19-C , 20-C ) :   1.6047 B( 19-C , 22-C ) :   1.0381 B( 22-C , 23-H ) :   0.9327
B( 22-C , 24-H ) :   0.9246 B( 22-C , 25-C ) :   1.0671 B( 25-C , 26-H ) :   0.9544
B( 25-C , 27-H ) :   0.9534 B( 25-C , 28-C ) :   1.0814 B( 28-C , 29-H ) :   0.9713
B( 28-C , 30-H ) :   0.9680 B( 28-C , 31-H ) :   0.9714

Dispersion correction           -0.014704846
FINAL SINGLE POINT ENERGY     -1339.859263063186

DIPOLE MOMENT
-------------
                                X             Y             Z
Electronic contribution:     23.30530      -3.01730     -14.60923
Nuclear contribution   :    -23.92688       2.93423      15.09669
                        -----------------------------------------
Total Dipole Moment    :     -0.62158      -0.08308       0.48746
                        -----------------------------------------
Magnitude (a.u.)       :      0.79428
Magnitude (Debye)      :      2.01889

Rotational constants in cm-1:     0.017840     0.009318     0.006932
Rotational constants in MHz :   534.824290   279.339020   207.821330

                             ****ORCA TERMINATED NORMALLY****
TOTAL RUN TIME: 0 days 0 hours 0 minutes 36 seconds 139 msec
