                         Program Version 4.2.1 -  RELEASE  -
|  1> ! wB97X-D3 SP def2-SVP
|  2> %pal
|  3> nprocs 16
|  4> end
|  5>
|  6> * xyz 0 1
|  7> S 	 50.2721 	 11.1099 	 86.576
|  8> C 	 50.141 	 11.7663 	 88.1893
|  9> C 	 50.5347 	 13.1167 	 88.2429
| 10> C 	 51.0499 	 13.5374 	 86.9758
| 11> C 	 50.851 	 12.6253 	 85.9592
| 12> H 	 51.6126 	 14.4429 	 86.8026
| 13> C 	 50.5146 	 13.991 	 89.5022
| 14> H 	 51.4389 	 14.5224 	 89.4614
| 15> H 	 50.5588 	 13.3394 	 90.4139
| 16> C 	 49.3022 	 14.9479 	 89.5205
| 17> H 	 49.5182 	 15.6997 	 90.2494
| 18> H 	 49.1078 	 15.3994 	 88.5447
| 19> C 	 48.1052 	 14.1728 	 90.0039
| 20> H 	 48.2721 	 13.7843 	 91.0346
| 21> H 	 47.3165 	 14.8344 	 90.0822
| 22> H 	 47.8896 	 13.3642 	 89.3613
| 23> S 	 52.3509 	 11.3614 	 83.9517
| 24> C 	 52.6879 	 12.2546 	 82.5368
| 25> C 	 51.9548 	 13.4048 	 82.3872
| 26> C 	 51.1737 	 13.6145 	 83.5919
| 27> C 	 51.4219 	 12.7332 	 84.6203
| 28> H 	 52.1461 	 14.041 	 81.5139
| 29> C 	 50.2401 	 14.7422 	 83.7575
| 30> H 	 50.3253 	 15.4166 	 82.9029
| 31> H 	 50.6334 	 15.4336 	 84.4999
| 32> C 	 48.7863 	 14.2402 	 83.9381
| 33> H 	 48.6584 	 13.6608 	 84.8457
| 34> H 	 48.6056 	 13.5976 	 83.135
| 35> C 	 47.7197 	 15.3758 	 83.9803
| 36> H 	 48.0617 	 16.1389 	 84.6653
| 37> H 	 46.7029 	 15.1131 	 84.2884
| 38> H 	 47.5727 	 15.8849 	 83.0096
| 39> H 	 49.7872 	 11.262 	 89.029
| 40> H 	 53.4861 	 11.9985 	 81.8546
| 41> *
| 42>
| 43>                          ****END OF INPUT****

CARTESIAN COORDINATES (ANGSTROEM)
---------------------------------
  S     50.272100   11.109900   86.576000
  C     50.141000   11.766300   88.189300
  C     50.534700   13.116700   88.242900
  C     51.049900   13.537400   86.975800
  C     50.851000   12.625300   85.959200
  H     51.612600   14.442900   86.802600
  C     50.514600   13.991000   89.502200
  H     51.438900   14.522400   89.461400
  H     50.558800   13.339400   90.413900
  C     49.302200   14.947900   89.520500
  H     49.518200   15.699700   90.249400
  H     49.107800   15.399400   88.544700
  C     48.105200   14.172800   90.003900
  H     48.272100   13.784300   91.034600
  H     47.316500   14.834400   90.082200
  H     47.889600   13.364200   89.361300
  S     52.350900   11.361400   83.951700
  C     52.687900   12.254600   82.536800
  C     51.954800   13.404800   82.387200
  C     51.173700   13.614500   83.591900
  C     51.421900   12.733200   84.620300
  H     52.146100   14.041000   81.513900
  C     50.240100   14.742200   83.757500
  H     50.325300   15.416600   82.902900
  H     50.633400   15.433600   84.499900
  C     48.786300   14.240200   83.938100
  H     48.658400   13.660800   84.845700
  H     48.605600   13.597600   83.135000
  C     47.719700   15.375800   83.980300
  H     48.061700   16.138900   84.665300
  H     46.702900   15.113100   84.288400
  H     47.572700   15.884900   83.009600
  H     49.787200   11.262000   89.029000
  H     53.486100   11.998500   81.854600

 Total Charge           Charge          ....    0
 Multiplicity           Mult            ....    1
 Number of Electrons    NEL             ....  134
 Basis Dimension        Dim             ....  322

ORBITAL ENERGIES
----------------

  NO   OCC          E(Eh)            E(eV)
   0   2.0000     -88.968720     -2420.9620
   1   2.0000     -88.961956     -2420.7779
   2   2.0000     -10.328234      -281.0455
   3   2.0000     -10.323604      -280.9195
   4   2.0000     -10.313020      -280.6316
   5   2.0000     -10.311319      -280.5853
   6   2.0000     -10.303778      -280.3800
   7   2.0000     -10.301688      -280.3232
   8   2.0000     -10.295838      -280.1640
   9   2.0000     -10.294101      -280.1167
  10   2.0000     -10.293660      -280.1047
  11   2.0000     -10.285069      -279.8709
  12   2.0000     -10.283658      -279.8325
  13   2.0000     -10.279229      -279.7120
  14   2.0000     -10.275222      -279.6030
  15   2.0000     -10.266127      -279.3555
  16   2.0000      -8.083462      -219.9622
  17   2.0000      -8.077277      -219.7939
  18   2.0000      -6.041975      -164.4105
  19   2.0000      -6.037968      -164.3015
  20   2.0000      -6.035743      -164.2409
  21   2.0000      -6.034229      -164.1997
  22   2.0000      -6.031836      -164.1346
  23   2.0000      -6.027914      -164.0279
  24   2.0000      -1.008377       -27.4393
  25   2.0000      -0.985485       -26.8164
  26   2.0000      -0.916044       -24.9268
  27   2.0000      -0.908184       -24.7130
  28   2.0000      -0.868375       -23.6297
  29   2.0000      -0.851632       -23.1741
  30   2.0000      -0.844713       -22.9858
  31   2.0000      -0.814758       -22.1707
  32   2.0000      -0.782978       -21.3059
  33   2.0000      -0.770355       -20.9624
  34   2.0000      -0.711933       -19.3727
  35   2.0000      -0.700143       -19.0519
  36   2.0000      -0.693229       -18.8637
  37   2.0000      -0.659535       -17.9469
  38   2.0000      -0.642627       -17.4868
  39   2.0000      -0.620326       -16.8799
  40   2.0000      -0.593914       -16.1612
  41   2.0000      -0.576219       -15.6797
  42   2.0000      -0.562096       -15.2954
  43   2.0000      -0.552876       -15.0445
  44   2.0000      -0.543691       -14.7946
  45   2.0000      -0.525067       -14.2878
  46   2.0000      -0.516068       -14.0429
  47   2.0000      -0.512299       -13.9404
  48   2.0000      -0.503556       -13.7025
  49   2.0000      -0.501202       -13.6384
  50   2.0000      -0.482767       -13.1368
  51   2.0000      -0.482695       -13.1348
  52   2.0000      -0.470541       -12.8041
  53   2.0000      -0.461655       -12.5623
  54   2.0000      -0.458012       -12.4631
  55   2.0000      -0.451712       -12.2917
  56   2.0000      -0.441000       -12.0002
  57   2.0000      -0.438120       -11.9219
  58   2.0000      -0.433596       -11.7987
  59   2.0000      -0.430794       -11.7225
  60   2.0000      -0.421627       -11.4731
  61   2.0000      -0.417176       -11.3519
  62   2.0000      -0.411680       -11.2024
  63   2.0000      -0.348273        -9.4770
  64   2.0000      -0.329989        -8.9794
  65   2.0000      -0.328641        -8.9428
  66   2.0000      -0.289585        -7.8800
  67   0.0000       0.030163         0.8208
  68   0.0000       0.064900         1.7660
  69   0.0000       0.110075         2.9953
  70   0.0000       0.119303         3.2464
  71   0.0000       0.133820         3.6414

MULLIKEN ATOMIC CHARGES
-----------------------
   0 S :    0.112613
   1 C :   -0.096468
   2 C :   -0.109288
   3 C :    0.015678
   4 C :   -0.145696
   5 H :    0.018628
   6 C :    0.061135
   7 H :    0.019171
   8 H :    0.028519
   9 C :   -0.048514
  10 H :    0.024536
  11 H :    0.036119
  12 C :   -0.013564
  13 H :    0.020226
  14 H :    0.014340
  15 H :    0.028473
  16 S :    0.099139
  17 C :   -0.087964
  18 C :   -0.026684
  19 C :   -0.078858
  20 C :   -0.137688
  21 H :    0.031900
  22 C :    0.084764
  23 H :   -0.000658
  24 H :    0.021158
  25 C :   -0.048713
  26 H :    0.049732
  27 H :    0.020656
  28 C :   -0.051260
  29 H :    0.021301
  30 H :    0.033154
  31 H :    0.026137
  32 H :    0.022999
  33 H :    0.054978
Sum of atomic charges:    0.0000000

LOEWDIN ATOMIC CHARGES
----------------------
   0 S :    0.412590
   1 C :   -0.194674
   2 C :   -0.056635
   3 C :   -0.061047
   4 C :   -0.198577
   5 H :    0.031517
   6 C :   -0.027603
   7 H :    0.024933
   8 H :    0.033866
   9 C :   -0.032053
  10 H :    0.021151
  11 H :    0.027016
  12 C :   -0.053537
  13 H :    0.027324
  14 H :    0.014760
  15 H :    0.019087
  16 S :    0.396892
  17 C :   -0.185759
  18 C :   -0.079202
  19 C :   -0.051619
  20 C :   -0.189722
  21 H :    0.039611
  22 C :   -0.038210
  23 H :    0.027436
  24 H :    0.029912
  25 C :   -0.026936
  26 H :    0.027997
  27 H :    0.018760
  28 C :   -0.070632
  29 H :    0.021399
  30 H :    0.025791
  31 H :    0.024060
  32 H :    0.013741
  33 H :    0.028362

  Mayer bond orders larger than 0.100000
B(  0-S ,  1-C ) :   1.1388 B(  0-S ,  4-C ) :   1.1452 B(  1-C ,  2-C ) :   1.5963
B(  1-C , 32-H ) :   0.9743 B(  2-C ,  3-C ) :   1.2528 B(  2-C ,  6-C ) :   1.0185
B(  3-C ,  4-C ) :   1.5694 B(  3-C ,  5-H ) :   0.9900 B(  4-C , 20-C ) :   1.0537
B(  6-C ,  7-H ) :   0.9383 B(  6-C ,  8-H ) :   0.9465 B(  6-C ,  9-C ) :   1.0638
B(  9-C , 10-H ) :   0.9539 B(  9-C , 11-H ) :   0.9561 B(  9-C , 12-C ) :   1.0845
B( 12-C , 13-H ) :   0.9722 B( 12-C , 14-H ) :   0.9700 B( 12-C , 15-H ) :   0.9759
B( 16-S , 17-C ) :   1.1739 B( 16-S , 20-C ) :   1.1042 B( 17-C , 18-C ) :   1.6225
B( 17-C , 33-H ) :   0.9613 B( 18-C , 19-C ) :   1.2113 B( 18-C , 21-H ) :   0.9915
B( 19-C , 20-C ) :   1.6180 B( 19-C , 22-C ) :   1.0595 B( 22-C , 23-H ) :   0.9284
B( 22-C , 24-H ) :   0.9254 B( 22-C , 25-C ) :   1.0405 B( 25-C , 26-H ) :   0.9562
B( 25-C , 27-H ) :   0.9575 B( 25-C , 28-C ) :   1.0797 B( 28-C , 29-H ) :   0.9747
B( 28-C , 30-H ) :   0.9771 B( 28-C , 31-H ) :   0.9759

Dispersion correction           -0.014973780
FINAL SINGLE POINT ENERGY     -1339.880138512039

DIPOLE MOMENT
-------------
                                X             Y             Z
Electronic contribution:     16.56221     -21.02163     -10.39371
Nuclear contribution   :    -16.57598      21.65825      10.55328
                        -----------------------------------------
Total Dipole Moment    :     -0.01377       0.63662       0.15956
                        -----------------------------------------
Magnitude (a.u.)       :      0.65645
Magnitude (Debye)      :      1.66857

Rotational constants in cm-1:     0.020255     0.009164     0.007213
Rotational constants in MHz :   607.239162   274.716067   216.236675

                             ****ORCA TERMINATED NORMALLY****
TOTAL RUN TIME: 0 days 0 hours 0 minutes 31 seconds 661 msec
