                         Program Version 4.2.1 -  RELEASE  -
|  1> ! wB97X-D3 SP def2-SVP
|  2> %pal
|  3> nprocs 16
|  4> end
|  5>
|  6> * xyz 0 1
|  7> S 	 -45.8351 	 64.0323 	 131.272
|  8> C 	 -46.0627 	 62.4857 	 130.485
|  9> C 	 -45.9813 	 61.4765 	 131.482
| 10> C 	 -45.4962 	 61.9853 	 132.696
| 11> C 	 -45.3556 	 63.2838 	 132.758
| 12> H 	 -45.4595 	 61.3996 	 133.529
| 13> C 	 -46.2213 	 59.9939 	 131.254
| 14> H 	 -45.3708 	 59.4574 	 131.784
| 15> H 	 -45.9306 	 59.8232 	 130.196
| 16> C 	 -47.6037 	 59.3333 	 131.523
| 17> H 	 -47.3967 	 58.2903 	 131.372
| 18> H 	 -48.0631 	 59.5698 	 132.486
| 19> C 	 -48.5841 	 59.8269 	 130.464
| 20> H 	 -48.0739 	 59.9167 	 129.542
| 21> H 	 -49.4086 	 58.9869 	 130.36
| 22> H 	 -48.8917 	 60.8635 	 130.662
| 23> S 	 -43.9739 	 65.4642 	 133.614
| 24> C 	 -44.0513 	 65.9236 	 135.336
| 25> C 	 -44.9292 	 65.1505 	 135.976
| 26> C 	 -45.5864 	 64.1901 	 135.171
| 27> C 	 -45.1238 	 64.1769 	 133.878
| 28> H 	 -45.202 	 65.2958 	 137.04
| 29> C 	 -46.6637 	 63.3146 	 135.841
| 30> H 	 -47.4979 	 63.1756 	 135.16
| 31> H 	 -47.0721 	 63.9541 	 136.654
| 32> C 	 -46.1007 	 62.0978 	 136.623
| 33> H 	 -45.4429 	 62.39 	 137.298
| 34> H 	 -45.5889 	 61.3747 	 135.903
| 35> C 	 -47.1252 	 61.3056 	 137.425
| 36> H 	 -47.9152 	 60.9398 	 136.848
| 37> H 	 -47.6429 	 61.8442 	 138.212
| 38> H 	 -46.6073 	 60.4667 	 137.861
| 39> H 	 -46.3375 	 62.3274 	 129.42
| 40> H 	 -43.5478 	 66.754 	 135.684
| 41> *
| 42>
| 43>                          ****END OF INPUT****

CARTESIAN COORDINATES (ANGSTROEM)
---------------------------------
  S    -45.835100   64.032300  131.272000
  C    -46.062700   62.485700  130.485000
  C    -45.981300   61.476500  131.482000
  C    -45.496200   61.985300  132.696000
  C    -45.355600   63.283800  132.758000
  H    -45.459500   61.399600  133.529000
  C    -46.221300   59.993900  131.254000
  H    -45.370800   59.457400  131.784000
  H    -45.930600   59.823200  130.196000
  C    -47.603700   59.333300  131.523000
  H    -47.396700   58.290300  131.372000
  H    -48.063100   59.569800  132.486000
  C    -48.584100   59.826900  130.464000
  H    -48.073900   59.916700  129.542000
  H    -49.408600   58.986900  130.360000
  H    -48.891700   60.863500  130.662000
  S    -43.973900   65.464200  133.614000
  C    -44.051300   65.923600  135.336000
  C    -44.929200   65.150500  135.976000
  C    -45.586400   64.190100  135.171000
  C    -45.123800   64.176900  133.878000
  H    -45.202000   65.295800  137.040000
  C    -46.663700   63.314600  135.841000
  H    -47.497900   63.175600  135.160000
  H    -47.072100   63.954100  136.654000
  C    -46.100700   62.097800  136.623000
  H    -45.442900   62.390000  137.298000
  H    -45.588900   61.374700  135.903000
  C    -47.125200   61.305600  137.425000
  H    -47.915200   60.939800  136.848000
  H    -47.642900   61.844200  138.212000
  H    -46.607300   60.466700  137.861000
  H    -46.337500   62.327400  129.420000
  H    -43.547800   66.754000  135.684000

 Total Charge           Charge          ....    0
 Multiplicity           Mult            ....    1
 Number of Electrons    NEL             ....  134
 Basis Dimension        Dim             ....  322

ORBITAL ENERGIES
----------------

  NO   OCC          E(Eh)            E(eV)
   0   2.0000     -88.962449     -2420.7913
   1   2.0000     -88.960951     -2420.7505
   2   2.0000     -10.324678      -280.9488
   3   2.0000     -10.319517      -280.8083
   4   2.0000     -10.319252      -280.8011
   5   2.0000     -10.311237      -280.5830
   6   2.0000     -10.301024      -280.3051
   7   2.0000     -10.300723      -280.2969
   8   2.0000     -10.297399      -280.2065
   9   2.0000     -10.296997      -280.1955
  10   2.0000     -10.290790      -280.0266
  11   2.0000     -10.288690      -279.9695
  12   2.0000     -10.285100      -279.8718
  13   2.0000     -10.281255      -279.7672
  14   2.0000     -10.276282      -279.6319
  15   2.0000     -10.271681      -279.5067
  16   2.0000      -8.077746      -219.8066
  17   2.0000      -8.075832      -219.7546
  18   2.0000      -6.036210      -164.2536
  19   2.0000      -6.034383      -164.2039
  20   2.0000      -6.032174      -164.1438
  21   2.0000      -6.030351      -164.0942
  22   2.0000      -6.028504      -164.0439
  23   2.0000      -6.026487      -163.9891
  24   2.0000      -1.014931       -27.6177
  25   2.0000      -0.989394       -26.9228
  26   2.0000      -0.911897       -24.8140
  27   2.0000      -0.909278       -24.7427
  28   2.0000      -0.872961       -23.7545
  29   2.0000      -0.856747       -23.3133
  30   2.0000      -0.849391       -23.1131
  31   2.0000      -0.820257       -22.3203
  32   2.0000      -0.781440       -21.2641
  33   2.0000      -0.769648       -20.9432
  34   2.0000      -0.711068       -19.3492
  35   2.0000      -0.703679       -19.1481
  36   2.0000      -0.694767       -18.9056
  37   2.0000      -0.665759       -18.1162
  38   2.0000      -0.645775       -17.5724
  39   2.0000      -0.629947       -17.1417
  40   2.0000      -0.602275       -16.3887
  41   2.0000      -0.570842       -15.5334
  42   2.0000      -0.565521       -15.3886
  43   2.0000      -0.545652       -14.8479
  44   2.0000      -0.539896       -14.6913
  45   2.0000      -0.535808       -14.5801
  46   2.0000      -0.519627       -14.1398
  47   2.0000      -0.514812       -14.0087
  48   2.0000      -0.510572       -13.8934
  49   2.0000      -0.500770       -13.6266
  50   2.0000      -0.488251       -13.2860
  51   2.0000      -0.477847       -13.0029
  52   2.0000      -0.469901       -12.7867
  53   2.0000      -0.463829       -12.6214
  54   2.0000      -0.462239       -12.5782
  55   2.0000      -0.448625       -12.2077
  56   2.0000      -0.446426       -12.1479
  57   2.0000      -0.443366       -12.0646
  58   2.0000      -0.435754       -11.8575
  59   2.0000      -0.420790       -11.4503
  60   2.0000      -0.418087       -11.3767
  61   2.0000      -0.416329       -11.3289
  62   2.0000      -0.412307       -11.2194
  63   2.0000      -0.350693        -9.5428
  64   2.0000      -0.332806        -9.0561
  65   2.0000      -0.328839        -8.9482
  66   2.0000      -0.295738        -8.0474
  67   0.0000       0.032085         0.8731
  68   0.0000       0.073458         1.9989
  69   0.0000       0.106675         2.9028
  70   0.0000       0.121907         3.3173
  71   0.0000       0.127220         3.4618

MULLIKEN ATOMIC CHARGES
-----------------------
   0 S :    0.101932
   1 C :   -0.129767
   2 C :   -0.111866
   3 C :    0.060503
   4 C :   -0.077774
   5 H :   -0.054280
   6 C :   -0.021827
   7 H :    0.034875
   8 H :    0.025932
   9 C :   -0.015148
  10 H :    0.032645
  11 H :    0.038745
  12 C :   -0.069532
  13 H :    0.003966
  14 H :    0.053200
  15 H :    0.045371
  16 S :    0.087513
  17 C :   -0.055283
  18 C :   -0.028406
  19 C :   -0.032465
  20 C :   -0.163646
  21 H :    0.027630
  22 C :    0.055221
  23 H :    0.035662
  24 H :    0.012976
  25 C :   -0.030919
  26 H :   -0.006216
  27 H :    0.038861
  28 C :   -0.019609
  29 H :    0.012601
  30 H :    0.022897
  31 H :    0.031338
  32 H :    0.065166
  33 H :    0.029702
Sum of atomic charges:   -0.0000000

LOEWDIN ATOMIC CHARGES
----------------------
   0 S :    0.411706
   1 C :   -0.206646
   2 C :   -0.063518
   3 C :   -0.060574
   4 C :   -0.189419
   5 H :    0.016612
   6 C :   -0.044201
   7 H :    0.034813
   8 H :    0.032478
   9 C :   -0.036826
  10 H :    0.025868
  11 H :    0.026828
  12 C :   -0.070902
  13 H :    0.010648
  14 H :    0.041074
  15 H :    0.029668
  16 S :    0.387231
  17 C :   -0.154347
  18 C :   -0.072580
  19 C :   -0.059619
  20 C :   -0.197204
  21 H :    0.037342
  22 C :   -0.029204
  23 H :    0.030330
  24 H :    0.033132
  25 C :   -0.026997
  26 H :    0.004931
  27 H :    0.029440
  28 C :   -0.058502
  29 H :    0.015741
  30 H :    0.023553
  31 H :    0.028768
  32 H :    0.035929
  33 H :    0.014447

  Mayer bond orders larger than 0.100000
B(  0-S ,  1-C ) :   1.1464 B(  0-S ,  4-C ) :   1.1556 B(  1-C ,  2-C ) :   1.5740
B(  1-C , 32-H ) :   0.9681 B(  2-C ,  3-C ) :   1.2583 B(  2-C ,  6-C ) :   1.0167
B(  3-C ,  4-C ) :   1.5991 B(  3-C ,  5-H ) :   1.0224 B(  4-C , 20-C ) :   0.9959
B(  6-C ,  7-H ) :   0.9459 B(  6-C ,  8-H ) :   0.9457 B(  6-C ,  9-C ) :   1.0619
B(  9-C , 10-H ) :   0.9523 B(  9-C , 11-H ) :   0.9594 B(  9-C , 12-C ) :   1.0725
B( 12-C , 13-H ) :   0.9745 B( 12-C , 14-H ) :   0.9726 B( 12-C , 15-H ) :   0.9743
B( 16-S , 17-C ) :   1.1319 B( 16-S , 20-C ) :   1.1386 B( 17-C , 18-C ) :   1.6205
B( 17-C , 33-H ) :   0.9826 B( 18-C , 19-C ) :   1.2370 B( 18-C , 21-H ) :   0.9801
B( 19-C , 20-C ) :   1.6251 B( 19-C , 22-C ) :   1.0391 B( 22-C , 23-H ) :   0.9412
B( 22-C , 24-H ) :   0.9308 B( 22-C , 25-C ) :   1.0629 B( 25-C , 26-H ) :   0.9476
B( 25-C , 27-H ) :   0.9525 B( 25-C , 28-C ) :   1.0887 B( 28-C , 29-H ) :   0.9743
B( 28-C , 30-H ) :   0.9724 B( 28-C , 31-H ) :   0.9726

Dispersion correction           -0.014212334
FINAL SINGLE POINT ENERGY     -1339.855792759529

DIPOLE MOMENT
-------------
                                X             Y             Z
Electronic contribution:     15.44133      24.76812      -8.70124
Nuclear contribution   :    -15.77641     -25.26663       9.17524
                        -----------------------------------------
Total Dipole Moment    :     -0.33508      -0.49850       0.47400
                        -----------------------------------------
Magnitude (a.u.)       :      0.76515
Magnitude (Debye)      :      1.94487

Rotational constants in cm-1:     0.017840     0.009435     0.006578
Rotational constants in MHz :   534.832909   282.847343   197.215975

                             ****ORCA TERMINATED NORMALLY****
TOTAL RUN TIME: 0 days 0 hours 0 minutes 33 seconds 417 msec
