                         Program Version 4.2.1 -  RELEASE  -
|  1> ! wB97X-D3 SP def2-SVP
|  2> %pal
|  3> nprocs 16
|  4> end
|  5>
|  6> * xyz 0 1
|  7> S 	 8.46311 	 23.1892 	 60.8812
|  8> C 	 8.95891 	 21.5127 	 61.1246
|  9> C 	 8.14911 	 20.8413 	 62.0108
| 10> C 	 7.20655 	 21.7505 	 62.6207
| 11> C 	 7.20926 	 23.0236 	 62.0563
| 12> H 	 6.47997 	 21.4612 	 63.4126
| 13> C 	 8.36822 	 19.438 	 62.5566
| 14> H 	 8.01167 	 18.7655 	 61.7901
| 15> H 	 7.55176 	 19.1535 	 63.291
| 16> C 	 9.80341 	 19.1163 	 63.001
| 17> H 	 9.99862 	 18.0721 	 63.1695
| 18> H 	 10.4598 	 19.4185 	 62.2467
| 19> C 	 10.2005 	 19.8938 	 64.3147
| 20> H 	 9.5143 	 19.7835 	 65.1559
| 21> H 	 11.1947 	 19.5388 	 64.559
| 22> H 	 10.2869 	 20.9421 	 64.0852
| 23> S 	 7.54633 	 25.5716 	 62.7458
| 24> C 	 6.27095 	 26.3488 	 63.7221
| 25> C 	 5.20411 	 25.4988 	 63.9541
| 26> C 	 5.36284 	 24.2178 	 63.3186
| 27> C 	 6.54582 	 24.153 	 62.6384
| 28> H 	 4.2991 	 25.7061 	 64.5916
| 29> C 	 4.17476 	 23.2281 	 63.2231
| 30> H 	 3.46985 	 23.3382 	 64.0431
| 31> H 	 4.69425 	 22.2829 	 63.3617
| 32> C 	 3.30564 	 23.339 	 61.9673
| 33> H 	 3.93204 	 23.1768 	 61.1076
| 34> H 	 2.71421 	 24.2113 	 61.9014
| 35> C 	 2.25949 	 22.1731 	 62.0846
| 36> H 	 1.63566 	 22.1497 	 61.2162
| 37> H 	 1.59529 	 22.1535 	 62.944
| 38> H 	 2.83346 	 21.1826 	 62.2085
| 39> H 	 9.84152 	 21.0516 	 60.6661
| 40> H 	 6.37675 	 27.3252 	 64.0683
| 41> *
| 42>
| 43>                          ****END OF INPUT****

CARTESIAN COORDINATES (ANGSTROEM)
---------------------------------
  S      8.463110   23.189200   60.881200
  C      8.958910   21.512700   61.124600
  C      8.149110   20.841300   62.010800
  C      7.206550   21.750500   62.620700
  C      7.209260   23.023600   62.056300
  H      6.479970   21.461200   63.412600
  C      8.368220   19.438000   62.556600
  H      8.011670   18.765500   61.790100
  H      7.551760   19.153500   63.291000
  C      9.803410   19.116300   63.001000
  H      9.998620   18.072100   63.169500
  H     10.459800   19.418500   62.246700
  C     10.200500   19.893800   64.314700
  H      9.514300   19.783500   65.155900
  H     11.194700   19.538800   64.559000
  H     10.286900   20.942100   64.085200
  S      7.546330   25.571600   62.745800
  C      6.270950   26.348800   63.722100
  C      5.204110   25.498800   63.954100
  C      5.362840   24.217800   63.318600
  C      6.545820   24.153000   62.638400
  H      4.299100   25.706100   64.591600
  C      4.174760   23.228100   63.223100
  H      3.469850   23.338200   64.043100
  H      4.694250   22.282900   63.361700
  C      3.305640   23.339000   61.967300
  H      3.932040   23.176800   61.107600
  H      2.714210   24.211300   61.901400
  C      2.259490   22.173100   62.084600
  H      1.635660   22.149700   61.216200
  H      1.595290   22.153500   62.944000
  H      2.833460   21.182600   62.208500
  H      9.841520   21.051600   60.666100
  H      6.376750   27.325200   64.068300

 Total Charge           Charge          ....    0
 Multiplicity           Mult            ....    1
 Number of Electrons    NEL             ....  134
 Basis Dimension        Dim             ....  322

ORBITAL ENERGIES
----------------

  NO   OCC          E(Eh)            E(eV)
   0   2.0000     -88.968897     -2420.9668
   1   2.0000     -88.964798     -2420.8552
   2   2.0000     -10.325273      -280.9650
   3   2.0000     -10.320928      -280.8467
   4   2.0000     -10.315451      -280.6977
   5   2.0000     -10.314916      -280.6831
   6   2.0000     -10.303356      -280.3686
   7   2.0000     -10.298952      -280.2487
   8   2.0000     -10.297680      -280.2141
   9   2.0000     -10.296781      -280.1896
  10   2.0000     -10.296518      -280.1825
  11   2.0000     -10.293316      -280.0954
  12   2.0000     -10.286454      -279.9086
  13   2.0000     -10.285135      -279.8727
  14   2.0000     -10.280875      -279.7568
  15   2.0000     -10.274014      -279.5701
  16   2.0000      -8.083715      -219.9691
  17   2.0000      -8.079546      -219.8556
  18   2.0000      -6.042280      -164.4188
  19   2.0000      -6.038215      -164.3082
  20   2.0000      -6.038071      -164.3043
  21   2.0000      -6.034422      -164.2050
  22   2.0000      -6.034198      -164.1989
  23   2.0000      -6.030132      -164.0882
  24   2.0000      -1.010317       -27.4921
  25   2.0000      -0.980966       -26.6935
  26   2.0000      -0.911024       -24.7902
  27   2.0000      -0.907294       -24.6887
  28   2.0000      -0.867807       -23.6142
  29   2.0000      -0.852329       -23.1930
  30   2.0000      -0.841743       -22.9050
  31   2.0000      -0.807341       -21.9689
  32   2.0000      -0.781240       -21.2586
  33   2.0000      -0.770878       -20.9766
  34   2.0000      -0.711404       -19.3583
  35   2.0000      -0.706473       -19.2241
  36   2.0000      -0.694060       -18.8863
  37   2.0000      -0.669187       -18.2095
  38   2.0000      -0.634520       -17.2662
  39   2.0000      -0.610785       -16.6203
  40   2.0000      -0.594977       -16.1902
  41   2.0000      -0.572051       -15.5663
  42   2.0000      -0.571285       -15.5455
  43   2.0000      -0.549875       -14.9629
  44   2.0000      -0.533581       -14.5195
  45   2.0000      -0.527281       -14.3481
  46   2.0000      -0.512461       -13.9448
  47   2.0000      -0.511506       -13.9188
  48   2.0000      -0.500179       -13.6106
  49   2.0000      -0.493092       -13.4177
  50   2.0000      -0.489602       -13.3228
  51   2.0000      -0.480631       -13.0786
  52   2.0000      -0.471739       -12.8367
  53   2.0000      -0.461821       -12.5668
  54   2.0000      -0.454330       -12.3629
  55   2.0000      -0.449793       -12.2395
  56   2.0000      -0.442578       -12.0432
  57   2.0000      -0.440759       -11.9937
  58   2.0000      -0.437941       -11.9170
  59   2.0000      -0.432434       -11.7671
  60   2.0000      -0.423387       -11.5209
  61   2.0000      -0.414727       -11.2853
  62   2.0000      -0.406619       -11.0647
  63   2.0000      -0.354131        -9.6364
  64   2.0000      -0.334387        -9.0991
  65   2.0000      -0.329610        -8.9691
  66   2.0000      -0.283396        -7.7116
  67   0.0000       0.023307         0.6342
  68   0.0000       0.077551         2.1103
  69   0.0000       0.098319         2.6754
  70   0.0000       0.119350         3.2477
  71   0.0000       0.137122         3.7313

MULLIKEN ATOMIC CHARGES
-----------------------
   0 S :    0.105178
   1 C :   -0.151885
   2 C :   -0.069994
   3 C :   -0.022756
   4 C :   -0.127966
   5 H :    0.038825
   6 C :    0.056875
   7 H :    0.027159
   8 H :    0.020866
   9 C :   -0.037866
  10 H :    0.028124
  11 H :    0.012035
  12 C :   -0.055875
  13 H :    0.036541
  14 H :    0.028385
  15 H :    0.039238
  16 S :    0.094108
  17 C :   -0.074308
  18 C :   -0.025498
  19 C :   -0.075271
  20 C :   -0.121115
  21 H :    0.036067
  22 C :    0.063093
  23 H :    0.010870
  24 H :    0.001657
  25 C :   -0.004863
  26 H :    0.038658
  27 H :    0.028325
  28 C :   -0.079916
  29 H :    0.032130
  30 H :    0.027071
  31 H :    0.031213
  32 H :    0.056241
  33 H :    0.034653
Sum of atomic charges:    0.0000000

LOEWDIN ATOMIC CHARGES
----------------------
   0 S :    0.405877
   1 C :   -0.199194
   2 C :   -0.060511
   3 C :   -0.065906
   4 C :   -0.204200
   5 H :    0.034728
   6 C :   -0.041230
   7 H :    0.032908
   8 H :    0.035247
   9 C :   -0.029155
  10 H :    0.023172
  11 H :    0.015929
  12 C :   -0.059451
  13 H :    0.024387
  14 H :    0.024045
  15 H :    0.025132
  16 S :    0.392018
  17 C :   -0.166317
  18 C :   -0.066593
  19 C :   -0.065833
  20 C :   -0.194662
  21 H :    0.040858
  22 C :   -0.027060
  23 H :    0.026977
  24 H :    0.024955
  25 C :   -0.021733
  26 H :    0.027854
  27 H :    0.021746
  28 C :   -0.068814
  29 H :    0.019770
  30 H :    0.020527
  31 H :    0.031038
  32 H :    0.029999
  33 H :    0.013493

  Mayer bond orders larger than 0.100000
B(  0-S ,  1-C ) :   1.1281 B(  0-S ,  4-C ) :   1.1473 B(  1-C ,  2-C ) :   1.6151
B(  1-C , 32-H ) :   0.9651 B(  2-C ,  3-C ) :   1.2528 B(  2-C ,  6-C ) :   1.0144
B(  3-C ,  4-C ) :   1.5662 B(  3-C ,  5-H ) :   0.9715 B(  4-C , 20-C ) :   1.0601
B(  6-C ,  7-H ) :   0.9254 B(  6-C ,  8-H ) :   0.9451 B(  6-C ,  9-C ) :   1.0727
B(  9-C , 10-H ) :   0.9575 B(  9-C , 11-H ) :   0.9552 B(  9-C , 12-C ) :   1.0692
B( 12-C , 13-H ) :   0.9797 B( 12-C , 14-H ) :   0.9760 B( 12-C , 15-H ) :   0.9784
B( 16-S , 17-C ) :   1.1319 B( 16-S , 20-C ) :   1.1339 B( 17-C , 18-C ) :   1.6117
B( 17-C , 33-H ) :   0.9802 B( 18-C , 19-C ) :   1.2371 B( 18-C , 21-H ) :   0.9798
B( 19-C , 20-C ) :   1.6217 B( 19-C , 22-C ) :   1.0297 B( 22-C , 23-H ) :   0.9372
B( 22-C , 24-H ) :   0.9317 B( 22-C , 25-C ) :   1.0713 B( 25-C , 26-H ) :   0.9549
B( 25-C , 27-H ) :   0.9561 B( 25-C , 28-C ) :   1.0706 B( 28-C , 29-H ) :   0.9753
B( 28-C , 30-H ) :   0.9766 B( 28-C , 31-H ) :   0.9766

Dispersion correction           -0.014264784
FINAL SINGLE POINT ENERGY     -1339.872449410423

DIPOLE MOMENT
-------------
                                X             Y             Z
Electronic contribution:      9.76642      20.68425      -7.46590
Nuclear contribution   :    -10.03815     -21.14256       7.77374
                        -----------------------------------------
Total Dipole Moment    :     -0.27173      -0.45832       0.30784
                        -----------------------------------------
Magnitude (a.u.)       :      0.61535
Magnitude (Debye)      :      1.56410

Rotational constants in cm-1:     0.017947     0.008863     0.007200
Rotational constants in MHz :   538.023192   265.710762   215.843557

                             ****ORCA TERMINATED NORMALLY****
TOTAL RUN TIME: 0 days 0 hours 0 minutes 34 seconds 948 msec
