                         Program Version 4.2.1 -  RELEASE  -
|  1> ! wB97X-D3 SP def2-SVP
|  2> %pal
|  3> nprocs 16
|  4> end
|  5>
|  6> * xyz 0 1
|  7> S 	 -63.9849 	 60.5444 	 123.18
|  8> C 	 -63.6087 	 61.3347 	 124.714
|  9> C 	 -62.4576 	 60.9055 	 125.278
| 10> C 	 -61.8383 	 59.9578 	 124.394
| 11> C 	 -62.5523 	 59.5597 	 123.361
| 12> H 	 -60.9172 	 59.4652 	 124.52
| 13> C 	 -62.0525 	 61.4065 	 126.63
| 14> H 	 -62.0785 	 62.5127 	 126.629
| 15> H 	 -60.9846 	 61.0237 	 126.884
| 16> C 	 -62.9428 	 60.8675 	 127.745
| 17> H 	 -63.9756 	 61.0399 	 127.501
| 18> H 	 -62.7355 	 59.7969 	 127.988
| 19> C 	 -62.8241 	 61.7203 	 128.991
| 20> H 	 -63.446 	 61.3954 	 129.81
| 21> H 	 -61.7801 	 61.6843 	 129.392
| 22> H 	 -63.2395 	 62.7496 	 128.863
| 23> S 	 -61.8216 	 58.991 	 120.711
| 24> C 	 -60.9246 	 57.418 	 120.502
| 25> C 	 -61.1883 	 56.6387 	 121.537
| 26> C 	 -61.824 	 57.2754 	 122.678
| 27> C 	 -62.1216 	 58.5692 	 122.435
| 28> H 	 -60.843 	 55.6172 	 121.526
| 29> C 	 -62.2369 	 56.5296 	 123.853
| 30> H 	 -62.0276 	 57.258 	 124.645
| 31> H 	 -61.3691 	 55.8919 	 123.986
| 32> C 	 -63.73 	 55.9612 	 123.788
| 33> H 	 -63.9231 	 55.6518 	 122.736
| 34> H 	 -64.3216 	 56.9182 	 123.868
| 35> C 	 -64.1743 	 55.0013 	 124.875
| 36> H 	 -64.2419 	 55.4077 	 125.908
| 37> H 	 -63.539 	 54.1123 	 124.862
| 38> H 	 -65.2205 	 54.7733 	 124.639
| 39> H 	 -64.2464 	 62.1245 	 125.09
| 40> H 	 -60.4619 	 57.127 	 119.591
| 41> *
| 42>
| 43>                          ****END OF INPUT****

CARTESIAN COORDINATES (ANGSTROEM)
---------------------------------
  S    -63.984900   60.544400  123.180000
  C    -63.608700   61.334700  124.714000
  C    -62.457600   60.905500  125.278000
  C    -61.838300   59.957800  124.394000
  C    -62.552300   59.559700  123.361000
  H    -60.917200   59.465200  124.520000
  C    -62.052500   61.406500  126.630000
  H    -62.078500   62.512700  126.629000
  H    -60.984600   61.023700  126.884000
  C    -62.942800   60.867500  127.745000
  H    -63.975600   61.039900  127.501000
  H    -62.735500   59.796900  127.988000
  C    -62.824100   61.720300  128.991000
  H    -63.446000   61.395400  129.810000
  H    -61.780100   61.684300  129.392000
  H    -63.239500   62.749600  128.863000
  S    -61.821600   58.991000  120.711000
  C    -60.924600   57.418000  120.502000
  C    -61.188300   56.638700  121.537000
  C    -61.824000   57.275400  122.678000
  C    -62.121600   58.569200  122.435000
  H    -60.843000   55.617200  121.526000
  C    -62.236900   56.529600  123.853000
  H    -62.027600   57.258000  124.645000
  H    -61.369100   55.891900  123.986000
  C    -63.730000   55.961200  123.788000
  H    -63.923100   55.651800  122.736000
  H    -64.321600   56.918200  123.868000
  C    -64.174300   55.001300  124.875000
  H    -64.241900   55.407700  125.908000
  H    -63.539000   54.112300  124.862000
  H    -65.220500   54.773300  124.639000
  H    -64.246400   62.124500  125.090000
  H    -60.461900   57.127000  119.591000

 Total Charge           Charge          ....    0
 Multiplicity           Mult            ....    1
 Number of Electrons    NEL             ....  134
 Basis Dimension        Dim             ....  322

ORBITAL ENERGIES
----------------

  NO   OCC          E(Eh)            E(eV)
   0   2.0000     -88.961437     -2420.7638
   1   2.0000     -88.955235     -2420.5950
   2   2.0000     -10.319511      -280.8082
   3   2.0000     -10.316819      -280.7349
   4   2.0000     -10.315290      -280.6933
   5   2.0000     -10.310393      -280.5601
   6   2.0000     -10.302250      -280.3385
   7   2.0000     -10.298381      -280.2332
   8   2.0000     -10.298102      -280.2256
   9   2.0000     -10.293772      -280.1078
  10   2.0000     -10.288168      -279.9553
  11   2.0000     -10.287634      -279.9407
  12   2.0000     -10.285110      -279.8721
  13   2.0000     -10.284674      -279.8602
  14   2.0000     -10.282991      -279.8144
  15   2.0000     -10.281081      -279.7624
  16   2.0000      -8.076469      -219.7719
  17   2.0000      -8.069045      -219.5699
  18   2.0000      -6.034951      -164.2194
  19   2.0000      -6.031112      -164.1149
  20   2.0000      -6.027868      -164.0266
  21   2.0000      -6.027077      -164.0051
  22   2.0000      -6.024025      -163.9221
  23   2.0000      -6.019169      -163.7899
  24   2.0000      -1.011979       -27.5373
  25   2.0000      -0.984420       -26.7874
  26   2.0000      -0.919097       -25.0099
  27   2.0000      -0.903763       -24.5927
  28   2.0000      -0.877761       -23.8851
  29   2.0000      -0.853118       -23.2145
  30   2.0000      -0.846265       -23.0280
  31   2.0000      -0.823530       -22.4094
  32   2.0000      -0.780245       -21.2316
  33   2.0000      -0.768023       -20.8990
  34   2.0000      -0.709436       -19.3047
  35   2.0000      -0.698859       -19.0169
  36   2.0000      -0.696082       -18.9414
  37   2.0000      -0.662273       -18.0214
  38   2.0000      -0.649875       -17.6840
  39   2.0000      -0.616686       -16.7809
  40   2.0000      -0.589059       -16.0291
  41   2.0000      -0.580435       -15.7944
  42   2.0000      -0.562412       -15.3040
  43   2.0000      -0.553210       -15.0536
  44   2.0000      -0.531173       -14.4540
  45   2.0000      -0.525304       -14.2942
  46   2.0000      -0.522102       -14.2071
  47   2.0000      -0.516095       -14.0437
  48   2.0000      -0.512900       -13.9567
  49   2.0000      -0.498921       -13.5763
  50   2.0000      -0.495097       -13.4723
  51   2.0000      -0.477327       -12.9887
  52   2.0000      -0.469286       -12.7699
  53   2.0000      -0.460201       -12.5227
  54   2.0000      -0.453409       -12.3379
  55   2.0000      -0.445900       -12.1335
  56   2.0000      -0.441193       -12.0055
  57   2.0000      -0.435360       -11.8467
  58   2.0000      -0.431908       -11.7528
  59   2.0000      -0.428217       -11.6524
  60   2.0000      -0.417187       -11.3522
  61   2.0000      -0.414877       -11.2894
  62   2.0000      -0.408459       -11.1147
  63   2.0000      -0.347584        -9.4582
  64   2.0000      -0.330410        -8.9909
  65   2.0000      -0.322515        -8.7761
  66   2.0000      -0.299601        -8.1525
  67   0.0000       0.037375         1.0170
  68   0.0000       0.066264         1.8031
  69   0.0000       0.104545         2.8448
  70   0.0000       0.120725         3.2851
  71   0.0000       0.134601         3.6627

MULLIKEN ATOMIC CHARGES
-----------------------
   0 S :    0.099780
   1 C :   -0.137495
   2 C :   -0.039089
   3 C :    0.050818
   4 C :   -0.172154
   5 H :   -0.007698
   6 C :    0.039017
   7 H :    0.040984
   8 H :    0.036306
   9 C :   -0.064133
  10 H :    0.022998
  11 H :    0.045195
  12 C :   -0.073042
  13 H :    0.024960
  14 H :    0.034759
  15 H :    0.034193
  16 S :    0.063540
  17 C :   -0.076537
  18 C :   -0.006078
  19 C :   -0.109578
  20 C :   -0.137777
  21 H :    0.013431
  22 C :    0.122213
  23 H :    0.004342
  24 H :    0.004085
  25 C :   -0.077072
  26 H :    0.041320
  27 H :    0.036828
  28 C :   -0.025567
  29 H :    0.041097
  30 H :    0.040135
  31 H :    0.036743
  32 H :    0.046634
  33 H :    0.046844
Sum of atomic charges:   -0.0000000

LOEWDIN ATOMIC CHARGES
----------------------
   0 S :    0.383721
   1 C :   -0.176113
   2 C :   -0.066888
   3 C :   -0.052474
   4 C :   -0.192957
   5 H :    0.025159
   6 C :   -0.034565
   7 H :    0.036537
   8 H :    0.039311
   9 C :   -0.042757
  10 H :    0.021223
  11 H :    0.032013
  12 C :   -0.074017
  13 H :    0.022774
  14 H :    0.025904
  15 H :    0.028560
  16 S :    0.329117
  17 C :   -0.143837
  18 C :   -0.068709
  19 C :   -0.060424
  20 C :   -0.174410
  21 H :    0.031006
  22 C :   -0.046066
  23 H :    0.032179
  24 H :    0.026058
  25 C :   -0.037856
  26 H :    0.030566
  27 H :    0.035048
  28 C :   -0.069529
  29 H :    0.032506
  30 H :    0.026411
  31 H :    0.032643
  32 H :    0.024140
  33 H :    0.025728

  Mayer bond orders larger than 0.100000
B(  0-S ,  1-C ) :   1.1276 B(  0-S ,  4-C ) :   1.1089 B(  1-C ,  2-C ) :   1.6401
B(  1-C , 32-H ) :   0.9686 B(  2-C ,  3-C ) :   1.1974 B(  2-C ,  6-C ) :   1.0183
B(  3-C ,  4-C ) :   1.6498 B(  3-C ,  5-H ) :   0.9984 B(  4-C , 20-C ) :   1.0355
B(  6-C ,  7-H ) :   0.9428 B(  6-C ,  8-H ) :   0.9377 B(  6-C ,  9-C ) :   1.0669
B(  9-C , 10-H ) :   0.9577 B(  9-C , 11-H ) :   0.9530 B(  9-C , 12-C ) :   1.0874
B( 12-C , 13-H ) :   0.9717 B( 12-C , 14-H ) :   0.9715 B( 12-C , 15-H ) :   0.9732
B( 16-S , 17-C ) :   1.1031 B( 16-S , 20-C ) :   1.0896 B( 17-C , 18-C ) :   1.6813
B( 17-C , 33-H ) :   0.9721 B( 18-C , 19-C ) :   1.1725 B( 18-C , 21-H ) :   0.9880
B( 19-C , 20-C ) :   1.6587 B( 19-C , 22-C ) :   1.0507 B( 22-C , 23-H ) :   0.9100
B( 22-C , 24-H ) :   0.9176 B( 22-C , 25-C ) :   1.0243 B( 25-C , 26-H ) :   0.9620
B( 25-C , 27-H ) :   0.9499 B( 25-C , 28-C ) :   1.0804 B( 28-C , 29-H ) :   0.9727
B( 28-C , 30-H ) :   0.9762 B( 28-C , 31-H ) :   0.9697

Dispersion correction           -0.014226607
FINAL SINGLE POINT ENERGY     -1339.859092911465

DIPOLE MOMENT
-------------
                                X             Y             Z
Electronic contribution:      2.52731       7.17348     -27.45474
Nuclear contribution   :     -2.44930      -7.53346      28.12547
                        -----------------------------------------
Total Dipole Moment    :      0.07801      -0.35997       0.67073
                        -----------------------------------------
Magnitude (a.u.)       :      0.76521
Magnitude (Debye)      :      1.94500

Rotational constants in cm-1:     0.019276     0.008231     0.006728
Rotational constants in MHz :   577.873781   246.748689   201.694933

                             ****ORCA TERMINATED NORMALLY****
TOTAL RUN TIME: 0 days 0 hours 0 minutes 33 seconds 862 msec
