                         Program Version 4.2.1 -  RELEASE  -
|  1> ! wB97X-D3 SP def2-SVP
|  2> %pal
|  3> nprocs 16
|  4> end
|  5>
|  6> * xyz 0 1
|  7> S 	 27.0073 	 -8.42671 	 76.7547
|  8> C 	 28.5177 	 -7.59514 	 76.4362
|  9> C 	 29.5434 	 -7.96805 	 77.2999
| 10> C 	 29.119 	 -9.05511 	 78.1221
| 11> C 	 27.7821 	 -9.42819 	 77.9017
| 12> H 	 29.704 	 -9.62088 	 78.8476
| 13> C 	 30.9556 	 -7.41335 	 77.2317
| 14> H 	 31.4354 	 -7.63183 	 78.1293
| 15> H 	 30.9454 	 -6.36781 	 77.1589
| 16> C 	 31.8271 	 -8.05657 	 76.1549
| 17> H 	 31.8499 	 -9.19605 	 76.2977
| 18> H 	 31.3014 	 -8.0044 	 75.1836
| 19> C 	 33.2557 	 -7.56007 	 76.2102
| 20> H 	 33.7854 	 -8.07512 	 75.3987
| 21> H 	 33.1513 	 -6.5382 	 75.9902
| 22> H 	 33.7026 	 -7.66085 	 77.1412
| 23> S 	 26.464 	 -11.7159 	 77.463
| 24> C 	 25.8527 	 -12.6905 	 78.7486
| 25> C 	 26.2729 	 -12.2067 	 79.9306
| 26> C 	 27.1453 	 -11.0846 	 79.7902
| 27> C 	 27.1046 	 -10.5005 	 78.52
| 28> H 	 26.0842 	 -12.6364 	 80.9
| 29> C 	 27.8073 	 -10.5007 	 81.0554
| 30> H 	 27.1188 	 -10.5412 	 81.9454
| 31> H 	 28.0181 	 -9.47431 	 80.9443
| 32> C 	 29.0845 	 -11.2423 	 81.4257
| 33> H 	 29.6622 	 -10.4767 	 82.0292
| 34> H 	 29.5754 	 -11.4518 	 80.4313
| 35> C 	 29.0449 	 -12.5308 	 82.2221
| 36> H 	 28.7901 	 -12.4493 	 83.3564
| 37> H 	 29.9865 	 -13.0432 	 82.1924
| 38> H 	 28.324 	 -13.2301 	 81.7169
| 39> H 	 28.6327 	 -6.74428 	 75.7427
| 40> H 	 25.1555 	 -13.5356 	 78.6162
| 41> *
| 42>
| 43>                          ****END OF INPUT****

CARTESIAN COORDINATES (ANGSTROEM)
---------------------------------
  S     27.007300   -8.426710   76.754700
  C     28.517700   -7.595140   76.436200
  C     29.543400   -7.968050   77.299900
  C     29.119000   -9.055110   78.122100
  C     27.782100   -9.428190   77.901700
  H     29.704000   -9.620880   78.847600
  C     30.955600   -7.413350   77.231700
  H     31.435400   -7.631830   78.129300
  H     30.945400   -6.367810   77.158900
  C     31.827100   -8.056570   76.154900
  H     31.849900   -9.196050   76.297700
  H     31.301400   -8.004400   75.183600
  C     33.255700   -7.560070   76.210200
  H     33.785400   -8.075120   75.398700
  H     33.151300   -6.538200   75.990200
  H     33.702600   -7.660850   77.141200
  S     26.464000  -11.715900   77.463000
  C     25.852700  -12.690500   78.748600
  C     26.272900  -12.206700   79.930600
  C     27.145300  -11.084600   79.790200
  C     27.104600  -10.500500   78.520000
  H     26.084200  -12.636400   80.900000
  C     27.807300  -10.500700   81.055400
  H     27.118800  -10.541200   81.945400
  H     28.018100   -9.474310   80.944300
  C     29.084500  -11.242300   81.425700
  H     29.662200  -10.476700   82.029200
  H     29.575400  -11.451800   80.431300
  C     29.044900  -12.530800   82.222100
  H     28.790100  -12.449300   83.356400
  H     29.986500  -13.043200   82.192400
  H     28.324000  -13.230100   81.716900
  H     28.632700   -6.744280   75.742700
  H     25.155500  -13.535600   78.616200

 Total Charge           Charge          ....    0
 Multiplicity           Mult            ....    1
 Number of Electrons    NEL             ....  134
 Basis Dimension        Dim             ....  322

ORBITAL ENERGIES
----------------

  NO   OCC          E(Eh)            E(eV)
   0   2.0000     -88.970908     -2421.0215
   1   2.0000     -88.959024     -2420.6981
   2   2.0000     -10.324440      -280.9423
   3   2.0000     -10.321829      -280.8713
   4   2.0000     -10.315435      -280.6972
   5   2.0000     -10.313392      -280.6417
   6   2.0000     -10.303416      -280.3702
   7   2.0000     -10.301995      -280.3315
   8   2.0000     -10.296982      -280.1951
   9   2.0000     -10.293111      -280.0898
  10   2.0000     -10.289180      -279.9828
  11   2.0000     -10.289109      -279.9809
  12   2.0000     -10.287925      -279.9487
  13   2.0000     -10.286797      -279.9180
  14   2.0000     -10.283876      -279.8385
  15   2.0000     -10.271066      -279.4899
  16   2.0000      -8.085993      -220.0310
  17   2.0000      -8.074968      -219.7311
  18   2.0000      -6.044366      -164.4756
  19   2.0000      -6.040385      -164.3672
  20   2.0000      -6.036946      -164.2737
  21   2.0000      -6.033506      -164.1801
  22   2.0000      -6.029274      -164.0649
  23   2.0000      -6.025621      -163.9655
  24   2.0000      -1.015102       -27.6223
  25   2.0000      -0.989061       -26.9137
  26   2.0000      -0.919844       -25.0302
  27   2.0000      -0.908539       -24.7226
  28   2.0000      -0.877679       -23.8828
  29   2.0000      -0.853738       -23.2314
  30   2.0000      -0.843147       -22.9432
  31   2.0000      -0.814107       -22.1530
  32   2.0000      -0.788845       -21.4656
  33   2.0000      -0.775664       -21.1069
  34   2.0000      -0.705234       -19.1904
  35   2.0000      -0.700511       -19.0619
  36   2.0000      -0.681118       -18.5342
  37   2.0000      -0.665374       -18.1057
  38   2.0000      -0.640694       -17.4342
  39   2.0000      -0.618669       -16.8349
  40   2.0000      -0.601797       -16.3757
  41   2.0000      -0.575111       -15.6496
  42   2.0000      -0.563270       -15.3274
  43   2.0000      -0.548559       -14.9271
  44   2.0000      -0.544131       -14.8066
  45   2.0000      -0.532479       -14.4895
  46   2.0000      -0.521364       -14.1870
  47   2.0000      -0.509277       -13.8581
  48   2.0000      -0.506806       -13.7909
  49   2.0000      -0.500622       -13.6226
  50   2.0000      -0.498505       -13.5650
  51   2.0000      -0.477430       -12.9915
  52   2.0000      -0.473472       -12.8838
  53   2.0000      -0.472841       -12.8667
  54   2.0000      -0.461474       -12.5574
  55   2.0000      -0.453429       -12.3384
  56   2.0000      -0.446319       -12.1450
  57   2.0000      -0.439426       -11.9574
  58   2.0000      -0.432218       -11.7613
  59   2.0000      -0.425850       -11.5880
  60   2.0000      -0.415391       -11.3034
  61   2.0000      -0.409691       -11.1483
  62   2.0000      -0.404046       -10.9946
  63   2.0000      -0.349718        -9.5163
  64   2.0000      -0.335266        -9.1231
  65   2.0000      -0.324336        -8.8256
  66   2.0000      -0.290318        -7.8999
  67   0.0000       0.025599         0.6966
  68   0.0000       0.076229         2.0743
  69   0.0000       0.113852         3.0981
  70   0.0000       0.120078         3.2675
  71   0.0000       0.131285         3.5724

MULLIKEN ATOMIC CHARGES
-----------------------
   0 S :    0.138485
   1 C :   -0.131540
   2 C :   -0.090775
   3 C :    0.030511
   4 C :   -0.170814
   5 H :    0.003740
   6 C :    0.129098
   7 H :   -0.007950
   8 H :    0.011987
   9 C :   -0.136881
  10 H :    0.028817
  11 H :    0.028682
  12 C :    0.029473
  13 H :    0.042022
  14 H :    0.013354
  15 H :    0.022621
  16 S :    0.093195
  17 C :   -0.083437
  18 C :   -0.012073
  19 C :   -0.070742
  20 C :   -0.127721
  21 H :    0.014898
  22 C :    0.062713
  23 H :    0.029598
  24 H :    0.015114
  25 C :   -0.119616
  26 H :    0.037228
  27 H :    0.047927
  28 C :   -0.059285
  29 H :    0.047044
  30 H :    0.033530
  31 H :    0.030474
  32 H :    0.053208
  33 H :    0.067112
Sum of atomic charges:    0.0000000

LOEWDIN ATOMIC CHARGES
----------------------
   0 S :    0.435545
   1 C :   -0.203926
   2 C :   -0.055572
   3 C :   -0.058216
   4 C :   -0.217188
   5 H :    0.030351
   6 C :   -0.024964
   7 H :    0.021807
   8 H :    0.022913
   9 C :   -0.043255
  10 H :    0.027378
  11 H :    0.023055
  12 C :   -0.052726
  13 H :    0.034739
  14 H :    0.019985
  15 H :    0.017630
  16 S :    0.418408
  17 C :   -0.193081
  18 C :   -0.074451
  19 C :   -0.055300
  20 C :   -0.208332
  21 H :    0.029222
  22 C :   -0.035012
  23 H :    0.033338
  24 H :    0.022995
  25 C :   -0.052984
  26 H :    0.030293
  27 H :    0.029672
  28 C :   -0.078710
  29 H :    0.034758
  30 H :    0.025449
  31 H :    0.027751
  32 H :    0.030915
  33 H :    0.037514

  Mayer bond orders larger than 0.100000
B(  0-S ,  1-C ) :   1.1453 B(  0-S ,  4-C ) :   1.1703 B(  1-C ,  2-C ) :   1.5904
B(  1-C , 32-H ) :   0.9640 B(  2-C ,  3-C ) :   1.2625 B(  2-C ,  6-C ) :   1.0319
B(  3-C ,  4-C ) :   1.5379 B(  3-C ,  5-H ) :   0.9926 B(  4-C , 20-C ) :   1.0539
B(  6-C ,  7-H ) :   0.9282 B(  6-C ,  8-H ) :   0.9336 B(  6-C ,  9-C ) :   1.0622
B(  9-C , 10-H ) :   0.9543 B(  9-C , 11-H ) :   0.9576 B(  9-C , 12-C ) :   1.0712
B( 12-C , 13-H ) :   0.9711 B( 12-C , 14-H ) :   0.9723 B( 12-C , 15-H ) :   0.9734
B( 16-S , 17-C ) :   1.1591 B( 16-S , 20-C ) :   1.1470 B( 17-C , 18-C ) :   1.5826
B( 17-C , 20-C ) :   0.1034 B( 17-C , 33-H ) :   0.9655 B( 18-C , 19-C ) :   1.2511
B( 18-C , 21-H ) :   0.9906 B( 19-C , 20-C ) :   1.5707 B( 19-C , 22-C ) :   1.0488
B( 22-C , 23-H ) :   0.9452 B( 22-C , 24-H ) :   0.9381 B( 22-C , 25-C ) :   1.0506
B( 25-C , 26-H ) :   0.9560 B( 25-C , 27-H ) :   0.9486 B( 25-C , 28-C ) :   1.0878
B( 28-C , 29-H ) :   0.9713 B( 28-C , 30-H ) :   0.9696 B( 28-C , 31-H ) :   0.9679

Dispersion correction           -0.014209016
FINAL SINGLE POINT ENERGY     -1339.870850426148

DIPOLE MOMENT
-------------
                                X             Y             Z
Electronic contribution:    -24.77172      -1.38002     -11.90452
Nuclear contribution   :     25.30819       1.45342      12.27411
                        -----------------------------------------
Total Dipole Moment    :      0.53647       0.07340       0.36960
                        -----------------------------------------
Magnitude (a.u.)       :      0.65559
Magnitude (Debye)      :      1.66637

Rotational constants in cm-1:     0.019021     0.008231     0.006450
Rotational constants in MHz :   570.231640   246.752653   193.355517

                             ****ORCA TERMINATED NORMALLY****
TOTAL RUN TIME: 0 days 0 hours 0 minutes 30 seconds 179 msec
