                         Program Version 4.2.1 -  RELEASE  -
|  1> ! wB97X-D3 SP def2-SVP
|  2> %pal
|  3> nprocs 16
|  4> end
|  5>
|  6> * xyz 0 1
|  7> S 	 -41.8159 	 53.0423 	 105.441
|  8> C 	 -40.6145 	 54.1327 	 106.097
|  9> C 	 -39.7387 	 53.4634 	 106.916
| 10> C 	 -39.9971 	 52.0522 	 107.054
| 11> C 	 -41.0231 	 51.6407 	 106.21
| 12> H 	 -39.5304 	 51.3748 	 107.786
| 13> C 	 -38.6576 	 54.2064 	 107.689
| 14> H 	 -38.6888 	 55.3172 	 107.538
| 15> H 	 -37.7361 	 53.6305 	 107.347
| 16> C 	 -38.7078 	 53.8812 	 109.221
| 17> H 	 -38.8041 	 52.8256 	 109.451
| 18> H 	 -37.8257 	 54.2256 	 109.714
| 19> C 	 -39.9471 	 54.4548 	 109.833
| 20> H 	 -40.3444 	 55.2662 	 109.315
| 21> H 	 -40.8272 	 53.782 	 109.863
| 22> H 	 -39.672 	 54.7407 	 110.808
| 23> S 	 -43.4014 	 50.1856 	 106.397
| 24> C 	 -43.3917 	 48.4526 	 106.335
| 25> C 	 -42.072 	 48.0064 	 106.258
| 26> C 	 -41.086 	 48.9897 	 106.015
| 27> C 	 -41.6184 	 50.301 	 106.125
| 28> H 	 -41.9461 	 46.9573 	 106.314
| 29> C 	 -39.6932 	 48.6864 	 105.594
| 30> H 	 -39.2952 	 49.5944 	 105.148
| 31> H 	 -39.6732 	 47.8926 	 104.863
| 32> C 	 -38.7149 	 48.2613 	 106.688
| 33> H 	 -39.1063 	 47.2782 	 107.155
| 34> H 	 -38.658 	 48.9451 	 107.541
| 35> C 	 -37.2583 	 47.9942 	 106.281
| 36> H 	 -36.7537 	 48.9348 	 106.085
| 37> H 	 -37.1028 	 47.3566 	 105.458
| 38> H 	 -36.7195 	 47.514 	 107.064
| 39> H 	 -40.5632 	 55.1861 	 105.918
| 40> H 	 -44.242 	 47.8475 	 106.408
| 41> *
| 42>
| 43>                          ****END OF INPUT****

CARTESIAN COORDINATES (ANGSTROEM)
---------------------------------
  S    -41.815900   53.042300  105.441000
  C    -40.614500   54.132700  106.097000
  C    -39.738700   53.463400  106.916000
  C    -39.997100   52.052200  107.054000
  C    -41.023100   51.640700  106.210000
  H    -39.530400   51.374800  107.786000
  C    -38.657600   54.206400  107.689000
  H    -38.688800   55.317200  107.538000
  H    -37.736100   53.630500  107.347000
  C    -38.707800   53.881200  109.221000
  H    -38.804100   52.825600  109.451000
  H    -37.825700   54.225600  109.714000
  C    -39.947100   54.454800  109.833000
  H    -40.344400   55.266200  109.315000
  H    -40.827200   53.782000  109.863000
  H    -39.672000   54.740700  110.808000
  S    -43.401400   50.185600  106.397000
  C    -43.391700   48.452600  106.335000
  C    -42.072000   48.006400  106.258000
  C    -41.086000   48.989700  106.015000
  C    -41.618400   50.301000  106.125000
  H    -41.946100   46.957300  106.314000
  C    -39.693200   48.686400  105.594000
  H    -39.295200   49.594400  105.148000
  H    -39.673200   47.892600  104.863000
  C    -38.714900   48.261300  106.688000
  H    -39.106300   47.278200  107.155000
  H    -38.658000   48.945100  107.541000
  C    -37.258300   47.994200  106.281000
  H    -36.753700   48.934800  106.085000
  H    -37.102800   47.356600  105.458000
  H    -36.719500   47.514000  107.064000
  H    -40.563200   55.186100  105.918000
  H    -44.242000   47.847500  106.408000

 Total Charge           Charge          ....    0
 Multiplicity           Mult            ....    1
 Number of Electrons    NEL             ....  134
 Basis Dimension        Dim             ....  322

ORBITAL ENERGIES
----------------

  NO   OCC          E(Eh)            E(eV)
   0   2.0000     -88.965916     -2420.8857
   1   2.0000     -88.963891     -2420.8305
   2   2.0000     -10.337850      -281.3072
   3   2.0000     -10.334443      -281.2145
   4   2.0000     -10.315930      -280.7107
   5   2.0000     -10.312402      -280.6147
   6   2.0000     -10.307616      -280.4845
   7   2.0000     -10.303228      -280.3651
   8   2.0000     -10.302722      -280.3513
   9   2.0000     -10.302461      -280.3442
  10   2.0000     -10.293326      -280.0956
  11   2.0000     -10.291541      -280.0471
  12   2.0000     -10.289473      -279.9908
  13   2.0000     -10.282111      -279.7905
  14   2.0000     -10.271948      -279.5139
  15   2.0000     -10.261690      -279.2348
  16   2.0000      -8.080192      -219.8732
  17   2.0000      -8.078089      -219.8160
  18   2.0000      -6.038828      -164.3249
  19   2.0000      -6.036547      -164.2628
  20   2.0000      -6.034827      -164.2160
  21   2.0000      -6.032602      -164.1554
  22   2.0000      -6.030770      -164.1056
  23   2.0000      -6.028998      -164.0574
  24   2.0000      -1.001280       -27.2462
  25   2.0000      -0.981123       -26.6977
  26   2.0000      -0.913090       -24.8464
  27   2.0000      -0.910554       -24.7774
  28   2.0000      -0.869260       -23.6538
  29   2.0000      -0.854133       -23.2421
  30   2.0000      -0.845344       -23.0030
  31   2.0000      -0.815420       -22.1887
  32   2.0000      -0.785531       -21.3754
  33   2.0000      -0.771392       -20.9907
  34   2.0000      -0.711915       -19.3722
  35   2.0000      -0.697565       -18.9817
  36   2.0000      -0.694104       -18.8875
  37   2.0000      -0.660217       -17.9654
  38   2.0000      -0.639850       -17.4112
  39   2.0000      -0.622836       -16.9482
  40   2.0000      -0.599337       -16.3088
  41   2.0000      -0.571088       -15.5401
  42   2.0000      -0.561631       -15.2827
  43   2.0000      -0.554621       -15.0920
  44   2.0000      -0.542466       -14.7613
  45   2.0000      -0.526166       -14.3177
  46   2.0000      -0.522771       -14.2253
  47   2.0000      -0.513971       -13.9859
  48   2.0000      -0.509493       -13.8640
  49   2.0000      -0.501854       -13.6561
  50   2.0000      -0.492326       -13.3969
  51   2.0000      -0.482256       -13.1229
  52   2.0000      -0.471630       -12.8337
  53   2.0000      -0.467442       -12.7197
  54   2.0000      -0.464236       -12.6325
  55   2.0000      -0.450931       -12.2705
  56   2.0000      -0.447133       -12.1671
  57   2.0000      -0.435576       -11.8526
  58   2.0000      -0.426952       -11.6180
  59   2.0000      -0.421659       -11.4739
  60   2.0000      -0.417529       -11.3615
  61   2.0000      -0.412786       -11.2325
  62   2.0000      -0.411240       -11.1904
  63   2.0000      -0.348326        -9.4784
  64   2.0000      -0.330034        -8.9807
  65   2.0000      -0.326123        -8.8742
  66   2.0000      -0.289957        -7.8901
  67   0.0000       0.021721         0.5911
  68   0.0000       0.070724         1.9245
  69   0.0000       0.108380         2.9492
  70   0.0000       0.123151         3.3511
  71   0.0000       0.125734         3.4214

MULLIKEN ATOMIC CHARGES
-----------------------
   0 S :    0.101679
   1 C :   -0.116583
   2 C :   -0.089696
   3 C :    0.022495
   4 C :   -0.146795
   5 H :    0.032884
   6 C :    0.038178
   7 H :    0.044162
   8 H :    0.045917
   9 C :   -0.082239
  10 H :    0.026622
  11 H :    0.026988
  12 C :   -0.010759
  13 H :    0.001568
  14 H :    0.037021
  15 H :    0.019705
  16 S :    0.093344
  17 C :   -0.075995
  18 C :   -0.035564
  19 C :   -0.008134
  20 C :   -0.154010
  21 H :    0.005379
  22 C :    0.106277
  23 H :    0.024530
  24 H :    0.023661
  25 C :   -0.126250
  26 H :    0.026311
  27 H :    0.024737
  28 C :   -0.009166
  29 H :    0.028290
  30 H :    0.016699
  31 H :    0.024080
  32 H :    0.040968
  33 H :    0.043695
Sum of atomic charges:    0.0000000

LOEWDIN ATOMIC CHARGES
----------------------
   0 S :    0.388433
   1 C :   -0.197112
   2 C :   -0.066171
   3 C :   -0.060686
   4 C :   -0.180716
   5 H :    0.037369
   6 C :   -0.031809
   7 H :    0.035265
   8 H :    0.041886
   9 C :   -0.041792
  10 H :    0.024758
  11 H :    0.019709
  12 C :   -0.061126
  13 H :    0.012465
  14 H :    0.032615
  15 H :    0.021598
  16 S :    0.390812
  17 C :   -0.177809
  18 C :   -0.068554
  19 C :   -0.052225
  20 C :   -0.182086
  21 H :    0.024280
  22 C :   -0.030749
  23 H :    0.032976
  24 H :    0.032746
  25 C :   -0.043251
  26 H :    0.025909
  27 H :    0.019593
  28 C :   -0.061929
  29 H :    0.025102
  30 H :    0.017407
  31 H :    0.026159
  32 H :    0.026152
  33 H :    0.020778

  Mayer bond orders larger than 0.100000
B(  0-S ,  1-C ) :   1.1182 B(  0-S ,  4-C ) :   1.1472 B(  1-C ,  2-C ) :   1.6295
B(  1-C , 32-H ) :   0.9722 B(  2-C ,  3-C ) :   1.2193 B(  2-C ,  6-C ) :   1.0157
B(  3-C ,  4-C ) :   1.5739 B(  3-C ,  5-H ) :   0.9850 B(  4-C , 20-C ) :   1.0497
B(  6-C ,  7-H ) :   0.9530 B(  6-C ,  8-H ) :   0.9320 B(  6-C ,  9-C ) :   1.0750
B(  9-C , 10-H ) :   0.9550 B(  9-C , 11-H ) :   0.9636 B(  9-C , 12-C ) :   1.0609
B( 12-C , 13-H ) :   0.9784 B( 12-C , 14-H ) :   0.9734 B( 12-C , 15-H ) :   0.9736
B( 16-S , 17-C ) :   1.1627 B( 16-S , 20-C ) :   1.1401 B( 17-C , 18-C ) :   1.5870
B( 17-C , 20-C ) :   0.1087 B( 17-C , 33-H ) :   0.9765 B( 18-C , 19-C ) :   1.2483
B( 18-C , 21-H ) :   0.9971 B( 19-C , 20-C ) :   1.5557 B( 19-C , 22-C ) :   1.0596
B( 22-C , 23-H ) :   0.9287 B( 22-C , 24-H ) :   0.9305 B( 22-C , 25-C ) :   1.0594
B( 25-C , 26-H ) :   0.9553 B( 25-C , 27-H ) :   0.9546 B( 25-C , 28-C ) :   1.0876
B( 28-C , 29-H ) :   0.9740 B( 28-C , 30-H ) :   0.9732 B( 28-C , 31-H ) :   0.9713

Dispersion correction           -0.014350667
FINAL SINGLE POINT ENERGY     -1339.872738646320

DIPOLE MOMENT
-------------
                                X             Y             Z
Electronic contribution:    -23.75952       2.31858     -12.48039
Nuclear contribution   :     24.31687      -2.52083      12.84861
                        -----------------------------------------
Total Dipole Moment    :      0.55734      -0.20225       0.36822
                        -----------------------------------------
Magnitude (a.u.)       :      0.69794
Magnitude (Debye)      :      1.77403

Rotational constants in cm-1:     0.016367     0.009462     0.007136
Rotational constants in MHz :   490.677939   283.668070   213.937905

                             ****ORCA TERMINATED NORMALLY****
TOTAL RUN TIME: 0 days 0 hours 0 minutes 30 seconds 260 msec
