                         Program Version 4.2.1 -  RELEASE  -
|  1> ! wB97X-D3 SP def2-SVP
|  2> %pal
|  3> nprocs 16
|  4> end
|  5>
|  6> * xyz 0 1
|  7> S 	 -92.0744 	 60.3485 	 123.584
|  8> C 	 -91.9744 	 59.484 	 122.136
|  9> C 	 -91.4034 	 58.2439 	 122.337
| 10> C 	 -90.9691 	 58.1231 	 123.733
| 11> C 	 -91.1285 	 59.284 	 124.455
| 12> H 	 -90.5094 	 57.2314 	 124.075
| 13> C 	 -91.1648 	 57.1977 	 121.32
| 14> H 	 -91.0418 	 56.2749 	 121.872
| 15> H 	 -90.2538 	 57.581 	 120.829
| 16> C 	 -92.2231 	 56.9913 	 120.311
| 17> H 	 -93.1597 	 56.549 	 120.669
| 18> H 	 -92.5322 	 57.9426 	 119.83
| 19> C 	 -91.6044 	 56.1186 	 119.203
| 20> H 	 -92.3386 	 55.8949 	 118.51
| 21> H 	 -90.8147 	 56.5934 	 118.682
| 22> H 	 -91.1011 	 55.2518 	 119.571
| 23> S 	 -92.1231 	 59.7213 	 126.968
| 24> C 	 -91.0239 	 59.5147 	 128.361
| 25> C 	 -89.8299 	 59.1185 	 127.936
| 26> C 	 -89.6732 	 59.0011 	 126.549
| 27> C 	 -90.8387 	 59.3671 	 125.849
| 28> H 	 -88.9917 	 58.9592 	 128.578
| 29> C 	 -88.3307 	 58.7175 	 125.959
| 30> H 	 -88.4653 	 58.7474 	 124.883
| 31> H 	 -88.1304 	 57.6741 	 126.249
| 32> C 	 -87.115 	 59.5878 	 126.364
| 33> H 	 -87.0123 	 59.4889 	 127.435
| 34> H 	 -87.4408 	 60.6092 	 126.221
| 35> C 	 -85.7993 	 59.436 	 125.614
| 36> H 	 -85.2803 	 58.4875 	 125.817
| 37> H 	 -85.0802 	 60.2164 	 125.914
| 38> H 	 -86.0842 	 59.7006 	 124.549
| 39> H 	 -92.3257 	 59.7682 	 121.151
| 40> H 	 -91.2282 	 59.7457 	 129.365
| 41> *
| 42>
| 43>                          ****END OF INPUT****

CARTESIAN COORDINATES (ANGSTROEM)
---------------------------------
  S    -92.074400   60.348500  123.584000
  C    -91.974400   59.484000  122.136000
  C    -91.403400   58.243900  122.337000
  C    -90.969100   58.123100  123.733000
  C    -91.128500   59.284000  124.455000
  H    -90.509400   57.231400  124.075000
  C    -91.164800   57.197700  121.320000
  H    -91.041800   56.274900  121.872000
  H    -90.253800   57.581000  120.829000
  C    -92.223100   56.991300  120.311000
  H    -93.159700   56.549000  120.669000
  H    -92.532200   57.942600  119.830000
  C    -91.604400   56.118600  119.203000
  H    -92.338600   55.894900  118.510000
  H    -90.814700   56.593400  118.682000
  H    -91.101100   55.251800  119.571000
  S    -92.123100   59.721300  126.968000
  C    -91.023900   59.514700  128.361000
  C    -89.829900   59.118500  127.936000
  C    -89.673200   59.001100  126.549000
  C    -90.838700   59.367100  125.849000
  H    -88.991700   58.959200  128.578000
  C    -88.330700   58.717500  125.959000
  H    -88.465300   58.747400  124.883000
  H    -88.130400   57.674100  126.249000
  C    -87.115000   59.587800  126.364000
  H    -87.012300   59.488900  127.435000
  H    -87.440800   60.609200  126.221000
  C    -85.799300   59.436000  125.614000
  H    -85.280300   58.487500  125.817000
  H    -85.080200   60.216400  125.914000
  H    -86.084200   59.700600  124.549000
  H    -92.325700   59.768200  121.151000
  H    -91.228200   59.745700  129.365000

 Total Charge           Charge          ....    0
 Multiplicity           Mult            ....    1
 Number of Electrons    NEL             ....  134
 Basis Dimension        Dim             ....  322

ORBITAL ENERGIES
----------------

  NO   OCC          E(Eh)            E(eV)
   0   2.0000     -88.963784     -2420.8276
   1   2.0000     -88.961955     -2420.7779
   2   2.0000     -10.324166      -280.9348
   3   2.0000     -10.319524      -280.8085
   4   2.0000     -10.309350      -280.5317
   5   2.0000     -10.306086      -280.4429
   6   2.0000     -10.295321      -280.1499
   7   2.0000     -10.295280      -280.1488
   8   2.0000     -10.289301      -279.9861
   9   2.0000     -10.288100      -279.9534
  10   2.0000     -10.287515      -279.9375
  11   2.0000     -10.286744      -279.9165
  12   2.0000     -10.286671      -279.9145
  13   2.0000     -10.283266      -279.8219
  14   2.0000     -10.281395      -279.7710
  15   2.0000     -10.266539      -279.3667
  16   2.0000      -8.081074      -219.8972
  17   2.0000      -8.076579      -219.7749
  18   2.0000      -6.039428      -164.3412
  19   2.0000      -6.035225      -164.2268
  20   2.0000      -6.035159      -164.2250
  21   2.0000      -6.031902      -164.1364
  22   2.0000      -6.031136      -164.1155
  23   2.0000      -6.027159      -164.0073
  24   2.0000      -1.019044       -27.7296
  25   2.0000      -0.990950       -26.9651
  26   2.0000      -0.927926       -25.2501
  27   2.0000      -0.906766       -24.6744
  28   2.0000      -0.879054       -23.9203
  29   2.0000      -0.855406       -23.2768
  30   2.0000      -0.849531       -23.1169
  31   2.0000      -0.818100       -22.2616
  32   2.0000      -0.784263       -21.3409
  33   2.0000      -0.770592       -20.9689
  34   2.0000      -0.714264       -19.4361
  35   2.0000      -0.704830       -19.1794
  36   2.0000      -0.697266       -18.9736
  37   2.0000      -0.661795       -18.0083
  38   2.0000      -0.640440       -17.4273
  39   2.0000      -0.618599       -16.8329
  40   2.0000      -0.597322       -16.2540
  41   2.0000      -0.584842       -15.9144
  42   2.0000      -0.569552       -15.4983
  43   2.0000      -0.567100       -15.4316
  44   2.0000      -0.535533       -14.5726
  45   2.0000      -0.524133       -14.2624
  46   2.0000      -0.521336       -14.1863
  47   2.0000      -0.514498       -14.0002
  48   2.0000      -0.509409       -13.8617
  49   2.0000      -0.504125       -13.7179
  50   2.0000      -0.495092       -13.4721
  51   2.0000      -0.484741       -13.1905
  52   2.0000      -0.476207       -12.9583
  53   2.0000      -0.462813       -12.5938
  54   2.0000      -0.460570       -12.5328
  55   2.0000      -0.454931       -12.3793
  56   2.0000      -0.450416       -12.2564
  57   2.0000      -0.439052       -11.9472
  58   2.0000      -0.426584       -11.6079
  59   2.0000      -0.421558       -11.4712
  60   2.0000      -0.419281       -11.4092
  61   2.0000      -0.415695       -11.3116
  62   2.0000      -0.413205       -11.2439
  63   2.0000      -0.353151        -9.6097
  64   2.0000      -0.328411        -8.9365
  65   2.0000      -0.322858        -8.7854
  66   2.0000      -0.290274        -7.8988
  67   0.0000       0.033119         0.9012
  68   0.0000       0.079446         2.1618
  69   0.0000       0.115469         3.1421
  70   0.0000       0.129983         3.5370
  71   0.0000       0.134190         3.6515

MULLIKEN ATOMIC CHARGES
-----------------------
   0 S :    0.127342
   1 C :   -0.111219
   2 C :   -0.125420
   3 C :    0.033813
   4 C :   -0.145650
   5 H :   -0.002678
   6 C :    0.083908
   7 H :    0.024604
   8 H :    0.048855
   9 C :   -0.100377
  10 H :    0.037188
  11 H :    0.024015
  12 C :    0.010799
  13 H :    0.016380
  14 H :    0.010675
  15 H :    0.015020
  16 S :    0.093533
  17 C :   -0.061698
  18 C :   -0.012119
  19 C :   -0.058472
  20 C :   -0.138560
  21 H :    0.004477
  22 C :    0.078572
  23 H :    0.014896
  24 H :    0.025959
  25 C :   -0.077312
  26 H :    0.015333
  27 H :    0.025674
  28 C :   -0.055002
  29 H :    0.043342
  30 H :    0.038067
  31 H :    0.044611
  32 H :    0.037178
  33 H :    0.034265
Sum of atomic charges:   -0.0000000

LOEWDIN ATOMIC CHARGES
----------------------
   0 S :    0.464276
   1 C :   -0.224014
   2 C :   -0.062489
   3 C :   -0.054869
   4 C :   -0.230204
   5 H :    0.021892
   6 C :   -0.038142
   7 H :    0.033818
   8 H :    0.045872
   9 C :   -0.037326
  10 H :    0.027673
  11 H :    0.023112
  12 C :   -0.053057
  13 H :    0.016280
  14 H :    0.020483
  15 H :    0.021913
  16 S :    0.389064
  17 C :   -0.163744
  18 C :   -0.066884
  19 C :   -0.061841
  20 C :   -0.194180
  21 H :    0.028354
  22 C :   -0.035178
  23 H :    0.025669
  24 H :    0.031881
  25 C :   -0.045039
  26 H :    0.014916
  27 H :    0.025342
  28 C :   -0.068817
  29 H :    0.026952
  30 H :    0.031559
  31 H :    0.036923
  32 H :    0.027338
  33 H :    0.022467

  Mayer bond orders larger than 0.100000
B(  0-S ,  1-C ) :   1.1521 B(  0-S ,  4-C ) :   1.1767 B(  1-C ,  2-C ) :   1.5831
B(  1-C , 32-H ) :   0.9705 B(  2-C ,  3-C ) :   1.2769 B(  2-C ,  6-C ) :   1.0108
B(  3-C ,  4-C ) :   1.5075 B(  3-C ,  5-H ) :   1.0027 B(  4-C , 20-C ) :   1.0471
B(  6-C ,  7-H ) :   0.9351 B(  6-C ,  8-H ) :   0.9329 B(  6-C ,  9-C ) :   1.0859
B(  9-C , 10-H ) :   0.9562 B(  9-C , 11-H ) :   0.9487 B(  9-C , 12-C ) :   1.0831
B( 12-C , 13-H ) :   0.9706 B( 12-C , 14-H ) :   0.9735 B( 12-C , 15-H ) :   0.9700
B( 16-S , 17-C ) :   1.1255 B( 16-S , 20-C ) :   1.1464 B( 17-C , 18-C ) :   1.6194
B( 17-C , 33-H ) :   0.9735 B( 18-C , 19-C ) :   1.2543 B( 18-C , 21-H ) :   0.9911
B( 19-C , 20-C ) :   1.5787 B( 19-C , 22-C ) :   1.0575 B( 22-C , 23-H ) :   0.9302
B( 22-C , 24-H ) :   0.9199 B( 22-C , 25-C ) :   1.0610 B( 25-C , 26-H ) :   0.9483
B( 25-C , 27-H ) :   0.9553 B( 25-C , 28-C ) :   1.0938 B( 28-C , 29-H ) :   0.9749
B( 28-C , 30-H ) :   0.9714 B( 28-C , 31-H ) :   0.9721

Dispersion correction           -0.013299008
FINAL SINGLE POINT ENERGY     -1339.870500413987

DIPOLE MOMENT
-------------
                                X             Y             Z
Electronic contribution:    -18.30303      12.74106      15.41659
Nuclear contribution   :     18.79617     -13.12941     -15.69306
                        -----------------------------------------
Total Dipole Moment    :      0.49314      -0.38836      -0.27648
                        -----------------------------------------
Magnitude (a.u.)       :      0.68589
Magnitude (Debye)      :      1.74340

Rotational constants in cm-1:     0.019149     0.007597     0.006082
Rotational constants in MHz :   574.081619   227.765305   182.321957

                             ****ORCA TERMINATED NORMALLY****
TOTAL RUN TIME: 0 days 0 hours 0 minutes 34 seconds 235 msec
