                         Program Version 4.2.1 -  RELEASE  -
|  1> ! wB97X-D3 SP def2-SVP
|  2> %pal
|  3> nprocs 16
|  4> end
|  5>
|  6> * xyz 0 1
|  7> S 	 1.18507 	 -27.6976 	 60.67
|  8> C 	 -0.132531 	 -28.1552 	 61.7601
|  9> C 	 0.410763 	 -28.5504 	 62.9588
| 10> C 	 1.83804 	 -28.4846 	 62.9539
| 11> C 	 2.38593 	 -27.9445 	 61.8391
| 12> H 	 2.48256 	 -28.6441 	 63.7751
| 13> C 	 -0.461902 	 -29.149 	 64.0584
| 14> H 	 -0.835078 	 -30.1422 	 63.8306
| 15> H 	 -1.3368 	 -28.5624 	 64.2882
| 16> C 	 0.28422 	 -29.2538 	 65.3945
| 17> H 	 0.860586 	 -28.4452 	 65.7183
| 18> H 	 -0.431025 	 -29.3088 	 66.2663
| 19> C 	 1.07327 	 -30.582 	 65.4612
| 20> H 	 1.78061 	 -30.672 	 66.3526
| 21> H 	 0.530338 	 -31.5286 	 65.3369
| 22> H 	 1.8026 	 -30.5247 	 64.6583
| 23> S 	 4.69662 	 -28.6167 	 60.4725
| 24> C 	 6.02863 	 -27.5114 	 60.506
| 25> C 	 5.92384 	 -26.4751 	 61.409
| 26> C 	 4.66235 	 -26.6095 	 62.1485
| 27> C 	 3.81103 	 -27.606 	 61.5949
| 28> H 	 6.72457 	 -25.7244 	 61.4506
| 29> C 	 4.23327 	 -25.6279 	 63.2441
| 30> H 	 3.11517 	 -25.4859 	 63.3758
| 31> H 	 4.50165 	 -24.6754 	 62.7887
| 32> C 	 5.0611 	 -25.8635 	 64.5504
| 33> H 	 4.8236 	 -25.079 	 65.2629
| 34> H 	 6.18434 	 -25.7021 	 64.4279
| 35> C 	 5.02854 	 -27.2892 	 64.9982
| 36> H 	 5.76723 	 -27.4531 	 65.7718
| 37> H 	 5.36704 	 -27.9703 	 64.2041
| 38> H 	 4.05939 	 -27.6526 	 65.2479
| 39> H 	 -1.14282 	 -28.1224 	 61.5325
| 40> H 	 6.84313 	 -27.6372 	 59.7908
| 41> *
| 42>
| 43>                          ****END OF INPUT****

CARTESIAN COORDINATES (ANGSTROEM)
---------------------------------
  S      1.185070  -27.697600   60.670000
  C     -0.132531  -28.155200   61.760100
  C      0.410763  -28.550400   62.958800
  C      1.838040  -28.484600   62.953900
  C      2.385930  -27.944500   61.839100
  H      2.482560  -28.644100   63.775100
  C     -0.461902  -29.149000   64.058400
  H     -0.835078  -30.142200   63.830600
  H     -1.336800  -28.562400   64.288200
  C      0.284220  -29.253800   65.394500
  H      0.860586  -28.445200   65.718300
  H     -0.431025  -29.308800   66.266300
  C      1.073270  -30.582000   65.461200
  H      1.780610  -30.672000   66.352600
  H      0.530338  -31.528600   65.336900
  H      1.802600  -30.524700   64.658300
  S      4.696620  -28.616700   60.472500
  C      6.028630  -27.511400   60.506000
  C      5.923840  -26.475100   61.409000
  C      4.662350  -26.609500   62.148500
  C      3.811030  -27.606000   61.594900
  H      6.724570  -25.724400   61.450600
  C      4.233270  -25.627900   63.244100
  H      3.115170  -25.485900   63.375800
  H      4.501650  -24.675400   62.788700
  C      5.061100  -25.863500   64.550400
  H      4.823600  -25.079000   65.262900
  H      6.184340  -25.702100   64.427900
  C      5.028540  -27.289200   64.998200
  H      5.767230  -27.453100   65.771800
  H      5.367040  -27.970300   64.204100
  H      4.059390  -27.652600   65.247900
  H     -1.142820  -28.122400   61.532500
  H      6.843130  -27.637200   59.790800

 Total Charge           Charge          ....    0
 Multiplicity           Mult            ....    1
 Number of Electrons    NEL             ....  134
 Basis Dimension        Dim             ....  322

ORBITAL ENERGIES
----------------

  NO   OCC          E(Eh)            E(eV)
   0   2.0000     -88.964368     -2420.8435
   1   2.0000     -88.961870     -2420.7756
   2   2.0000     -10.329500      -281.0800
   3   2.0000     -10.323870      -280.9268
   4   2.0000     -10.317737      -280.7599
   5   2.0000     -10.315506      -280.6992
   6   2.0000     -10.309279      -280.5297
   7   2.0000     -10.302789      -280.3531
   8   2.0000     -10.301411      -280.3156
   9   2.0000     -10.297461      -280.2082
  10   2.0000     -10.292665      -280.0776
  11   2.0000     -10.291632      -280.0496
  12   2.0000     -10.286454      -279.9086
  13   2.0000     -10.285337      -279.8783
  14   2.0000     -10.279448      -279.7180
  15   2.0000     -10.269975      -279.4602
  16   2.0000      -8.079684      -219.8594
  17   2.0000      -8.077539      -219.8010
  18   2.0000      -6.038036      -164.3033
  19   2.0000      -6.036026      -164.2486
  20   2.0000      -6.034144      -164.1974
  21   2.0000      -6.031738      -164.1319
  22   2.0000      -6.030553      -164.0997
  23   2.0000      -6.028417      -164.0416
  24   2.0000      -1.009407       -27.4674
  25   2.0000      -0.985246       -26.8099
  26   2.0000      -0.913080       -24.8462
  27   2.0000      -0.907578       -24.6965
  28   2.0000      -0.868519       -23.6336
  29   2.0000      -0.846990       -23.0478
  30   2.0000      -0.839530       -22.8448
  31   2.0000      -0.819429       -22.2978
  32   2.0000      -0.783759       -21.3272
  33   2.0000      -0.772306       -21.0155
  34   2.0000      -0.708661       -19.2837
  35   2.0000      -0.697712       -18.9857
  36   2.0000      -0.689700       -18.7677
  37   2.0000      -0.653268       -17.7763
  38   2.0000      -0.649972       -17.6866
  39   2.0000      -0.626123       -17.0377
  40   2.0000      -0.594693       -16.1824
  41   2.0000      -0.574459       -15.6318
  42   2.0000      -0.555981       -15.1290
  43   2.0000      -0.550167       -14.9708
  44   2.0000      -0.539217       -14.6729
  45   2.0000      -0.525128       -14.2895
  46   2.0000      -0.520719       -14.1695
  47   2.0000      -0.513375       -13.9696
  48   2.0000      -0.506459       -13.7815
  49   2.0000      -0.494160       -13.4468
  50   2.0000      -0.490011       -13.3339
  51   2.0000      -0.480537       -13.0761
  52   2.0000      -0.469797       -12.7838
  53   2.0000      -0.464662       -12.6441
  54   2.0000      -0.462396       -12.5824
  55   2.0000      -0.450778       -12.2663
  56   2.0000      -0.449703       -12.2370
  57   2.0000      -0.440306       -11.9813
  58   2.0000      -0.430176       -11.7057
  59   2.0000      -0.419849       -11.4247
  60   2.0000      -0.415113       -11.2958
  61   2.0000      -0.406097       -11.0505
  62   2.0000      -0.405383       -11.0310
  63   2.0000      -0.336063        -9.1447
  64   2.0000      -0.330249        -8.9865
  65   2.0000      -0.326097        -8.8736
  66   2.0000      -0.304680        -8.2908
  67   0.0000       0.040648         1.1061
  68   0.0000       0.062566         1.7025
  69   0.0000       0.113649         3.0925
  70   0.0000       0.124854         3.3974
  71   0.0000       0.130706         3.5567

MULLIKEN ATOMIC CHARGES
-----------------------
   0 S :    0.111788
   1 C :   -0.100291
   2 C :   -0.066309
   3 C :    0.059049
   4 C :   -0.154047
   5 H :   -0.016508
   6 C :    0.089081
   7 H :    0.039543
   8 H :    0.027839
   9 C :   -0.083469
  10 H :    0.016956
  11 H :    0.024967
  12 C :   -0.082188
  13 H :    0.034973
  14 H :    0.043086
  15 H :    0.014436
  16 S :    0.114611
  17 C :   -0.100519
  18 C :   -0.031730
  19 C :   -0.048902
  20 C :   -0.180146
  21 H :    0.035363
  22 C :    0.049246
  23 H :    0.056271
  24 H :    0.023865
  25 C :   -0.090026
  26 H :    0.032263
  27 H :    0.029497
  28 C :   -0.031191
  29 H :    0.027748
  30 H :    0.045090
  31 H :    0.027897
  32 H :    0.020744
  33 H :    0.061010
Sum of atomic charges:    0.0000000

LOEWDIN ATOMIC CHARGES
----------------------
   0 S :    0.423335
   1 C :   -0.175843
   2 C :   -0.059186
   3 C :   -0.067410
   4 C :   -0.213318
   5 H :    0.022252
   6 C :   -0.025198
   7 H :    0.035063
   8 H :    0.032335
   9 C :   -0.045251
  10 H :    0.016054
  11 H :    0.027977
  12 C :   -0.077246
  13 H :    0.031280
  14 H :    0.026212
  15 H :    0.017947
  16 S :    0.410087
  17 C :   -0.185291
  18 C :   -0.075701
  19 C :   -0.042745
  20 C :   -0.208860
  21 H :    0.040167
  22 C :   -0.040347
  23 H :    0.042196
  24 H :    0.031509
  25 C :   -0.045996
  26 H :    0.022991
  27 H :    0.032106
  28 C :   -0.066462
  29 H :    0.026776
  30 H :    0.033359
  31 H :    0.013806
  32 H :    0.015867
  33 H :    0.027535

  Mayer bond orders larger than 0.100000
B(  0-S ,  1-C ) :   1.1416 B(  0-S ,  4-C ) :   1.1740 B(  1-C ,  2-C ) :   1.6051
B(  1-C , 32-H ) :   0.9877 B(  2-C ,  3-C ) :   1.2358 B(  2-C ,  6-C ) :   1.0163
B(  3-C ,  4-C ) :   1.5877 B(  3-C ,  5-H ) :   0.9936 B(  4-C , 20-C ) :   0.9916
B(  6-C ,  7-H ) :   0.9418 B(  6-C ,  8-H ) :   0.9399 B(  6-C ,  9-C ) :   1.0686
B(  9-C , 10-H ) :   0.9586 B(  9-C , 11-H ) :   0.9564 B(  9-C , 12-C ) :   1.0653
B( 12-C , 13-H ) :   0.9718 B( 12-C , 14-H ) :   0.9750 B( 12-C , 15-H ) :   0.9759
B( 16-S , 17-C ) :   1.1638 B( 16-S , 20-C ) :   1.1513 B( 17-C , 18-C ) :   1.6274
B( 17-C , 33-H ) :   0.9636 B( 18-C , 19-C ) :   1.2072 B( 18-C , 21-H ) :   0.9892
B( 19-C , 20-C ) :   1.5975 B( 19-C , 22-C ) :   1.0312 B( 22-C , 23-H ) :   0.9480
B( 22-C , 24-H ) :   0.9377 B( 22-C , 25-C ) :   1.0534 B( 25-C , 26-H ) :   0.9593
B( 25-C , 27-H ) :   0.9569 B( 25-C , 28-C ) :   1.0787 B( 28-C , 29-H ) :   0.9684
B( 28-C , 30-H ) :   0.9620 B( 28-C , 31-H ) :   0.9711

Dispersion correction           -0.015760741
FINAL SINGLE POINT ENERGY     -1339.867190280502

DIPOLE MOMENT
-------------
                                X             Y             Z
Electronic contribution:      0.83052       1.30189     -26.90601
Nuclear contribution   :     -0.77236      -1.07005      27.37623
                        -----------------------------------------
Total Dipole Moment    :      0.05816       0.23184       0.47022
                        -----------------------------------------
Magnitude (a.u.)       :      0.52748
Magnitude (Debye)      :      1.34076

Rotational constants in cm-1:     0.018494     0.009910     0.007795
Rotational constants in MHz :   554.431531   297.088551   233.689633

                             ****ORCA TERMINATED NORMALLY****
TOTAL RUN TIME: 0 days 0 hours 0 minutes 37 seconds 144 msec
