                         Program Version 4.2.1 -  RELEASE  -
|  1> ! wB97X-D3 SP def2-SVP
|  2> %pal
|  3> nprocs 16
|  4> end
|  5>
|  6> * xyz 0 1
|  7> S 	 -58.5561 	 20.591 	 87.0945
|  8> C 	 -58.874 	 18.8626 	 87.3672
|  9> C 	 -58.2802 	 18.0154 	 86.438
| 10> C 	 -57.5379 	 18.7655 	 85.4932
| 11> C 	 -57.4364 	 20.0841 	 85.8011
| 12> H 	 -57.1913 	 18.3748 	 84.56
| 13> C 	 -58.5069 	 16.5529 	 86.3676
| 14> H 	 -58.4181 	 16.1839 	 85.316
| 15> H 	 -59.4541 	 16.2946 	 86.7426
| 16> C 	 -57.4615 	 15.6967 	 87.1082
| 17> H 	 -57.8495 	 14.7042 	 86.9726
| 18> H 	 -56.4552 	 15.798 	 86.6885
| 19> C 	 -57.1523 	 16.0992 	 88.5173
| 20> H 	 -58.0131 	 16.0224 	 89.1726
| 21> H 	 -56.4348 	 15.3074 	 88.9167
| 22> H 	 -56.7621 	 17.1184 	 88.6027
| 23> S 	 -57.3203 	 22.7506 	 84.6937
| 24> C 	 -55.9732 	 23.095 	 83.6423
| 25> C 	 -54.9459 	 22.2162 	 83.8308
| 26> C 	 -55.3479 	 21.1126 	 84.6725
| 27> C 	 -56.664 	 21.1372 	 85.1353
| 28> H 	 -53.9267 	 22.3045 	 83.3903
| 29> C 	 -54.3234 	 20.0805 	 85.103
| 30> H 	 -54.2734 	 19.3221 	 84.4507
| 31> H 	 -54.5577 	 19.4261 	 85.9673
| 32> C 	 -52.9476 	 20.5855 	 85.4224
| 33> H 	 -52.4469 	 20.8087 	 84.5015
| 34> H 	 -52.4144 	 19.7782 	 85.8913
| 35> C 	 -52.9382 	 21.894 	 86.3258
| 36> H 	 -52.0835 	 22.1309 	 86.9303
| 37> H 	 -53.5895 	 21.8881 	 87.1732
| 38> H 	 -53.3846 	 22.6922 	 85.7411
| 39> H 	 -59.6969 	 18.6425 	 88.0696
| 40> H 	 -56.0039 	 24.0206 	 83.0976
| 41> *
| 42>
| 43>                          ****END OF INPUT****

CARTESIAN COORDINATES (ANGSTROEM)
---------------------------------
  S    -58.556100   20.591000   87.094500
  C    -58.874000   18.862600   87.367200
  C    -58.280200   18.015400   86.438000
  C    -57.537900   18.765500   85.493200
  C    -57.436400   20.084100   85.801100
  H    -57.191300   18.374800   84.560000
  C    -58.506900   16.552900   86.367600
  H    -58.418100   16.183900   85.316000
  H    -59.454100   16.294600   86.742600
  C    -57.461500   15.696700   87.108200
  H    -57.849500   14.704200   86.972600
  H    -56.455200   15.798000   86.688500
  C    -57.152300   16.099200   88.517300
  H    -58.013100   16.022400   89.172600
  H    -56.434800   15.307400   88.916700
  H    -56.762100   17.118400   88.602700
  S    -57.320300   22.750600   84.693700
  C    -55.973200   23.095000   83.642300
  C    -54.945900   22.216200   83.830800
  C    -55.347900   21.112600   84.672500
  C    -56.664000   21.137200   85.135300
  H    -53.926700   22.304500   83.390300
  C    -54.323400   20.080500   85.103000
  H    -54.273400   19.322100   84.450700
  H    -54.557700   19.426100   85.967300
  C    -52.947600   20.585500   85.422400
  H    -52.446900   20.808700   84.501500
  H    -52.414400   19.778200   85.891300
  C    -52.938200   21.894000   86.325800
  H    -52.083500   22.130900   86.930300
  H    -53.589500   21.888100   87.173200
  H    -53.384600   22.692200   85.741100
  H    -59.696900   18.642500   88.069600
  H    -56.003900   24.020600   83.097600

 Total Charge           Charge          ....    0
 Multiplicity           Mult            ....    1
 Number of Electrons    NEL             ....  134
 Basis Dimension        Dim             ....  322

ORBITAL ENERGIES
----------------

  NO   OCC          E(Eh)            E(eV)
   0   2.0000     -88.964607     -2420.8500
   1   2.0000     -88.962008     -2420.7793
   2   2.0000     -10.332104      -281.1508
   3   2.0000     -10.329381      -281.0768
   4   2.0000     -10.321220      -280.8547
   5   2.0000     -10.318515      -280.7811
   6   2.0000     -10.306063      -280.4422
   7   2.0000     -10.302161      -280.3361
   8   2.0000     -10.301214      -280.3103
   9   2.0000     -10.293714      -280.1062
  10   2.0000     -10.290195      -280.0104
  11   2.0000     -10.284451      -279.8541
  12   2.0000     -10.282643      -279.8049
  13   2.0000     -10.277165      -279.6559
  14   2.0000     -10.276257      -279.6312
  15   2.0000     -10.268782      -279.4278
  16   2.0000      -8.078990      -219.8405
  17   2.0000      -8.076656      -219.7770
  18   2.0000      -6.037330      -164.2841
  19   2.0000      -6.035254      -164.2276
  20   2.0000      -6.033948      -164.1921
  21   2.0000      -6.031285      -164.1196
  22   2.0000      -6.029557      -164.0726
  23   2.0000      -6.027218      -164.0090
  24   2.0000      -1.003356       -27.3027
  25   2.0000      -0.983573       -26.7644
  26   2.0000      -0.917899       -24.9773
  27   2.0000      -0.911107       -24.7925
  28   2.0000      -0.867776       -23.6134
  29   2.0000      -0.852038       -23.1851
  30   2.0000      -0.835649       -22.7392
  31   2.0000      -0.816733       -22.2244
  32   2.0000      -0.791213       -21.5300
  33   2.0000      -0.777688       -21.1620
  34   2.0000      -0.709237       -19.2993
  35   2.0000      -0.698963       -19.0197
  36   2.0000      -0.691022       -18.8037
  37   2.0000      -0.655100       -17.8262
  38   2.0000      -0.643806       -17.5189
  39   2.0000      -0.626258       -17.0413
  40   2.0000      -0.612390       -16.6640
  41   2.0000      -0.572277       -15.5725
  42   2.0000      -0.552203       -15.0262
  43   2.0000      -0.551175       -14.9982
  44   2.0000      -0.544598       -14.8193
  45   2.0000      -0.538763       -14.6605
  46   2.0000      -0.523394       -14.2423
  47   2.0000      -0.511144       -13.9089
  48   2.0000      -0.499179       -13.5834
  49   2.0000      -0.490528       -13.3479
  50   2.0000      -0.489802       -13.3282
  51   2.0000      -0.479495       -13.0477
  52   2.0000      -0.471863       -12.8400
  53   2.0000      -0.464278       -12.6337
  54   2.0000      -0.460925       -12.5424
  55   2.0000      -0.450881       -12.2691
  56   2.0000      -0.446414       -12.1475
  57   2.0000      -0.431456       -11.7405
  58   2.0000      -0.428433       -11.6583
  59   2.0000      -0.423171       -11.5151
  60   2.0000      -0.416185       -11.3250
  61   2.0000      -0.413222       -11.2443
  62   2.0000      -0.406509       -11.0617
  63   2.0000      -0.349221        -9.5028
  64   2.0000      -0.333668        -9.0796
  65   2.0000      -0.326223        -8.8770
  66   2.0000      -0.287502        -7.8233
  67   0.0000       0.022204         0.6042
  68   0.0000       0.066104         1.7988
  69   0.0000       0.095467         2.5978
  70   0.0000       0.114069         3.1040
  71   0.0000       0.137779         3.7492

MULLIKEN ATOMIC CHARGES
-----------------------
   0 S :    0.085425
   1 C :   -0.135810
   2 C :   -0.086592
   3 C :    0.022487
   4 C :   -0.134301
   5 H :    0.011586
   6 C :    0.090046
   7 H :    0.030297
   8 H :    0.012939
   9 C :   -0.075499
  10 H :    0.029393
  11 H :    0.026304
  12 C :   -0.069213
  13 H :    0.014585
  14 H :    0.040379
  15 H :    0.058277
  16 S :    0.080111
  17 C :   -0.089239
  18 C :   -0.025033
  19 C :   -0.067474
  20 C :   -0.120009
  21 H :    0.044968
  22 C :    0.117930
  23 H :   -0.011344
  24 H :    0.019963
  25 C :   -0.079028
  26 H :    0.022437
  27 H :    0.025826
  28 C :   -0.029597
  29 H :    0.028937
  30 H :    0.008221
  31 H :    0.029241
  32 H :    0.061555
  33 H :    0.062230
Sum of atomic charges:    0.0000000

LOEWDIN ATOMIC CHARGES
----------------------
   0 S :    0.370584
   1 C :   -0.184664
   2 C :   -0.061794
   3 C :   -0.055445
   4 C :   -0.165894
   5 H :    0.032788
   6 C :   -0.028517
   7 H :    0.039064
   8 H :    0.023175
   9 C :   -0.042060
  10 H :    0.023094
  11 H :    0.025918
  12 C :   -0.071567
  13 H :    0.015295
  14 H :    0.035823
  15 H :    0.030417
  16 S :    0.375455
  17 C :   -0.169754
  18 C :   -0.079338
  19 C :   -0.048833
  20 C :   -0.190568
  21 H :    0.042708
  22 C :   -0.036414
  23 H :    0.014464
  24 H :    0.038304
  25 C :   -0.030701
  26 H :    0.015113
  27 H :    0.025618
  28 C :   -0.077620
  29 H :    0.026703
  30 H :    0.025572
  31 H :    0.028117
  32 H :    0.027629
  33 H :    0.027329

  Mayer bond orders larger than 0.100000
B(  0-S ,  1-C ) :   1.1315 B(  0-S ,  4-C ) :   1.1335 B(  1-C ,  2-C ) :   1.6077
B(  1-C , 32-H ) :   0.9657 B(  2-C ,  3-C ) :   1.2227 B(  2-C ,  6-C ) :   1.0384
B(  3-C ,  4-C ) :   1.5961 B(  3-C ,  5-H ) :   1.0013 B(  4-C , 20-C ) :   1.0562
B(  6-C ,  7-H ) :   0.9393 B(  6-C ,  8-H ) :   0.9375 B(  6-C ,  9-C ) :   1.0657
B(  9-C , 10-H ) :   0.9565 B(  9-C , 11-H ) :   0.9564 B(  9-C , 12-C ) :   1.0863
B( 12-C , 13-H ) :   0.9743 B( 12-C , 14-H ) :   0.9716 B( 12-C , 15-H ) :   0.9664
B( 16-S , 17-C ) :   1.1685 B( 16-S , 20-C ) :   1.1030 B( 17-C , 18-C ) :   1.5797
B( 17-C , 33-H ) :   0.9715 B( 18-C , 19-C ) :   1.2393 B( 18-C , 21-H ) :   0.9828
B( 19-C , 20-C ) :   1.6084 B( 19-C , 22-C ) :   1.0267 B( 22-C , 23-H ) :   0.9170
B( 22-C , 24-H ) :   0.9313 B( 22-C , 25-C ) :   1.0855 B( 25-C , 26-H ) :   0.9525
B( 25-C , 27-H ) :   0.9551 B( 25-C , 28-C ) :   1.0698 B( 28-C , 29-H ) :   0.9757
B( 28-C , 30-H ) :   0.9676 B( 28-C , 31-H ) :   0.9671

Dispersion correction           -0.014916513
FINAL SINGLE POINT ENERGY     -1339.851892409589

DIPOLE MOMENT
-------------
                                X             Y             Z
Electronic contribution:    -16.11701      18.73241      -6.50572
Nuclear contribution   :     16.39809     -19.30967       6.34510
                        -----------------------------------------
Total Dipole Moment    :      0.28108      -0.57726      -0.16061
                        -----------------------------------------
Magnitude (a.u.)       :      0.66184
Magnitude (Debye)      :      1.68226

Rotational constants in cm-1:     0.020861     0.008593     0.006950
Rotational constants in MHz :   625.404464   257.598936   208.352554

                             ****ORCA TERMINATED NORMALLY****
TOTAL RUN TIME: 0 days 0 hours 0 minutes 31 seconds 209 msec
