                         Program Version 4.2.1 -  RELEASE  -
|  1> ! wB97X-D3 SP def2-SVP
|  2> %pal
|  3> nprocs 16
|  4> end
|  5>
|  6> * xyz 0 1
|  7> S 	 0.110208 	 -21.2936 	 62.6176
|  8> C 	 0.422984 	 -21.4284 	 60.8591
|  9> C 	 -0.761067 	 -21.4854 	 60.1181
| 10> C 	 -1.87551 	 -21.3271 	 61.0646
| 11> C 	 -1.56472 	 -21.162 	 62.3911
| 12> H 	 -2.93338 	 -21.3974 	 60.7443
| 13> C 	 -0.944962 	 -21.8706 	 58.6306
| 14> H 	 -0.244353 	 -21.1643 	 58.0794
| 15> H 	 -1.98628 	 -21.7764 	 58.2663
| 16> C 	 -0.474937 	 -23.2565 	 58.1512
| 17> H 	 -0.692593 	 -23.3692 	 57.1085
| 18> H 	 0.613392 	 -23.4837 	 58.3213
| 19> C 	 -1.19582 	 -24.4015 	 58.8294
| 20> H 	 -0.880783 	 -24.6487 	 59.8539
| 21> H 	 -2.31242 	 -24.3122 	 58.8145
| 22> H 	 -0.868388 	 -25.2681 	 58.2293
| 23> S 	 -2.1048 	 -21.8438 	 65.0001
| 24> C 	 -3.31144 	 -21.0451 	 65.8285
| 25> C 	 -4.0135 	 -20.1748 	 64.9863
| 26> C 	 -3.53938 	 -20.117 	 63.6409
| 27> C 	 -2.43435 	 -20.976 	 63.5327
| 28> H 	 -4.76784 	 -19.5141 	 65.4965
| 29> C 	 -4.21788 	 -19.2736 	 62.5868
| 30> H 	 -5.23028 	 -19.0418 	 63.0403
| 31> H 	 -4.27819 	 -19.9373 	 61.7292
| 32> C 	 -3.40701 	 -17.9772 	 62.1295
| 33> H 	 -2.46473 	 -18.2871 	 61.6742
| 34> H 	 -3.1697 	 -17.426 	 63.0466
| 35> C 	 -4.31714 	 -17.1453 	 61.3018
| 36> H 	 -5.08806 	 -16.5777 	 61.8964
| 37> H 	 -4.94232 	 -17.78 	 60.6079
| 38> H 	 -3.79308 	 -16.4379 	 60.7497
| 39> H 	 1.43228 	 -21.3252 	 60.4688
| 40> H 	 -3.53745 	 -21.2809 	 66.8002
| 41> *
| 42>
| 43>                          ****END OF INPUT****

CARTESIAN COORDINATES (ANGSTROEM)
---------------------------------
  S      0.110208  -21.293600   62.617600
  C      0.422984  -21.428400   60.859100
  C     -0.761067  -21.485400   60.118100
  C     -1.875510  -21.327100   61.064600
  C     -1.564720  -21.162000   62.391100
  H     -2.933380  -21.397400   60.744300
  C     -0.944962  -21.870600   58.630600
  H     -0.244353  -21.164300   58.079400
  H     -1.986280  -21.776400   58.266300
  C     -0.474937  -23.256500   58.151200
  H     -0.692593  -23.369200   57.108500
  H      0.613392  -23.483700   58.321300
  C     -1.195820  -24.401500   58.829400
  H     -0.880783  -24.648700   59.853900
  H     -2.312420  -24.312200   58.814500
  H     -0.868388  -25.268100   58.229300
  S     -2.104800  -21.843800   65.000100
  C     -3.311440  -21.045100   65.828500
  C     -4.013500  -20.174800   64.986300
  C     -3.539380  -20.117000   63.640900
  C     -2.434350  -20.976000   63.532700
  H     -4.767840  -19.514100   65.496500
  C     -4.217880  -19.273600   62.586800
  H     -5.230280  -19.041800   63.040300
  H     -4.278190  -19.937300   61.729200
  C     -3.407010  -17.977200   62.129500
  H     -2.464730  -18.287100   61.674200
  H     -3.169700  -17.426000   63.046600
  C     -4.317140  -17.145300   61.301800
  H     -5.088060  -16.577700   61.896400
  H     -4.942320  -17.780000   60.607900
  H     -3.793080  -16.437900   60.749700
  H      1.432280  -21.325200   60.468800
  H     -3.537450  -21.280900   66.800200

 Total Charge           Charge          ....    0
 Multiplicity           Mult            ....    1
 Number of Electrons    NEL             ....  134
 Basis Dimension        Dim             ....  322

ORBITAL ENERGIES
----------------

  NO   OCC          E(Eh)            E(eV)
   0   2.0000     -88.967256     -2420.9221
   1   2.0000     -88.963882     -2420.8303
   2   2.0000     -10.324102      -280.9331
   3   2.0000     -10.323514      -280.9171
   4   2.0000     -10.318606      -280.7836
   5   2.0000     -10.312605      -280.6202
   6   2.0000     -10.306039      -280.4416
   7   2.0000     -10.305473      -280.4262
   8   2.0000     -10.303489      -280.3722
   9   2.0000     -10.298459      -280.2353
  10   2.0000     -10.295730      -280.1611
  11   2.0000     -10.295042      -280.1423
  12   2.0000     -10.289005      -279.9781
  13   2.0000     -10.286161      -279.9007
  14   2.0000     -10.276100      -279.6269
  15   2.0000     -10.276088      -279.6266
  16   2.0000      -8.083680      -219.9681
  17   2.0000      -8.079225      -219.8469
  18   2.0000      -6.041907      -164.4086
  19   2.0000      -6.037778      -164.2963
  20   2.0000      -6.037748      -164.2955
  21   2.0000      -6.034829      -164.2161
  22   2.0000      -6.033643      -164.1838
  23   2.0000      -6.029923      -164.0825
  24   2.0000      -1.013132       -27.5687
  25   2.0000      -0.985652       -26.8210
  26   2.0000      -0.911276       -24.7971
  27   2.0000      -0.909684       -24.7538
  28   2.0000      -0.869385       -23.6572
  29   2.0000      -0.859334       -23.3837
  30   2.0000      -0.839091       -22.8328
  31   2.0000      -0.808197       -21.9921
  32   2.0000      -0.783259       -21.3136
  33   2.0000      -0.773319       -21.0431
  34   2.0000      -0.704019       -19.1573
  35   2.0000      -0.695755       -18.9324
  36   2.0000      -0.690945       -18.8016
  37   2.0000      -0.660941       -17.9851
  38   2.0000      -0.636095       -17.3090
  39   2.0000      -0.613545       -16.6954
  40   2.0000      -0.594574       -16.1792
  41   2.0000      -0.575561       -15.6618
  42   2.0000      -0.563471       -15.3328
  43   2.0000      -0.544938       -14.8285
  44   2.0000      -0.540947       -14.7199
  45   2.0000      -0.526670       -14.3314
  46   2.0000      -0.520616       -14.1667
  47   2.0000      -0.509874       -13.8744
  48   2.0000      -0.505039       -13.7428
  49   2.0000      -0.497797       -13.5458
  50   2.0000      -0.490463       -13.3462
  51   2.0000      -0.480767       -13.0823
  52   2.0000      -0.473223       -12.8770
  53   2.0000      -0.465676       -12.6717
  54   2.0000      -0.452217       -12.3054
  55   2.0000      -0.449526       -12.2322
  56   2.0000      -0.440185       -11.9780
  57   2.0000      -0.431010       -11.7284
  58   2.0000      -0.428501       -11.6601
  59   2.0000      -0.426201       -11.5975
  60   2.0000      -0.419598       -11.4178
  61   2.0000      -0.417532       -11.3616
  62   2.0000      -0.415740       -11.3129
  63   2.0000      -0.350147        -9.5280
  64   2.0000      -0.330959        -9.0058
  65   2.0000      -0.327479        -8.9111
  66   2.0000      -0.284879        -7.7519
  67   0.0000       0.029987         0.8160
  68   0.0000       0.071150         1.9361
  69   0.0000       0.110188         2.9984
  70   0.0000       0.117162         3.1881
  71   0.0000       0.135946         3.6993

MULLIKEN ATOMIC CHARGES
-----------------------
   0 S :    0.100018
   1 C :   -0.149936
   2 C :   -0.058572
   3 C :   -0.017345
   4 C :   -0.135076
   5 H :    0.017802
   6 C :    0.043983
   7 H :    0.044352
   8 H :    0.034780
   9 C :   -0.072335
  10 H :    0.031588
  11 H :    0.037030
  12 C :   -0.080029
  13 H :    0.045430
  14 H :    0.032471
  15 H :    0.028203
  16 S :    0.132572
  17 C :   -0.072871
  18 C :   -0.068678
  19 C :   -0.023227
  20 C :   -0.164618
  21 H :    0.034762
  22 C :    0.042620
  23 H :    0.037398
  24 H :    0.023398
  25 C :   -0.066583
  26 H :    0.049815
  27 H :    0.032284
  28 C :   -0.019936
  29 H :    0.032594
  30 H :    0.025809
  31 H :    0.020824
  32 H :    0.055930
  33 H :    0.025543
Sum of atomic charges:    0.0000000

LOEWDIN ATOMIC CHARGES
----------------------
   0 S :    0.410034
   1 C :   -0.190925
   2 C :   -0.056628
   3 C :   -0.080559
   4 C :   -0.210829
   5 H :    0.029208
   6 C :   -0.037618
   7 H :    0.042244
   8 H :    0.034078
   9 C :   -0.045384
  10 H :    0.024529
  11 H :    0.030757
  12 C :   -0.073766
  13 H :    0.027082
  14 H :    0.024230
  15 H :    0.028193
  16 S :    0.452773
  17 C :   -0.204655
  18 C :   -0.080082
  19 C :   -0.053871
  20 C :   -0.212460
  21 H :    0.037593
  22 C :   -0.029565
  23 H :    0.039641
  24 H :    0.027669
  25 C :   -0.034505
  26 H :    0.029486
  27 H :    0.027154
  28 C :   -0.065937
  29 H :    0.031419
  30 H :    0.027740
  31 H :    0.015492
  32 H :    0.026481
  33 H :    0.010981

  Mayer bond orders larger than 0.100000
B(  0-S ,  1-C ) :   1.1359 B(  0-S ,  4-C ) :   1.1552 B(  1-C ,  2-C ) :   1.6021
B(  1-C , 32-H ) :   0.9708 B(  2-C ,  3-C ) :   1.2341 B(  2-C ,  6-C ) :   1.0146
B(  3-C ,  4-C ) :   1.5787 B(  3-C ,  5-H ) :   0.9860 B(  4-C , 20-C ) :   1.0433
B(  6-C ,  7-H ) :   0.9348 B(  6-C ,  8-H ) :   0.9469 B(  6-C ,  9-C ) :   1.0817
B(  9-C , 10-H ) :   0.9561 B(  9-C , 11-H ) :   0.9523 B(  9-C , 12-C ) :   1.0756
B( 12-C , 13-H ) :   0.9750 B( 12-C , 14-H ) :   0.9754 B( 12-C , 15-H ) :   0.9746
B( 16-S , 17-C ) :   1.1892 B( 16-S , 20-C ) :   1.1718 B( 17-C , 18-C ) :   1.5607
B( 17-C , 20-C ) :   0.1041 B( 17-C , 33-H ) :   0.9811 B( 18-C , 19-C ) :   1.2784
B( 18-C , 21-H ) :   0.9815 B( 19-C , 20-C ) :   1.5419 B( 19-C , 22-C ) :   1.0346
B( 22-C , 23-H ) :   0.9412 B( 22-C , 24-H ) :   0.9240 B( 22-C , 25-C ) :   1.0545
B( 25-C , 26-H ) :   0.9547 B( 25-C , 27-H ) :   0.9562 B( 25-C , 28-C ) :   1.0868
B( 28-C , 29-H ) :   0.9728 B( 28-C , 30-H ) :   0.9702 B( 28-C , 31-H ) :   0.9720

Dispersion correction           -0.014334455
FINAL SINGLE POINT ENERGY     -1339.875284558139

DIPOLE MOMENT
-------------
                                X             Y             Z
Electronic contribution:      9.13800      -4.75646      22.64183
Nuclear contribution   :     -9.40433       4.90677     -23.05382
                        -----------------------------------------
Total Dipole Moment    :     -0.26633       0.15031      -0.41199
                        -----------------------------------------
Magnitude (a.u.)       :      0.51309
Magnitude (Debye)      :      1.30418

Rotational constants in cm-1:     0.018101     0.008871     0.007016
Rotational constants in MHz :   542.646743   265.942677   210.323182

                             ****ORCA TERMINATED NORMALLY****
TOTAL RUN TIME: 0 days 0 hours 0 minutes 34 seconds 651 msec
