                         Program Version 4.2.1 -  RELEASE  -
|  1> ! wB97X-D3 SP def2-SVP
|  2> %pal
|  3> nprocs 16
|  4> end
|  5>
|  6> * xyz 0 1
|  7> S 	 52.9627 	 23.8572 	 91.6638
|  8> C 	 51.9868 	 23.6517 	 93.0791
|  9> C 	 52.648 	 23.2101 	 94.2035
| 10> C 	 54.0525 	 22.9612 	 93.8457
| 11> C 	 54.3601 	 23.3125 	 92.5686
| 12> H 	 54.8487 	 22.5562 	 94.4702
| 13> C 	 52.0386 	 23.0152 	 95.5661
| 14> H 	 52.5219 	 22.0631 	 95.7666
| 15> H 	 51.0211 	 22.865 	 95.3856
| 16> C 	 52.317 	 24.1114 	 96.58
| 17> H 	 52.1974 	 23.6998 	 97.588
| 18> H 	 53.3396 	 24.3837 	 96.5754
| 19> C 	 51.5727 	 25.3833 	 96.2673
| 20> H 	 50.4834 	 25.245 	 96.1215
| 21> H 	 51.6089 	 26.0383 	 97.1465
| 22> H 	 52.0375 	 25.9135 	 95.4305
| 23> S 	 56.9945 	 23.7131 	 92.7958
| 24> C 	 58.0616 	 22.8153 	 91.8
| 25> C 	 57.3764 	 22.1736 	 90.8661
| 26> C 	 55.969 	 22.1723 	 90.9585
| 27> C 	 55.6423 	 23.0509 	 91.9902
| 28> H 	 57.8807 	 21.6161 	 90.0636
| 29> C 	 55.1505 	 21.4158 	 89.8991
| 30> H 	 55.8812 	 20.9065 	 89.3367
| 31> H 	 54.7131 	 22.2219 	 89.335
| 32> C 	 54.2002 	 20.3025 	 90.4616
| 33> H 	 53.558 	 19.8736 	 89.7048
| 34> H 	 53.5583 	 20.7845 	 91.2391
| 35> C 	 54.9341 	 19.1073 	 91.0344
| 36> H 	 54.3948 	 18.3291 	 91.5651
| 37> H 	 55.6054 	 19.4959 	 91.807
| 38> H 	 55.5982 	 18.6656 	 90.2822
| 39> H 	 50.9476 	 23.8976 	 93.0545
| 40> H 	 59.0714 	 22.9853 	 91.89
| 41> *
| 42>
| 43>                          ****END OF INPUT****

CARTESIAN COORDINATES (ANGSTROEM)
---------------------------------
  S     52.962700   23.857200   91.663800
  C     51.986800   23.651700   93.079100
  C     52.648000   23.210100   94.203500
  C     54.052500   22.961200   93.845700
  C     54.360100   23.312500   92.568600
  H     54.848700   22.556200   94.470200
  C     52.038600   23.015200   95.566100
  H     52.521900   22.063100   95.766600
  H     51.021100   22.865000   95.385600
  C     52.317000   24.111400   96.580000
  H     52.197400   23.699800   97.588000
  H     53.339600   24.383700   96.575400
  C     51.572700   25.383300   96.267300
  H     50.483400   25.245000   96.121500
  H     51.608900   26.038300   97.146500
  H     52.037500   25.913500   95.430500
  S     56.994500   23.713100   92.795800
  C     58.061600   22.815300   91.800000
  C     57.376400   22.173600   90.866100
  C     55.969000   22.172300   90.958500
  C     55.642300   23.050900   91.990200
  H     57.880700   21.616100   90.063600
  C     55.150500   21.415800   89.899100
  H     55.881200   20.906500   89.336700
  H     54.713100   22.221900   89.335000
  C     54.200200   20.302500   90.461600
  H     53.558000   19.873600   89.704800
  H     53.558300   20.784500   91.239100
  C     54.934100   19.107300   91.034400
  H     54.394800   18.329100   91.565100
  H     55.605400   19.495900   91.807000
  H     55.598200   18.665600   90.282200
  H     50.947600   23.897600   93.054500
  H     59.071400   22.985300   91.890000

 Total Charge           Charge          ....    0
 Multiplicity           Mult            ....    1
 Number of Electrons    NEL             ....  134
 Basis Dimension        Dim             ....  322

ORBITAL ENERGIES
----------------

  NO   OCC          E(Eh)            E(eV)
   0   2.0000     -88.964498     -2420.8471
   1   2.0000     -88.961553     -2420.7669
   2   2.0000     -10.319155      -280.7985
   3   2.0000     -10.317801      -280.7616
   4   2.0000     -10.307082      -280.4700
   5   2.0000     -10.300594      -280.2934
   6   2.0000     -10.299946      -280.2758
   7   2.0000     -10.297281      -280.2033
   8   2.0000     -10.292413      -280.0708
   9   2.0000     -10.291739      -280.0524
  10   2.0000     -10.285112      -279.8721
  11   2.0000     -10.285106      -279.8720
  12   2.0000     -10.283354      -279.8243
  13   2.0000     -10.282036      -279.7884
  14   2.0000     -10.277562      -279.6667
  15   2.0000     -10.271511      -279.5020
  16   2.0000      -8.079439      -219.8527
  17   2.0000      -8.078154      -219.8177
  18   2.0000      -6.037899      -164.2996
  19   2.0000      -6.036467      -164.2606
  20   2.0000      -6.034087      -164.1958
  21   2.0000      -6.032379      -164.1494
  22   2.0000      -6.030096      -164.0872
  23   2.0000      -6.029042      -164.0586
  24   2.0000      -1.016456       -27.6592
  25   2.0000      -0.988631       -26.9020
  26   2.0000      -0.918621       -24.9970
  27   2.0000      -0.907569       -24.6962
  28   2.0000      -0.875885       -23.8340
  29   2.0000      -0.853288       -23.2191
  30   2.0000      -0.847604       -23.0645
  31   2.0000      -0.813194       -22.1281
  32   2.0000      -0.786103       -21.3909
  33   2.0000      -0.774624       -21.0786
  34   2.0000      -0.711679       -19.3658
  35   2.0000      -0.700363       -19.0578
  36   2.0000      -0.689022       -18.7492
  37   2.0000      -0.667866       -18.1735
  38   2.0000      -0.640476       -17.4282
  39   2.0000      -0.615467       -16.7477
  40   2.0000      -0.595466       -16.2034
  41   2.0000      -0.565631       -15.3916
  42   2.0000      -0.561678       -15.2840
  43   2.0000      -0.554459       -15.0876
  44   2.0000      -0.552373       -15.0308
  45   2.0000      -0.540094       -14.6967
  46   2.0000      -0.519124       -14.1261
  47   2.0000      -0.508733       -13.8433
  48   2.0000      -0.501855       -13.6562
  49   2.0000      -0.487653       -13.2697
  50   2.0000      -0.486170       -13.2294
  51   2.0000      -0.480268       -13.0688
  52   2.0000      -0.468692       -12.7538
  53   2.0000      -0.462952       -12.5976
  54   2.0000      -0.461574       -12.5601
  55   2.0000      -0.453687       -12.3455
  56   2.0000      -0.448780       -12.2119
  57   2.0000      -0.436113       -11.8672
  58   2.0000      -0.434200       -11.8152
  59   2.0000      -0.430892       -11.7252
  60   2.0000      -0.416380       -11.3303
  61   2.0000      -0.414129       -11.2690
  62   2.0000      -0.410524       -11.1709
  63   2.0000      -0.345332        -9.3970
  64   2.0000      -0.335126        -9.1192
  65   2.0000      -0.324331        -8.8255
  66   2.0000      -0.294615        -8.0169
  67   0.0000       0.039598         1.0775
  68   0.0000       0.079967         2.1760
  69   0.0000       0.116346         3.1659
  70   0.0000       0.118084         3.2132
  71   0.0000       0.129372         3.5204

MULLIKEN ATOMIC CHARGES
-----------------------
   0 S :    0.108577
   1 C :   -0.125861
   2 C :   -0.115571
   3 C :    0.002944
   4 C :   -0.151084
   5 H :    0.018139
   6 C :    0.118514
   7 H :    0.026019
   8 H :    0.004412
   9 C :   -0.021433
  10 H :    0.028611
  11 H :    0.014367
  12 C :   -0.068127
  13 H :    0.028155
  14 H :    0.031121
  15 H :    0.053139
  16 S :    0.110713
  17 C :   -0.062867
  18 C :   -0.023013
  19 C :   -0.066233
  20 C :   -0.195813
  21 H :    0.015004
  22 C :    0.127577
  23 H :   -0.005275
  24 H :    0.047241
  25 C :   -0.060410
  26 H :    0.029665
  27 H :    0.047379
  28 C :   -0.066174
  29 H :    0.040055
  30 H :    0.026184
  31 H :    0.024209
  32 H :    0.034835
  33 H :    0.025000
Sum of atomic charges:   -0.0000000

LOEWDIN ATOMIC CHARGES
----------------------
   0 S :    0.401872
   1 C :   -0.200431
   2 C :   -0.057963
   3 C :   -0.065240
   4 C :   -0.200285
   5 H :    0.029679
   6 C :   -0.025305
   7 H :    0.036631
   8 H :    0.022118
   9 C :   -0.039244
  10 H :    0.026363
  11 H :    0.023364
  12 C :   -0.066702
  13 H :    0.024122
  14 H :    0.029197
  15 H :    0.032168
  16 S :    0.441405
  17 C :   -0.187660
  18 C :   -0.073279
  19 C :   -0.058614
  20 C :   -0.210115
  21 H :    0.030700
  22 C :   -0.016060
  23 H :    0.021402
  24 H :    0.035324
  25 C :   -0.039816
  26 H :    0.021871
  27 H :    0.028462
  28 C :   -0.072223
  29 H :    0.027843
  30 H :    0.025935
  31 H :    0.023161
  32 H :    0.019015
  33 H :    0.012307

  Mayer bond orders larger than 0.100000
B(  0-S ,  1-C ) :   1.1323 B(  0-S ,  4-C ) :   1.1266 B(  1-C ,  2-C ) :   1.6410
B(  1-C , 32-H ) :   0.9669 B(  2-C ,  3-C ) :   1.1970 B(  2-C ,  6-C ) :   1.0028
B(  3-C ,  4-C ) :   1.6304 B(  3-C ,  5-H ) :   0.9867 B(  4-C , 20-C ) :   1.0153
B(  6-C ,  7-H ) :   0.9307 B(  6-C ,  8-H ) :   0.9396 B(  6-C ,  9-C ) :   1.0706
B(  9-C , 10-H ) :   0.9559 B(  9-C , 11-H ) :   0.9517 B(  9-C , 12-C ) :   1.0724
B( 12-C , 13-H ) :   0.9767 B( 12-C , 14-H ) :   0.9707 B( 12-C , 15-H ) :   0.9744
B( 16-S , 17-C ) :   1.1488 B( 16-S , 20-C ) :   1.1848 B( 17-C , 18-C ) :   1.5966
B( 17-C , 33-H ) :   0.9823 B( 18-C , 19-C ) :   1.2707 B( 18-C , 21-H ) :   0.9800
B( 19-C , 20-C ) :   1.5578 B( 19-C , 22-C ) :   1.0112 B( 22-C , 23-H ) :   0.9295
B( 22-C , 24-H ) :   0.9401 B( 22-C , 25-C ) :   1.0556 B( 25-C , 26-H ) :   0.9591
B( 25-C , 27-H ) :   0.9593 B( 25-C , 28-C ) :   1.0694 B( 28-C , 29-H ) :   0.9743
B( 28-C , 30-H ) :   0.9750 B( 28-C , 31-H ) :   0.9725

Dispersion correction           -0.015356276
FINAL SINGLE POINT ENERGY     -1339.879352929361

DIPOLE MOMENT
-------------
                                X             Y             Z
Electronic contribution:     10.07463       9.72738      -7.89073
Nuclear contribution   :    -10.13119      -9.98202       8.09248
                        -----------------------------------------
Total Dipole Moment    :     -0.05656      -0.25464       0.20174
                        -----------------------------------------
Magnitude (a.u.)       :      0.32976
Magnitude (Debye)      :      0.83819

Rotational constants in cm-1:     0.021611     0.008577     0.007345
Rotational constants in MHz :   647.869990   257.143081   220.199618

                             ****ORCA TERMINATED NORMALLY****
TOTAL RUN TIME: 0 days 0 hours 0 minutes 29 seconds 476 msec
