                         Program Version 4.2.1 -  RELEASE  -
|  1> ! wB97X-D3 SP def2-SVP
|  2> %pal
|  3> nprocs 16
|  4> end
|  5>
|  6> * xyz 0 1
|  7> S 	 10.3948 	 -4.01219 	 89.5103
|  8> C 	 10.4318 	 -2.35761 	 88.9622
|  9> C 	 9.53357 	 -1.99223 	 88.0383
| 10> C 	 8.71547 	 -3.14011 	 87.7527
| 11> C 	 9.07778 	 -4.32297 	 88.441
| 12> H 	 7.84795 	 -3.11433 	 87.1015
| 13> C 	 9.41194 	 -0.658881 	 87.3669
| 14> H 	 10.2079 	 -0.0230645 	 87.7803
| 15> H 	 8.5804 	 -0.0886235 	 87.714
| 16> C 	 9.41774 	 -0.750361 	 85.8494
| 17> H 	 10.3385 	 -1.12294 	 85.4287
| 18> H 	 8.59891 	 -1.2703 	 85.528
| 19> C 	 9.13595 	 0.630997 	 85.3324
| 20> H 	 8.16716 	 1.06122 	 85.6391
| 21> H 	 9.94393 	 1.40121 	 85.5438
| 22> H 	 9.08265 	 0.666001 	 84.2629
| 23> S 	 8.24904 	 -6.77383 	 87.2377
| 24> C 	 6.83386 	 -7.48817 	 87.919
| 25> C 	 6.25765 	 -6.73103 	 88.9381
| 26> C 	 7.06872 	 -5.60138 	 89.2721
| 27> C 	 8.26119 	 -5.47222 	 88.5198
| 28> H 	 5.26818 	 -7.03096 	 89.3838
| 29> C 	 6.54743 	 -4.57519 	 90.2499
| 30> H 	 7.31564 	 -3.94268 	 90.6435
| 31> H 	 6.09729 	 -5.10688 	 91.0739
| 32> C 	 5.392 	 -3.66094 	 89.7301
| 33> H 	 4.67652 	 -4.20446 	 89.1051
| 34> H 	 5.86373 	 -2.99082 	 88.9885
| 35> C 	 4.78791 	 -2.94284 	 90.8722
| 36> H 	 5.52623 	 -2.60693 	 91.6811
| 37> H 	 4.08503 	 -3.67617 	 91.2844
| 38> H 	 4.38017 	 -2.02504 	 90.5705
| 39> H 	 11.1761 	 -1.6963 	 89.1902
| 40> H 	 6.50231 	 -8.45426 	 87.5957
| 41> *
| 42>
| 43>                          ****END OF INPUT****

CARTESIAN COORDINATES (ANGSTROEM)
---------------------------------
  S     10.394800   -4.012190   89.510300
  C     10.431800   -2.357610   88.962200
  C      9.533570   -1.992230   88.038300
  C      8.715470   -3.140110   87.752700
  C      9.077780   -4.322970   88.441000
  H      7.847950   -3.114330   87.101500
  C      9.411940   -0.658881   87.366900
  H     10.207900   -0.023065   87.780300
  H      8.580400   -0.088623   87.714000
  C      9.417740   -0.750361   85.849400
  H     10.338500   -1.122940   85.428700
  H      8.598910   -1.270300   85.528000
  C      9.135950    0.630997   85.332400
  H      8.167160    1.061220   85.639100
  H      9.943930    1.401210   85.543800
  H      9.082650    0.666001   84.262900
  S      8.249040   -6.773830   87.237700
  C      6.833860   -7.488170   87.919000
  C      6.257650   -6.731030   88.938100
  C      7.068720   -5.601380   89.272100
  C      8.261190   -5.472220   88.519800
  H      5.268180   -7.030960   89.383800
  C      6.547430   -4.575190   90.249900
  H      7.315640   -3.942680   90.643500
  H      6.097290   -5.106880   91.073900
  C      5.392000   -3.660940   89.730100
  H      4.676520   -4.204460   89.105100
  H      5.863730   -2.990820   88.988500
  C      4.787910   -2.942840   90.872200
  H      5.526230   -2.606930   91.681100
  H      4.085030   -3.676170   91.284400
  H      4.380170   -2.025040   90.570500
  H     11.176100   -1.696300   89.190200
  H      6.502310   -8.454260   87.595700

 Total Charge           Charge          ....    0
 Multiplicity           Mult            ....    1
 Number of Electrons    NEL             ....  134
 Basis Dimension        Dim             ....  322

ORBITAL ENERGIES
----------------

  NO   OCC          E(Eh)            E(eV)
   0   2.0000     -88.967234     -2420.9215
   1   2.0000     -88.962293     -2420.7871
   2   2.0000     -10.323801      -280.9249
   3   2.0000     -10.322445      -280.8880
   4   2.0000     -10.317827      -280.7624
   5   2.0000     -10.304886      -280.4102
   6   2.0000     -10.300919      -280.3023
   7   2.0000     -10.297900      -280.2201
   8   2.0000     -10.295016      -280.1416
   9   2.0000     -10.293781      -280.1080
  10   2.0000     -10.291543      -280.0471
  11   2.0000     -10.283309      -279.8231
  12   2.0000     -10.282116      -279.7906
  13   2.0000     -10.280610      -279.7496
  14   2.0000     -10.279487      -279.7191
  15   2.0000     -10.276486      -279.6374
  16   2.0000      -8.082297      -219.9305
  17   2.0000      -8.076492      -219.7725
  18   2.0000      -6.040678      -164.3752
  19   2.0000      -6.036806      -164.2698
  20   2.0000      -6.034919      -164.2185
  21   2.0000      -6.033125      -164.1697
  22   2.0000      -6.031070      -164.1138
  23   2.0000      -6.027379      -164.0133
  24   2.0000      -1.005089       -27.3499
  25   2.0000      -0.979337       -26.6491
  26   2.0000      -0.924403       -25.1543
  27   2.0000      -0.910856       -24.7857
  28   2.0000      -0.876915       -23.8621
  29   2.0000      -0.852060       -23.1857
  30   2.0000      -0.848035       -23.0762
  31   2.0000      -0.806354       -21.9420
  32   2.0000      -0.784758       -21.3543
  33   2.0000      -0.769681       -20.9441
  34   2.0000      -0.714545       -19.4438
  35   2.0000      -0.700931       -19.0733
  36   2.0000      -0.692666       -18.8484
  37   2.0000      -0.653970       -17.7954
  38   2.0000      -0.644161       -17.5285
  39   2.0000      -0.618938       -16.8422
  40   2.0000      -0.598963       -16.2986
  41   2.0000      -0.581243       -15.8164
  42   2.0000      -0.571233       -15.5440
  43   2.0000      -0.565408       -15.3855
  44   2.0000      -0.529871       -14.4185
  45   2.0000      -0.519040       -14.1238
  46   2.0000      -0.515981       -14.0406
  47   2.0000      -0.513492       -13.9728
  48   2.0000      -0.509662       -13.8686
  49   2.0000      -0.499917       -13.6034
  50   2.0000      -0.489205       -13.3119
  51   2.0000      -0.471597       -12.8328
  52   2.0000      -0.466705       -12.6997
  53   2.0000      -0.464181       -12.6310
  54   2.0000      -0.455022       -12.3818
  55   2.0000      -0.452454       -12.3119
  56   2.0000      -0.447607       -12.1800
  57   2.0000      -0.441570       -12.0157
  58   2.0000      -0.431238       -11.7346
  59   2.0000      -0.428358       -11.6562
  60   2.0000      -0.425723       -11.5845
  61   2.0000      -0.416858       -11.3433
  62   2.0000      -0.411251       -11.1907
  63   2.0000      -0.334105        -9.0915
  64   2.0000      -0.327326        -8.9070
  65   2.0000      -0.319771        -8.7014
  66   2.0000      -0.303671        -8.2633
  67   0.0000       0.045519         1.2386
  68   0.0000       0.047672         1.2972
  69   0.0000       0.111959         3.0466
  70   0.0000       0.122177         3.3246
  71   0.0000       0.130582         3.5533

MULLIKEN ATOMIC CHARGES
-----------------------
   0 S :    0.127278
   1 C :   -0.086870
   2 C :   -0.066275
   3 C :    0.028974
   4 C :   -0.187167
   5 H :    0.013853
   6 C :    0.082703
   7 H :    0.005110
   8 H :    0.020958
   9 C :   -0.003533
  10 H :    0.038791
  11 H :    0.015896
  12 C :   -0.081401
  13 H :    0.028742
  14 H :    0.031927
  15 H :    0.019867
  16 S :    0.094977
  17 C :   -0.092862
  18 C :   -0.045486
  19 C :   -0.022227
  20 C :   -0.158966
  21 H :    0.041131
  22 C :    0.075830
  23 H :    0.022630
  24 H :    0.011739
  25 C :   -0.085399
  26 H :    0.025817
  27 H :    0.016853
  28 C :   -0.025332
  29 H :    0.037614
  30 H :    0.040512
  31 H :    0.022527
  32 H :   -0.002888
  33 H :    0.054676
Sum of atomic charges:    0.0000000

LOEWDIN ATOMIC CHARGES
----------------------
   0 S :    0.425227
   1 C :   -0.181443
   2 C :   -0.065502
   3 C :   -0.045504
   4 C :   -0.217833
   5 H :    0.025559
   6 C :   -0.027668
   7 H :    0.031782
   8 H :    0.030657
   9 C :   -0.025405
  10 H :    0.030856
  11 H :    0.017380
  12 C :   -0.068923
  13 H :    0.024987
  14 H :    0.027973
  15 H :    0.019514
  16 S :    0.384696
  17 C :   -0.179967
  18 C :   -0.083951
  19 C :   -0.039355
  20 C :   -0.201442
  21 H :    0.042083
  22 C :   -0.026600
  23 H :    0.025650
  24 H :    0.025558
  25 C :   -0.042002
  26 H :    0.022323
  27 H :    0.019934
  28 C :   -0.064796
  29 H :    0.035763
  30 H :    0.031291
  31 H :    0.019305
  32 H :    0.005991
  33 H :    0.023860

  Mayer bond orders larger than 0.100000
B(  0-S ,  1-C ) :   1.1434 B(  0-S ,  4-C ) :   1.1471 B(  1-C ,  2-C ) :   1.6460
B(  1-C , 32-H ) :   0.9616 B(  2-C ,  3-C ) :   1.2316 B(  2-C ,  6-C ) :   1.0183
B(  3-C ,  4-C ) :   1.5718 B(  3-C ,  5-H ) :   0.9912 B(  4-C , 20-C ) :   1.0427
B(  6-C ,  7-H ) :   0.9313 B(  6-C ,  8-H ) :   0.9323 B(  6-C ,  9-C ) :   1.0708
B(  9-C , 10-H ) :   0.9545 B(  9-C , 11-H ) :   0.9464 B(  9-C , 12-C ) :   1.0928
B( 12-C , 13-H ) :   0.9726 B( 12-C , 14-H ) :   0.9727 B( 12-C , 15-H ) :   0.9713
B( 16-S , 17-C ) :   1.1873 B( 16-S , 20-C ) :   1.1055 B( 17-C , 18-C ) :   1.5809
B( 17-C , 33-H ) :   0.9676 B( 18-C , 19-C ) :   1.2485 B( 18-C , 21-H ) :   0.9843
B( 19-C , 20-C ) :   1.5835 B( 19-C , 22-C ) :   1.0542 B( 22-C , 23-H ) :   0.9267
B( 22-C , 24-H ) :   0.9381 B( 22-C , 25-C ) :   1.0558 B( 25-C , 26-H ) :   0.9583
B( 25-C , 27-H ) :   0.9497 B( 25-C , 28-C ) :   1.0768 B( 28-C , 29-H ) :   0.9703
B( 28-C , 30-H ) :   0.9747 B( 28-C , 31-H ) :   0.9706

Dispersion correction           -0.014627850
FINAL SINGLE POINT ENERGY     -1339.864714383055

DIPOLE MOMENT
-------------
                                X             Y             Z
Electronic contribution:     13.35124     -24.05781       1.83457
Nuclear contribution   :    -13.86472      24.65982      -1.93629
                        -----------------------------------------
Total Dipole Moment    :     -0.51347       0.60201      -0.10172
                        -----------------------------------------
Magnitude (a.u.)       :      0.79776
Magnitude (Debye)      :      2.02774

Rotational constants in cm-1:     0.016959     0.008512     0.007481
Rotational constants in MHz :   508.410142   255.169434   224.262913

                             ****ORCA TERMINATED NORMALLY****
TOTAL RUN TIME: 0 days 0 hours 0 minutes 35 seconds 168 msec
