                         Program Version 4.2.1 -  RELEASE  -
|  1> ! wB97X-D3 SP def2-SVP
|  2> %pal
|  3> nprocs 16
|  4> end
|  5>
|  6> * xyz 0 1
|  7> S 	 -30.7914 	 61.0197 	 112.809
|  8> C 	 -30.7938 	 59.578 	 111.726
|  9> C 	 -31.0463 	 58.4158 	 112.387
| 10> C 	 -31.3477 	 58.6587 	 113.758
| 11> C 	 -31.4076 	 59.9839 	 114.107
| 12> H 	 -31.654 	 58.0332 	 114.596
| 13> C 	 -31.0742 	 56.9947 	 111.843
| 14> H 	 -30.5578 	 57.0957 	 110.905
| 15> H 	 -32.1348 	 56.7293 	 111.584
| 16> C 	 -30.3358 	 55.895 	 112.678
| 17> H 	 -29.263 	 56.0401 	 112.628
| 18> H 	 -30.644 	 55.9807 	 113.747
| 19> C 	 -30.536 	 54.4843 	 112.179
| 20> H 	 -30.3318 	 54.3593 	 111.165
| 21> H 	 -29.8775 	 53.773 	 112.672
| 22> H 	 -31.5688 	 54.138 	 112.274
| 23> S 	 -30.6643 	 61.2128 	 116.533
| 24> C 	 -31.8877 	 61.6303 	 117.726
| 25> C 	 -33.1105 	 61.2779 	 117.24
| 26> C 	 -33.1415 	 60.6669 	 115.941
| 27> C 	 -31.8892 	 60.5762 	 115.413
| 28> H 	 -33.9683 	 61.4317 	 117.862
| 29> C 	 -34.5306 	 60.2943 	 115.261
| 30> H 	 -34.8886 	 59.4681 	 115.803
| 31> H 	 -34.3508 	 59.9983 	 114.308
| 32> C 	 -35.5658 	 61.4833 	 115.209
| 33> H 	 -35.148 	 62.2419 	 114.49
| 34> H 	 -35.5742 	 61.976 	 116.159
| 35> C 	 -36.8952 	 61.1699 	 114.567
| 36> H 	 -36.6657 	 60.6516 	 113.646
| 37> H 	 -37.5147 	 62.0589 	 114.378
| 38> H 	 -37.3954 	 60.3846 	 115.122
| 39> H 	 -30.3153 	 59.5616 	 110.792
| 40> H 	 -31.7334 	 62.1507 	 118.623
| 41> *
| 42>
| 43>                          ****END OF INPUT****

CARTESIAN COORDINATES (ANGSTROEM)
---------------------------------
  S    -30.791400   61.019700  112.809000
  C    -30.793800   59.578000  111.726000
  C    -31.046300   58.415800  112.387000
  C    -31.347700   58.658700  113.758000
  C    -31.407600   59.983900  114.107000
  H    -31.654000   58.033200  114.596000
  C    -31.074200   56.994700  111.843000
  H    -30.557800   57.095700  110.905000
  H    -32.134800   56.729300  111.584000
  C    -30.335800   55.895000  112.678000
  H    -29.263000   56.040100  112.628000
  H    -30.644000   55.980700  113.747000
  C    -30.536000   54.484300  112.179000
  H    -30.331800   54.359300  111.165000
  H    -29.877500   53.773000  112.672000
  H    -31.568800   54.138000  112.274000
  S    -30.664300   61.212800  116.533000
  C    -31.887700   61.630300  117.726000
  C    -33.110500   61.277900  117.240000
  C    -33.141500   60.666900  115.941000
  C    -31.889200   60.576200  115.413000
  H    -33.968300   61.431700  117.862000
  C    -34.530600   60.294300  115.261000
  H    -34.888600   59.468100  115.803000
  H    -34.350800   59.998300  114.308000
  C    -35.565800   61.483300  115.209000
  H    -35.148000   62.241900  114.490000
  H    -35.574200   61.976000  116.159000
  C    -36.895200   61.169900  114.567000
  H    -36.665700   60.651600  113.646000
  H    -37.514700   62.058900  114.378000
  H    -37.395400   60.384600  115.122000
  H    -30.315300   59.561600  110.792000
  H    -31.733400   62.150700  118.623000

 Total Charge           Charge          ....    0
 Multiplicity           Mult            ....    1
 Number of Electrons    NEL             ....  134
 Basis Dimension        Dim             ....  322

ORBITAL ENERGIES
----------------

  NO   OCC          E(Eh)            E(eV)
   0   2.0000     -88.964310     -2420.8419
   1   2.0000     -88.961889     -2420.7761
   2   2.0000     -10.331233      -281.1271
   3   2.0000     -10.329921      -281.0914
   4   2.0000     -10.314367      -280.6682
   5   2.0000     -10.312145      -280.6077
   6   2.0000     -10.306534      -280.4550
   7   2.0000     -10.303012      -280.3592
   8   2.0000     -10.298590      -280.2389
   9   2.0000     -10.292567      -280.0750
  10   2.0000     -10.292129      -280.0631
  11   2.0000     -10.289868      -280.0015
  12   2.0000     -10.288825      -279.9731
  13   2.0000     -10.286996      -279.9234
  14   2.0000     -10.277415      -279.6627
  15   2.0000     -10.273259      -279.5496
  16   2.0000      -8.078079      -219.8157
  17   2.0000      -8.076349      -219.7686
  18   2.0000      -6.036706      -164.2671
  19   2.0000      -6.035003      -164.2208
  20   2.0000      -6.032905      -164.1637
  21   2.0000      -6.030884      -164.1087
  22   2.0000      -6.028587      -164.0462
  23   2.0000      -6.026969      -164.0022
  24   2.0000      -1.000743       -27.2316
  25   2.0000      -0.982017       -26.7220
  26   2.0000      -0.908717       -24.7275
  27   2.0000      -0.904101       -24.6019
  28   2.0000      -0.869061       -23.6484
  29   2.0000      -0.849932       -23.1278
  30   2.0000      -0.844156       -22.9707
  31   2.0000      -0.818152       -22.2631
  32   2.0000      -0.785044       -21.3621
  33   2.0000      -0.777284       -21.1510
  34   2.0000      -0.707737       -19.2585
  35   2.0000      -0.700208       -19.0536
  36   2.0000      -0.695318       -18.9206
  37   2.0000      -0.658731       -17.9250
  38   2.0000      -0.644735       -17.5441
  39   2.0000      -0.614588       -16.7238
  40   2.0000      -0.597833       -16.2679
  41   2.0000      -0.569009       -15.4835
  42   2.0000      -0.563532       -15.3345
  43   2.0000      -0.559926       -15.2364
  44   2.0000      -0.533199       -14.5091
  45   2.0000      -0.527678       -14.3589
  46   2.0000      -0.517054       -14.0698
  47   2.0000      -0.507874       -13.8200
  48   2.0000      -0.506529       -13.7834
  49   2.0000      -0.503417       -13.6987
  50   2.0000      -0.491175       -13.3656
  51   2.0000      -0.474357       -12.9079
  52   2.0000      -0.473368       -12.8810
  53   2.0000      -0.466556       -12.6956
  54   2.0000      -0.459911       -12.5148
  55   2.0000      -0.450268       -12.2524
  56   2.0000      -0.447342       -12.1728
  57   2.0000      -0.432560       -11.7706
  58   2.0000      -0.432157       -11.7596
  59   2.0000      -0.425544       -11.5796
  60   2.0000      -0.420857       -11.4521
  61   2.0000      -0.418563       -11.3897
  62   2.0000      -0.410033       -11.1576
  63   2.0000      -0.334714        -9.1080
  64   2.0000      -0.331248        -9.0137
  65   2.0000      -0.328050        -8.9267
  66   2.0000      -0.312250        -8.4968
  67   0.0000       0.040711         1.1078
  68   0.0000       0.061488         1.6732
  69   0.0000       0.110691         3.0121
  70   0.0000       0.124975         3.4007
  71   0.0000       0.133287         3.6269

MULLIKEN ATOMIC CHARGES
-----------------------
   0 S :    0.095904
   1 C :   -0.099385
   2 C :   -0.080214
   3 C :    0.044348
   4 C :   -0.186945
   5 H :    0.017148
   6 C :    0.076375
   7 H :    0.006778
   8 H :    0.052720
   9 C :   -0.092420
  10 H :    0.034283
  11 H :    0.043402
  12 C :   -0.021250
  13 H :    0.010333
  14 H :    0.032699
  15 H :    0.024792
  16 S :    0.093978
  17 C :   -0.068369
  18 C :   -0.042672
  19 C :   -0.022185
  20 C :   -0.200589
  21 H :    0.013715
  22 C :    0.163548
  23 H :    0.019934
  24 H :   -0.004859
  25 C :   -0.118873
  26 H :    0.037257
  27 H :    0.025595
  28 C :   -0.019069
  29 H :    0.019105
  30 H :    0.053233
  31 H :    0.019567
  32 H :    0.030394
  33 H :    0.041720
Sum of atomic charges:   -0.0000000

LOEWDIN ATOMIC CHARGES
----------------------
   0 S :    0.369641
   1 C :   -0.174411
   2 C :   -0.062157
   3 C :   -0.065299
   4 C :   -0.181778
   5 H :    0.036303
   6 C :   -0.030459
   7 H :    0.025838
   8 H :    0.040000
   9 C :   -0.039378
  10 H :    0.028153
  11 H :    0.027457
  12 C :   -0.062729
  13 H :    0.016351
  14 H :    0.029624
  15 H :    0.024634
  16 S :    0.383269
  17 C :   -0.169905
  18 C :   -0.071862
  19 C :   -0.050600
  20 C :   -0.194625
  21 H :    0.026079
  22 C :   -0.005019
  23 H :    0.024225
  24 H :    0.013832
  25 C :   -0.041785
  26 H :    0.033728
  27 H :    0.014180
  28 C :   -0.065267
  29 H :    0.026321
  30 H :    0.033973
  31 H :    0.020589
  32 H :    0.017697
  33 H :    0.023379

  Mayer bond orders larger than 0.100000
B(  0-S ,  1-C ) :   1.1164 B(  0-S ,  4-C ) :   1.1370 B(  1-C ,  2-C ) :   1.6703
B(  1-C , 32-H ) :   0.9630 B(  2-C ,  3-C ) :   1.1785 B(  2-C ,  6-C ) :   1.0139
B(  3-C ,  4-C ) :   1.6518 B(  3-C ,  5-H ) :   0.9881 B(  4-C , 20-C ) :   0.9779
B(  6-C ,  7-H ) :   0.9326 B(  6-C ,  8-H ) :   0.9425 B(  6-C ,  9-C ) :   1.0557
B(  9-C , 10-H ) :   0.9553 B(  9-C , 11-H ) :   0.9565 B(  9-C , 12-C ) :   1.0930
B( 12-C , 13-H ) :   0.9705 B( 12-C , 14-H ) :   0.9724 B( 12-C , 15-H ) :   0.9738
B( 16-S , 17-C ) :   1.1352 B( 16-S , 20-C ) :   1.1397 B( 17-C , 18-C ) :   1.6413
B( 17-C , 33-H ) :   0.9746 B( 18-C , 19-C ) :   1.2131 B( 18-C , 21-H ) :   0.9874
B( 19-C , 20-C ) :   1.6579 B( 19-C , 22-C ) :   1.0196 B( 22-C , 23-H ) :   0.9342
B( 22-C , 24-H ) :   0.9300 B( 22-C , 25-C ) :   1.0581 B( 25-C , 26-H ) :   0.9560
B( 25-C , 27-H ) :   0.9615 B( 25-C , 28-C ) :   1.0818 B( 28-C , 29-H ) :   0.9687
B( 28-C , 30-H ) :   0.9737 B( 28-C , 31-H ) :   0.9734

Dispersion correction           -0.013380819
FINAL SINGLE POINT ENERGY     -1339.869072383164

DIPOLE MOMENT
-------------
                                X             Y             Z
Electronic contribution:     15.96352      18.01419       7.23133
Nuclear contribution   :    -16.37356     -18.52525      -7.27190
                        -----------------------------------------
Total Dipole Moment    :     -0.41004      -0.51107      -0.04057
                        -----------------------------------------
Magnitude (a.u.)       :      0.65648
Magnitude (Debye)      :      1.66864

Rotational constants in cm-1:     0.016918     0.007485     0.006570
Rotational constants in MHz :   507.203082   224.392596   196.959803

                             ****ORCA TERMINATED NORMALLY****
TOTAL RUN TIME: 0 days 0 hours 0 minutes 28 seconds 448 msec
