                         Program Version 4.2.1 -  RELEASE  -
|  1> ! wB97X-D3 SP def2-SVP
|  2> %pal
|  3> nprocs 16
|  4> end
|  5>
|  6> * xyz 0 1
|  7> S 	 12.937 	 14.3698 	 84.4237
|  8> C 	 14.3709 	 15.0018 	 83.6847
|  9> C 	 14.6975 	 14.3368 	 82.538
| 10> C 	 14.0129 	 13.0965 	 82.3861
| 11> C 	 12.9697 	 13.0149 	 83.2826
| 12> H 	 14.1224 	 12.252 	 81.7014
| 13> C 	 15.9978 	 14.6028 	 81.7883
| 14> H 	 16.6562 	 13.7222 	 81.7794
| 15> H 	 16.5309 	 15.4357 	 82.2802
| 16> C 	 15.8058 	 15.1896 	 80.418
| 17> H 	 15.3254 	 16.1665 	 80.4291
| 18> H 	 16.8258 	 15.3983 	 80.0667
| 19> C 	 15.1228 	 14.2125 	 79.4267
| 20> H 	 15.1934 	 14.5493 	 78.4088
| 21> H 	 15.5255 	 13.2414 	 79.4428
| 22> H 	 14.034 	 13.9872 	 79.6306
| 23> S 	 10.2706 	 12.6114 	 83.1209
| 24> C 	 9.55416 	 10.9919 	 83.2246
| 25> C 	 10.5973 	 10.0298 	 83.1829
| 26> C 	 11.9511 	 10.5955 	 83.183
| 27> C 	 11.9503 	 12.0031 	 83.2675
| 28> H 	 10.5597 	 8.90814 	 83.1762
| 29> C 	 13.1847 	 9.78305 	 83.215
| 30> H 	 13.1303 	 9.0847 	 84.103
| 31> H 	 14.0875 	 10.3833 	 83.3632
| 32> C 	 13.3843 	 8.70829 	 82.1358
| 33> H 	 12.7867 	 7.79023 	 82.1827
| 34> H 	 14.313 	 8.11207 	 82.2321
| 35> C 	 13.4174 	 9.38287 	 80.7394
| 36> H 	 14.0897 	 10.2031 	 80.8667
| 37> H 	 12.4892 	 9.84013 	 80.4724
| 38> H 	 13.8879 	 8.78081 	 79.9297
| 39> H 	 14.9523 	 15.8924 	 83.9513
| 40> H 	 8.49452 	 10.7537 	 83.2632
| 41> *
| 42>
| 43>                          ****END OF INPUT****

CARTESIAN COORDINATES (ANGSTROEM)
---------------------------------
  S     12.937000   14.369800   84.423700
  C     14.370900   15.001800   83.684700
  C     14.697500   14.336800   82.538000
  C     14.012900   13.096500   82.386100
  C     12.969700   13.014900   83.282600
  H     14.122400   12.252000   81.701400
  C     15.997800   14.602800   81.788300
  H     16.656200   13.722200   81.779400
  H     16.530900   15.435700   82.280200
  C     15.805800   15.189600   80.418000
  H     15.325400   16.166500   80.429100
  H     16.825800   15.398300   80.066700
  C     15.122800   14.212500   79.426700
  H     15.193400   14.549300   78.408800
  H     15.525500   13.241400   79.442800
  H     14.034000   13.987200   79.630600
  S     10.270600   12.611400   83.120900
  C      9.554160   10.991900   83.224600
  C     10.597300   10.029800   83.182900
  C     11.951100   10.595500   83.183000
  C     11.950300   12.003100   83.267500
  H     10.559700    8.908140   83.176200
  C     13.184700    9.783050   83.215000
  H     13.130300    9.084700   84.103000
  H     14.087500   10.383300   83.363200
  C     13.384300    8.708290   82.135800
  H     12.786700    7.790230   82.182700
  H     14.313000    8.112070   82.232100
  C     13.417400    9.382870   80.739400
  H     14.089700   10.203100   80.866700
  H     12.489200    9.840130   80.472400
  H     13.887900    8.780810   79.929700
  H     14.952300   15.892400   83.951300
  H      8.494520   10.753700   83.263200

 Total Charge           Charge          ....    0
 Multiplicity           Mult            ....    1
 Number of Electrons    NEL             ....  134
 Basis Dimension        Dim             ....  322

ORBITAL ENERGIES
----------------

  NO   OCC          E(Eh)            E(eV)
   0   2.0000     -88.970622     -2421.0137
   1   2.0000     -88.964562     -2420.8488
   2   2.0000     -10.330317      -281.1022
   3   2.0000     -10.329001      -281.0664
   4   2.0000     -10.327460      -281.0245
   5   2.0000     -10.314778      -280.6794
   6   2.0000     -10.308072      -280.4969
   7   2.0000     -10.306695      -280.4594
   8   2.0000     -10.298882      -280.2468
   9   2.0000     -10.297313      -280.2041
  10   2.0000     -10.296895      -280.1928
  11   2.0000     -10.292627      -280.0766
  12   2.0000     -10.291576      -280.0480
  13   2.0000     -10.285715      -279.8885
  14   2.0000     -10.274837      -279.5925
  15   2.0000     -10.272795      -279.5370
  16   2.0000      -8.085180      -220.0089
  17   2.0000      -8.078231      -219.8198
  18   2.0000      -6.043653      -164.4562
  19   2.0000      -6.039790      -164.3511
  20   2.0000      -6.036995      -164.2750
  21   2.0000      -6.035889      -164.2449
  22   2.0000      -6.032834      -164.1617
  23   2.0000      -6.028824      -164.0526
  24   2.0000      -1.007107       -27.4048
  25   2.0000      -0.977169       -26.5901
  26   2.0000      -0.914297       -24.8793
  27   2.0000      -0.910622       -24.7793
  28   2.0000      -0.870708       -23.6932
  29   2.0000      -0.849316       -23.1111
  30   2.0000      -0.842664       -22.9300
  31   2.0000      -0.812135       -22.0993
  32   2.0000      -0.783031       -21.3074
  33   2.0000      -0.773035       -21.0353
  34   2.0000      -0.713382       -19.4121
  35   2.0000      -0.699977       -19.0473
  36   2.0000      -0.697818       -18.9886
  37   2.0000      -0.659641       -17.9498
  38   2.0000      -0.643568       -17.5124
  39   2.0000      -0.612531       -16.6678
  40   2.0000      -0.594831       -16.1862
  41   2.0000      -0.570577       -15.5262
  42   2.0000      -0.553781       -15.0692
  43   2.0000      -0.545106       -14.8331
  44   2.0000      -0.539887       -14.6911
  45   2.0000      -0.537434       -14.6243
  46   2.0000      -0.517755       -14.0888
  47   2.0000      -0.512336       -13.9414
  48   2.0000      -0.501749       -13.6533
  49   2.0000      -0.499704       -13.5976
  50   2.0000      -0.491051       -13.3622
  51   2.0000      -0.483471       -13.1559
  52   2.0000      -0.468941       -12.7605
  53   2.0000      -0.466080       -12.6827
  54   2.0000      -0.461555       -12.5596
  55   2.0000      -0.451223       -12.2784
  56   2.0000      -0.446282       -12.1440
  57   2.0000      -0.439043       -11.9470
  58   2.0000      -0.426664       -11.6101
  59   2.0000      -0.421145       -11.4599
  60   2.0000      -0.418454       -11.3867
  61   2.0000      -0.410596       -11.1729
  62   2.0000      -0.408784       -11.1236
  63   2.0000      -0.348315        -9.4781
  64   2.0000      -0.333741        -9.0815
  65   2.0000      -0.323688        -8.8080
  66   2.0000      -0.290030        -7.8921
  67   0.0000       0.027044         0.7359
  68   0.0000       0.063999         1.7415
  69   0.0000       0.105681         2.8757
  70   0.0000       0.111558         3.0356
  71   0.0000       0.120022         3.2660

MULLIKEN ATOMIC CHARGES
-----------------------
   0 S :    0.130942
   1 C :   -0.107851
   2 C :   -0.051916
   3 C :    0.039731
   4 C :   -0.167113
   5 H :    0.000626
   6 C :    0.021963
   7 H :    0.042498
   8 H :    0.014993
   9 C :   -0.057286
  10 H :    0.031665
  11 H :    0.024072
  12 C :   -0.056841
  13 H :    0.030980
  14 H :    0.008593
  15 H :    0.046310
  16 S :    0.091163
  17 C :   -0.093065
  18 C :   -0.026834
  19 C :   -0.030145
  20 C :   -0.162072
  21 H :    0.033828
  22 C :    0.026196
  23 H :    0.040318
  24 H :    0.038220
  25 C :   -0.093568
  26 H :    0.022770
  27 H :    0.020837
  28 C :   -0.035498
  29 H :    0.008527
  30 H :    0.045587
  31 H :    0.037628
  32 H :    0.053451
  33 H :    0.071290
Sum of atomic charges:    0.0000000

LOEWDIN ATOMIC CHARGES
----------------------
   0 S :    0.408699
   1 C :   -0.197839
   2 C :   -0.067188
   3 C :   -0.053121
   4 C :   -0.192666
   5 H :    0.033134
   6 C :   -0.032164
   7 H :    0.032713
   8 H :    0.030863
   9 C :   -0.039543
  10 H :    0.025723
  11 H :    0.025176
  12 C :   -0.073346
  13 H :    0.023898
  14 H :    0.014557
  15 H :    0.033405
  16 S :    0.379989
  17 C :   -0.183974
  18 C :   -0.070630
  19 C :   -0.062732
  20 C :   -0.184446
  21 H :    0.037861
  22 C :   -0.041255
  23 H :    0.044714
  24 H :    0.034526
  25 C :   -0.052654
  26 H :    0.021362
  27 H :    0.030590
  28 C :   -0.067305
  29 H :    0.016648
  30 H :    0.024314
  31 H :    0.030549
  32 H :    0.035419
  33 H :    0.034726

  Mayer bond orders larger than 0.100000
B(  0-S ,  1-C ) :   1.1311 B(  0-S ,  4-C ) :   1.1372 B(  1-C ,  2-C ) :   1.6455
B(  1-C , 32-H ) :   0.9586 B(  2-C ,  3-C ) :   1.2000 B(  2-C ,  6-C ) :   1.0204
B(  3-C ,  4-C ) :   1.5845 B(  3-C ,  5-H ) :   0.9912 B(  4-C , 20-C ) :   1.0587
B(  6-C ,  7-H ) :   0.9508 B(  6-C ,  8-H ) :   0.9419 B(  6-C ,  9-C ) :   1.0808
B(  9-C , 10-H ) :   0.9534 B(  9-C , 11-H ) :   0.9534 B(  9-C , 12-C ) :   1.0775
B( 12-C , 13-H ) :   0.9744 B( 12-C , 14-H ) :   0.9724 B( 12-C , 15-H ) :   0.9702
B( 16-S , 17-C ) :   1.1406 B( 16-S , 20-C ) :   1.1302 B( 17-C , 18-C ) :   1.5898
B( 17-C , 20-C ) :   0.1021 B( 17-C , 33-H ) :   0.9717 B( 18-C , 19-C ) :   1.2406
B( 18-C , 21-H ) :   0.9750 B( 19-C , 20-C ) :   1.5785 B( 19-C , 22-C ) :   1.0640
B( 22-C , 23-H ) :   0.9252 B( 22-C , 24-H ) :   0.9423 B( 22-C , 25-C ) :   1.0678
B( 25-C , 26-H ) :   0.9532 B( 25-C , 27-H ) :   0.9500 B( 25-C , 28-C ) :   1.0617
B( 28-C , 29-H ) :   0.9695 B( 28-C , 30-H ) :   0.9769 B( 28-C , 31-H ) :   0.9698

Dispersion correction           -0.015327886
FINAL SINGLE POINT ENERGY     -1339.864530944230

DIPOLE MOMENT
-------------
                                X             Y             Z
Electronic contribution:    -18.02706       9.84227      18.66938
Nuclear contribution   :     18.58996     -10.19493     -18.94064
                        -----------------------------------------
Total Dipole Moment    :      0.56291      -0.35265      -0.27126
                        -----------------------------------------
Magnitude (a.u.)       :      0.71750
Magnitude (Debye)      :      1.82375

Rotational constants in cm-1:     0.017973     0.009783     0.007539
Rotational constants in MHz :   538.825209   293.272206   226.027293

                             ****ORCA TERMINATED NORMALLY****
TOTAL RUN TIME: 0 days 0 hours 0 minutes 34 seconds 576 msec
