                         Program Version 4.2.1 -  RELEASE  -
|  1> ! wB97X-D3 SP def2-SVP
|  2> %pal
|  3> nprocs 16
|  4> end
|  5>
|  6> * xyz 0 1
|  7> S 	 -53.2357 	 46.313 	 109.156
|  8> C 	 -52.6506 	 47.8761 	 109.856
|  9> C 	 -53.7049 	 48.8047 	 109.661
| 10> C 	 -54.962 	 48.1715 	 109.19
| 11> C 	 -54.8597 	 46.8248 	 108.858
| 12> H 	 -55.9393 	 48.5695 	 109.087
| 13> C 	 -53.7045 	 50.2603 	 110.05
| 14> H 	 -52.7511 	 50.6228 	 109.69
| 15> H 	 -53.6299 	 50.3356 	 111.116
| 16> C 	 -54.8395 	 51.0614 	 109.49
| 17> H 	 -55.044 	 50.7824 	 108.496
| 18> H 	 -55.8824 	 50.9063 	 109.926
| 19> C 	 -54.4825 	 52.5585 	 109.477
| 20> H 	 -54.2155 	 53.1168 	 110.453
| 21> H 	 -53.5729 	 52.7178 	 108.839
| 22> H 	 -55.3451 	 53.0909 	 108.969
| 23> S 	 -56.1532 	 45.5283 	 106.87
| 24> C 	 -57.6964 	 44.7956 	 107.219
| 25> C 	 -57.9095 	 44.7796 	 108.602
| 26> C 	 -56.92 	 45.4676 	 109.337
| 27> C 	 -55.9422 	 45.9121 	 108.511
| 28> H 	 -58.7248 	 44.2608 	 108.989
| 29> C 	 -57.0139 	 45.6487 	 110.865
| 30> H 	 -58.0742 	 45.4684 	 111.178
| 31> H 	 -56.7405 	 46.6285 	 110.969
| 32> C 	 -56.1885 	 44.7049 	 111.723
| 33> H 	 -55.173 	 44.7008 	 111.333
| 34> H 	 -56.6235 	 43.6896 	 111.672
| 35> C 	 -56.2205 	 45.0632 	 113.188
| 36> H 	 -57.3332 	 45.018 	 113.429
| 37> H 	 -55.8706 	 45.9861 	 113.442
| 38> H 	 -55.6414 	 44.222 	 113.775
| 39> H 	 -51.6759 	 47.9944 	 110.34
| 40> H 	 -58.4304 	 44.4121 	 106.533
| 41> *
| 42>
| 43>                          ****END OF INPUT****

CARTESIAN COORDINATES (ANGSTROEM)
---------------------------------
  S    -53.235700   46.313000  109.156000
  C    -52.650600   47.876100  109.856000
  C    -53.704900   48.804700  109.661000
  C    -54.962000   48.171500  109.190000
  C    -54.859700   46.824800  108.858000
  H    -55.939300   48.569500  109.087000
  C    -53.704500   50.260300  110.050000
  H    -52.751100   50.622800  109.690000
  H    -53.629900   50.335600  111.116000
  C    -54.839500   51.061400  109.490000
  H    -55.044000   50.782400  108.496000
  H    -55.882400   50.906300  109.926000
  C    -54.482500   52.558500  109.477000
  H    -54.215500   53.116800  110.453000
  H    -53.572900   52.717800  108.839000
  H    -55.345100   53.090900  108.969000
  S    -56.153200   45.528300  106.870000
  C    -57.696400   44.795600  107.219000
  C    -57.909500   44.779600  108.602000
  C    -56.920000   45.467600  109.337000
  C    -55.942200   45.912100  108.511000
  H    -58.724800   44.260800  108.989000
  C    -57.013900   45.648700  110.865000
  H    -58.074200   45.468400  111.178000
  H    -56.740500   46.628500  110.969000
  C    -56.188500   44.704900  111.723000
  H    -55.173000   44.700800  111.333000
  H    -56.623500   43.689600  111.672000
  C    -56.220500   45.063200  113.188000
  H    -57.333200   45.018000  113.429000
  H    -55.870600   45.986100  113.442000
  H    -55.641400   44.222000  113.775000
  H    -51.675900   47.994400  110.340000
  H    -58.430400   44.412100  106.533000

 Total Charge           Charge          ....    0
 Multiplicity           Mult            ....    1
 Number of Electrons    NEL             ....  134
 Basis Dimension        Dim             ....  322

ORBITAL ENERGIES
----------------

  NO   OCC          E(Eh)            E(eV)
   0   2.0000     -88.968725     -2420.9621
   1   2.0000     -88.961734     -2420.7718
   2   2.0000     -10.327460      -281.0245
   3   2.0000     -10.325644      -280.9751
   4   2.0000     -10.318838      -280.7898
   5   2.0000     -10.316584      -280.7285
   6   2.0000     -10.313653      -280.6488
   7   2.0000     -10.298333      -280.2319
   8   2.0000     -10.295532      -280.1557
   9   2.0000     -10.292751      -280.0800
  10   2.0000     -10.289421      -279.9894
  11   2.0000     -10.288605      -279.9672
  12   2.0000     -10.287920      -279.9485
  13   2.0000     -10.286305      -279.9046
  14   2.0000     -10.279612      -279.7225
  15   2.0000     -10.279397      -279.7166
  16   2.0000      -8.084361      -219.9867
  17   2.0000      -8.075732      -219.7518
  18   2.0000      -6.042721      -164.4308
  19   2.0000      -6.038717      -164.3218
  20   2.0000      -6.035252      -164.2276
  21   2.0000      -6.034306      -164.2018
  22   2.0000      -6.030104      -164.0875
  23   2.0000      -6.026673      -163.9941
  24   2.0000      -1.012587       -27.5539
  25   2.0000      -0.979332       -26.6490
  26   2.0000      -0.917769       -24.9738
  27   2.0000      -0.912264       -24.8240
  28   2.0000      -0.869253       -23.6536
  29   2.0000      -0.856028       -23.2937
  30   2.0000      -0.837863       -22.7994
  31   2.0000      -0.814270       -22.1574
  32   2.0000      -0.780737       -21.2449
  33   2.0000      -0.769669       -20.9438
  34   2.0000      -0.711940       -19.3729
  35   2.0000      -0.693764       -18.8783
  36   2.0000      -0.689288       -18.7565
  37   2.0000      -0.668776       -18.1983
  38   2.0000      -0.647552       -17.6208
  39   2.0000      -0.612022       -16.6540
  40   2.0000      -0.593278       -16.1439
  41   2.0000      -0.576903       -15.6983
  42   2.0000      -0.568629       -15.4732
  43   2.0000      -0.564601       -15.3636
  44   2.0000      -0.535919       -14.5831
  45   2.0000      -0.525971       -14.3124
  46   2.0000      -0.521253       -14.1840
  47   2.0000      -0.510456       -13.8902
  48   2.0000      -0.504599       -13.7308
  49   2.0000      -0.496472       -13.5097
  50   2.0000      -0.491911       -13.3856
  51   2.0000      -0.476500       -12.9662
  52   2.0000      -0.474764       -12.9190
  53   2.0000      -0.467928       -12.7330
  54   2.0000      -0.452969       -12.3259
  55   2.0000      -0.447813       -12.1856
  56   2.0000      -0.443012       -12.0550
  57   2.0000      -0.440020       -11.9735
  58   2.0000      -0.432381       -11.7657
  59   2.0000      -0.420738       -11.4489
  60   2.0000      -0.417601       -11.3635
  61   2.0000      -0.415894       -11.3170
  62   2.0000      -0.404703       -11.0125
  63   2.0000      -0.337662        -9.1882
  64   2.0000      -0.326739        -8.8910
  65   2.0000      -0.322945        -8.7878
  66   2.0000      -0.306927        -8.3519
  67   0.0000       0.045763         1.2453
  68   0.0000       0.051130         1.3913
  69   0.0000       0.114892         3.1264
  70   0.0000       0.123960         3.3731
  71   0.0000       0.128109         3.4860

MULLIKEN ATOMIC CHARGES
-----------------------
   0 S :    0.090205
   1 C :   -0.145934
   2 C :   -0.101345
   3 C :    0.042975
   4 C :   -0.165677
   5 H :    0.001781
   6 C :    0.107303
   7 H :    0.019533
   8 H :    0.038319
   9 C :   -0.080034
  10 H :    0.021038
  11 H :    0.041726
  12 C :   -0.099214
  13 H :    0.049894
  14 H :    0.037406
  15 H :    0.043292
  16 S :    0.137811
  17 C :   -0.096135
  18 C :   -0.028746
  19 C :   -0.021859
  20 C :   -0.191449
  21 H :   -0.008116
  22 C :    0.138370
  23 H :    0.015292
  24 H :   -0.004736
  25 C :   -0.066359
  26 H :    0.027552
  27 H :    0.027070
  28 C :   -0.043899
  29 H :    0.025009
  30 H :    0.017951
  31 H :    0.052127
  32 H :    0.066609
  33 H :    0.052239
Sum of atomic charges:   -0.0000000

LOEWDIN ATOMIC CHARGES
----------------------
   0 S :    0.390895
   1 C :   -0.193302
   2 C :   -0.051746
   3 C :   -0.069045
   4 C :   -0.202752
   5 H :    0.025299
   6 C :   -0.035069
   7 H :    0.033784
   8 H :    0.034744
   9 C :   -0.049808
  10 H :    0.021385
  11 H :    0.033046
  12 C :   -0.078141
  13 H :    0.032437
  14 H :    0.026745
  15 H :    0.031958
  16 S :    0.442466
  17 C :   -0.189436
  18 C :   -0.061490
  19 C :   -0.049558
  20 C :   -0.226048
  21 H :    0.019562
  22 C :   -0.019470
  23 H :    0.032335
  24 H :    0.016740
  25 C :   -0.042439
  26 H :    0.018566
  27 H :    0.027418
  28 C :   -0.060927
  29 H :    0.029558
  30 H :    0.005970
  31 H :    0.041155
  32 H :    0.036245
  33 H :    0.028924

  Mayer bond orders larger than 0.100000
B(  0-S ,  1-C ) :   1.1288 B(  0-S ,  4-C ) :   1.1593 B(  1-C ,  2-C ) :   1.5939
B(  1-C ,  4-C ) :   0.1009 B(  1-C , 32-H ) :   0.9799 B(  2-C ,  3-C ) :   1.2132
B(  2-C ,  6-C ) :   1.0137 B(  3-C ,  4-C ) :   1.5936 B(  3-C ,  5-H ) :   0.9938
B(  4-C , 20-C ) :   0.9764 B(  6-C ,  7-H ) :   0.9377 B(  6-C ,  8-H ) :   0.9267
B(  6-C ,  9-C ) :   1.0876 B(  9-C , 10-H ) :   0.9502 B(  9-C , 11-H ) :   0.9415
B(  9-C , 12-C ) :   1.0765 B( 12-C , 13-H ) :   0.9754 B( 12-C , 14-H ) :   0.9745
B( 12-C , 15-H ) :   0.9729 B( 16-S , 17-C ) :   1.1645 B( 16-S , 20-C ) :   1.1668
B( 17-C , 18-C ) :   1.5914 B( 17-C , 33-H ) :   0.9704 B( 18-C , 19-C ) :   1.2612
B( 18-C , 21-H ) :   0.9986 B( 19-C , 20-C ) :   1.6022 B( 19-C , 22-C ) :   1.0243
B( 22-C , 23-H ) :   0.9299 B( 22-C , 24-H ) :   0.9150 B( 22-C , 25-C ) :   1.0830
B( 25-C , 26-H ) :   0.9502 B( 25-C , 27-H ) :   0.9533 B( 25-C , 28-C ) :   1.0823
B( 28-C , 29-H ) :   0.9711 B( 28-C , 30-H ) :   0.9785 B( 28-C , 31-H ) :   0.9728

Dispersion correction           -0.014276095
FINAL SINGLE POINT ENERGY     -1339.856596488946

DIPOLE MOMENT
-------------
                                X             Y             Z
Electronic contribution:      4.57938     -15.53748     -18.67300
Nuclear contribution   :     -4.89307      15.92413      19.05325
                        -----------------------------------------
Total Dipole Moment    :     -0.31370       0.38665       0.38025
                        -----------------------------------------
Magnitude (a.u.)       :      0.62649
Magnitude (Debye)      :      1.59241

Rotational constants in cm-1:     0.016974     0.008524     0.007470
Rotational constants in MHz :   508.856693   255.535511   223.934245

                             ****ORCA TERMINATED NORMALLY****
TOTAL RUN TIME: 0 days 0 hours 0 minutes 28 seconds 408 msec
