                         Program Version 4.2.1 -  RELEASE  -
|  1> ! wB97X-D3 SP def2-SVP
|  2> %pal
|  3> nprocs 16
|  4> end
|  5>
|  6> * xyz 0 1
|  7> S 	 -95.5504 	 43.046 	 113.516
|  8> C 	 -94.5325 	 44.0992 	 114.449
|  9> C 	 -95.2893 	 45.0046 	 115.194
| 10> C 	 -96.7142 	 44.8646 	 114.87
| 11> C 	 -96.9682 	 43.8232 	 114.022
| 12> H 	 -97.5742 	 45.4286 	 115.274
| 13> C 	 -94.77 	 45.8572 	 116.314
| 14> H 	 -95.5758 	 46.3598 	 116.878
| 15> H 	 -94.0726 	 46.6585 	 115.953
| 16> C 	 -93.9859 	 45.1193 	 117.389
| 17> H 	 -93.0071 	 44.9793 	 116.963
| 18> H 	 -93.9069 	 45.7408 	 118.213
| 19> C 	 -94.5535 	 43.7617 	 117.786
| 20> H 	 -94.4082 	 43.0349 	 117.013
| 21> H 	 -93.9832 	 43.3629 	 118.678
| 22> H 	 -95.5566 	 43.8327 	 118.143
| 23> S 	 -98.3942 	 43.7854 	 111.798
| 24> C 	 -99.9448 	 43.0457 	 111.747
| 25> C 	 -100.317 	 42.5034 	 112.973
| 26> C 	 -99.276 	 42.6582 	 113.952
| 27> C 	 -98.2509 	 43.4203 	 113.478
| 28> H 	 -101.236 	 41.8973 	 113.137
| 29> C 	 -99.4637 	 42.0796 	 115.356
| 30> H 	 -98.7479 	 41.2862 	 115.615
| 31> H 	 -100.512 	 41.712 	 115.332
| 32> C 	 -99.4925 	 43.1317 	 116.508
| 33> H 	 -100.304 	 43.7797 	 116.34
| 34> H 	 -98.4965 	 43.7296 	 116.589
| 35> C 	 -99.9525 	 42.5709 	 117.862
| 36> H 	 -101.063 	 42.2765 	 117.848
| 37> H 	 -99.7507 	 43.2407 	 118.668
| 38> H 	 -99.3929 	 41.7334 	 118.192
| 39> H 	 -93.4594 	 43.8625 	 114.57
| 40> H 	 -100.494 	 43.0113 	 110.807
| 41> *
| 42>
| 43>                          ****END OF INPUT****

CARTESIAN COORDINATES (ANGSTROEM)
---------------------------------
  S    -95.550400   43.046000  113.516000
  C    -94.532500   44.099200  114.449000
  C    -95.289300   45.004600  115.194000
  C    -96.714200   44.864600  114.870000
  C    -96.968200   43.823200  114.022000
  H    -97.574200   45.428600  115.274000
  C    -94.770000   45.857200  116.314000
  H    -95.575800   46.359800  116.878000
  H    -94.072600   46.658500  115.953000
  C    -93.985900   45.119300  117.389000
  H    -93.007100   44.979300  116.963000
  H    -93.906900   45.740800  118.213000
  C    -94.553500   43.761700  117.786000
  H    -94.408200   43.034900  117.013000
  H    -93.983200   43.362900  118.678000
  H    -95.556600   43.832700  118.143000
  S    -98.394200   43.785400  111.798000
  C    -99.944800   43.045700  111.747000
  C    -100.317000   42.503400  112.973000
  C    -99.276000   42.658200  113.952000
  C    -98.250900   43.420300  113.478000
  H    -101.236000   41.897300  113.137000
  C    -99.463700   42.079600  115.356000
  H    -98.747900   41.286200  115.615000
  H    -100.512000   41.712000  115.332000
  C    -99.492500   43.131700  116.508000
  H    -100.304000   43.779700  116.340000
  H    -98.496500   43.729600  116.589000
  C    -99.952500   42.570900  117.862000
  H    -101.063000   42.276500  117.848000
  H    -99.750700   43.240700  118.668000
  H    -99.392900   41.733400  118.192000
  H    -93.459400   43.862500  114.570000
  H    -100.494000   43.011300  110.807000

 Total Charge           Charge          ....    0
 Multiplicity           Mult            ....    1
 Number of Electrons    NEL             ....  134
 Basis Dimension        Dim             ....  322

ORBITAL ENERGIES
----------------

  NO   OCC          E(Eh)            E(eV)
   0   2.0000     -88.963827     -2420.8288
   1   2.0000     -88.963299     -2420.8144
   2   2.0000     -10.319965      -280.8205
   3   2.0000     -10.317582      -280.7557
   4   2.0000     -10.316193      -280.7179
   5   2.0000     -10.315439      -280.6974
   6   2.0000     -10.306762      -280.4612
   7   2.0000     -10.301786      -280.3259
   8   2.0000     -10.297672      -280.2139
   9   2.0000     -10.297060      -280.1972
  10   2.0000     -10.295349      -280.1507
  11   2.0000     -10.292261      -280.0667
  12   2.0000     -10.287547      -279.9384
  13   2.0000     -10.276596      -279.6404
  14   2.0000     -10.276225      -279.6303
  15   2.0000     -10.272421      -279.5268
  16   2.0000      -8.079944      -219.8664
  17   2.0000      -8.079462      -219.8533
  18   2.0000      -6.038322      -164.3111
  19   2.0000      -6.037762      -164.2959
  20   2.0000      -6.034119      -164.1967
  21   2.0000      -6.033776      -164.1874
  22   2.0000      -6.030885      -164.1087
  23   2.0000      -6.030331      -164.0937
  24   2.0000      -1.015174       -27.6243
  25   2.0000      -0.988480       -26.8979
  26   2.0000      -0.917580       -24.9686
  27   2.0000      -0.904928       -24.6243
  28   2.0000      -0.868172       -23.6242
  29   2.0000      -0.852948       -23.2099
  30   2.0000      -0.845200       -22.9991
  31   2.0000      -0.810281       -22.0489
  32   2.0000      -0.784374       -21.3439
  33   2.0000      -0.774364       -21.0715
  34   2.0000      -0.702344       -19.1118
  35   2.0000      -0.699749       -19.0411
  36   2.0000      -0.685171       -18.6445
  37   2.0000      -0.666510       -18.1367
  38   2.0000      -0.643651       -17.5146
  39   2.0000      -0.605770       -16.4838
  40   2.0000      -0.594458       -16.1760
  41   2.0000      -0.581419       -15.8212
  42   2.0000      -0.566193       -15.4069
  43   2.0000      -0.551066       -14.9953
  44   2.0000      -0.540328       -14.7031
  45   2.0000      -0.518910       -14.1203
  46   2.0000      -0.513958       -13.9855
  47   2.0000      -0.508835       -13.8461
  48   2.0000      -0.506025       -13.7696
  49   2.0000      -0.494913       -13.4673
  50   2.0000      -0.491211       -13.3665
  51   2.0000      -0.482857       -13.1392
  52   2.0000      -0.471363       -12.8264
  53   2.0000      -0.466763       -12.7013
  54   2.0000      -0.460105       -12.5201
  55   2.0000      -0.450021       -12.2457
  56   2.0000      -0.444136       -12.0856
  57   2.0000      -0.431459       -11.7406
  58   2.0000      -0.429387       -11.6842
  59   2.0000      -0.424343       -11.5470
  60   2.0000      -0.420867       -11.4524
  61   2.0000      -0.417167       -11.3517
  62   2.0000      -0.410882       -11.1807
  63   2.0000      -0.337836        -9.1930
  64   2.0000      -0.330169        -8.9844
  65   2.0000      -0.322984        -8.7888
  66   2.0000      -0.306667        -8.3448
  67   0.0000       0.047790         1.3004
  68   0.0000       0.058881         1.6022
  69   0.0000       0.116110         3.1595
  70   0.0000       0.119419         3.2496
  71   0.0000       0.128725         3.5028

MULLIKEN ATOMIC CHARGES
-----------------------
   0 S :    0.127883
   1 C :   -0.149120
   2 C :   -0.082538
   3 C :    0.042318
   4 C :   -0.185182
   5 H :    0.030196
   6 C :    0.053708
   7 H :    0.021499
   8 H :    0.046109
   9 C :   -0.069303
  10 H :    0.016987
  11 H :    0.015821
  12 C :   -0.027424
  13 H :    0.032892
  14 H :    0.029111
  15 H :    0.023589
  16 S :    0.121596
  17 C :   -0.098702
  18 C :   -0.045855
  19 C :   -0.015906
  20 C :   -0.198006
  21 H :    0.036079
  22 C :    0.089114
  23 H :    0.047380
  24 H :    0.010553
  25 C :   -0.113652
  26 H :    0.021973
  27 H :    0.057528
  28 C :   -0.043083
  29 H :    0.041501
  30 H :    0.023415
  31 H :    0.011886
  32 H :    0.065439
  33 H :    0.062195
Sum of atomic charges:   -0.0000000

LOEWDIN ATOMIC CHARGES
----------------------
   0 S :    0.436454
   1 C :   -0.209962
   2 C :   -0.059011
   3 C :   -0.065328
   4 C :   -0.222813
   5 H :    0.037376
   6 C :   -0.038893
   7 H :    0.029417
   8 H :    0.040526
   9 C :   -0.036433
  10 H :    0.018700
  11 H :    0.016059
  12 C :   -0.062121
  13 H :    0.022262
  14 H :    0.031733
  15 H :    0.019540
  16 S :    0.436769
  17 C :   -0.193446
  18 C :   -0.078559
  19 C :   -0.056523
  20 C :   -0.212651
  21 H :    0.038321
  22 C :   -0.026925
  23 H :    0.034864
  24 H :    0.032514
  25 C :   -0.048311
  26 H :    0.019031
  27 H :    0.033586
  28 C :   -0.069340
  29 H :    0.033595
  30 H :    0.024483
  31 H :    0.014783
  32 H :    0.031940
  33 H :    0.028366

  Mayer bond orders larger than 0.100000
B(  0-S ,  1-C ) :   1.1432 B(  0-S ,  4-C ) :   1.1809 B(  1-C ,  2-C ) :   1.5928
B(  1-C , 32-H ) :   0.9672 B(  2-C ,  3-C ) :   1.2318 B(  2-C ,  6-C ) :   1.0298
B(  3-C ,  4-C ) :   1.5955 B(  3-C ,  5-H ) :   0.9815 B(  4-C , 20-C ) :   0.9921
B(  6-C ,  7-H ) :   0.9467 B(  6-C ,  8-H ) :   0.9367 B(  6-C ,  9-C ) :   1.0751
B(  9-C , 10-H ) :   0.9504 B(  9-C , 11-H ) :   0.9567 B(  9-C , 12-C ) :   1.0965
B( 12-C , 13-H ) :   0.9670 B( 12-C , 14-H ) :   0.9710 B( 12-C , 15-H ) :   0.9748
B( 16-S , 17-C ) :   1.1766 B( 16-S , 20-C ) :   1.1651 B( 17-C , 18-C ) :   1.5887
B( 17-C , 33-H ) :   0.9684 B( 18-C , 19-C ) :   1.2575 B( 18-C , 21-H ) :   0.9796
B( 19-C , 20-C ) :   1.6156 B( 19-C , 22-C ) :   1.0369 B( 22-C , 23-H ) :   0.9326
B( 22-C , 24-H ) :   0.9328 B( 22-C , 25-C ) :   1.0707 B( 25-C , 26-H ) :   0.9572
B( 25-C , 27-H ) :   0.9457 B( 25-C , 28-C ) :   1.0820 B( 28-C , 29-H ) :   0.9747
B( 28-C , 30-H ) :   0.9706 B( 28-C , 31-H ) :   0.9722

Dispersion correction           -0.015155046
FINAL SINGLE POINT ENERGY     -1339.880023220321

DIPOLE MOMENT
-------------
                                X             Y             Z
Electronic contribution:      0.40055      -0.56056     -29.22088
Nuclear contribution   :     -0.49558       0.54281      29.77418
                        -----------------------------------------
Total Dipole Moment    :     -0.09504      -0.01775       0.55330
                        -----------------------------------------
Magnitude (a.u.)       :      0.56169
Magnitude (Debye)      :      1.42769

Rotational constants in cm-1:     0.018953     0.009947     0.007248
Rotational constants in MHz :   568.196425   298.209597   217.296547

                             ****ORCA TERMINATED NORMALLY****
TOTAL RUN TIME: 0 days 0 hours 0 minutes 33 seconds 429 msec
