                         Program Version 4.2.1 -  RELEASE  -
|  1> ! wB97X-D3 SP def2-SVP
|  2> %pal
|  3> nprocs 16
|  4> end
|  5>
|  6> * xyz 0 1
|  7> S 	 -39.0022 	 49.5629 	 102.188
|  8> C 	 -37.3293 	 49.5257 	 102.416
|  9> C 	 -36.8055 	 50.7391 	 101.963
| 10> C 	 -37.7482 	 51.7501 	 101.698
| 11> C 	 -39.0122 	 51.328 	 101.856
| 12> H 	 -37.5949 	 52.8584 	 101.424
| 13> C 	 -35.2957 	 51.0079 	 101.976
| 14> H 	 -35.0897 	 51.6006 	 102.848
| 15> H 	 -35.1306 	 51.5548 	 101.06
| 16> C 	 -34.2194 	 49.9054 	 102.115
| 17> H 	 -33.1719 	 50.2622 	 102.175
| 18> H 	 -34.3051 	 49.3499 	 103.044
| 19> C 	 -34.2553 	 48.9078 	 100.951
| 20> H 	 -35.2215 	 48.3963 	 100.722
| 21> H 	 -33.8484 	 49.3453 	 99.9955
| 22> H 	 -33.6155 	 48.0536 	 101.195
| 23> S 	 -41.4168 	 51.8558 	 103.203
| 24> C 	 -42.6132 	 52.8812 	 102.387
| 25> C 	 -42.0942 	 53.4047 	 101.255
| 26> C 	 -40.9052 	 52.8159 	 100.797
| 27> C 	 -40.3161 	 52.0081 	 101.787
| 28> H 	 -42.7485 	 54.0585 	 100.733
| 29> C 	 -40.2815 	 53.2345 	 99.4724
| 30> H 	 -40.9041 	 52.7794 	 98.7316
| 31> H 	 -39.3279 	 52.7117 	 99.2763
| 32> C 	 -40.1839 	 54.7436 	 99.2109
| 33> H 	 -39.7871 	 55.2109 	 100.061
| 34> H 	 -41.1852 	 55.0745 	 98.9881
| 35> C 	 -39.3236 	 55.1491 	 97.9824
| 36> H 	 -39.5264 	 56.1569 	 97.9231
| 37> H 	 -39.5076 	 54.6083 	 97.0946
| 38> H 	 -38.3199 	 55.0235 	 98.1788
| 39> H 	 -36.651 	 48.6853 	 102.52
| 40> H 	 -43.5885 	 53.1708 	 102.653
| 41> *
| 42>
| 43>                          ****END OF INPUT****

CARTESIAN COORDINATES (ANGSTROEM)
---------------------------------
  S    -39.002200   49.562900  102.188000
  C    -37.329300   49.525700  102.416000
  C    -36.805500   50.739100  101.963000
  C    -37.748200   51.750100  101.698000
  C    -39.012200   51.328000  101.856000
  H    -37.594900   52.858400  101.424000
  C    -35.295700   51.007900  101.976000
  H    -35.089700   51.600600  102.848000
  H    -35.130600   51.554800  101.060000
  C    -34.219400   49.905400  102.115000
  H    -33.171900   50.262200  102.175000
  H    -34.305100   49.349900  103.044000
  C    -34.255300   48.907800  100.951000
  H    -35.221500   48.396300  100.722000
  H    -33.848400   49.345300   99.995500
  H    -33.615500   48.053600  101.195000
  S    -41.416800   51.855800  103.203000
  C    -42.613200   52.881200  102.387000
  C    -42.094200   53.404700  101.255000
  C    -40.905200   52.815900  100.797000
  C    -40.316100   52.008100  101.787000
  H    -42.748500   54.058500  100.733000
  C    -40.281500   53.234500   99.472400
  H    -40.904100   52.779400   98.731600
  H    -39.327900   52.711700   99.276300
  C    -40.183900   54.743600   99.210900
  H    -39.787100   55.210900  100.061000
  H    -41.185200   55.074500   98.988100
  C    -39.323600   55.149100   97.982400
  H    -39.526400   56.156900   97.923100
  H    -39.507600   54.608300   97.094600
  H    -38.319900   55.023500   98.178800
  H    -36.651000   48.685300  102.520000
  H    -43.588500   53.170800  102.653000

 Total Charge           Charge          ....    0
 Multiplicity           Mult            ....    1
 Number of Electrons    NEL             ....  134
 Basis Dimension        Dim             ....  322

ORBITAL ENERGIES
----------------

  NO   OCC          E(Eh)            E(eV)
   0   2.0000     -88.965746     -2420.8810
   1   2.0000     -88.960063     -2420.7264
   2   2.0000     -10.331975      -281.1473
   3   2.0000     -10.328989      -281.0661
   4   2.0000     -10.312556      -280.6189
   5   2.0000     -10.308347      -280.5044
   6   2.0000     -10.305538      -280.4280
   7   2.0000     -10.299874      -280.2738
   8   2.0000     -10.298415      -280.2341
   9   2.0000     -10.292539      -280.0742
  10   2.0000     -10.288762      -279.9714
  11   2.0000     -10.288328      -279.9596
  12   2.0000     -10.284483      -279.8550
  13   2.0000     -10.284009      -279.8421
  14   2.0000     -10.281632      -279.7774
  15   2.0000     -10.265537      -279.3395
  16   2.0000      -8.079149      -219.8448
  17   2.0000      -8.075378      -219.7422
  18   2.0000      -6.037809      -164.2971
  19   2.0000      -6.033865      -164.1898
  20   2.0000      -6.033803      -164.1881
  21   2.0000      -6.029838      -164.0802
  22   2.0000      -6.029778      -164.0786
  23   2.0000      -6.026123      -163.9791
  24   2.0000      -1.006848       -27.3977
  25   2.0000      -0.985558       -26.8184
  26   2.0000      -0.910233       -24.7687
  27   2.0000      -0.906789       -24.6750
  28   2.0000      -0.869855       -23.6700
  29   2.0000      -0.854348       -23.2480
  30   2.0000      -0.849325       -23.1113
  31   2.0000      -0.819184       -22.2911
  32   2.0000      -0.785352       -21.3705
  33   2.0000      -0.771524       -20.9942
  34   2.0000      -0.709590       -19.3089
  35   2.0000      -0.703220       -19.1356
  36   2.0000      -0.701766       -19.0960
  37   2.0000      -0.654525       -17.8105
  38   2.0000      -0.638975       -17.3874
  39   2.0000      -0.610682       -16.6175
  40   2.0000      -0.595161       -16.1951
  41   2.0000      -0.573392       -15.6028
  42   2.0000      -0.571105       -15.5406
  43   2.0000      -0.556685       -15.1482
  44   2.0000      -0.540045       -14.6954
  45   2.0000      -0.534855       -14.5541
  46   2.0000      -0.515539       -14.0285
  47   2.0000      -0.514486       -13.9999
  48   2.0000      -0.506230       -13.7752
  49   2.0000      -0.494286       -13.4502
  50   2.0000      -0.491794       -13.3824
  51   2.0000      -0.478935       -13.0325
  52   2.0000      -0.476444       -12.9647
  53   2.0000      -0.470782       -12.8106
  54   2.0000      -0.455775       -12.4023
  55   2.0000      -0.447264       -12.1707
  56   2.0000      -0.442335       -12.0366
  57   2.0000      -0.440499       -11.9866
  58   2.0000      -0.432450       -11.7676
  59   2.0000      -0.425037       -11.5658
  60   2.0000      -0.421864       -11.4795
  61   2.0000      -0.418006       -11.3745
  62   2.0000      -0.402513       -10.9529
  63   2.0000      -0.350173        -9.5287
  64   2.0000      -0.331558        -9.0221
  65   2.0000      -0.323423        -8.8008
  66   2.0000      -0.292906        -7.9704
  67   0.0000       0.029291         0.7971
  68   0.0000       0.069951         1.9035
  69   0.0000       0.112840         3.0705
  70   0.0000       0.120593         3.2815
  71   0.0000       0.129972         3.5367

MULLIKEN ATOMIC CHARGES
-----------------------
   0 S :    0.107375
   1 C :   -0.089258
   2 C :   -0.136422
   3 C :    0.019487
   4 C :   -0.163802
   5 H :    0.046781
   6 C :    0.079094
   7 H :    0.042273
   8 H :    0.025387
   9 C :   -0.079783
  10 H :    0.036127
  11 H :    0.024282
  12 C :   -0.098591
  13 H :    0.039494
  14 H :    0.039963
  15 H :    0.027338
  16 S :    0.109276
  17 C :   -0.057144
  18 C :   -0.043508
  19 C :   -0.009507
  20 C :   -0.174191
  21 H :    0.005748
  22 C :    0.082834
  23 H :    0.018137
  24 H :    0.017187
  25 C :   -0.087776
  26 H :    0.026844
  27 H :    0.028472
  28 C :    0.025684
  29 H :    0.019347
  30 H :    0.021872
  31 H :    0.010405
  32 H :    0.054795
  33 H :    0.031782
Sum of atomic charges:   -0.0000000

LOEWDIN ATOMIC CHARGES
----------------------
   0 S :    0.409149
   1 C :   -0.220369
   2 C :   -0.068068
   3 C :   -0.072121
   4 C :   -0.177636
   5 H :    0.052774
   6 C :   -0.033046
   7 H :    0.034559
   8 H :    0.028982
   9 C :   -0.047951
  10 H :    0.035616
  11 H :    0.021278
  12 C :   -0.081372
  13 H :    0.025239
  14 H :    0.029231
  15 H :    0.024338
  16 S :    0.379811
  17 C :   -0.164664
  18 C :   -0.072760
  19 C :   -0.048861
  20 C :   -0.190720
  21 H :    0.026240
  22 C :   -0.035582
  23 H :    0.030662
  24 H :    0.029047
  25 C :   -0.025884
  26 H :    0.018855
  27 H :    0.021719
  28 C :   -0.043650
  29 H :    0.021506
  30 H :    0.021807
  31 H :    0.015360
  32 H :    0.032291
  33 H :    0.024219

  Mayer bond orders larger than 0.100000
B(  0-S ,  1-C ) :   1.1449 B(  0-S ,  4-C ) :   1.1518 B(  1-C ,  2-C ) :   1.6011
B(  1-C , 32-H ) :   0.9578 B(  2-C ,  3-C ) :   1.2423 B(  2-C ,  6-C ) :   1.0023
B(  3-C ,  4-C ) :   1.6055 B(  3-C ,  5-H ) :   0.9830 B(  4-C , 20-C ) :   1.0277
B(  6-C ,  7-H ) :   0.9426 B(  6-C ,  8-H ) :   0.9424 B(  6-C ,  9-C ) :   1.0801
B(  9-C , 10-H ) :   0.9513 B(  9-C , 11-H ) :   0.9505 B(  9-C , 12-C ) :   1.0771
B( 12-C , 13-H ) :   0.9747 B( 12-C , 14-H ) :   0.9751 B( 12-C , 15-H ) :   0.9745
B( 16-S , 17-C ) :   1.1331 B( 16-S , 20-C ) :   1.1315 B( 17-C , 18-C ) :   1.6545
B( 17-C , 20-C ) :   0.1006 B( 17-C , 33-H ) :   0.9663 B( 18-C , 19-C ) :   1.2242
B( 18-C , 21-H ) :   0.9861 B( 19-C , 20-C ) :   1.5862 B( 19-C , 22-C ) :   1.0468
B( 22-C , 23-H ) :   0.9154 B( 22-C , 24-H ) :   0.9402 B( 22-C , 25-C ) :   1.0636
B( 25-C , 26-H ) :   0.9635 B( 25-C , 27-H ) :   0.9500 B( 25-C , 28-C ) :   1.0873
B( 28-C , 29-H ) :   0.9735 B( 28-C , 30-H ) :   0.9746 B( 28-C , 31-H ) :   0.9735

Dispersion correction           -0.013777931
FINAL SINGLE POINT ENERGY     -1339.855370971672

DIPOLE MOMENT
-------------
                                X             Y             Z
Electronic contribution:    -19.97549      -8.15007      16.58779
Nuclear contribution   :     20.31224       8.64483     -17.07321
                        -----------------------------------------
Total Dipole Moment    :      0.33675       0.49476      -0.48542
                        -----------------------------------------
Magnitude (a.u.)       :      0.77060
Magnitude (Debye)      :      1.95870

Rotational constants in cm-1:     0.019346     0.007906     0.006009
Rotational constants in MHz :   579.982785   237.005241   180.149696

                             ****ORCA TERMINATED NORMALLY****
TOTAL RUN TIME: 0 days 0 hours 0 minutes 29 seconds 36 msec
