                         Program Version 4.2.1 -  RELEASE  -
|  1> ! wB97X-D3 SP def2-SVP
|  2> %pal
|  3> nprocs 16
|  4> end
|  5>
|  6> * xyz 0 1
|  7> S 	 -66.6108 	 44.5394 	 124.846
|  8> C 	 -67.8619 	 43.7188 	 125.818
|  9> C 	 -68.8287 	 44.5272 	 126.277
| 10> C 	 -68.7924 	 45.8017 	 125.579
| 11> C 	 -67.6263 	 45.9752 	 124.784
| 12> H 	 -69.4419 	 46.567 	 125.654
| 13> C 	 -69.9639 	 44.1625 	 127.179
| 14> H 	 -70.0509 	 43.0544 	 127.162
| 15> H 	 -70.8701 	 44.5667 	 126.714
| 16> C 	 -69.8671 	 44.6955 	 128.643
| 17> H 	 -69.0945 	 44.2433 	 129.187
| 18> H 	 -69.6405 	 45.8091 	 128.51
| 19> C 	 -71.2649 	 44.6084 	 129.323
| 20> H 	 -71.8644 	 45.4233 	 128.939
| 21> H 	 -71.6923 	 43.5955 	 129.117
| 22> H 	 -71.122 	 44.7056 	 130.438
| 23> S 	 -67.363 	 46.8708 	 122.228
| 24> C 	 -67.0524 	 48.5767 	 121.929
| 25> C 	 -67.2261 	 49.3248 	 123.093
| 26> C 	 -67.4734 	 48.4952 	 124.235
| 27> C 	 -67.2687 	 47.1228 	 123.956
| 28> H 	 -67.2726 	 50.3262 	 123.065
| 29> C 	 -67.8177 	 49.1093 	 125.628
| 30> H 	 -67.046 	 49.9315 	 125.759
| 31> H 	 -67.6463 	 48.4147 	 126.461
| 32> C 	 -69.2116 	 49.6762 	 125.754
| 33> H 	 -69.9558 	 48.9199 	 125.797
| 34> H 	 -69.4125 	 50.1463 	 124.812
| 35> C 	 -69.3477 	 50.5846 	 126.94
| 36> H 	 -68.4604 	 51.2477 	 127.04
| 37> H 	 -69.3519 	 49.7664 	 127.675
| 38> H 	 -70.3369 	 51.1109 	 127.071
| 39> H 	 -67.8665 	 42.6836 	 126.107
| 40> H 	 -66.7323 	 48.8939 	 120.974
| 41> *
| 42>
| 43>                          ****END OF INPUT****

CARTESIAN COORDINATES (ANGSTROEM)
---------------------------------
  S    -66.610800   44.539400  124.846000
  C    -67.861900   43.718800  125.818000
  C    -68.828700   44.527200  126.277000
  C    -68.792400   45.801700  125.579000
  C    -67.626300   45.975200  124.784000
  H    -69.441900   46.567000  125.654000
  C    -69.963900   44.162500  127.179000
  H    -70.050900   43.054400  127.162000
  H    -70.870100   44.566700  126.714000
  C    -69.867100   44.695500  128.643000
  H    -69.094500   44.243300  129.187000
  H    -69.640500   45.809100  128.510000
  C    -71.264900   44.608400  129.323000
  H    -71.864400   45.423300  128.939000
  H    -71.692300   43.595500  129.117000
  H    -71.122000   44.705600  130.438000
  S    -67.363000   46.870800  122.228000
  C    -67.052400   48.576700  121.929000
  C    -67.226100   49.324800  123.093000
  C    -67.473400   48.495200  124.235000
  C    -67.268700   47.122800  123.956000
  H    -67.272600   50.326200  123.065000
  C    -67.817700   49.109300  125.628000
  H    -67.046000   49.931500  125.759000
  H    -67.646300   48.414700  126.461000
  C    -69.211600   49.676200  125.754000
  H    -69.955800   48.919900  125.797000
  H    -69.412500   50.146300  124.812000
  C    -69.347700   50.584600  126.940000
  H    -68.460400   51.247700  127.040000
  H    -69.351900   49.766400  127.675000
  H    -70.336900   51.110900  127.071000
  H    -67.866500   42.683600  126.107000
  H    -66.732300   48.893900  120.974000

 Total Charge           Charge          ....    0
 Multiplicity           Mult            ....    1
 Number of Electrons    NEL             ....  134
 Basis Dimension        Dim             ....  322

ORBITAL ENERGIES
----------------

  NO   OCC          E(Eh)            E(eV)
   0   2.0000     -88.965369     -2420.8708
   1   2.0000     -88.963076     -2420.8084
   2   2.0000     -10.330846      -281.1166
   3   2.0000     -10.326040      -280.9858
   4   2.0000     -10.319933      -280.8197
   5   2.0000     -10.311857      -280.5999
   6   2.0000     -10.309845      -280.5451
   7   2.0000     -10.299314      -280.2586
   8   2.0000     -10.297083      -280.1979
   9   2.0000     -10.296463      -280.1810
  10   2.0000     -10.292821      -280.0819
  11   2.0000     -10.292200      -280.0650
  12   2.0000     -10.291292      -280.0403
  13   2.0000     -10.288984      -279.9775
  14   2.0000     -10.286050      -279.8977
  15   2.0000     -10.280426      -279.7446
  16   2.0000      -8.079412      -219.8520
  17   2.0000      -8.078036      -219.8145
  18   2.0000      -6.037992      -164.3021
  19   2.0000      -6.036482      -164.2610
  20   2.0000      -6.034155      -164.1977
  21   2.0000      -6.032690      -164.1578
  22   2.0000      -6.030010      -164.0849
  23   2.0000      -6.028642      -164.0477
  24   2.0000      -1.001995       -27.2657
  25   2.0000      -0.980024       -26.6678
  26   2.0000      -0.918028       -24.9808
  27   2.0000      -0.910501       -24.7760
  28   2.0000      -0.869889       -23.6709
  29   2.0000      -0.851751       -23.1773
  30   2.0000      -0.845222       -22.9997
  31   2.0000      -0.811359       -22.0782
  32   2.0000      -0.780294       -21.2329
  33   2.0000      -0.769929       -20.9508
  34   2.0000      -0.705217       -19.1899
  35   2.0000      -0.698732       -19.0135
  36   2.0000      -0.696256       -18.9461
  37   2.0000      -0.669209       -18.2101
  38   2.0000      -0.643276       -17.5044
  39   2.0000      -0.617818       -16.8117
  40   2.0000      -0.600823       -16.3492
  41   2.0000      -0.575215       -15.6524
  42   2.0000      -0.574887       -15.6435
  43   2.0000      -0.562243       -15.2994
  44   2.0000      -0.527951       -14.3663
  45   2.0000      -0.525515       -14.3000
  46   2.0000      -0.518730       -14.1154
  47   2.0000      -0.511848       -13.9281
  48   2.0000      -0.508767       -13.8442
  49   2.0000      -0.499288       -13.5863
  50   2.0000      -0.491472       -13.3736
  51   2.0000      -0.475120       -12.9287
  52   2.0000      -0.467901       -12.7322
  53   2.0000      -0.463215       -12.6047
  54   2.0000      -0.456943       -12.4341
  55   2.0000      -0.452501       -12.3132
  56   2.0000      -0.447172       -12.1682
  57   2.0000      -0.441770       -12.0212
  58   2.0000      -0.438932       -11.9440
  59   2.0000      -0.422538       -11.4978
  60   2.0000      -0.422187       -11.4883
  61   2.0000      -0.420359       -11.4386
  62   2.0000      -0.411642       -11.2013
  63   2.0000      -0.338967        -9.2238
  64   2.0000      -0.330491        -8.9931
  65   2.0000      -0.322452        -8.7744
  66   2.0000      -0.297049        -8.0831
  67   0.0000       0.022649         0.6163
  68   0.0000       0.069314         1.8861
  69   0.0000       0.103041         2.8039
  70   0.0000       0.110393         3.0039
  71   0.0000       0.121047         3.2939

MULLIKEN ATOMIC CHARGES
-----------------------
   0 S :    0.111179
   1 C :   -0.118284
   2 C :   -0.057319
   3 C :    0.097003
   4 C :   -0.178994
   5 H :   -0.067026
   6 C :    0.035204
   7 H :    0.023744
   8 H :    0.027487
   9 C :   -0.073036
  10 H :    0.027868
  11 H :    0.033144
  12 C :   -0.067562
  13 H :    0.043268
  14 H :    0.042917
  15 H :    0.047242
  16 S :    0.100803
  17 C :   -0.080227
  18 C :    0.032874
  19 C :   -0.043298
  20 C :   -0.122111
  21 H :   -0.024696
  22 C :    0.001894
  23 H :    0.036543
  24 H :    0.032038
  25 C :   -0.027508
  26 H :    0.014772
  27 H :    0.008021
  28 C :   -0.059221
  29 H :    0.044754
  30 H :    0.024127
  31 H :    0.051803
  32 H :    0.032917
  33 H :    0.049679
Sum of atomic charges:    0.0000000

LOEWDIN ATOMIC CHARGES
----------------------
   0 S :    0.385001
   1 C :   -0.181436
   2 C :   -0.064805
   3 C :   -0.040652
   4 C :   -0.192212
   5 H :    0.003408
   6 C :   -0.033851
   7 H :    0.029851
   8 H :    0.032228
   9 C :   -0.034515
  10 H :    0.015070
  11 H :    0.029573
  12 C :   -0.068873
  13 H :    0.025471
  14 H :    0.028361
  15 H :    0.033150
  16 S :    0.408106
  17 C :   -0.162391
  18 C :   -0.054658
  19 C :   -0.042282
  20 C :   -0.213289
  21 H :    0.011175
  22 C :   -0.032071
  23 H :    0.036547
  24 H :    0.028076
  25 C :   -0.044535
  26 H :    0.016724
  27 H :    0.014206
  28 C :   -0.069206
  29 H :    0.029144
  30 H :    0.030474
  31 H :    0.034567
  32 H :    0.024709
  33 H :    0.018936

  Mayer bond orders larger than 0.100000
B(  0-S ,  1-C ) :   1.1178 B(  0-S ,  4-C ) :   1.1403 B(  1-C ,  2-C ) :   1.6669
B(  1-C , 32-H ) :   0.9607 B(  2-C ,  3-C ) :   1.1930 B(  2-C ,  6-C ) :   1.0287
B(  3-C ,  4-C ) :   1.5877 B(  3-C ,  5-H ) :   1.0059 B(  4-C , 20-C ) :   1.0308
B(  6-C ,  7-H ) :   0.9374 B(  6-C ,  8-H ) :   0.9452 B(  6-C ,  9-C ) :   1.0480
B(  9-C , 10-H ) :   0.9603 B(  9-C , 11-H ) :   0.9621 B(  9-C , 12-C ) :   1.0665
B( 12-C , 13-H ) :   0.9780 B( 12-C , 14-H ) :   0.9747 B( 12-C , 15-H ) :   0.9758
B( 16-S , 17-C ) :   1.1723 B( 16-S , 20-C ) :   1.1525 B( 17-C , 18-C ) :   1.5634
B( 17-C , 20-C ) :   0.1061 B( 17-C , 33-H ) :   0.9769 B( 18-C , 19-C ) :   1.2523
B( 18-C , 21-H ) :   1.0135 B( 19-C , 20-C ) :   1.5622 B( 19-C , 22-C ) :   1.0339
B( 22-C , 23-H ) :   0.9436 B( 22-C , 24-H ) :   0.9403 B( 22-C , 25-C ) :   1.0578
B( 25-C , 26-H ) :   0.9490 B( 25-C , 27-H ) :   0.9503 B( 25-C , 28-C ) :   1.0618
B( 28-C , 29-H ) :   0.9754 B( 28-C , 30-H ) :   0.9783 B( 28-C , 31-H ) :   0.9719

Dispersion correction           -0.014100537
FINAL SINGLE POINT ENERGY     -1339.852527289237

DIPOLE MOMENT
-------------
                                X             Y             Z
Electronic contribution:     18.51362      -9.57694     -25.12746
Nuclear contribution   :    -19.05397       9.92816      25.54543
                        -----------------------------------------
Total Dipole Moment    :     -0.54035       0.35122       0.41798
                        -----------------------------------------
Magnitude (a.u.)       :      0.76814
Magnitude (Debye)      :      1.95245

Rotational constants in cm-1:     0.016712     0.009365     0.006452
Rotational constants in MHz :   501.011225   280.766400   193.418452

                             ****ORCA TERMINATED NORMALLY****
TOTAL RUN TIME: 0 days 0 hours 0 minutes 34 seconds 57 msec
