                         Program Version 4.2.1 -  RELEASE  -
|  1> ! wB97X-D3 SP def2-SVP
|  2> %pal
|  3> nprocs 16
|  4> end
|  5>
|  6> * xyz 0 1
|  7> S 	 -4.98894 	 -11.2962 	 86.4234
|  8> C 	 -3.85236 	 -11.8541 	 85.2909
|  9> C 	 -2.5537 	 -11.9263 	 85.7108
| 10> C 	 -2.48614 	 -11.5247 	 87.0264
| 11> C 	 -3.68915 	 -11.1898 	 87.5785
| 12> H 	 -1.66976 	 -11.4889 	 87.7155
| 13> C 	 -1.33031 	 -12.4965 	 84.95
| 14> H 	 -0.97128 	 -13.3692 	 85.461
| 15> H 	 -0.723659 	 -11.6218 	 84.7175
| 16> C 	 -1.68048 	 -13.187 	 83.5778
| 17> H 	 -2.10706 	 -14.1325 	 83.9173
| 18> H 	 -2.4324 	 -12.626 	 83.0746
| 19> C 	 -0.43951 	 -13.5139 	 82.6636
| 20> H 	 0.0674468 	 -12.6005 	 82.3437
| 21> H 	 0.275497 	 -14.0529 	 83.2232
| 22> H 	 -0.682472 	 -14.1765 	 81.8529
| 23> S 	 -4.60164 	 -12.2185 	 90.0461
| 24> C 	 -4.68157 	 -11.0699 	 91.3654
| 25> C 	 -4.24796 	 -9.83317 	 91.1085
| 26> C 	 -3.88034 	 -9.70491 	 89.697
| 27> C 	 -3.95098 	 -10.9298 	 88.9978
| 28> H 	 -4.22197 	 -8.97909 	 91.7659
| 29> C 	 -3.52309 	 -8.37235 	 89.0329
| 30> H 	 -3.73723 	 -8.37357 	 87.9636
| 31> H 	 -2.40883 	 -8.29612 	 89.091
| 32> C 	 -4.00332 	 -7.06227 	 89.684
| 33> H 	 -3.7456 	 -6.94906 	 90.7337
| 34> H 	 -5.03993 	 -6.79744 	 89.5745
| 35> C 	 -3.39148 	 -5.85338 	 89.0325
| 36> H 	 -3.49356 	 -6.00281 	 87.9788
| 37> H 	 -2.38232 	 -5.85868 	 89.2165
| 38> H 	 -3.81156 	 -4.91827 	 89.4165
| 39> H 	 -4.20569 	 -12.0878 	 84.3433
| 40> H 	 -4.96406 	 -11.2639 	 92.3817
| 41> *
| 42>
| 43>                          ****END OF INPUT****

CARTESIAN COORDINATES (ANGSTROEM)
---------------------------------
  S     -4.988940  -11.296200   86.423400
  C     -3.852360  -11.854100   85.290900
  C     -2.553700  -11.926300   85.710800
  C     -2.486140  -11.524700   87.026400
  C     -3.689150  -11.189800   87.578500
  H     -1.669760  -11.488900   87.715500
  C     -1.330310  -12.496500   84.950000
  H     -0.971280  -13.369200   85.461000
  H     -0.723659  -11.621800   84.717500
  C     -1.680480  -13.187000   83.577800
  H     -2.107060  -14.132500   83.917300
  H     -2.432400  -12.626000   83.074600
  C     -0.439510  -13.513900   82.663600
  H      0.067447  -12.600500   82.343700
  H      0.275497  -14.052900   83.223200
  H     -0.682472  -14.176500   81.852900
  S     -4.601640  -12.218500   90.046100
  C     -4.681570  -11.069900   91.365400
  C     -4.247960   -9.833170   91.108500
  C     -3.880340   -9.704910   89.697000
  C     -3.950980  -10.929800   88.997800
  H     -4.221970   -8.979090   91.765900
  C     -3.523090   -8.372350   89.032900
  H     -3.737230   -8.373570   87.963600
  H     -2.408830   -8.296120   89.091000
  C     -4.003320   -7.062270   89.684000
  H     -3.745600   -6.949060   90.733700
  H     -5.039930   -6.797440   89.574500
  C     -3.391480   -5.853380   89.032500
  H     -3.493560   -6.002810   87.978800
  H     -2.382320   -5.858680   89.216500
  H     -3.811560   -4.918270   89.416500
  H     -4.205690  -12.087800   84.343300
  H     -4.964060  -11.263900   92.381700

 Total Charge           Charge          ....    0
 Multiplicity           Mult            ....    1
 Number of Electrons    NEL             ....  134
 Basis Dimension        Dim             ....  322

ORBITAL ENERGIES
----------------

  NO   OCC          E(Eh)            E(eV)
   0   2.0000     -88.964524     -2420.8478
   1   2.0000     -88.964479     -2420.8465
   2   2.0000     -10.322950      -280.9017
   3   2.0000     -10.318647      -280.7847
   4   2.0000     -10.310941      -280.5750
   5   2.0000     -10.306009      -280.4408
   6   2.0000     -10.302825      -280.3541
   7   2.0000     -10.296037      -280.1694
   8   2.0000     -10.295888      -280.1653
   9   2.0000     -10.295833      -280.1639
  10   2.0000     -10.289246      -279.9846
  11   2.0000     -10.287370      -279.9336
  12   2.0000     -10.284125      -279.8453
  13   2.0000     -10.280650      -279.7507
  14   2.0000     -10.278556      -279.6937
  15   2.0000     -10.265085      -279.3272
  16   2.0000      -8.080630      -219.8851
  17   2.0000      -8.078592      -219.8297
  18   2.0000      -6.038719      -164.3219
  19   2.0000      -6.037259      -164.2822
  20   2.0000      -6.035053      -164.2221
  21   2.0000      -6.033315      -164.1749
  22   2.0000      -6.031652      -164.1296
  23   2.0000      -6.029118      -164.0606
  24   2.0000      -1.010931       -27.5088
  25   2.0000      -0.982732       -26.7415
  26   2.0000      -0.912318       -24.8254
  27   2.0000      -0.906501       -24.6671
  28   2.0000      -0.867539       -23.6069
  29   2.0000      -0.856992       -23.3199
  30   2.0000      -0.850185       -23.1347
  31   2.0000      -0.816127       -22.2080
  32   2.0000      -0.785291       -21.3689
  33   2.0000      -0.766184       -20.8489
  34   2.0000      -0.709202       -19.2984
  35   2.0000      -0.699855       -19.0440
  36   2.0000      -0.690972       -18.8023
  37   2.0000      -0.653929       -17.7943
  38   2.0000      -0.648885       -17.6571
  39   2.0000      -0.610811       -16.6210
  40   2.0000      -0.598558       -16.2876
  41   2.0000      -0.586251       -15.9527
  42   2.0000      -0.572788       -15.5864
  43   2.0000      -0.563314       -15.3286
  44   2.0000      -0.529497       -14.4083
  45   2.0000      -0.519647       -14.1403
  46   2.0000      -0.515015       -14.0143
  47   2.0000      -0.513278       -13.9670
  48   2.0000      -0.507053       -13.7976
  49   2.0000      -0.496270       -13.5042
  50   2.0000      -0.487518       -13.2660
  51   2.0000      -0.474157       -12.9025
  52   2.0000      -0.471758       -12.8372
  53   2.0000      -0.463562       -12.6142
  54   2.0000      -0.460725       -12.5370
  55   2.0000      -0.454345       -12.3634
  56   2.0000      -0.447152       -12.1676
  57   2.0000      -0.436700       -11.8832
  58   2.0000      -0.432188       -11.7604
  59   2.0000      -0.429063       -11.6754
  60   2.0000      -0.423598       -11.5267
  61   2.0000      -0.415841       -11.3156
  62   2.0000      -0.411720       -11.2035
  63   2.0000      -0.342214        -9.3121
  64   2.0000      -0.330803        -9.0016
  65   2.0000      -0.317918        -8.6510
  66   2.0000      -0.305684        -8.3181
  67   0.0000       0.048538         1.3208
  68   0.0000       0.060631         1.6499
  69   0.0000       0.120603         3.2818
  70   0.0000       0.125045         3.4026
  71   0.0000       0.134036         3.6473

MULLIKEN ATOMIC CHARGES
-----------------------
   0 S :    0.137107
   1 C :   -0.121493
   2 C :   -0.054508
   3 C :    0.039622
   4 C :   -0.212252
   5 H :   -0.001035
   6 C :    0.091420
   7 H :    0.043923
   8 H :    0.045529
   9 C :   -0.128984
  10 H :    0.027087
  11 H :    0.030696
  12 C :   -0.010069
  13 H :    0.034198
  14 H :    0.011527
  15 H :    0.035792
  16 S :    0.114178
  17 C :   -0.053812
  18 C :   -0.020306
  19 C :   -0.031032
  20 C :   -0.184001
  21 H :    0.014363
  22 C :    0.052448
  23 H :    0.035176
  24 H :    0.035389
  25 C :   -0.081423
  26 H :    0.024131
  27 H :    0.030347
  28 C :   -0.013655
  29 H :    0.018006
  30 H :    0.000334
  31 H :    0.036099
  32 H :    0.014467
  33 H :    0.040731
Sum of atomic charges:    0.0000000

LOEWDIN ATOMIC CHARGES
----------------------
   0 S :    0.432807
   1 C :   -0.195575
   2 C :   -0.071439
   3 C :   -0.051307
   4 C :   -0.205561
   5 H :    0.031819
   6 C :   -0.021662
   7 H :    0.035464
   8 H :    0.034917
   9 C :   -0.037498
  10 H :    0.023105
  11 H :    0.012052
  12 C :   -0.058933
  13 H :    0.026368
  14 H :    0.018775
  15 H :    0.027593
  16 S :    0.386245
  17 C :   -0.176201
  18 C :   -0.071746
  19 C :   -0.042792
  20 C :   -0.206645
  21 H :    0.031174
  22 C :   -0.035588
  23 H :    0.032241
  24 H :    0.040894
  25 C :   -0.044162
  26 H :    0.020345
  27 H :    0.023128
  28 C :   -0.051471
  29 H :    0.021908
  30 H :    0.008183
  31 H :    0.029477
  32 H :    0.006383
  33 H :    0.027700

  Mayer bond orders larger than 0.100000
B(  0-S ,  1-C ) :   1.1694 B(  0-S ,  4-C ) :   1.1543 B(  1-C ,  2-C ) :   1.5953
B(  1-C , 32-H ) :   0.9701 B(  2-C ,  3-C ) :   1.2527 B(  2-C ,  6-C ) :   0.9975
B(  3-C ,  4-C ) :   1.6000 B(  3-C ,  5-H ) :   1.0027 B(  4-C , 20-C ) :   1.0227
B(  6-C ,  7-H ) :   0.9528 B(  6-C ,  8-H ) :   0.9375 B(  6-C ,  9-C ) :   1.0707
B(  9-C , 10-H ) :   0.9646 B(  9-C , 11-H ) :   0.9558 B(  9-C , 12-C ) :   1.0803
B( 12-C , 13-H ) :   0.9769 B( 12-C , 14-H ) :   0.9723 B( 12-C , 15-H ) :   0.9740
B( 16-S , 17-C ) :   1.1391 B( 16-S , 20-C ) :   1.1148 B( 17-C , 18-C ) :   1.6564
B( 17-C , 33-H ) :   0.9553 B( 18-C , 19-C ) :   1.2247 B( 18-C , 21-H ) :   0.9838
B( 19-C , 20-C ) :   1.6350 B( 19-C , 22-C ) :   1.0353 B( 22-C , 23-H ) :   0.9326
B( 22-C , 24-H ) :   0.9307 B( 22-C , 25-C ) :   1.0692 B( 25-C , 26-H ) :   0.9477
B( 25-C , 27-H ) :   0.9590 B( 25-C , 28-C ) :   1.0845 B( 28-C , 29-H ) :   0.9723
B( 28-C , 30-H ) :   0.9737 B( 28-C , 31-H ) :   0.9727

Dispersion correction           -0.013261194
FINAL SINGLE POINT ENERGY     -1339.861382582364

DIPOLE MOMENT
-------------
                                X             Y             Z
Electronic contribution:    -15.56367     -11.16129      12.57273
Nuclear contribution   :     15.96277      11.42098     -12.69023
                        -----------------------------------------
Total Dipole Moment    :      0.39910       0.25969      -0.11750
                        -----------------------------------------
Magnitude (a.u.)       :      0.49043
Magnitude (Debye)      :      1.24659

Rotational constants in cm-1:     0.020853     0.006826     0.005808
Rotational constants in MHz :   625.166893   204.623999   174.126521

                             ****ORCA TERMINATED NORMALLY****
TOTAL RUN TIME: 0 days 0 hours 0 minutes 31 seconds 470 msec
