                         Program Version 4.2.1 -  RELEASE  -
|  1> ! wB97X-D3 SP def2-SVP
|  2> %pal
|  3> nprocs 16
|  4> end
|  5>
|  6> * xyz 0 1
|  7> S 	 27.2763 	 -5.52301 	 77.7171
|  8> C 	 28.8879 	 -5.24399 	 77.081
|  9> C 	 29.4546 	 -4.04656 	 77.4122
| 10> C 	 28.5055 	 -3.38529 	 78.204
| 11> C 	 27.3778 	 -4.04038 	 78.623
| 12> H 	 28.5938 	 -2.38239 	 78.5917
| 13> C 	 30.7622 	 -3.62544 	 76.9266
| 14> H 	 30.7012 	 -2.97631 	 76.0517
| 15> H 	 31.3544 	 -4.45721 	 76.701
| 16> C 	 31.6565 	 -2.94055 	 77.9678
| 17> H 	 31.6064 	 -3.42032 	 78.9091
| 18> H 	 32.6667 	 -3.00703 	 77.5699
| 19> C 	 31.2991 	 -1.52565 	 78.2534
| 20> H 	 32.1207 	 -1.17263 	 78.8509
| 21> H 	 31.3902 	 -0.818882 	 77.4018
| 22> H 	 30.4457 	 -1.39736 	 78.9048
| 23> S 	 24.6381 	 -3.35544 	 78.7467
| 24> C 	 24.0198 	 -2.74405 	 80.2567
| 25> C 	 25.058 	 -2.60202 	 81.1491
| 26> C 	 26.3858 	 -3.02853 	 80.734
| 27> C 	 26.2475 	 -3.54683 	 79.4611
| 28> H 	 24.7164 	 -2.16371 	 82.171
| 29> C 	 27.6608 	 -2.90814 	 81.5924
| 30> H 	 27.2965 	 -2.53539 	 82.5482
| 31> H 	 28.249 	 -2.12651 	 81.1927
| 32> C 	 28.4058 	 -4.21505 	 81.8843
| 33> H 	 29.2815 	 -3.98746 	 82.444
| 34> H 	 28.8824 	 -4.67703 	 81.0158
| 35> C 	 27.6024 	 -5.30419 	 82.6111
| 36> H 	 26.7416 	 -5.75344 	 82.0432
| 37> H 	 27.2531 	 -5.03976 	 83.5865
| 38> H 	 28.1744 	 -6.19001 	 82.9004
| 39> H 	 29.3074 	 -5.9843 	 76.4297
| 40> H 	 22.9966 	 -2.40737 	 80.3129
| 41> *
| 42>
| 43>                          ****END OF INPUT****

CARTESIAN COORDINATES (ANGSTROEM)
---------------------------------
  S     27.276300   -5.523010   77.717100
  C     28.887900   -5.243990   77.081000
  C     29.454600   -4.046560   77.412200
  C     28.505500   -3.385290   78.204000
  C     27.377800   -4.040380   78.623000
  H     28.593800   -2.382390   78.591700
  C     30.762200   -3.625440   76.926600
  H     30.701200   -2.976310   76.051700
  H     31.354400   -4.457210   76.701000
  C     31.656500   -2.940550   77.967800
  H     31.606400   -3.420320   78.909100
  H     32.666700   -3.007030   77.569900
  C     31.299100   -1.525650   78.253400
  H     32.120700   -1.172630   78.850900
  H     31.390200   -0.818882   77.401800
  H     30.445700   -1.397360   78.904800
  S     24.638100   -3.355440   78.746700
  C     24.019800   -2.744050   80.256700
  C     25.058000   -2.602020   81.149100
  C     26.385800   -3.028530   80.734000
  C     26.247500   -3.546830   79.461100
  H     24.716400   -2.163710   82.171000
  C     27.660800   -2.908140   81.592400
  H     27.296500   -2.535390   82.548200
  H     28.249000   -2.126510   81.192700
  C     28.405800   -4.215050   81.884300
  H     29.281500   -3.987460   82.444000
  H     28.882400   -4.677030   81.015800
  C     27.602400   -5.304190   82.611100
  H     26.741600   -5.753440   82.043200
  H     27.253100   -5.039760   83.586500
  H     28.174400   -6.190010   82.900400
  H     29.307400   -5.984300   76.429700
  H     22.996600   -2.407370   80.312900

 Total Charge           Charge          ....    0
 Multiplicity           Mult            ....    1
 Number of Electrons    NEL             ....  134
 Basis Dimension        Dim             ....  322

ORBITAL ENERGIES
----------------

  NO   OCC          E(Eh)            E(eV)
   0   2.0000     -88.963211     -2420.8120
   1   2.0000     -88.960176     -2420.7295
   2   2.0000     -10.328264      -281.0464
   3   2.0000     -10.322992      -280.9029
   4   2.0000     -10.315586      -280.7014
   5   2.0000     -10.308007      -280.4951
   6   2.0000     -10.307971      -280.4941
   7   2.0000     -10.302497      -280.3452
   8   2.0000     -10.296244      -280.1750
   9   2.0000     -10.294425      -280.1255
  10   2.0000     -10.286593      -279.9124
  11   2.0000     -10.284113      -279.8449
  12   2.0000     -10.283678      -279.8331
  13   2.0000     -10.280350      -279.7426
  14   2.0000     -10.273725      -279.5623
  15   2.0000     -10.273516      -279.5566
  16   2.0000      -8.078017      -219.8140
  17   2.0000      -8.075381      -219.7423
  18   2.0000      -6.036537      -164.2625
  19   2.0000      -6.033653      -164.1841
  20   2.0000      -6.032578      -164.1548
  21   2.0000      -6.029926      -164.0826
  22   2.0000      -6.028700      -164.0493
  23   2.0000      -6.026275      -163.9833
  24   2.0000      -1.006514       -27.3886
  25   2.0000      -0.985372       -26.8133
  26   2.0000      -0.923881       -25.1401
  27   2.0000      -0.906868       -24.6771
  28   2.0000      -0.869907       -23.6714
  29   2.0000      -0.849413       -23.1137
  30   2.0000      -0.840752       -22.8780
  31   2.0000      -0.816250       -22.2113
  32   2.0000      -0.790609       -21.5136
  33   2.0000      -0.779442       -21.2097
  34   2.0000      -0.711216       -19.3532
  35   2.0000      -0.699777       -19.0419
  36   2.0000      -0.687643       -18.7117
  37   2.0000      -0.653233       -17.7754
  38   2.0000      -0.645707       -17.5706
  39   2.0000      -0.623185       -16.9577
  40   2.0000      -0.591929       -16.1072
  41   2.0000      -0.578778       -15.7493
  42   2.0000      -0.556954       -15.1555
  43   2.0000      -0.548831       -14.9344
  44   2.0000      -0.546490       -14.8708
  45   2.0000      -0.540261       -14.7012
  46   2.0000      -0.520216       -14.1558
  47   2.0000      -0.508540       -13.8381
  48   2.0000      -0.498522       -13.5655
  49   2.0000      -0.494994       -13.4695
  50   2.0000      -0.488997       -13.3063
  51   2.0000      -0.480269       -13.0688
  52   2.0000      -0.471402       -12.8275
  53   2.0000      -0.465490       -12.6666
  54   2.0000      -0.458505       -12.4766
  55   2.0000      -0.447757       -12.1841
  56   2.0000      -0.439589       -11.9618
  57   2.0000      -0.434773       -11.8308
  58   2.0000      -0.430144       -11.7048
  59   2.0000      -0.427428       -11.6309
  60   2.0000      -0.423956       -11.5364
  61   2.0000      -0.412119       -11.2143
  62   2.0000      -0.407607       -11.0916
  63   2.0000      -0.340084        -9.2542
  64   2.0000      -0.332169        -9.0388
  65   2.0000      -0.328921        -8.9504
  66   2.0000      -0.295547        -8.0422
  67   0.0000       0.036132         0.9832
  68   0.0000       0.069901         1.9021
  69   0.0000       0.114996         3.1292
  70   0.0000       0.123624         3.3640
  71   0.0000       0.133743         3.6393

MULLIKEN ATOMIC CHARGES
-----------------------
   0 S :    0.099297
   1 C :   -0.137483
   2 C :   -0.045411
   3 C :    0.025052
   4 C :   -0.186952
   5 H :   -0.010212
   6 C :    0.136082
   7 H :    0.038491
   8 H :    0.004025
   9 C :   -0.088466
  10 H :    0.021748
  11 H :    0.025169
  12 C :   -0.041722
  13 H :    0.013025
  14 H :    0.031205
  15 H :    0.036725
  16 S :    0.105546
  17 C :   -0.106097
  18 C :   -0.068478
  19 C :   -0.049569
  20 C :   -0.155857
  21 H :    0.045980
  22 C :    0.135719
  23 H :    0.009749
  24 H :    0.028742
  25 C :   -0.040715
  26 H :    0.013843
  27 H :    0.039056
  28 C :   -0.062430
  29 H :    0.050606
  30 H :    0.012074
  31 H :    0.022423
  32 H :    0.037135
  33 H :    0.061699
Sum of atomic charges:   -0.0000000

LOEWDIN ATOMIC CHARGES
----------------------
   0 S :    0.400065
   1 C :   -0.177075
   2 C :   -0.068169
   3 C :   -0.064009
   4 C :   -0.199453
   5 H :    0.023607
   6 C :   -0.025763
   7 H :    0.036484
   8 H :    0.027707
   9 C :   -0.034712
  10 H :    0.022746
  11 H :    0.026201
  12 C :   -0.072069
  13 H :    0.027188
  14 H :    0.028141
  15 H :    0.022515
  16 S :    0.393931
  17 C :   -0.192528
  18 C :   -0.082930
  19 C :   -0.054320
  20 C :   -0.190838
  21 H :    0.042922
  22 C :   -0.018929
  23 H :    0.032755
  24 H :    0.028277
  25 C :   -0.040027
  26 H :    0.022874
  27 H :    0.029376
  28 C :   -0.073024
  29 H :    0.034767
  30 H :    0.017138
  31 H :    0.028860
  32 H :    0.018367
  33 H :    0.029926

  Mayer bond orders larger than 0.100000
B(  0-S ,  1-C ) :   1.1632 B(  0-S ,  4-C ) :   1.1429 B(  1-C ,  2-C ) :   1.5924
B(  1-C , 32-H ) :   0.9691 B(  2-C ,  3-C ) :   1.2300 B(  2-C ,  6-C ) :   1.0384
B(  3-C ,  4-C ) :   1.5944 B(  3-C ,  5-H ) :   0.9923 B(  4-C , 20-C ) :   1.0149
B(  6-C ,  7-H ) :   0.9268 B(  6-C ,  8-H ) :   0.9275 B(  6-C ,  9-C ) :   1.0736
B(  9-C , 10-H ) :   0.9529 B(  9-C , 11-H ) :   0.9563 B(  9-C , 12-C ) :   1.0987
B( 12-C , 13-H ) :   0.9617 B( 12-C , 14-H ) :   0.9693 B( 12-C , 15-H ) :   0.9705
B( 16-S , 17-C ) :   1.1360 B( 16-S , 20-C ) :   1.1574 B( 17-C , 18-C ) :   1.6350
B( 17-C , 33-H ) :   0.9708 B( 18-C , 19-C ) :   1.2183 B( 18-C , 21-H ) :   0.9698
B( 19-C , 20-C ) :   1.6116 B( 19-C , 22-C ) :   1.0203 B( 22-C , 23-H ) :   0.9298
B( 22-C , 24-H ) :   0.9304 B( 22-C , 25-C ) :   1.0751 B( 25-C , 26-H ) :   0.9498
B( 25-C , 27-H ) :   0.9513 B( 25-C , 28-C ) :   1.0782 B( 28-C , 29-H ) :   0.9739
B( 28-C , 30-H ) :   0.9741 B( 28-C , 31-H ) :   0.9712

Dispersion correction           -0.015538698
FINAL SINGLE POINT ENERGY     -1339.870458961436

DIPOLE MOMENT
-------------
                                X             Y             Z
Electronic contribution:    -22.68017      -6.05656     -11.70748
Nuclear contribution   :     23.32713       6.40672      11.98547
                        -----------------------------------------
Total Dipole Moment    :      0.64696       0.35016       0.27799
                        -----------------------------------------
Magnitude (a.u.)       :      0.78642
Magnitude (Debye)      :      1.99892

Rotational constants in cm-1:     0.018622     0.009513     0.008201
Rotational constants in MHz :   558.285874   285.190273   245.864020

                             ****ORCA TERMINATED NORMALLY****
TOTAL RUN TIME: 0 days 0 hours 0 minutes 33 seconds 161 msec
