                         Program Version 4.2.1 -  RELEASE  -
|  1> ! wB97X-D3 SP def2-SVP
|  2> %pal
|  3> nprocs 16
|  4> end
|  5>
|  6> * xyz 0 1
|  7> S 	 9.57389 	 21.3751 	 41.9605
|  8> C 	 9.64713 	 19.6563 	 42.1574
|  9> C 	 10.4754 	 19.3195 	 43.2395
| 10> C 	 11.0694 	 20.4742 	 43.871
| 11> C 	 10.5988 	 21.6951 	 43.3299
| 12> H 	 11.8875 	 20.3807 	 44.5168
| 13> C 	 10.7726 	 17.9485 	 43.7522
| 14> H 	 11.8308 	 17.8891 	 43.6453
| 15> H 	 10.3467 	 17.2287 	 42.998
| 16> C 	 10.3782 	 17.5904 	 45.1755
| 17> H 	 9.59748 	 18.2329 	 45.5526
| 18> H 	 9.96811 	 16.5275 	 45.2572
| 19> C 	 11.3929 	 17.8491 	 46.3081
| 20> H 	 12.3925 	 17.5583 	 45.9691
| 21> H 	 11.401 	 18.9759 	 46.512
| 22> H 	 11.1775 	 17.4045 	 47.2409
| 23> S 	 10.8533 	 23.6832 	 45.1939
| 24> C 	 11.7273 	 25.1823 	 44.831
| 25> C 	 12.2468 	 25.0885 	 43.5711
| 26> C 	 11.8386 	 23.9172 	 42.8413
| 27> C 	 11.0834 	 23.0201 	 43.637
| 28> H 	 12.8289 	 25.8287 	 43.2402
| 29> C 	 12.2799 	 23.8115 	 41.4103
| 30> H 	 11.5587 	 23.1676 	 40.88
| 31> H 	 13.2383 	 23.277 	 41.4626
| 32> C 	 12.3728 	 25.1435 	 40.645
| 33> H 	 13.0716 	 25.8733 	 41.156
| 34> H 	 11.4021 	 25.6375 	 40.6385
| 35> C 	 12.7639 	 24.8237 	 39.1592
| 36> H 	 12.0984 	 24.133 	 38.6953
| 37> H 	 13.7383 	 24.366 	 39.034
| 38> H 	 12.7714 	 25.7993 	 38.6601
| 39> H 	 9.24807 	 18.8361 	 41.5843
| 40> H 	 12.018 	 25.9349 	 45.5635
| 41> *
| 42>
| 43>                          ****END OF INPUT****

CARTESIAN COORDINATES (ANGSTROEM)
---------------------------------
  S      9.573890   21.375100   41.960500
  C      9.647130   19.656300   42.157400
  C     10.475400   19.319500   43.239500
  C     11.069400   20.474200   43.871000
  C     10.598800   21.695100   43.329900
  H     11.887500   20.380700   44.516800
  C     10.772600   17.948500   43.752200
  H     11.830800   17.889100   43.645300
  H     10.346700   17.228700   42.998000
  C     10.378200   17.590400   45.175500
  H      9.597480   18.232900   45.552600
  H      9.968110   16.527500   45.257200
  C     11.392900   17.849100   46.308100
  H     12.392500   17.558300   45.969100
  H     11.401000   18.975900   46.512000
  H     11.177500   17.404500   47.240900
  S     10.853300   23.683200   45.193900
  C     11.727300   25.182300   44.831000
  C     12.246800   25.088500   43.571100
  C     11.838600   23.917200   42.841300
  C     11.083400   23.020100   43.637000
  H     12.828900   25.828700   43.240200
  C     12.279900   23.811500   41.410300
  H     11.558700   23.167600   40.880000
  H     13.238300   23.277000   41.462600
  C     12.372800   25.143500   40.645000
  H     13.071600   25.873300   41.156000
  H     11.402100   25.637500   40.638500
  C     12.763900   24.823700   39.159200
  H     12.098400   24.133000   38.695300
  H     13.738300   24.366000   39.034000
  H     12.771400   25.799300   38.660100
  H      9.248070   18.836100   41.584300
  H     12.018000   25.934900   45.563500

 Total Charge           Charge          ....    0
 Multiplicity           Mult            ....    1
 Number of Electrons    NEL             ....  134
 Basis Dimension        Dim             ....  322

ORBITAL ENERGIES
----------------

  NO   OCC          E(Eh)            E(eV)
   0   2.0000     -88.971712     -2421.0434
   1   2.0000     -88.962952     -2420.8050
   2   2.0000     -10.332828      -281.1705
   3   2.0000     -10.324776      -280.9514
   4   2.0000     -10.316261      -280.7197
   5   2.0000     -10.314139      -280.6620
   6   2.0000     -10.302170      -280.3363
   7   2.0000     -10.300301      -280.2854
   8   2.0000     -10.293959      -280.1129
   9   2.0000     -10.293942      -280.1124
  10   2.0000     -10.293269      -280.0941
  11   2.0000     -10.289342      -279.9872
  12   2.0000     -10.288835      -279.9734
  13   2.0000     -10.282544      -279.8022
  14   2.0000     -10.280853      -279.7562
  15   2.0000     -10.276954      -279.6501
  16   2.0000      -8.085908      -220.0287
  17   2.0000      -8.077959      -219.8125
  18   2.0000      -6.044468      -164.4783
  19   2.0000      -6.040309      -164.3652
  20   2.0000      -6.036819      -164.2702
  21   2.0000      -6.036527      -164.2622
  22   2.0000      -6.032237      -164.1455
  23   2.0000      -6.028834      -164.0529
  24   2.0000      -1.006269       -27.3820
  25   2.0000      -0.983796       -26.7704
  26   2.0000      -0.914081       -24.8734
  27   2.0000      -0.906954       -24.6795
  28   2.0000      -0.872763       -23.7491
  29   2.0000      -0.849848       -23.1255
  30   2.0000      -0.843039       -22.9402
  31   2.0000      -0.817558       -22.2469
  32   2.0000      -0.783463       -21.3191
  33   2.0000      -0.766215       -20.8498
  34   2.0000      -0.710668       -19.3382
  35   2.0000      -0.701628       -19.0923
  36   2.0000      -0.696406       -18.9502
  37   2.0000      -0.659425       -17.9439
  38   2.0000      -0.639399       -17.3989
  39   2.0000      -0.620579       -16.8868
  40   2.0000      -0.595989       -16.2177
  41   2.0000      -0.575985       -15.6733
  42   2.0000      -0.562868       -15.3164
  43   2.0000      -0.549759       -14.9597
  44   2.0000      -0.538029       -14.6405
  45   2.0000      -0.529184       -14.3998
  46   2.0000      -0.520018       -14.1504
  47   2.0000      -0.517600       -14.0846
  48   2.0000      -0.505739       -13.7619
  49   2.0000      -0.501363       -13.6428
  50   2.0000      -0.493110       -13.4182
  51   2.0000      -0.480534       -13.0760
  52   2.0000      -0.474988       -12.9251
  53   2.0000      -0.462733       -12.5916
  54   2.0000      -0.457622       -12.4525
  55   2.0000      -0.448625       -12.2077
  56   2.0000      -0.443542       -12.0694
  57   2.0000      -0.436337       -11.8733
  58   2.0000      -0.433634       -11.7998
  59   2.0000      -0.423512       -11.5244
  60   2.0000      -0.418269       -11.3817
  61   2.0000      -0.411384       -11.1943
  62   2.0000      -0.408397       -11.1130
  63   2.0000      -0.343016        -9.3339
  64   2.0000      -0.330307        -8.9881
  65   2.0000      -0.322645        -8.7796
  66   2.0000      -0.294259        -8.0072
  67   0.0000       0.031560         0.8588
  68   0.0000       0.070213         1.9106
  69   0.0000       0.112539         3.0624
  70   0.0000       0.124058         3.3758
  71   0.0000       0.131504         3.5784

MULLIKEN ATOMIC CHARGES
-----------------------
   0 S :    0.130081
   1 C :   -0.099165
   2 C :   -0.144430
   3 C :    0.054102
   4 C :   -0.161837
   5 H :    0.003051
   6 C :    0.089504
   7 H :    0.025964
   8 H :    0.022761
   9 C :   -0.085552
  10 H :    0.035618
  11 H :    0.044084
  12 C :   -0.068056
  13 H :    0.024566
  14 H :    0.040579
  15 H :    0.032512
  16 S :    0.106330
  17 C :   -0.093728
  18 C :    0.003281
  19 C :   -0.039933
  20 C :   -0.153636
  21 H :   -0.035546
  22 C :    0.077627
  23 H :    0.017336
  24 H :    0.043521
  25 C :   -0.125066
  26 H :    0.044774
  27 H :    0.038301
  28 C :   -0.019692
  29 H :    0.027695
  30 H :    0.025897
  31 H :    0.036783
  32 H :    0.038333
  33 H :    0.063939
Sum of atomic charges:   -0.0000000

LOEWDIN ATOMIC CHARGES
----------------------
   0 S :    0.436290
   1 C :   -0.215689
   2 C :   -0.060317
   3 C :   -0.053653
   4 C :   -0.198835
   5 H :    0.021636
   6 C :   -0.037225
   7 H :    0.030430
   8 H :    0.037471
   9 C :   -0.051079
  10 H :    0.028092
  11 H :    0.033834
  12 C :   -0.065254
  13 H :    0.017901
  14 H :    0.032078
  15 H :    0.021558
  16 S :    0.420019
  17 C :   -0.180239
  18 C :   -0.058939
  19 C :   -0.053197
  20 C :   -0.226737
  21 H :    0.007483
  22 C :   -0.040504
  23 H :    0.023031
  24 H :    0.038639
  25 C :   -0.039613
  26 H :    0.026392
  27 H :    0.027313
  28 C :   -0.060855
  29 H :    0.022037
  30 H :    0.023790
  31 H :    0.028978
  32 H :    0.030823
  33 H :    0.034341

  Mayer bond orders larger than 0.100000
B(  0-S ,  1-C ) :   1.1402 B(  0-S ,  4-C ) :   1.1674 B(  1-C ,  2-C ) :   1.6033
B(  1-C , 32-H ) :   0.9623 B(  2-C ,  3-C ) :   1.2580 B(  2-C ,  6-C ) :   1.0372
B(  3-C ,  4-C ) :   1.5396 B(  3-C ,  5-H ) :   0.9958 B(  4-C , 20-C ) :   1.0362
B(  6-C ,  7-H ) :   0.9372 B(  6-C ,  8-H ) :   0.9353 B(  6-C ,  9-C ) :   1.0436
B(  9-C , 10-H ) :   0.9652 B(  9-C , 11-H ) :   0.9595 B(  9-C , 12-C ) :   1.0661
B( 12-C , 13-H ) :   0.9780 B( 12-C , 14-H ) :   0.9769 B( 12-C , 15-H ) :   0.9726
B( 16-S , 17-C ) :   1.1534 B( 16-S , 20-C ) :   1.1579 B( 17-C , 18-C ) :   1.5995
B( 17-C , 33-H ) :   0.9644 B( 18-C , 19-C ) :   1.2557 B( 18-C , 21-H ) :   1.0062
B( 19-C , 20-C ) :   1.5476 B( 19-C , 22-C ) :   1.0389 B( 22-C , 23-H ) :   0.9320
B( 22-C , 24-H ) :   0.9228 B( 22-C , 25-C ) :   1.0695 B( 25-C , 26-H ) :   0.9484
B( 25-C , 27-H ) :   0.9577 B( 25-C , 28-C ) :   1.0784 B( 28-C , 29-H ) :   0.9743
B( 28-C , 30-H ) :   0.9757 B( 28-C , 31-H ) :   0.9745

Dispersion correction           -0.013968346
FINAL SINGLE POINT ENERGY     -1339.867822509651

DIPOLE MOMENT
-------------
                                X             Y             Z
Electronic contribution:    -10.14112       7.91445       5.13215
Nuclear contribution   :     10.62916      -8.09842      -5.29039
                        -----------------------------------------
Total Dipole Moment    :      0.48804      -0.18397      -0.15824
                        -----------------------------------------
Magnitude (a.u.)       :      0.54504
Magnitude (Debye)      :      1.38538

Rotational constants in cm-1:     0.020683     0.007888     0.006380
Rotational constants in MHz :   620.053708   236.471262   191.253184

                             ****ORCA TERMINATED NORMALLY****
TOTAL RUN TIME: 0 days 0 hours 0 minutes 34 seconds 514 msec
