                         Program Version 4.2.1 -  RELEASE  -
|  1> ! wB97X-D3 SP def2-SVP
|  2> %pal
|  3> nprocs 16
|  4> end
|  5>
|  6> * xyz 0 1
|  7> S 	 -35.1957 	 69.4297 	 146.683
|  8> C 	 -36.0172 	 70.5643 	 145.637
|  9> C 	 -36.1949 	 70.1287 	 144.312
| 10> C 	 -35.6182 	 68.8547 	 144.103
| 11> C 	 -35.1576 	 68.2754 	 145.247
| 12> H 	 -35.4942 	 68.3852 	 143.062
| 13> C 	 -36.7646 	 70.9624 	 143.159
| 14> H 	 -36.3024 	 70.7413 	 142.197
| 15> H 	 -36.5357 	 71.9639 	 143.524
| 16> C 	 -38.3094 	 70.8753 	 143.109
| 17> H 	 -38.6131 	 70.9196 	 144.178
| 18> H 	 -38.6856 	 71.7398 	 142.532
| 19> C 	 -38.8093 	 69.5786 	 142.329
| 20> H 	 -38.4462 	 68.6424 	 142.713
| 21> H 	 -39.892 	 69.5737 	 142.272
| 22> H 	 -38.5857 	 69.7399 	 141.328
| 23> S 	 -32.9029 	 66.9639 	 146.244
| 24> C 	 -32.6922 	 65.2704 	 145.923
| 25> C 	 -33.6697 	 64.7994 	 145.081
| 26> C 	 -34.6421 	 65.7982 	 144.74
| 27> C 	 -34.3739 	 67.0529 	 145.255
| 28> H 	 -33.5391 	 63.8076 	 144.712
| 29> C 	 -35.9091 	 65.4117 	 144.017
| 30> H 	 -36.3933 	 66.2747 	 143.451
| 31> H 	 -36.6207 	 65.2152 	 144.862
| 32> C 	 -35.9297 	 64.2145 	 143.091
| 33> H 	 -36.895 	 63.8563 	 142.849
| 34> H 	 -35.4834 	 63.4212 	 143.679
| 35> C 	 -35.0854 	 64.2461 	 141.804
| 36> H 	 -34.0433 	 64.4205 	 142.198
| 37> H 	 -35.3079 	 65.0222 	 141.037
| 38> H 	 -35.0641 	 63.3525 	 141.296
| 39> H 	 -36.1192 	 71.6277 	 145.9
| 40> H 	 -31.808 	 64.6649 	 146.167
| 41> *
| 42>
| 43>                          ****END OF INPUT****

CARTESIAN COORDINATES (ANGSTROEM)
---------------------------------
  S    -35.195700   69.429700  146.683000
  C    -36.017200   70.564300  145.637000
  C    -36.194900   70.128700  144.312000
  C    -35.618200   68.854700  144.103000
  C    -35.157600   68.275400  145.247000
  H    -35.494200   68.385200  143.062000
  C    -36.764600   70.962400  143.159000
  H    -36.302400   70.741300  142.197000
  H    -36.535700   71.963900  143.524000
  C    -38.309400   70.875300  143.109000
  H    -38.613100   70.919600  144.178000
  H    -38.685600   71.739800  142.532000
  C    -38.809300   69.578600  142.329000
  H    -38.446200   68.642400  142.713000
  H    -39.892000   69.573700  142.272000
  H    -38.585700   69.739900  141.328000
  S    -32.902900   66.963900  146.244000
  C    -32.692200   65.270400  145.923000
  C    -33.669700   64.799400  145.081000
  C    -34.642100   65.798200  144.740000
  C    -34.373900   67.052900  145.255000
  H    -33.539100   63.807600  144.712000
  C    -35.909100   65.411700  144.017000
  H    -36.393300   66.274700  143.451000
  H    -36.620700   65.215200  144.862000
  C    -35.929700   64.214500  143.091000
  H    -36.895000   63.856300  142.849000
  H    -35.483400   63.421200  143.679000
  C    -35.085400   64.246100  141.804000
  H    -34.043300   64.420500  142.198000
  H    -35.307900   65.022200  141.037000
  H    -35.064100   63.352500  141.296000
  H    -36.119200   71.627700  145.900000
  H    -31.808000   64.664900  146.167000

 Total Charge           Charge          ....    0
 Multiplicity           Mult            ....    1
 Number of Electrons    NEL             ....  134
 Basis Dimension        Dim             ....  322

ORBITAL ENERGIES
----------------

  NO   OCC          E(Eh)            E(eV)
   0   2.0000     -88.972667     -2421.0694
   1   2.0000     -88.963706     -2420.8255
   2   2.0000     -10.333382      -281.1856
   3   2.0000     -10.326049      -280.9861
   4   2.0000     -10.318375      -280.7773
   5   2.0000     -10.317670      -280.7581
   6   2.0000     -10.305303      -280.4215
   7   2.0000     -10.302861      -280.3551
   8   2.0000     -10.298929      -280.2481
   9   2.0000     -10.296363      -280.1783
  10   2.0000     -10.294315      -280.1226
  11   2.0000     -10.294098      -280.1166
  12   2.0000     -10.291846      -280.0554
  13   2.0000     -10.282476      -279.8004
  14   2.0000     -10.276182      -279.6291
  15   2.0000     -10.274223      -279.5758
  16   2.0000      -8.085762      -220.0248
  17   2.0000      -8.078377      -219.8238
  18   2.0000      -6.044372      -164.4757
  19   2.0000      -6.040724      -164.3764
  20   2.0000      -6.036931      -164.2732
  21   2.0000      -6.036292      -164.2558
  22   2.0000      -6.032855      -164.1623
  23   2.0000      -6.029121      -164.0607
  24   2.0000      -1.003529       -27.3074
  25   2.0000      -0.980876       -26.6910
  26   2.0000      -0.910283       -24.7701
  27   2.0000      -0.906061       -24.6552
  28   2.0000      -0.870177       -23.6787
  29   2.0000      -0.849994       -23.1295
  30   2.0000      -0.843831       -22.9618
  31   2.0000      -0.816150       -22.2086
  32   2.0000      -0.785417       -21.3723
  33   2.0000      -0.771742       -21.0002
  34   2.0000      -0.706599       -19.2275
  35   2.0000      -0.699933       -19.0462
  36   2.0000      -0.693374       -18.8677
  37   2.0000      -0.655655       -17.8413
  38   2.0000      -0.634003       -17.2521
  39   2.0000      -0.616888       -16.7864
  40   2.0000      -0.596051       -16.2194
  41   2.0000      -0.575530       -15.6610
  42   2.0000      -0.556013       -15.1299
  43   2.0000      -0.548513       -14.9258
  44   2.0000      -0.546031       -14.8583
  45   2.0000      -0.533253       -14.5105
  46   2.0000      -0.515782       -14.0351
  47   2.0000      -0.502320       -13.6688
  48   2.0000      -0.497540       -13.5387
  49   2.0000      -0.493708       -13.4345
  50   2.0000      -0.492940       -13.4136
  51   2.0000      -0.478019       -13.0076
  52   2.0000      -0.473380       -12.8813
  53   2.0000      -0.468534       -12.7495
  54   2.0000      -0.458923       -12.4879
  55   2.0000      -0.450425       -12.2567
  56   2.0000      -0.450086       -12.2475
  57   2.0000      -0.435688       -11.8557
  58   2.0000      -0.430211       -11.7066
  59   2.0000      -0.428552       -11.6615
  60   2.0000      -0.417059       -11.3488
  61   2.0000      -0.414403       -11.2765
  62   2.0000      -0.409475       -11.1424
  63   2.0000      -0.355720        -9.6796
  64   2.0000      -0.331820        -9.0293
  65   2.0000      -0.328492        -8.9387
  66   2.0000      -0.284808        -7.7500
  67   0.0000       0.019947         0.5428
  68   0.0000       0.067636         1.8405
  69   0.0000       0.097085         2.6418
  70   0.0000       0.122804         3.3417
  71   0.0000       0.132713         3.6113

MULLIKEN ATOMIC CHARGES
-----------------------
   0 S :    0.108822
   1 C :   -0.131123
   2 C :   -0.106136
   3 C :   -0.016125
   4 C :   -0.130619
   5 H :    0.058896
   6 C :    0.076831
   7 H :    0.029150
   8 H :    0.019098
   9 C :   -0.088594
  10 H :    0.039855
  11 H :    0.035746
  12 C :   -0.025675
  13 H :    0.041100
  14 H :    0.027703
  15 H :    0.009449
  16 S :    0.096143
  17 C :   -0.098177
  18 C :   -0.048023
  19 C :   -0.033347
  20 C :   -0.146054
  21 H :    0.016979
  22 C :    0.034298
  23 H :    0.029690
  24 H :    0.055233
  25 C :   -0.048403
  26 H :    0.017300
  27 H :    0.013940
  28 C :   -0.045810
  29 H :    0.028850
  30 H :    0.033887
  31 H :    0.019451
  32 H :    0.059630
  33 H :    0.066033
Sum of atomic charges:   -0.0000000

LOEWDIN ATOMIC CHARGES
----------------------
   0 S :    0.372992
   1 C :   -0.205506
   2 C :   -0.062257
   3 C :   -0.063384
   4 C :   -0.166460
   5 H :    0.050525
   6 C :   -0.029058
   7 H :    0.027860
   8 H :    0.031643
   9 C :   -0.034402
  10 H :    0.027375
  11 H :    0.025189
  12 C :   -0.061910
  13 H :    0.022356
  14 H :    0.027692
  15 H :    0.015980
  16 S :    0.395012
  17 C :   -0.186896
  18 C :   -0.078553
  19 C :   -0.057728
  20 C :   -0.191884
  21 H :    0.028300
  22 C :   -0.040397
  23 H :    0.031887
  24 H :    0.048681
  25 C :   -0.042704
  26 H :    0.019678
  27 H :    0.022074
  28 C :   -0.065058
  29 H :    0.030901
  30 H :    0.026048
  31 H :    0.014254
  32 H :    0.030467
  33 H :    0.037281

  Mayer bond orders larger than 0.100000
B(  0-S ,  1-C ) :   1.1365 B(  0-S ,  4-C ) :   1.1136 B(  1-C ,  2-C ) :   1.6174
B(  1-C , 32-H ) :   0.9554 B(  2-C ,  3-C ) :   1.2533 B(  2-C ,  6-C ) :   1.0151
B(  3-C ,  4-C ) :   1.5933 B(  3-C ,  5-H ) :   0.9692 B(  4-C , 20-C ) :   1.0776
B(  6-C ,  7-H ) :   0.9510 B(  6-C ,  8-H ) :   0.9337 B(  6-C ,  9-C ) :   1.0634
B(  9-C , 10-H ) :   0.9575 B(  9-C , 11-H ) :   0.9582 B(  9-C , 12-C ) :   1.0702
B( 12-C , 13-H ) :   0.9794 B( 12-C , 14-H ) :   0.9737 B( 12-C , 15-H ) :   0.9732
B( 16-S , 17-C ) :   1.1595 B( 16-S , 20-C ) :   1.1197 B( 17-C , 18-C ) :   1.6258
B( 17-C , 33-H ) :   0.9584 B( 18-C , 19-C ) :   1.2234 B( 18-C , 21-H ) :   0.9894
B( 19-C , 20-C ) :   1.6027 B( 19-C , 22-C ) :   1.0330 B( 22-C , 23-H ) :   0.9367
B( 22-C , 24-H ) :   0.9253 B( 22-C , 25-C ) :   1.0820 B( 25-C , 26-H ) :   0.9514
B( 25-C , 27-H ) :   0.9434 B( 25-C , 28-C ) :   1.0796 B( 28-C , 29-H ) :   0.9736
B( 28-C , 30-H ) :   0.9753 B( 28-C , 31-H ) :   0.9740

Dispersion correction           -0.014335200
FINAL SINGLE POINT ENERGY     -1339.866000294856

DIPOLE MOMENT
-------------
                                X             Y             Z
Electronic contribution:     17.26795       5.16877      23.79796
Nuclear contribution   :    -17.48860      -5.29651     -24.44038
                        -----------------------------------------
Total Dipole Moment    :     -0.22065      -0.12774      -0.64242
                        -----------------------------------------
Magnitude (a.u.)       :      0.69116
Magnitude (Debye)      :      1.75679

Rotational constants in cm-1:     0.017392     0.009577     0.006556
Rotational constants in MHz :   521.410949   287.118371   196.544658

                             ****ORCA TERMINATED NORMALLY****
TOTAL RUN TIME: 0 days 0 hours 0 minutes 33 seconds 680 msec
