                         Program Version 4.2.1 -  RELEASE  -
|  1> ! wB97X-D3 SP def2-SVP
|  2> %pal
|  3> nprocs 16
|  4> end
|  5>
|  6> * xyz 0 1
|  7> S 	 -24.9721 	 -4.97063 	 88.2885
|  8> C 	 -26.7467 	 -5.12242 	 88.3728
|  9> C 	 -27.4118 	 -4.0736 	 87.7381
| 10> C 	 -26.4684 	 -3.27103 	 86.9908
| 11> C 	 -25.1774 	 -3.70056 	 87.0567
| 12> H 	 -26.7659 	 -2.4381 	 86.4455
| 13> C 	 -28.9147 	 -3.59968 	 87.8424
| 14> H 	 -28.9716 	 -2.58814 	 87.4906
| 15> H 	 -29.2597 	 -3.474 	 88.8752
| 16> C 	 -29.917 	 -4.4031 	 86.8926
| 17> H 	 -29.9679 	 -5.42116 	 87.1323
| 18> H 	 -30.8659 	 -3.92504 	 87.1527
| 19> C 	 -29.5774 	 -4.1834 	 85.4594
| 20> H 	 -28.6179 	 -4.658 	 85.2176
| 21> H 	 -30.4564 	 -4.59664 	 84.8448
| 22> H 	 -29.4051 	 -3.11277 	 85.2749
| 23> S 	 -22.6453 	 -2.53068 	 87.4415
| 24> C 	 -21.872 	 -1.80857 	 86.141
| 25> C 	 -22.5277 	 -2.00288 	 84.8975
| 26> C 	 -23.7353 	 -2.65875 	 85.0523
| 27> C 	 -24.0001 	 -3.13146 	 86.4066
| 28> H 	 -22.0364 	 -1.7641 	 83.8805
| 29> C 	 -24.6962 	 -2.93485 	 83.9074
| 30> H 	 -25.3979 	 -3.6634 	 84.3767
| 31> H 	 -24.2314 	 -3.42408 	 83.1023
| 32> C 	 -25.5013 	 -1.63311 	 83.6294
| 33> H 	 -24.8806 	 -0.810148 	 83.2533
| 34> H 	 -25.9827 	 -1.39305 	 84.5647
| 35> C 	 -26.5693 	 -1.7969 	 82.4976
| 36> H 	 -27.2835 	 -2.59128 	 82.8417
| 37> H 	 -26.1101 	 -2.14018 	 81.6075
| 38> H 	 -26.9616 	 -0.832103 	 82.3712
| 39> H 	 -27.2872 	 -5.77775 	 89.0427
| 40> H 	 -21.0431 	 -1.08768 	 86.3406
| 41> *
| 42>
| 43>                          ****END OF INPUT****

CARTESIAN COORDINATES (ANGSTROEM)
---------------------------------
  S    -24.972100   -4.970630   88.288500
  C    -26.746700   -5.122420   88.372800
  C    -27.411800   -4.073600   87.738100
  C    -26.468400   -3.271030   86.990800
  C    -25.177400   -3.700560   87.056700
  H    -26.765900   -2.438100   86.445500
  C    -28.914700   -3.599680   87.842400
  H    -28.971600   -2.588140   87.490600
  H    -29.259700   -3.474000   88.875200
  C    -29.917000   -4.403100   86.892600
  H    -29.967900   -5.421160   87.132300
  H    -30.865900   -3.925040   87.152700
  C    -29.577400   -4.183400   85.459400
  H    -28.617900   -4.658000   85.217600
  H    -30.456400   -4.596640   84.844800
  H    -29.405100   -3.112770   85.274900
  S    -22.645300   -2.530680   87.441500
  C    -21.872000   -1.808570   86.141000
  C    -22.527700   -2.002880   84.897500
  C    -23.735300   -2.658750   85.052300
  C    -24.000100   -3.131460   86.406600
  H    -22.036400   -1.764100   83.880500
  C    -24.696200   -2.934850   83.907400
  H    -25.397900   -3.663400   84.376700
  H    -24.231400   -3.424080   83.102300
  C    -25.501300   -1.633110   83.629400
  H    -24.880600   -0.810148   83.253300
  H    -25.982700   -1.393050   84.564700
  C    -26.569300   -1.796900   82.497600
  H    -27.283500   -2.591280   82.841700
  H    -26.110100   -2.140180   81.607500
  H    -26.961600   -0.832103   82.371200
  H    -27.287200   -5.777750   89.042700
  H    -21.043100   -1.087680   86.340600

 Total Charge           Charge          ....    0
 Multiplicity           Mult            ....    1
 Number of Electrons    NEL             ....  134
 Basis Dimension        Dim             ....  322

ORBITAL ENERGIES
----------------

  NO   OCC          E(Eh)            E(eV)
   0   2.0000     -88.969142     -2420.9734
   1   2.0000     -88.967221     -2420.9212
   2   2.0000     -10.332437      -281.1599
   3   2.0000     -10.331948      -281.1466
   4   2.0000     -10.321615      -280.8654
   5   2.0000     -10.317603      -280.7563
   6   2.0000     -10.307375      -280.4779
   7   2.0000     -10.307347      -280.4772
   8   2.0000     -10.300376      -280.2875
   9   2.0000     -10.299939      -280.2756
  10   2.0000     -10.290007      -280.0053
  11   2.0000     -10.288181      -279.9556
  12   2.0000     -10.288120      -279.9540
  13   2.0000     -10.284902      -279.8664
  14   2.0000     -10.282694      -279.8063
  15   2.0000     -10.274143      -279.5736
  16   2.0000      -8.084264      -219.9840
  17   2.0000      -8.081077      -219.8973
  18   2.0000      -6.042426      -164.4228
  19   2.0000      -6.039748      -164.3499
  20   2.0000      -6.038482      -164.3155
  21   2.0000      -6.035988      -164.2476
  22   2.0000      -6.035604      -164.2371
  23   2.0000      -6.031440      -164.1238
  24   2.0000      -1.000945       -27.2371
  25   2.0000      -0.979767       -26.6608
  26   2.0000      -0.908947       -24.7337
  27   2.0000      -0.908102       -24.7107
  28   2.0000      -0.864006       -23.5108
  29   2.0000      -0.854236       -23.2449
  30   2.0000      -0.844765       -22.9872
  31   2.0000      -0.806474       -21.9453
  32   2.0000      -0.783698       -21.3255
  33   2.0000      -0.768003       -20.8984
  34   2.0000      -0.702846       -19.1254
  35   2.0000      -0.698469       -19.0063
  36   2.0000      -0.691317       -18.8117
  37   2.0000      -0.655735       -17.8434
  38   2.0000      -0.637749       -17.3540
  39   2.0000      -0.619130       -16.8474
  40   2.0000      -0.594597       -16.1798
  41   2.0000      -0.569762       -15.5040
  42   2.0000      -0.567782       -15.4501
  43   2.0000      -0.547451       -14.8969
  44   2.0000      -0.540078       -14.6963
  45   2.0000      -0.533797       -14.5254
  46   2.0000      -0.509683       -13.8692
  47   2.0000      -0.508979       -13.8500
  48   2.0000      -0.506688       -13.7877
  49   2.0000      -0.495396       -13.4804
  50   2.0000      -0.491014       -13.3612
  51   2.0000      -0.474474       -12.9111
  52   2.0000      -0.468929       -12.7602
  53   2.0000      -0.463990       -12.6258
  54   2.0000      -0.452335       -12.3087
  55   2.0000      -0.449817       -12.2401
  56   2.0000      -0.443465       -12.0673
  57   2.0000      -0.441709       -12.0195
  58   2.0000      -0.436866       -11.8877
  59   2.0000      -0.431544       -11.7429
  60   2.0000      -0.420459       -11.4413
  61   2.0000      -0.414271       -11.2729
  62   2.0000      -0.408307       -11.1106
  63   2.0000      -0.345932        -9.4133
  64   2.0000      -0.335624        -9.1328
  65   2.0000      -0.330653        -8.9975
  66   2.0000      -0.281495        -7.6599
  67   0.0000       0.024192         0.6583
  68   0.0000       0.056566         1.5392
  69   0.0000       0.100861         2.7446
  70   0.0000       0.121668         3.3108
  71   0.0000       0.124799         3.3960

MULLIKEN ATOMIC CHARGES
-----------------------
   0 S :    0.098973
   1 C :   -0.107444
   2 C :   -0.097741
   3 C :    0.047573
   4 C :   -0.130829
   5 H :   -0.025577
   6 C :    0.032540
   7 H :    0.011183
   8 H :    0.040179
   9 C :   -0.039252
  10 H :    0.026684
  11 H :    0.027045
  12 C :   -0.078643
  13 H :    0.049618
  14 H :    0.054813
  15 H :    0.024424
  16 S :    0.115847
  17 C :   -0.119946
  18 C :   -0.058723
  19 C :   -0.055240
  20 C :   -0.153680
  21 H :    0.053680
  22 C :    0.075087
  23 H :    0.029411
  24 H :    0.021939
  25 C :   -0.113796
  26 H :    0.034256
  27 H :    0.027745
  28 C :   -0.003029
  29 H :    0.036131
  30 H :    0.021042
  31 H :    0.030170
  32 H :    0.042805
  33 H :    0.082754
Sum of atomic charges:    0.0000000

LOEWDIN ATOMIC CHARGES
----------------------
   0 S :    0.375616
   1 C :   -0.186171
   2 C :   -0.058701
   3 C :   -0.058512
   4 C :   -0.180213
   5 H :    0.016468
   6 C :   -0.027219
   7 H :    0.024496
   8 H :    0.031374
   9 C :   -0.032709
  10 H :    0.015469
  11 H :    0.024503
  12 C :   -0.071428
  13 H :    0.028283
  14 H :    0.039216
  15 H :    0.022306
  16 S :    0.430790
  17 C :   -0.212733
  18 C :   -0.093292
  19 C :   -0.045716
  20 C :   -0.204887
  21 H :    0.049640
  22 C :   -0.028967
  23 H :    0.035786
  24 H :    0.021503
  25 C :   -0.032162
  26 H :    0.023392
  27 H :    0.019345
  28 C :   -0.056589
  29 H :    0.029877
  30 H :    0.018029
  31 H :    0.019695
  32 H :    0.025234
  33 H :    0.038276

  Mayer bond orders larger than 0.100000
B(  0-S ,  1-C ) :   1.1220 B(  0-S ,  4-C ) :   1.1255 B(  1-C ,  2-C ) :   1.6541
B(  1-C , 32-H ) :   0.9646 B(  2-C ,  3-C ) :   1.2148 B(  2-C ,  6-C ) :   1.0002
B(  3-C ,  4-C ) :   1.5870 B(  3-C ,  5-H ) :   1.0050 B(  4-C , 20-C ) :   1.0435
B(  6-C ,  7-H ) :   0.9474 B(  6-C ,  8-H ) :   0.9512 B(  6-C ,  9-C ) :   1.0601
B(  9-C , 10-H ) :   0.9612 B(  9-C , 11-H ) :   0.9561 B(  9-C , 12-C ) :   1.0775
B( 12-C , 13-H ) :   0.9713 B( 12-C , 14-H ) :   0.9705 B( 12-C , 15-H ) :   0.9737
B( 16-S , 17-C ) :   1.2304 B( 16-S , 20-C ) :   1.1473 B( 17-C , 18-C ) :   1.5027
B( 17-C , 20-C ) :   0.1227 B( 17-C , 33-H ) :   0.9590 B( 18-C , 19-C ) :   1.3360
B( 18-C , 21-H ) :   0.9779 B( 19-C , 20-C ) :   1.5120 B( 19-C , 22-C ) :   1.0421
B( 22-C , 23-H ) :   0.9331 B( 22-C , 24-H ) :   0.9428 B( 22-C , 25-C ) :   1.0517
B( 25-C , 26-H ) :   0.9617 B( 25-C , 27-H ) :   0.9534 B( 25-C , 28-C ) :   1.0813
B( 28-C , 29-H ) :   0.9747 B( 28-C , 30-H ) :   0.9746 B( 28-C , 31-H ) :   0.9762

Dispersion correction           -0.015114417
FINAL SINGLE POINT ENERGY     -1339.857194520148

DIPOLE MOMENT
-------------
                                X             Y             Z
Electronic contribution:     25.07825      -5.00810      19.25756
Nuclear contribution   :    -25.53795       5.41431     -19.59151
                        -----------------------------------------
Total Dipole Moment    :     -0.45970       0.40621      -0.33395
                        -----------------------------------------
Magnitude (a.u.)       :      0.69846
Magnitude (Debye)      :      1.77535

Rotational constants in cm-1:     0.017186     0.010186     0.006841
Rotational constants in MHz :   515.236277   305.357153   205.080052

                             ****ORCA TERMINATED NORMALLY****
TOTAL RUN TIME: 0 days 0 hours 0 minutes 35 seconds 131 msec
