                         Program Version 4.2.1 -  RELEASE  -
|  1> ! wB97X-D3 SP def2-SVP
|  2> %pal
|  3> nprocs 16
|  4> end
|  5>
|  6> * xyz 0 1
|  7> S 	 48.0258 	 23.1273 	 89.6715
|  8> C 	 46.8263 	 23.9966 	 90.5873
|  9> C 	 45.9924 	 24.8051 	 89.8193
| 10> C 	 46.4574 	 24.745 	 88.4426
| 11> C 	 47.6067 	 23.9682 	 88.2271
| 12> H 	 45.8939 	 25.0927 	 87.5763
| 13> C 	 44.7598 	 25.5122 	 90.2476
| 14> H 	 44.5337 	 26.258 	 89.5076
| 15> H 	 44.8957 	 26.0106 	 91.1676
| 16> C 	 43.4259 	 24.6706 	 90.3828
| 17> H 	 42.563 	 25.3684 	 90.1334
| 18> H 	 43.4164 	 23.8656 	 89.6728
| 19> C 	 43.2387 	 24.1201 	 91.8462
| 20> H 	 42.2928 	 23.441 	 91.8101
| 21> H 	 44.0603 	 23.404 	 92.0396
| 22> H 	 43.1649 	 24.8668 	 92.5905
| 23> S 	 48.237 	 21.8644 	 86.5815
| 24> C 	 48.7343 	 22.2472 	 84.887
| 25> C 	 48.8243 	 23.6162 	 84.6712
| 26> C 	 48.5201 	 24.3672 	 85.846
| 27> C 	 48.1114 	 23.5899 	 86.9352
| 28> H 	 49.169 	 24.0334 	 83.7177
| 29> C 	 48.5248 	 25.8672 	 85.792
| 30> H 	 47.4942 	 26.1751 	 85.6686
| 31> H 	 48.9838 	 26.1839 	 84.8083
| 32> C 	 49.1602 	 26.7521 	 86.9283
| 33> H 	 50.107 	 26.3533 	 87.0901
| 34> H 	 48.62 	 26.4953 	 87.8482
| 35> C 	 49.2344 	 28.1892 	 86.5953
| 36> H 	 49.7504 	 28.8254 	 87.375
| 37> H 	 48.2243 	 28.481 	 86.4004
| 38> H 	 49.684 	 28.3383 	 85.5967
| 39> H 	 46.6756 	 23.8405 	 91.7323
| 40> H 	 49.0111 	 21.617 	 84.0863
| 41> *
| 42>
| 43>                          ****END OF INPUT****

CARTESIAN COORDINATES (ANGSTROEM)
---------------------------------
  S     48.025800   23.127300   89.671500
  C     46.826300   23.996600   90.587300
  C     45.992400   24.805100   89.819300
  C     46.457400   24.745000   88.442600
  C     47.606700   23.968200   88.227100
  H     45.893900   25.092700   87.576300
  C     44.759800   25.512200   90.247600
  H     44.533700   26.258000   89.507600
  H     44.895700   26.010600   91.167600
  C     43.425900   24.670600   90.382800
  H     42.563000   25.368400   90.133400
  H     43.416400   23.865600   89.672800
  C     43.238700   24.120100   91.846200
  H     42.292800   23.441000   91.810100
  H     44.060300   23.404000   92.039600
  H     43.164900   24.866800   92.590500
  S     48.237000   21.864400   86.581500
  C     48.734300   22.247200   84.887000
  C     48.824300   23.616200   84.671200
  C     48.520100   24.367200   85.846000
  C     48.111400   23.589900   86.935200
  H     49.169000   24.033400   83.717700
  C     48.524800   25.867200   85.792000
  H     47.494200   26.175100   85.668600
  H     48.983800   26.183900   84.808300
  C     49.160200   26.752100   86.928300
  H     50.107000   26.353300   87.090100
  H     48.620000   26.495300   87.848200
  C     49.234400   28.189200   86.595300
  H     49.750400   28.825400   87.375000
  H     48.224300   28.481000   86.400400
  H     49.684000   28.338300   85.596700
  H     46.675600   23.840500   91.732300
  H     49.011100   21.617000   84.086300

 Total Charge           Charge          ....    0
 Multiplicity           Mult            ....    1
 Number of Electrons    NEL             ....  134
 Basis Dimension        Dim             ....  322

ORBITAL ENERGIES
----------------

  NO   OCC          E(Eh)            E(eV)
   0   2.0000     -88.970695     -2421.0157
   1   2.0000     -88.969542     -2420.9843
   2   2.0000     -10.328301      -281.0474
   3   2.0000     -10.327188      -281.0171
   4   2.0000     -10.323635      -280.9204
   5   2.0000     -10.319332      -280.8033
   6   2.0000     -10.306461      -280.4531
   7   2.0000     -10.303557      -280.3740
   8   2.0000     -10.298905      -280.2475
   9   2.0000     -10.296778      -280.1896
  10   2.0000     -10.296691      -280.1872
  11   2.0000     -10.291488      -280.0456
  12   2.0000     -10.289591      -279.9940
  13   2.0000     -10.288365      -279.9606
  14   2.0000     -10.276234      -279.6305
  15   2.0000     -10.272568      -279.5308
  16   2.0000      -8.085823      -220.0264
  17   2.0000      -8.082838      -219.9452
  18   2.0000      -6.044269      -164.4729
  19   2.0000      -6.041576      -164.3996
  20   2.0000      -6.040254      -164.3637
  21   2.0000      -6.037604      -164.2916
  22   2.0000      -6.036645      -164.2655
  23   2.0000      -6.033379      -164.1766
  24   2.0000      -1.006984       -27.4014
  25   2.0000      -0.979300       -26.6481
  26   2.0000      -0.910714       -24.7818
  27   2.0000      -0.905624       -24.6433
  28   2.0000      -0.868559       -23.6347
  29   2.0000      -0.853489       -23.2246
  30   2.0000      -0.846508       -23.0347
  31   2.0000      -0.810962       -22.0674
  32   2.0000      -0.782917       -21.3043
  33   2.0000      -0.766061       -20.8456
  34   2.0000      -0.710676       -19.3385
  35   2.0000      -0.700731       -19.0679
  36   2.0000      -0.688855       -18.7447
  37   2.0000      -0.663126       -18.0446
  38   2.0000      -0.638178       -17.3657
  39   2.0000      -0.618719       -16.8362
  40   2.0000      -0.591171       -16.0866
  41   2.0000      -0.572050       -15.5663
  42   2.0000      -0.560143       -15.2423
  43   2.0000      -0.540492       -14.7075
  44   2.0000      -0.537637       -14.6299
  45   2.0000      -0.525487       -14.2992
  46   2.0000      -0.516073       -14.0431
  47   2.0000      -0.509878       -13.8745
  48   2.0000      -0.504562       -13.7298
  49   2.0000      -0.494130       -13.4460
  50   2.0000      -0.492581       -13.4038
  51   2.0000      -0.481486       -13.1019
  52   2.0000      -0.474153       -12.9023
  53   2.0000      -0.464157       -12.6303
  54   2.0000      -0.455351       -12.3907
  55   2.0000      -0.453043       -12.3279
  56   2.0000      -0.446663       -12.1543
  57   2.0000      -0.440235       -11.9794
  58   2.0000      -0.427551       -11.6343
  59   2.0000      -0.426347       -11.6015
  60   2.0000      -0.420444       -11.4409
  61   2.0000      -0.417975       -11.3737
  62   2.0000      -0.408459       -11.1147
  63   2.0000      -0.348529        -9.4839
  64   2.0000      -0.330714        -8.9992
  65   2.0000      -0.329247        -8.9593
  66   2.0000      -0.287254        -7.8166
  67   0.0000       0.024498         0.6666
  68   0.0000       0.065749         1.7891
  69   0.0000       0.100888         2.7453
  70   0.0000       0.116693         3.1754
  71   0.0000       0.130244         3.5441

MULLIKEN ATOMIC CHARGES
-----------------------
   0 S :    0.121733
   1 C :   -0.163106
   2 C :   -0.081515
   3 C :    0.011931
   4 C :   -0.162640
   5 H :    0.024457
   6 C :    0.093802
   7 H :    0.016829
   8 H :    0.016940
   9 C :   -0.083333
  10 H :    0.040805
  11 H :    0.032687
  12 C :   -0.083846
  13 H :    0.047155
  14 H :    0.037201
  15 H :    0.038528
  16 S :    0.104486
  17 C :   -0.068370
  18 C :   -0.049691
  19 C :   -0.013017
  20 C :   -0.146174
  21 H :    0.028655
  22 C :   -0.004451
  23 H :    0.028542
  24 H :    0.009683
  25 C :   -0.031277
  26 H :    0.007998
  27 H :    0.041925
  28 C :   -0.024614
  29 H :    0.056418
  30 H :    0.010636
  31 H :    0.020005
  32 H :    0.082664
  33 H :    0.038953
Sum of atomic charges:   -0.0000000

LOEWDIN ATOMIC CHARGES
----------------------
   0 S :    0.425212
   1 C :   -0.214640
   2 C :   -0.065275
   3 C :   -0.057703
   4 C :   -0.212583
   5 H :    0.031940
   6 C :   -0.032148
   7 H :    0.031107
   8 H :    0.027089
   9 C :   -0.032515
  10 H :    0.029781
  11 H :    0.021043
  12 C :   -0.071203
  13 H :    0.038210
  14 H :    0.026035
  15 H :    0.016212
  16 S :    0.379816
  17 C :   -0.166705
  18 C :   -0.066165
  19 C :   -0.057778
  20 C :   -0.195421
  21 H :    0.036530
  22 C :   -0.036834
  23 H :    0.027832
  24 H :    0.029290
  25 C :   -0.040881
  26 H :    0.013534
  27 H :    0.027733
  28 C :   -0.066349
  29 H :    0.038201
  30 H :    0.020600
  31 H :    0.026567
  32 H :    0.045575
  33 H :    0.023894

  Mayer bond orders larger than 0.100000
B(  0-S ,  1-C ) :   1.1520 B(  0-S ,  4-C ) :   1.1544 B(  1-C ,  2-C ) :   1.5897
B(  1-C , 32-H ) :   0.9506 B(  2-C ,  3-C ) :   1.2578 B(  2-C ,  6-C ) :   1.0496
B(  3-C ,  4-C ) :   1.5434 B(  3-C ,  5-H ) :   0.9853 B(  4-C , 20-C ) :   1.0724
B(  6-C ,  7-H ) :   0.9356 B(  6-C ,  8-H ) :   0.9365 B(  6-C ,  9-C ) :   1.0468
B(  9-C , 10-H ) :   0.9610 B(  9-C , 11-H ) :   0.9609 B(  9-C , 12-C ) :   1.0727
B( 12-C , 13-H ) :   0.9740 B( 12-C , 14-H ) :   0.9756 B( 12-C , 15-H ) :   0.9784
B( 16-S , 17-C ) :   1.1328 B( 16-S , 20-C ) :   1.1177 B( 17-C , 18-C ) :   1.6328
B( 17-C , 33-H ) :   0.9667 B( 18-C , 19-C ) :   1.2457 B( 18-C , 21-H ) :   0.9803
B( 19-C , 20-C ) :   1.5922 B( 19-C , 22-C ) :   1.0437 B( 22-C , 23-H ) :   0.9273
B( 22-C , 24-H ) :   0.9363 B( 22-C , 25-C ) :   1.0498 B( 25-C , 26-H ) :   0.9538
B( 25-C , 27-H ) :   0.9445 B( 25-C , 28-C ) :   1.0910 B( 28-C , 29-H ) :   0.9703
B( 28-C , 30-H ) :   0.9706 B( 28-C , 31-H ) :   0.9680

Dispersion correction           -0.014359731
FINAL SINGLE POINT ENERGY     -1339.870468148745

DIPOLE MOMENT
-------------
                                X             Y             Z
Electronic contribution:     12.16632     -20.90521      -4.39431
Nuclear contribution   :    -12.57780      21.33343       4.28374
                        -----------------------------------------
Total Dipole Moment    :     -0.41148       0.42823      -0.11057
                        -----------------------------------------
Magnitude (a.u.)       :      0.60409
Magnitude (Debye)      :      1.53547

Rotational constants in cm-1:     0.018687     0.008425     0.006781
Rotational constants in MHz :   560.208697   252.568252   203.279572

                             ****ORCA TERMINATED NORMALLY****
TOTAL RUN TIME: 0 days 0 hours 0 minutes 30 seconds 105 msec
