                         Program Version 4.2.1 -  RELEASE  -
|  1> ! wB97X-D3 SP def2-SVP
|  2> %pal
|  3> nprocs 16
|  4> end
|  5>
|  6> * xyz 0 1
|  7> S 	 68.4177 	 24.1645 	 73.975
|  8> C 	 68.8273 	 23.3794 	 75.4169
|  9> C 	 69.8218 	 24.0296 	 76.1191
| 10> C 	 70.0067 	 25.3489 	 75.5824
| 11> C 	 69.2633 	 25.6397 	 74.4614
| 12> H 	 70.5173 	 26.19 	 76.0117
| 13> C 	 70.1445 	 23.6861 	 77.4824
| 14> H 	 70.1799 	 22.6244 	 77.795
| 15> H 	 69.5147 	 24.1849 	 78.1694
| 16> C 	 71.5967 	 24.0991 	 77.8312
| 17> H 	 72.095 	 23.6716 	 76.9392
| 18> H 	 71.7738 	 25.1584 	 77.6505
| 19> C 	 72.0858 	 23.4781 	 79.1061
| 20> H 	 72.2162 	 22.3788 	 78.8667
| 21> H 	 73.041 	 23.9709 	 79.41
| 22> H 	 71.3609 	 23.4651 	 79.9032
| 23> S 	 69.4263 	 26.8996 	 72.0943
| 24> C 	 68.8329 	 28.4876 	 71.8293
| 25> C 	 68.5346 	 29.0547 	 73.0153
| 26> C 	 68.5115 	 28.1418 	 74.1327
| 27> C 	 68.921 	 26.8625 	 73.7633
| 28> H 	 68.4112 	 30.1104 	 73.1507
| 29> C 	 68.2418 	 28.6155 	 75.5428
| 30> H 	 69.087 	 28.3294 	 76.1881
| 31> H 	 67.4373 	 28.0654 	 75.9127
| 32> C 	 67.8738 	 30.1411 	 75.7607
| 33> H 	 66.8063 	 30.4821 	 75.5633
| 34> H 	 68.631 	 30.7382 	 75.2052
| 35> C 	 68.1354 	 30.5524 	 77.1957
| 36> H 	 67.4771 	 29.9509 	 77.8294
| 37> H 	 67.8456 	 31.5469 	 77.3866
| 38> H 	 69.1715 	 30.3445 	 77.5728
| 39> H 	 68.3013 	 22.4662 	 75.7365
| 40> H 	 68.9741 	 29.092 	 70.9382
| 41> *
| 42>
| 43>                          ****END OF INPUT****

CARTESIAN COORDINATES (ANGSTROEM)
---------------------------------
  S     68.417700   24.164500   73.975000
  C     68.827300   23.379400   75.416900
  C     69.821800   24.029600   76.119100
  C     70.006700   25.348900   75.582400
  C     69.263300   25.639700   74.461400
  H     70.517300   26.190000   76.011700
  C     70.144500   23.686100   77.482400
  H     70.179900   22.624400   77.795000
  H     69.514700   24.184900   78.169400
  C     71.596700   24.099100   77.831200
  H     72.095000   23.671600   76.939200
  H     71.773800   25.158400   77.650500
  C     72.085800   23.478100   79.106100
  H     72.216200   22.378800   78.866700
  H     73.041000   23.970900   79.410000
  H     71.360900   23.465100   79.903200
  S     69.426300   26.899600   72.094300
  C     68.832900   28.487600   71.829300
  C     68.534600   29.054700   73.015300
  C     68.511500   28.141800   74.132700
  C     68.921000   26.862500   73.763300
  H     68.411200   30.110400   73.150700
  C     68.241800   28.615500   75.542800
  H     69.087000   28.329400   76.188100
  H     67.437300   28.065400   75.912700
  C     67.873800   30.141100   75.760700
  H     66.806300   30.482100   75.563300
  H     68.631000   30.738200   75.205200
  C     68.135400   30.552400   77.195700
  H     67.477100   29.950900   77.829400
  H     67.845600   31.546900   77.386600
  H     69.171500   30.344500   77.572800
  H     68.301300   22.466200   75.736500
  H     68.974100   29.092000   70.938200

 Total Charge           Charge          ....    0
 Multiplicity           Mult            ....    1
 Number of Electrons    NEL             ....  134
 Basis Dimension        Dim             ....  322

ORBITAL ENERGIES
----------------

  NO   OCC          E(Eh)            E(eV)
   0   2.0000     -88.960026     -2420.7254
   1   2.0000     -88.959945     -2420.7232
   2   2.0000     -10.328124      -281.0425
   3   2.0000     -10.325229      -280.9638
   4   2.0000     -10.312807      -280.6258
   5   2.0000     -10.309831      -280.5448
   6   2.0000     -10.304821      -280.4084
   7   2.0000     -10.299392      -280.2607
   8   2.0000     -10.298442      -280.2349
   9   2.0000     -10.298092      -280.2253
  10   2.0000     -10.293078      -280.0889
  11   2.0000     -10.286623      -279.9132
  12   2.0000     -10.285085      -279.8714
  13   2.0000     -10.283732      -279.8346
  14   2.0000     -10.281276      -279.7678
  15   2.0000     -10.277722      -279.6710
  16   2.0000      -8.076169      -219.7637
  17   2.0000      -8.075736      -219.7520
  18   2.0000      -6.034501      -164.2071
  19   2.0000      -6.034228      -164.1997
  20   2.0000      -6.030365      -164.0946
  21   2.0000      -6.030143      -164.0885
  22   2.0000      -6.027098      -164.0057
  23   2.0000      -6.026395      -163.9866
  24   2.0000      -1.012820       -27.5602
  25   2.0000      -0.992314       -27.0022
  26   2.0000      -0.922422       -25.1004
  27   2.0000      -0.909069       -24.7370
  28   2.0000      -0.875972       -23.8364
  29   2.0000      -0.854770       -23.2595
  30   2.0000      -0.849320       -23.1112
  31   2.0000      -0.821385       -22.3510
  32   2.0000      -0.781464       -21.2647
  33   2.0000      -0.769285       -20.9333
  34   2.0000      -0.711634       -19.3645
  35   2.0000      -0.701113       -19.0783
  36   2.0000      -0.686066       -18.6688
  37   2.0000      -0.656866       -17.8742
  38   2.0000      -0.647769       -17.6267
  39   2.0000      -0.623974       -16.9792
  40   2.0000      -0.601969       -16.3804
  41   2.0000      -0.574142       -15.6232
  42   2.0000      -0.573008       -15.5923
  43   2.0000      -0.569896       -15.5077
  44   2.0000      -0.529010       -14.3951
  45   2.0000      -0.525879       -14.3099
  46   2.0000      -0.515053       -14.0153
  47   2.0000      -0.513406       -13.9705
  48   2.0000      -0.508521       -13.8376
  49   2.0000      -0.502803       -13.6820
  50   2.0000      -0.498762       -13.5720
  51   2.0000      -0.479151       -13.0384
  52   2.0000      -0.472732       -12.8637
  53   2.0000      -0.466659       -12.6984
  54   2.0000      -0.463688       -12.6176
  55   2.0000      -0.457032       -12.4365
  56   2.0000      -0.452977       -12.3261
  57   2.0000      -0.439508       -11.9596
  58   2.0000      -0.430643       -11.7184
  59   2.0000      -0.420403       -11.4398
  60   2.0000      -0.412970       -11.2375
  61   2.0000      -0.411579       -11.1996
  62   2.0000      -0.404041       -10.9945
  63   2.0000      -0.344754        -9.3812
  64   2.0000      -0.330388        -8.9903
  65   2.0000      -0.324454        -8.8289
  66   2.0000      -0.294238        -8.0066
  67   0.0000       0.035388         0.9629
  68   0.0000       0.057048         1.5524
  69   0.0000       0.107496         2.9251
  70   0.0000       0.125625         3.4184
  71   0.0000       0.135345         3.6829

MULLIKEN ATOMIC CHARGES
-----------------------
   0 S :    0.117714
   1 C :   -0.126054
   2 C :   -0.041942
   3 C :    0.023435
   4 C :   -0.177008
   5 H :    0.012301
   6 C :    0.045993
   7 H :    0.019612
   8 H :    0.030907
   9 C :   -0.137863
  10 H :    0.027620
  11 H :    0.025419
  12 C :   -0.021693
  13 H :    0.039137
  14 H :    0.048207
  15 H :    0.027861
  16 S :    0.099728
  17 C :   -0.055510
  18 C :   -0.057655
  19 C :   -0.043886
  20 C :   -0.147620
  21 H :    0.014607
  22 C :    0.093960
  23 H :    0.028588
  24 H :    0.022878
  25 C :   -0.122947
  26 H :    0.057203
  27 H :    0.040388
  28 C :   -0.041418
  29 H :    0.015871
  30 H :    0.024836
  31 H :    0.037117
  32 H :    0.062463
  33 H :    0.057749
Sum of atomic charges:   -0.0000000

LOEWDIN ATOMIC CHARGES
----------------------
   0 S :    0.419611
   1 C :   -0.195235
   2 C :   -0.079312
   3 C :   -0.051492
   4 C :   -0.195235
   5 H :    0.029210
   6 C :   -0.033178
   7 H :    0.032576
   8 H :    0.024258
   9 C :   -0.052968
  10 H :    0.027504
  11 H :    0.015505
  12 C :   -0.068444
  13 H :    0.035913
  14 H :    0.035183
  15 H :    0.020576
  16 S :    0.422586
  17 C :   -0.197180
  18 C :   -0.075361
  19 C :   -0.054659
  20 C :   -0.208538
  21 H :    0.026934
  22 C :   -0.029949
  23 H :    0.034641
  24 H :    0.029342
  25 C :   -0.045926
  26 H :    0.037678
  27 H :    0.025184
  28 C :   -0.065893
  29 H :    0.021276
  30 H :    0.018852
  31 H :    0.027429
  32 H :    0.034348
  33 H :    0.034765

  Mayer bond orders larger than 0.100000
B(  0-S ,  1-C ) :   1.1767 B(  0-S ,  4-C ) :   1.1423 B(  1-C ,  2-C ) :   1.5878
B(  1-C , 32-H ) :   0.9684 B(  2-C ,  3-C ) :   1.1878 B(  2-C ,  6-C ) :   1.0655
B(  3-C ,  4-C ) :   1.6220 B(  3-C ,  5-H ) :   0.9995 B(  4-C , 20-C ) :   1.0088
B(  6-C ,  7-H ) :   0.9468 B(  6-C ,  8-H ) :   0.9323 B(  6-C ,  9-C ) :   1.0361
B(  9-C , 10-H ) :   0.9631 B(  9-C , 11-H ) :   0.9557 B(  9-C , 12-C ) :   1.0750
B( 12-C , 13-H ) :   0.9691 B( 12-C , 14-H ) :   0.9703 B( 12-C , 15-H ) :   0.9743
B( 16-S , 17-C ) :   1.1554 B( 16-S , 20-C ) :   1.1607 B( 17-C , 18-C ) :   1.5971
B( 17-C , 33-H ) :   0.9613 B( 18-C , 19-C ) :   1.2688 B( 18-C , 21-H ) :   0.9845
B( 19-C , 20-C ) :   1.5919 B( 19-C , 22-C ) :   1.0264 B( 22-C , 23-H ) :   0.9386
B( 22-C , 24-H ) :   0.9159 B( 22-C , 25-C ) :   1.0660 B( 25-C , 26-H ) :   0.9536
B( 25-C , 27-H ) :   0.9514 B( 25-C , 28-C ) :   1.0892 B( 28-C , 29-H ) :   0.9707
B( 28-C , 30-H ) :   0.9716 B( 28-C , 31-H ) :   0.9746

Dispersion correction           -0.013212584
FINAL SINGLE POINT ENERGY     -1339.852582184626

DIPOLE MOMENT
-------------
                                X             Y             Z
Electronic contribution:     -5.88909      -8.43674     -28.28276
Nuclear contribution   :      5.90498       8.83268      29.05180
                        -----------------------------------------
Total Dipole Moment    :      0.01589       0.39594       0.76905
                        -----------------------------------------
Magnitude (a.u.)       :      0.86513
Magnitude (Debye)      :      2.19899

Rotational constants in cm-1:     0.016786     0.008379     0.006256
Rotational constants in MHz :   503.227590   251.194651   187.561636

                             ****ORCA TERMINATED NORMALLY****
TOTAL RUN TIME: 0 days 0 hours 0 minutes 28 seconds 975 msec
