                         Program Version 4.2.1 -  RELEASE  -
|  1> ! wB97X-D3 SP def2-SVP
|  2> %pal
|  3> nprocs 16
|  4> end
|  5>
|  6> * xyz 0 1
|  7> S 	 -2.50067 	 77.6791 	 52.5343
|  8> C 	 -1.93798 	 78.5972 	 53.9658
|  9> C 	 -1.73902 	 77.794 	 55.0799
| 10> C 	 -1.92385 	 76.4038 	 54.7548
| 11> C 	 -2.29089 	 76.2107 	 53.4547
| 12> H 	 -1.78124 	 75.4733 	 55.3642
| 13> C 	 -1.17379 	 78.239 	 56.3673
| 14> H 	 -1.51431 	 77.4807 	 57.0606
| 15> H 	 -1.78506 	 79.0827 	 56.6806
| 16> C 	 0.371801 	 78.4741 	 56.5088
| 17> H 	 0.712604 	 78.4401 	 57.5302
| 18> H 	 0.715455 	 77.4961 	 56.0539
| 19> C 	 0.944748 	 79.6859 	 55.7838
| 20> H 	 0.712985 	 80.5623 	 56.3644
| 21> H 	 2.05973 	 79.5514 	 55.4756
| 22> H 	 0.440538 	 79.8204 	 54.8561
| 23> S 	 -4.49379 	 74.9337 	 52.153
| 24> C 	 -4.32252 	 73.2735 	 51.7367
| 25> C 	 -3.2679 	 72.7286 	 52.3731
| 26> C 	 -2.43039 	 73.6546 	 53.1572
| 27> C 	 -2.84304 	 74.9283 	 52.9745
| 28> H 	 -3.1188 	 71.7437 	 52.1087
| 29> C 	 -1.04801 	 73.3127 	 53.6825
| 30> H 	 -0.506474 	 74.153 	 54.1025
| 31> H 	 -0.408196 	 72.9773 	 52.8657
| 32> C 	 -0.948431 	 72.2026 	 54.7639
| 33> H 	 0.0299242 	 71.8738 	 54.9808
| 34> H 	 -1.31689 	 71.2918 	 54.3771
| 35> C 	 -1.5371 	 72.5539 	 56.2063
| 36> H 	 -2.55233 	 72.8178 	 56.2031
| 37> H 	 -1.10733 	 73.5027 	 56.6304
| 38> H 	 -1.2311 	 71.7638 	 56.899
| 39> H 	 -1.53855 	 79.5783 	 53.9689
| 40> H 	 -4.93202 	 72.7757 	 51.0236
| 41> *
| 42>
| 43>                          ****END OF INPUT****

CARTESIAN COORDINATES (ANGSTROEM)
---------------------------------
  S     -2.500670   77.679100   52.534300
  C     -1.937980   78.597200   53.965800
  C     -1.739020   77.794000   55.079900
  C     -1.923850   76.403800   54.754800
  C     -2.290890   76.210700   53.454700
  H     -1.781240   75.473300   55.364200
  C     -1.173790   78.239000   56.367300
  H     -1.514310   77.480700   57.060600
  H     -1.785060   79.082700   56.680600
  C      0.371801   78.474100   56.508800
  H      0.712604   78.440100   57.530200
  H      0.715455   77.496100   56.053900
  C      0.944748   79.685900   55.783800
  H      0.712985   80.562300   56.364400
  H      2.059730   79.551400   55.475600
  H      0.440538   79.820400   54.856100
  S     -4.493790   74.933700   52.153000
  C     -4.322520   73.273500   51.736700
  C     -3.267900   72.728600   52.373100
  C     -2.430390   73.654600   53.157200
  C     -2.843040   74.928300   52.974500
  H     -3.118800   71.743700   52.108700
  C     -1.048010   73.312700   53.682500
  H     -0.506474   74.153000   54.102500
  H     -0.408196   72.977300   52.865700
  C     -0.948431   72.202600   54.763900
  H      0.029924   71.873800   54.980800
  H     -1.316890   71.291800   54.377100
  C     -1.537100   72.553900   56.206300
  H     -2.552330   72.817800   56.203100
  H     -1.107330   73.502700   56.630400
  H     -1.231100   71.763800   56.899000
  H     -1.538550   79.578300   53.968900
  H     -4.932020   72.775700   51.023600

 Total Charge           Charge          ....    0
 Multiplicity           Mult            ....    1
 Number of Electrons    NEL             ....  134
 Basis Dimension        Dim             ....  322

ORBITAL ENERGIES
----------------

  NO   OCC          E(Eh)            E(eV)
   0   2.0000     -88.972000     -2421.0512
   1   2.0000     -88.956141     -2420.6197
   2   2.0000     -10.330436      -281.1054
   3   2.0000     -10.328730      -281.0590
   4   2.0000     -10.316456      -280.7250
   5   2.0000     -10.308591      -280.5110
   6   2.0000     -10.306159      -280.4449
   7   2.0000     -10.304295      -280.3941
   8   2.0000     -10.298838      -280.2456
   9   2.0000     -10.295542      -280.1559
  10   2.0000     -10.294466      -280.1267
  11   2.0000     -10.291225      -280.0385
  12   2.0000     -10.287437      -279.9354
  13   2.0000     -10.284907      -279.8666
  14   2.0000     -10.284754      -279.8624
  15   2.0000     -10.282088      -279.7898
  16   2.0000      -8.085905      -220.0287
  17   2.0000      -8.070831      -219.6185
  18   2.0000      -6.044525      -164.4799
  19   2.0000      -6.040625      -164.3738
  20   2.0000      -6.036491      -164.2613
  21   2.0000      -6.029575      -164.0731
  22   2.0000      -6.025524      -163.9628
  23   2.0000      -6.021149      -163.8438
  24   2.0000      -1.005039       -27.3485
  25   2.0000      -0.982348       -26.7310
  26   2.0000      -0.914381       -24.8816
  27   2.0000      -0.904428       -24.6107
  28   2.0000      -0.869414       -23.6580
  29   2.0000      -0.854409       -23.2496
  30   2.0000      -0.839846       -22.8534
  31   2.0000      -0.816569       -22.2200
  32   2.0000      -0.787446       -21.4275
  33   2.0000      -0.780736       -21.2449
  34   2.0000      -0.714336       -19.4381
  35   2.0000      -0.705233       -19.1904
  36   2.0000      -0.700491       -19.0613
  37   2.0000      -0.655782       -17.8447
  38   2.0000      -0.639662       -17.4061
  39   2.0000      -0.616363       -16.7721
  40   2.0000      -0.597745       -16.2655
  41   2.0000      -0.575030       -15.6474
  42   2.0000      -0.553189       -15.0530
  43   2.0000      -0.550144       -14.9702
  44   2.0000      -0.543575       -14.7914
  45   2.0000      -0.533676       -14.5221
  46   2.0000      -0.522085       -14.2066
  47   2.0000      -0.515068       -14.0157
  48   2.0000      -0.503608       -13.7039
  49   2.0000      -0.493103       -13.4180
  50   2.0000      -0.490142       -13.3374
  51   2.0000      -0.480343       -13.0708
  52   2.0000      -0.469751       -12.7826
  53   2.0000      -0.466411       -12.6917
  54   2.0000      -0.463355       -12.6085
  55   2.0000      -0.453905       -12.3514
  56   2.0000      -0.446589       -12.1523
  57   2.0000      -0.433361       -11.7924
  58   2.0000      -0.430048       -11.7022
  59   2.0000      -0.427527       -11.6336
  60   2.0000      -0.417283       -11.3548
  61   2.0000      -0.416254       -11.3269
  62   2.0000      -0.412321       -11.2198
  63   2.0000      -0.352917        -9.6034
  64   2.0000      -0.335148        -9.1198
  65   2.0000      -0.324288        -8.8243
  66   2.0000      -0.294286        -8.0079
  67   0.0000       0.025369         0.6903
  68   0.0000       0.071900         1.9565
  69   0.0000       0.103237         2.8092
  70   0.0000       0.114033         3.1030
  71   0.0000       0.124166         3.3787

MULLIKEN ATOMIC CHARGES
-----------------------
   0 S :    0.116570
   1 C :   -0.100176
   2 C :   -0.109084
   3 C :    0.015458
   4 C :   -0.154686
   5 H :    0.020076
   6 C :    0.057615
   7 H :    0.017811
   8 H :    0.024051
   9 C :   -0.048752
  10 H :    0.035109
  11 H :    0.025940
  12 C :   -0.043796
  13 H :    0.035003
  14 H :    0.057910
  15 H :    0.006985
  16 S :    0.071152
  17 C :   -0.078939
  18 C :   -0.005525
  19 C :    0.008850
  20 C :   -0.135739
  21 H :   -0.012021
  22 C :    0.030684
  23 H :    0.022736
  24 H :    0.040256
  25 C :   -0.042843
  26 H :    0.009140
  27 H :    0.010731
  28 C :   -0.074626
  29 H :    0.037748
  30 H :    0.028486
  31 H :    0.044510
  32 H :    0.040754
  33 H :    0.048610
Sum of atomic charges:   -0.0000000

LOEWDIN ATOMIC CHARGES
----------------------
   0 S :    0.397985
   1 C :   -0.177964
   2 C :   -0.059804
   3 C :   -0.061535
   4 C :   -0.193786
   5 H :    0.040550
   6 C :   -0.041632
   7 H :    0.033974
   8 H :    0.029459
   9 C :   -0.037661
  10 H :    0.023286
  11 H :    0.029866
  12 C :   -0.070253
  13 H :    0.025590
  14 H :    0.044614
  15 H :    0.016660
  16 S :    0.351712
  17 C :   -0.178532
  18 C :   -0.062990
  19 C :   -0.062994
  20 C :   -0.151820
  21 H :    0.017596
  22 C :   -0.030208
  23 H :    0.028052
  24 H :    0.038027
  25 C :   -0.035144
  26 H :    0.019989
  27 H :    0.015670
  28 C :   -0.068378
  29 H :    0.017456
  30 H :    0.025215
  31 H :    0.031318
  32 H :    0.018844
  33 H :    0.026839

  Mayer bond orders larger than 0.100000
B(  0-S ,  1-C ) :   1.1210 B(  0-S ,  4-C ) :   1.1431 B(  1-C ,  2-C ) :   1.6266
B(  1-C , 32-H ) :   0.9660 B(  2-C ,  3-C ) :   1.2216 B(  2-C ,  6-C ) :   1.0346
B(  3-C ,  4-C ) :   1.5913 B(  3-C ,  5-H ) :   0.9743 B(  4-C , 20-C ) :   1.0304
B(  6-C ,  7-H ) :   0.9330 B(  6-C ,  8-H ) :   0.9328 B(  6-C ,  9-C ) :   1.0478
B(  9-C , 10-H ) :   0.9598 B(  9-C , 11-H ) :   0.9546 B(  9-C , 12-C ) :   1.0740
B( 12-C , 13-H ) :   0.9740 B( 12-C , 14-H ) :   0.9705 B( 12-C , 15-H ) :   0.9736
B( 16-S , 17-C ) :   1.1167 B( 16-S , 20-C ) :   1.1032 B( 17-C , 18-C ) :   1.6958
B( 17-C , 33-H ) :   0.9696 B( 18-C , 19-C ) :   1.1331 B( 18-C , 21-H ) :   1.0024
B( 19-C , 20-C ) :   1.6732 B( 19-C , 22-C ) :   1.0459 B( 22-C , 23-H ) :   0.9431
B( 22-C , 24-H ) :   0.9378 B( 22-C , 25-C ) :   1.0732 B( 25-C , 26-H ) :   0.9541
B( 25-C , 27-H ) :   0.9555 B( 25-C , 28-C ) :   1.0663 B( 28-C , 29-H ) :   0.9801
B( 28-C , 30-H ) :   0.9672 B( 28-C , 31-H ) :   0.9742

Dispersion correction           -0.014734744
FINAL SINGLE POINT ENERGY     -1339.851468888834

DIPOLE MOMENT
-------------
                                X             Y             Z
Electronic contribution:    -19.26406       2.92099     -20.84365
Nuclear contribution   :     19.86074      -3.17088      21.23476
                        -----------------------------------------
Total Dipole Moment    :      0.59668      -0.24988       0.39111
                        -----------------------------------------
Magnitude (a.u.)       :      0.75594
Magnitude (Debye)      :      1.92144

Rotational constants in cm-1:     0.019477     0.008960     0.006634
Rotational constants in MHz :   583.908891   268.612644   198.887610

                             ****ORCA TERMINATED NORMALLY****
TOTAL RUN TIME: 0 days 0 hours 0 minutes 34 seconds 859 msec
