                         Program Version 4.2.1 -  RELEASE  -
|  1> ! wB97X-D3 SP def2-SVP
|  2> %pal
|  3> nprocs 16
|  4> end
|  5>
|  6> * xyz 0 1
|  7> S 	 -37.3006 	 22.118 	 80.8987
|  8> C 	 -36.7498 	 23.1692 	 82.2087
|  9> C 	 -37.2331 	 24.4359 	 81.9747
| 10> C 	 -37.6423 	 24.5939 	 80.6294
| 11> C 	 -37.9246 	 23.4112 	 79.9909
| 12> H 	 -37.7838 	 25.5096 	 80.0325
| 13> C 	 -37.1903 	 25.6031 	 82.8968
| 14> H 	 -37.9044 	 25.5151 	 83.6242
| 15> H 	 -37.4676 	 26.5498 	 82.3493
| 16> C 	 -35.7851 	 25.8397 	 83.5293
| 17> H 	 -35.4712 	 24.882 	 84.0292
| 18> H 	 -35.1117 	 26.0959 	 82.7111
| 19> C 	 -35.8604 	 27.108 	 84.4161
| 20> H 	 -34.8773 	 27.1759 	 84.9366
| 21> H 	 -35.9118 	 27.9338 	 83.7955
| 22> H 	 -36.6839 	 27.0607 	 85.143
| 23> S 	 -37.4574 	 22.0813 	 77.6628
| 24> C 	 -38.5568 	 22.3091 	 76.3249
| 25> C 	 -39.4865 	 23.2711 	 76.6005
| 26> C 	 -39.3784 	 23.8908 	 77.8724
| 27> C 	 -38.2834 	 23.2941 	 78.6135
| 28> H 	 -40.3069 	 23.3604 	 75.8955
| 29> C 	 -40.3144 	 24.9034 	 78.4163
| 30> H 	 -39.7167 	 25.8172 	 78.4491
| 31> H 	 -40.4673 	 24.7748 	 79.4357
| 32> C 	 -41.5347 	 25.3781 	 77.6724
| 33> H 	 -42.2189 	 24.5133 	 77.6242
| 34> H 	 -41.2631 	 25.8034 	 76.7287
| 35> C 	 -42.269 	 26.5063 	 78.4543
| 36> H 	 -43.2189 	 26.7376 	 77.9625
| 37> H 	 -41.651 	 27.3756 	 78.6519
| 38> H 	 -42.6295 	 26.1907 	 79.4161
| 39> H 	 -36.5683 	 22.8037 	 83.141
| 40> H 	 -38.4303 	 21.7416 	 75.439
| 41> *
| 42>
| 43>                          ****END OF INPUT****

CARTESIAN COORDINATES (ANGSTROEM)
---------------------------------
  S    -37.300600   22.118000   80.898700
  C    -36.749800   23.169200   82.208700
  C    -37.233100   24.435900   81.974700
  C    -37.642300   24.593900   80.629400
  C    -37.924600   23.411200   79.990900
  H    -37.783800   25.509600   80.032500
  C    -37.190300   25.603100   82.896800
  H    -37.904400   25.515100   83.624200
  H    -37.467600   26.549800   82.349300
  C    -35.785100   25.839700   83.529300
  H    -35.471200   24.882000   84.029200
  H    -35.111700   26.095900   82.711100
  C    -35.860400   27.108000   84.416100
  H    -34.877300   27.175900   84.936600
  H    -35.911800   27.933800   83.795500
  H    -36.683900   27.060700   85.143000
  S    -37.457400   22.081300   77.662800
  C    -38.556800   22.309100   76.324900
  C    -39.486500   23.271100   76.600500
  C    -39.378400   23.890800   77.872400
  C    -38.283400   23.294100   78.613500
  H    -40.306900   23.360400   75.895500
  C    -40.314400   24.903400   78.416300
  H    -39.716700   25.817200   78.449100
  H    -40.467300   24.774800   79.435700
  C    -41.534700   25.378100   77.672400
  H    -42.218900   24.513300   77.624200
  H    -41.263100   25.803400   76.728700
  C    -42.269000   26.506300   78.454300
  H    -43.218900   26.737600   77.962500
  H    -41.651000   27.375600   78.651900
  H    -42.629500   26.190700   79.416100
  H    -36.568300   22.803700   83.141000
  H    -38.430300   21.741600   75.439000

 Total Charge           Charge          ....    0
 Multiplicity           Mult            ....    1
 Number of Electrons    NEL             ....  134
 Basis Dimension        Dim             ....  322

ORBITAL ENERGIES
----------------

  NO   OCC          E(Eh)            E(eV)
   0   2.0000     -88.963871     -2420.8300
   1   2.0000     -88.962023     -2420.7797
   2   2.0000     -10.325467      -280.9702
   3   2.0000     -10.319871      -280.8180
   4   2.0000     -10.311443      -280.5886
   5   2.0000     -10.309252      -280.5290
   6   2.0000     -10.304810      -280.4081
   7   2.0000     -10.298605      -280.2393
   8   2.0000     -10.291599      -280.0486
   9   2.0000     -10.291561      -280.0476
  10   2.0000     -10.290471      -280.0179
  11   2.0000     -10.287744      -279.9437
  12   2.0000     -10.285890      -279.8933
  13   2.0000     -10.282690      -279.8062
  14   2.0000     -10.279997      -279.7329
  15   2.0000     -10.278289      -279.6865
  16   2.0000      -8.078687      -219.8322
  17   2.0000      -8.077569      -219.8018
  18   2.0000      -6.037071      -164.2771
  19   2.0000      -6.036095      -164.2505
  20   2.0000      -6.033030      -164.1671
  21   2.0000      -6.031906      -164.1365
  22   2.0000      -6.029729      -164.0773
  23   2.0000      -6.028286      -164.0380
  24   2.0000      -1.012659       -27.5558
  25   2.0000      -0.985147       -26.8072
  26   2.0000      -0.918617       -24.9968
  27   2.0000      -0.914654       -24.8890
  28   2.0000      -0.872810       -23.7504
  29   2.0000      -0.854637       -23.2558
  30   2.0000      -0.845683       -23.0122
  31   2.0000      -0.815909       -22.2020
  32   2.0000      -0.784961       -21.3599
  33   2.0000      -0.773531       -21.0488
  34   2.0000      -0.711930       -19.3726
  35   2.0000      -0.709184       -19.2979
  36   2.0000      -0.697004       -18.9664
  37   2.0000      -0.653694       -17.7879
  38   2.0000      -0.641073       -17.4445
  39   2.0000      -0.618979       -16.8433
  40   2.0000      -0.604885       -16.4598
  41   2.0000      -0.580751       -15.8030
  42   2.0000      -0.571994       -15.5648
  43   2.0000      -0.564641       -15.3647
  44   2.0000      -0.532095       -14.4790
  45   2.0000      -0.527717       -14.3599
  46   2.0000      -0.519086       -14.1250
  47   2.0000      -0.514359       -13.9964
  48   2.0000      -0.503774       -13.7084
  49   2.0000      -0.498336       -13.5604
  50   2.0000      -0.488848       -13.3022
  51   2.0000      -0.488432       -13.2909
  52   2.0000      -0.471989       -12.8435
  53   2.0000      -0.468294       -12.7429
  54   2.0000      -0.460397       -12.5280
  55   2.0000      -0.448155       -12.1949
  56   2.0000      -0.445990       -12.1360
  57   2.0000      -0.437503       -11.9051
  58   2.0000      -0.435859       -11.8603
  59   2.0000      -0.430232       -11.7072
  60   2.0000      -0.421985       -11.4828
  61   2.0000      -0.415682       -11.3113
  62   2.0000      -0.415206       -11.2983
  63   2.0000      -0.352031        -9.5792
  64   2.0000      -0.329301        -8.9607
  65   2.0000      -0.325255        -8.8506
  66   2.0000      -0.282003        -7.6737
  67   0.0000       0.022339         0.6079
  68   0.0000       0.077556         2.1104
  69   0.0000       0.110245         2.9999
  70   0.0000       0.127504         3.4696
  71   0.0000       0.134542         3.6611

MULLIKEN ATOMIC CHARGES
-----------------------
   0 S :    0.091958
   1 C :   -0.081508
   2 C :   -0.069998
   3 C :   -0.031457
   4 C :   -0.117664
   5 H :    0.025401
   6 C :    0.079402
   7 H :    0.011458
   8 H :    0.018455
   9 C :   -0.127458
  10 H :    0.045562
  11 H :    0.038372
  12 C :   -0.016061
  13 H :    0.036941
  14 H :    0.018672
  15 H :    0.035422
  16 S :    0.108677
  17 C :   -0.089451
  18 C :   -0.047359
  19 C :    0.009599
  20 C :   -0.174562
  21 H :    0.022921
  22 C :    0.050877
  23 H :    0.021341
  24 H :    0.009551
  25 C :   -0.049609
  26 H :    0.035986
  27 H :    0.033085
  28 C :   -0.040599
  29 H :    0.033191
  30 H :    0.031854
  31 H :    0.016150
  32 H :    0.024520
  33 H :    0.046331
Sum of atomic charges:    0.0000000

LOEWDIN ATOMIC CHARGES
----------------------
   0 S :    0.417377
   1 C :   -0.187053
   2 C :   -0.052355
   3 C :   -0.071845
   4 C :   -0.211385
   5 H :    0.034164
   6 C :   -0.030595
   7 H :    0.017577
   8 H :    0.033819
   9 C :   -0.035340
  10 H :    0.025783
  11 H :    0.027534
  12 C :   -0.059577
  13 H :    0.032489
  14 H :    0.015151
  15 H :    0.025149
  16 S :    0.412397
  17 C :   -0.181793
  18 C :   -0.077629
  19 C :   -0.042566
  20 C :   -0.204126
  21 H :    0.033831
  22 C :   -0.043808
  23 H :    0.038261
  24 H :    0.024462
  25 C :   -0.031579
  26 H :    0.027037
  27 H :    0.023636
  28 C :   -0.061421
  29 H :    0.030051
  30 H :    0.023527
  31 H :    0.021131
  32 H :    0.006213
  33 H :    0.021484

  Mayer bond orders larger than 0.100000
B(  0-S ,  1-C ) :   1.1231 B(  0-S ,  4-C ) :   1.1651 B(  1-C ,  2-C ) :   1.6019
B(  1-C , 32-H ) :   0.9719 B(  2-C ,  3-C ) :   1.2409 B(  2-C ,  6-C ) :   1.0253
B(  3-C ,  4-C ) :   1.5499 B(  3-C ,  5-H ) :   0.9866 B(  4-C , 20-C ) :   1.0864
B(  6-C ,  7-H ) :   0.9264 B(  6-C ,  8-H ) :   0.9472 B(  6-C ,  9-C ) :   1.0619
B(  9-C , 10-H ) :   0.9575 B(  9-C , 11-H ) :   0.9591 B(  9-C , 12-C ) :   1.0763
B( 12-C , 13-H ) :   0.9731 B( 12-C , 14-H ) :   0.9747 B( 12-C , 15-H ) :   0.9770
B( 16-S , 17-C ) :   1.1608 B( 16-S , 20-C ) :   1.1625 B( 17-C , 18-C ) :   1.5754
B( 17-C , 20-C ) :   0.1054 B( 17-C , 33-H ) :   0.9725 B( 18-C , 19-C ) :   1.2805
B( 18-C , 21-H ) :   0.9876 B( 19-C , 20-C ) :   1.5139 B( 19-C , 22-C ) :   1.0431
B( 22-C , 23-H ) :   0.9151 B( 22-C , 24-H ) :   0.9219 B( 22-C , 25-C ) :   1.0826
B( 25-C , 26-H ) :   0.9499 B( 25-C , 27-H ) :   0.9465 B( 25-C , 28-C ) :   1.0910
B( 28-C , 29-H ) :   0.9720 B( 28-C , 30-H ) :   0.9753 B( 28-C , 31-H ) :   0.9726

Dispersion correction           -0.013247001
FINAL SINGLE POINT ENERGY     -1339.859803249575

DIPOLE MOMENT
-------------
                                X             Y             Z
Electronic contribution:      9.20790     -25.66062     -11.46987
Nuclear contribution   :     -9.61003      26.30617      11.61543
                        -----------------------------------------
Total Dipole Moment    :     -0.40213       0.64554       0.14556
                        -----------------------------------------
Magnitude (a.u.)       :      0.77436
Magnitude (Debye)      :      1.96826

Rotational constants in cm-1:     0.017860     0.008027     0.005913
Rotational constants in MHz :   535.418839   240.636921   177.275396

                             ****ORCA TERMINATED NORMALLY****
TOTAL RUN TIME: 0 days 0 hours 0 minutes 29 seconds 49 msec
