                         Program Version 4.2.1 -  RELEASE  -
|  1> ! wB97X-D3 SP def2-SVP
|  2> %pal
|  3> nprocs 16
|  4> end
|  5>
|  6> * xyz 0 1
|  7> S 	 -32.3509 	 74.411 	 164.929
|  8> C 	 -31.6636 	 74.1257 	 163.356
|  9> C 	 -32.1404 	 75.0313 	 162.397
| 10> C 	 -33.0781 	 75.9221 	 163.038
| 11> C 	 -33.2648 	 75.7525 	 164.407
| 12> H 	 -33.5396 	 76.6924 	 162.459
| 13> C 	 -31.99 	 75.073 	 160.85
| 14> H 	 -33.024 	 75.0935 	 160.483
| 15> H 	 -31.688 	 74.0865 	 160.596
| 16> C 	 -31.0709 	 76.1944 	 160.294
| 17> H 	 -31.1129 	 76.256 	 159.185
| 18> H 	 -31.442 	 77.1638 	 160.651
| 19> C 	 -29.5846 	 76.0629 	 160.673
| 20> H 	 -29.4909 	 75.9527 	 161.731
| 21> H 	 -29.2528 	 75.1714 	 160.107
| 22> H 	 -29.0386 	 76.944 	 160.321
| 23> S 	 -33.4365 	 76.6866 	 167.033
| 24> C 	 -34.8653 	 77.5509 	 167.407
| 25> C 	 -35.7149 	 77.6674 	 166.371
| 26> C 	 -35.3412 	 77.0189 	 165.175
| 27> C 	 -34.0823 	 76.4477 	 165.339
| 28> H 	 -36.5524 	 78.345 	 166.526
| 29> C 	 -36.1897 	 76.977 	 163.9
| 30> H 	 -36.0566 	 76.0292 	 163.434
| 31> H 	 -35.707 	 77.6505 	 163.181
| 32> C 	 -37.7091 	 77.2683 	 164.002
| 33> H 	 -38.0499 	 77.3778 	 163
| 34> H 	 -38.0333 	 78.1379 	 164.57
| 35> C 	 -38.5209 	 76.0417 	 164.501
| 36> H 	 -39.5864 	 76.3577 	 164.548
| 37> H 	 -38.3525 	 75.8176 	 165.541
| 38> H 	 -38.3829 	 75.2184 	 163.857
| 39> H 	 -30.9635 	 73.294 	 163.085
| 40> H 	 -35.0018 	 78.1458 	 168.255
| 41> *
| 42>
| 43>                          ****END OF INPUT****

CARTESIAN COORDINATES (ANGSTROEM)
---------------------------------
  S    -32.350900   74.411000  164.929000
  C    -31.663600   74.125700  163.356000
  C    -32.140400   75.031300  162.397000
  C    -33.078100   75.922100  163.038000
  C    -33.264800   75.752500  164.407000
  H    -33.539600   76.692400  162.459000
  C    -31.990000   75.073000  160.850000
  H    -33.024000   75.093500  160.483000
  H    -31.688000   74.086500  160.596000
  C    -31.070900   76.194400  160.294000
  H    -31.112900   76.256000  159.185000
  H    -31.442000   77.163800  160.651000
  C    -29.584600   76.062900  160.673000
  H    -29.490900   75.952700  161.731000
  H    -29.252800   75.171400  160.107000
  H    -29.038600   76.944000  160.321000
  S    -33.436500   76.686600  167.033000
  C    -34.865300   77.550900  167.407000
  C    -35.714900   77.667400  166.371000
  C    -35.341200   77.018900  165.175000
  C    -34.082300   76.447700  165.339000
  H    -36.552400   78.345000  166.526000
  C    -36.189700   76.977000  163.900000
  H    -36.056600   76.029200  163.434000
  H    -35.707000   77.650500  163.181000
  C    -37.709100   77.268300  164.002000
  H    -38.049900   77.377800  163.000000
  H    -38.033300   78.137900  164.570000
  C    -38.520900   76.041700  164.501000
  H    -39.586400   76.357700  164.548000
  H    -38.352500   75.817600  165.541000
  H    -38.382900   75.218400  163.857000
  H    -30.963500   73.294000  163.085000
  H    -35.001800   78.145800  168.255000

 Total Charge           Charge          ....    0
 Multiplicity           Mult            ....    1
 Number of Electrons    NEL             ....  134
 Basis Dimension        Dim             ....  322

ORBITAL ENERGIES
----------------

  NO   OCC          E(Eh)            E(eV)
   0   2.0000     -88.965729     -2420.8806
   1   2.0000     -88.965474     -2420.8736
   2   2.0000     -10.328078      -281.0413
   3   2.0000     -10.323887      -280.9273
   4   2.0000     -10.318077      -280.7692
   5   2.0000     -10.305548      -280.4282
   6   2.0000     -10.305412      -280.4245
   7   2.0000     -10.304337      -280.3953
   8   2.0000     -10.297848      -280.2187
   9   2.0000     -10.295807      -280.1631
  10   2.0000     -10.292338      -280.0688
  11   2.0000     -10.290102      -280.0079
  12   2.0000     -10.288846      -279.9737
  13   2.0000     -10.286557      -279.9115
  14   2.0000     -10.276524      -279.6384
  15   2.0000     -10.273921      -279.5676
  16   2.0000      -8.081120      -219.8985
  17   2.0000      -8.080174      -219.8727
  18   2.0000      -6.039614      -164.3462
  19   2.0000      -6.038663      -164.3204
  20   2.0000      -6.035390      -164.2313
  21   2.0000      -6.034903      -164.2181
  22   2.0000      -6.031944      -164.1375
  23   2.0000      -6.030795      -164.1063
  24   2.0000      -1.009343       -27.4656
  25   2.0000      -0.985000       -26.8032
  26   2.0000      -0.908857       -24.7313
  27   2.0000      -0.908542       -24.7227
  28   2.0000      -0.871694       -23.7200
  29   2.0000      -0.854534       -23.2530
  30   2.0000      -0.842271       -22.9193
  31   2.0000      -0.810463       -22.0538
  32   2.0000      -0.788920       -21.4676
  33   2.0000      -0.776583       -21.1319
  34   2.0000      -0.711270       -19.3546
  35   2.0000      -0.702008       -19.1026
  36   2.0000      -0.694352       -18.8943
  37   2.0000      -0.652652       -17.7596
  38   2.0000      -0.633501       -17.2384
  39   2.0000      -0.624235       -16.9863
  40   2.0000      -0.605111       -16.4659
  41   2.0000      -0.565236       -15.3808
  42   2.0000      -0.553333       -15.0569
  43   2.0000      -0.549424       -14.9506
  44   2.0000      -0.544536       -14.8176
  45   2.0000      -0.540527       -14.7085
  46   2.0000      -0.524307       -14.2671
  47   2.0000      -0.507523       -13.8104
  48   2.0000      -0.501079       -13.6350
  49   2.0000      -0.491817       -13.3830
  50   2.0000      -0.488885       -13.3032
  51   2.0000      -0.479618       -13.0511
  52   2.0000      -0.471055       -12.8181
  53   2.0000      -0.467958       -12.7338
  54   2.0000      -0.454638       -12.3713
  55   2.0000      -0.451603       -12.2887
  56   2.0000      -0.444032       -12.0827
  57   2.0000      -0.439291       -11.9537
  58   2.0000      -0.435732       -11.8569
  59   2.0000      -0.428988       -11.6734
  60   2.0000      -0.421547       -11.4709
  61   2.0000      -0.417256       -11.3541
  62   2.0000      -0.415887       -11.3169
  63   2.0000      -0.354823        -9.6552
  64   2.0000      -0.334148        -9.0926
  65   2.0000      -0.330103        -8.9826
  66   2.0000      -0.282689        -7.6923
  67   0.0000       0.025847         0.7033
  68   0.0000       0.075483         2.0540
  69   0.0000       0.104291         2.8379
  70   0.0000       0.121001         3.2926
  71   0.0000       0.140334         3.8187

MULLIKEN ATOMIC CHARGES
-----------------------
   0 S :    0.114761
   1 C :   -0.140137
   2 C :   -0.124284
   3 C :    0.002641
   4 C :   -0.132955
   5 H :   -0.008103
   6 C :    0.087705
   7 H :    0.035929
   8 H :    0.002768
   9 C :   -0.076109
  10 H :    0.034619
  11 H :    0.024608
  12 C :   -0.049337
  13 H :    0.042489
  14 H :    0.031582
  15 H :    0.041164
  16 S :    0.102608
  17 C :   -0.046347
  18 C :   -0.065441
  19 C :   -0.016099
  20 C :   -0.151167
  21 H :    0.013751
  22 C :    0.075208
  23 H :    0.018733
  24 H :    0.043235
  25 C :   -0.050945
  26 H :    0.019538
  27 H :    0.033063
  28 C :   -0.052681
  29 H :    0.030073
  30 H :    0.033201
  31 H :    0.031565
  32 H :    0.062375
  33 H :    0.031990
Sum of atomic charges:    0.0000000

LOEWDIN ATOMIC CHARGES
----------------------
   0 S :    0.432046
   1 C :   -0.215734
   2 C :   -0.063921
   3 C :   -0.070032
   4 C :   -0.209507
   5 H :    0.020253
   6 C :   -0.027426
   7 H :    0.037456
   8 H :    0.022027
   9 C :   -0.041916
  10 H :    0.026461
  11 H :    0.020662
  12 C :   -0.060942
  13 H :    0.022263
  14 H :    0.027659
  15 H :    0.029276
  16 S :    0.384223
  17 C :   -0.185620
  18 C :   -0.077310
  19 C :   -0.045417
  20 C :   -0.175354
  21 H :    0.031718
  22 C :   -0.028670
  23 H :    0.030581
  24 H :    0.035240
  25 C :   -0.035221
  26 H :    0.024854
  27 H :    0.023432
  28 C :   -0.060401
  29 H :    0.030486
  30 H :    0.022782
  31 H :    0.018141
  32 H :    0.037349
  33 H :    0.020562

  Mayer bond orders larger than 0.100000
B(  0-S ,  1-C ) :   1.1504 B(  0-S ,  4-C ) :   1.1598 B(  1-C ,  2-C ) :   1.5954
B(  1-C , 32-H ) :   0.9595 B(  2-C ,  3-C ) :   1.2688 B(  2-C ,  6-C ) :   1.0023
B(  3-C ,  4-C ) :   1.5314 B(  3-C ,  5-H ) :   0.9992 B(  4-C , 20-C ) :   1.0910
B(  6-C ,  7-H ) :   0.9468 B(  6-C ,  8-H ) :   0.9427 B(  6-C ,  9-C ) :   1.0535
B(  9-C , 10-H ) :   0.9588 B(  9-C , 11-H ) :   0.9583 B(  9-C , 12-C ) :   1.0727
B( 12-C , 13-H ) :   0.9779 B( 12-C , 14-H ) :   0.9775 B( 12-C , 15-H ) :   0.9740
B( 16-S , 17-C ) :   1.1401 B( 16-S , 20-C ) :   1.1204 B( 17-C , 18-C ) :   1.6531
B( 17-C , 33-H ) :   0.9618 B( 18-C , 19-C ) :   1.2269 B( 18-C , 21-H ) :   0.9843
B( 19-C , 20-C ) :   1.6016 B( 19-C , 22-C ) :   1.0273 B( 22-C , 23-H ) :   0.9266
B( 22-C , 24-H ) :   0.9264 B( 22-C , 25-C ) :   1.0759 B( 25-C , 26-H ) :   0.9492
B( 25-C , 27-H ) :   0.9557 B( 25-C , 28-C ) :   1.0841 B( 28-C , 29-H ) :   0.9740
B( 28-C , 30-H ) :   0.9778 B( 28-C , 31-H ) :   0.9762

Dispersion correction           -0.013952055
FINAL SINGLE POINT ENERGY     -1339.883125806744

DIPOLE MOMENT
-------------
                                X             Y             Z
Electronic contribution:      7.91265      -4.13937      22.38200
Nuclear contribution   :     -8.31505       4.43207     -23.00607
                        -----------------------------------------
Total Dipole Moment    :     -0.40240       0.29270      -0.62407
                        -----------------------------------------
Magnitude (a.u.)       :      0.79816
Magnitude (Debye)      :      2.02877

Rotational constants in cm-1:     0.019854     0.007902     0.006496
Rotational constants in MHz :   595.212598   236.894266   194.759237

                             ****ORCA TERMINATED NORMALLY****
TOTAL RUN TIME: 0 days 0 hours 0 minutes 34 seconds 149 msec
