                         Program Version 4.2.1 -  RELEASE  -
|  1> ! wB97X-D3 SP def2-SVP
|  2> %pal
|  3> nprocs 16
|  4> end
|  5>
|  6> * xyz 0 1
|  7> S 	 50.4873 	 21.6572 	 45.5476
|  8> C 	 50.6776 	 20.2993 	 44.364
|  9> C 	 49.5705 	 20.2231 	 43.5213
| 10> C 	 48.6089 	 21.2379 	 43.8858
| 11> C 	 48.9304 	 22.0852 	 44.9143
| 12> H 	 47.6775 	 21.4527 	 43.367
| 13> C 	 49.2884 	 19.2482 	 42.3169
| 14> H 	 48.2412 	 19.1471 	 42.2633
| 15> H 	 49.6287 	 18.2599 	 42.552
| 16> C 	 49.8549 	 19.6225 	 40.9782
| 17> H 	 49.4669 	 20.6266 	 40.7656
| 18> H 	 50.935 	 19.7993 	 40.9333
| 19> C 	 49.5391 	 18.5226 	 39.9774
| 20> H 	 49.4757 	 17.5317 	 40.4756
| 21> H 	 48.5178 	 18.6663 	 39.632
| 22> H 	 50.1414 	 18.6316 	 39.1048
| 23> S 	 47.5003 	 24.2776 	 43.9574
| 24> C 	 46.7746 	 25.3303 	 45.0703
| 25> C 	 46.8284 	 24.8394 	 46.3339
| 26> C 	 47.6528 	 23.7026 	 46.4998
| 27> C 	 48.0778 	 23.2088 	 45.2582
| 28> H 	 46.2963 	 25.3985 	 47.1401
| 29> C 	 47.9618 	 23.0781 	 47.8545
| 30> H 	 48.1139 	 22.0258 	 47.6548
| 31> H 	 47.0455 	 23.0409 	 48.5146
| 32> C 	 49.1402 	 23.7355 	 48.6034
| 33> H 	 49.8725 	 23.8969 	 47.7621
| 34> H 	 49.6978 	 23.1598 	 49.3993
| 35> C 	 48.8743 	 25.1716 	 49.148
| 36> H 	 48.0797 	 25.1699 	 49.8901
| 37> H 	 48.5658 	 25.8105 	 48.3752
| 38> H 	 49.7967 	 25.6651 	 49.4603
| 39> H 	 51.6347 	 19.7729 	 44.3233
| 40> H 	 46.036 	 26.1016 	 44.8032
| 41> *
| 42>
| 43>                          ****END OF INPUT****

CARTESIAN COORDINATES (ANGSTROEM)
---------------------------------
  S     50.487300   21.657200   45.547600
  C     50.677600   20.299300   44.364000
  C     49.570500   20.223100   43.521300
  C     48.608900   21.237900   43.885800
  C     48.930400   22.085200   44.914300
  H     47.677500   21.452700   43.367000
  C     49.288400   19.248200   42.316900
  H     48.241200   19.147100   42.263300
  H     49.628700   18.259900   42.552000
  C     49.854900   19.622500   40.978200
  H     49.466900   20.626600   40.765600
  H     50.935000   19.799300   40.933300
  C     49.539100   18.522600   39.977400
  H     49.475700   17.531700   40.475600
  H     48.517800   18.666300   39.632000
  H     50.141400   18.631600   39.104800
  S     47.500300   24.277600   43.957400
  C     46.774600   25.330300   45.070300
  C     46.828400   24.839400   46.333900
  C     47.652800   23.702600   46.499800
  C     48.077800   23.208800   45.258200
  H     46.296300   25.398500   47.140100
  C     47.961800   23.078100   47.854500
  H     48.113900   22.025800   47.654800
  H     47.045500   23.040900   48.514600
  C     49.140200   23.735500   48.603400
  H     49.872500   23.896900   47.762100
  H     49.697800   23.159800   49.399300
  C     48.874300   25.171600   49.148000
  H     48.079700   25.169900   49.890100
  H     48.565800   25.810500   48.375200
  H     49.796700   25.665100   49.460300
  H     51.634700   19.772900   44.323300
  H     46.036000   26.101600   44.803200

 Total Charge           Charge          ....    0
 Multiplicity           Mult            ....    1
 Number of Electrons    NEL             ....  134
 Basis Dimension        Dim             ....  322

ORBITAL ENERGIES
----------------

  NO   OCC          E(Eh)            E(eV)
   0   2.0000     -88.967902     -2420.9397
   1   2.0000     -88.967889     -2420.9393
   2   2.0000     -10.331118      -281.1240
   3   2.0000     -10.327038      -281.0130
   4   2.0000     -10.324326      -280.9392
   5   2.0000     -10.311694      -280.5955
   6   2.0000     -10.311408      -280.5877
   7   2.0000     -10.305175      -280.4181
   8   2.0000     -10.295946      -280.1669
   9   2.0000     -10.293133      -280.0904
  10   2.0000     -10.291989      -280.0593
  11   2.0000     -10.291455      -280.0447
  12   2.0000     -10.291186      -280.0374
  13   2.0000     -10.284026      -279.8426
  14   2.0000     -10.278218      -279.6845
  15   2.0000     -10.270790      -279.4824
  16   2.0000      -8.083013      -219.9500
  17   2.0000      -8.081558      -219.9104
  18   2.0000      -6.041443      -164.3960
  19   2.0000      -6.040156      -164.3610
  20   2.0000      -6.037455      -164.2875
  21   2.0000      -6.036187      -164.2530
  22   2.0000      -6.033835      -164.1890
  23   2.0000      -6.032313      -164.1476
  24   2.0000      -1.008794       -27.4507
  25   2.0000      -0.983746       -26.7691
  26   2.0000      -0.917063       -24.9546
  27   2.0000      -0.904836       -24.6218
  28   2.0000      -0.872239       -23.7348
  29   2.0000      -0.848515       -23.0893
  30   2.0000      -0.843925       -22.9644
  31   2.0000      -0.810298       -22.0493
  32   2.0000      -0.785830       -21.3835
  33   2.0000      -0.776417       -21.1274
  34   2.0000      -0.704345       -19.1662
  35   2.0000      -0.704271       -19.1642
  36   2.0000      -0.688566       -18.7368
  37   2.0000      -0.663834       -18.0638
  38   2.0000      -0.635743       -17.2994
  39   2.0000      -0.616593       -16.7783
  40   2.0000      -0.596026       -16.2187
  41   2.0000      -0.568578       -15.4718
  42   2.0000      -0.563017       -15.3205
  43   2.0000      -0.548875       -14.9356
  44   2.0000      -0.543482       -14.7889
  45   2.0000      -0.532734       -14.4964
  46   2.0000      -0.516434       -14.0529
  47   2.0000      -0.507773       -13.8172
  48   2.0000      -0.505647       -13.7594
  49   2.0000      -0.492619       -13.4048
  50   2.0000      -0.488503       -13.2928
  51   2.0000      -0.476506       -12.9664
  52   2.0000      -0.471940       -12.8421
  53   2.0000      -0.468471       -12.7478
  54   2.0000      -0.462065       -12.5734
  55   2.0000      -0.451329       -12.2813
  56   2.0000      -0.442890       -12.0517
  57   2.0000      -0.440664       -11.9911
  58   2.0000      -0.431781       -11.7494
  59   2.0000      -0.421083       -11.4582
  60   2.0000      -0.420030       -11.4296
  61   2.0000      -0.409179       -11.1343
  62   2.0000      -0.406394       -11.0586
  63   2.0000      -0.349105        -9.4996
  64   2.0000      -0.335374        -9.1260
  65   2.0000      -0.332280        -9.0418
  66   2.0000      -0.294165        -8.0046
  67   0.0000       0.027591         0.7508
  68   0.0000       0.070304         1.9131
  69   0.0000       0.103704         2.8219
  70   0.0000       0.111423         3.0320
  71   0.0000       0.129563         3.5256

MULLIKEN ATOMIC CHARGES
-----------------------
   0 S :    0.097816
   1 C :   -0.155828
   2 C :   -0.042996
   3 C :   -0.023533
   4 C :   -0.112864
   5 H :    0.012158
   6 C :    0.083516
   7 H :    0.012625
   8 H :    0.012388
   9 C :   -0.067824
  10 H :    0.024141
  11 H :    0.026232
  12 C :   -0.025581
  13 H :    0.036270
  14 H :    0.021282
  15 H :    0.036053
  16 S :    0.116864
  17 C :   -0.092615
  18 C :   -0.057495
  19 C :   -0.048712
  20 C :   -0.171119
  21 H :    0.033961
  22 C :    0.063188
  23 H :    0.028625
  24 H :    0.034037
  25 C :   -0.093336
  26 H :    0.027037
  27 H :    0.051068
  28 C :   -0.032853
  29 H :    0.027403
  30 H :    0.015124
  31 H :    0.033972
  32 H :    0.063216
  33 H :    0.067780
Sum of atomic charges:   -0.0000000

LOEWDIN ATOMIC CHARGES
----------------------
   0 S :    0.390770
   1 C :   -0.177428
   2 C :   -0.053864
   3 C :   -0.072719
   4 C :   -0.203850
   5 H :    0.025219
   6 C :   -0.021951
   7 H :    0.025776
   8 H :    0.024619
   9 C :   -0.044619
  10 H :    0.025468
  11 H :    0.023701
  12 C :   -0.063584
  13 H :    0.031966
  14 H :    0.026242
  15 H :    0.025135
  16 S :    0.424336
  17 C :   -0.212086
  18 C :   -0.079139
  19 C :   -0.055439
  20 C :   -0.183601
  21 H :    0.038098
  22 C :   -0.038464
  23 H :    0.030050
  24 H :    0.034198
  25 C :   -0.047205
  26 H :    0.025507
  27 H :    0.031915
  28 C :   -0.065933
  29 H :    0.020771
  30 H :    0.016798
  31 H :    0.030428
  32 H :    0.031077
  33 H :    0.037808

  Mayer bond orders larger than 0.100000
B(  0-S ,  1-C ) :   1.1304 B(  0-S ,  4-C ) :   1.1316 B(  1-C ,  2-C ) :   1.6066
B(  1-C , 32-H ) :   0.9729 B(  2-C ,  3-C ) :   1.2313 B(  2-C ,  6-C ) :   1.0041
B(  3-C ,  4-C ) :   1.5738 B(  3-C ,  5-H ) :   0.9924 B(  4-C , 20-C ) :   1.0594
B(  6-C ,  7-H ) :   0.9429 B(  6-C ,  8-H ) :   0.9390 B(  6-C ,  9-C ) :   1.0701
B(  9-C , 10-H ) :   0.9517 B(  9-C , 11-H ) :   0.9593 B(  9-C , 12-C ) :   1.0710
B( 12-C , 13-H ) :   0.9722 B( 12-C , 14-H ) :   0.9721 B( 12-C , 15-H ) :   0.9740
B( 16-S , 17-C ) :   1.1637 B( 16-S , 20-C ) :   1.1493 B( 17-C , 18-C ) :   1.6129
B( 17-C , 33-H ) :   0.9547 B( 18-C , 19-C ) :   1.2589 B( 18-C , 21-H ) :   0.9780
B( 19-C , 20-C ) :   1.5640 B( 19-C , 22-C ) :   1.0409 B( 22-C , 23-H ) :   0.9289
B( 22-C , 24-H ) :   0.9455 B( 22-C , 25-C ) :   1.0453 B( 25-C , 26-H ) :   0.9523
B( 25-C , 27-H ) :   0.9615 B( 25-C , 28-C ) :   1.0784 B( 28-C , 29-H ) :   0.9768
B( 28-C , 30-H ) :   0.9703 B( 28-C , 31-H ) :   0.9712

Dispersion correction           -0.014232526
FINAL SINGLE POINT ENERGY     -1339.877920296127

DIPOLE MOMENT
-------------
                                X             Y             Z
Electronic contribution:     -1.20492       7.51841       0.83282
Nuclear contribution   :      1.01658      -7.68949      -1.00990
                        -----------------------------------------
Total Dipole Moment    :     -0.18835      -0.17108      -0.17708
                        -----------------------------------------
Magnitude (a.u.)       :      0.31000
Magnitude (Debye)      :      0.78796

Rotational constants in cm-1:     0.026186     0.007124     0.005898
Rotational constants in MHz :   785.043388   213.575623   176.810485

                             ****ORCA TERMINATED NORMALLY****
TOTAL RUN TIME: 0 days 0 hours 0 minutes 30 seconds 972 msec
