                         Program Version 4.2.1 -  RELEASE  -
|  1> ! wB97X-D3 SP def2-SVP
|  2> %pal
|  3> nprocs 16
|  4> end
|  5>
|  6> * xyz 0 1
|  7> S 	 -90.1583 	 50.0722 	 130.127
|  8> C 	 -90.1681 	 51.8438 	 130.192
|  9> C 	 -88.8635 	 52.3428 	 130.093
| 10> C 	 -87.8669 	 51.2862 	 130.054
| 11> C 	 -88.3994 	 49.9962 	 130.098
| 12> H 	 -86.8059 	 51.4259 	 129.862
| 13> C 	 -88.5039 	 53.8461 	 129.862
| 14> H 	 -89.3145 	 54.2869 	 129.23
| 15> H 	 -87.5576 	 53.9305 	 129.334
| 16> C 	 -88.464 	 54.6775 	 131.073
| 17> H 	 -88.6465 	 55.7003 	 130.914
| 18> H 	 -89.348 	 54.2976 	 131.57
| 19> C 	 -87.1955 	 54.6287 	 131.952
| 20> H 	 -86.3847 	 55.2246 	 131.534
| 21> H 	 -87.4764 	 55.1967 	 132.84
| 22> H 	 -86.8147 	 53.5507 	 132.053
| 23> S 	 -88.3921 	 47.5363 	 128.768
| 24> C 	 -86.8859 	 46.6253 	 128.635
| 25> C 	 -85.9796 	 47.0478 	 129.625
| 26> C 	 -86.4466 	 48.2702 	 130.268
| 27> C 	 -87.7077 	 48.7439 	 129.825
| 28> H 	 -85.0378 	 46.5915 	 129.804
| 29> C 	 -85.6892 	 48.9579 	 131.406
| 30> H 	 -86.1174 	 49.9241 	 131.764
| 31> H 	 -84.6976 	 49.1351 	 130.967
| 32> C 	 -85.6881 	 48.0826 	 132.627
| 33> H 	 -84.9222 	 48.4645 	 133.392
| 34> H 	 -85.3299 	 47.0575 	 132.31
| 35> C 	 -87.0957 	 47.9887 	 133.333
| 36> H 	 -87.4433 	 48.8278 	 134.005
| 37> H 	 -86.9981 	 47.191 	 134.056
| 38> H 	 -87.8358 	 47.6454 	 132.651
| 39> H 	 -90.9669 	 52.5149 	 130.133
| 40> H 	 -86.7821 	 45.8255 	 127.853
| 41> *
| 42>
| 43>                          ****END OF INPUT****

CARTESIAN COORDINATES (ANGSTROEM)
---------------------------------
  S    -90.158300   50.072200  130.127000
  C    -90.168100   51.843800  130.192000
  C    -88.863500   52.342800  130.093000
  C    -87.866900   51.286200  130.054000
  C    -88.399400   49.996200  130.098000
  H    -86.805900   51.425900  129.862000
  C    -88.503900   53.846100  129.862000
  H    -89.314500   54.286900  129.230000
  H    -87.557600   53.930500  129.334000
  C    -88.464000   54.677500  131.073000
  H    -88.646500   55.700300  130.914000
  H    -89.348000   54.297600  131.570000
  C    -87.195500   54.628700  131.952000
  H    -86.384700   55.224600  131.534000
  H    -87.476400   55.196700  132.840000
  H    -86.814700   53.550700  132.053000
  S    -88.392100   47.536300  128.768000
  C    -86.885900   46.625300  128.635000
  C    -85.979600   47.047800  129.625000
  C    -86.446600   48.270200  130.268000
  C    -87.707700   48.743900  129.825000
  H    -85.037800   46.591500  129.804000
  C    -85.689200   48.957900  131.406000
  H    -86.117400   49.924100  131.764000
  H    -84.697600   49.135100  130.967000
  C    -85.688100   48.082600  132.627000
  H    -84.922200   48.464500  133.392000
  H    -85.329900   47.057500  132.310000
  C    -87.095700   47.988700  133.333000
  H    -87.443300   48.827800  134.005000
  H    -86.998100   47.191000  134.056000
  H    -87.835800   47.645400  132.651000
  H    -90.966900   52.514900  130.133000
  H    -86.782100   45.825500  127.853000

 Total Charge           Charge          ....    0
 Multiplicity           Mult            ....    1
 Number of Electrons    NEL             ....  134
 Basis Dimension        Dim             ....  322

ORBITAL ENERGIES
----------------

  NO   OCC          E(Eh)            E(eV)
   0   2.0000     -88.970647     -2421.0144
   1   2.0000     -88.965542     -2420.8755
   2   2.0000     -10.336527      -281.2712
   3   2.0000     -10.331742      -281.1410
   4   2.0000     -10.331206      -281.1264
   5   2.0000     -10.316205      -280.7182
   6   2.0000     -10.310222      -280.5554
   7   2.0000     -10.308737      -280.5150
   8   2.0000     -10.305272      -280.4207
   9   2.0000     -10.299484      -280.2632
  10   2.0000     -10.295546      -280.1561
  11   2.0000     -10.293832      -280.1094
  12   2.0000     -10.290848      -280.0282
  13   2.0000     -10.282822      -279.8098
  14   2.0000     -10.275012      -279.5973
  15   2.0000     -10.274381      -279.5801
  16   2.0000      -8.084462      -219.9894
  17   2.0000      -8.080307      -219.8763
  18   2.0000      -6.043184      -164.4434
  19   2.0000      -6.039096      -164.3322
  20   2.0000      -6.038886      -164.3265
  21   2.0000      -6.035070      -164.2226
  22   2.0000      -6.034786      -164.2149
  23   2.0000      -6.031001      -164.1119
  24   2.0000      -1.002338       -27.2750
  25   2.0000      -0.978396       -26.6235
  26   2.0000      -0.917057       -24.9544
  27   2.0000      -0.906708       -24.6728
  28   2.0000      -0.869049       -23.6480
  29   2.0000      -0.843864       -22.9627
  30   2.0000      -0.836408       -22.7598
  31   2.0000      -0.812757       -22.1163
  32   2.0000      -0.784341       -21.3430
  33   2.0000      -0.773300       -21.0426
  34   2.0000      -0.704224       -19.1629
  35   2.0000      -0.697432       -18.9781
  36   2.0000      -0.687510       -18.7081
  37   2.0000      -0.658194       -17.9104
  38   2.0000      -0.639265       -17.3953
  39   2.0000      -0.613759       -16.7012
  40   2.0000      -0.595943       -16.2164
  41   2.0000      -0.576593       -15.6899
  42   2.0000      -0.559075       -15.2132
  43   2.0000      -0.555052       -15.1037
  44   2.0000      -0.546951       -14.8833
  45   2.0000      -0.530350       -14.4316
  46   2.0000      -0.511061       -13.9067
  47   2.0000      -0.509655       -13.8684
  48   2.0000      -0.505579       -13.7575
  49   2.0000      -0.491012       -13.3611
  50   2.0000      -0.483348       -13.1526
  51   2.0000      -0.479038       -13.0353
  52   2.0000      -0.472878       -12.8677
  53   2.0000      -0.470361       -12.7992
  54   2.0000      -0.456654       -12.4262
  55   2.0000      -0.449545       -12.2327
  56   2.0000      -0.445870       -12.1327
  57   2.0000      -0.435007       -11.8371
  58   2.0000      -0.430148       -11.7049
  59   2.0000      -0.421276       -11.4635
  60   2.0000      -0.416256       -11.3269
  61   2.0000      -0.403757       -10.9868
  62   2.0000      -0.402960       -10.9651
  63   2.0000      -0.355901        -9.6845
  64   2.0000      -0.332960        -9.0603
  65   2.0000      -0.326709        -8.8902
  66   2.0000      -0.284910        -7.7528
  67   0.0000       0.019433         0.5288
  68   0.0000       0.065111         1.7718
  69   0.0000       0.103870         2.8264
  70   0.0000       0.111371         3.0305
  71   0.0000       0.132636         3.6092

MULLIKEN ATOMIC CHARGES
-----------------------
   0 S :    0.102961
   1 C :   -0.076103
   2 C :   -0.121477
   3 C :    0.025080
   4 C :   -0.135477
   5 H :    0.023814
   6 C :    0.054585
   7 H :    0.034405
   8 H :    0.019543
   9 C :   -0.045102
  10 H :    0.014407
  11 H :    0.011766
  12 C :   -0.063170
  13 H :    0.027876
  14 H :    0.038695
  15 H :    0.048997
  16 S :    0.095536
  17 C :   -0.123273
  18 C :    0.003345
  19 C :   -0.101828
  20 C :   -0.124910
  21 H :    0.018837
  22 C :    0.074801
  23 H :    0.035929
  24 H :    0.031544
  25 C :   -0.117181
  26 H :    0.041421
  27 H :    0.029911
  28 C :   -0.047346
  29 H :    0.048717
  30 H :    0.019297
  31 H :    0.040885
  32 H :    0.025680
  33 H :    0.087835
Sum of atomic charges:   -0.0000000

LOEWDIN ATOMIC CHARGES
----------------------
   0 S :    0.396250
   1 C :   -0.188185
   2 C :   -0.054832
   3 C :   -0.066452
   4 C :   -0.184407
   5 H :    0.032345
   6 C :   -0.030202
   7 H :    0.039533
   8 H :    0.025084
   9 C :   -0.049285
  10 H :    0.017726
  11 H :    0.023202
  12 C :   -0.069284
  13 H :    0.022255
  14 H :    0.030948
  15 H :    0.034109
  16 S :    0.397633
  17 C :   -0.180941
  18 C :   -0.067361
  19 C :   -0.053144
  20 C :   -0.207917
  21 H :    0.028033
  22 C :   -0.042558
  23 H :    0.034804
  24 H :    0.030204
  25 C :   -0.044961
  26 H :    0.030127
  27 H :    0.023685
  28 C :   -0.070681
  29 H :    0.035661
  30 H :    0.025292
  31 H :    0.022747
  32 H :    0.018635
  33 H :    0.041939

  Mayer bond orders larger than 0.100000
B(  0-S ,  1-C ) :   1.1256 B(  0-S ,  4-C ) :   1.1435 B(  1-C ,  2-C ) :   1.6212
B(  1-C , 32-H ) :   0.9698 B(  2-C ,  3-C ) :   1.2449 B(  2-C ,  6-C ) :   1.0189
B(  3-C ,  4-C ) :   1.5617 B(  3-C ,  5-H ) :   0.9873 B(  4-C , 20-C ) :   1.0721
B(  6-C ,  7-H ) :   0.9389 B(  6-C ,  8-H ) :   0.9477 B(  6-C ,  9-C ) :   1.0759
B(  9-C , 10-H ) :   0.9512 B(  9-C , 11-H ) :   0.9507 B(  9-C , 12-C ) :   1.0796
B( 12-C , 13-H ) :   0.9737 B( 12-C , 14-H ) :   0.9726 B( 12-C , 15-H ) :   0.9754
B( 16-S , 17-C ) :   1.1700 B( 16-S , 20-C ) :   1.1277 B( 17-C , 18-C ) :   1.5618
B( 17-C , 33-H ) :   0.9652 B( 18-C , 19-C ) :   1.2535 B( 18-C , 21-H ) :   0.9946
B( 19-C , 20-C ) :   1.5627 B( 19-C , 22-C ) :   1.0358 B( 22-C , 23-H ) :   0.9390
B( 22-C , 24-H ) :   0.9316 B( 22-C , 25-C ) :   1.0712 B( 25-C , 26-H ) :   0.9540
B( 25-C , 27-H ) :   0.9581 B( 25-C , 28-C ) :   1.0670 B( 28-C , 29-H ) :   0.9741
B( 28-C , 30-H ) :   0.9710 B( 28-C , 31-H ) :   0.9758

Dispersion correction           -0.014717870
FINAL SINGLE POINT ENERGY     -1339.863002658339

DIPOLE MOMENT
-------------
                                X             Y             Z
Electronic contribution:    -12.90165     -15.98480     -16.22795
Nuclear contribution   :     13.39112      16.33557      16.24050
                        -----------------------------------------
Total Dipole Moment    :      0.48946       0.35076       0.01255
                        -----------------------------------------
Magnitude (a.u.)       :      0.60230
Magnitude (Debye)      :      1.53093

Rotational constants in cm-1:     0.020142     0.008591     0.007092
Rotational constants in MHz :   603.854949   257.561301   212.620760

                             ****ORCA TERMINATED NORMALLY****
TOTAL RUN TIME: 0 days 0 hours 0 minutes 35 seconds 159 msec
