                         Program Version 4.2.1 -  RELEASE  -
|  1> ! wB97X-D3 SP def2-SVP
|  2> %pal
|  3> nprocs 16
|  4> end
|  5>
|  6> * xyz 0 1
|  7> S 	 -1.29298 	 43.9719 	 34.8085
|  8> C 	 -1.97103 	 43.1992 	 36.2032
|  9> C 	 -1.19196 	 43.3425 	 37.2933
| 10> C 	 -0.0150745 	 44.114 	 37.0405
| 11> C 	 0.145318 	 44.4546 	 35.6969
| 12> H 	 0.761461 	 44.3707 	 37.685
| 13> C 	 -1.60078 	 42.7568 	 38.6501
| 14> H 	 -2.09521 	 43.5988 	 39.214
| 15> H 	 -0.675121 	 42.6376 	 39.2518
| 16> C 	 -2.50188 	 41.4457 	 38.7002
| 17> H 	 -3.39675 	 41.7037 	 38.2087
| 18> H 	 -2.01713 	 40.5747 	 38.0592
| 19> C 	 -2.80288 	 40.8527 	 40.046
| 20> H 	 -1.86696 	 40.5249 	 40.4998
| 21> H 	 -3.26709 	 41.6321 	 40.6364
| 22> H 	 -3.6342 	 40.0723 	 39.8715
| 23> S 	 2.08017 	 44.4447 	 33.8565
| 24> C 	 3.3071 	 45.757 	 33.7875
| 25> C 	 2.91495 	 46.7533 	 34.6614
| 26> C 	 1.73449 	 46.4913 	 35.4
| 27> C 	 1.21517 	 45.2356 	 35.1032
| 28> H 	 3.57396 	 47.5557 	 34.9636
| 29> C 	 1.25225 	 47.3594 	 36.5712
| 30> H 	 1.97833 	 48.1528 	 36.7205
| 31> H 	 1.07589 	 46.8003 	 37.4147
| 32> C 	 -0.154902 	 48.0081 	 36.3433
| 33> H 	 -0.637316 	 48.42 	 37.2623
| 34> H 	 -0.805507 	 47.2373 	 35.9797
| 35> C 	 -0.231288 	 49.1857 	 35.3198
| 36> H 	 -1.29395 	 49.5002 	 35.1395
| 37> H 	 0.215491 	 48.7988 	 34.4209
| 38> H 	 0.300382 	 50.1195 	 35.5592
| 39> H 	 -2.81956 	 42.5057 	 36.2851
| 40> H 	 4.21937 	 45.7993 	 33.1427
| 41> *
| 42>
| 43>                          ****END OF INPUT****

CARTESIAN COORDINATES (ANGSTROEM)
---------------------------------
  S     -1.292980   43.971900   34.808500
  C     -1.971030   43.199200   36.203200
  C     -1.191960   43.342500   37.293300
  C     -0.015074   44.114000   37.040500
  C      0.145318   44.454600   35.696900
  H      0.761461   44.370700   37.685000
  C     -1.600780   42.756800   38.650100
  H     -2.095210   43.598800   39.214000
  H     -0.675121   42.637600   39.251800
  C     -2.501880   41.445700   38.700200
  H     -3.396750   41.703700   38.208700
  H     -2.017130   40.574700   38.059200
  C     -2.802880   40.852700   40.046000
  H     -1.866960   40.524900   40.499800
  H     -3.267090   41.632100   40.636400
  H     -3.634200   40.072300   39.871500
  S      2.080170   44.444700   33.856500
  C      3.307100   45.757000   33.787500
  C      2.914950   46.753300   34.661400
  C      1.734490   46.491300   35.400000
  C      1.215170   45.235600   35.103200
  H      3.573960   47.555700   34.963600
  C      1.252250   47.359400   36.571200
  H      1.978330   48.152800   36.720500
  H      1.075890   46.800300   37.414700
  C     -0.154902   48.008100   36.343300
  H     -0.637316   48.420000   37.262300
  H     -0.805507   47.237300   35.979700
  C     -0.231288   49.185700   35.319800
  H     -1.293950   49.500200   35.139500
  H      0.215491   48.798800   34.420900
  H      0.300382   50.119500   35.559200
  H     -2.819560   42.505700   36.285100
  H      4.219370   45.799300   33.142700

 Total Charge           Charge          ....    0
 Multiplicity           Mult            ....    1
 Number of Electrons    NEL             ....  134
 Basis Dimension        Dim             ....  322

ORBITAL ENERGIES
----------------

  NO   OCC          E(Eh)            E(eV)
   0   2.0000     -88.967885     -2420.9392
   1   2.0000     -88.966590     -2420.9040
   2   2.0000     -10.331144      -281.1247
   3   2.0000     -10.326368      -280.9948
   4   2.0000     -10.325365      -280.9675
   5   2.0000     -10.308037      -280.4960
   6   2.0000     -10.304286      -280.3939
   7   2.0000     -10.303814      -280.3810
   8   2.0000     -10.299689      -280.2688
   9   2.0000     -10.298529      -280.2372
  10   2.0000     -10.295870      -280.1649
  11   2.0000     -10.293644      -280.1043
  12   2.0000     -10.289491      -279.9913
  13   2.0000     -10.288027      -279.9515
  14   2.0000     -10.284025      -279.8425
  15   2.0000     -10.273399      -279.5534
  16   2.0000      -8.082523      -219.9366
  17   2.0000      -8.081297      -219.9033
  18   2.0000      -6.041030      -164.3848
  19   2.0000      -6.039863      -164.3530
  20   2.0000      -6.036829      -164.2705
  21   2.0000      -6.035753      -164.2412
  22   2.0000      -6.033480      -164.1793
  23   2.0000      -6.032039      -164.1401
  24   2.0000      -1.010571       -27.4990
  25   2.0000      -0.987124       -26.8610
  26   2.0000      -0.907857       -24.7040
  27   2.0000      -0.901622       -24.5344
  28   2.0000      -0.874817       -23.8050
  29   2.0000      -0.852249       -23.1909
  30   2.0000      -0.843583       -22.9551
  31   2.0000      -0.816974       -22.2310
  32   2.0000      -0.781634       -21.2693
  33   2.0000      -0.770442       -20.9648
  34   2.0000      -0.710715       -19.3395
  35   2.0000      -0.697999       -18.9935
  36   2.0000      -0.684806       -18.6345
  37   2.0000      -0.667297       -18.1581
  38   2.0000      -0.641218       -17.4484
  39   2.0000      -0.610813       -16.6211
  40   2.0000      -0.592793       -16.1307
  41   2.0000      -0.573087       -15.5945
  42   2.0000      -0.565049       -15.3758
  43   2.0000      -0.550328       -14.9752
  44   2.0000      -0.544450       -14.8152
  45   2.0000      -0.524468       -14.2715
  46   2.0000      -0.513932       -13.9848
  47   2.0000      -0.508399       -13.8342
  48   2.0000      -0.505656       -13.7596
  49   2.0000      -0.498541       -13.5660
  50   2.0000      -0.488797       -13.3008
  51   2.0000      -0.481082       -13.0909
  52   2.0000      -0.477837       -13.0026
  53   2.0000      -0.472073       -12.8458
  54   2.0000      -0.455324       -12.3900
  55   2.0000      -0.451618       -12.2892
  56   2.0000      -0.444555       -12.0970
  57   2.0000      -0.429276       -11.6812
  58   2.0000      -0.426511       -11.6060
  59   2.0000      -0.424076       -11.5397
  60   2.0000      -0.421040       -11.4571
  61   2.0000      -0.417751       -11.3676
  62   2.0000      -0.408954       -11.1282
  63   2.0000      -0.344745        -9.3810
  64   2.0000      -0.331142        -9.0108
  65   2.0000      -0.330174        -8.9845
  66   2.0000      -0.299829        -8.1588
  67   0.0000       0.031032         0.8444
  68   0.0000       0.063833         1.7370
  69   0.0000       0.111848         3.0436
  70   0.0000       0.122162         3.3242
  71   0.0000       0.131486         3.5779

MULLIKEN ATOMIC CHARGES
-----------------------
   0 S :    0.119404
   1 C :   -0.123813
   2 C :   -0.075419
   3 C :    0.049535
   4 C :   -0.158623
   5 H :   -0.007977
   6 C :    0.043046
   7 H :    0.045679
   8 H :    0.020461
   9 C :   -0.136633
  10 H :    0.027338
  11 H :    0.051019
  12 C :   -0.032722
  13 H :    0.046448
  14 H :    0.025472
  15 H :    0.052897
  16 S :    0.117002
  17 C :   -0.113557
  18 C :   -0.036005
  19 C :   -0.033358
  20 C :   -0.194445
  21 H :    0.023582
  22 C :    0.149047
  23 H :    0.014382
  24 H :    0.008321
  25 C :   -0.105361
  26 H :    0.031643
  27 H :    0.036069
  28 C :   -0.072207
  29 H :    0.039994
  30 H :    0.028494
  31 H :    0.028285
  32 H :    0.053709
  33 H :    0.078292
Sum of atomic charges:   -0.0000000

LOEWDIN ATOMIC CHARGES
----------------------
   0 S :    0.408623
   1 C :   -0.208976
   2 C :   -0.067900
   3 C :   -0.054379
   4 C :   -0.193712
   5 H :    0.021157
   6 C :   -0.040077
   7 H :    0.039331
   8 H :    0.027880
   9 C :   -0.051131
  10 H :    0.011840
  11 H :    0.036337
  12 C :   -0.065499
  13 H :    0.028457
  14 H :    0.022179
  15 H :    0.043454
  16 S :    0.417800
  17 C :   -0.183257
  18 C :   -0.072421
  19 C :   -0.058013
  20 C :   -0.213663
  21 H :    0.032217
  22 C :   -0.015917
  23 H :    0.028280
  24 H :    0.021092
  25 C :   -0.037836
  26 H :    0.024592
  27 H :    0.021995
  28 C :   -0.073816
  29 H :    0.031183
  30 H :    0.020387
  31 H :    0.020993
  32 H :    0.035680
  33 H :    0.043122

  Mayer bond orders larger than 0.100000
B(  0-S ,  1-C ) :   1.1271 B(  0-S ,  4-C ) :   1.1482 B(  1-C ,  2-C ) :   1.6502
B(  1-C , 32-H ) :   0.9547 B(  2-C ,  3-C ) :   1.2267 B(  2-C ,  6-C ) :   1.0101
B(  3-C ,  4-C ) :   1.5829 B(  3-C ,  5-H ) :   1.0067 B(  4-C , 20-C ) :   1.0169
B(  6-C ,  7-H ) :   0.9319 B(  6-C ,  8-H ) :   0.9457 B(  6-C ,  9-C ) :   1.0486
B(  9-C , 10-H ) :   0.9468 B(  9-C , 11-H ) :   0.9600 B(  9-C , 12-C ) :   1.0935
B( 12-C , 13-H ) :   0.9750 B( 12-C , 14-H ) :   0.9707 B( 12-C , 15-H ) :   0.9701
B( 16-S , 17-C ) :   1.1462 B( 16-S , 20-C ) :   1.1727 B( 17-C , 18-C ) :   1.5987
B( 17-C , 20-C ) :   0.1088 B( 17-C , 33-H ) :   0.9641 B( 18-C , 19-C ) :   1.2683
B( 18-C , 21-H ) :   0.9788 B( 19-C , 20-C ) :   1.5653 B( 19-C , 22-C ) :   1.0423
B( 22-C , 23-H ) :   0.9362 B( 22-C , 24-H ) :   0.9328 B( 22-C , 25-C ) :   1.0531
B( 25-C , 26-H ) :   0.9610 B( 25-C , 27-H ) :   0.9592 B( 25-C , 28-C ) :   1.0723
B( 28-C , 29-H ) :   0.9754 B( 28-C , 30-H ) :   0.9781 B( 28-C , 31-H ) :   0.9774

Dispersion correction           -0.014312613
FINAL SINGLE POINT ENERGY     -1339.871211534588

DIPOLE MOMENT
-------------
                                X             Y             Z
Electronic contribution:     10.87249      -4.25392     -20.51704
Nuclear contribution   :    -10.83767       4.30403      21.20314
                        -----------------------------------------
Total Dipole Moment    :      0.03482       0.05011       0.68609
                        -----------------------------------------
Magnitude (a.u.)       :      0.68880
Magnitude (Debye)      :      1.75079

Rotational constants in cm-1:     0.022513     0.007240     0.006402
Rotational constants in MHz :   674.908984   217.051828   191.915891

                             ****ORCA TERMINATED NORMALLY****
TOTAL RUN TIME: 0 days 0 hours 0 minutes 33 seconds 2 msec
