                         Program Version 4.2.1 -  RELEASE  -
|  1> ! wB97X-D3 SP def2-SVP
|  2> %pal
|  3> nprocs 16
|  4> end
|  5>
|  6> * xyz 0 1
|  7> S 	 70.4899 	 23.8832 	 79.0953
|  8> C 	 71.4934 	 23.7658 	 80.5489
|  9> C 	 72.8311 	 24.0906 	 80.2444
| 10> C 	 72.958 	 24.6335 	 78.9328
| 11> C 	 71.7961 	 24.7679 	 78.2305
| 12> H 	 73.9777 	 24.8753 	 78.5215
| 13> C 	 74.0571 	 23.8698 	 81.0658
| 14> H 	 74.7257 	 23.2355 	 80.4624
| 15> H 	 73.6851 	 23.3695 	 81.9946
| 16> C 	 74.7561 	 25.1976 	 81.5309
| 17> H 	 75.7205 	 24.9669 	 81.9786
| 18> H 	 74.8915 	 25.735 	 80.6084
| 19> C 	 73.9548 	 26.163 	 82.4781
| 20> H 	 74.6863 	 26.7248 	 82.9527
| 21> H 	 73.1202 	 26.6239 	 81.9158
| 22> H 	 73.458 	 25.5746 	 83.3129
| 23> S 	 71.0775 	 24.3644 	 75.5277
| 24> C 	 71.3875 	 25.6412 	 74.3772
| 25> C 	 71.7945 	 26.7749 	 74.9893
| 26> C 	 71.8868 	 26.6689 	 76.4442
| 27> C 	 71.6039 	 25.3863 	 76.9067
| 28> H 	 71.8855 	 27.6483 	 74.4173
| 29> C 	 72.3845 	 27.8023 	 77.2859
| 30> H 	 72.5939 	 28.5696 	 76.5193
| 31> H 	 73.3559 	 27.4545 	 77.7077
| 32> C 	 71.5223 	 28.3788 	 78.3846
| 33> H 	 71.2978 	 27.5471 	 79.0447
| 34> H 	 70.5203 	 28.6686 	 77.9122
| 35> C 	 72.1634 	 29.4482 	 79.2381
| 36> H 	 72.1429 	 30.4574 	 78.8241
| 37> H 	 73.1107 	 29.2793 	 79.7554
| 38> H 	 71.4965 	 29.5761 	 80.0916
| 39> H 	 71.2297 	 23.342 	 81.501
| 40> H 	 71.182 	 25.6732 	 73.2715
| 41> *
| 42>
| 43>                          ****END OF INPUT****

CARTESIAN COORDINATES (ANGSTROEM)
---------------------------------
  S     70.489900   23.883200   79.095300
  C     71.493400   23.765800   80.548900
  C     72.831100   24.090600   80.244400
  C     72.958000   24.633500   78.932800
  C     71.796100   24.767900   78.230500
  H     73.977700   24.875300   78.521500
  C     74.057100   23.869800   81.065800
  H     74.725700   23.235500   80.462400
  H     73.685100   23.369500   81.994600
  C     74.756100   25.197600   81.530900
  H     75.720500   24.966900   81.978600
  H     74.891500   25.735000   80.608400
  C     73.954800   26.163000   82.478100
  H     74.686300   26.724800   82.952700
  H     73.120200   26.623900   81.915800
  H     73.458000   25.574600   83.312900
  S     71.077500   24.364400   75.527700
  C     71.387500   25.641200   74.377200
  C     71.794500   26.774900   74.989300
  C     71.886800   26.668900   76.444200
  C     71.603900   25.386300   76.906700
  H     71.885500   27.648300   74.417300
  C     72.384500   27.802300   77.285900
  H     72.593900   28.569600   76.519300
  H     73.355900   27.454500   77.707700
  C     71.522300   28.378800   78.384600
  H     71.297800   27.547100   79.044700
  H     70.520300   28.668600   77.912200
  C     72.163400   29.448200   79.238100
  H     72.142900   30.457400   78.824100
  H     73.110700   29.279300   79.755400
  H     71.496500   29.576100   80.091600
  H     71.229700   23.342000   81.501000
  H     71.182000   25.673200   73.271500

 Total Charge           Charge          ....    0
 Multiplicity           Mult            ....    1
 Number of Electrons    NEL             ....  134
 Basis Dimension        Dim             ....  322

ORBITAL ENERGIES
----------------

  NO   OCC          E(Eh)            E(eV)
   0   2.0000     -88.968289     -2420.9502
   1   2.0000     -88.963424     -2420.8178
   2   2.0000     -10.336419      -281.2683
   3   2.0000     -10.330653      -281.1114
   4   2.0000     -10.320824      -280.8439
   5   2.0000     -10.319417      -280.8056
   6   2.0000     -10.306178      -280.4454
   7   2.0000     -10.301950      -280.3303
   8   2.0000     -10.298828      -280.2454
   9   2.0000     -10.298533      -280.2373
  10   2.0000     -10.290679      -280.0236
  11   2.0000     -10.289222      -279.9840
  12   2.0000     -10.288548      -279.9656
  13   2.0000     -10.287726      -279.9433
  14   2.0000     -10.283162      -279.8191
  15   2.0000     -10.276428      -279.6358
  16   2.0000      -8.081874      -219.9190
  17   2.0000      -8.077700      -219.8054
  18   2.0000      -6.040579      -164.3725
  19   2.0000      -6.036690      -164.2667
  20   2.0000      -6.036441      -164.2599
  21   2.0000      -6.032333      -164.1481
  22   2.0000      -6.032252      -164.1459
  23   2.0000      -6.028248      -164.0370
  24   2.0000      -1.000521       -27.2256
  25   2.0000      -0.980861       -26.6906
  26   2.0000      -0.909558       -24.7503
  27   2.0000      -0.908412       -24.7192
  28   2.0000      -0.867045       -23.5935
  29   2.0000      -0.850590       -23.1457
  30   2.0000      -0.844560       -22.9816
  31   2.0000      -0.817951       -22.2576
  32   2.0000      -0.782624       -21.2963
  33   2.0000      -0.771690       -20.9987
  34   2.0000      -0.712503       -19.3882
  35   2.0000      -0.697642       -18.9838
  36   2.0000      -0.688122       -18.7248
  37   2.0000      -0.657534       -17.8924
  38   2.0000      -0.634223       -17.2581
  39   2.0000      -0.623503       -16.9664
  40   2.0000      -0.588173       -16.0050
  41   2.0000      -0.571617       -15.5545
  42   2.0000      -0.565867       -15.3980
  43   2.0000      -0.551604       -15.0099
  44   2.0000      -0.542187       -14.7537
  45   2.0000      -0.520758       -14.1705
  46   2.0000      -0.515721       -14.0335
  47   2.0000      -0.510407       -13.8889
  48   2.0000      -0.505485       -13.7549
  49   2.0000      -0.501398       -13.6437
  50   2.0000      -0.489248       -13.3131
  51   2.0000      -0.481882       -13.1127
  52   2.0000      -0.467407       -12.7188
  53   2.0000      -0.462671       -12.5899
  54   2.0000      -0.460955       -12.5432
  55   2.0000      -0.448998       -12.2179
  56   2.0000      -0.446145       -12.1402
  57   2.0000      -0.436482       -11.8773
  58   2.0000      -0.427083       -11.6215
  59   2.0000      -0.422966       -11.5095
  60   2.0000      -0.419640       -11.4190
  61   2.0000      -0.416199       -11.3254
  62   2.0000      -0.406892       -11.0721
  63   2.0000      -0.344743        -9.3809
  64   2.0000      -0.329822        -8.9749
  65   2.0000      -0.326099        -8.8736
  66   2.0000      -0.296426        -8.0662
  67   0.0000       0.028002         0.7620
  68   0.0000       0.059201         1.6109
  69   0.0000       0.102345         2.7849
  70   0.0000       0.119118         3.2414
  71   0.0000       0.123021         3.3476

MULLIKEN ATOMIC CHARGES
-----------------------
   0 S :    0.105463
   1 C :   -0.104309
   2 C :   -0.122685
   3 C :    0.019764
   4 C :   -0.155694
   5 H :    0.039906
   6 C :    0.060100
   7 H :    0.050184
   8 H :    0.019949
   9 C :   -0.094017
  10 H :    0.034413
  11 H :    0.019808
  12 C :   -0.044277
  13 H :    0.031372
  14 H :    0.058504
  15 H :    0.023928
  16 S :    0.094104
  17 C :   -0.093324
  18 C :   -0.025870
  19 C :   -0.048485
  20 C :   -0.149397
  21 H :    0.001847
  22 C :    0.071403
  23 H :    0.011040
  24 H :    0.029642
  25 C :   -0.075655
  26 H :    0.036562
  27 H :    0.039518
  28 C :   -0.037264
  29 H :    0.030853
  30 H :    0.035486
  31 H :    0.020741
  32 H :    0.042029
  33 H :    0.074363
Sum of atomic charges:   -0.0000000

LOEWDIN ATOMIC CHARGES
----------------------
   0 S :    0.378307
   1 C :   -0.189807
   2 C :   -0.069060
   3 C :   -0.064755
   4 C :   -0.179676
   5 H :    0.041005
   6 C :   -0.033992
   7 H :    0.039446
   8 H :    0.030234
   9 C :   -0.038112
  10 H :    0.022478
  11 H :    0.017098
  12 C :   -0.062593
  13 H :    0.019725
  14 H :    0.033734
  15 H :    0.027889
  16 S :    0.381477
  17 C :   -0.188853
  18 C :   -0.075057
  19 C :   -0.049382
  20 C :   -0.189550
  21 H :    0.023564
  22 C :   -0.041730
  23 H :    0.028708
  24 H :    0.034960
  25 C :   -0.044916
  26 H :    0.026637
  27 H :    0.036356
  28 C :   -0.073592
  29 H :    0.025590
  30 H :    0.029037
  31 H :    0.031283
  32 H :    0.026190
  33 H :    0.047360

  Mayer bond orders larger than 0.100000
B(  0-S ,  1-C ) :   1.1318 B(  0-S ,  4-C ) :   1.1233 B(  1-C ,  2-C ) :   1.6086
B(  1-C ,  4-C ) :   0.1023 B(  1-C , 32-H ) :   0.9666 B(  2-C ,  3-C ) :   1.2303
B(  2-C ,  6-C ) :   1.0290 B(  3-C ,  4-C ) :   1.5986 B(  3-C ,  5-H ) :   0.9793
B(  4-C , 20-C ) :   1.0354 B(  6-C ,  7-H ) :   0.9414 B(  6-C ,  8-H ) :   0.9391
B(  6-C ,  9-C ) :   1.0598 B(  9-C , 10-H ) :   0.9618 B(  9-C , 11-H ) :   0.9583
B(  9-C , 12-C ) :   1.0665 B( 12-C , 13-H ) :   0.9753 B( 12-C , 14-H ) :   0.9742
B( 12-C , 15-H ) :   0.9764 B( 16-S , 17-C ) :   1.1425 B( 16-S , 20-C ) :   1.1150
B( 17-C , 18-C ) :   1.6556 B( 17-C , 33-H ) :   0.9523 B( 18-C , 19-C ) :   1.2202
B( 18-C , 21-H ) :   0.9907 B( 19-C , 20-C ) :   1.6163 B( 19-C , 22-C ) :   1.0433
B( 22-C , 23-H ) :   0.9293 B( 22-C , 24-H ) :   0.9242 B( 22-C , 25-C ) :   1.0735
B( 25-C , 26-H ) :   0.9535 B( 25-C , 27-H ) :   0.9481 B( 25-C , 28-C ) :   1.0909
B( 28-C , 29-H ) :   0.9734 B( 28-C , 30-H ) :   0.9704 B( 28-C , 31-H ) :   0.9688

Dispersion correction           -0.015136966
FINAL SINGLE POINT ENERGY     -1339.869202876903

DIPOLE MOMENT
-------------
                                X             Y             Z
Electronic contribution:    -14.32562     -18.77754     -19.07310
Nuclear contribution   :     14.85983      19.18731      19.33891
                        -----------------------------------------
Total Dipole Moment    :      0.53421       0.40977       0.26582
                        -----------------------------------------
Magnitude (a.u.)       :      0.72385
Magnitude (Debye)      :      1.83988

Rotational constants in cm-1:     0.018040     0.009697     0.007398
Rotational constants in MHz :   540.834453   290.695787   221.787273

                             ****ORCA TERMINATED NORMALLY****
TOTAL RUN TIME: 0 days 0 hours 0 minutes 31 seconds 293 msec
