                         Program Version 4.2.1 -  RELEASE  -
|  1> ! wB97X-D3 SP def2-SVP
|  2> %pal
|  3> nprocs 16
|  4> end
|  5>
|  6> * xyz 0 1
|  7> S 	 -103.53 	 47.0447 	 123.985
|  8> C 	 -105.131 	 46.8337 	 124.844
|  9> C 	 -106.154 	 46.762 	 123.897
| 10> C 	 -105.686 	 46.5579 	 122.539
| 11> C 	 -104.326 	 46.7761 	 122.442
| 12> H 	 -106.377 	 46.3573 	 121.719
| 13> C 	 -107.61 	 46.5673 	 124.204
| 14> H 	 -108.244 	 47.1309 	 123.472
| 15> H 	 -107.777 	 47.0446 	 125.175
| 16> C 	 -108.071 	 45.0724 	 124.415
| 17> H 	 -107.719 	 44.5381 	 123.568
| 18> H 	 -107.426 	 44.7892 	 125.259
| 19> C 	 -109.595 	 44.825 	 124.419
| 20> H 	 -110.117 	 45.1561 	 125.279
| 21> H 	 -110.026 	 45.3705 	 123.542
| 22> H 	 -109.837 	 43.7719 	 124.315
| 23> S 	 -104.016 	 47.8384 	 119.835
| 24> C 	 -102.935 	 47.071 	 118.751
| 25> C 	 -102.275 	 46.0338 	 119.367
| 26> C 	 -102.644 	 45.8409 	 120.747
| 27> C 	 -103.606 	 46.7063 	 121.168
| 28> H 	 -101.638 	 45.54 	 118.699
| 29> C 	 -101.899 	 44.7451 	 121.488
| 30> H 	 -102.056 	 44.753 	 122.583
| 31> H 	 -100.798 	 44.8576 	 121.346
| 32> C 	 -102.212 	 43.266 	 121.023
| 33> H 	 -101.518 	 42.625 	 121.468
| 34> H 	 -102.359 	 43.2249 	 119.945
| 35> C 	 -103.544 	 42.9487 	 121.752
| 36> H 	 -103.672 	 43.2564 	 122.789
| 37> H 	 -103.718 	 41.9085 	 121.521
| 38> H 	 -104.245 	 43.5992 	 121.287
| 39> H 	 -105.234 	 47.0766 	 125.879
| 40> H 	 -102.742 	 47.3979 	 117.741
| 41> *
| 42>
| 43>                          ****END OF INPUT****

CARTESIAN COORDINATES (ANGSTROEM)
---------------------------------
  S    -103.530000   47.044700  123.985000
  C    -105.131000   46.833700  124.844000
  C    -106.154000   46.762000  123.897000
  C    -105.686000   46.557900  122.539000
  C    -104.326000   46.776100  122.442000
  H    -106.377000   46.357300  121.719000
  C    -107.610000   46.567300  124.204000
  H    -108.244000   47.130900  123.472000
  H    -107.777000   47.044600  125.175000
  C    -108.071000   45.072400  124.415000
  H    -107.719000   44.538100  123.568000
  H    -107.426000   44.789200  125.259000
  C    -109.595000   44.825000  124.419000
  H    -110.117000   45.156100  125.279000
  H    -110.026000   45.370500  123.542000
  H    -109.837000   43.771900  124.315000
  S    -104.016000   47.838400  119.835000
  C    -102.935000   47.071000  118.751000
  C    -102.275000   46.033800  119.367000
  C    -102.644000   45.840900  120.747000
  C    -103.606000   46.706300  121.168000
  H    -101.638000   45.540000  118.699000
  C    -101.899000   44.745100  121.488000
  H    -102.056000   44.753000  122.583000
  H    -100.798000   44.857600  121.346000
  C    -102.212000   43.266000  121.023000
  H    -101.518000   42.625000  121.468000
  H    -102.359000   43.224900  119.945000
  C    -103.544000   42.948700  121.752000
  H    -103.672000   43.256400  122.789000
  H    -103.718000   41.908500  121.521000
  H    -104.245000   43.599200  121.287000
  H    -105.234000   47.076600  125.879000
  H    -102.742000   47.397900  117.741000

 Total Charge           Charge          ....    0
 Multiplicity           Mult            ....    1
 Number of Electrons    NEL             ....  134
 Basis Dimension        Dim             ....  322

ORBITAL ENERGIES
----------------

  NO   OCC          E(Eh)            E(eV)
   0   2.0000     -88.970757     -2421.0174
   1   2.0000     -88.963308     -2420.8147
   2   2.0000     -10.334795      -281.2241
   3   2.0000     -10.328037      -281.0402
   4   2.0000     -10.321813      -280.8708
   5   2.0000     -10.314209      -280.6639
   6   2.0000     -10.307095      -280.4703
   7   2.0000     -10.306041      -280.4416
   8   2.0000     -10.297703      -280.2147
   9   2.0000     -10.294704      -280.1331
  10   2.0000     -10.292241      -280.0661
  11   2.0000     -10.289167      -279.9825
  12   2.0000     -10.288066      -279.9525
  13   2.0000     -10.282240      -279.7940
  14   2.0000     -10.281515      -279.7743
  15   2.0000     -10.263469      -279.2832
  16   2.0000      -8.083856      -219.9729
  17   2.0000      -8.078192      -219.8188
  18   2.0000      -6.042545      -164.4260
  19   2.0000      -6.038668      -164.3205
  20   2.0000      -6.036812      -164.2700
  21   2.0000      -6.034444      -164.2056
  22   2.0000      -6.032580      -164.1549
  23   2.0000      -6.028921      -164.0553
  24   2.0000      -1.003751       -27.3134
  25   2.0000      -0.980179       -26.6720
  26   2.0000      -0.908368       -24.7180
  27   2.0000      -0.905424       -24.6378
  28   2.0000      -0.868052       -23.6209
  29   2.0000      -0.848038       -23.0763
  30   2.0000      -0.845366       -23.0036
  31   2.0000      -0.814164       -22.1545
  32   2.0000      -0.779376       -21.2079
  33   2.0000      -0.768859       -20.9217
  34   2.0000      -0.707010       -19.2387
  35   2.0000      -0.704086       -19.1592
  36   2.0000      -0.693312       -18.8660
  37   2.0000      -0.660240       -17.9660
  38   2.0000      -0.638235       -17.3673
  39   2.0000      -0.621335       -16.9074
  40   2.0000      -0.601082       -16.3563
  41   2.0000      -0.568388       -15.4666
  42   2.0000      -0.561950       -15.2914
  43   2.0000      -0.554029       -15.0759
  44   2.0000      -0.534969       -14.5572
  45   2.0000      -0.522158       -14.2086
  46   2.0000      -0.516712       -14.0604
  47   2.0000      -0.513475       -13.9724
  48   2.0000      -0.506574       -13.7846
  49   2.0000      -0.497621       -13.5409
  50   2.0000      -0.493281       -13.4229
  51   2.0000      -0.478413       -13.0183
  52   2.0000      -0.466539       -12.6952
  53   2.0000      -0.459565       -12.5054
  54   2.0000      -0.458883       -12.4868
  55   2.0000      -0.455148       -12.3852
  56   2.0000      -0.438747       -11.9389
  57   2.0000      -0.436418       -11.8755
  58   2.0000      -0.429248       -11.6804
  59   2.0000      -0.425378       -11.5751
  60   2.0000      -0.418984       -11.4011
  61   2.0000      -0.417122       -11.3505
  62   2.0000      -0.400703       -10.9037
  63   2.0000      -0.342182        -9.3112
  64   2.0000      -0.332103        -9.0370
  65   2.0000      -0.326234        -8.8773
  66   2.0000      -0.302297        -8.2259
  67   0.0000       0.032618         0.8876
  68   0.0000       0.065156         1.7730
  69   0.0000       0.100218         2.7271
  70   0.0000       0.111742         3.0406
  71   0.0000       0.120595         3.2816

MULLIKEN ATOMIC CHARGES
-----------------------
   0 S :    0.103599
   1 C :   -0.126165
   2 C :   -0.080354
   3 C :    0.017538
   4 C :   -0.143159
   5 H :    0.029716
   6 C :    0.014164
   7 H :    0.032294
   8 H :    0.019050
   9 C :   -0.052398
  10 H :    0.017513
  11 H :    0.029861
  12 C :   -0.029694
  13 H :    0.027743
  14 H :    0.033718
  15 H :    0.038510
  16 S :    0.105022
  17 C :   -0.097891
  18 C :   -0.029564
  19 C :    0.024671
  20 C :   -0.168468
  21 H :   -0.000482
  22 C :    0.011476
  23 H :    0.020349
  24 H :    0.038175
  25 C :   -0.046751
  26 H :    0.024569
  27 H :    0.041400
  28 C :   -0.045969
  29 H :    0.035065
  30 H :    0.031971
  31 H :    0.013204
  32 H :    0.053873
  33 H :    0.057419
Sum of atomic charges:    0.0000000

LOEWDIN ATOMIC CHARGES
----------------------
   0 S :    0.378368
   1 C :   -0.177545
   2 C :   -0.054012
   3 C :   -0.060359
   4 C :   -0.183144
   5 H :    0.036765
   6 C :   -0.041101
   7 H :    0.030276
   8 H :    0.027261
   9 C :   -0.035923
  10 H :    0.018450
  11 H :    0.027597
  12 C :   -0.062495
  13 H :    0.018085
  14 H :    0.033724
  15 H :    0.029380
  16 S :    0.397413
  17 C :   -0.188000
  18 C :   -0.070731
  19 C :   -0.054103
  20 C :   -0.189963
  21 H :    0.023629
  22 C :   -0.035469
  23 H :    0.023208
  24 H :    0.033456
  25 C :   -0.024408
  26 H :    0.015696
  27 H :    0.026127
  28 C :   -0.065460
  29 H :    0.027328
  30 H :    0.020978
  31 H :    0.020393
  32 H :    0.023752
  33 H :    0.030825

  Mayer bond orders larger than 0.100000
B(  0-S ,  1-C ) :   1.1064 B(  0-S ,  4-C ) :   1.1470 B(  1-C ,  2-C ) :   1.6246
B(  1-C , 32-H ) :   0.9689 B(  2-C ,  3-C ) :   1.2048 B(  2-C ,  6-C ) :   1.0561
B(  3-C ,  4-C ) :   1.5912 B(  3-C ,  5-H ) :   0.9895 B(  4-C , 20-C ) :   1.0296
B(  6-C ,  7-H ) :   0.9384 B(  6-C ,  8-H ) :   0.9397 B(  6-C ,  9-C ) :   1.0443
B(  9-C , 10-H ) :   0.9616 B(  9-C , 11-H ) :   0.9562 B(  9-C , 12-C ) :   1.0665
B( 12-C , 13-H ) :   0.9794 B( 12-C , 14-H ) :   0.9716 B( 12-C , 15-H ) :   0.9756
B( 16-S , 17-C ) :   1.1573 B( 16-S , 20-C ) :   1.1221 B( 17-C , 18-C ) :   1.6356
B( 17-C , 33-H ) :   0.9658 B( 18-C , 19-C ) :   1.1871 B( 18-C , 21-H ) :   1.0035
B( 19-C , 20-C ) :   1.6162 B( 19-C , 22-C ) :   1.0492 B( 22-C , 23-H ) :   0.9376
B( 22-C , 24-H ) :   0.9386 B( 22-C , 25-C ) :   1.0729 B( 25-C , 26-H ) :   0.9574
B( 25-C , 27-H ) :   0.9594 B( 25-C , 28-C ) :   1.0628 B( 28-C , 29-H ) :   0.9748
B( 28-C , 30-H ) :   0.9744 B( 28-C , 31-H ) :   0.9782

Dispersion correction           -0.014963422
FINAL SINGLE POINT ENERGY     -1339.865769928423

DIPOLE MOMENT
-------------
                                X             Y             Z
Electronic contribution:     13.38197      19.77419      -6.34946
Nuclear contribution   :    -13.62902     -20.13407       6.27110
                        -----------------------------------------
Total Dipole Moment    :     -0.24705      -0.35989      -0.07837
                        -----------------------------------------
Magnitude (a.u.)       :      0.44350
Magnitude (Debye)      :      1.12729

Rotational constants in cm-1:     0.019260     0.008021     0.007424
Rotational constants in MHz :   577.392636   240.474341   222.578982

                             ****ORCA TERMINATED NORMALLY****
TOTAL RUN TIME: 0 days 0 hours 0 minutes 32 seconds 308 msec
