                         Program Version 4.2.1 -  RELEASE  -
|  1> ! wB97X-D3 SP def2-SVP
|  2> %pal
|  3> nprocs 16
|  4> end
|  5>
|  6> * xyz 0 1
|  7> S 	 -43.5306 	 46.7038 	 104.164
|  8> C 	 -43.0752 	 45.9637 	 105.689
|  9> C 	 -43.2736 	 44.5629 	 105.677
| 10> C 	 -43.9827 	 44.1539 	 104.484
| 11> C 	 -44.2642 	 45.1767 	 103.626
| 12> H 	 -44.3525 	 43.1557 	 104.315
| 13> C 	 -43.0949 	 43.6876 	 106.817
| 14> H 	 -43.0644 	 42.5875 	 106.629
| 15> H 	 -44.0739 	 43.8464 	 107.34
| 16> C 	 -41.9239 	 43.9399 	 107.78
| 17> H 	 -41.9686 	 44.989 	 108.101
| 18> H 	 -41.9356 	 43.3485 	 108.711
| 19> C 	 -40.5923 	 43.5995 	 107.088
| 20> H 	 -39.7468 	 43.5645 	 107.76
| 21> H 	 -40.5509 	 42.62 	 106.604
| 22> H 	 -40.2159 	 44.3955 	 106.456
| 23> S 	 -43.5633 	 44.404 	 101.126
| 24> C 	 -44.5761 	 44.7711 	 99.761
| 25> C 	 -45.7971 	 45.237 	 100.133
| 26> C 	 -45.8158 	 45.3725 	 101.542
| 27> C 	 -44.6765 	 44.9693 	 102.245
| 28> H 	 -46.6198 	 45.5758 	 99.5011
| 29> C 	 -47.0834 	 45.8589 	 102.303
| 30> H 	 -47.2242 	 46.8931 	 102.127
| 31> H 	 -46.8016 	 45.8664 	 103.336
| 32> C 	 -48.4309 	 45.1497 	 102.06
| 33> H 	 -48.5668 	 45.1496 	 100.94
| 34> H 	 -49.2799 	 45.6907 	 102.332
| 35> C 	 -48.4494 	 43.6794 	 102.57
| 36> H 	 -47.8976 	 42.99 	 101.976
| 37> H 	 -49.5291 	 43.3787 	 102.674
| 38> H 	 -48.1485 	 43.5987 	 103.601
| 39> H 	 -42.6792 	 46.4936 	 106.508
| 40> H 	 -44.2768 	 44.6263 	 98.7307
| 41> *
| 42>
| 43>                          ****END OF INPUT****

CARTESIAN COORDINATES (ANGSTROEM)
---------------------------------
  S    -43.530600   46.703800  104.164000
  C    -43.075200   45.963700  105.689000
  C    -43.273600   44.562900  105.677000
  C    -43.982700   44.153900  104.484000
  C    -44.264200   45.176700  103.626000
  H    -44.352500   43.155700  104.315000
  C    -43.094900   43.687600  106.817000
  H    -43.064400   42.587500  106.629000
  H    -44.073900   43.846400  107.340000
  C    -41.923900   43.939900  107.780000
  H    -41.968600   44.989000  108.101000
  H    -41.935600   43.348500  108.711000
  C    -40.592300   43.599500  107.088000
  H    -39.746800   43.564500  107.760000
  H    -40.550900   42.620000  106.604000
  H    -40.215900   44.395500  106.456000
  S    -43.563300   44.404000  101.126000
  C    -44.576100   44.771100   99.761000
  C    -45.797100   45.237000  100.133000
  C    -45.815800   45.372500  101.542000
  C    -44.676500   44.969300  102.245000
  H    -46.619800   45.575800   99.501100
  C    -47.083400   45.858900  102.303000
  H    -47.224200   46.893100  102.127000
  H    -46.801600   45.866400  103.336000
  C    -48.430900   45.149700  102.060000
  H    -48.566800   45.149600  100.940000
  H    -49.279900   45.690700  102.332000
  C    -48.449400   43.679400  102.570000
  H    -47.897600   42.990000  101.976000
  H    -49.529100   43.378700  102.674000
  H    -48.148500   43.598700  103.601000
  H    -42.679200   46.493600  106.508000
  H    -44.276800   44.626300   98.730700

 Total Charge           Charge          ....    0
 Multiplicity           Mult            ....    1
 Number of Electrons    NEL             ....  134
 Basis Dimension        Dim             ....  322

ORBITAL ENERGIES
----------------

  NO   OCC          E(Eh)            E(eV)
   0   2.0000     -88.966354     -2420.8976
   1   2.0000     -88.962819     -2420.8014
   2   2.0000     -10.327695      -281.0309
   3   2.0000     -10.315873      -280.7092
   4   2.0000     -10.314494      -280.6717
   5   2.0000     -10.313694      -280.6499
   6   2.0000     -10.304685      -280.4047
   7   2.0000     -10.298443      -280.2349
   8   2.0000     -10.294904      -280.1386
   9   2.0000     -10.294023      -280.1146
  10   2.0000     -10.292705      -280.0787
  11   2.0000     -10.291342      -280.0416
  12   2.0000     -10.284927      -279.8671
  13   2.0000     -10.278296      -279.6866
  14   2.0000     -10.273656      -279.5604
  15   2.0000     -10.272736      -279.5354
  16   2.0000      -8.080376      -219.8782
  17   2.0000      -8.079141      -219.8446
  18   2.0000      -6.038904      -164.3269
  19   2.0000      -6.037533      -164.2896
  20   2.0000      -6.035074      -164.2227
  21   2.0000      -6.033234      -164.1726
  22   2.0000      -6.031070      -164.1138
  23   2.0000      -6.030093      -164.0872
  24   2.0000      -1.012612       -27.5546
  25   2.0000      -0.985234       -26.8096
  26   2.0000      -0.916085       -24.9279
  27   2.0000      -0.898810       -24.4579
  28   2.0000      -0.872009       -23.7286
  29   2.0000      -0.850639       -23.1471
  30   2.0000      -0.841622       -22.9017
  31   2.0000      -0.817264       -22.2389
  32   2.0000      -0.780329       -21.2338
  33   2.0000      -0.768540       -20.9130
  34   2.0000      -0.711378       -19.3576
  35   2.0000      -0.703001       -19.1296
  36   2.0000      -0.696284       -18.9469
  37   2.0000      -0.658050       -17.9065
  38   2.0000      -0.642670       -17.4879
  39   2.0000      -0.609411       -16.5829
  40   2.0000      -0.595018       -16.1913
  41   2.0000      -0.582161       -15.8414
  42   2.0000      -0.556572       -15.1451
  43   2.0000      -0.550279       -14.9739
  44   2.0000      -0.542494       -14.7620
  45   2.0000      -0.533809       -14.5257
  46   2.0000      -0.513400       -13.9703
  47   2.0000      -0.512460       -13.9448
  48   2.0000      -0.499845       -13.6015
  49   2.0000      -0.496942       -13.5225
  50   2.0000      -0.488613       -13.2958
  51   2.0000      -0.473250       -12.8778
  52   2.0000      -0.471123       -12.8199
  53   2.0000      -0.468025       -12.7356
  54   2.0000      -0.459238       -12.4965
  55   2.0000      -0.451780       -12.2935
  56   2.0000      -0.440128       -11.9765
  57   2.0000      -0.434327       -11.8187
  58   2.0000      -0.423292       -11.5183
  59   2.0000      -0.422782       -11.5045
  60   2.0000      -0.420508       -11.4426
  61   2.0000      -0.418879       -11.3983
  62   2.0000      -0.406422       -11.0593
  63   2.0000      -0.340163        -9.2563
  64   2.0000      -0.333477        -9.0744
  65   2.0000      -0.313108        -8.5201
  66   2.0000      -0.304610        -8.2889
  67   0.0000       0.041109         1.1186
  68   0.0000       0.057739         1.5712
  69   0.0000       0.112996         3.0748
  70   0.0000       0.115676         3.1477
  71   0.0000       0.131827         3.5872

MULLIKEN ATOMIC CHARGES
-----------------------
   0 S :    0.119693
   1 C :   -0.121646
   2 C :   -0.041670
   3 C :    0.008807
   4 C :   -0.124206
   5 H :    0.015505
   6 C :   -0.007205
   7 H :    0.035781
   8 H :    0.057078
   9 C :   -0.061695
  10 H :    0.023907
  11 H :    0.036166
  12 C :   -0.052820
  13 H :    0.014644
  14 H :    0.034713
  15 H :    0.034422
  16 S :    0.129196
  17 C :   -0.095267
  18 C :   -0.009896
  19 C :   -0.085866
  20 C :   -0.170764
  21 H :    0.029573
  22 C :    0.090730
  23 H :    0.013617
  24 H :    0.011674
  25 C :   -0.053499
  26 H :    0.016245
  27 H :    0.013780
  28 C :   -0.044422
  29 H :    0.043167
  30 H :    0.027570
  31 H :    0.021968
  32 H :    0.036296
  33 H :    0.054423
Sum of atomic charges:   -0.0000000

LOEWDIN ATOMIC CHARGES
----------------------
   0 S :    0.396190
   1 C :   -0.192500
   2 C :   -0.056846
   3 C :   -0.052372
   4 C :   -0.190146
   5 H :    0.033282
   6 C :   -0.048207
   7 H :    0.034884
   8 H :    0.047953
   9 C :   -0.041147
  10 H :    0.022059
  11 H :    0.029703
  12 C :   -0.073221
  13 H :    0.023254
  14 H :    0.027608
  15 H :    0.027614
  16 S :    0.451277
  17 C :   -0.182554
  18 C :   -0.075632
  19 C :   -0.052706
  20 C :   -0.241431
  21 H :    0.038271
  22 C :   -0.032756
  23 H :    0.024815
  24 H :    0.022647
  25 C :   -0.038051
  26 H :    0.025490
  27 H :    0.016972
  28 C :   -0.064833
  29 H :    0.022769
  30 H :    0.031640
  31 H :    0.021937
  32 H :    0.015872
  33 H :    0.028162

  Mayer bond orders larger than 0.100000
B(  0-S ,  1-C ) :   1.1398 B(  0-S ,  4-C ) :   1.1357 B(  1-C ,  2-C ) :   1.5850
B(  1-C , 32-H ) :   0.9754 B(  2-C ,  3-C ) :   1.2251 B(  2-C ,  6-C ) :   1.0278
B(  3-C ,  4-C ) :   1.5809 B(  3-C ,  5-H ) :   1.0030 B(  4-C , 20-C ) :   1.0267
B(  6-C ,  7-H ) :   0.9486 B(  6-C ,  8-H ) :   0.9284 B(  6-C ,  9-C ) :   1.0805
B(  9-C , 10-H ) :   0.9510 B(  9-C , 11-H ) :   0.9573 B(  9-C , 12-C ) :   1.0750
B( 12-C , 13-H ) :   0.9724 B( 12-C , 14-H ) :   0.9752 B( 12-C , 15-H ) :   0.9737
B( 16-S , 17-C ) :   1.1898 B( 16-S , 20-C ) :   1.1561 B( 17-C , 18-C ) :   1.5559
B( 17-C , 33-H ) :   0.9672 B( 18-C , 19-C ) :   1.2869 B( 18-C , 21-H ) :   0.9919
B( 19-C , 20-C ) :   1.5635 B( 19-C , 22-C ) :   1.0317 B( 22-C , 23-H ) :   0.9289
B( 22-C , 24-H ) :   0.9369 B( 22-C , 25-C ) :   1.0750 B( 25-C , 26-H ) :   0.9520
B( 25-C , 27-H ) :   0.9561 B( 25-C , 28-C ) :   1.0671 B( 28-C , 29-H ) :   0.9790
B( 28-C , 30-H ) :   0.9748 B( 28-C , 31-H ) :   0.9772

Dispersion correction           -0.014455506
FINAL SINGLE POINT ENERGY     -1339.869973046892

DIPOLE MOMENT
-------------
                                X             Y             Z
Electronic contribution:      7.48201       8.88391     -13.94302
Nuclear contribution   :     -7.68208      -9.06367      14.23859
                        -----------------------------------------
Total Dipole Moment    :     -0.20007      -0.17976       0.29557
                        -----------------------------------------
Magnitude (a.u.)       :      0.39963
Magnitude (Debye)      :      1.01578

Rotational constants in cm-1:     0.023308     0.007466     0.006744
Rotational constants in MHz :   698.753338   223.834971   202.172579

                             ****ORCA TERMINATED NORMALLY****
TOTAL RUN TIME: 0 days 0 hours 0 minutes 28 seconds 117 msec
