                         Program Version 4.2.1 -  RELEASE  -
|  1> ! wB97X-D3 SP def2-SVP
|  2> %pal
|  3> nprocs 16
|  4> end
|  5>
|  6> * xyz 0 1
|  7> S 	 4.12308 	 14.2379 	 49.4824
|  8> C 	 3.77705 	 12.5434 	 49.2864
|  9> C 	 4.5919 	 11.9425 	 48.3274
| 10> C 	 5.4375 	 12.9184 	 47.6589
| 11> C 	 5.32706 	 14.236 	 48.1811
| 12> H 	 6.15173 	 12.8346 	 46.8325
| 13> C 	 4.67457 	 10.4554 	 48.0686
| 14> H 	 4.43731 	 9.87943 	 48.95
| 15> H 	 5.7347 	 10.3061 	 47.9181
| 16> C 	 3.96742 	 9.9898 	 46.8435
| 17> H 	 3.04466 	 10.5184 	 46.8106
| 18> H 	 4.42752 	 10.392 	 45.9233
| 19> C 	 3.80906 	 8.53983 	 46.8752
| 20> H 	 4.85594 	 8.0598 	 46.9046
| 21> H 	 3.13999 	 8.15143 	 47.6465
| 22> H 	 3.3679 	 8.22194 	 45.9857
| 23> S 	 6.69757 	 16.3825 	 49.2251
| 24> C 	 7.65829 	 17.3277 	 48.0986
| 25> C 	 7.37189 	 17.0629 	 46.7656
| 26> C 	 6.45705 	 15.9678 	 46.628
| 27> C 	 6.09003 	 15.4687 	 47.8825
| 28> H 	 7.9375 	 17.4847 	 46.0453
| 29> C 	 6.08272 	 15.4663 	 45.264
| 30> H 	 5.96224 	 14.3472 	 45.3462
| 31> H 	 6.85534 	 15.8791 	 44.5523
| 32> C 	 4.75106 	 16.0361 	 44.6764
| 33> H 	 4.48979 	 15.7852 	 43.715
| 34> H 	 4.77152 	 17.1409 	 44.5218
| 35> C 	 3.5206 	 15.5897 	 45.4322
| 36> H 	 3.3668 	 14.535 	 45.406
| 37> H 	 2.59903 	 15.9209 	 45.0649
| 38> H 	 3.47354 	 15.7522 	 46.4567
| 39> H 	 3.20024 	 11.991 	 49.9746
| 40> H 	 8.25067 	 18.1249 	 48.4642
| 41> *
| 42>
| 43>                          ****END OF INPUT****

CARTESIAN COORDINATES (ANGSTROEM)
---------------------------------
  S      4.123080   14.237900   49.482400
  C      3.777050   12.543400   49.286400
  C      4.591900   11.942500   48.327400
  C      5.437500   12.918400   47.658900
  C      5.327060   14.236000   48.181100
  H      6.151730   12.834600   46.832500
  C      4.674570   10.455400   48.068600
  H      4.437310    9.879430   48.950000
  H      5.734700   10.306100   47.918100
  C      3.967420    9.989800   46.843500
  H      3.044660   10.518400   46.810600
  H      4.427520   10.392000   45.923300
  C      3.809060    8.539830   46.875200
  H      4.855940    8.059800   46.904600
  H      3.139990    8.151430   47.646500
  H      3.367900    8.221940   45.985700
  S      6.697570   16.382500   49.225100
  C      7.658290   17.327700   48.098600
  C      7.371890   17.062900   46.765600
  C      6.457050   15.967800   46.628000
  C      6.090030   15.468700   47.882500
  H      7.937500   17.484700   46.045300
  C      6.082720   15.466300   45.264000
  H      5.962240   14.347200   45.346200
  H      6.855340   15.879100   44.552300
  C      4.751060   16.036100   44.676400
  H      4.489790   15.785200   43.715000
  H      4.771520   17.140900   44.521800
  C      3.520600   15.589700   45.432200
  H      3.366800   14.535000   45.406000
  H      2.599030   15.920900   45.064900
  H      3.473540   15.752200   46.456700
  H      3.200240   11.991000   49.974600
  H      8.250670   18.124900   48.464200

 Total Charge           Charge          ....    0
 Multiplicity           Mult            ....    1
 Number of Electrons    NEL             ....  134
 Basis Dimension        Dim             ....  322

ORBITAL ENERGIES
----------------

  NO   OCC          E(Eh)            E(eV)
   0   2.0000     -88.969808     -2420.9916
   1   2.0000     -88.964457     -2420.8460
   2   2.0000     -10.335710      -281.2490
   3   2.0000     -10.329560      -281.0816
   4   2.0000     -10.317441      -280.7519
   5   2.0000     -10.310411      -280.5606
   6   2.0000     -10.306118      -280.4437
   7   2.0000     -10.305965      -280.4396
   8   2.0000     -10.304419      -280.3975
   9   2.0000     -10.301979      -280.3311
  10   2.0000     -10.290371      -280.0152
  11   2.0000     -10.284547      -279.8568
  12   2.0000     -10.281023      -279.7609
  13   2.0000     -10.275905      -279.6216
  14   2.0000     -10.275696      -279.6159
  15   2.0000     -10.251903      -278.9685
  16   2.0000      -8.084807      -219.9988
  17   2.0000      -8.078816      -219.8358
  18   2.0000      -6.043136      -164.4421
  19   2.0000      -6.039397      -164.3403
  20   2.0000      -6.037329      -164.2841
  21   2.0000      -6.035619      -164.2376
  22   2.0000      -6.033243      -164.1729
  23   2.0000      -6.029759      -164.0781
  24   2.0000      -1.004133       -27.3238
  25   2.0000      -0.980128       -26.6706
  26   2.0000      -0.924667       -25.1615
  27   2.0000      -0.908791       -24.7294
  28   2.0000      -0.870625       -23.6909
  29   2.0000      -0.855055       -23.2672
  30   2.0000      -0.847412       -23.0593
  31   2.0000      -0.814394       -22.1608
  32   2.0000      -0.784992       -21.3607
  33   2.0000      -0.772559       -21.0224
  34   2.0000      -0.712759       -19.3952
  35   2.0000      -0.702457       -19.1148
  36   2.0000      -0.694325       -18.8936
  37   2.0000      -0.671873       -18.2826
  38   2.0000      -0.646297       -17.5866
  39   2.0000      -0.616167       -16.7667
  40   2.0000      -0.592488       -16.1224
  41   2.0000      -0.575941       -15.6722
  42   2.0000      -0.566676       -15.4200
  43   2.0000      -0.550467       -14.9790
  44   2.0000      -0.549029       -14.9398
  45   2.0000      -0.525634       -14.3032
  46   2.0000      -0.516773       -14.0621
  47   2.0000      -0.512227       -13.9384
  48   2.0000      -0.506929       -13.7942
  49   2.0000      -0.496622       -13.5138
  50   2.0000      -0.489309       -13.3148
  51   2.0000      -0.484044       -13.1715
  52   2.0000      -0.469658       -12.7800
  53   2.0000      -0.466279       -12.6881
  54   2.0000      -0.455591       -12.3972
  55   2.0000      -0.451279       -12.2799
  56   2.0000      -0.448990       -12.2176
  57   2.0000      -0.438712       -11.9380
  58   2.0000      -0.434249       -11.8165
  59   2.0000      -0.429448       -11.6859
  60   2.0000      -0.422674       -11.5015
  61   2.0000      -0.407281       -11.0827
  62   2.0000      -0.406360       -11.0576
  63   2.0000      -0.348369        -9.4796
  64   2.0000      -0.334530        -9.1030
  65   2.0000      -0.326848        -8.8940
  66   2.0000      -0.286689        -7.8012
  67   0.0000       0.025338         0.6895
  68   0.0000       0.069586         1.8935
  69   0.0000       0.105437         2.8691
  70   0.0000       0.115929         3.1546
  71   0.0000       0.128125         3.4865

MULLIKEN ATOMIC CHARGES
-----------------------
   0 S :    0.091070
   1 C :   -0.093355
   2 C :   -0.107486
   3 C :    0.031055
   4 C :   -0.180653
   5 H :    0.022092
   6 C :    0.072410
   7 H :    0.017737
   8 H :    0.021208
   9 C :   -0.048721
  10 H :    0.011440
  11 H :    0.020837
  12 C :   -0.013736
  13 H :    0.034495
  14 H :    0.036624
  15 H :    0.011442
  16 S :    0.119500
  17 C :   -0.088745
  18 C :    0.016902
  19 C :   -0.040441
  20 C :   -0.142963
  21 H :   -0.018223
  22 C :    0.061871
  23 H :    0.031356
  24 H :    0.035729
  25 C :   -0.021386
  26 H :    0.004568
  27 H :    0.020282
  28 C :   -0.005952
  29 H :    0.003517
  30 H :    0.004199
  31 H :    0.012415
  32 H :    0.033917
  33 H :    0.046996
Sum of atomic charges:    0.0000000

LOEWDIN ATOMIC CHARGES
----------------------
   0 S :    0.393014
   1 C :   -0.199517
   2 C :   -0.054475
   3 C :   -0.072423
   4 C :   -0.181256
   5 H :    0.030694
   6 C :   -0.030466
   7 H :    0.028804
   8 H :    0.032285
   9 C :   -0.047957
  10 H :    0.019762
  11 H :    0.027974
  12 C :   -0.061474
  13 H :    0.035846
  14 H :    0.028826
  15 H :    0.017425
  16 S :    0.415508
  17 C :   -0.168709
  18 C :   -0.050904
  19 C :   -0.052641
  20 C :   -0.209561
  21 H :    0.013867
  22 C :   -0.031398
  23 H :    0.037298
  24 H :    0.041127
  25 C :   -0.036919
  26 H :    0.015608
  27 H :    0.027463
  28 C :   -0.062871
  29 H :    0.023409
  30 H :    0.019618
  31 H :    0.014379
  32 H :    0.019022
  33 H :    0.018643

  Mayer bond orders larger than 0.100000
B(  0-S ,  1-C ) :   1.1346 B(  0-S ,  4-C ) :   1.1512 B(  1-C ,  2-C ) :   1.6095
B(  1-C , 32-H ) :   0.9731 B(  2-C ,  3-C ) :   1.2287 B(  2-C ,  6-C ) :   1.0249
B(  3-C ,  4-C ) :   1.5814 B(  3-C ,  5-H ) :   0.9802 B(  4-C , 20-C ) :   1.0312
B(  6-C ,  7-H ) :   0.9483 B(  6-C ,  8-H ) :   0.9276 B(  6-C ,  9-C ) :   1.0593
B(  9-C , 10-H ) :   0.9494 B(  9-C , 11-H ) :   0.9438 B(  9-C , 12-C ) :   1.1036
B( 12-C , 13-H ) :   0.9663 B( 12-C , 14-H ) :   0.9709 B( 12-C , 15-H ) :   0.9661
B( 16-S , 17-C ) :   1.1563 B( 16-S , 20-C ) :   1.1528 B( 17-C , 18-C ) :   1.6066
B( 17-C , 33-H ) :   0.9717 B( 18-C , 19-C ) :   1.2409 B( 18-C , 21-H ) :   1.0032
B( 19-C , 20-C ) :   1.5747 B( 19-C , 22-C ) :   1.0448 B( 22-C , 23-H ) :   0.9302
B( 22-C , 24-H ) :   0.9293 B( 22-C , 25-C ) :   1.0756 B( 25-C , 26-H ) :   0.9525
B( 25-C , 27-H ) :   0.9514 B( 25-C , 28-C ) :   1.0776 B( 28-C , 29-H ) :   0.9667
B( 28-C , 30-H ) :   0.9668 B( 28-C , 31-H ) :   0.9725

Dispersion correction           -0.014959773
FINAL SINGLE POINT ENERGY     -1339.856563294442

DIPOLE MOMENT
-------------
                                X             Y             Z
Electronic contribution:      8.18078      17.96284      19.63444
Nuclear contribution   :     -8.05410     -18.25435     -20.13721
                        -----------------------------------------
Total Dipole Moment    :      0.12668      -0.29150      -0.50277
                        -----------------------------------------
Magnitude (a.u.)       :      0.59481
Magnitude (Debye)      :      1.51187

Rotational constants in cm-1:     0.021411     0.008224     0.006962
Rotational constants in MHz :   641.876554   246.546290   208.728291

                             ****ORCA TERMINATED NORMALLY****
TOTAL RUN TIME: 0 days 0 hours 0 minutes 36 seconds 267 msec
