                         Program Version 4.2.1 -  RELEASE  -
|  1> ! wB97X-D3 SP def2-SVP
|  2> %pal
|  3> nprocs 16
|  4> end
|  5>
|  6> * xyz 0 1
|  7> S 	 -41.5535 	 33.1382 	 84.2941
|  8> C 	 -42.8622 	 34.2366 	 84.1158
|  9> C 	 -43.8674 	 33.7571 	 83.3416
| 10> C 	 -43.6356 	 32.4245 	 82.9816
| 11> C 	 -42.4366 	 31.8958 	 83.4519
| 12> H 	 -44.1892 	 31.7364 	 82.3519
| 13> C 	 -45.085 	 34.563 	 82.8641
| 14> H 	 -44.9842 	 34.4095 	 81.8052
| 15> H 	 -45.002 	 35.6066 	 83.0297
| 16> C 	 -46.4951 	 34.0393 	 83.2157
| 17> H 	 -46.3529 	 32.9809 	 83.2001
| 18> H 	 -46.8205 	 34.3165 	 84.2284
| 19> C 	 -47.6023 	 34.6308 	 82.321
| 20> H 	 -47.3617 	 34.3128 	 81.2827
| 21> H 	 -48.6439 	 34.3124 	 82.4842
| 22> H 	 -47.6993 	 35.7066 	 82.415
| 23> S 	 -40.5267 	 30.5727 	 81.9157
| 24> C 	 -40.423 	 28.8344 	 81.9086
| 25> C 	 -41.2782 	 28.286 	 82.8236
| 26> C 	 -42.0881 	 29.2594 	 83.5165
| 27> C 	 -41.8057 	 30.597 	 83.1338
| 28> H 	 -41.4107 	 27.1842 	 82.9959
| 29> C 	 -43.0491 	 28.8935 	 84.6699
| 30> H 	 -43.5072 	 29.7363 	 85.2419
| 31> H 	 -42.3996 	 28.393 	 85.4058
| 32> C 	 -44.1371 	 27.9477 	 84.2815
| 33> H 	 -44.5694 	 27.4761 	 85.1512
| 34> H 	 -43.7025 	 27.2284 	 83.5692
| 35> C 	 -45.2945 	 28.6215 	 83.5698
| 36> H 	 -45.0306 	 29.0429 	 82.6179
| 37> H 	 -45.6831 	 29.439 	 84.2056
| 38> H 	 -46.1567 	 27.9348 	 83.475
| 39> H 	 -42.8139 	 35.2803 	 84.4874
| 40> H 	 -39.7368 	 28.3318 	 81.3062
| 41> *
| 42>
| 43>                          ****END OF INPUT****

CARTESIAN COORDINATES (ANGSTROEM)
---------------------------------
  S    -41.553500   33.138200   84.294100
  C    -42.862200   34.236600   84.115800
  C    -43.867400   33.757100   83.341600
  C    -43.635600   32.424500   82.981600
  C    -42.436600   31.895800   83.451900
  H    -44.189200   31.736400   82.351900
  C    -45.085000   34.563000   82.864100
  H    -44.984200   34.409500   81.805200
  H    -45.002000   35.606600   83.029700
  C    -46.495100   34.039300   83.215700
  H    -46.352900   32.980900   83.200100
  H    -46.820500   34.316500   84.228400
  C    -47.602300   34.630800   82.321000
  H    -47.361700   34.312800   81.282700
  H    -48.643900   34.312400   82.484200
  H    -47.699300   35.706600   82.415000
  S    -40.526700   30.572700   81.915700
  C    -40.423000   28.834400   81.908600
  C    -41.278200   28.286000   82.823600
  C    -42.088100   29.259400   83.516500
  C    -41.805700   30.597000   83.133800
  H    -41.410700   27.184200   82.995900
  C    -43.049100   28.893500   84.669900
  H    -43.507200   29.736300   85.241900
  H    -42.399600   28.393000   85.405800
  C    -44.137100   27.947700   84.281500
  H    -44.569400   27.476100   85.151200
  H    -43.702500   27.228400   83.569200
  C    -45.294500   28.621500   83.569800
  H    -45.030600   29.042900   82.617900
  H    -45.683100   29.439000   84.205600
  H    -46.156700   27.934800   83.475000
  H    -42.813900   35.280300   84.487400
  H    -39.736800   28.331800   81.306200

 Total Charge           Charge          ....    0
 Multiplicity           Mult            ....    1
 Number of Electrons    NEL             ....  134
 Basis Dimension        Dim             ....  322

ORBITAL ENERGIES
----------------

  NO   OCC          E(Eh)            E(eV)
   0   2.0000     -88.964735     -2420.8535
   1   2.0000     -88.963260     -2420.8134
   2   2.0000     -10.331427      -281.1324
   3   2.0000     -10.329251      -281.0732
   4   2.0000     -10.316994      -280.7397
   5   2.0000     -10.311371      -280.5867
   6   2.0000     -10.311270      -280.5839
   7   2.0000     -10.301262      -280.3116
   8   2.0000     -10.299507      -280.2638
   9   2.0000     -10.294309      -280.1224
  10   2.0000     -10.292224      -280.0656
  11   2.0000     -10.289988      -280.0048
  12   2.0000     -10.287451      -279.9358
  13   2.0000     -10.283314      -279.8232
  14   2.0000     -10.280811      -279.7551
  15   2.0000     -10.273765      -279.5634
  16   2.0000      -8.080344      -219.8773
  17   2.0000      -8.078148      -219.8176
  18   2.0000      -6.038626      -164.3194
  19   2.0000      -6.036630      -164.2651
  20   2.0000      -6.034695      -164.2124
  21   2.0000      -6.032490      -164.1524
  22   2.0000      -6.031328      -164.1208
  23   2.0000      -6.029074      -164.0594
  24   2.0000      -1.008803       -27.4509
  25   2.0000      -0.986776       -26.8515
  26   2.0000      -0.913900       -24.8685
  27   2.0000      -0.911195       -24.7949
  28   2.0000      -0.869618       -23.6635
  29   2.0000      -0.850563       -23.1450
  30   2.0000      -0.844303       -22.9746
  31   2.0000      -0.815359       -22.1870
  32   2.0000      -0.783694       -21.3254
  33   2.0000      -0.773618       -21.0512
  34   2.0000      -0.708321       -19.2744
  35   2.0000      -0.695325       -18.9207
  36   2.0000      -0.692221       -18.8363
  37   2.0000      -0.652283       -17.7495
  38   2.0000      -0.648045       -17.6342
  39   2.0000      -0.620968       -16.8974
  40   2.0000      -0.607839       -16.5401
  41   2.0000      -0.568460       -15.4686
  42   2.0000      -0.564426       -15.3588
  43   2.0000      -0.558104       -15.1868
  44   2.0000      -0.541142       -14.7252
  45   2.0000      -0.518790       -14.1170
  46   2.0000      -0.514787       -14.0081
  47   2.0000      -0.508742       -13.8436
  48   2.0000      -0.506611       -13.7856
  49   2.0000      -0.499240       -13.5850
  50   2.0000      -0.486669       -13.2429
  51   2.0000      -0.480927       -13.0867
  52   2.0000      -0.477172       -12.9845
  53   2.0000      -0.468453       -12.7472
  54   2.0000      -0.460036       -12.5182
  55   2.0000      -0.452855       -12.3228
  56   2.0000      -0.446070       -12.1382
  57   2.0000      -0.434116       -11.8129
  58   2.0000      -0.432068       -11.7572
  59   2.0000      -0.426947       -11.6178
  60   2.0000      -0.419703       -11.4207
  61   2.0000      -0.412948       -11.2369
  62   2.0000      -0.409362       -11.1393
  63   2.0000      -0.340173        -9.2566
  64   2.0000      -0.330942        -9.0054
  65   2.0000      -0.326160        -8.8753
  66   2.0000      -0.305247        -8.3062
  67   0.0000       0.041544         1.1305
  68   0.0000       0.058557         1.5934
  69   0.0000       0.119575         3.2538
  70   0.0000       0.124977         3.4008
  71   0.0000       0.129755         3.5308

MULLIKEN ATOMIC CHARGES
-----------------------
   0 S :    0.118457
   1 C :   -0.142516
   2 C :   -0.057500
   3 C :    0.037957
   4 C :   -0.191033
   5 H :    0.010433
   6 C :    0.092762
   7 H :    0.023201
   8 H :    0.008314
   9 C :   -0.050830
  10 H :    0.023203
  11 H :    0.028116
  12 C :   -0.070862
  13 H :    0.031499
  14 H :    0.036155
  15 H :    0.035098
  16 S :    0.102992
  17 C :   -0.069516
  18 C :   -0.038401
  19 C :   -0.044546
  20 C :   -0.171606
  21 H :    0.044766
  22 C :    0.056972
  23 H :    0.035681
  24 H :    0.037296
  25 C :   -0.069482
  26 H :    0.027076
  27 H :    0.026119
  28 C :   -0.057280
  29 H :    0.033795
  30 H :    0.021060
  31 H :    0.034656
  32 H :    0.056948
  33 H :    0.041015
Sum of atomic charges:    0.0000000

LOEWDIN ATOMIC CHARGES
----------------------
   0 S :    0.424613
   1 C :   -0.206309
   2 C :   -0.070119
   3 C :   -0.059433
   4 C :   -0.204295
   5 H :    0.032583
   6 C :   -0.022064
   7 H :    0.033844
   8 H :    0.021584
   9 C :   -0.038056
  10 H :    0.020013
  11 H :    0.024268
  12 C :   -0.070432
  13 H :    0.025825
  14 H :    0.029098
  15 H :    0.025721
  16 S :    0.404019
  17 C :   -0.172205
  18 C :   -0.081348
  19 C :   -0.050682
  20 C :   -0.206349
  21 H :    0.041049
  22 C :   -0.034465
  23 H :    0.035127
  24 H :    0.036168
  25 C :   -0.045526
  26 H :    0.024695
  27 H :    0.023833
  28 C :   -0.065397
  29 H :    0.018718
  30 H :    0.023638
  31 H :    0.028057
  32 H :    0.035003
  33 H :    0.018823

  Mayer bond orders larger than 0.100000
B(  0-S ,  1-C ) :   1.1576 B(  0-S ,  4-C ) :   1.1682 B(  1-C ,  2-C ) :   1.6116
B(  1-C , 32-H ) :   0.9623 B(  2-C ,  3-C ) :   1.2374 B(  2-C ,  6-C ) :   1.0072
B(  3-C ,  4-C ) :   1.5849 B(  3-C ,  5-H ) :   0.9953 B(  4-C , 20-C ) :   1.0051
B(  6-C ,  7-H ) :   0.9367 B(  6-C ,  8-H ) :   0.9445 B(  6-C ,  9-C ) :   1.0544
B(  9-C , 10-H ) :   0.9603 B(  9-C , 11-H ) :   0.9563 B(  9-C , 12-C ) :   1.0712
B( 12-C , 13-H ) :   0.9773 B( 12-C , 14-H ) :   0.9753 B( 12-C , 15-H ) :   0.9758
B( 16-S , 17-C ) :   1.1678 B( 16-S , 20-C ) :   1.1456 B( 17-C , 18-C ) :   1.5904
B( 17-C , 33-H ) :   0.9778 B( 18-C , 19-C ) :   1.2564 B( 18-C , 21-H ) :   0.9751
B( 19-C , 20-C ) :   1.5916 B( 19-C , 22-C ) :   1.0292 B( 22-C , 23-H ) :   0.9427
B( 22-C , 24-H ) :   0.9368 B( 22-C , 25-C ) :   1.0745 B( 25-C , 26-H ) :   0.9505
B( 25-C , 27-H ) :   0.9553 B( 25-C , 28-C ) :   1.0832 B( 28-C , 29-H ) :   0.9749
B( 28-C , 30-H ) :   0.9713 B( 28-C , 31-H ) :   0.9726

Dispersion correction           -0.014240582
FINAL SINGLE POINT ENERGY     -1339.888355424375

DIPOLE MOMENT
-------------
                                X             Y             Z
Electronic contribution:     29.46249       2.07761      -0.74101
Nuclear contribution   :    -29.96286      -2.22862       0.72804
                        -----------------------------------------
Total Dipole Moment    :     -0.50038      -0.15101      -0.01298
                        -----------------------------------------
Magnitude (a.u.)       :      0.52283
Magnitude (Debye)      :      1.32892

Rotational constants in cm-1:     0.018162     0.008592     0.006778
Rotational constants in MHz :   544.484277   257.591077   203.204404

                             ****ORCA TERMINATED NORMALLY****
TOTAL RUN TIME: 0 days 0 hours 0 minutes 30 seconds 92 msec
