                         Program Version 4.2.1 -  RELEASE  -
|  1> ! wB97X-D3 SP def2-SVP
|  2> %pal
|  3> nprocs 16
|  4> end
|  5>
|  6> * xyz 0 1
|  7> S 	 -43.6195 	 24.5562 	 82.5191
|  8> C 	 -44.2729 	 25.9286 	 83.4789
|  9> C 	 -45.3666 	 25.5848 	 84.1287
| 10> C 	 -45.4879 	 24.1524 	 84.1944
| 11> C 	 -44.6511 	 23.4102 	 83.4114
| 12> H 	 -46.2902 	 23.5805 	 84.6633
| 13> C 	 -46.233 	 26.4491 	 85.0259
| 14> H 	 -46.2907 	 27.4017 	 84.4662
| 15> H 	 -45.7031 	 26.8706 	 85.813
| 16> C 	 -47.6017 	 25.9628 	 85.4456
| 17> H 	 -48.1424 	 25.5875 	 84.5871
| 18> H 	 -47.4458 	 25.0608 	 86.0858
| 19> C 	 -48.3791 	 27.0825 	 86.112
| 20> H 	 -48.6468 	 27.8216 	 85.3877
| 21> H 	 -49.2702 	 26.6718 	 86.5859
| 22> H 	 -47.8032 	 27.5607 	 86.9373
| 23> S 	 -44.7595 	 21.4372 	 81.5715
| 24> C 	 -44.6385 	 19.8197 	 82.0109
| 25> C 	 -44.5769 	 19.6511 	 83.3519
| 26> C 	 -44.5612 	 20.9378 	 84.0534
| 27> C 	 -44.6578 	 21.9695 	 83.2179
| 28> H 	 -44.5553 	 18.6072 	 83.7514
| 29> C 	 -44.5432 	 21.0226 	 85.5162
| 30> H 	 -44.0553 	 21.9424 	 85.7389
| 31> H 	 -43.9913 	 20.1763 	 85.9592
| 32> C 	 -45.8858 	 21.0149 	 86.2612
| 33> H 	 -46.4722 	 20.1109 	 86.1462
| 34> H 	 -46.5434 	 21.7896 	 85.7678
| 35> C 	 -45.6641 	 21.3943 	 87.6953
| 36> H 	 -45.0741 	 22.2916 	 87.8173
| 37> H 	 -45.113 	 20.5492 	 88.1318
| 38> H 	 -46.679 	 21.424 	 88.1677
| 39> H 	 -44.0281 	 26.9392 	 83.2982
| 40> H 	 -44.6828 	 19.0227 	 81.2559
| 41> *
| 42>
| 43>                          ****END OF INPUT****

CARTESIAN COORDINATES (ANGSTROEM)
---------------------------------
  S    -43.619500   24.556200   82.519100
  C    -44.272900   25.928600   83.478900
  C    -45.366600   25.584800   84.128700
  C    -45.487900   24.152400   84.194400
  C    -44.651100   23.410200   83.411400
  H    -46.290200   23.580500   84.663300
  C    -46.233000   26.449100   85.025900
  H    -46.290700   27.401700   84.466200
  H    -45.703100   26.870600   85.813000
  C    -47.601700   25.962800   85.445600
  H    -48.142400   25.587500   84.587100
  H    -47.445800   25.060800   86.085800
  C    -48.379100   27.082500   86.112000
  H    -48.646800   27.821600   85.387700
  H    -49.270200   26.671800   86.585900
  H    -47.803200   27.560700   86.937300
  S    -44.759500   21.437200   81.571500
  C    -44.638500   19.819700   82.010900
  C    -44.576900   19.651100   83.351900
  C    -44.561200   20.937800   84.053400
  C    -44.657800   21.969500   83.217900
  H    -44.555300   18.607200   83.751400
  C    -44.543200   21.022600   85.516200
  H    -44.055300   21.942400   85.738900
  H    -43.991300   20.176300   85.959200
  C    -45.885800   21.014900   86.261200
  H    -46.472200   20.110900   86.146200
  H    -46.543400   21.789600   85.767800
  C    -45.664100   21.394300   87.695300
  H    -45.074100   22.291600   87.817300
  H    -45.113000   20.549200   88.131800
  H    -46.679000   21.424000   88.167700
  H    -44.028100   26.939200   83.298200
  H    -44.682800   19.022700   81.255900

 Total Charge           Charge          ....    0
 Multiplicity           Mult            ....    1
 Number of Electrons    NEL             ....  134
 Basis Dimension        Dim             ....  322

ORBITAL ENERGIES
----------------

  NO   OCC          E(Eh)            E(eV)
   0   2.0000     -88.961252     -2420.7587
   1   2.0000     -88.957955     -2420.6690
   2   2.0000     -10.329079      -281.0685
   3   2.0000     -10.318258      -280.7741
   4   2.0000     -10.310609      -280.5659
   5   2.0000     -10.308254      -280.5018
   6   2.0000     -10.297230      -280.2019
   7   2.0000     -10.296964      -280.1946
   8   2.0000     -10.294008      -280.1142
   9   2.0000     -10.290042      -280.0063
  10   2.0000     -10.289962      -280.0041
  11   2.0000     -10.287085      -279.9258
  12   2.0000     -10.285940      -279.8947
  13   2.0000     -10.283311      -279.8231
  14   2.0000     -10.281879      -279.7841
  15   2.0000     -10.279549      -279.7207
  16   2.0000      -8.075120      -219.7352
  17   2.0000      -8.075083      -219.7342
  18   2.0000      -6.033967      -164.1926
  19   2.0000      -6.033552      -164.1813
  20   2.0000      -6.029844      -164.0804
  21   2.0000      -6.029317      -164.0660
  22   2.0000      -6.025752      -163.9691
  23   2.0000      -6.025383      -163.9590
  24   2.0000      -1.016171       -27.6514
  25   2.0000      -0.989947       -26.9378
  26   2.0000      -0.919464       -25.0199
  27   2.0000      -0.917777       -24.9740
  28   2.0000      -0.879318       -23.9275
  29   2.0000      -0.858079       -23.3495
  30   2.0000      -0.841269       -22.8921
  31   2.0000      -0.819441       -22.2981
  32   2.0000      -0.783762       -21.3273
  33   2.0000      -0.776234       -21.1224
  34   2.0000      -0.715535       -19.4707
  35   2.0000      -0.699167       -19.0253
  36   2.0000      -0.693243       -18.8641
  37   2.0000      -0.664841       -18.0912
  38   2.0000      -0.644590       -17.5402
  39   2.0000      -0.618711       -16.8360
  40   2.0000      -0.601839       -16.3769
  41   2.0000      -0.575972       -15.6730
  42   2.0000      -0.569735       -15.5033
  43   2.0000      -0.563713       -15.3394
  44   2.0000      -0.532412       -14.4877
  45   2.0000      -0.527358       -14.3501
  46   2.0000      -0.518474       -14.1084
  47   2.0000      -0.510344       -13.8872
  48   2.0000      -0.507690       -13.8149
  49   2.0000      -0.500993       -13.6327
  50   2.0000      -0.493006       -13.4154
  51   2.0000      -0.483361       -13.1529
  52   2.0000      -0.475707       -12.9446
  53   2.0000      -0.471870       -12.8402
  54   2.0000      -0.457537       -12.4502
  55   2.0000      -0.449204       -12.2235
  56   2.0000      -0.445036       -12.1101
  57   2.0000      -0.441858       -12.0236
  58   2.0000      -0.436815       -11.8863
  59   2.0000      -0.423860       -11.5338
  60   2.0000      -0.421011       -11.4563
  61   2.0000      -0.413470       -11.2511
  62   2.0000      -0.409163       -11.1339
  63   2.0000      -0.351260        -9.5583
  64   2.0000      -0.328665        -8.9434
  65   2.0000      -0.324989        -8.8434
  66   2.0000      -0.301674        -8.2090
  67   0.0000       0.037895         1.0312
  68   0.0000       0.072952         1.9851
  69   0.0000       0.113898         3.0993
  70   0.0000       0.124883         3.3982
  71   0.0000       0.131448         3.5769

MULLIKEN ATOMIC CHARGES
-----------------------
   0 S :    0.088639
   1 C :   -0.115445
   2 C :   -0.018104
   3 C :   -0.014252
   4 C :   -0.116218
   5 H :    0.009826
   6 C :    0.053445
   7 H :    0.004082
   8 H :    0.013612
   9 C :   -0.085475
  10 H :    0.032510
  11 H :    0.041278
  12 C :   -0.026000
  13 H :    0.035517
  14 H :    0.033615
  15 H :    0.032765
  16 S :    0.103267
  17 C :   -0.090333
  18 C :   -0.047858
  19 C :   -0.022311
  20 C :   -0.169252
  21 H :    0.032811
  22 C :    0.060634
  23 H :    0.019265
  24 H :    0.018931
  25 C :   -0.082582
  26 H :    0.024177
  27 H :    0.012376
  28 C :   -0.027945
  29 H :    0.037722
  30 H :    0.025997
  31 H :    0.043050
  32 H :    0.030259
  33 H :    0.061999
Sum of atomic charges:   -0.0000000

LOEWDIN ATOMIC CHARGES
----------------------
   0 S :    0.360565
   1 C :   -0.165477
   2 C :   -0.062107
   3 C :   -0.067992
   4 C :   -0.178574
   5 H :    0.026391
   6 C :   -0.037318
   7 H :    0.033267
   8 H :    0.025240
   9 C :   -0.043390
  10 H :    0.025670
  11 H :    0.027334
  12 C :   -0.058504
  13 H :    0.024844
  14 H :    0.028363
  15 H :    0.029238
  16 S :    0.427973
  17 C :   -0.200861
  18 C :   -0.080780
  19 C :   -0.055332
  20 C :   -0.201612
  21 H :    0.040210
  22 C :   -0.033539
  23 H :    0.029026
  24 H :    0.032365
  25 C :   -0.041196
  26 H :    0.021857
  27 H :    0.018289
  28 C :   -0.063188
  29 H :    0.025248
  30 H :    0.026081
  31 H :    0.033767
  32 H :    0.020880
  33 H :    0.033262

  Mayer bond orders larger than 0.100000
B(  0-S ,  1-C ) :   1.1074 B(  0-S ,  4-C ) :   1.1107 B(  1-C ,  2-C ) :   1.6776
B(  1-C , 32-H ) :   0.9687 B(  2-C ,  3-C ) :   1.1856 B(  2-C ,  6-C ) :   1.0071
B(  3-C ,  4-C ) :   1.6327 B(  3-C ,  5-H ) :   0.9810 B(  4-C , 20-C ) :   1.0341
B(  6-C ,  7-H ) :   0.9281 B(  6-C ,  8-H ) :   0.9367 B(  6-C ,  9-C ) :   1.0659
B(  9-C , 10-H ) :   0.9571 B(  9-C , 11-H ) :   0.9427 B(  9-C , 12-C ) :   1.0850
B( 12-C , 13-H ) :   0.9743 B( 12-C , 14-H ) :   0.9712 B( 12-C , 15-H ) :   0.9737
B( 16-S , 17-C ) :   1.1665 B( 16-S , 20-C ) :   1.1236 B( 17-C , 18-C ) :   1.6330
B( 17-C , 33-H ) :   0.9629 B( 18-C , 19-C ) :   1.1860 B( 18-C , 21-H ) :   0.9900
B( 19-C , 20-C ) :   1.6562 B( 19-C , 22-C ) :   1.0764 B( 22-C , 23-H ) :   0.9203
B( 22-C , 24-H ) :   0.9253 B( 22-C , 25-C ) :   1.0691 B( 25-C , 26-H ) :   0.9476
B( 25-C , 27-H ) :   0.9488 B( 25-C , 28-C ) :   1.0859 B( 28-C , 29-H ) :   0.9730
B( 28-C , 30-H ) :   0.9711 B( 28-C , 31-H ) :   0.9705

Dispersion correction           -0.014233022
FINAL SINGLE POINT ENERGY     -1339.876092911319

DIPOLE MOMENT
-------------
                                X             Y             Z
Electronic contribution:     15.87248      -6.27945     -26.43623
Nuclear contribution   :    -16.37038       6.28235      27.01667
                        -----------------------------------------
Total Dipole Moment    :     -0.49789       0.00290       0.58044
                        -----------------------------------------
Magnitude (a.u.)       :      0.76473
Magnitude (Debye)      :      1.94380

Rotational constants in cm-1:     0.017340     0.009425     0.006932
Rotational constants in MHz :   519.853724   282.542398   207.816693

                             ****ORCA TERMINATED NORMALLY****
TOTAL RUN TIME: 0 days 0 hours 0 minutes 30 seconds 680 msec
