                         Program Version 4.2.1 -  RELEASE  -
|  1> ! wB97X-D3 SP def2-SVP
|  2> %pal
|  3> nprocs 16
|  4> end
|  5>
|  6> * xyz 0 1
|  7> S 	 -51.3262 	 61.5392 	 140.471
|  8> C 	 -50.1844 	 60.2457 	 140.645
|  9> C 	 -49.8077 	 60.0443 	 141.978
| 10> C 	 -50.5707 	 60.877 	 142.881
| 11> C 	 -51.4653 	 61.722 	 142.227
| 12> H 	 -50.4654 	 60.9839 	 143.974
| 13> C 	 -48.7541 	 59.0242 	 142.371
| 14> H 	 -48.7088 	 58.283 	 141.619
| 15> H 	 -49.0891 	 58.4856 	 143.271
| 16> C 	 -47.3343 	 59.7089 	 142.581
| 17> H 	 -46.7931 	 59.9134 	 141.646
| 18> H 	 -47.6268 	 60.7114 	 142.866
| 19> C 	 -46.4436 	 58.9368 	 143.596
| 20> H 	 -46.8352 	 59.1461 	 144.605
| 21> H 	 -46.4987 	 57.9661 	 143.268
| 22> H 	 -45.3889 	 59.2864 	 143.672
| 23> S 	 -51.9653 	 63.9759 	 143.704
| 24> C 	 -53.5694 	 64.4719 	 143.972
| 25> C 	 -54.4988 	 63.7943 	 143.305
| 26> C 	 -53.8817 	 62.7916 	 142.434
| 27> C 	 -52.5311 	 62.5657 	 142.767
| 28> H 	 -55.4935 	 64.0927 	 143.35
| 29> C 	 -54.696 	 61.8712 	 141.519
| 30> H 	 -55.5983 	 61.5434 	 142.108
| 31> H 	 -54.159 	 60.9593 	 141.311
| 32> C 	 -55.0228 	 62.5062 	 140.134
| 33> H 	 -54.1119 	 62.8997 	 139.759
| 34> H 	 -55.5176 	 63.4009 	 140.313
| 35> C 	 -55.6792 	 61.7052 	 139.007
| 36> H 	 -55.1466 	 60.7752 	 138.916
| 37> H 	 -55.6499 	 62.1607 	 138.068
| 38> H 	 -56.6212 	 61.5532 	 139.321
| 39> H 	 -49.7526 	 59.7712 	 139.756
| 40> H 	 -53.7472 	 65.3654 	 144.539
| 41> *
| 42>
| 43>                          ****END OF INPUT****

CARTESIAN COORDINATES (ANGSTROEM)
---------------------------------
  S    -51.326200   61.539200  140.471000
  C    -50.184400   60.245700  140.645000
  C    -49.807700   60.044300  141.978000
  C    -50.570700   60.877000  142.881000
  C    -51.465300   61.722000  142.227000
  H    -50.465400   60.983900  143.974000
  C    -48.754100   59.024200  142.371000
  H    -48.708800   58.283000  141.619000
  H    -49.089100   58.485600  143.271000
  C    -47.334300   59.708900  142.581000
  H    -46.793100   59.913400  141.646000
  H    -47.626800   60.711400  142.866000
  C    -46.443600   58.936800  143.596000
  H    -46.835200   59.146100  144.605000
  H    -46.498700   57.966100  143.268000
  H    -45.388900   59.286400  143.672000
  S    -51.965300   63.975900  143.704000
  C    -53.569400   64.471900  143.972000
  C    -54.498800   63.794300  143.305000
  C    -53.881700   62.791600  142.434000
  C    -52.531100   62.565700  142.767000
  H    -55.493500   64.092700  143.350000
  C    -54.696000   61.871200  141.519000
  H    -55.598300   61.543400  142.108000
  H    -54.159000   60.959300  141.311000
  C    -55.022800   62.506200  140.134000
  H    -54.111900   62.899700  139.759000
  H    -55.517600   63.400900  140.313000
  C    -55.679200   61.705200  139.007000
  H    -55.146600   60.775200  138.916000
  H    -55.649900   62.160700  138.068000
  H    -56.621200   61.553200  139.321000
  H    -49.752600   59.771200  139.756000
  H    -53.747200   65.365400  144.539000

 Total Charge           Charge          ....    0
 Multiplicity           Mult            ....    1
 Number of Electrons    NEL             ....  134
 Basis Dimension        Dim             ....  322

ORBITAL ENERGIES
----------------

  NO   OCC          E(Eh)            E(eV)
   0   2.0000     -88.965969     -2420.8871
   1   2.0000     -88.959219     -2420.7034
   2   2.0000     -10.332518      -281.1621
   3   2.0000     -10.329918      -281.0914
   4   2.0000     -10.316741      -280.7328
   5   2.0000     -10.312886      -280.6279
   6   2.0000     -10.308319      -280.5036
   7   2.0000     -10.306974      -280.4670
   8   2.0000     -10.302472      -280.3445
   9   2.0000     -10.292911      -280.0843
  10   2.0000     -10.292485      -280.0727
  11   2.0000     -10.288029      -279.9515
  12   2.0000     -10.287839      -279.9463
  13   2.0000     -10.278128      -279.6821
  14   2.0000     -10.271332      -279.4972
  15   2.0000     -10.260728      -279.2086
  16   2.0000      -8.080347      -219.8774
  17   2.0000      -8.075035      -219.7329
  18   2.0000      -6.038728      -164.3222
  19   2.0000      -6.034852      -164.2167
  20   2.0000      -6.033438      -164.1782
  21   2.0000      -6.031325      -164.1207
  22   2.0000      -6.029535      -164.0720
  23   2.0000      -6.025696      -163.9675
  24   2.0000      -1.004848       -27.3433
  25   2.0000      -0.984011       -26.7763
  26   2.0000      -0.906158       -24.6578
  27   2.0000      -0.902874       -24.5684
  28   2.0000      -0.869596       -23.6629
  29   2.0000      -0.851796       -23.1785
  30   2.0000      -0.845450       -23.0059
  31   2.0000      -0.818462       -22.2715
  32   2.0000      -0.785376       -21.3712
  33   2.0000      -0.768078       -20.9005
  34   2.0000      -0.708247       -19.2724
  35   2.0000      -0.702217       -19.1083
  36   2.0000      -0.692072       -18.8322
  37   2.0000      -0.662183       -18.0189
  38   2.0000      -0.641529       -17.4569
  39   2.0000      -0.617737       -16.8095
  40   2.0000      -0.599181       -16.3045
  41   2.0000      -0.568167       -15.4606
  42   2.0000      -0.562320       -15.3015
  43   2.0000      -0.553755       -15.0684
  44   2.0000      -0.531672       -14.4675
  45   2.0000      -0.527411       -14.3516
  46   2.0000      -0.516627       -14.0581
  47   2.0000      -0.510481       -13.8909
  48   2.0000      -0.510362       -13.8877
  49   2.0000      -0.502028       -13.6609
  50   2.0000      -0.491730       -13.3806
  51   2.0000      -0.471445       -12.8287
  52   2.0000      -0.470962       -12.8155
  53   2.0000      -0.467129       -12.7112
  54   2.0000      -0.463548       -12.6138
  55   2.0000      -0.455418       -12.3925
  56   2.0000      -0.444128       -12.0853
  57   2.0000      -0.433657       -11.8004
  58   2.0000      -0.428089       -11.6489
  59   2.0000      -0.423105       -11.5133
  60   2.0000      -0.421694       -11.4749
  61   2.0000      -0.416459       -11.3324
  62   2.0000      -0.407980       -11.1017
  63   2.0000      -0.345891        -9.4122
  64   2.0000      -0.331750        -9.0274
  65   2.0000      -0.324184        -8.8215
  66   2.0000      -0.295953        -8.0533
  67   0.0000       0.029665         0.8072
  68   0.0000       0.071397         1.9428
  69   0.0000       0.106132         2.8880
  70   0.0000       0.116480         3.1696
  71   0.0000       0.127526         3.4702

MULLIKEN ATOMIC CHARGES
-----------------------
   0 S :    0.109525
   1 C :   -0.129805
   2 C :   -0.112239
   3 C :    0.036340
   4 C :   -0.163344
   5 H :    0.028876
   6 C :    0.077898
   7 H :    0.011562
   8 H :    0.031777
   9 C :   -0.082145
  10 H :    0.029643
  11 H :    0.024198
  12 C :   -0.036986
  13 H :    0.038798
  14 H :    0.030393
  15 H :    0.040131
  16 S :    0.088978
  17 C :   -0.064376
  18 C :    0.006734
  19 C :   -0.057582
  20 C :   -0.144527
  21 H :   -0.003178
  22 C :    0.043607
  23 H :    0.036047
  24 H :    0.018591
  25 C :   -0.065540
  26 H :   -0.000112
  27 H :   -0.003958
  28 C :    0.049666
  29 H :    0.020226
  30 H :    0.025051
  31 H :    0.005545
  32 H :    0.059719
  33 H :    0.050489
Sum of atomic charges:    0.0000000

LOEWDIN ATOMIC CHARGES
----------------------
   0 S :    0.411887
   1 C :   -0.202525
   2 C :   -0.063818
   3 C :   -0.061989
   4 C :   -0.193774
   5 H :    0.038940
   6 C :   -0.027233
   7 H :    0.021752
   8 H :    0.033214
   9 C :   -0.039260
  10 H :    0.024671
  11 H :    0.018941
  12 C :   -0.061263
  13 H :    0.030266
  14 H :    0.014601
  15 H :    0.031667
  16 S :    0.401744
  17 C :   -0.182738
  18 C :   -0.068813
  19 C :   -0.040982
  20 C :   -0.193025
  21 H :    0.024632
  22 C :   -0.033767
  23 H :    0.033826
  24 H :    0.021439
  25 C :   -0.038033
  26 H :    0.014101
  27 H :    0.010516
  28 C :   -0.041984
  29 H :    0.026835
  30 H :    0.024125
  31 H :    0.010048
  32 H :    0.030562
  33 H :    0.025442

  Mayer bond orders larger than 0.100000
B(  0-S ,  1-C ) :   1.1514 B(  0-S ,  4-C ) :   1.1494 B(  1-C ,  2-C ) :   1.5964
B(  1-C , 32-H ) :   0.9664 B(  2-C ,  3-C ) :   1.2335 B(  2-C ,  6-C ) :   1.0400
B(  3-C ,  4-C ) :   1.5765 B(  3-C ,  5-H ) :   0.9885 B(  4-C , 20-C ) :   1.0289
B(  6-C ,  7-H ) :   0.9365 B(  6-C ,  8-H ) :   0.9487 B(  6-C ,  9-C ) :   1.0282
B(  9-C , 10-H ) :   0.9567 B(  9-C , 11-H ) :   0.9695 B(  9-C , 12-C ) :   1.0629
B( 12-C , 13-H ) :   0.9793 B( 12-C , 14-H ) :   0.9783 B( 12-C , 15-H ) :   0.9757
B( 16-S , 17-C ) :   1.1617 B( 16-S , 20-C ) :   1.1292 B( 17-C , 18-C ) :   1.6355
B( 17-C , 33-H ) :   0.9635 B( 18-C , 19-C ) :   1.1931 B( 18-C , 21-H ) :   1.0050
B( 19-C , 20-C ) :   1.6045 B( 19-C , 22-C ) :   1.0518 B( 22-C , 23-H ) :   0.9446
B( 22-C , 24-H ) :   0.9383 B( 22-C , 25-C ) :   1.0419 B( 25-C , 26-H ) :   0.9475
B( 25-C , 27-H ) :   0.9554 B( 25-C , 28-C ) :   1.0843 B( 28-C , 29-H ) :   0.9712
B( 28-C , 30-H ) :   0.9721 B( 28-C , 31-H ) :   0.9741

Dispersion correction           -0.014110495
FINAL SINGLE POINT ENERGY     -1339.860942783683

DIPOLE MOMENT
-------------
                                X             Y             Z
Electronic contribution:     -3.26679      13.17580       4.64021
Nuclear contribution   :      3.23513     -13.34381      -4.69255
                        -----------------------------------------
Total Dipole Moment    :     -0.03165      -0.16801      -0.05234
                        -----------------------------------------
Magnitude (a.u.)       :      0.17880
Magnitude (Debye)      :      0.45448

Rotational constants in cm-1:     0.021440     0.007625     0.005974
Rotational constants in MHz :   642.741572   228.590698   179.087662

                             ****ORCA TERMINATED NORMALLY****
TOTAL RUN TIME: 0 days 0 hours 0 minutes 32 seconds 804 msec
