                         Program Version 4.2.1 -  RELEASE  -
|  1> ! wB97X-D3 SP def2-SVP
|  2> %pal
|  3> nprocs 16
|  4> end
|  5>
|  6> * xyz 0 1
|  7> S 	 -25.887 	 51.1327 	 64.9055
|  8> C 	 -25.1938 	 50.142 	 63.6261
|  9> C 	 -24.2264 	 49.2765 	 64.117
| 10> C 	 -24.1473 	 49.3726 	 65.5718
| 11> C 	 -24.9412 	 50.2979 	 66.1632
| 12> H 	 -23.5344 	 48.7252 	 66.1684
| 13> C 	 -23.3802 	 48.2445 	 63.3284
| 14> H 	 -22.3335 	 48.3846 	 63.5775
| 15> H 	 -23.4411 	 48.381 	 62.1944
| 16> C 	 -23.8024 	 46.7951 	 63.7558
| 17> H 	 -22.9534 	 46.1876 	 63.3414
| 18> H 	 -23.7368 	 46.8327 	 64.8589
| 19> C 	 -25.1881 	 46.3814 	 63.1984
| 20> H 	 -26.0122 	 47.0129 	 63.5338
| 21> H 	 -25.0878 	 46.4673 	 62.0951
| 22> H 	 -25.4417 	 45.3476 	 63.514
| 23> S 	 -24.5341 	 51.95 	 68.4727
| 24> C 	 -25.0049 	 51.3378 	 70.0102
| 25> C 	 -25.4418 	 50.0201 	 69.9011
| 26> C 	 -25.4475 	 49.5505 	 68.5904
| 27> C 	 -25.0877 	 50.5084 	 67.611
| 28> H 	 -25.7668 	 49.5044 	 70.7494
| 29> C 	 -26.0062 	 48.1682 	 68.3353
| 30> H 	 -26.3345 	 47.5447 	 69.2844
| 31> H 	 -25.1413 	 47.6939 	 67.942
| 32> C 	 -27.2005 	 48.231 	 67.3988
| 33> H 	 -26.9989 	 48.4554 	 66.3189
| 34> H 	 -27.8773 	 49.0131 	 67.7031
| 35> C 	 -28.1362 	 46.9726 	 67.3987
| 36> H 	 -28.0005 	 46.405 	 68.3282
| 37> H 	 -27.8603 	 46.3161 	 66.5741
| 38> H 	 -29.0907 	 47.3483 	 67.2933
| 39> H 	 -25.4551 	 50.1121 	 62.6115
| 40> H 	 -24.8408 	 51.7881 	 70.9841
| 41> *
| 42>
| 43>                          ****END OF INPUT****

CARTESIAN COORDINATES (ANGSTROEM)
---------------------------------
  S    -25.887000   51.132700   64.905500
  C    -25.193800   50.142000   63.626100
  C    -24.226400   49.276500   64.117000
  C    -24.147300   49.372600   65.571800
  C    -24.941200   50.297900   66.163200
  H    -23.534400   48.725200   66.168400
  C    -23.380200   48.244500   63.328400
  H    -22.333500   48.384600   63.577500
  H    -23.441100   48.381000   62.194400
  C    -23.802400   46.795100   63.755800
  H    -22.953400   46.187600   63.341400
  H    -23.736800   46.832700   64.858900
  C    -25.188100   46.381400   63.198400
  H    -26.012200   47.012900   63.533800
  H    -25.087800   46.467300   62.095100
  H    -25.441700   45.347600   63.514000
  S    -24.534100   51.950000   68.472700
  C    -25.004900   51.337800   70.010200
  C    -25.441800   50.020100   69.901100
  C    -25.447500   49.550500   68.590400
  C    -25.087700   50.508400   67.611000
  H    -25.766800   49.504400   70.749400
  C    -26.006200   48.168200   68.335300
  H    -26.334500   47.544700   69.284400
  H    -25.141300   47.693900   67.942000
  C    -27.200500   48.231000   67.398800
  H    -26.998900   48.455400   66.318900
  H    -27.877300   49.013100   67.703100
  C    -28.136200   46.972600   67.398700
  H    -28.000500   46.405000   68.328200
  H    -27.860300   46.316100   66.574100
  H    -29.090700   47.348300   67.293300
  H    -25.455100   50.112100   62.611500
  H    -24.840800   51.788100   70.984100

 Total Charge           Charge          ....    0
 Multiplicity           Mult            ....    1
 Number of Electrons    NEL             ....  134
 Basis Dimension        Dim             ....  322

ORBITAL ENERGIES
----------------

  NO   OCC          E(Eh)            E(eV)
   0   2.0000     -88.969100     -2420.9723
   1   2.0000     -88.966120     -2420.8912
   2   2.0000     -10.332428      -281.1597
   3   2.0000     -10.330165      -281.0981
   4   2.0000     -10.317372      -280.7500
   5   2.0000     -10.315035      -280.6864
   6   2.0000     -10.306643      -280.4580
   7   2.0000     -10.303801      -280.3807
   8   2.0000     -10.301970      -280.3309
   9   2.0000     -10.297966      -280.2219
  10   2.0000     -10.295448      -280.1534
  11   2.0000     -10.294844      -280.1369
  12   2.0000     -10.286404      -279.9073
  13   2.0000     -10.284999      -279.8690
  14   2.0000     -10.279735      -279.7258
  15   2.0000     -10.268577      -279.4222
  16   2.0000      -8.083554      -219.9647
  17   2.0000      -8.079990      -219.8677
  18   2.0000      -6.042017      -164.4116
  19   2.0000      -6.038780      -164.3236
  20   2.0000      -6.037873      -164.2989
  21   2.0000      -6.034614      -164.2102
  22   2.0000      -6.034567      -164.2089
  23   2.0000      -6.030546      -164.0995
  24   2.0000      -1.004117       -27.3234
  25   2.0000      -0.983485       -26.7620
  26   2.0000      -0.907605       -24.6972
  27   2.0000      -0.905838       -24.6491
  28   2.0000      -0.868165       -23.6240
  29   2.0000      -0.850992       -23.1567
  30   2.0000      -0.839290       -22.8382
  31   2.0000      -0.814412       -22.1613
  32   2.0000      -0.782032       -21.2802
  33   2.0000      -0.772310       -21.0156
  34   2.0000      -0.709228       -19.2991
  35   2.0000      -0.691874       -18.8268
  36   2.0000      -0.687808       -18.7162
  37   2.0000      -0.659598       -17.9486
  38   2.0000      -0.641556       -17.4576
  39   2.0000      -0.624071       -16.9818
  40   2.0000      -0.594782       -16.1848
  41   2.0000      -0.573722       -15.6118
  42   2.0000      -0.562658       -15.3107
  43   2.0000      -0.547424       -14.8962
  44   2.0000      -0.538344       -14.6491
  45   2.0000      -0.532326       -14.4853
  46   2.0000      -0.515929       -14.0391
  47   2.0000      -0.510998       -13.9050
  48   2.0000      -0.506718       -13.7885
  49   2.0000      -0.494887       -13.4666
  50   2.0000      -0.489970       -13.3328
  51   2.0000      -0.481729       -13.1085
  52   2.0000      -0.470495       -12.8028
  53   2.0000      -0.463182       -12.6038
  54   2.0000      -0.458453       -12.4751
  55   2.0000      -0.446234       -12.1427
  56   2.0000      -0.442177       -12.0323
  57   2.0000      -0.436694       -11.8831
  58   2.0000      -0.433580       -11.7983
  59   2.0000      -0.427367       -11.6292
  60   2.0000      -0.416369       -11.3300
  61   2.0000      -0.412794       -11.2327
  62   2.0000      -0.403610       -10.9828
  63   2.0000      -0.342260        -9.3134
  64   2.0000      -0.331835        -9.0297
  65   2.0000      -0.327271        -8.9055
  66   2.0000      -0.299274        -8.1437
  67   0.0000       0.033708         0.9172
  68   0.0000       0.060733         1.6526
  69   0.0000       0.119113         3.2412
  70   0.0000       0.121766         3.3134
  71   0.0000       0.124641         3.3917

MULLIKEN ATOMIC CHARGES
-----------------------
   0 S :    0.102777
   1 C :   -0.096601
   2 C :   -0.089622
   3 C :    0.030272
   4 C :   -0.165256
   5 H :    0.008489
   6 C :    0.029652
   7 H :    0.037414
   8 H :    0.034682
   9 C :   -0.101836
  10 H :    0.042836
  11 H :    0.032644
  12 C :   -0.051119
  13 H :    0.046153
  14 H :    0.034662
  15 H :    0.044740
  16 S :    0.124552
  17 C :   -0.089075
  18 C :   -0.033321
  19 C :   -0.032071
  20 C :   -0.152842
  21 H :   -0.003827
  22 C :    0.082614
  23 H :    0.040337
  24 H :    0.019400
  25 C :   -0.120961
  26 H :    0.052537
  27 H :    0.027743
  28 C :   -0.015949
  29 H :    0.020151
  30 H :    0.032112
  31 H :    0.022047
  32 H :    0.026327
  33 H :    0.060340
Sum of atomic charges:    0.0000000

LOEWDIN ATOMIC CHARGES
----------------------
   0 S :    0.384359
   1 C :   -0.186073
   2 C :   -0.061103
   3 C :   -0.056924
   4 C :   -0.185483
   5 H :    0.025466
   6 C :   -0.035072
   7 H :    0.030677
   8 H :    0.032562
   9 C :   -0.043320
  10 H :    0.029564
  11 H :    0.021754
  12 C :   -0.068680
  13 H :    0.027154
  14 H :    0.029523
  15 H :    0.030582
  16 S :    0.426080
  17 C :   -0.191812
  18 C :   -0.073336
  19 C :   -0.046487
  20 C :   -0.211861
  21 H :    0.022574
  22 C :   -0.035385
  23 H :    0.041950
  24 H :    0.025650
  25 C :   -0.046600
  26 H :    0.031824
  27 H :    0.023017
  28 C :   -0.056805
  29 H :    0.021614
  30 H :    0.024133
  31 H :    0.016333
  32 H :    0.020379
  33 H :    0.033746

  Mayer bond orders larger than 0.100000
B(  0-S ,  1-C ) :   1.1298 B(  0-S ,  4-C ) :   1.1149 B(  1-C ,  2-C ) :   1.6399
B(  1-C , 32-H ) :   0.9715 B(  2-C ,  3-C ) :   1.2036 B(  2-C ,  6-C ) :   1.0190
B(  3-C ,  4-C ) :   1.6345 B(  3-C ,  5-H ) :   0.9916 B(  4-C , 20-C ) :   1.0328
B(  6-C ,  7-H ) :   0.9419 B(  6-C ,  8-H ) :   0.9490 B(  6-C ,  9-C ) :   1.0595
B(  9-C , 10-H ) :   0.9571 B(  9-C , 11-H ) :   0.9576 B(  9-C , 12-C ) :   1.0612
B( 12-C , 13-H ) :   0.9757 B( 12-C , 14-H ) :   0.9743 B( 12-C , 15-H ) :   0.9743
B( 16-S , 17-C ) :   1.1931 B( 16-S , 20-C ) :   1.1468 B( 17-C , 18-C ) :   1.5462
B( 17-C , 20-C ) :   0.1112 B( 17-C , 33-H ) :   0.9652 B( 18-C , 19-C ) :   1.3078
B( 18-C , 21-H ) :   1.0041 B( 19-C , 20-C ) :   1.5293 B( 19-C , 22-C ) :   1.0232
B( 22-C , 23-H ) :   0.9468 B( 22-C , 24-H ) :   0.9146 B( 22-C , 25-C ) :   1.0618
B( 25-C , 26-H ) :   0.9481 B( 25-C , 27-H ) :   0.9678 B( 25-C , 28-C ) :   1.0806
B( 28-C , 29-H ) :   0.9758 B( 28-C , 30-H ) :   0.9784 B( 28-C , 31-H ) :   0.9807

Dispersion correction           -0.015891450
FINAL SINGLE POINT ENERGY     -1339.872377574310

DIPOLE MOMENT
-------------
                                X             Y             Z
Electronic contribution:      5.23250      27.65003       7.88138
Nuclear contribution   :     -5.11757     -28.35857      -7.85766
                        -----------------------------------------
Total Dipole Moment    :      0.11493      -0.70853       0.02372
                        -----------------------------------------
Magnitude (a.u.)       :      0.71819
Magnitude (Debye)      :      1.82549

Rotational constants in cm-1:     0.019052     0.009581     0.007739
Rotational constants in MHz :   571.165116   287.232786   232.017089

                             ****ORCA TERMINATED NORMALLY****
TOTAL RUN TIME: 0 days 0 hours 0 minutes 33 seconds 103 msec
