                         Program Version 4.2.1 -  RELEASE  -
|  1> ! wB97X-D3 SP def2-SVP
|  2> %pal
|  3> nprocs 16
|  4> end
|  5>
|  6> * xyz 0 1
|  7> S 	 -37.4709 	 70.8334 	 154.071
|  8> C 	 -37.9767 	 72.2276 	 153.188
|  9> C 	 -36.9521 	 73.1043 	 152.982
| 10> C 	 -35.8122 	 72.7119 	 153.76
| 11> C 	 -35.9408 	 71.51 	 154.435
| 12> H 	 -34.9963 	 73.3394 	 153.873
| 13> C 	 -37.0168 	 74.4167 	 152.146
| 14> H 	 -38.0117 	 74.8641 	 152.431
| 15> H 	 -37.1001 	 74.1649 	 151.056
| 16> C 	 -35.9263 	 75.4133 	 152.412
| 17> H 	 -36.016 	 75.6287 	 153.458
| 18> H 	 -34.961 	 75.0646 	 152.14
| 19> C 	 -36.0492 	 76.8227 	 151.762
| 20> H 	 -36.897 	 77.4809 	 152.054
| 21> H 	 -35.253 	 77.3464 	 152.218
| 22> H 	 -36.0651 	 76.9525 	 150.678
| 23> S 	 -34.3053 	 69.2215 	 154.798
| 24> C 	 -33.0309 	 69.2951 	 155.889
| 25> C 	 -32.9922 	 70.4693 	 156.644
| 26> C 	 -34.0623 	 71.3165 	 156.25
| 27> C 	 -34.8869 	 70.8648 	 155.235
| 28> H 	 -32.2785 	 70.5682 	 157.445
| 29> C 	 -34.2117 	 72.6145 	 157.022
| 30> H 	 -34.1474 	 72.3899 	 158.08
| 31> H 	 -35.1522 	 73.0881 	 156.767
| 32> C 	 -33.0647 	 73.6362 	 156.913
| 33> H 	 -32.8497 	 73.8024 	 155.86
| 34> H 	 -32.218 	 73.1692 	 157.42
| 35> C 	 -33.3493 	 74.9545 	 157.63
| 36> H 	 -33.7172 	 74.9934 	 158.638
| 37> H 	 -33.9811 	 75.5611 	 157.107
| 38> H 	 -32.4226 	 75.4184 	 157.75
| 39> H 	 -38.9192 	 72.3012 	 152.62
| 40> H 	 -32.2775 	 68.5771 	 156.051
| 41> *
| 42>
| 43>                          ****END OF INPUT****

CARTESIAN COORDINATES (ANGSTROEM)
---------------------------------
  S    -37.470900   70.833400  154.071000
  C    -37.976700   72.227600  153.188000
  C    -36.952100   73.104300  152.982000
  C    -35.812200   72.711900  153.760000
  C    -35.940800   71.510000  154.435000
  H    -34.996300   73.339400  153.873000
  C    -37.016800   74.416700  152.146000
  H    -38.011700   74.864100  152.431000
  H    -37.100100   74.164900  151.056000
  C    -35.926300   75.413300  152.412000
  H    -36.016000   75.628700  153.458000
  H    -34.961000   75.064600  152.140000
  C    -36.049200   76.822700  151.762000
  H    -36.897000   77.480900  152.054000
  H    -35.253000   77.346400  152.218000
  H    -36.065100   76.952500  150.678000
  S    -34.305300   69.221500  154.798000
  C    -33.030900   69.295100  155.889000
  C    -32.992200   70.469300  156.644000
  C    -34.062300   71.316500  156.250000
  C    -34.886900   70.864800  155.235000
  H    -32.278500   70.568200  157.445000
  C    -34.211700   72.614500  157.022000
  H    -34.147400   72.389900  158.080000
  H    -35.152200   73.088100  156.767000
  C    -33.064700   73.636200  156.913000
  H    -32.849700   73.802400  155.860000
  H    -32.218000   73.169200  157.420000
  C    -33.349300   74.954500  157.630000
  H    -33.717200   74.993400  158.638000
  H    -33.981100   75.561100  157.107000
  H    -32.422600   75.418400  157.750000
  H    -38.919200   72.301200  152.620000
  H    -32.277500   68.577100  156.051000

 Total Charge           Charge          ....    0
 Multiplicity           Mult            ....    1
 Number of Electrons    NEL             ....  134
 Basis Dimension        Dim             ....  322

ORBITAL ENERGIES
----------------

  NO   OCC          E(Eh)            E(eV)
   0   2.0000     -88.966480     -2420.9010
   1   2.0000     -88.964712     -2420.8529
   2   2.0000     -10.329039      -281.0674
   3   2.0000     -10.328842      -281.0621
   4   2.0000     -10.311828      -280.5991
   5   2.0000     -10.310530      -280.5638
   6   2.0000     -10.301667      -280.3226
   7   2.0000     -10.301254      -280.3114
   8   2.0000     -10.300272      -280.2846
   9   2.0000     -10.290214      -280.0110
  10   2.0000     -10.288477      -279.9637
  11   2.0000     -10.287192      -279.9287
  12   2.0000     -10.285335      -279.8782
  13   2.0000     -10.282469      -279.8002
  14   2.0000     -10.280248      -279.7398
  15   2.0000     -10.263634      -279.2877
  16   2.0000      -8.082142      -219.9263
  17   2.0000      -8.080072      -219.8699
  18   2.0000      -6.040566      -164.3722
  19   2.0000      -6.038470      -164.3151
  20   2.0000      -6.036457      -164.2603
  21   2.0000      -6.034358      -164.2032
  22   2.0000      -6.033001      -164.1663
  23   2.0000      -6.031052      -164.1133
  24   2.0000      -1.009828       -27.4788
  25   2.0000      -0.990338       -26.9485
  26   2.0000      -0.913609       -24.8606
  27   2.0000      -0.910788       -24.7838
  28   2.0000      -0.871220       -23.7071
  29   2.0000      -0.855566       -23.2811
  30   2.0000      -0.846684       -23.0395
  31   2.0000      -0.814159       -22.1544
  32   2.0000      -0.787950       -21.4412
  33   2.0000      -0.779484       -21.2108
  34   2.0000      -0.713895       -19.4261
  35   2.0000      -0.698846       -19.0166
  36   2.0000      -0.690239       -18.7824
  37   2.0000      -0.659580       -17.9481
  38   2.0000      -0.639492       -17.4015
  39   2.0000      -0.624759       -17.0006
  40   2.0000      -0.594681       -16.1821
  41   2.0000      -0.577850       -15.7241
  42   2.0000      -0.574959       -15.6454
  43   2.0000      -0.570353       -15.5201
  44   2.0000      -0.531141       -14.4531
  45   2.0000      -0.526325       -14.3220
  46   2.0000      -0.511664       -13.9231
  47   2.0000      -0.509873       -13.8744
  48   2.0000      -0.507064       -13.7979
  49   2.0000      -0.500728       -13.6255
  50   2.0000      -0.489697       -13.3253
  51   2.0000      -0.486434       -13.2365
  52   2.0000      -0.474954       -12.9242
  53   2.0000      -0.471732       -12.8365
  54   2.0000      -0.463802       -12.6207
  55   2.0000      -0.450093       -12.2477
  56   2.0000      -0.444064       -12.0836
  57   2.0000      -0.433495       -11.7960
  58   2.0000      -0.429490       -11.6870
  59   2.0000      -0.425304       -11.5731
  60   2.0000      -0.422668       -11.5014
  61   2.0000      -0.417804       -11.3690
  62   2.0000      -0.415434       -11.3045
  63   2.0000      -0.345737        -9.4080
  64   2.0000      -0.331013        -9.0073
  65   2.0000      -0.328861        -8.9488
  66   2.0000      -0.293441        -7.9849
  67   0.0000       0.036022         0.9802
  68   0.0000       0.068279         1.8580
  69   0.0000       0.120849         3.2885
  70   0.0000       0.128448         3.4952
  71   0.0000       0.130252         3.5443

MULLIKEN ATOMIC CHARGES
-----------------------
   0 S :    0.123766
   1 C :   -0.135441
   2 C :   -0.098546
   3 C :    0.040398
   4 C :   -0.141585
   5 H :   -0.024958
   6 C :    0.059753
   7 H :    0.034613
   8 H :    0.046627
   9 C :   -0.081321
  10 H :    0.032243
  11 H :    0.039221
  12 C :   -0.047245
  13 H :    0.022803
  14 H :    0.021872
  15 H :    0.037474
  16 S :    0.112333
  17 C :   -0.060974
  18 C :   -0.055891
  19 C :   -0.017762
  20 C :   -0.143499
  21 H :    0.020122
  22 C :    0.065954
  23 H :    0.019504
  24 H :    0.020483
  25 C :   -0.093056
  26 H :    0.030837
  27 H :    0.023195
  28 C :    0.016450
  29 H :    0.016122
  30 H :    0.009748
  31 H :    0.013679
  32 H :    0.054884
  33 H :    0.038200
Sum of atomic charges:   -0.0000000

LOEWDIN ATOMIC CHARGES
----------------------
   0 S :    0.435472
   1 C :   -0.210547
   2 C :   -0.065481
   3 C :   -0.057186
   4 C :   -0.208549
   5 H :    0.015070
   6 C :   -0.036395
   7 H :    0.038097
   8 H :    0.035544
   9 C :   -0.039660
  10 H :    0.029634
  11 H :    0.023184
  12 C :   -0.069159
  13 H :    0.027500
  14 H :    0.024479
  15 H :    0.024267
  16 S :    0.418360
  17 C :   -0.190652
  18 C :   -0.077332
  19 C :   -0.051161
  20 C :   -0.194491
  21 H :    0.031602
  22 C :   -0.032439
  23 H :    0.031541
  24 H :    0.023109
  25 C :   -0.031060
  26 H :    0.022236
  27 H :    0.020982
  28 C :   -0.057052
  29 H :    0.026646
  30 H :    0.013010
  31 H :    0.023803
  32 H :    0.034254
  33 H :    0.022373

  Mayer bond orders larger than 0.100000
B(  0-S ,  1-C ) :   1.1524 B(  0-S ,  4-C ) :   1.1676 B(  1-C ,  2-C ) :   1.6199
B(  1-C , 32-H ) :   0.9640 B(  2-C ,  3-C ) :   1.2786 B(  2-C ,  6-C ) :   0.9886
B(  3-C ,  4-C ) :   1.5331 B(  3-C ,  5-H ) :   1.0054 B(  4-C , 20-C ) :   1.0272
B(  6-C ,  7-H ) :   0.9465 B(  6-C ,  8-H ) :   0.9341 B(  6-C ,  9-C ) :   1.0961
B(  9-C , 10-H ) :   0.9508 B(  9-C , 11-H ) :   0.9470 B(  9-C , 12-C ) :   1.0774
B( 12-C , 13-H ) :   0.9732 B( 12-C , 14-H ) :   0.9735 B( 12-C , 15-H ) :   0.9770
B( 16-S , 17-C ) :   1.1948 B( 16-S , 20-C ) :   1.1140 B( 17-C , 18-C ) :   1.5859
B( 17-C , 33-H ) :   0.9663 B( 18-C , 19-C ) :   1.2385 B( 18-C , 21-H ) :   0.9959
B( 19-C , 20-C ) :   1.6045 B( 19-C , 22-C ) :   1.0548 B( 22-C , 23-H ) :   0.9333
B( 22-C , 24-H ) :   0.9420 B( 22-C , 25-C ) :   1.0619 B( 25-C , 26-H ) :   0.9555
B( 25-C , 27-H ) :   0.9564 B( 25-C , 28-C ) :   1.0875 B( 28-C , 29-H ) :   0.9693
B( 28-C , 30-H ) :   0.9737 B( 28-C , 31-H ) :   0.9699

Dispersion correction           -0.013648870
FINAL SINGLE POINT ENERGY     -1339.866697657247

DIPOLE MOMENT
-------------
                                X             Y             Z
Electronic contribution:     -6.97963     -32.42543      -1.62364
Nuclear contribution   :      7.28708      33.14154       1.69216
                        -----------------------------------------
Total Dipole Moment    :      0.30745       0.71612       0.06852
                        -----------------------------------------
Magnitude (a.u.)       :      0.78234
Magnitude (Debye)      :      1.98854

Rotational constants in cm-1:     0.015696     0.009347     0.006544
Rotational constants in MHz :   470.563447   280.228532   196.183763

                             ****ORCA TERMINATED NORMALLY****
TOTAL RUN TIME: 0 days 0 hours 0 minutes 34 seconds 308 msec
