                         Program Version 4.2.1 -  RELEASE  -
|  1> ! wB97X-D3 SP def2-SVP
|  2> %pal
|  3> nprocs 16
|  4> end
|  5>
|  6> * xyz 0 1
|  7> S 	 -66.9109 	 39.1373 	 144.037
|  8> C 	 -68.2948 	 38.0272 	 144.084
|  9> C 	 -67.9072 	 36.776 	 143.716
| 10> C 	 -66.4985 	 36.6753 	 143.576
| 11> C 	 -65.8021 	 37.8381 	 143.723
| 12> H 	 -66.0402 	 35.7209 	 143.246
| 13> C 	 -68.8294 	 35.6905 	 143.207
| 14> H 	 -69.8075 	 35.7417 	 143.669
| 15> H 	 -68.4019 	 34.7205 	 143.454
| 16> C 	 -69.12 	 35.7725 	 141.671
| 17> H 	 -69.2023 	 36.8353 	 141.437
| 18> H 	 -68.1779 	 35.4394 	 141.255
| 19> C 	 -70.2813 	 34.9218 	 141.124
| 20> H 	 -70.2625 	 35.0504 	 140.017
| 21> H 	 -69.9876 	 33.8689 	 141.355
| 22> H 	 -71.2164 	 35.2425 	 141.606
| 23> S 	 -63.3054 	 36.7962 	 144.231
| 24> C 	 -61.9761 	 37.6481 	 143.579
| 25> C 	 -62.292 	 38.7135 	 142.756
| 26> C 	 -63.6759 	 38.8902 	 142.654
| 27> C 	 -64.3839 	 37.9961 	 143.441
| 28> H 	 -61.5214 	 39.2939 	 142.309
| 29> C 	 -64.2504 	 40.1387 	 141.992
| 30> H 	 -65.3632 	 40.021 	 141.928
| 31> H 	 -64.0023 	 40.1193 	 140.981
| 32> C 	 -63.8218 	 41.4657 	 142.555
| 33> H 	 -64.1405 	 42.2589 	 141.905
| 34> H 	 -62.7476 	 41.5109 	 142.675
| 35> C 	 -64.4254 	 41.7646 	 144.006
| 36> H 	 -64.1457 	 42.7931 	 144.215
| 37> H 	 -64.0457 	 41.043 	 144.767
| 38> H 	 -65.4955 	 41.6537 	 144.073
| 39> H 	 -69.3375 	 38.3606 	 144.223
| 40> H 	 -61.0254 	 37.3755 	 143.935
| 41> *
| 42>
| 43>                          ****END OF INPUT****

CARTESIAN COORDINATES (ANGSTROEM)
---------------------------------
  S    -66.910900   39.137300  144.037000
  C    -68.294800   38.027200  144.084000
  C    -67.907200   36.776000  143.716000
  C    -66.498500   36.675300  143.576000
  C    -65.802100   37.838100  143.723000
  H    -66.040200   35.720900  143.246000
  C    -68.829400   35.690500  143.207000
  H    -69.807500   35.741700  143.669000
  H    -68.401900   34.720500  143.454000
  C    -69.120000   35.772500  141.671000
  H    -69.202300   36.835300  141.437000
  H    -68.177900   35.439400  141.255000
  C    -70.281300   34.921800  141.124000
  H    -70.262500   35.050400  140.017000
  H    -69.987600   33.868900  141.355000
  H    -71.216400   35.242500  141.606000
  S    -63.305400   36.796200  144.231000
  C    -61.976100   37.648100  143.579000
  C    -62.292000   38.713500  142.756000
  C    -63.675900   38.890200  142.654000
  C    -64.383900   37.996100  143.441000
  H    -61.521400   39.293900  142.309000
  C    -64.250400   40.138700  141.992000
  H    -65.363200   40.021000  141.928000
  H    -64.002300   40.119300  140.981000
  C    -63.821800   41.465700  142.555000
  H    -64.140500   42.258900  141.905000
  H    -62.747600   41.510900  142.675000
  C    -64.425400   41.764600  144.006000
  H    -64.145700   42.793100  144.215000
  H    -64.045700   41.043000  144.767000
  H    -65.495500   41.653700  144.073000
  H    -69.337500   38.360600  144.223000
  H    -61.025400   37.375500  143.935000

 Total Charge           Charge          ....    0
 Multiplicity           Mult            ....    1
 Number of Electrons    NEL             ....  134
 Basis Dimension        Dim             ....  322

ORBITAL ENERGIES
----------------

  NO   OCC          E(Eh)            E(eV)
   0   2.0000     -88.967016     -2420.9156
   1   2.0000     -88.966792     -2420.9095
   2   2.0000     -10.327853      -281.0352
   3   2.0000     -10.327276      -281.0195
   4   2.0000     -10.313785      -280.6524
   5   2.0000     -10.311714      -280.5960
   6   2.0000     -10.301876      -280.3283
   7   2.0000     -10.296476      -280.1814
   8   2.0000     -10.290324      -280.0139
   9   2.0000     -10.290183      -280.0101
  10   2.0000     -10.289822      -280.0003
  11   2.0000     -10.288926      -279.9759
  12   2.0000     -10.285490      -279.8824
  13   2.0000     -10.284966      -279.8682
  14   2.0000     -10.283995      -279.8417
  15   2.0000     -10.273717      -279.5621
  16   2.0000      -8.082012      -219.9227
  17   2.0000      -8.080744      -219.8882
  18   2.0000      -6.040289      -164.3646
  19   2.0000      -6.039392      -164.3402
  20   2.0000      -6.036615      -164.2646
  21   2.0000      -6.035372      -164.2308
  22   2.0000      -6.032887      -164.1632
  23   2.0000      -6.031386      -164.1224
  24   2.0000      -1.009559       -27.4715
  25   2.0000      -0.988300       -26.8930
  26   2.0000      -0.909997       -24.7623
  27   2.0000      -0.908108       -24.7109
  28   2.0000      -0.869315       -23.6553
  29   2.0000      -0.849912       -23.1273
  30   2.0000      -0.845048       -22.9949
  31   2.0000      -0.809737       -22.0341
  32   2.0000      -0.785464       -21.3736
  33   2.0000      -0.772995       -21.0343
  34   2.0000      -0.707223       -19.2445
  35   2.0000      -0.696639       -18.9565
  36   2.0000      -0.691233       -18.8094
  37   2.0000      -0.666668       -18.1410
  38   2.0000      -0.633837       -17.2476
  39   2.0000      -0.621144       -16.9022
  40   2.0000      -0.604889       -16.4599
  41   2.0000      -0.570622       -15.5274
  42   2.0000      -0.559702       -15.2303
  43   2.0000      -0.551154       -14.9977
  44   2.0000      -0.538964       -14.6660
  45   2.0000      -0.521380       -14.1875
  46   2.0000      -0.517785       -14.0896
  47   2.0000      -0.511450       -13.9173
  48   2.0000      -0.507537       -13.8108
  49   2.0000      -0.496725       -13.5166
  50   2.0000      -0.491503       -13.3745
  51   2.0000      -0.475637       -12.9427
  52   2.0000      -0.468519       -12.7491
  53   2.0000      -0.461551       -12.5594
  54   2.0000      -0.458414       -12.4741
  55   2.0000      -0.452619       -12.3164
  56   2.0000      -0.450616       -12.2619
  57   2.0000      -0.440393       -11.9837
  58   2.0000      -0.427528       -11.6336
  59   2.0000      -0.425308       -11.5732
  60   2.0000      -0.418485       -11.3875
  61   2.0000      -0.416962       -11.3461
  62   2.0000      -0.407179       -11.0799
  63   2.0000      -0.350336        -9.5331
  64   2.0000      -0.337499        -9.1838
  65   2.0000      -0.329056        -8.9541
  66   2.0000      -0.287435        -7.8215
  67   0.0000       0.030816         0.8385
  68   0.0000       0.070882         1.9288
  69   0.0000       0.101851         2.7715
  70   0.0000       0.113543         3.0897
  71   0.0000       0.132208         3.5976

MULLIKEN ATOMIC CHARGES
-----------------------
   0 S :    0.091230
   1 C :   -0.137807
   2 C :   -0.065744
   3 C :   -0.011459
   4 C :   -0.103414
   5 H :    0.020661
   6 C :    0.057775
   7 H :    0.009596
   8 H :    0.020743
   9 C :   -0.089904
  10 H :    0.029599
  11 H :    0.017138
  12 C :   -0.045783
  13 H :    0.051865
  14 H :    0.039767
  15 H :    0.045449
  16 S :    0.110130
  17 C :   -0.073226
  18 C :   -0.029544
  19 C :   -0.022067
  20 C :   -0.174670
  21 H :    0.011135
  22 C :    0.083749
  23 H :    0.024173
  24 H :    0.006395
  25 C :   -0.055513
  26 H :    0.031082
  27 H :    0.027860
  28 C :   -0.076338
  29 H :    0.034455
  30 H :    0.046513
  31 H :    0.029471
  32 H :    0.057775
  33 H :    0.038909
Sum of atomic charges:   -0.0000000

LOEWDIN ATOMIC CHARGES
----------------------
   0 S :    0.415923
   1 C :   -0.193680
   2 C :   -0.066038
   3 C :   -0.074548
   4 C :   -0.195688
   5 H :    0.032786
   6 C :   -0.029787
   7 H :    0.023343
   8 H :    0.025308
   9 C :   -0.042173
  10 H :    0.021357
  11 H :    0.019200
  12 C :   -0.066037
  13 H :    0.036153
  14 H :    0.031478
  15 H :    0.027030
  16 S :    0.411046
  17 C :   -0.178636
  18 C :   -0.066997
  19 C :   -0.053367
  20 C :   -0.179716
  21 H :    0.029427
  22 C :   -0.036935
  23 H :    0.026803
  24 H :    0.023929
  25 C :   -0.031270
  26 H :    0.024417
  27 H :    0.021947
  28 C :   -0.069622
  29 H :    0.024419
  30 H :    0.030266
  31 H :    0.011650
  32 H :    0.033910
  33 H :    0.014103

  Mayer bond orders larger than 0.100000
B(  0-S ,  1-C ) :   1.1233 B(  0-S ,  4-C ) :   1.1427 B(  1-C ,  2-C ) :   1.6150
B(  1-C , 32-H ) :   0.9666 B(  2-C ,  3-C ) :   1.2582 B(  2-C ,  6-C ) :   1.0448
B(  3-C ,  4-C ) :   1.5613 B(  3-C ,  5-H ) :   0.9861 B(  4-C , 20-C ) :   1.0393
B(  6-C ,  7-H ) :   0.9392 B(  6-C ,  8-H ) :   0.9389 B(  6-C ,  9-C ) :   1.0465
B(  9-C , 10-H ) :   0.9592 B(  9-C , 11-H ) :   0.9552 B(  9-C , 12-C ) :   1.0778
B( 12-C , 13-H ) :   0.9729 B( 12-C , 14-H ) :   0.9744 B( 12-C , 15-H ) :   0.9751
B( 16-S , 17-C ) :   1.1742 B( 16-S , 20-C ) :   1.1423 B( 17-C , 18-C ) :   1.5892
B( 17-C , 20-C ) :   0.1010 B( 17-C , 33-H ) :   0.9731 B( 18-C , 19-C ) :   1.2292
B( 18-C , 21-H ) :   1.0015 B( 19-C , 20-C ) :   1.5879 B( 19-C , 22-C ) :   1.0461
B( 22-C , 23-H ) :   0.9310 B( 22-C , 24-H ) :   0.9160 B( 22-C , 25-C ) :   1.0816
B( 25-C , 26-H ) :   0.9532 B( 25-C , 27-H ) :   0.9542 B( 25-C , 28-C ) :   1.0664
B( 28-C , 29-H ) :   0.9761 B( 28-C , 30-H ) :   0.9782 B( 28-C , 31-H ) :   0.9748

Dispersion correction           -0.014972964
FINAL SINGLE POINT ENERGY     -1339.887602684037

DIPOLE MOMENT
-------------
                                X             Y             Z
Electronic contribution:     11.83314      -2.53550      10.62512
Nuclear contribution   :    -11.88966       2.54266     -11.06957
                        -----------------------------------------
Total Dipole Moment    :     -0.05652       0.00716      -0.44445
                        -----------------------------------------
Magnitude (a.u.)       :      0.44809
Magnitude (Debye)      :      1.13895

Rotational constants in cm-1:     0.021919     0.008003     0.006847
Rotational constants in MHz :   657.126423   239.913040   205.264877

                             ****ORCA TERMINATED NORMALLY****
TOTAL RUN TIME: 0 days 0 hours 0 minutes 33 seconds 578 msec
