                         Program Version 4.2.1 -  RELEASE  -
|  1> ! wB97X-D3 SP def2-SVP
|  2> %pal
|  3> nprocs 16
|  4> end
|  5>
|  6> * xyz 0 1
|  7> S 	 7.46212 	 20.1519 	 40.9313
|  8> C 	 8.72672 	 18.9984 	 41.1134
|  9> C 	 9.76452 	 19.5256 	 41.8562
| 10> C 	 9.56868 	 20.9276 	 42.1311
| 11> C 	 8.45569 	 21.3943 	 41.5628
| 12> H 	 10.1771 	 21.5821 	 42.7852
| 13> C 	 10.8758 	 18.7605 	 42.3767
| 14> H 	 10.6249 	 17.7678 	 41.9692
| 15> H 	 10.9001 	 18.8349 	 43.4664
| 16> C 	 12.2416 	 19.2573 	 41.8493
| 17> H 	 12.4372 	 20.2946 	 42.1248
| 18> H 	 13.0557 	 18.7262 	 42.3722
| 19> C 	 12.3908 	 18.9521 	 40.3783
| 20> H 	 11.7827 	 19.6512 	 39.7648
| 21> H 	 13.4309 	 19.0669 	 40.1231
| 22> H 	 12.2078 	 17.8729 	 40.0786
| 23> S 	 6.35519 	 23.1818 	 41.7653
| 24> C 	 6.64522 	 24.8722 	 41.4138
| 25> C 	 7.97643 	 25.1305 	 41.2857
| 26> C 	 8.74345 	 23.9252 	 41.107
| 27> C 	 8.02656 	 22.7901 	 41.4167
| 28> H 	 8.24177 	 26.177 	 41.112
| 29> C 	 10.2192 	 24.0316 	 40.7631
| 30> H 	 10.7698 	 23.7671 	 41.5883
| 31> H 	 10.415 	 25.1102 	 40.5237
| 32> C 	 10.6792 	 23.2537 	 39.5522
| 33> H 	 9.89433 	 23.4081 	 38.7738
| 34> H 	 10.6448 	 22.2618 	 39.9016
| 35> C 	 12.0995 	 23.7711 	 39.0858
| 36> H 	 12.396 	 23.2473 	 38.1367
| 37> H 	 12.9209 	 23.6671 	 39.8188
| 38> H 	 12.1929 	 24.8198 	 38.8423
| 39> H 	 8.67743 	 17.9957 	 40.6995
| 40> H 	 5.89297 	 25.7006 	 41.4682
| 41> *
| 42>
| 43>                          ****END OF INPUT****

CARTESIAN COORDINATES (ANGSTROEM)
---------------------------------
  S      7.462120   20.151900   40.931300
  C      8.726720   18.998400   41.113400
  C      9.764520   19.525600   41.856200
  C      9.568680   20.927600   42.131100
  C      8.455690   21.394300   41.562800
  H     10.177100   21.582100   42.785200
  C     10.875800   18.760500   42.376700
  H     10.624900   17.767800   41.969200
  H     10.900100   18.834900   43.466400
  C     12.241600   19.257300   41.849300
  H     12.437200   20.294600   42.124800
  H     13.055700   18.726200   42.372200
  C     12.390800   18.952100   40.378300
  H     11.782700   19.651200   39.764800
  H     13.430900   19.066900   40.123100
  H     12.207800   17.872900   40.078600
  S      6.355190   23.181800   41.765300
  C      6.645220   24.872200   41.413800
  C      7.976430   25.130500   41.285700
  C      8.743450   23.925200   41.107000
  C      8.026560   22.790100   41.416700
  H      8.241770   26.177000   41.112000
  C     10.219200   24.031600   40.763100
  H     10.769800   23.767100   41.588300
  H     10.415000   25.110200   40.523700
  C     10.679200   23.253700   39.552200
  H      9.894330   23.408100   38.773800
  H     10.644800   22.261800   39.901600
  C     12.099500   23.771100   39.085800
  H     12.396000   23.247300   38.136700
  H     12.920900   23.667100   39.818800
  H     12.192900   24.819800   38.842300
  H      8.677430   17.995700   40.699500
  H      5.892970   25.700600   41.468200

 Total Charge           Charge          ....    0
 Multiplicity           Mult            ....    1
 Number of Electrons    NEL             ....  134
 Basis Dimension        Dim             ....  322

ORBITAL ENERGIES
----------------

  NO   OCC          E(Eh)            E(eV)
   0   2.0000     -88.963239     -2420.8128
   1   2.0000     -88.961722     -2420.7715
   2   2.0000     -10.324641      -280.9478
   3   2.0000     -10.322766      -280.8968
   4   2.0000     -10.317680      -280.7583
   5   2.0000     -10.311285      -280.5843
   6   2.0000     -10.302049      -280.3330
   7   2.0000     -10.296522      -280.1826
   8   2.0000     -10.292352      -280.0691
   9   2.0000     -10.291638      -280.0497
  10   2.0000     -10.287924      -279.9486
  11   2.0000     -10.287632      -279.9407
  12   2.0000     -10.284477      -279.8549
  13   2.0000     -10.283695      -279.8336
  14   2.0000     -10.281963      -279.7864
  15   2.0000     -10.279622      -279.7227
  16   2.0000      -8.078239      -219.8201
  17   2.0000      -8.078209      -219.8192
  18   2.0000      -6.036806      -164.2698
  19   2.0000      -6.036656      -164.2658
  20   2.0000      -6.032758      -164.1597
  21   2.0000      -6.032618      -164.1559
  22   2.0000      -6.028842      -164.0531
  23   2.0000      -6.028818      -164.0525
  24   2.0000      -1.016343       -27.6561
  25   2.0000      -0.990269       -26.9466
  26   2.0000      -0.921432       -25.0734
  27   2.0000      -0.909300       -24.7433
  28   2.0000      -0.871027       -23.7018
  29   2.0000      -0.851677       -23.1753
  30   2.0000      -0.842564       -22.9273
  31   2.0000      -0.820736       -22.3333
  32   2.0000      -0.780855       -21.2481
  33   2.0000      -0.770765       -20.9736
  34   2.0000      -0.713775       -19.4228
  35   2.0000      -0.701215       -19.0810
  36   2.0000      -0.686897       -18.6914
  37   2.0000      -0.657572       -17.8935
  38   2.0000      -0.641047       -17.4438
  39   2.0000      -0.623683       -16.9713
  40   2.0000      -0.592744       -16.1294
  41   2.0000      -0.570126       -15.5139
  42   2.0000      -0.568193       -15.4613
  43   2.0000      -0.553336       -15.0570
  44   2.0000      -0.544928       -14.8282
  45   2.0000      -0.523520       -14.2457
  46   2.0000      -0.516286       -14.0489
  47   2.0000      -0.509558       -13.8658
  48   2.0000      -0.501847       -13.6560
  49   2.0000      -0.499878       -13.6024
  50   2.0000      -0.491231       -13.3671
  51   2.0000      -0.482129       -13.1194
  52   2.0000      -0.469985       -12.7889
  53   2.0000      -0.465625       -12.6703
  54   2.0000      -0.458883       -12.4869
  55   2.0000      -0.448849       -12.2138
  56   2.0000      -0.445888       -12.1332
  57   2.0000      -0.436122       -11.8675
  58   2.0000      -0.432484       -11.7685
  59   2.0000      -0.427453       -11.6316
  60   2.0000      -0.416802       -11.3418
  61   2.0000      -0.414306       -11.2738
  62   2.0000      -0.413364       -11.2482
  63   2.0000      -0.351455        -9.5636
  64   2.0000      -0.331446        -9.0191
  65   2.0000      -0.326525        -8.8852
  66   2.0000      -0.291634        -7.9358
  67   0.0000       0.031109         0.8465
  68   0.0000       0.076241         2.0746
  69   0.0000       0.100544         2.7359
  70   0.0000       0.123650         3.3647
  71   0.0000       0.129266         3.5175

MULLIKEN ATOMIC CHARGES
-----------------------
   0 S :    0.115594
   1 C :   -0.127463
   2 C :   -0.103223
   3 C :   -0.004507
   4 C :   -0.136271
   5 H :    0.028638
   6 C :    0.088934
   7 H :    0.013073
   8 H :    0.040609
   9 C :   -0.076548
  10 H :    0.026935
  11 H :    0.024440
  12 C :   -0.069539
  13 H :    0.056044
  14 H :    0.024959
  15 H :    0.034969
  16 S :    0.095085
  17 C :   -0.105780
  18 C :   -0.037766
  19 C :   -0.065827
  20 C :   -0.121018
  21 H :    0.027944
  22 C :    0.075941
  23 H :    0.010869
  24 H :    0.012578
  25 C :   -0.057947
  26 H :    0.041904
  27 H :    0.034223
  28 C :   -0.064134
  29 H :    0.041795
  30 H :    0.028895
  31 H :    0.024925
  32 H :    0.051068
  33 H :    0.070597
Sum of atomic charges:    0.0000000

LOEWDIN ATOMIC CHARGES
----------------------
   0 S :    0.424295
   1 C :   -0.206710
   2 C :   -0.064215
   3 C :   -0.071663
   4 C :   -0.198158
   5 H :    0.038915
   6 C :   -0.033389
   7 H :    0.033194
   8 H :    0.036730
   9 C :   -0.043530
  10 H :    0.022758
  11 H :    0.024326
  12 C :   -0.071185
  13 H :    0.029629
  14 H :    0.023347
  15 H :    0.031770
  16 S :    0.392696
  17 C :   -0.187648
  18 C :   -0.075104
  19 C :   -0.056182
  20 C :   -0.197821
  21 H :    0.035737
  22 C :   -0.027595
  23 H :    0.014613
  24 H :    0.030815
  25 C :   -0.033023
  26 H :    0.032770
  27 H :    0.018136
  28 C :   -0.073614
  29 H :    0.032002
  30 H :    0.026352
  31 H :    0.022367
  32 H :    0.029460
  33 H :    0.039926

  Mayer bond orders larger than 0.100000
B(  0-S ,  1-C ) :   1.1325 B(  0-S ,  4-C ) :   1.1627 B(  1-C ,  2-C ) :   1.6139
B(  1-C , 32-H ) :   0.9677 B(  2-C ,  3-C ) :   1.1915 B(  2-C ,  6-C ) :   1.0406
B(  3-C ,  4-C ) :   1.6039 B(  3-C ,  5-H ) :   0.9967 B(  4-C , 20-C ) :   1.0122
B(  6-C ,  7-H ) :   0.9387 B(  6-C ,  8-H ) :   0.9311 B(  6-C ,  9-C ) :   1.0748
B(  9-C , 10-H ) :   0.9529 B(  9-C , 11-H ) :   0.9556 B(  9-C , 12-C ) :   1.0735
B( 12-C , 13-H ) :   0.9728 B( 12-C , 14-H ) :   0.9716 B( 12-C , 15-H ) :   0.9723
B( 16-S , 17-C ) :   1.1425 B( 16-S , 20-C ) :   1.1292 B( 17-C , 18-C ) :   1.6518
B( 17-C , 33-H ) :   0.9578 B( 18-C , 19-C ) :   1.2223 B( 18-C , 21-H ) :   0.9814
B( 19-C , 20-C ) :   1.6205 B( 19-C , 22-C ) :   1.0387 B( 22-C , 23-H ) :   0.9310
B( 22-C , 24-H ) :   0.9379 B( 22-C , 25-C ) :   1.0573 B( 25-C , 26-H ) :   0.9577
B( 25-C , 27-H ) :   0.9532 B( 25-C , 28-C ) :   1.0752 B( 28-C , 29-H ) :   0.9768
B( 28-C , 30-H ) :   0.9747 B( 28-C , 31-H ) :   0.9753

Dispersion correction           -0.015590542
FINAL SINGLE POINT ENERGY     -1339.874165359774

DIPOLE MOMENT
-------------
                                X             Y             Z
Electronic contribution:    -30.20811       1.99430       6.98407
Nuclear contribution   :     30.89866      -1.86492      -6.92247
                        -----------------------------------------
Total Dipole Moment    :      0.69055       0.12938       0.06160
                        -----------------------------------------
Magnitude (a.u.)       :      0.70526
Magnitude (Debye)      :      1.79262

Rotational constants in cm-1:     0.018894     0.010411     0.007424
Rotational constants in MHz :   566.415139   312.116406   222.561186

                             ****ORCA TERMINATED NORMALLY****
TOTAL RUN TIME: 0 days 0 hours 0 minutes 37 seconds 303 msec
