                         Program Version 4.2.1 -  RELEASE  -
|  1> ! wB97X-D3 SP def2-SVP
|  2> %pal
|  3> nprocs 16
|  4> end
|  5>
|  6> * xyz 0 1
|  7> S 	 -116.051 	 47.8697 	 133.363
|  8> C 	 -114.981 	 48.8816 	 132.403
|  9> C 	 -115.594 	 49.8514 	 131.653
| 10> C 	 -116.985 	 49.8383 	 131.999
| 11> C 	 -117.364 	 48.8334 	 132.838
| 12> H 	 -117.753 	 50.5501 	 131.71
| 13> C 	 -114.954 	 50.6719 	 130.542
| 14> H 	 -115.037 	 50.3149 	 129.509
| 15> H 	 -113.849 	 50.5793 	 130.654
| 16> C 	 -115.188 	 52.2344 	 130.618
| 17> H 	 -116.209 	 52.4371 	 130.907
| 18> H 	 -114.556 	 52.5549 	 131.415
| 19> C 	 -114.794 	 52.9602 	 129.314
| 20> H 	 -115.397 	 52.7227 	 128.469
| 21> H 	 -115.068 	 54.0124 	 129.45
| 22> H 	 -113.736 	 52.8025 	 129.075
| 23> S 	 -119.871 	 47.8623 	 132.144
| 24> C 	 -121.023 	 47.607 	 133.379
| 25> C 	 -120.503 	 47.832 	 134.641
| 26> C 	 -119.222 	 48.352 	 134.621
| 27> C 	 -118.671 	 48.4786 	 133.312
| 28> H 	 -121.109 	 47.6192 	 135.529
| 29> C 	 -118.548 	 48.6687 	 135.932
| 30> H 	 -117.464 	 48.5144 	 135.82
| 31> H 	 -118.774 	 47.9378 	 136.666
| 32> C 	 -118.88 	 50.0315 	 136.48
| 33> H 	 -119.936 	 50.1212 	 136.785
| 34> H 	 -118.643 	 50.7564 	 135.702
| 35> C 	 -118.05 	 50.3606 	 137.671
| 36> H 	 -117.034 	 50.2346 	 137.338
| 37> H 	 -118.161 	 49.6743 	 138.547
| 38> H 	 -118.12 	 51.4608 	 137.804
| 39> H 	 -113.926 	 48.8866 	 132.306
| 40> H 	 -121.991 	 47.1012 	 133.224
| 41> *
| 42>
| 43>                          ****END OF INPUT****

CARTESIAN COORDINATES (ANGSTROEM)
---------------------------------
  S    -116.051000   47.869700  133.363000
  C    -114.981000   48.881600  132.403000
  C    -115.594000   49.851400  131.653000
  C    -116.985000   49.838300  131.999000
  C    -117.364000   48.833400  132.838000
  H    -117.753000   50.550100  131.710000
  C    -114.954000   50.671900  130.542000
  H    -115.037000   50.314900  129.509000
  H    -113.849000   50.579300  130.654000
  C    -115.188000   52.234400  130.618000
  H    -116.209000   52.437100  130.907000
  H    -114.556000   52.554900  131.415000
  C    -114.794000   52.960200  129.314000
  H    -115.397000   52.722700  128.469000
  H    -115.068000   54.012400  129.450000
  H    -113.736000   52.802500  129.075000
  S    -119.871000   47.862300  132.144000
  C    -121.023000   47.607000  133.379000
  C    -120.503000   47.832000  134.641000
  C    -119.222000   48.352000  134.621000
  C    -118.671000   48.478600  133.312000
  H    -121.109000   47.619200  135.529000
  C    -118.548000   48.668700  135.932000
  H    -117.464000   48.514400  135.820000
  H    -118.774000   47.937800  136.666000
  C    -118.880000   50.031500  136.480000
  H    -119.936000   50.121200  136.785000
  H    -118.643000   50.756400  135.702000
  C    -118.050000   50.360600  137.671000
  H    -117.034000   50.234600  137.338000
  H    -118.161000   49.674300  138.547000
  H    -118.120000   51.460800  137.804000
  H    -113.926000   48.886600  132.306000
  H    -121.991000   47.101200  133.224000

 Total Charge           Charge          ....    0
 Multiplicity           Mult            ....    1
 Number of Electrons    NEL             ....  134
 Basis Dimension        Dim             ....  322

ORBITAL ENERGIES
----------------

  NO   OCC          E(Eh)            E(eV)
   0   2.0000     -88.969159     -2420.9739
   1   2.0000     -88.966365     -2420.8979
   2   2.0000     -10.326246      -280.9914
   3   2.0000     -10.320386      -280.8320
   4   2.0000     -10.314989      -280.6851
   5   2.0000     -10.309639      -280.5395
   6   2.0000     -10.301686      -280.3231
   7   2.0000     -10.300579      -280.2930
   8   2.0000     -10.299033      -280.2509
   9   2.0000     -10.290598      -280.0214
  10   2.0000     -10.287766      -279.9444
  11   2.0000     -10.287446      -279.9356
  12   2.0000     -10.281248      -279.7670
  13   2.0000     -10.279729      -279.7256
  14   2.0000     -10.277768      -279.6723
  15   2.0000     -10.273698      -279.5615
  16   2.0000      -8.084070      -219.9787
  17   2.0000      -8.081128      -219.8987
  18   2.0000      -6.042592      -164.4273
  19   2.0000      -6.039427      -164.3412
  20   2.0000      -6.038612      -164.3190
  21   2.0000      -6.035505      -164.2344
  22   2.0000      -6.034731      -164.2134
  23   2.0000      -6.032241      -164.1456
  24   2.0000      -1.010716       -27.5030
  25   2.0000      -0.987329       -26.8666
  26   2.0000      -0.917198       -24.9582
  27   2.0000      -0.908564       -24.7233
  28   2.0000      -0.871419       -23.7125
  29   2.0000      -0.856835       -23.3157
  30   2.0000      -0.846872       -23.0446
  31   2.0000      -0.812287       -22.1035
  32   2.0000      -0.785409       -21.3721
  33   2.0000      -0.770252       -20.9596
  34   2.0000      -0.709746       -19.3132
  35   2.0000      -0.696408       -18.9502
  36   2.0000      -0.688466       -18.7341
  37   2.0000      -0.661939       -18.0123
  38   2.0000      -0.639396       -17.3989
  39   2.0000      -0.619971       -16.8703
  40   2.0000      -0.600236       -16.3333
  41   2.0000      -0.573169       -15.5967
  42   2.0000      -0.567000       -15.4289
  43   2.0000      -0.560416       -15.2497
  44   2.0000      -0.530466       -14.4347
  45   2.0000      -0.522658       -14.2223
  46   2.0000      -0.517713       -14.0877
  47   2.0000      -0.510173       -13.8825
  48   2.0000      -0.504338       -13.7237
  49   2.0000      -0.494551       -13.4574
  50   2.0000      -0.488573       -13.2947
  51   2.0000      -0.478345       -13.0164
  52   2.0000      -0.474253       -12.9051
  53   2.0000      -0.462754       -12.5922
  54   2.0000      -0.460292       -12.5252
  55   2.0000      -0.453520       -12.3409
  56   2.0000      -0.443011       -12.0549
  57   2.0000      -0.439014       -11.9462
  58   2.0000      -0.430343       -11.7102
  59   2.0000      -0.425764       -11.5856
  60   2.0000      -0.418906       -11.3990
  61   2.0000      -0.417571       -11.3627
  62   2.0000      -0.413981       -11.2650
  63   2.0000      -0.336183        -9.1480
  64   2.0000      -0.333882        -9.0854
  65   2.0000      -0.330156        -8.9840
  66   2.0000      -0.296713        -8.0740
  67   0.0000       0.034931         0.9505
  68   0.0000       0.065603         1.7851
  69   0.0000       0.109677         2.9845
  70   0.0000       0.119071         3.2401
  71   0.0000       0.125366         3.4114

MULLIKEN ATOMIC CHARGES
-----------------------
   0 S :    0.138295
   1 C :   -0.087074
   2 C :   -0.067513
   3 C :    0.026358
   4 C :   -0.176061
   5 H :    0.008883
   6 C :    0.040066
   7 H :    0.046572
   8 H :    0.009174
   9 C :   -0.085749
  10 H :    0.031477
  11 H :    0.029058
  12 C :   -0.042764
  13 H :    0.025831
  14 H :    0.033684
  15 H :    0.040571
  16 S :    0.125158
  17 C :   -0.100506
  18 C :   -0.052802
  19 C :   -0.003089
  20 C :   -0.182070
  21 H :    0.023961
  22 C :    0.070706
  23 H :    0.006558
  24 H :    0.005292
  25 C :   -0.065282
  26 H :    0.029879
  27 H :    0.028192
  28 C :   -0.028910
  29 H :    0.010972
  30 H :    0.040033
  31 H :    0.037736
  32 H :    0.016560
  33 H :    0.066800
Sum of atomic charges:    0.0000000

LOEWDIN ATOMIC CHARGES
----------------------
   0 S :    0.429633
   1 C :   -0.186565
   2 C :   -0.062945
   3 C :   -0.060318
   4 C :   -0.213752
   5 H :    0.030950
   6 C :   -0.036916
   7 H :    0.033518
   8 H :    0.031004
   9 C :   -0.033749
  10 H :    0.019163
  11 H :    0.022634
  12 C :   -0.065753
  13 H :    0.021175
  14 H :    0.031808
  15 H :    0.027962
  16 S :    0.423600
  17 C :   -0.201920
  18 C :   -0.078395
  19 C :   -0.050290
  20 C :   -0.206460
  21 H :    0.035857
  22 C :   -0.035919
  23 H :    0.021803
  24 H :    0.024307
  25 C :   -0.040942
  26 H :    0.024228
  27 H :    0.028027
  28 C :   -0.070269
  29 H :    0.020894
  30 H :    0.029488
  31 H :    0.033556
  32 H :    0.019373
  33 H :    0.035210

  Mayer bond orders larger than 0.100000
B(  0-S ,  1-C ) :   1.1334 B(  0-S ,  4-C ) :   1.1388 B(  1-C ,  2-C ) :   1.6578
B(  1-C , 32-H ) :   0.9586 B(  2-C ,  3-C ) :   1.1999 B(  2-C ,  6-C ) :   1.0201
B(  3-C ,  4-C ) :   1.6203 B(  3-C ,  5-H ) :   0.9942 B(  4-C , 20-C ) :   1.0458
B(  6-C ,  7-H ) :   0.9518 B(  6-C ,  8-H ) :   0.9357 B(  6-C ,  9-C ) :   1.0362
B(  9-C , 10-H ) :   0.9668 B(  9-C , 11-H ) :   0.9584 B(  9-C , 12-C ) :   1.0842
B( 12-C , 13-H ) :   0.9752 B( 12-C , 14-H ) :   0.9716 B( 12-C , 15-H ) :   0.9751
B( 16-S , 17-C ) :   1.1888 B( 16-S , 20-C ) :   1.1532 B( 17-C , 18-C ) :   1.5595
B( 17-C , 20-C ) :   0.1125 B( 17-C , 33-H ) :   0.9601 B( 18-C , 19-C ) :   1.2973
B( 18-C , 21-H ) :   0.9895 B( 19-C , 20-C ) :   1.5234 B( 19-C , 22-C ) :   1.0485
B( 22-C , 23-H ) :   0.9237 B( 22-C , 24-H ) :   0.9269 B( 22-C , 25-C ) :   1.0770
B( 25-C , 26-H ) :   0.9501 B( 25-C , 27-H ) :   0.9505 B( 25-C , 28-C ) :   1.0950
B( 28-C , 29-H ) :   0.9695 B( 28-C , 30-H ) :   0.9708 B( 28-C , 31-H ) :   0.9705

Dispersion correction           -0.013607134
FINAL SINGLE POINT ENERGY     -1339.875691582027

DIPOLE MOMENT
-------------
                                X             Y             Z
Electronic contribution:     -8.89901     -20.59388      -4.28832
Nuclear contribution   :      8.98683      20.88443       4.34429
                        -----------------------------------------
Total Dipole Moment    :      0.08782       0.29055       0.05597
                        -----------------------------------------
Magnitude (a.u.)       :      0.30865
Magnitude (Debye)      :      0.78452

Rotational constants in cm-1:     0.018590     0.007608     0.006666
Rotational constants in MHz :   557.322170   228.071237   199.837083

                             ****ORCA TERMINATED NORMALLY****
TOTAL RUN TIME: 0 days 0 hours 0 minutes 32 seconds 576 msec
