                         Program Version 4.2.1 -  RELEASE  -
|  1> ! wB97X-D3 SP def2-SVP
|  2> %pal
|  3> nprocs 16
|  4> end
|  5>
|  6> * xyz 0 1
|  7> S 	 -40.0941 	 30.8127 	 75.5342
|  8> C 	 -39.6575 	 31.8982 	 74.2478
|  9> C 	 -40.1709 	 33.1507 	 74.5442
| 10> C 	 -40.4277 	 33.3377 	 75.9735
| 11> C 	 -40.3961 	 32.1313 	 76.5992
| 12> H 	 -40.764 	 34.2375 	 76.4191
| 13> C 	 -40.3419 	 34.3749 	 73.6538
| 14> H 	 -41.1588 	 35.0194 	 74.0685
| 15> H 	 -40.8321 	 34.253 	 72.6448
| 16> C 	 -39.1026 	 35.2182 	 73.4572
| 17> H 	 -39.3207 	 36.171 	 72.9243
| 18> H 	 -38.8529 	 35.5573 	 74.4924
| 19> C 	 -37.9643 	 34.486 	 72.7268
| 20> H 	 -38.3934 	 34.1582 	 71.8247
| 21> H 	 -37.1452 	 35.061 	 72.4683
| 22> H 	 -37.6324 	 33.5603 	 73.1541
| 23> S 	 -39.5964 	 32.7667 	 79.1298
| 24> C 	 -40.0555 	 31.7656 	 80.4596
| 25> C 	 -41.0069 	 30.8798 	 80.1134
| 26> C 	 -41.4484 	 30.9659 	 78.7166
| 27> C 	 -40.6727 	 31.9044 	 78.0048
| 28> H 	 -41.4543 	 30.2491 	 80.8035
| 29> C 	 -42.5059 	 30.0585 	 78.09
| 30> H 	 -42.5166 	 30.1781 	 77.0301
| 31> H 	 -43.4722 	 30.361 	 78.4662
| 32> C 	 -42.2329 	 28.5471 	 78.3509
| 33> H 	 -42.3589 	 28.3501 	 79.4078
| 34> H 	 -41.1829 	 28.3998 	 78.177
| 35> C 	 -43.1071 	 27.5124 	 77.6131
| 36> H 	 -43.3496 	 27.7028 	 76.56
| 37> H 	 -44.1076 	 27.3605 	 78.1165
| 38> H 	 -42.7788 	 26.5016 	 77.7658
| 39> H 	 -39.669 	 31.6436 	 73.2459
| 40> H 	 -39.7536 	 31.8301 	 81.4837
| 41> *
| 42>
| 43>                          ****END OF INPUT****

CARTESIAN COORDINATES (ANGSTROEM)
---------------------------------
  S    -40.094100   30.812700   75.534200
  C    -39.657500   31.898200   74.247800
  C    -40.170900   33.150700   74.544200
  C    -40.427700   33.337700   75.973500
  C    -40.396100   32.131300   76.599200
  H    -40.764000   34.237500   76.419100
  C    -40.341900   34.374900   73.653800
  H    -41.158800   35.019400   74.068500
  H    -40.832100   34.253000   72.644800
  C    -39.102600   35.218200   73.457200
  H    -39.320700   36.171000   72.924300
  H    -38.852900   35.557300   74.492400
  C    -37.964300   34.486000   72.726800
  H    -38.393400   34.158200   71.824700
  H    -37.145200   35.061000   72.468300
  H    -37.632400   33.560300   73.154100
  S    -39.596400   32.766700   79.129800
  C    -40.055500   31.765600   80.459600
  C    -41.006900   30.879800   80.113400
  C    -41.448400   30.965900   78.716600
  C    -40.672700   31.904400   78.004800
  H    -41.454300   30.249100   80.803500
  C    -42.505900   30.058500   78.090000
  H    -42.516600   30.178100   77.030100
  H    -43.472200   30.361000   78.466200
  C    -42.232900   28.547100   78.350900
  H    -42.358900   28.350100   79.407800
  H    -41.182900   28.399800   78.177000
  C    -43.107100   27.512400   77.613100
  H    -43.349600   27.702800   76.560000
  H    -44.107600   27.360500   78.116500
  H    -42.778800   26.501600   77.765800
  H    -39.669000   31.643600   73.245900
  H    -39.753600   31.830100   81.483700

 Total Charge           Charge          ....    0
 Multiplicity           Mult            ....    1
 Number of Electrons    NEL             ....  134
 Basis Dimension        Dim             ....  322

ORBITAL ENERGIES
----------------

  NO   OCC          E(Eh)            E(eV)
   0   2.0000     -88.967552     -2420.9302
   1   2.0000     -88.963104     -2420.8091
   2   2.0000     -10.328612      -281.0558
   3   2.0000     -10.328379      -281.0495
   4   2.0000     -10.311859      -280.6000
   5   2.0000     -10.309995      -280.5492
   6   2.0000     -10.308910      -280.5197
   7   2.0000     -10.306722      -280.4602
   8   2.0000     -10.297353      -280.2052
   9   2.0000     -10.292228      -280.0658
  10   2.0000     -10.290966      -280.0314
  11   2.0000     -10.289712      -279.9973
  12   2.0000     -10.288127      -279.9542
  13   2.0000     -10.285962      -279.8953
  14   2.0000     -10.281258      -279.7673
  15   2.0000     -10.262513      -279.2572
  16   2.0000      -8.082763      -219.9432
  17   2.0000      -8.077895      -219.8107
  18   2.0000      -6.041403      -164.3949
  19   2.0000      -6.037395      -164.2859
  20   2.0000      -6.036584      -164.2638
  21   2.0000      -6.033141      -164.1701
  22   2.0000      -6.032303      -164.1473
  23   2.0000      -6.028536      -164.0448
  24   2.0000      -1.011199       -27.5161
  25   2.0000      -0.985537       -26.8178
  26   2.0000      -0.912838       -24.8396
  27   2.0000      -0.904831       -24.6217
  28   2.0000      -0.874553       -23.7978
  29   2.0000      -0.850169       -23.1343
  30   2.0000      -0.843168       -22.9438
  31   2.0000      -0.817545       -22.2465
  32   2.0000      -0.789130       -21.4733
  33   2.0000      -0.776416       -21.1273
  34   2.0000      -0.709123       -19.2962
  35   2.0000      -0.701639       -19.0926
  36   2.0000      -0.697283       -18.9740
  37   2.0000      -0.660683       -17.9781
  38   2.0000      -0.642882       -17.4937
  39   2.0000      -0.619689       -16.8626
  40   2.0000      -0.598901       -16.2969
  41   2.0000      -0.574102       -15.6221
  42   2.0000      -0.564480       -15.3603
  43   2.0000      -0.551771       -15.0144
  44   2.0000      -0.541808       -14.7433
  45   2.0000      -0.524798       -14.2805
  46   2.0000      -0.520604       -14.1664
  47   2.0000      -0.509788       -13.8720
  48   2.0000      -0.500387       -13.6162
  49   2.0000      -0.493240       -13.4217
  50   2.0000      -0.491906       -13.3855
  51   2.0000      -0.481271       -13.0960
  52   2.0000      -0.471113       -12.8196
  53   2.0000      -0.470038       -12.7904
  54   2.0000      -0.458923       -12.4879
  55   2.0000      -0.453812       -12.3488
  56   2.0000      -0.450065       -12.2469
  57   2.0000      -0.440166       -11.9775
  58   2.0000      -0.427740       -11.6394
  59   2.0000      -0.421995       -11.4831
  60   2.0000      -0.418163       -11.3788
  61   2.0000      -0.414805       -11.2874
  62   2.0000      -0.406594       -11.0640
  63   2.0000      -0.350681        -9.5425
  64   2.0000      -0.329184        -8.9576
  65   2.0000      -0.327338        -8.9073
  66   2.0000      -0.297141        -8.0856
  67   0.0000       0.029138         0.7929
  68   0.0000       0.067197         1.8285
  69   0.0000       0.091318         2.4849
  70   0.0000       0.123454         3.3593
  71   0.0000       0.132541         3.6066

MULLIKEN ATOMIC CHARGES
-----------------------
   0 S :    0.114708
   1 C :   -0.049756
   2 C :   -0.110593
   3 C :    0.018679
   4 C :   -0.107772
   5 H :    0.007828
   6 C :   -0.007906
   7 H :    0.027487
   8 H :    0.029177
   9 C :   -0.070211
  10 H :    0.033384
  11 H :    0.023376
  12 C :    0.013423
  13 H :   -0.004980
  14 H :    0.020404
  15 H :    0.030486
  16 S :    0.102946
  17 C :   -0.059587
  18 C :   -0.015439
  19 C :   -0.066839
  20 C :   -0.163143
  21 H :   -0.008419
  22 C :    0.111292
  23 H :    0.008426
  24 H :    0.031004
  25 C :   -0.090681
  26 H :    0.024525
  27 H :    0.032699
  28 C :   -0.047327
  29 H :    0.041265
  30 H :    0.021054
  31 H :    0.026858
  32 H :    0.034727
  33 H :    0.048903
Sum of atomic charges:    0.0000000

LOEWDIN ATOMIC CHARGES
----------------------
   0 S :    0.427905
   1 C :   -0.207528
   2 C :   -0.039671
   3 C :   -0.059152
   4 C :   -0.194424
   5 H :    0.027984
   6 C :   -0.050714
   7 H :    0.036110
   8 H :    0.030514
   9 C :   -0.040443
  10 H :    0.028382
  11 H :    0.022330
  12 C :   -0.057983
  13 H :    0.018934
  14 H :    0.018262
  15 H :    0.025489
  16 S :    0.402735
  17 C :   -0.185117
  18 C :   -0.065769
  19 C :   -0.048734
  20 C :   -0.190806
  21 H :    0.017984
  22 C :   -0.026537
  23 H :    0.017738
  24 H :    0.031281
  25 C :   -0.039746
  26 H :    0.022129
  27 H :    0.022817
  28 C :   -0.075148
  29 H :    0.026072
  30 H :    0.030936
  31 H :    0.026888
  32 H :    0.015762
  33 H :    0.031518

  Mayer bond orders larger than 0.100000
B(  0-S ,  1-C ) :   1.1190 B(  0-S ,  4-C ) :   1.1537 B(  1-C ,  2-C ) :   1.6393
B(  1-C , 32-H ) :   0.9581 B(  2-C ,  3-C ) :   1.2076 B(  2-C ,  6-C ) :   1.0280
B(  3-C ,  4-C ) :   1.5653 B(  3-C ,  5-H ) :   1.0028 B(  4-C , 20-C ) :   1.0368
B(  6-C ,  7-H ) :   0.9403 B(  6-C ,  8-H ) :   0.9433 B(  6-C ,  9-C ) :   1.0808
B(  9-C , 10-H ) :   0.9521 B(  9-C , 11-H ) :   0.9530 B(  9-C , 12-C ) :   1.0737
B( 12-C , 13-H ) :   0.9667 B( 12-C , 14-H ) :   0.9734 B( 12-C , 15-H ) :   0.9702
B( 16-S , 17-C ) :   1.1406 B( 16-S , 20-C ) :   1.1291 B( 17-C , 18-C ) :   1.6393
B( 17-C , 33-H ) :   0.9652 B( 18-C , 19-C ) :   1.2142 B( 18-C , 21-H ) :   0.9983
B( 19-C , 20-C ) :   1.5988 B( 19-C , 22-C ) :   1.0512 B( 22-C , 23-H ) :   0.9359
B( 22-C , 24-H ) :   0.9280 B( 22-C , 25-C ) :   1.0529 B( 25-C , 26-H ) :   0.9519
B( 25-C , 27-H ) :   0.9625 B( 25-C , 28-C ) :   1.0844 B( 28-C , 29-H ) :   0.9778
B( 28-C , 30-H ) :   0.9708 B( 28-C , 31-H ) :   0.9715

Dispersion correction           -0.014350565
FINAL SINGLE POINT ENERGY     -1339.860018610124

DIPOLE MOMENT
-------------
                                X             Y             Z
Electronic contribution:      5.69750       2.35014      11.73718
Nuclear contribution   :     -6.17088      -2.35865     -11.80288
                        -----------------------------------------
Total Dipole Moment    :     -0.47338      -0.00851      -0.06570
                        -----------------------------------------
Magnitude (a.u.)       :      0.47799
Magnitude (Debye)      :      1.21495

Rotational constants in cm-1:     0.022430     0.007841     0.006259
Rotational constants in MHz :   672.446082   235.077035   187.645272

                             ****ORCA TERMINATED NORMALLY****
TOTAL RUN TIME: 0 days 0 hours 0 minutes 27 seconds 740 msec
