                         Program Version 4.2.1 -  RELEASE  -
|  1> ! wB97X-D3 SP def2-SVP
|  2> %pal
|  3> nprocs 16
|  4> end
|  5>
|  6> * xyz 0 1
|  7> S 	 23.1331 	 -0.938342 	 84.3704
|  8> C 	 24.5885 	 -0.162464 	 83.6597
|  9> C 	 24.2936 	 1.01425 	 82.9995
| 10> C 	 22.9007 	 1.38084 	 83.1311
| 11> C 	 22.1033 	 0.380226 	 83.7475
| 12> H 	 22.5038 	 2.27911 	 82.6515
| 13> C 	 25.2184 	 1.85729 	 82.1744
| 14> H 	 25.5993 	 1.4203 	 81.2116
| 15> H 	 26.1004 	 2.04453 	 82.843
| 16> C 	 24.7375 	 3.30786 	 81.7256
| 17> H 	 23.788 	 3.37174 	 81.2366
| 18> H 	 24.6991 	 3.93328 	 82.5798
| 19> C 	 25.7465 	 4.02465 	 80.7559
| 20> H 	 25.754 	 3.42219 	 79.8593
| 21> H 	 25.3569 	 5.0312 	 80.5215
| 22> H 	 26.7767 	 4.16728 	 81.0877
| 23> S 	 19.9845 	 0.023128 	 85.5156
| 24> C 	 18.3687 	 0.0949093 	 84.951
| 25> C 	 18.3228 	 0.436208 	 83.5989
| 26> C 	 19.6027 	 0.477959 	 83.0011
| 27> C 	 20.6502 	 0.304305 	 83.899
| 28> H 	 17.3237 	 0.536583 	 83.1823
| 29> C 	 19.7718 	 0.97452 	 81.5146
| 30> H 	 19.0534 	 0.399993 	 80.9158
| 31> H 	 20.7615 	 0.553849 	 81.2668
| 32> C 	 19.6179 	 2.43462 	 81.2867
| 33> H 	 20.0654 	 3.03476 	 82.0766
| 34> H 	 18.5756 	 2.73404 	 81.2494
| 35> C 	 20.372 	 2.75384 	 80.0343
| 36> H 	 21.4232 	 2.4785 	 80.1524
| 37> H 	 20.3967 	 3.88027 	 79.8673
| 38> H 	 19.9847 	 2.28094 	 79.1328
| 39> H 	 25.6026 	 -0.521084 	 83.6072
| 40> H 	 17.5265 	 0.192589 	 85.5988
| 41> *
| 42>
| 43>                          ****END OF INPUT****

CARTESIAN COORDINATES (ANGSTROEM)
---------------------------------
  S     23.133100   -0.938342   84.370400
  C     24.588500   -0.162464   83.659700
  C     24.293600    1.014250   82.999500
  C     22.900700    1.380840   83.131100
  C     22.103300    0.380226   83.747500
  H     22.503800    2.279110   82.651500
  C     25.218400    1.857290   82.174400
  H     25.599300    1.420300   81.211600
  H     26.100400    2.044530   82.843000
  C     24.737500    3.307860   81.725600
  H     23.788000    3.371740   81.236600
  H     24.699100    3.933280   82.579800
  C     25.746500    4.024650   80.755900
  H     25.754000    3.422190   79.859300
  H     25.356900    5.031200   80.521500
  H     26.776700    4.167280   81.087700
  S     19.984500    0.023128   85.515600
  C     18.368700    0.094909   84.951000
  C     18.322800    0.436208   83.598900
  C     19.602700    0.477959   83.001100
  C     20.650200    0.304305   83.899000
  H     17.323700    0.536583   83.182300
  C     19.771800    0.974520   81.514600
  H     19.053400    0.399993   80.915800
  H     20.761500    0.553849   81.266800
  C     19.617900    2.434620   81.286700
  H     20.065400    3.034760   82.076600
  H     18.575600    2.734040   81.249400
  C     20.372000    2.753840   80.034300
  H     21.423200    2.478500   80.152400
  H     20.396700    3.880270   79.867300
  H     19.984700    2.280940   79.132800
  H     25.602600   -0.521084   83.607200
  H     17.526500    0.192589   85.598800

 Total Charge           Charge          ....    0
 Multiplicity           Mult            ....    1
 Number of Electrons    NEL             ....  134
 Basis Dimension        Dim             ....  322

ORBITAL ENERGIES
----------------

  NO   OCC          E(Eh)            E(eV)
   0   2.0000     -88.970821     -2421.0191
   1   2.0000     -88.964977     -2420.8601
   2   2.0000     -10.339492      -281.3519
   3   2.0000     -10.328966      -281.0655
   4   2.0000     -10.316534      -280.7272
   5   2.0000     -10.313787      -280.6524
   6   2.0000     -10.305069      -280.4152
   7   2.0000     -10.304917      -280.4111
   8   2.0000     -10.303887      -280.3830
   9   2.0000     -10.301350      -280.3140
  10   2.0000     -10.293179      -280.0916
  11   2.0000     -10.291736      -280.0524
  12   2.0000     -10.291653      -280.0501
  13   2.0000     -10.284297      -279.8500
  14   2.0000     -10.283226      -279.8208
  15   2.0000     -10.281826      -279.7827
  16   2.0000      -8.083900      -219.9741
  17   2.0000      -8.080090      -219.8704
  18   2.0000      -6.042643      -164.4287
  19   2.0000      -6.038664      -164.3204
  20   2.0000      -6.038494      -164.3158
  21   2.0000      -6.034468      -164.2062
  22   2.0000      -6.034446      -164.2056
  23   2.0000      -6.031036      -164.1128
  24   2.0000      -1.002130       -27.2694
  25   2.0000      -0.977694       -26.6044
  26   2.0000      -0.918485       -24.9932
  27   2.0000      -0.906047       -24.6548
  28   2.0000      -0.868189       -23.6246
  29   2.0000      -0.852692       -23.2029
  30   2.0000      -0.842395       -22.9227
  31   2.0000      -0.810719       -22.0608
  32   2.0000      -0.779196       -21.2030
  33   2.0000      -0.770397       -20.9636
  34   2.0000      -0.714387       -19.4395
  35   2.0000      -0.700825       -19.0704
  36   2.0000      -0.694975       -18.9112
  37   2.0000      -0.658938       -17.9306
  38   2.0000      -0.634083       -17.2543
  39   2.0000      -0.620096       -16.8737
  40   2.0000      -0.593086       -16.1387
  41   2.0000      -0.574778       -15.6405
  42   2.0000      -0.572024       -15.5656
  43   2.0000      -0.565929       -15.3997
  44   2.0000      -0.529644       -14.4124
  45   2.0000      -0.523015       -14.2320
  46   2.0000      -0.514260       -13.9937
  47   2.0000      -0.505382       -13.7521
  48   2.0000      -0.502740       -13.6802
  49   2.0000      -0.498171       -13.5559
  50   2.0000      -0.492754       -13.4085
  51   2.0000      -0.480439       -13.0734
  52   2.0000      -0.474516       -12.9122
  53   2.0000      -0.466702       -12.6996
  54   2.0000      -0.456525       -12.4227
  55   2.0000      -0.453086       -12.3291
  56   2.0000      -0.444796       -12.1035
  57   2.0000      -0.437671       -11.9096
  58   2.0000      -0.431911       -11.7529
  59   2.0000      -0.424130       -11.5412
  60   2.0000      -0.422601       -11.4995
  61   2.0000      -0.420904       -11.4534
  62   2.0000      -0.408280       -11.1099
  63   2.0000      -0.342791        -9.3278
  64   2.0000      -0.334302        -9.0968
  65   2.0000      -0.330413        -8.9910
  66   2.0000      -0.291440        -7.9305
  67   0.0000       0.026034         0.7084
  68   0.0000       0.062927         1.7123
  69   0.0000       0.107335         2.9207
  70   0.0000       0.117987         3.2106
  71   0.0000       0.125598         3.4177

MULLIKEN ATOMIC CHARGES
-----------------------
   0 S :    0.114234
   1 C :   -0.109345
   2 C :   -0.080380
   3 C :    0.033837
   4 C :   -0.140481
   5 H :    0.007175
   6 C :    0.018764
   7 H :    0.050669
   8 H :    0.043736
   9 C :   -0.101647
  10 H :    0.037824
  11 H :    0.028128
  12 C :   -0.059674
  13 H :    0.029891
  14 H :    0.037309
  15 H :    0.037061
  16 S :    0.107352
  17 C :   -0.085592
  18 C :   -0.058807
  19 C :   -0.027741
  20 C :   -0.165928
  21 H :    0.024688
  22 C :    0.041757
  23 H :    0.026103
  24 H :    0.032878
  25 C :   -0.018272
  26 H :    0.030734
  27 H :    0.028931
  28 C :   -0.073322
  29 H :    0.028599
  30 H :    0.034698
  31 H :    0.034343
  32 H :    0.036857
  33 H :    0.055623
Sum of atomic charges:   -0.0000000

LOEWDIN ATOMIC CHARGES
----------------------
   0 S :    0.383918
   1 C :   -0.187230
   2 C :   -0.067275
   3 C :   -0.061476
   4 C :   -0.180071
   5 H :    0.029619
   6 C :   -0.040039
   7 H :    0.037449
   8 H :    0.042176
   9 C :   -0.038549
  10 H :    0.018503
  11 H :    0.018585
  12 C :   -0.062885
  13 H :    0.021055
  14 H :    0.030778
  15 H :    0.024077
  16 S :    0.416245
  17 C :   -0.192357
  18 C :   -0.077240
  19 C :   -0.052878
  20 C :   -0.204631
  21 H :    0.033980
  22 C :   -0.027951
  23 H :    0.031458
  24 H :    0.031326
  25 C :   -0.044584
  26 H :    0.025940
  27 H :    0.026583
  28 C :   -0.064101
  29 H :    0.021623
  30 H :    0.029257
  31 H :    0.024155
  32 H :    0.028832
  33 H :    0.025706

  Mayer bond orders larger than 0.100000
B(  0-S ,  1-C ) :   1.1177 B(  0-S ,  4-C ) :   1.1460 B(  1-C ,  2-C ) :   1.6443
B(  1-C , 32-H ) :   0.9685 B(  2-C ,  3-C ) :   1.2483 B(  2-C ,  6-C ) :   1.0063
B(  3-C ,  4-C ) :   1.5551 B(  3-C ,  5-H ) :   0.9825 B(  4-C , 20-C ) :   1.0431
B(  6-C ,  7-H ) :   0.9461 B(  6-C ,  8-H ) :   0.9381 B(  6-C ,  9-C ) :   1.0715
B(  9-C , 10-H ) :   0.9499 B(  9-C , 11-H ) :   0.9561 B(  9-C , 12-C ) :   1.0821
B( 12-C , 13-H ) :   0.9769 B( 12-C , 14-H ) :   0.9734 B( 12-C , 15-H ) :   0.9785
B( 16-S , 17-C ) :   1.1798 B( 16-S , 20-C ) :   1.1466 B( 17-C , 18-C ) :   1.5885
B( 17-C , 20-C ) :   0.1044 B( 17-C , 33-H ) :   0.9658 B( 18-C , 19-C ) :   1.2506
B( 18-C , 21-H ) :   0.9935 B( 19-C , 20-C ) :   1.5780 B( 19-C , 22-C ) :   1.0340
B( 22-C , 23-H ) :   0.9290 B( 22-C , 24-H ) :   0.9439 B( 22-C , 25-C ) :   1.0612
B( 25-C , 26-H ) :   0.9527 B( 25-C , 27-H ) :   0.9443 B( 25-C , 28-C ) :   1.0895
B( 28-C , 29-H ) :   0.9726 B( 28-C , 30-H ) :   0.9731 B( 28-C , 31-H ) :   0.9708

Dispersion correction           -0.014668591
FINAL SINGLE POINT ENERGY     -1339.876279789570

DIPOLE MOMENT
-------------
                                X             Y             Z
Electronic contribution:     -7.93521     -21.73793      25.16677
Nuclear contribution   :      7.90924      22.33322     -25.75461
                        -----------------------------------------
Total Dipole Moment    :     -0.02597       0.59529      -0.58784
                        -----------------------------------------
Magnitude (a.u.)       :      0.83702
Magnitude (Debye)      :      2.12752

Rotational constants in cm-1:     0.017705     0.009495     0.006671
Rotational constants in MHz :   530.796561   284.667519   200.003268

                             ****ORCA TERMINATED NORMALLY****
TOTAL RUN TIME: 0 days 0 hours 0 minutes 35 seconds 711 msec
