                         Program Version 4.2.1 -  RELEASE  -
|  1> ! wB97X-D3 SP def2-SVP
|  2> %pal
|  3> nprocs 16
|  4> end
|  5>
|  6> * xyz 0 1
|  7> S 	 -41.7135 	 50.7163 	 103.927
|  8> C 	 -41.0837 	 49.4233 	 104.903
|  9> C 	 -42.0163 	 48.8255 	 105.702
| 10> C 	 -43.3057 	 49.3682 	 105.431
| 11> C 	 -43.345 	 50.4163 	 104.617
| 12> H 	 -44.1912 	 49.0524 	 105.994
| 13> C 	 -41.7984 	 47.655 	 106.537
| 14> H 	 -40.7648 	 47.2658 	 106.482
| 15> H 	 -42.4427 	 46.8241 	 106.246
| 16> C 	 -42.1771 	 47.7794 	 108.065
| 17> H 	 -43.235 	 48.1007 	 108.187
| 18> H 	 -42.0458 	 46.669 	 108.468
| 19> C 	 -41.2355 	 48.8004 	 108.795
| 20> H 	 -41.4812 	 49.0239 	 109.819
| 21> H 	 -40.3121 	 48.3558 	 108.678
| 22> H 	 -41.2592 	 49.7541 	 108.157
| 23> S 	 -44.9603 	 52.6305 	 104.879
| 24> C 	 -46.4937 	 52.742 	 104.009
| 25> C 	 -46.6811 	 51.5983 	 103.281
| 26> C 	 -45.5768 	 50.6492 	 103.255
| 27> C 	 -44.5307 	 51.1405 	 104.084
| 28> H 	 -47.5324 	 51.4285 	 102.703
| 29> C 	 -45.5936 	 49.2992 	 102.609
| 30> H 	 -46.4341 	 48.7281 	 102.962
| 31> H 	 -44.6582 	 48.8102 	 102.957
| 32> C 	 -45.6587 	 49.3386 	 101.066
| 33> H 	 -46.582 	 49.7899 	 100.791
| 34> H 	 -45.7348 	 48.3188 	 100.651
| 35> C 	 -44.6197 	 50.2346 	 100.44
| 36> H 	 -44.6925 	 51.2771 	 100.725
| 37> H 	 -44.7139 	 50.2297 	 99.322
| 38> H 	 -43.6021 	 49.9038 	 100.724
| 39> H 	 -40.0573 	 48.9976 	 104.698
| 40> H 	 -47.1953 	 53.5237 	 103.987
| 41> *
| 42>
| 43>                          ****END OF INPUT****

CARTESIAN COORDINATES (ANGSTROEM)
---------------------------------
  S    -41.713500   50.716300  103.927000
  C    -41.083700   49.423300  104.903000
  C    -42.016300   48.825500  105.702000
  C    -43.305700   49.368200  105.431000
  C    -43.345000   50.416300  104.617000
  H    -44.191200   49.052400  105.994000
  C    -41.798400   47.655000  106.537000
  H    -40.764800   47.265800  106.482000
  H    -42.442700   46.824100  106.246000
  C    -42.177100   47.779400  108.065000
  H    -43.235000   48.100700  108.187000
  H    -42.045800   46.669000  108.468000
  C    -41.235500   48.800400  108.795000
  H    -41.481200   49.023900  109.819000
  H    -40.312100   48.355800  108.678000
  H    -41.259200   49.754100  108.157000
  S    -44.960300   52.630500  104.879000
  C    -46.493700   52.742000  104.009000
  C    -46.681100   51.598300  103.281000
  C    -45.576800   50.649200  103.255000
  C    -44.530700   51.140500  104.084000
  H    -47.532400   51.428500  102.703000
  C    -45.593600   49.299200  102.609000
  H    -46.434100   48.728100  102.962000
  H    -44.658200   48.810200  102.957000
  C    -45.658700   49.338600  101.066000
  H    -46.582000   49.789900  100.791000
  H    -45.734800   48.318800  100.651000
  C    -44.619700   50.234600  100.440000
  H    -44.692500   51.277100  100.725000
  H    -44.713900   50.229700   99.322000
  H    -43.602100   49.903800  100.724000
  H    -40.057300   48.997600  104.698000
  H    -47.195300   53.523700  103.987000

 Total Charge           Charge          ....    0
 Multiplicity           Mult            ....    1
 Number of Electrons    NEL             ....  134
 Basis Dimension        Dim             ....  322

ORBITAL ENERGIES
----------------

  NO   OCC          E(Eh)            E(eV)
   0   2.0000     -88.965860     -2420.8841
   1   2.0000     -88.963417     -2420.8176
   2   2.0000     -10.329524      -281.0806
   3   2.0000     -10.328867      -281.0627
   4   2.0000     -10.317486      -280.7531
   5   2.0000     -10.316643      -280.7301
   6   2.0000     -10.307721      -280.4874
   7   2.0000     -10.302487      -280.3449
   8   2.0000     -10.296709      -280.1877
   9   2.0000     -10.293662      -280.1048
  10   2.0000     -10.292889      -280.0837
  11   2.0000     -10.291090      -280.0348
  12   2.0000     -10.290262      -280.0123
  13   2.0000     -10.282215      -279.7933
  14   2.0000     -10.274605      -279.5862
  15   2.0000     -10.273443      -279.5546
  16   2.0000      -8.080332      -219.8770
  17   2.0000      -8.078082      -219.8158
  18   2.0000      -6.038932      -164.3277
  19   2.0000      -6.036573      -164.2635
  20   2.0000      -6.034795      -164.2151
  21   2.0000      -6.032705      -164.1583
  22   2.0000      -6.031086      -164.1142
  23   2.0000      -6.028747      -164.0506
  24   2.0000      -1.006558       -27.3898
  25   2.0000      -0.984587       -26.7920
  26   2.0000      -0.910506       -24.7761
  27   2.0000      -0.909999       -24.7623
  28   2.0000      -0.868234       -23.6258
  29   2.0000      -0.846731       -23.0407
  30   2.0000      -0.843723       -22.9589
  31   2.0000      -0.819710       -22.3054
  32   2.0000      -0.782018       -21.2798
  33   2.0000      -0.770438       -20.9647
  34   2.0000      -0.706257       -19.2182
  35   2.0000      -0.696716       -18.9586
  36   2.0000      -0.685241       -18.6464
  37   2.0000      -0.657470       -17.8907
  38   2.0000      -0.641020       -17.4430
  39   2.0000      -0.627199       -17.0669
  40   2.0000      -0.595537       -16.2054
  41   2.0000      -0.569739       -15.5034
  42   2.0000      -0.553871       -15.0716
  43   2.0000      -0.552282       -15.0284
  44   2.0000      -0.543404       -14.7868
  45   2.0000      -0.533560       -14.5189
  46   2.0000      -0.520146       -14.1539
  47   2.0000      -0.513329       -13.9684
  48   2.0000      -0.502512       -13.6740
  49   2.0000      -0.492068       -13.3898
  50   2.0000      -0.489781       -13.3276
  51   2.0000      -0.473555       -12.8861
  52   2.0000      -0.469019       -12.7626
  53   2.0000      -0.462011       -12.5719
  54   2.0000      -0.456798       -12.4301
  55   2.0000      -0.449503       -12.2316
  56   2.0000      -0.440220       -11.9790
  57   2.0000      -0.435298       -11.8451
  58   2.0000      -0.429758       -11.6943
  59   2.0000      -0.423438       -11.5223
  60   2.0000      -0.421625       -11.4730
  61   2.0000      -0.416490       -11.3333
  62   2.0000      -0.410853       -11.1799
  63   2.0000      -0.342702        -9.3254
  64   2.0000      -0.330969        -9.0061
  65   2.0000      -0.320851        -8.7308
  66   2.0000      -0.309096        -8.4109
  67   0.0000       0.044857         1.2206
  68   0.0000       0.054243         1.4760
  69   0.0000       0.113222         3.0809
  70   0.0000       0.115401         3.1402
  71   0.0000       0.123998         3.3742

MULLIKEN ATOMIC CHARGES
-----------------------
   0 S :    0.099782
   1 C :   -0.146858
   2 C :   -0.056372
   3 C :    0.040037
   4 C :   -0.164390
   5 H :    0.022492
   6 C :    0.041766
   7 H :    0.022450
   8 H :    0.036621
   9 C :   -0.153605
  10 H :    0.040305
  11 H :    0.047453
  12 C :   -0.029048
  13 H :    0.043582
  14 H :    0.011628
  15 H :    0.052375
  16 S :    0.110172
  17 C :   -0.059945
  18 C :   -0.013811
  19 C :   -0.053393
  20 C :   -0.173527
  21 H :   -0.004962
  22 C :    0.081557
  23 H :    0.031351
  24 H :    0.038763
  25 C :   -0.059942
  26 H :    0.008961
  27 H :    0.033147
  28 C :   -0.064649
  29 H :    0.043652
  30 H :    0.036717
  31 H :    0.028959
  32 H :    0.070019
  33 H :    0.038713
Sum of atomic charges:   -0.0000000

LOEWDIN ATOMIC CHARGES
----------------------
   0 S :    0.382664
   1 C :   -0.195492
   2 C :   -0.079411
   3 C :   -0.053310
   4 C :   -0.184395
   5 H :    0.037547
   6 C :   -0.039050
   7 H :    0.031587
   8 H :    0.036463
   9 C :   -0.044219
  10 H :    0.019523
  11 H :    0.033021
  12 C :   -0.065473
  13 H :    0.023425
  14 H :    0.012392
  15 H :    0.039223
  16 S :    0.407805
  17 C :   -0.174069
  18 C :   -0.062783
  19 C :   -0.047250
  20 C :   -0.208483
  21 H :    0.018288
  22 C :   -0.032262
  23 H :    0.032063
  24 H :    0.035735
  25 C :   -0.042684
  26 H :    0.016206
  27 H :    0.027812
  28 C :   -0.068920
  29 H :    0.026729
  30 H :    0.030572
  31 H :    0.023501
  32 H :    0.039264
  33 H :    0.023981

  Mayer bond orders larger than 0.100000
B(  0-S ,  1-C ) :   1.1447 B(  0-S ,  4-C ) :   1.1221 B(  1-C ,  2-C ) :   1.6243
B(  1-C , 32-H ) :   0.9546 B(  2-C ,  3-C ) :   1.2059 B(  2-C ,  6-C ) :   1.0496
B(  3-C ,  4-C ) :   1.6455 B(  3-C ,  5-H ) :   0.9932 B(  4-C , 20-C ) :   0.9776
B(  6-C ,  7-H ) :   0.9431 B(  6-C ,  8-H ) :   0.9344 B(  6-C ,  9-C ) :   1.0527
B(  9-C , 10-H ) :   0.9596 B(  9-C , 11-H ) :   0.9588 B(  9-C , 12-C ) :   1.0507
B( 12-C , 13-H ) :   0.9778 B( 12-C , 14-H ) :   0.9763 B( 12-C , 15-H ) :   0.9747
B( 16-S , 17-C ) :   1.1379 B( 16-S , 20-C ) :   1.1640 B( 17-C , 18-C ) :   1.6177
B( 17-C , 33-H ) :   0.9755 B( 18-C , 19-C ) :   1.2352 B( 18-C , 21-H ) :   0.9921
B( 19-C , 20-C ) :   1.5752 B( 19-C , 22-C ) :   1.0446 B( 22-C , 23-H ) :   0.9357
B( 22-C , 24-H ) :   0.9322 B( 22-C , 25-C ) :   1.0681 B( 25-C , 26-H ) :   0.9532
B( 25-C , 27-H ) :   0.9563 B( 25-C , 28-C ) :   1.0780 B( 28-C , 29-H ) :   0.9668
B( 28-C , 30-H ) :   0.9723 B( 28-C , 31-H ) :   0.9769

Dispersion correction           -0.015230557
FINAL SINGLE POINT ENERGY     -1339.879878756097

DIPOLE MOMENT
-------------
                                X             Y             Z
Electronic contribution:     -0.33621      16.63223      -1.09191
Nuclear contribution   :     -0.00746     -17.24438       1.06950
                        -----------------------------------------
Total Dipole Moment    :     -0.34367      -0.61214      -0.02242
                        -----------------------------------------
Magnitude (a.u.)       :      0.70237
Magnitude (Debye)      :      1.78529

Rotational constants in cm-1:     0.021146     0.008179     0.007305
Rotational constants in MHz :   633.937130   245.197852   219.005671

                             ****ORCA TERMINATED NORMALLY****
TOTAL RUN TIME: 0 days 0 hours 0 minutes 30 seconds 366 msec
