                         Program Version 4.2.1 -  RELEASE  -
|  1> ! wB97X-D3 SP def2-SVP
|  2> %pal
|  3> nprocs 16
|  4> end
|  5>
|  6> * xyz 0 1
|  7> S 	 41.397 	 18.5864 	 87.9997
|  8> C 	 42.4869 	 19.8488 	 88.6515
|  9> C 	 43.3427 	 19.3472 	 89.5453
| 10> C 	 42.9823 	 18.0355 	 89.9413
| 11> C 	 41.9051 	 17.471 	 89.2651
| 12> H 	 43.3831 	 17.4532 	 90.7965
| 13> C 	 44.4923 	 20.1886 	 90.0696
| 14> H 	 44.411 	 20.1507 	 91.1219
| 15> H 	 44.4284 	 21.2847 	 89.8812
| 16> C 	 45.8902 	 19.7889 	 89.6269
| 17> H 	 46.2541 	 18.9648 	 90.1945
| 18> H 	 45.7963 	 19.4865 	 88.5586
| 19> C 	 47.03 	 20.7369 	 89.884
| 20> H 	 46.6298 	 21.7305 	 89.8255
| 21> H 	 47.4676 	 20.521 	 90.8631
| 22> H 	 47.7389 	 20.5574 	 89.1074
| 23> S 	 39.2671 	 16.7451 	 89.6661
| 24> C 	 38.8667 	 15.5293 	 90.8109
| 25> C 	 39.9532 	 14.7674 	 91.1455
| 26> C 	 41.1766 	 15.2884 	 90.6295
| 27> C 	 40.9813 	 16.4606 	 89.8395
| 28> H 	 39.8723 	 13.8548 	 91.8052
| 29> C 	 42.4567 	 14.513 	 90.8558
| 30> H 	 43.2233 	 14.9265 	 90.1909
| 31> H 	 42.1962 	 13.5748 	 90.3599
| 32> C 	 42.8942 	 14.1392 	 92.3108
| 33> H 	 43.8508 	 13.57 	 92.3633
| 34> H 	 42.1543 	 13.5126 	 92.6929
| 35> C 	 42.9921 	 15.3568 	 93.226
| 36> H 	 43.295 	 15.1131 	 94.2617
| 37> H 	 42.0025 	 15.7874 	 93.3367
| 38> H 	 43.609 	 16.2045 	 92.8639
| 39> H 	 42.6573 	 20.83 	 88.2345
| 40> H 	 37.8411 	 15.2083 	 91.1603
| 41> *
| 42>
| 43>                          ****END OF INPUT****

CARTESIAN COORDINATES (ANGSTROEM)
---------------------------------
  S     41.397000   18.586400   87.999700
  C     42.486900   19.848800   88.651500
  C     43.342700   19.347200   89.545300
  C     42.982300   18.035500   89.941300
  C     41.905100   17.471000   89.265100
  H     43.383100   17.453200   90.796500
  C     44.492300   20.188600   90.069600
  H     44.411000   20.150700   91.121900
  H     44.428400   21.284700   89.881200
  C     45.890200   19.788900   89.626900
  H     46.254100   18.964800   90.194500
  H     45.796300   19.486500   88.558600
  C     47.030000   20.736900   89.884000
  H     46.629800   21.730500   89.825500
  H     47.467600   20.521000   90.863100
  H     47.738900   20.557400   89.107400
  S     39.267100   16.745100   89.666100
  C     38.866700   15.529300   90.810900
  C     39.953200   14.767400   91.145500
  C     41.176600   15.288400   90.629500
  C     40.981300   16.460600   89.839500
  H     39.872300   13.854800   91.805200
  C     42.456700   14.513000   90.855800
  H     43.223300   14.926500   90.190900
  H     42.196200   13.574800   90.359900
  C     42.894200   14.139200   92.310800
  H     43.850800   13.570000   92.363300
  H     42.154300   13.512600   92.692900
  C     42.992100   15.356800   93.226000
  H     43.295000   15.113100   94.261700
  H     42.002500   15.787400   93.336700
  H     43.609000   16.204500   92.863900
  H     42.657300   20.830000   88.234500
  H     37.841100   15.208300   91.160300

 Total Charge           Charge          ....    0
 Multiplicity           Mult            ....    1
 Number of Electrons    NEL             ....  134
 Basis Dimension        Dim             ....  322

ORBITAL ENERGIES
----------------

  NO   OCC          E(Eh)            E(eV)
   0   2.0000     -88.966296     -2420.8960
   1   2.0000     -88.964816     -2420.8557
   2   2.0000     -10.335040      -281.2307
   3   2.0000     -10.334104      -281.2053
   4   2.0000     -10.317590      -280.7559
   5   2.0000     -10.311916      -280.6015
   6   2.0000     -10.307136      -280.4714
   7   2.0000     -10.299128      -280.2535
   8   2.0000     -10.298671      -280.2411
   9   2.0000     -10.295000      -280.1412
  10   2.0000     -10.293931      -280.1121
  11   2.0000     -10.291159      -280.0367
  12   2.0000     -10.290926      -280.0303
  13   2.0000     -10.279233      -279.7122
  14   2.0000     -10.278242      -279.6852
  15   2.0000     -10.274608      -279.5863
  16   2.0000      -8.081438      -219.9071
  17   2.0000      -8.078983      -219.8403
  18   2.0000      -6.040024      -164.3574
  19   2.0000      -6.037691      -164.2939
  20   2.0000      -6.035837      -164.2435
  21   2.0000      -6.033741      -164.1864
  22   2.0000      -6.032108      -164.1420
  23   2.0000      -6.029391      -164.0681
  24   2.0000      -1.007535       -27.4164
  25   2.0000      -0.987441       -26.8696
  26   2.0000      -0.917673       -24.9712
  27   2.0000      -0.908669       -24.7261
  28   2.0000      -0.874558       -23.7979
  29   2.0000      -0.850488       -23.1429
  30   2.0000      -0.844561       -22.9817
  31   2.0000      -0.816991       -22.2314
  32   2.0000      -0.786335       -21.3973
  33   2.0000      -0.774232       -21.0679
  34   2.0000      -0.711471       -19.3601
  35   2.0000      -0.696184       -18.9441
  36   2.0000      -0.691269       -18.8104
  37   2.0000      -0.654296       -17.8043
  38   2.0000      -0.639346       -17.3975
  39   2.0000      -0.616490       -16.7755
  40   2.0000      -0.591364       -16.0918
  41   2.0000      -0.578777       -15.7493
  42   2.0000      -0.569134       -15.4869
  43   2.0000      -0.548615       -14.9286
  44   2.0000      -0.544280       -14.8106
  45   2.0000      -0.528624       -14.3846
  46   2.0000      -0.519136       -14.1264
  47   2.0000      -0.509477       -13.8636
  48   2.0000      -0.505256       -13.7487
  49   2.0000      -0.503624       -13.7043
  50   2.0000      -0.491490       -13.3741
  51   2.0000      -0.480520       -13.0756
  52   2.0000      -0.469515       -12.7762
  53   2.0000      -0.463071       -12.6008
  54   2.0000      -0.458537       -12.4774
  55   2.0000      -0.451407       -12.2834
  56   2.0000      -0.446083       -12.1385
  57   2.0000      -0.437240       -11.8979
  58   2.0000      -0.429330       -11.6827
  59   2.0000      -0.425830       -11.5874
  60   2.0000      -0.420250       -11.4356
  61   2.0000      -0.415817       -11.3150
  62   2.0000      -0.409418       -11.1408
  63   2.0000      -0.358110        -9.7447
  64   2.0000      -0.333841        -9.0843
  65   2.0000      -0.326712        -8.8903
  66   2.0000      -0.284170        -7.7327
  67   0.0000       0.021637         0.5888
  68   0.0000       0.076782         2.0893
  69   0.0000       0.104378         2.8403
  70   0.0000       0.122353         3.3294
  71   0.0000       0.131491         3.5781

MULLIKEN ATOMIC CHARGES
-----------------------
   0 S :    0.078983
   1 C :   -0.121884
   2 C :   -0.059210
   3 C :    0.018345
   4 C :   -0.120251
   5 H :    0.009861
   6 C :    0.073641
   7 H :    0.013661
   8 H :    0.015769
   9 C :   -0.101445
  10 H :    0.016619
  11 H :    0.037455
  12 C :   -0.009958
  13 H :    0.016617
  14 H :    0.036938
  15 H :    0.034452
  16 S :    0.116698
  17 C :   -0.104447
  18 C :   -0.062200
  19 C :   -0.069406
  20 C :   -0.141062
  21 H :    0.041112
  22 C :    0.037881
  23 H :    0.028559
  24 H :    0.039197
  25 C :   -0.026007
  26 H :    0.041549
  27 H :    0.011405
  28 C :   -0.079994
  29 H :    0.034614
  30 H :    0.033303
  31 H :    0.040115
  32 H :    0.045277
  33 H :    0.073812
Sum of atomic charges:   -0.0000000

LOEWDIN ATOMIC CHARGES
----------------------
   0 S :    0.368905
   1 C :   -0.170899
   2 C :   -0.066497
   3 C :   -0.058060
   4 C :   -0.187222
   5 H :    0.033327
   6 C :   -0.030803
   7 H :    0.024061
   8 H :    0.031047
   9 C :   -0.048495
  10 H :    0.021005
  11 H :    0.027362
  12 C :   -0.054212
  13 H :    0.017735
  14 H :    0.028064
  15 H :    0.029627
  16 S :    0.425783
  17 C :   -0.207650
  18 C :   -0.085276
  19 C :   -0.061315
  20 C :   -0.200048
  21 H :    0.040746
  22 C :   -0.038149
  23 H :    0.029995
  24 H :    0.040415
  25 C :   -0.034242
  26 H :    0.032446
  27 H :    0.014864
  28 C :   -0.073705
  29 H :    0.027685
  30 H :    0.025932
  31 H :    0.024346
  32 H :    0.028620
  33 H :    0.044610

  Mayer bond orders larger than 0.100000
B(  0-S ,  1-C ) :   1.1121 B(  0-S ,  4-C ) :   1.1339 B(  1-C ,  2-C ) :   1.6495
B(  1-C , 32-H ) :   0.9620 B(  2-C ,  3-C ) :   1.2277 B(  2-C ,  6-C ) :   1.0241
B(  3-C ,  4-C ) :   1.5817 B(  3-C ,  5-H ) :   0.9845 B(  4-C , 20-C ) :   1.0422
B(  6-C ,  7-H ) :   0.9301 B(  6-C ,  8-H ) :   0.9436 B(  6-C ,  9-C ) :   1.0637
B(  9-C , 10-H ) :   0.9538 B(  9-C , 11-H ) :   0.9617 B(  9-C , 12-C ) :   1.0786
B( 12-C , 13-H ) :   0.9749 B( 12-C , 14-H ) :   0.9807 B( 12-C , 15-H ) :   0.9728
B( 16-S , 17-C ) :   1.1656 B( 16-S , 20-C ) :   1.1468 B( 17-C , 18-C ) :   1.6008
B( 17-C , 33-H ) :   0.9567 B( 18-C , 19-C ) :   1.2674 B( 18-C , 21-H ) :   0.9794
B( 19-C , 20-C ) :   1.5518 B( 19-C , 22-C ) :   1.0307 B( 22-C , 23-H ) :   0.9411
B( 22-C , 24-H ) :   0.9372 B( 22-C , 25-C ) :   1.0600 B( 25-C , 26-H ) :   0.9575
B( 25-C , 27-H ) :   0.9493 B( 25-C , 28-C ) :   1.0827 B( 28-C , 29-H ) :   0.9726
B( 28-C , 30-H ) :   0.9697 B( 28-C , 31-H ) :   0.9729

Dispersion correction           -0.014152376
FINAL SINGLE POINT ENERGY     -1339.860788018457

DIPOLE MOMENT
-------------
                                X             Y             Z
Electronic contribution:    -25.97836      -0.30443     -15.20618
Nuclear contribution   :     26.47475       0.14908      15.74900
                        -----------------------------------------
Total Dipole Moment    :      0.49639      -0.15535       0.54282
                        -----------------------------------------
Magnitude (a.u.)       :      0.75179
Magnitude (Debye)      :      1.91091

Rotational constants in cm-1:     0.019026     0.008536     0.006269
Rotational constants in MHz :   570.382433   255.908313   187.926278

                             ****ORCA TERMINATED NORMALLY****
TOTAL RUN TIME: 0 days 0 hours 0 minutes 29 seconds 907 msec
