                         Program Version 4.2.1 -  RELEASE  -
|  1> ! wB97X-D3 SP def2-SVP
|  2> %pal
|  3> nprocs 16
|  4> end
|  5>
|  6> * xyz 0 1
|  7> S 	 -0.985504 	 25.083 	 32.713
|  8> C 	 -2.50075 	 26.0485 	 32.6745
|  9> C 	 -3.4501 	 25.4548 	 33.5248
| 10> C 	 -2.9273 	 24.3307 	 34.2866
| 11> C 	 -1.6383 	 23.9506 	 33.9947
| 12> H 	 -3.46193 	 23.8204 	 35.0138
| 13> C 	 -4.80404 	 25.9372 	 33.8385
| 14> H 	 -4.62093 	 26.7595 	 34.5429
| 15> H 	 -5.48073 	 25.1997 	 34.3116
| 16> C 	 -5.61771 	 26.567 	 32.7271
| 17> H 	 -4.99181 	 27.1871 	 32.0742
| 18> H 	 -5.96363 	 25.7617 	 32.0958
| 19> C 	 -6.82108 	 27.4714 	 33.2158
| 20> H 	 -6.39373 	 28.3531 	 33.6627
| 21> H 	 -7.40107 	 27.7663 	 32.3446
| 22> H 	 -7.51078 	 26.9849 	 33.9189
| 23> S 	 0.570211 	 23.706 	 35.4447
| 24> C 	 1.15849 	 22.1119 	 35.8661
| 25> C 	 0.236203 	 21.1143 	 35.5483
| 26> C 	 -0.982281 	 21.5954 	 34.9151
| 27> C 	 -0.811556 	 22.9865 	 34.6873
| 28> H 	 0.507812 	 20.0979 	 35.7898
| 29> C 	 -2.03993 	 20.728 	 34.1813
| 30> H 	 -1.55919 	 19.7285 	 34.1289
| 31> H 	 -2.31756 	 21.1748 	 33.2422
| 32> C 	 -3.20008 	 20.5102 	 35.0911
| 33> H 	 -3.94092 	 19.9168 	 34.5039
| 34> H 	 -3.6588 	 21.4603 	 35.4741
| 35> C 	 -2.71251 	 19.6554 	 36.3306
| 36> H 	 -2.65318 	 18.6156 	 35.9355
| 37> H 	 -3.52367 	 19.5125 	 37.0518
| 38> H 	 -1.83854 	 19.8937 	 36.9013
| 39> H 	 -2.72723 	 26.9234 	 32.1363
| 40> H 	 2.01596 	 21.8387 	 36.4241
| 41> *
| 42>
| 43>                          ****END OF INPUT****

CARTESIAN COORDINATES (ANGSTROEM)
---------------------------------
  S     -0.985504   25.083000   32.713000
  C     -2.500750   26.048500   32.674500
  C     -3.450100   25.454800   33.524800
  C     -2.927300   24.330700   34.286600
  C     -1.638300   23.950600   33.994700
  H     -3.461930   23.820400   35.013800
  C     -4.804040   25.937200   33.838500
  H     -4.620930   26.759500   34.542900
  H     -5.480730   25.199700   34.311600
  C     -5.617710   26.567000   32.727100
  H     -4.991810   27.187100   32.074200
  H     -5.963630   25.761700   32.095800
  C     -6.821080   27.471400   33.215800
  H     -6.393730   28.353100   33.662700
  H     -7.401070   27.766300   32.344600
  H     -7.510780   26.984900   33.918900
  S      0.570211   23.706000   35.444700
  C      1.158490   22.111900   35.866100
  C      0.236203   21.114300   35.548300
  C     -0.982281   21.595400   34.915100
  C     -0.811556   22.986500   34.687300
  H      0.507812   20.097900   35.789800
  C     -2.039930   20.728000   34.181300
  H     -1.559190   19.728500   34.128900
  H     -2.317560   21.174800   33.242200
  C     -3.200080   20.510200   35.091100
  H     -3.940920   19.916800   34.503900
  H     -3.658800   21.460300   35.474100
  C     -2.712510   19.655400   36.330600
  H     -2.653180   18.615600   35.935500
  H     -3.523670   19.512500   37.051800
  H     -1.838540   19.893700   36.901300
  H     -2.727230   26.923400   32.136300
  H      2.015960   21.838700   36.424100

 Total Charge           Charge          ....    0
 Multiplicity           Mult            ....    1
 Number of Electrons    NEL             ....  134
 Basis Dimension        Dim             ....  322

ORBITAL ENERGIES
----------------

  NO   OCC          E(Eh)            E(eV)
   0   2.0000     -88.968986     -2420.9692
   1   2.0000     -88.965010     -2420.8610
   2   2.0000     -10.333053      -281.1767
   3   2.0000     -10.327809      -281.0340
   4   2.0000     -10.317443      -280.7519
   5   2.0000     -10.313585      -280.6469
   6   2.0000     -10.311357      -280.5863
   7   2.0000     -10.304033      -280.3870
   8   2.0000     -10.297970      -280.2220
   9   2.0000     -10.294885      -280.1381
  10   2.0000     -10.294735      -280.1340
  11   2.0000     -10.290834      -280.0278
  12   2.0000     -10.290238      -280.0116
  13   2.0000     -10.288115      -279.9539
  14   2.0000     -10.283035      -279.8156
  15   2.0000     -10.279788      -279.7273
  16   2.0000      -8.083715      -219.9691
  17   2.0000      -8.077578      -219.8021
  18   2.0000      -6.042143      -164.4151
  19   2.0000      -6.038214      -164.3082
  20   2.0000      -6.036440      -164.2599
  21   2.0000      -6.034548      -164.2084
  22   2.0000      -6.032375      -164.1493
  23   2.0000      -6.028080      -164.0324
  24   2.0000      -1.000835       -27.2341
  25   2.0000      -0.973255       -26.4836
  26   2.0000      -0.915456       -24.9108
  27   2.0000      -0.912056       -24.8183
  28   2.0000      -0.866939       -23.5906
  29   2.0000      -0.844993       -22.9934
  30   2.0000      -0.840576       -22.8732
  31   2.0000      -0.813623       -22.1398
  32   2.0000      -0.782837       -21.3021
  33   2.0000      -0.770303       -20.9610
  34   2.0000      -0.713595       -19.4179
  35   2.0000      -0.702245       -19.1091
  36   2.0000      -0.687212       -18.7000
  37   2.0000      -0.661126       -17.9902
  38   2.0000      -0.641061       -17.4442
  39   2.0000      -0.614594       -16.7240
  40   2.0000      -0.593147       -16.1404
  41   2.0000      -0.578518       -15.7423
  42   2.0000      -0.565827       -15.3969
  43   2.0000      -0.558351       -15.1935
  44   2.0000      -0.543772       -14.7968
  45   2.0000      -0.519614       -14.1394
  46   2.0000      -0.517417       -14.0796
  47   2.0000      -0.509552       -13.8656
  48   2.0000      -0.502675       -13.6785
  49   2.0000      -0.496883       -13.5209
  50   2.0000      -0.492337       -13.3972
  51   2.0000      -0.479952       -13.0602
  52   2.0000      -0.476458       -12.9651
  53   2.0000      -0.460035       -12.5182
  54   2.0000      -0.453334       -12.3358
  55   2.0000      -0.443979       -12.0813
  56   2.0000      -0.439686       -11.9645
  57   2.0000      -0.437055       -11.8929
  58   2.0000      -0.431077       -11.7302
  59   2.0000      -0.427964       -11.6455
  60   2.0000      -0.423689       -11.5292
  61   2.0000      -0.416866       -11.3435
  62   2.0000      -0.414757       -11.2861
  63   2.0000      -0.344031        -9.3616
  64   2.0000      -0.331816        -9.0292
  65   2.0000      -0.320157        -8.7119
  66   2.0000      -0.293442        -7.9850
  67   0.0000       0.025803         0.7021
  68   0.0000       0.064325         1.7504
  69   0.0000       0.112013         3.0480
  70   0.0000       0.115933         3.1547
  71   0.0000       0.121198         3.2980

MULLIKEN ATOMIC CHARGES
-----------------------
   0 S :    0.091638
   1 C :   -0.105259
   2 C :   -0.073232
   3 C :    0.064335
   4 C :   -0.142723
   5 H :   -0.021000
   6 C :    0.047797
   7 H :    0.040581
   8 H :    0.035173
   9 C :   -0.101068
  10 H :    0.019644
  11 H :    0.030024
  12 C :   -0.053474
  13 H :    0.033401
  14 H :    0.037005
  15 H :    0.038029
  16 S :    0.133114
  17 C :   -0.072072
  18 C :   -0.057858
  19 C :   -0.023611
  20 C :   -0.195288
  21 H :    0.017887
  22 C :    0.103494
  23 H :    0.024659
  24 H :    0.044766
  25 C :   -0.085947
  26 H :    0.037945
  27 H :    0.043236
  28 C :   -0.088293
  29 H :    0.025621
  30 H :    0.027391
  31 H :    0.052202
  32 H :    0.033204
  33 H :    0.038677
Sum of atomic charges:   -0.0000000

LOEWDIN ATOMIC CHARGES
----------------------
   0 S :    0.352145
   1 C :   -0.183508
   2 C :   -0.057028
   3 C :   -0.049563
   4 C :   -0.173635
   5 H :    0.017358
   6 C :   -0.044059
   7 H :    0.040277
   8 H :    0.034747
   9 C :   -0.039026
  10 H :    0.019462
  11 H :    0.021238
  12 C :   -0.062149
  13 H :    0.023137
  14 H :    0.028451
  15 H :    0.025529
  16 S :    0.426417
  17 C :   -0.190480
  18 C :   -0.068753
  19 C :   -0.048063
  20 C :   -0.203275
  21 H :    0.027706
  22 C :   -0.023830
  23 H :    0.036723
  24 H :    0.031758
  25 C :   -0.039284
  26 H :    0.028785
  27 H :    0.022259
  28 C :   -0.075295
  29 H :    0.028602
  30 H :    0.025900
  31 H :    0.023937
  32 H :    0.020283
  33 H :    0.023234

  Mayer bond orders larger than 0.100000
B(  0-S ,  1-C ) :   1.1124 B(  0-S ,  4-C ) :   1.1121 B(  1-C ,  2-C ) :   1.6190
B(  1-C , 32-H ) :   0.9731 B(  2-C ,  3-C ) :   1.2132 B(  2-C ,  6-C ) :   1.0286
B(  3-C ,  4-C ) :   1.6014 B(  3-C ,  5-H ) :   1.0031 B(  4-C , 20-C ) :   1.0439
B(  6-C ,  7-H ) :   0.9302 B(  6-C ,  8-H ) :   0.9478 B(  6-C ,  9-C ) :   1.0591
B(  9-C , 10-H ) :   0.9556 B(  9-C , 11-H ) :   0.9600 B(  9-C , 12-C ) :   1.0759
B( 12-C , 13-H ) :   0.9765 B( 12-C , 14-H ) :   0.9749 B( 12-C , 15-H ) :   0.9783
B( 16-S , 17-C ) :   1.1362 B( 16-S , 20-C ) :   1.1722 B( 17-C , 18-C ) :   1.6387
B( 17-C , 33-H ) :   0.9693 B( 18-C , 19-C ) :   1.2261 B( 18-C , 21-H ) :   0.9811
B( 19-C , 20-C ) :   1.5666 B( 19-C , 22-C ) :   1.0231 B( 22-C , 23-H ) :   0.9386
B( 22-C , 24-H ) :   0.9418 B( 22-C , 25-C ) :   1.0641 B( 25-C , 26-H ) :   0.9549
B( 25-C , 27-H ) :   0.9555 B( 25-C , 28-C ) :   1.0614 B( 28-C , 29-H ) :   0.9734
B( 28-C , 30-H ) :   0.9739 B( 28-C , 31-H ) :   0.9766

Dispersion correction           -0.014072350
FINAL SINGLE POINT ENERGY     -1339.862839975142

DIPOLE MOMENT
-------------
                                X             Y             Z
Electronic contribution:     26.37681       4.96901      -2.07279
Nuclear contribution   :    -26.97535      -5.21730       2.28895
                        -----------------------------------------
Total Dipole Moment    :     -0.59855      -0.24829       0.21616
                        -----------------------------------------
Magnitude (a.u.)       :      0.68310
Magnitude (Debye)      :      1.73631

Rotational constants in cm-1:     0.021122     0.007671     0.006131
Rotational constants in MHz :   633.222750   229.974327   183.808203

                             ****ORCA TERMINATED NORMALLY****
TOTAL RUN TIME: 0 days 0 hours 0 minutes 32 seconds 744 msec
