                         Program Version 4.2.1 -  RELEASE  -
|  1> ! wB97X-D3 SP def2-SVP
|  2> %pal
|  3> nprocs 16
|  4> end
|  5>
|  6> * xyz 0 1
|  7> S 	 56.488 	 5.0211 	 79.4651
|  8> C 	 54.723 	 5.03928 	 79.3861
|  9> C 	 54.2124 	 4.148 	 80.3823
| 10> C 	 55.2286 	 3.46921 	 81.0587
| 11> C 	 56.5218 	 3.85349 	 80.7728
| 12> H 	 55.1144 	 2.88461 	 81.9978
| 13> C 	 52.7709 	 3.96115 	 80.7258
| 14> H 	 52.339 	 4.91651 	 80.9767
| 15> H 	 52.709 	 3.35749 	 81.6535
| 16> C 	 51.8457 	 3.08014 	 79.8126
| 17> H 	 50.9419 	 3.1594 	 80.268
| 18> H 	 51.6954 	 3.52866 	 78.792
| 19> C 	 52.3607 	 1.6082 	 79.6106
| 20> H 	 53.3407 	 1.80722 	 79.1463
| 21> H 	 52.6559 	 1.13085 	 80.47
| 22> H 	 51.7057 	 0.984865 	 79.0409
| 23> S 	 59.0811 	 4.49106 	 81.7366
| 24> C 	 60.0524 	 3.27256 	 82.5258
| 25> C 	 59.4671 	 2.04144 	 82.3797
| 26> C 	 58.2419 	 2.03105 	 81.6575
| 27> C 	 57.7433 	 3.33118 	 81.3671
| 28> H 	 60.0381 	 1.17017 	 82.7149
| 29> C 	 57.6145 	 0.698348 	 81.289
| 30> H 	 58.2429 	 0.0548612 	 80.8511
| 31> H 	 57.0151 	 0.924455 	 80.3851
| 32> C 	 56.6982 	 0.107331 	 82.2871
| 33> H 	 55.8439 	 0.743639 	 82.523
| 34> H 	 57.2311 	 -0.149979 	 83.216
| 35> C 	 56.185 	 -1.25077 	 81.7634
| 36> H 	 55.5623 	 -1.87345 	 82.4431
| 37> H 	 57.0101 	 -1.86165 	 81.4929
| 38> H 	 55.5671 	 -1.19377 	 80.8473
| 39> H 	 54.1379 	 5.71722 	 78.7946
| 40> H 	 60.9615 	 3.4231 	 83.0058
| 41> *
| 42>
| 43>                          ****END OF INPUT****

CARTESIAN COORDINATES (ANGSTROEM)
---------------------------------
  S     56.488000    5.021100   79.465100
  C     54.723000    5.039280   79.386100
  C     54.212400    4.148000   80.382300
  C     55.228600    3.469210   81.058700
  C     56.521800    3.853490   80.772800
  H     55.114400    2.884610   81.997800
  C     52.770900    3.961150   80.725800
  H     52.339000    4.916510   80.976700
  H     52.709000    3.357490   81.653500
  C     51.845700    3.080140   79.812600
  H     50.941900    3.159400   80.268000
  H     51.695400    3.528660   78.792000
  C     52.360700    1.608200   79.610600
  H     53.340700    1.807220   79.146300
  H     52.655900    1.130850   80.470000
  H     51.705700    0.984865   79.040900
  S     59.081100    4.491060   81.736600
  C     60.052400    3.272560   82.525800
  C     59.467100    2.041440   82.379700
  C     58.241900    2.031050   81.657500
  C     57.743300    3.331180   81.367100
  H     60.038100    1.170170   82.714900
  C     57.614500    0.698348   81.289000
  H     58.242900    0.054861   80.851100
  H     57.015100    0.924455   80.385100
  C     56.698200    0.107331   82.287100
  H     55.843900    0.743639   82.523000
  H     57.231100   -0.149979   83.216000
  C     56.185000   -1.250770   81.763400
  H     55.562300   -1.873450   82.443100
  H     57.010100   -1.861650   81.492900
  H     55.567100   -1.193770   80.847300
  H     54.137900    5.717220   78.794600
  H     60.961500    3.423100   83.005800

 Total Charge           Charge          ....    0
 Multiplicity           Mult            ....    1
 Number of Electrons    NEL             ....  134
 Basis Dimension        Dim             ....  322

ORBITAL ENERGIES
----------------

  NO   OCC          E(Eh)            E(eV)
   0   2.0000     -88.970478     -2421.0098
   1   2.0000     -88.964797     -2420.8552
   2   2.0000     -10.338007      -281.3115
   3   2.0000     -10.333028      -281.1760
   4   2.0000     -10.322027      -280.8766
   5   2.0000     -10.315198      -280.6908
   6   2.0000     -10.310171      -280.5540
   7   2.0000     -10.305093      -280.4158
   8   2.0000     -10.294119      -280.1172
   9   2.0000     -10.293343      -280.0961
  10   2.0000     -10.292896      -280.0839
  11   2.0000     -10.287247      -279.9302
  12   2.0000     -10.287226      -279.9297
  13   2.0000     -10.280665      -279.7511
  14   2.0000     -10.277749      -279.6718
  15   2.0000     -10.271910      -279.5129
  16   2.0000      -8.084510      -219.9907
  17   2.0000      -8.078846      -219.8366
  18   2.0000      -6.043007      -164.4386
  19   2.0000      -6.038912      -164.3271
  20   2.0000      -6.037442      -164.2872
  21   2.0000      -6.035532      -164.2352
  22   2.0000      -6.033400      -164.1772
  23   2.0000      -6.029591      -164.0735
  24   2.0000      -1.003654       -27.3108
  25   2.0000      -0.982320       -26.7303
  26   2.0000      -0.918497       -24.9936
  27   2.0000      -0.909308       -24.7435
  28   2.0000      -0.868322       -23.6282
  29   2.0000      -0.850906       -23.1543
  30   2.0000      -0.845374       -23.0038
  31   2.0000      -0.815425       -22.1888
  32   2.0000      -0.784996       -21.3608
  33   2.0000      -0.774415       -21.0729
  34   2.0000      -0.711021       -19.3479
  35   2.0000      -0.710559       -19.3353
  36   2.0000      -0.702255       -19.1093
  37   2.0000      -0.660297       -17.9676
  38   2.0000      -0.642696       -17.4887
  39   2.0000      -0.616127       -16.7657
  40   2.0000      -0.601378       -16.3643
  41   2.0000      -0.573366       -15.6021
  42   2.0000      -0.570619       -15.5273
  43   2.0000      -0.555783       -15.1236
  44   2.0000      -0.541406       -14.7324
  45   2.0000      -0.528381       -14.3780
  46   2.0000      -0.517911       -14.0931
  47   2.0000      -0.512798       -13.9539
  48   2.0000      -0.508471       -13.8362
  49   2.0000      -0.504498       -13.7281
  50   2.0000      -0.488110       -13.2822
  51   2.0000      -0.478017       -13.0075
  52   2.0000      -0.475489       -12.9387
  53   2.0000      -0.461707       -12.5637
  54   2.0000      -0.457962       -12.4618
  55   2.0000      -0.445406       -12.1201
  56   2.0000      -0.444040       -12.0830
  57   2.0000      -0.442374       -12.0376
  58   2.0000      -0.433256       -11.7895
  59   2.0000      -0.424475       -11.5506
  60   2.0000      -0.420256       -11.4358
  61   2.0000      -0.412192       -11.2163
  62   2.0000      -0.411167       -11.1884
  63   2.0000      -0.350450        -9.5362
  64   2.0000      -0.334949        -9.1144
  65   2.0000      -0.330852        -9.0029
  66   2.0000      -0.287746        -7.8300
  67   0.0000       0.017824         0.4850
  68   0.0000       0.065827         1.7913
  69   0.0000       0.110014         2.9936
  70   0.0000       0.119707         3.2574
  71   0.0000       0.123308         3.3554

MULLIKEN ATOMIC CHARGES
-----------------------
   0 S :    0.115293
   1 C :   -0.115291
   2 C :   -0.086774
   3 C :   -0.007288
   4 C :   -0.135204
   5 H :    0.036888
   6 C :    0.035170
   7 H :    0.035740
   8 H :    0.019373
   9 C :   -0.043358
  10 H :    0.007781
  11 H :    0.029568
  12 C :   -0.027810
  13 H :    0.039141
  14 H :    0.002239
  15 H :    0.042557
  16 S :    0.087856
  17 C :   -0.057862
  18 C :   -0.038033
  19 C :   -0.029793
  20 C :   -0.156328
  21 H :    0.024716
  22 C :    0.096451
  23 H :   -0.013475
  24 H :    0.016757
  25 C :   -0.035108
  26 H :    0.027881
  27 H :    0.029315
  28 C :   -0.064550
  29 H :    0.035024
  30 H :    0.016158
  31 H :    0.027766
  32 H :    0.049328
  33 H :    0.035870
Sum of atomic charges:    0.0000000

LOEWDIN ATOMIC CHARGES
----------------------
   0 S :    0.410041
   1 C :   -0.191937
   2 C :   -0.065463
   3 C :   -0.076232
   4 C :   -0.196161
   5 H :    0.038948
   6 C :   -0.033987
   7 H :    0.032196
   8 H :    0.034225
   9 C :   -0.026244
  10 H :    0.005957
  11 H :    0.024806
  12 C :   -0.058813
  13 H :    0.036084
  14 H :    0.009665
  15 H :    0.025608
  16 S :    0.383064
  17 C :   -0.169913
  18 C :   -0.076730
  19 C :   -0.045046
  20 C :   -0.181110
  21 H :    0.035069
  22 C :   -0.031143
  23 H :    0.014619
  24 H :    0.040036
  25 C :   -0.033495
  26 H :    0.022894
  27 H :    0.026308
  28 C :   -0.069988
  29 H :    0.027577
  30 H :    0.017832
  31 H :    0.025042
  32 H :    0.026588
  33 H :    0.019702

  Mayer bond orders larger than 0.100000
B(  0-S ,  1-C ) :   1.1532 B(  0-S ,  4-C ) :   1.1575 B(  1-C ,  2-C ) :   1.5397
B(  1-C ,  4-C ) :   0.1137 B(  1-C , 32-H ) :   0.9769 B(  2-C ,  3-C ) :   1.2898
B(  2-C ,  6-C ) :   1.0287 B(  3-C ,  4-C ) :   1.5502 B(  3-C ,  5-H ) :   0.9776
B(  4-C , 20-C ) :   1.0701 B(  6-C ,  7-H ) :   0.9395 B(  6-C ,  8-H ) :   0.9436
B(  6-C ,  9-C ) :   1.0656 B(  9-C , 10-H ) :   0.9579 B(  9-C , 11-H ) :   0.9596
B(  9-C , 12-C ) :   1.0611 B( 12-C , 13-H ) :   0.9734 B( 12-C , 14-H ) :   0.9767
B( 12-C , 15-H ) :   0.9770 B( 16-S , 17-C ) :   1.1560 B( 16-S , 20-C ) :   1.1244
B( 17-C , 18-C ) :   1.6040 B( 17-C , 20-C ) :   0.1065 B( 17-C , 33-H ) :   0.9749
B( 18-C , 19-C ) :   1.2498 B( 18-C , 21-H ) :   0.9879 B( 19-C , 20-C ) :   1.5593
B( 19-C , 22-C ) :   1.0359 B( 22-C , 23-H ) :   0.9348 B( 22-C , 24-H ) :   0.9205
B( 22-C , 25-C ) :   1.0728 B( 25-C , 26-H ) :   0.9494 B( 25-C , 27-H ) :   0.9532
B( 25-C , 28-C ) :   1.0766 B( 28-C , 29-H ) :   0.9750 B( 28-C , 30-H ) :   0.9732
B( 28-C , 31-H ) :   0.9748

Dispersion correction           -0.014594174
FINAL SINGLE POINT ENERGY     -1339.857486747014

DIPOLE MOMENT
-------------
                                X             Y             Z
Electronic contribution:     21.05362      23.82072      -1.28190
Nuclear contribution   :    -21.35270     -24.33476       1.45978
                        -----------------------------------------
Total Dipole Moment    :     -0.29908      -0.51404       0.17788
                        -----------------------------------------
Magnitude (a.u.)       :      0.62075
Magnitude (Debye)      :      1.57782

Rotational constants in cm-1:     0.017302     0.009850     0.006694
Rotational constants in MHz :   518.687247   295.288234   200.688996

                             ****ORCA TERMINATED NORMALLY****
TOTAL RUN TIME: 0 days 0 hours 0 minutes 30 seconds 791 msec
