                         Program Version 4.2.1 -  RELEASE  -
|  1> ! wB97X-D3 SP def2-SVP
|  2> %pal
|  3> nprocs 16
|  4> end
|  5>
|  6> * xyz 0 1
|  7> S 	 -7.62447 	 36.1084 	 32.8381
|  8> C 	 -7.27419 	 35.7767 	 31.1327
|  9> C 	 -8.29427 	 36.3794 	 30.3833
| 10> C 	 -9.42585 	 36.7854 	 31.1443
| 11> C 	 -9.1639 	 36.646 	 32.4976
| 12> H 	 -10.4011 	 37.0519 	 30.7755
| 13> C 	 -8.1857 	 36.6219 	 28.8897
| 14> H 	 -9.08828 	 36.7478 	 28.4082
| 15> H 	 -7.72989 	 35.7673 	 28.4608
| 16> C 	 -7.42801 	 37.8532 	 28.5359
| 17> H 	 -7.69413 	 38.6887 	 29.1579
| 18> H 	 -6.37005 	 37.6526 	 28.6791
| 19> C 	 -7.62782 	 38.3596 	 27.0679
| 20> H 	 -6.86685 	 39.0281 	 26.748
| 21> H 	 -7.65801 	 37.5415 	 26.3537
| 22> H 	 -8.5455 	 38.8671 	 27.0412
| 23> S 	 -9.24309 	 38.8195 	 34.0819
| 24> C 	 -10.4917 	 38.8973 	 35.3299
| 25> C 	 -11.3933 	 37.8606 	 35.2681
| 26> C 	 -11.0602 	 36.8506 	 34.311
| 27> C 	 -9.89402 	 37.2218 	 33.6082
| 28> H 	 -12.2357 	 37.7905 	 35.9514
| 29> C 	 -11.9448 	 35.65 	 34.1484
| 30> H 	 -12.1915 	 35.2901 	 35.1977
| 31> H 	 -11.3196 	 34.8286 	 33.6225
| 32> C 	 -13.1702 	 36.0201 	 33.2143
| 33> H 	 -13.7376 	 35.0962 	 33.1288
| 34> H 	 -12.7486 	 36.2216 	 32.284
| 35> C 	 -14.1881 	 37.0583 	 33.7665
| 36> H 	 -14.5144 	 36.7287 	 34.7437
| 37> H 	 -15.1789 	 37.1729 	 33.1952
| 38> H 	 -13.7253 	 38.0908 	 33.8554
| 39> H 	 -6.3093 	 35.4718 	 30.7983
| 40> H 	 -10.5785 	 39.7336 	 35.9418
| 41> *
| 42>
| 43>                          ****END OF INPUT****

CARTESIAN COORDINATES (ANGSTROEM)
---------------------------------
  S     -7.624470   36.108400   32.838100
  C     -7.274190   35.776700   31.132700
  C     -8.294270   36.379400   30.383300
  C     -9.425850   36.785400   31.144300
  C     -9.163900   36.646000   32.497600
  H    -10.401100   37.051900   30.775500
  C     -8.185700   36.621900   28.889700
  H     -9.088280   36.747800   28.408200
  H     -7.729890   35.767300   28.460800
  C     -7.428010   37.853200   28.535900
  H     -7.694130   38.688700   29.157900
  H     -6.370050   37.652600   28.679100
  C     -7.627820   38.359600   27.067900
  H     -6.866850   39.028100   26.748000
  H     -7.658010   37.541500   26.353700
  H     -8.545500   38.867100   27.041200
  S     -9.243090   38.819500   34.081900
  C    -10.491700   38.897300   35.329900
  C    -11.393300   37.860600   35.268100
  C    -11.060200   36.850600   34.311000
  C     -9.894020   37.221800   33.608200
  H    -12.235700   37.790500   35.951400
  C    -11.944800   35.650000   34.148400
  H    -12.191500   35.290100   35.197700
  H    -11.319600   34.828600   33.622500
  C    -13.170200   36.020100   33.214300
  H    -13.737600   35.096200   33.128800
  H    -12.748600   36.221600   32.284000
  C    -14.188100   37.058300   33.766500
  H    -14.514400   36.728700   34.743700
  H    -15.178900   37.172900   33.195200
  H    -13.725300   38.090800   33.855400
  H     -6.309300   35.471800   30.798300
  H    -10.578500   39.733600   35.941800

 Total Charge           Charge          ....    0
 Multiplicity           Mult            ....    1
 Number of Electrons    NEL             ....  134
 Basis Dimension        Dim             ....  322

ORBITAL ENERGIES
----------------

  NO   OCC          E(Eh)            E(eV)
   0   2.0000     -88.964242     -2420.8401
   1   2.0000     -88.962856     -2420.8024
   2   2.0000     -10.326234      -280.9911
   3   2.0000     -10.320027      -280.8222
   4   2.0000     -10.312435      -280.6156
   5   2.0000     -10.311887      -280.6007
   6   2.0000     -10.306982      -280.4672
   7   2.0000     -10.304248      -280.3928
   8   2.0000     -10.302973      -280.3581
   9   2.0000     -10.292130      -280.0631
  10   2.0000     -10.291501      -280.0460
  11   2.0000     -10.290232      -280.0114
  12   2.0000     -10.290210      -280.0109
  13   2.0000     -10.278256      -279.6856
  14   2.0000     -10.276556      -279.6393
  15   2.0000     -10.270607      -279.4774
  16   2.0000      -8.078993      -219.8406
  17   2.0000      -8.078341      -219.8228
  18   2.0000      -6.037263      -164.2823
  19   2.0000      -6.036764      -164.2687
  20   2.0000      -6.033154      -164.1705
  21   2.0000      -6.033106      -164.1692
  22   2.0000      -6.030038      -164.0857
  23   2.0000      -6.029063      -164.0591
  24   2.0000      -1.011025       -27.5114
  25   2.0000      -0.979572       -26.6555
  26   2.0000      -0.918639       -24.9974
  27   2.0000      -0.903949       -24.5977
  28   2.0000      -0.867495       -23.6057
  29   2.0000      -0.846462       -23.0334
  30   2.0000      -0.843792       -22.9608
  31   2.0000      -0.812347       -22.1051
  32   2.0000      -0.786509       -21.4020
  33   2.0000      -0.769856       -20.9488
  34   2.0000      -0.708675       -19.2840
  35   2.0000      -0.701096       -19.0778
  36   2.0000      -0.689663       -18.7667
  37   2.0000      -0.661872       -18.0104
  38   2.0000      -0.649164       -17.6647
  39   2.0000      -0.616949       -16.7880
  40   2.0000      -0.591835       -16.1047
  41   2.0000      -0.576285       -15.6815
  42   2.0000      -0.560969       -15.2647
  43   2.0000      -0.552851       -15.0438
  44   2.0000      -0.534516       -14.5449
  45   2.0000      -0.523882       -14.2556
  46   2.0000      -0.518007       -14.0957
  47   2.0000      -0.513186       -13.9645
  48   2.0000      -0.509119       -13.8538
  49   2.0000      -0.493827       -13.4377
  50   2.0000      -0.489662       -13.3244
  51   2.0000      -0.481779       -13.1099
  52   2.0000      -0.473069       -12.8729
  53   2.0000      -0.462410       -12.5828
  54   2.0000      -0.455622       -12.3981
  55   2.0000      -0.451479       -12.2854
  56   2.0000      -0.442660       -12.0454
  57   2.0000      -0.436131       -11.8677
  58   2.0000      -0.434633       -11.8270
  59   2.0000      -0.429726       -11.6934
  60   2.0000      -0.418590       -11.3904
  61   2.0000      -0.416239       -11.3264
  62   2.0000      -0.414509       -11.2794
  63   2.0000      -0.337913        -9.1951
  64   2.0000      -0.324730        -8.8363
  65   2.0000      -0.322053        -8.7635
  66   2.0000      -0.301744        -8.2109
  67   0.0000       0.040529         1.1028
  68   0.0000       0.054097         1.4721
  69   0.0000       0.111116         3.0236
  70   0.0000       0.117229         3.1900
  71   0.0000       0.130946         3.5632

MULLIKEN ATOMIC CHARGES
-----------------------
   0 S :    0.114763
   1 C :   -0.106767
   2 C :   -0.115290
   3 C :    0.052701
   4 C :   -0.165856
   5 H :    0.010851
   6 C :    0.142598
   7 H :   -0.014883
   8 H :    0.013339
   9 C :   -0.088607
  10 H :    0.028590
  11 H :    0.019376
  12 C :   -0.028208
  13 H :    0.030051
  14 H :    0.022991
  15 H :    0.023363
  16 S :    0.107887
  17 C :   -0.060366
  18 C :   -0.037017
  19 C :   -0.007934
  20 C :   -0.201503
  21 H :    0.017836
  22 C :    0.001502
  23 H :    0.046011
  24 H :    0.051713
  25 C :   -0.013912
  26 H :    0.031078
  27 H :    0.016410
  28 C :   -0.099659
  29 H :    0.024558
  30 H :    0.050857
  31 H :    0.059709
  32 H :    0.042010
  33 H :    0.031809
Sum of atomic charges:   -0.0000000

LOEWDIN ATOMIC CHARGES
----------------------
   0 S :    0.446264
   1 C :   -0.199136
   2 C :   -0.047353
   3 C :   -0.066848
   4 C :   -0.227752
   5 H :    0.031046
   6 C :   -0.026702
   7 H :    0.016526
   8 H :    0.028016
   9 C :   -0.033771
  10 H :    0.023232
  11 H :    0.018793
  12 C :   -0.057249
  13 H :    0.024275
  14 H :    0.022263
  15 H :    0.018259
  16 S :    0.384870
  17 C :   -0.166780
  18 C :   -0.069162
  19 C :   -0.055994
  20 C :   -0.196391
  21 H :    0.031122
  22 C :   -0.037398
  23 H :    0.037136
  24 H :    0.044958
  25 C :   -0.028135
  26 H :    0.026188
  27 H :    0.015024
  28 C :   -0.078955
  29 H :    0.020307
  30 H :    0.037279
  31 H :    0.032682
  32 H :    0.020599
  33 H :    0.012791

  Mayer bond orders larger than 0.100000
B(  0-S ,  1-C ) :   1.1341 B(  0-S ,  4-C ) :   1.2143 B(  1-C ,  2-C ) :   1.5770
B(  1-C ,  4-C ) :   0.1009 B(  1-C , 32-H ) :   0.9792 B(  2-C ,  3-C ) :   1.2563
B(  2-C ,  6-C ) :   1.0361 B(  3-C ,  4-C ) :   1.5337 B(  3-C ,  5-H ) :   1.0035
B(  4-C , 20-C ) :   0.9935 B(  6-C ,  7-H ) :   0.9370 B(  6-C ,  8-H ) :   0.9277
B(  6-C ,  9-C ) :   1.0663 B(  9-C , 10-H ) :   0.9594 B(  9-C , 11-H ) :   0.9563
B(  9-C , 12-C ) :   1.0812 B( 12-C , 13-H ) :   0.9756 B( 12-C , 14-H ) :   0.9756
B( 12-C , 15-H ) :   0.9764 B( 16-S , 17-C ) :   1.1396 B( 16-S , 20-C ) :   1.1470
B( 17-C , 18-C ) :   1.6263 B( 17-C , 20-C ) :   0.1013 B( 17-C , 33-H ) :   0.9746
B( 18-C , 19-C ) :   1.2237 B( 18-C , 21-H ) :   0.9822 B( 19-C , 20-C ) :   1.6138
B( 19-C , 22-C ) :   1.0409 B( 22-C , 23-H ) :   0.9397 B( 22-C , 24-H ) :   0.9340
B( 22-C , 25-C ) :   1.0593 B( 25-C , 26-H ) :   0.9565 B( 25-C , 27-H ) :   0.9560
B( 25-C , 28-C ) :   1.0721 B( 28-C , 29-H ) :   0.9724 B( 28-C , 30-H ) :   0.9730
B( 28-C , 31-H ) :   0.9690

Dispersion correction           -0.014376567
FINAL SINGLE POINT ENERGY     -1339.865200672582

DIPOLE MOMENT
-------------
                                X             Y             Z
Electronic contribution:     12.78393       0.51199      17.27883
Nuclear contribution   :    -13.20952      -0.47019     -17.56997
                        -----------------------------------------
Total Dipole Moment    :     -0.42559       0.04180      -0.29114
                        -----------------------------------------
Magnitude (a.u.)       :      0.51734
Magnitude (Debye)      :      1.31497

Rotational constants in cm-1:     0.021186     0.007508     0.006879
Rotational constants in MHz :   635.149182   225.085471   206.221845

                             ****ORCA TERMINATED NORMALLY****
TOTAL RUN TIME: 0 days 0 hours 0 minutes 33 seconds 276 msec
