                         Program Version 4.2.1 -  RELEASE  -
|  1> ! wB97X-D3 SP def2-SVP
|  2> %pal
|  3> nprocs 16
|  4> end
|  5>
|  6> * xyz 0 1
|  7> S 	 10.584 	 -8.45881 	 93.4062
|  8> C 	 11.9703 	 -8.60378 	 94.5175
|  9> C 	 13.1193 	 -8.03894 	 93.9842
| 10> C 	 12.8446 	 -7.37991 	 92.7925
| 11> C 	 11.5025 	 -7.33239 	 92.3753
| 12> H 	 13.58 	 -6.93123 	 92.0792
| 13> C 	 14.5463 	 -8.26307 	 94.3209
| 14> H 	 15.1842 	 -8.46924 	 93.4256
| 15> H 	 14.6936 	 -9.28138 	 94.7811
| 16> C 	 15.2255 	 -7.2163 	 95.2481
| 17> H 	 16.2538 	 -7.49491 	 95.2868
| 18> H 	 15.1485 	 -6.16361 	 94.9726
| 19> C 	 14.8992 	 -7.52596 	 96.7072
| 20> H 	 15.1953 	 -8.56919 	 96.9244
| 21> H 	 15.2537 	 -6.87343 	 97.5412
| 22> H 	 13.846 	 -7.43855 	 96.7455
| 23> S 	 10.0649 	 -7.74367 	 90.0796
| 24> C 	 9.68724 	 -6.44445 	 88.9603
| 25> C 	 10.1262 	 -5.27825 	 89.5474
| 26> C 	 10.8636 	 -5.42179 	 90.7595
| 27> C 	 10.9706 	 -6.73469 	 91.1576
| 28> H 	 9.94826 	 -4.3317 	 88.9358
| 29> C 	 11.4023 	 -4.28666 	 91.615
| 30> H 	 12.0166 	 -3.76275 	 90.8729
| 31> H 	 12.1828 	 -4.62016 	 92.3558
| 32> C 	 10.4883 	 -3.39459 	 92.4468
| 33> H 	 10.5581 	 -3.72499 	 93.4449
| 34> H 	 9.48627 	 -3.73482 	 92.1074
| 35> C 	 10.8861 	 -1.92319 	 92.3073
| 36> H 	 10.1832 	 -1.30757 	 92.8679
| 37> H 	 10.828 	 -1.60932 	 91.2102
| 38> H 	 11.8415 	 -1.60883 	 92.5788
| 39> H 	 11.9335 	 -9.06748 	 95.4656
| 40> H 	 9.20332 	 -6.50354 	 87.9971
| 41> *
| 42>
| 43>                          ****END OF INPUT****

CARTESIAN COORDINATES (ANGSTROEM)
---------------------------------
  S     10.584000   -8.458810   93.406200
  C     11.970300   -8.603780   94.517500
  C     13.119300   -8.038940   93.984200
  C     12.844600   -7.379910   92.792500
  C     11.502500   -7.332390   92.375300
  H     13.580000   -6.931230   92.079200
  C     14.546300   -8.263070   94.320900
  H     15.184200   -8.469240   93.425600
  H     14.693600   -9.281380   94.781100
  C     15.225500   -7.216300   95.248100
  H     16.253800   -7.494910   95.286800
  H     15.148500   -6.163610   94.972600
  C     14.899200   -7.525960   96.707200
  H     15.195300   -8.569190   96.924400
  H     15.253700   -6.873430   97.541200
  H     13.846000   -7.438550   96.745500
  S     10.064900   -7.743670   90.079600
  C      9.687240   -6.444450   88.960300
  C     10.126200   -5.278250   89.547400
  C     10.863600   -5.421790   90.759500
  C     10.970600   -6.734690   91.157600
  H      9.948260   -4.331700   88.935800
  C     11.402300   -4.286660   91.615000
  H     12.016600   -3.762750   90.872900
  H     12.182800   -4.620160   92.355800
  C     10.488300   -3.394590   92.446800
  H     10.558100   -3.724990   93.444900
  H      9.486270   -3.734820   92.107400
  C     10.886100   -1.923190   92.307300
  H     10.183200   -1.307570   92.867900
  H     10.828000   -1.609320   91.210200
  H     11.841500   -1.608830   92.578800
  H     11.933500   -9.067480   95.465600
  H      9.203320   -6.503540   87.997100

 Total Charge           Charge          ....    0
 Multiplicity           Mult            ....    1
 Number of Electrons    NEL             ....  134
 Basis Dimension        Dim             ....  322

ORBITAL ENERGIES
----------------

  NO   OCC          E(Eh)            E(eV)
   0   2.0000     -88.970805     -2421.0187
   1   2.0000     -88.962436     -2420.7909
   2   2.0000     -10.334123      -281.2058
   3   2.0000     -10.325881      -280.9815
   4   2.0000     -10.319894      -280.8186
   5   2.0000     -10.318551      -280.7820
   6   2.0000     -10.303642      -280.3764
   7   2.0000     -10.300452      -280.2895
   8   2.0000     -10.300394      -280.2880
   9   2.0000     -10.299562      -280.2653
  10   2.0000     -10.295197      -280.1466
  11   2.0000     -10.286402      -279.9072
  12   2.0000     -10.285883      -279.8931
  13   2.0000     -10.282490      -279.8008
  14   2.0000     -10.279107      -279.7087
  15   2.0000     -10.276447      -279.6363
  16   2.0000      -8.084266      -219.9840
  17   2.0000      -8.077653      -219.8041
  18   2.0000      -6.042855      -164.4345
  19   2.0000      -6.038980      -164.3290
  20   2.0000      -6.036175      -164.2527
  21   2.0000      -6.034980      -164.2202
  22   2.0000      -6.031962      -164.1380
  23   2.0000      -6.028470      -164.0430
  24   2.0000      -1.008425       -27.4406
  25   2.0000      -0.985807       -26.8252
  26   2.0000      -0.914522       -24.8854
  27   2.0000      -0.907843       -24.7037
  28   2.0000      -0.872269       -23.7357
  29   2.0000      -0.852566       -23.1995
  30   2.0000      -0.845463       -23.0062
  31   2.0000      -0.812650       -22.1133
  32   2.0000      -0.779837       -21.2204
  33   2.0000      -0.773577       -21.0501
  34   2.0000      -0.711633       -19.3645
  35   2.0000      -0.701196       -19.0805
  36   2.0000      -0.700004       -19.0481
  37   2.0000      -0.656596       -17.8669
  38   2.0000      -0.642968       -17.4960
  39   2.0000      -0.619557       -16.8590
  40   2.0000      -0.596317       -16.2266
  41   2.0000      -0.578133       -15.7318
  42   2.0000      -0.553564       -15.0632
  43   2.0000      -0.544517       -14.8171
  44   2.0000      -0.542206       -14.7542
  45   2.0000      -0.529758       -14.4154
  46   2.0000      -0.522687       -14.2230
  47   2.0000      -0.515217       -14.0198
  48   2.0000      -0.505374       -13.7519
  49   2.0000      -0.500794       -13.6273
  50   2.0000      -0.488083       -13.2814
  51   2.0000      -0.479788       -13.0557
  52   2.0000      -0.468931       -12.7603
  53   2.0000      -0.465459       -12.6658
  54   2.0000      -0.464372       -12.6362
  55   2.0000      -0.445003       -12.1092
  56   2.0000      -0.439450       -11.9580
  57   2.0000      -0.438538       -11.9332
  58   2.0000      -0.436038       -11.8652
  59   2.0000      -0.424608       -11.5542
  60   2.0000      -0.413704       -11.2574
  61   2.0000      -0.405776       -11.0417
  62   2.0000      -0.396592       -10.7918
  63   2.0000      -0.348466        -9.4823
  64   2.0000      -0.333715        -9.0808
  65   2.0000      -0.329184        -8.9575
  66   2.0000      -0.291287        -7.9263
  67   0.0000       0.026533         0.7220
  68   0.0000       0.057921         1.5761
  69   0.0000       0.102256         2.7825
  70   0.0000       0.124603         3.3906
  71   0.0000       0.132370         3.6020

MULLIKEN ATOMIC CHARGES
-----------------------
   0 S :    0.113244
   1 C :   -0.111196
   2 C :   -0.009546
   3 C :    0.001327
   4 C :   -0.154226
   5 H :    0.034113
   6 C :   -0.022131
   7 H :    0.043591
   8 H :    0.023643
   9 C :   -0.026608
  10 H :    0.018758
  11 H :    0.040982
  12 C :   -0.063921
  13 H :    0.026345
  14 H :    0.044335
  15 H :    0.009369
  16 S :    0.092156
  17 C :   -0.099636
  18 C :   -0.063845
  19 C :   -0.037498
  20 C :   -0.155199
  21 H :    0.042735
  22 C :    0.017801
  23 H :    0.024963
  24 H :    0.026451
  25 C :   -0.008818
  26 H :    0.023968
  27 H :    0.032697
  28 C :   -0.052372
  29 H :    0.032177
  30 H :    0.033002
  31 H :    0.023852
  32 H :    0.037472
  33 H :    0.062015
Sum of atomic charges:    0.0000000

LOEWDIN ATOMIC CHARGES
----------------------
   0 S :    0.388815
   1 C :   -0.173846
   2 C :   -0.074971
   3 C :   -0.060559
   4 C :   -0.187359
   5 H :    0.039468
   6 C :   -0.036556
   7 H :    0.040892
   8 H :    0.036459
   9 C :   -0.038948
  10 H :    0.022346
  11 H :    0.026044
  12 C :   -0.069222
  13 H :    0.025284
  14 H :    0.030319
  15 H :    0.012825
  16 S :    0.405140
  17 C :   -0.185545
  18 C :   -0.082037
  19 C :   -0.066100
  20 C :   -0.203193
  21 H :    0.042913
  22 C :   -0.041710
  23 H :    0.029044
  24 H :    0.036412
  25 C :   -0.038004
  26 H :    0.021348
  27 H :    0.030888
  28 C :   -0.060837
  29 H :    0.026078
  30 H :    0.032356
  31 H :    0.016748
  32 H :    0.020283
  33 H :    0.035227

  Mayer bond orders larger than 0.100000
B(  0-S ,  1-C ) :   1.1461 B(  0-S ,  4-C ) :   1.1399 B(  1-C ,  2-C ) :   1.5742
B(  1-C ,  4-C ) :   0.1129 B(  1-C , 32-H ) :   0.9719 B(  2-C ,  3-C ) :   1.2694
B(  2-C ,  6-C ) :   1.0116 B(  3-C ,  4-C ) :   1.5576 B(  3-C ,  5-H ) :   0.9834
B(  4-C , 20-C ) :   1.0505 B(  6-C ,  7-H ) :   0.9511 B(  6-C ,  8-H ) :   0.9414
B(  6-C ,  9-C ) :   1.0674 B(  9-C , 10-H ) :   0.9544 B(  9-C , 11-H ) :   0.9616
B(  9-C , 12-C ) :   1.0586 B( 12-C , 13-H ) :   0.9756 B( 12-C , 14-H ) :   0.9747
B( 12-C , 15-H ) :   0.9791 B( 16-S , 17-C ) :   1.1508 B( 16-S , 20-C ) :   1.1432
B( 17-C , 18-C ) :   1.6081 B( 17-C , 33-H ) :   0.9716 B( 18-C , 19-C ) :   1.2401
B( 18-C , 21-H ) :   0.9793 B( 19-C , 20-C ) :   1.5869 B( 19-C , 22-C ) :   1.0483
B( 22-C , 23-H ) :   0.9415 B( 22-C , 24-H ) :   0.9315 B( 22-C , 25-C ) :   1.0343
B( 25-C , 26-H ) :   0.9571 B( 25-C , 27-H ) :   0.9650 B( 25-C , 28-C ) :   1.0681
B( 28-C , 29-H ) :   0.9739 B( 28-C , 30-H ) :   0.9772 B( 28-C , 31-H ) :   0.9783

Dispersion correction           -0.013909625
FINAL SINGLE POINT ENERGY     -1339.848155973337

DIPOLE MOMENT
-------------
                                X             Y             Z
Electronic contribution:    -16.27989     -17.59829     -14.53626
Nuclear contribution   :     16.75558      17.94327      14.60418
                        -----------------------------------------
Total Dipole Moment    :      0.47569       0.34497       0.06791
                        -----------------------------------------
Magnitude (a.u.)       :      0.59153
Magnitude (Debye)      :      1.50354

Rotational constants in cm-1:     0.018276     0.008409     0.006508
Rotational constants in MHz :   547.903295   252.091084   195.113097

                             ****ORCA TERMINATED NORMALLY****
TOTAL RUN TIME: 0 days 0 hours 0 minutes 33 seconds 719 msec
