                         Program Version 4.2.1 -  RELEASE  -
|  1> ! wB97X-D3 SP def2-SVP
|  2> %pal
|  3> nprocs 16
|  4> end
|  5>
|  6> * xyz 0 1
|  7> S 	 -95.044 	 52.5402 	 124.074
|  8> C 	 -93.7211 	 51.7214 	 123.227
|  9> C 	 -93.7897 	 50.3545 	 123.288
| 10> C 	 -95.1144 	 50.0185 	 123.764
| 11> C 	 -95.9149 	 51.0882 	 124.18
| 12> H 	 -95.5865 	 49.0819 	 123.875
| 13> C 	 -92.6687 	 49.4549 	 122.89
| 14> H 	 -92.814 	 48.4446 	 123.488
| 15> H 	 -91.7068 	 49.8697 	 123.265
| 16> C 	 -92.6278 	 49.1298 	 121.351
| 17> H 	 -93.5269 	 48.505 	 121.133
| 18> H 	 -92.6187 	 50.0054 	 120.732
| 19> C 	 -91.4376 	 48.3192 	 120.828
| 20> H 	 -91.5852 	 48.1003 	 119.831
| 21> H 	 -90.4591 	 48.8584 	 120.792
| 22> H 	 -91.269 	 47.2428 	 121.153
| 23> S 	 -98.3553 	 51.9848 	 123.379
| 24> C 	 -99.7811 	 51.314 	 124.045
| 25> C 	 -99.5087 	 50.5424 	 125.198
| 26> C 	 -98.0982 	 50.3165 	 125.381
| 27> C 	 -97.3388 	 51.0391 	 124.449
| 28> H 	 -100.304 	 50.1822 	 125.712
| 29> C 	 -97.4801 	 49.5166 	 126.464
| 30> H 	 -96.5883 	 49.9775 	 126.913
| 31> H 	 -97.1527 	 48.5206 	 126.052
| 32> C 	 -98.3115 	 49.1809 	 127.729
| 33> H 	 -99.2057 	 48.7154 	 127.338
| 34> H 	 -98.6302 	 50.1284 	 128.136
| 35> C 	 -97.7118 	 48.1882 	 128.873
| 36> H 	 -97.8548 	 47.1568 	 128.579
| 37> H 	 -98.2283 	 48.2741 	 129.815
| 38> H 	 -96.6965 	 48.3432 	 129.044
| 39> H 	 -92.9451 	 52.3008 	 122.849
| 40> H 	 -100.744 	 51.7852 	 123.65
| 41> *
| 42>
| 43>                          ****END OF INPUT****

CARTESIAN COORDINATES (ANGSTROEM)
---------------------------------
  S    -95.044000   52.540200  124.074000
  C    -93.721100   51.721400  123.227000
  C    -93.789700   50.354500  123.288000
  C    -95.114400   50.018500  123.764000
  C    -95.914900   51.088200  124.180000
  H    -95.586500   49.081900  123.875000
  C    -92.668700   49.454900  122.890000
  H    -92.814000   48.444600  123.488000
  H    -91.706800   49.869700  123.265000
  C    -92.627800   49.129800  121.351000
  H    -93.526900   48.505000  121.133000
  H    -92.618700   50.005400  120.732000
  C    -91.437600   48.319200  120.828000
  H    -91.585200   48.100300  119.831000
  H    -90.459100   48.858400  120.792000
  H    -91.269000   47.242800  121.153000
  S    -98.355300   51.984800  123.379000
  C    -99.781100   51.314000  124.045000
  C    -99.508700   50.542400  125.198000
  C    -98.098200   50.316500  125.381000
  C    -97.338800   51.039100  124.449000
  H    -100.304000   50.182200  125.712000
  C    -97.480100   49.516600  126.464000
  H    -96.588300   49.977500  126.913000
  H    -97.152700   48.520600  126.052000
  C    -98.311500   49.180900  127.729000
  H    -99.205700   48.715400  127.338000
  H    -98.630200   50.128400  128.136000
  C    -97.711800   48.188200  128.873000
  H    -97.854800   47.156800  128.579000
  H    -98.228300   48.274100  129.815000
  H    -96.696500   48.343200  129.044000
  H    -92.945100   52.300800  122.849000
  H    -100.744000   51.785200  123.650000

 Total Charge           Charge          ....    0
 Multiplicity           Mult            ....    1
 Number of Electrons    NEL             ....  134
 Basis Dimension        Dim             ....  322

ORBITAL ENERGIES
----------------

  NO   OCC          E(Eh)            E(eV)
   0   2.0000     -88.963095     -2420.8089
   1   2.0000     -88.962116     -2420.7822
   2   2.0000     -10.324165      -280.9348
   3   2.0000     -10.322969      -280.9023
   4   2.0000     -10.321219      -280.8546
   5   2.0000     -10.308511      -280.5089
   6   2.0000     -10.307460      -280.4802
   7   2.0000     -10.307111      -280.4708
   8   2.0000     -10.303699      -280.3779
   9   2.0000     -10.294779      -280.1352
  10   2.0000     -10.294581      -280.1298
  11   2.0000     -10.293647      -280.1044
  12   2.0000     -10.290823      -280.0275
  13   2.0000     -10.289590      -279.9940
  14   2.0000     -10.280365      -279.7429
  15   2.0000     -10.278717      -279.6981
  16   2.0000      -8.078780      -219.8348
  17   2.0000      -8.077819      -219.8086
  18   2.0000      -6.037015      -164.2755
  19   2.0000      -6.036156      -164.2522
  20   2.0000      -6.033020      -164.1668
  21   2.0000      -6.032264      -164.1462
  22   2.0000      -6.029893      -164.0817
  23   2.0000      -6.028638      -164.0476
  24   2.0000      -1.008359       -27.4388
  25   2.0000      -0.984450       -26.7882
  26   2.0000      -0.908675       -24.7263
  27   2.0000      -0.904318       -24.6078
  28   2.0000      -0.869141       -23.6505
  29   2.0000      -0.849149       -23.1065
  30   2.0000      -0.843881       -22.9632
  31   2.0000      -0.812032       -22.0965
  32   2.0000      -0.787364       -21.4253
  33   2.0000      -0.774962       -21.0878
  34   2.0000      -0.710576       -19.3358
  35   2.0000      -0.701216       -19.0810
  36   2.0000      -0.691860       -18.8265
  37   2.0000      -0.657002       -17.8779
  38   2.0000      -0.646651       -17.5963
  39   2.0000      -0.614560       -16.7230
  40   2.0000      -0.599301       -16.3078
  41   2.0000      -0.569392       -15.4939
  42   2.0000      -0.564678       -15.3657
  43   2.0000      -0.559154       -15.2154
  44   2.0000      -0.525925       -14.3111
  45   2.0000      -0.516394       -14.0518
  46   2.0000      -0.514903       -14.0112
  47   2.0000      -0.510931       -13.9031
  48   2.0000      -0.508277       -13.8309
  49   2.0000      -0.495697       -13.4886
  50   2.0000      -0.490571       -13.3491
  51   2.0000      -0.480442       -13.0735
  52   2.0000      -0.468994       -12.7620
  53   2.0000      -0.465458       -12.6658
  54   2.0000      -0.459159       -12.4943
  55   2.0000      -0.453710       -12.3461
  56   2.0000      -0.447663       -12.1815
  57   2.0000      -0.432993       -11.7824
  58   2.0000      -0.427181       -11.6242
  59   2.0000      -0.426731       -11.6119
  60   2.0000      -0.424406       -11.5487
  61   2.0000      -0.417833       -11.3698
  62   2.0000      -0.412275       -11.2186
  63   2.0000      -0.337043        -9.1714
  64   2.0000      -0.330216        -8.9856
  65   2.0000      -0.326889        -8.8951
  66   2.0000      -0.291560        -7.9338
  67   0.0000       0.032503         0.8844
  68   0.0000       0.065428         1.7804
  69   0.0000       0.103460         2.8153
  70   0.0000       0.128487         3.4963
  71   0.0000       0.133503         3.6328

MULLIKEN ATOMIC CHARGES
-----------------------
   0 S :    0.109622
   1 C :   -0.127937
   2 C :   -0.022528
   3 C :    0.047876
   4 C :   -0.178808
   5 H :   -0.015668
   6 C :    0.022748
   7 H :    0.045670
   8 H :    0.039578
   9 C :   -0.057593
  10 H :    0.039556
  11 H :    0.032828
  12 C :   -0.057124
  13 H :    0.008342
  14 H :    0.035299
  15 H :    0.033092
  16 S :    0.119689
  17 C :   -0.131609
  18 C :   -0.007845
  19 C :    0.005471
  20 C :   -0.165735
  21 H :   -0.016357
  22 C :    0.038226
  23 H :    0.041672
  24 H :    0.038712
  25 C :   -0.116674
  26 H :    0.025263
  27 H :    0.028804
  28 C :   -0.015795
  29 H :    0.030288
  30 H :    0.034623
  31 H :    0.023607
  32 H :    0.023828
  33 H :    0.088882
Sum of atomic charges:    0.0000000

LOEWDIN ATOMIC CHARGES
----------------------
   0 S :    0.413110
   1 C :   -0.172176
   2 C :   -0.062554
   3 C :   -0.054844
   4 C :   -0.220195
   5 H :    0.020491
   6 C :   -0.039744
   7 H :    0.045403
   8 H :    0.034075
   9 C :   -0.036280
  10 H :    0.033950
  11 H :    0.025232
  12 C :   -0.081531
  13 H :    0.017505
  14 H :    0.028676
  15 H :    0.032031
  16 S :    0.430374
  17 C :   -0.205371
  18 C :   -0.062448
  19 C :   -0.052077
  20 C :   -0.202539
  21 H :    0.013060
  22 C :   -0.041699
  23 H :    0.034868
  24 H :    0.036348
  25 C :   -0.037832
  26 H :    0.016843
  27 H :    0.019068
  28 C :   -0.054956
  29 H :    0.026570
  30 H :    0.029734
  31 H :    0.015896
  32 H :    0.009399
  33 H :    0.041615

  Mayer bond orders larger than 0.100000
B(  0-S ,  1-C ) :   1.1512 B(  0-S ,  4-C ) :   1.1569 B(  1-C ,  2-C ) :   1.5881
B(  1-C , 32-H ) :   0.9809 B(  2-C ,  3-C ) :   1.2190 B(  2-C ,  6-C ) :   1.0250
B(  3-C ,  4-C ) :   1.5795 B(  3-C ,  5-H ) :   1.0003 B(  4-C , 20-C ) :   1.0346
B(  6-C ,  7-H ) :   0.9418 B(  6-C ,  8-H ) :   0.9438 B(  6-C ,  9-C ) :   1.0544
B(  9-C , 10-H ) :   0.9557 B(  9-C , 11-H ) :   0.9580 B(  9-C , 12-C ) :   1.0883
B( 12-C , 13-H ) :   0.9668 B( 12-C , 14-H ) :   0.9732 B( 12-C , 15-H ) :   0.9713
B( 16-S , 17-C ) :   1.1961 B( 16-S , 20-C ) :   1.1630 B( 17-C , 18-C ) :   1.5498
B( 17-C , 20-C ) :   0.1059 B( 17-C , 33-H ) :   0.9573 B( 18-C , 19-C ) :   1.2468
B( 18-C , 21-H ) :   1.0122 B( 19-C , 20-C ) :   1.5639 B( 19-C , 22-C ) :   1.0522
B( 22-C , 23-H ) :   0.9369 B( 22-C , 24-H ) :   0.9231 B( 22-C , 25-C ) :   1.0682
B( 25-C , 26-H ) :   0.9537 B( 25-C , 27-H ) :   0.9644 B( 25-C , 28-C ) :   1.0648
B( 28-C , 29-H ) :   0.9780 B( 28-C , 30-H ) :   0.9766 B( 28-C , 31-H ) :   0.9810

Dispersion correction           -0.013227284
FINAL SINGLE POINT ENERGY     -1339.852183220043

DIPOLE MOMENT
-------------
                                X             Y             Z
Electronic contribution:    -11.30424      22.17535      -5.58868
Nuclear contribution   :     11.43300     -22.65717       5.63510
                        -----------------------------------------
Total Dipole Moment    :      0.12877      -0.48182       0.04642
                        -----------------------------------------
Magnitude (a.u.)       :      0.50089
Magnitude (Debye)      :      1.27315

Rotational constants in cm-1:     0.018225     0.007167     0.005976
Rotational constants in MHz :   546.363473   214.873688   179.165395

                             ****ORCA TERMINATED NORMALLY****
TOTAL RUN TIME: 0 days 0 hours 0 minutes 31 seconds 609 msec
