                         Program Version 4.2.1 -  RELEASE  -
|  1> ! wB97X-D3 SP def2-SVP
|  2> %pal
|  3> nprocs 16
|  4> end
|  5>
|  6> * xyz 0 1
|  7> S 	 38.4836 	 14.868 	 77.5501
|  8> C 	 38.6842 	 13.6137 	 76.329
|  9> C 	 39.87 	 13.0096 	 76.5055
| 10> C 	 40.6105 	 13.3631 	 77.6474
| 11> C 	 40.0318 	 14.4274 	 78.31
| 12> H 	 41.5368 	 12.8511 	 77.9999
| 13> C 	 40.3291 	 11.8838 	 75.5292
| 14> H 	 41.3596 	 12.0165 	 75.6889
| 15> H 	 39.994 	 12.2044 	 74.4828
| 16> C 	 39.9457 	 10.4678 	 75.9087
| 17> H 	 39.684 	 10.4118 	 76.9512
| 18> H 	 39.0471 	 10.3587 	 75.3195
| 19> C 	 40.9659 	 9.3694 	 75.5241
| 20> H 	 41.3327 	 9.57478 	 74.4911
| 21> H 	 41.6839 	 9.37685 	 76.2827
| 22> H 	 40.3666 	 8.46687 	 75.709
| 23> S 	 39.3156 	 15.8704 	 80.5306
| 24> C 	 40.5687 	 16.5762 	 81.5064
| 25> C 	 41.8456 	 16.2774 	 81.1124
| 26> C 	 41.8234 	 15.3534 	 80.0093
| 27> C 	 40.5415 	 15.1628 	 79.4736
| 28> H 	 42.7982 	 16.5375 	 81.6888
| 29> C 	 43.0846 	 14.8318 	 79.4153
| 30> H 	 42.8812 	 13.7443 	 79.2274
| 31> H 	 43.8003 	 14.7687 	 80.2179
| 32> C 	 43.5486 	 15.4009 	 78.0735
| 33> H 	 43.9825 	 16.378 	 78.3675
| 34> H 	 42.6366 	 15.5931 	 77.5422
| 35> C 	 44.5574 	 14.673 	 77.1827
| 36> H 	 44.1298 	 13.7772 	 76.655
| 37> H 	 45.5553 	 14.4262 	 77.5275
| 38> H 	 44.8653 	 15.3245 	 76.3778
| 39> H 	 38.0435 	 13.5374 	 75.4385
| 40> H 	 40.2708 	 17.1965 	 82.39
| 41> *
| 42>
| 43>                          ****END OF INPUT****

CARTESIAN COORDINATES (ANGSTROEM)
---------------------------------
  S     38.483600   14.868000   77.550100
  C     38.684200   13.613700   76.329000
  C     39.870000   13.009600   76.505500
  C     40.610500   13.363100   77.647400
  C     40.031800   14.427400   78.310000
  H     41.536800   12.851100   77.999900
  C     40.329100   11.883800   75.529200
  H     41.359600   12.016500   75.688900
  H     39.994000   12.204400   74.482800
  C     39.945700   10.467800   75.908700
  H     39.684000   10.411800   76.951200
  H     39.047100   10.358700   75.319500
  C     40.965900    9.369400   75.524100
  H     41.332700    9.574780   74.491100
  H     41.683900    9.376850   76.282700
  H     40.366600    8.466870   75.709000
  S     39.315600   15.870400   80.530600
  C     40.568700   16.576200   81.506400
  C     41.845600   16.277400   81.112400
  C     41.823400   15.353400   80.009300
  C     40.541500   15.162800   79.473600
  H     42.798200   16.537500   81.688800
  C     43.084600   14.831800   79.415300
  H     42.881200   13.744300   79.227400
  H     43.800300   14.768700   80.217900
  C     43.548600   15.400900   78.073500
  H     43.982500   16.378000   78.367500
  H     42.636600   15.593100   77.542200
  C     44.557400   14.673000   77.182700
  H     44.129800   13.777200   76.655000
  H     45.555300   14.426200   77.527500
  H     44.865300   15.324500   76.377800
  H     38.043500   13.537400   75.438500
  H     40.270800   17.196500   82.390000

 Total Charge           Charge          ....    0
 Multiplicity           Mult            ....    1
 Number of Electrons    NEL             ....  134
 Basis Dimension        Dim             ....  322

ORBITAL ENERGIES
----------------

  NO   OCC          E(Eh)            E(eV)
   0   2.0000     -88.967300     -2420.9233
   1   2.0000     -88.964091     -2420.8360
   2   2.0000     -10.336114      -281.2600
   3   2.0000     -10.330100      -281.0963
   4   2.0000     -10.321605      -280.8652
   5   2.0000     -10.310036      -280.5503
   6   2.0000     -10.306292      -280.4485
   7   2.0000     -10.302421      -280.3431
   8   2.0000     -10.296228      -280.1746
   9   2.0000     -10.294749      -280.1344
  10   2.0000     -10.290222      -280.0112
  11   2.0000     -10.289001      -279.9780
  12   2.0000     -10.288582      -279.9666
  13   2.0000     -10.282284      -279.7952
  14   2.0000     -10.279793      -279.7274
  15   2.0000     -10.279457      -279.7182
  16   2.0000      -8.082147      -219.9264
  17   2.0000      -8.078384      -219.8240
  18   2.0000      -6.040562      -164.3721
  19   2.0000      -6.037021      -164.2757
  20   2.0000      -6.036730      -164.2678
  21   2.0000      -6.032961      -164.1652
  22   2.0000      -6.032917      -164.1640
  23   2.0000      -6.029028      -164.0582
  24   2.0000      -1.007511       -27.4158
  25   2.0000      -0.986246       -26.8371
  26   2.0000      -0.911487       -24.8028
  27   2.0000      -0.910368       -24.7724
  28   2.0000      -0.870233       -23.6802
  29   2.0000      -0.854321       -23.2473
  30   2.0000      -0.846036       -23.0218
  31   2.0000      -0.816629       -22.2216
  32   2.0000      -0.785803       -21.3828
  33   2.0000      -0.771431       -20.9917
  34   2.0000      -0.711748       -19.3677
  35   2.0000      -0.697605       -18.9828
  36   2.0000      -0.691314       -18.8116
  37   2.0000      -0.664185       -18.0734
  38   2.0000      -0.634603       -17.2684
  39   2.0000      -0.620216       -16.8769
  40   2.0000      -0.594244       -16.1702
  41   2.0000      -0.568190       -15.4612
  42   2.0000      -0.560723       -15.2581
  43   2.0000      -0.558532       -15.1984
  44   2.0000      -0.529843       -14.4178
  45   2.0000      -0.525942       -14.3116
  46   2.0000      -0.519667       -14.1409
  47   2.0000      -0.510986       -13.9046
  48   2.0000      -0.501496       -13.6464
  49   2.0000      -0.497096       -13.5267
  50   2.0000      -0.494639       -13.4598
  51   2.0000      -0.484977       -13.1969
  52   2.0000      -0.473064       -12.8727
  53   2.0000      -0.469370       -12.7722
  54   2.0000      -0.460068       -12.5191
  55   2.0000      -0.454782       -12.3752
  56   2.0000      -0.443111       -12.0577
  57   2.0000      -0.441281       -12.0079
  58   2.0000      -0.431510       -11.7420
  59   2.0000      -0.423626       -11.5275
  60   2.0000      -0.418040       -11.3755
  61   2.0000      -0.408154       -11.1064
  62   2.0000      -0.399934       -10.8828
  63   2.0000      -0.359334        -9.7780
  64   2.0000      -0.335251        -9.1227
  65   2.0000      -0.330450        -8.9920
  66   2.0000      -0.284154        -7.7322
  67   0.0000       0.019380         0.5274
  68   0.0000       0.080139         2.1807
  69   0.0000       0.097701         2.6586
  70   0.0000       0.113067         3.0767
  71   0.0000       0.139658         3.8003

MULLIKEN ATOMIC CHARGES
-----------------------
   0 S :    0.085854
   1 C :   -0.125128
   2 C :   -0.113035
   3 C :   -0.016448
   4 C :   -0.103671
   5 H :    0.030373
   6 C :    0.062197
   7 H :   -0.001335
   8 H :    0.040351
   9 C :   -0.069518
  10 H :    0.031155
  11 H :    0.019817
  12 C :   -0.025129
  13 H :    0.052932
  14 H :    0.021434
  15 H :    0.038446
  16 S :    0.102260
  17 C :   -0.106371
  18 C :   -0.030637
  19 C :   -0.089249
  20 C :   -0.137228
  21 H :    0.049702
  22 C :    0.058477
  23 H :    0.010582
  24 H :    0.008470
  25 C :   -0.037275
  26 H :    0.025823
  27 H :    0.038528
  28 C :   -0.038776
  29 H :    0.032967
  30 H :    0.026418
  31 H :    0.025038
  32 H :    0.057837
  33 H :    0.075138
Sum of atomic charges:    0.0000000

LOEWDIN ATOMIC CHARGES
----------------------
   0 S :    0.377631
   1 C :   -0.198779
   2 C :   -0.066603
   3 C :   -0.080434
   4 C :   -0.171488
   5 H :    0.038791
   6 C :   -0.030859
   7 H :    0.015776
   8 H :    0.036419
   9 C :   -0.043818
  10 H :    0.023810
  11 H :    0.021948
  12 C :   -0.057204
  13 H :    0.034093
  14 H :    0.015586
  15 H :    0.034134
  16 S :    0.403839
  17 C :   -0.188406
  18 C :   -0.081546
  19 C :   -0.055208
  20 C :   -0.192128
  21 H :    0.049135
  22 C :   -0.041558
  23 H :    0.029608
  24 H :    0.024647
  25 C :   -0.038531
  26 H :    0.029041
  27 H :    0.030027
  28 C :   -0.074287
  29 H :    0.028750
  30 H :    0.024706
  31 H :    0.031340
  32 H :    0.035437
  33 H :    0.036132

  Mayer bond orders larger than 0.100000
B(  0-S ,  1-C ) :   1.1046 B(  0-S ,  4-C ) :   1.1535 B(  1-C ,  2-C ) :   1.6429
B(  1-C , 32-H ) :   0.9654 B(  2-C ,  3-C ) :   1.2423 B(  2-C ,  6-C ) :   1.0028
B(  3-C ,  4-C ) :   1.5682 B(  3-C ,  5-H ) :   0.9798 B(  4-C , 20-C ) :   1.0686
B(  6-C ,  7-H ) :   0.9396 B(  6-C ,  8-H ) :   0.9458 B(  6-C ,  9-C ) :   1.0509
B(  9-C , 10-H ) :   0.9589 B(  9-C , 11-H ) :   0.9561 B(  9-C , 12-C ) :   1.0750
B( 12-C , 13-H ) :   0.9761 B( 12-C , 14-H ) :   0.9767 B( 12-C , 15-H ) :   0.9736
B( 16-S , 17-C ) :   1.1639 B( 16-S , 20-C ) :   1.1355 B( 17-C , 18-C ) :   1.6021
B( 17-C , 33-H ) :   0.9596 B( 18-C , 19-C ) :   1.2524 B( 18-C , 21-H ) :   0.9760
B( 19-C , 20-C ) :   1.5772 B( 19-C , 22-C ) :   1.0605 B( 22-C , 23-H ) :   0.9265
B( 22-C , 24-H ) :   0.9219 B( 22-C , 25-C ) :   1.0487 B( 25-C , 26-H ) :   0.9523
B( 25-C , 27-H ) :   0.9525 B( 25-C , 28-C ) :   1.0874 B( 28-C , 29-H ) :   0.9715
B( 28-C , 30-H ) :   0.9737 B( 28-C , 31-H ) :   0.9671

Dispersion correction           -0.014378118
FINAL SINGLE POINT ENERGY     -1339.864035746811

DIPOLE MOMENT
-------------
                                X             Y             Z
Electronic contribution:    -20.54951      17.87005      14.97475
Nuclear contribution   :     21.12893     -18.14927     -15.10260
                        -----------------------------------------
Total Dipole Moment    :      0.57942      -0.27922      -0.12785
                        -----------------------------------------
Magnitude (a.u.)       :      0.65577
Magnitude (Debye)      :      1.66683

Rotational constants in cm-1:     0.018482     0.008874     0.006751
Rotational constants in MHz :   554.062336   266.037065   202.396654

                             ****ORCA TERMINATED NORMALLY****
TOTAL RUN TIME: 0 days 0 hours 0 minutes 30 seconds 698 msec
