                         Program Version 4.2.1 -  RELEASE  -
|  1> ! wB97X-D3 SP def2-SVP
|  2> %pal
|  3> nprocs 16
|  4> end
|  5>
|  6> * xyz 0 1
|  7> S 	 -37.0101 	 34.9937 	 82.5876
|  8> C 	 -36.3744 	 36.5934 	 82.6822
|  9> C 	 -37.2904 	 37.5885 	 82.7013
| 10> C 	 -38.6155 	 37.0262 	 82.678
| 11> C 	 -38.6162 	 35.6101 	 82.6709
| 12> H 	 -39.5752 	 37.562 	 82.5459
| 13> C 	 -36.9916 	 39.0311 	 82.6656
| 14> H 	 -36.9768 	 39.4092 	 81.7008
| 15> H 	 -36.0346 	 39.1488 	 83.1958
| 16> C 	 -37.8523 	 40.0112 	 83.5905
| 17> H 	 -38.8605 	 39.9457 	 83.1608
| 18> H 	 -37.8595 	 39.5391 	 84.6249
| 19> C 	 -37.4491 	 41.5106 	 83.4413
| 20> H 	 -37.9164 	 41.9018 	 82.482
| 21> H 	 -37.9309 	 42.1655 	 84.2365
| 22> H 	 -36.4056 	 41.6027 	 83.3035
| 23> S 	 -40.1864 	 33.5386 	 83.709
| 24> C 	 -41.5011 	 33.0116 	 82.7124
| 25> C 	 -41.7542 	 33.6835 	 81.5711
| 26> C 	 -40.7615 	 34.6792 	 81.3991
| 27> C 	 -39.7556 	 34.7001 	 82.4324
| 28> H 	 -42.6451 	 33.5158 	 80.9623
| 29> C 	 -40.7896 	 35.7562 	 80.286
| 30> H 	 -40.9715 	 36.6911 	 80.7563
| 31> H 	 -41.6214 	 35.4101 	 79.7787
| 32> C 	 -39.5081 	 35.8738 	 79.3889
| 33> H 	 -39.2806 	 34.8959 	 78.9967
| 34> H 	 -38.651 	 36.2468 	 79.9869
| 35> C 	 -39.547 	 36.8165 	 78.1521
| 36> H 	 -40.3074 	 36.5197 	 77.4664
| 37> H 	 -38.5609 	 36.7909 	 77.6047
| 38> H 	 -39.6167 	 37.835 	 78.3573
| 39> H 	 -35.3424 	 36.8866 	 82.6767
| 40> H 	 -42.1616 	 32.2217 	 83.0311
| 41> *
| 42>
| 43>                          ****END OF INPUT****

CARTESIAN COORDINATES (ANGSTROEM)
---------------------------------
  S    -37.010100   34.993700   82.587600
  C    -36.374400   36.593400   82.682200
  C    -37.290400   37.588500   82.701300
  C    -38.615500   37.026200   82.678000
  C    -38.616200   35.610100   82.670900
  H    -39.575200   37.562000   82.545900
  C    -36.991600   39.031100   82.665600
  H    -36.976800   39.409200   81.700800
  H    -36.034600   39.148800   83.195800
  C    -37.852300   40.011200   83.590500
  H    -38.860500   39.945700   83.160800
  H    -37.859500   39.539100   84.624900
  C    -37.449100   41.510600   83.441300
  H    -37.916400   41.901800   82.482000
  H    -37.930900   42.165500   84.236500
  H    -36.405600   41.602700   83.303500
  S    -40.186400   33.538600   83.709000
  C    -41.501100   33.011600   82.712400
  C    -41.754200   33.683500   81.571100
  C    -40.761500   34.679200   81.399100
  C    -39.755600   34.700100   82.432400
  H    -42.645100   33.515800   80.962300
  C    -40.789600   35.756200   80.286000
  H    -40.971500   36.691100   80.756300
  H    -41.621400   35.410100   79.778700
  C    -39.508100   35.873800   79.388900
  H    -39.280600   34.895900   78.996700
  H    -38.651000   36.246800   79.986900
  C    -39.547000   36.816500   78.152100
  H    -40.307400   36.519700   77.466400
  H    -38.560900   36.790900   77.604700
  H    -39.616700   37.835000   78.357300
  H    -35.342400   36.886600   82.676700
  H    -42.161600   32.221700   83.031100

 Total Charge           Charge          ....    0
 Multiplicity           Mult            ....    1
 Number of Electrons    NEL             ....  134
 Basis Dimension        Dim             ....  322

ORBITAL ENERGIES
----------------

  NO   OCC          E(Eh)            E(eV)
   0   2.0000     -88.968309     -2420.9508
   1   2.0000     -88.967232     -2420.9215
   2   2.0000     -10.328483      -281.0523
   3   2.0000     -10.327516      -281.0260
   4   2.0000     -10.312169      -280.6084
   5   2.0000     -10.308410      -280.5061
   6   2.0000     -10.306665      -280.4586
   7   2.0000     -10.298781      -280.2441
   8   2.0000     -10.297480      -280.2087
   9   2.0000     -10.296673      -280.1867
  10   2.0000     -10.293085      -280.0891
  11   2.0000     -10.291117      -280.0355
  12   2.0000     -10.289352      -279.9875
  13   2.0000     -10.285689      -279.8878
  14   2.0000     -10.284539      -279.8565
  15   2.0000     -10.271722      -279.5078
  16   2.0000      -8.083699      -219.9686
  17   2.0000      -8.081852      -219.9184
  18   2.0000      -6.042102      -164.4140
  19   2.0000      -6.040124      -164.3601
  20   2.0000      -6.038132      -164.3059
  21   2.0000      -6.036511      -164.2618
  22   2.0000      -6.034502      -164.2071
  23   2.0000      -6.032745      -164.1593
  24   2.0000      -1.006049       -27.3760
  25   2.0000      -0.986275       -26.8379
  26   2.0000      -0.911101       -24.7923
  27   2.0000      -0.898634       -24.4531
  28   2.0000      -0.868176       -23.6243
  29   2.0000      -0.849600       -23.1188
  30   2.0000      -0.845866       -23.0172
  31   2.0000      -0.814166       -22.1546
  32   2.0000      -0.785750       -21.3813
  33   2.0000      -0.769320       -20.9343
  34   2.0000      -0.710590       -19.3361
  35   2.0000      -0.696200       -18.9446
  36   2.0000      -0.684738       -18.6327
  37   2.0000      -0.657284       -17.8856
  38   2.0000      -0.638490       -17.3742
  39   2.0000      -0.617652       -16.8072
  40   2.0000      -0.590321       -16.0634
  41   2.0000      -0.577646       -15.7186
  42   2.0000      -0.569651       -15.5010
  43   2.0000      -0.564647       -15.3648
  44   2.0000      -0.525510       -14.2998
  45   2.0000      -0.515507       -14.0276
  46   2.0000      -0.509198       -13.8560
  47   2.0000      -0.507253       -13.8031
  48   2.0000      -0.500372       -13.6158
  49   2.0000      -0.497439       -13.5360
  50   2.0000      -0.489276       -13.3139
  51   2.0000      -0.482905       -13.1405
  52   2.0000      -0.475242       -12.9320
  53   2.0000      -0.466966       -12.7068
  54   2.0000      -0.462666       -12.5898
  55   2.0000      -0.455380       -12.3915
  56   2.0000      -0.447288       -12.1713
  57   2.0000      -0.436852       -11.8873
  58   2.0000      -0.431780       -11.7493
  59   2.0000      -0.425299       -11.5730
  60   2.0000      -0.423446       -11.5225
  61   2.0000      -0.409245       -11.1361
  62   2.0000      -0.404354       -11.0030
  63   2.0000      -0.341143        -9.2830
  64   2.0000      -0.334006        -9.0888
  65   2.0000      -0.325934        -8.8691
  66   2.0000      -0.294812        -8.0222
  67   0.0000       0.033920         0.9230
  68   0.0000       0.064171         1.7462
  69   0.0000       0.111108         3.0234
  70   0.0000       0.120424         3.2769
  71   0.0000       0.135163         3.6780

MULLIKEN ATOMIC CHARGES
-----------------------
   0 S :    0.138258
   1 C :   -0.102955
   2 C :   -0.074823
   3 C :    0.008297
   4 C :   -0.169019
   5 H :    0.024701
   6 C :    0.057425
   7 H :    0.030399
   8 H :    0.026284
   9 C :   -0.133425
  10 H :    0.031015
  11 H :    0.054384
  12 C :   -0.052071
  13 H :    0.033029
  14 H :    0.058919
  15 H :    0.029801
  16 S :    0.117992
  17 C :   -0.072278
  18 C :   -0.041350
  19 C :   -0.068400
  20 C :   -0.181390
  21 H :    0.029824
  22 C :    0.148405
  23 H :    0.022855
  24 H :   -0.013556
  25 C :   -0.087104
  26 H :    0.026563
  27 H :    0.052144
  28 C :   -0.037588
  29 H :    0.025030
  30 H :    0.032996
  31 H :    0.012993
  32 H :    0.027044
  33 H :    0.045602
Sum of atomic charges:    0.0000000

LOEWDIN ATOMIC CHARGES
----------------------
   0 S :    0.438532
   1 C :   -0.200982
   2 C :   -0.071361
   3 C :   -0.062055
   4 C :   -0.213145
   5 H :    0.033608
   6 C :   -0.031436
   7 H :    0.022171
   8 H :    0.034673
   9 C :   -0.045345
  10 H :    0.018509
  11 H :    0.032234
  12 C :   -0.071200
  13 H :    0.033494
  14 H :    0.040162
  15 H :    0.016270
  16 S :    0.407878
  17 C :   -0.178618
  18 C :   -0.082266
  19 C :   -0.040224
  20 C :   -0.210287
  21 H :    0.040869
  22 C :   -0.020536
  23 H :    0.025160
  24 H :    0.016730
  25 C :   -0.035907
  26 H :    0.022839
  27 H :    0.031308
  28 C :   -0.065227
  29 H :    0.018137
  30 H :    0.035707
  31 H :    0.012045
  32 H :    0.024770
  33 H :    0.023493

  Mayer bond orders larger than 0.100000
B(  0-S ,  1-C ) :   1.1437 B(  0-S ,  4-C ) :   1.1761 B(  1-C ,  2-C ) :   1.6352
B(  1-C , 32-H ) :   0.9627 B(  2-C ,  3-C ) :   1.2300 B(  2-C ,  6-C ) :   1.0276
B(  3-C ,  4-C ) :   1.5636 B(  3-C ,  5-H ) :   0.9947 B(  4-C , 20-C ) :   1.0190
B(  6-C ,  7-H ) :   0.9390 B(  6-C ,  8-H ) :   0.9397 B(  6-C ,  9-C ) :   1.0531
B(  9-C , 10-H ) :   0.9572 B(  9-C , 11-H ) :   0.9646 B(  9-C , 12-C ) :   1.0648
B( 12-C , 13-H ) :   0.9743 B( 12-C , 14-H ) :   0.9735 B( 12-C , 15-H ) :   0.9783
B( 16-S , 17-C ) :   1.1753 B( 16-S , 20-C ) :   1.1449 B( 17-C , 18-C ) :   1.6090
B( 17-C , 33-H ) :   0.9576 B( 18-C , 19-C ) :   1.2686 B( 18-C , 21-H ) :   0.9867
B( 19-C , 20-C ) :   1.5657 B( 19-C , 22-C ) :   1.0212 B( 22-C , 23-H ) :   0.9343
B( 22-C , 24-H ) :   0.9249 B( 22-C , 25-C ) :   1.0624 B( 25-C , 26-H ) :   0.9584
B( 25-C , 27-H ) :   0.9545 B( 25-C , 28-C ) :   1.0901 B( 28-C , 29-H ) :   0.9764
B( 28-C , 30-H ) :   0.9731 B( 28-C , 31-H ) :   0.9751

Dispersion correction           -0.014667658
FINAL SINGLE POINT ENERGY     -1339.860046347826

DIPOLE MOMENT
-------------
                                X             Y             Z
Electronic contribution:     -0.23174     -27.00216      13.03400
Nuclear contribution   :      0.01242      27.56550     -13.39071
                        -----------------------------------------
Total Dipole Moment    :     -0.21932       0.56334      -0.35671
                        -----------------------------------------
Magnitude (a.u.)       :      0.70192
Magnitude (Debye)      :      1.78414

Rotational constants in cm-1:     0.018202     0.008344     0.007169
Rotational constants in MHz :   545.672209   250.142620   214.924430

                             ****ORCA TERMINATED NORMALLY****
TOTAL RUN TIME: 0 days 0 hours 0 minutes 30 seconds 585 msec
