                         Program Version 4.2.1 -  RELEASE  -
|  1> ! wB97X-D3 SP def2-SVP
|  2> %pal
|  3> nprocs 16
|  4> end
|  5>
|  6> * xyz 0 1
|  7> S 	 -46.8956 	 35.0239 	 97.6596
|  8> C 	 -48.1402 	 35.2959 	 96.4927
|  9> C 	 -49.3565 	 34.8545 	 97.0227
| 10> C 	 -49.1854 	 34.103 	 98.2205
| 11> C 	 -47.9114 	 34.0491 	 98.6681
| 12> H 	 -50.0191 	 33.6418 	 98.8442
| 13> C 	 -50.7219 	 35.1314 	 96.4506
| 14> H 	 -50.8178 	 36.2107 	 96.343
| 15> H 	 -51.4671 	 34.9268 	 97.2508
| 16> C 	 -51.0893 	 34.3971 	 95.1801
| 17> H 	 -52.0781 	 34.7215 	 94.8712
| 18> H 	 -50.5364 	 34.8391 	 94.3691
| 19> C 	 -50.9817 	 32.8857 	 95.0346
| 20> H 	 -51.5532 	 32.3882 	 95.814
| 21> H 	 -51.3598 	 32.5895 	 94.084
| 22> H 	 -49.9556 	 32.4796 	 95.1157
| 23> S 	 -46.4142 	 31.981 	 99.6251
| 24> C 	 -46.3463 	 31.6252 	 101.356
| 25> C 	 -47.0761 	 32.6509 	 102.035
| 26> C 	 -47.7357 	 33.5711 	 101.218
| 27> C 	 -47.4472 	 33.3446 	 99.8286
| 28> H 	 -47.0301 	 32.6961 	 103.072
| 29> C 	 -48.5753 	 34.7388 	 101.756
| 30> H 	 -49.0387 	 34.4443 	 102.651
| 31> H 	 -49.4435 	 34.8473 	 101.105
| 32> C 	 -47.9532 	 36.0787 	 101.918
| 33> H 	 -47.3512 	 36.019 	 102.723
| 34> H 	 -48.7536 	 36.7155 	 102.368
| 35> C 	 -47.2881 	 36.692 	 100.651
| 36> H 	 -46.9092 	 37.6425 	 100.888
| 37> H 	 -47.8701 	 36.6494 	 99.7699
| 38> H 	 -46.3511 	 36.219 	 100.373
| 39> H 	 -48.1761 	 36.0602 	 95.7614
| 40> H 	 -45.7274 	 30.8651 	 101.706
| 41> *
| 42>
| 43>                          ****END OF INPUT****

CARTESIAN COORDINATES (ANGSTROEM)
---------------------------------
  S    -46.895600   35.023900   97.659600
  C    -48.140200   35.295900   96.492700
  C    -49.356500   34.854500   97.022700
  C    -49.185400   34.103000   98.220500
  C    -47.911400   34.049100   98.668100
  H    -50.019100   33.641800   98.844200
  C    -50.721900   35.131400   96.450600
  H    -50.817800   36.210700   96.343000
  H    -51.467100   34.926800   97.250800
  C    -51.089300   34.397100   95.180100
  H    -52.078100   34.721500   94.871200
  H    -50.536400   34.839100   94.369100
  C    -50.981700   32.885700   95.034600
  H    -51.553200   32.388200   95.814000
  H    -51.359800   32.589500   94.084000
  H    -49.955600   32.479600   95.115700
  S    -46.414200   31.981000   99.625100
  C    -46.346300   31.625200  101.356000
  C    -47.076100   32.650900  102.035000
  C    -47.735700   33.571100  101.218000
  C    -47.447200   33.344600   99.828600
  H    -47.030100   32.696100  103.072000
  C    -48.575300   34.738800  101.756000
  H    -49.038700   34.444300  102.651000
  H    -49.443500   34.847300  101.105000
  C    -47.953200   36.078700  101.918000
  H    -47.351200   36.019000  102.723000
  H    -48.753600   36.715500  102.368000
  C    -47.288100   36.692000  100.651000
  H    -46.909200   37.642500  100.888000
  H    -47.870100   36.649400   99.769900
  H    -46.351100   36.219000  100.373000
  H    -48.176100   36.060200   95.761400
  H    -45.727400   30.865100  101.706000

 Total Charge           Charge          ....    0
 Multiplicity           Mult            ....    1
 Number of Electrons    NEL             ....  134
 Basis Dimension        Dim             ....  322

ORBITAL ENERGIES
----------------

  NO   OCC          E(Eh)            E(eV)
   0   2.0000     -88.967421     -2420.9266
   1   2.0000     -88.965568     -2420.8762
   2   2.0000     -10.325560      -280.9728
   3   2.0000     -10.322118      -280.8791
   4   2.0000     -10.319165      -280.7987
   5   2.0000     -10.309993      -280.5492
   6   2.0000     -10.304712      -280.4055
   7   2.0000     -10.299436      -280.2619
   8   2.0000     -10.293665      -280.1049
   9   2.0000     -10.293154      -280.0910
  10   2.0000     -10.292370      -280.0696
  11   2.0000     -10.282590      -279.8035
  12   2.0000     -10.281860      -279.7836
  13   2.0000     -10.276423      -279.6357
  14   2.0000     -10.273581      -279.5583
  15   2.0000     -10.264311      -279.3061
  16   2.0000      -8.081987      -219.9220
  17   2.0000      -8.080552      -219.8830
  18   2.0000      -6.040205      -164.3623
  19   2.0000      -6.039030      -164.3304
  20   2.0000      -6.036216      -164.2538
  21   2.0000      -6.034938      -164.2190
  22   2.0000      -6.033368      -164.1763
  23   2.0000      -6.031381      -164.1222
  24   2.0000      -1.010791       -27.5050
  25   2.0000      -0.983886       -26.7729
  26   2.0000      -0.912759       -24.8374
  27   2.0000      -0.911159       -24.7939
  28   2.0000      -0.870878       -23.6978
  29   2.0000      -0.849764       -23.1232
  30   2.0000      -0.845440       -23.0056
  31   2.0000      -0.813015       -22.1233
  32   2.0000      -0.791563       -21.5395
  33   2.0000      -0.777066       -21.1450
  34   2.0000      -0.711652       -19.3650
  35   2.0000      -0.705063       -19.1858
  36   2.0000      -0.699151       -19.0249
  37   2.0000      -0.663711       -18.0605
  38   2.0000      -0.639282       -17.3958
  39   2.0000      -0.612659       -16.6713
  40   2.0000      -0.596976       -16.2446
  41   2.0000      -0.571235       -15.5441
  42   2.0000      -0.560248       -15.2451
  43   2.0000      -0.553018       -15.0484
  44   2.0000      -0.544906       -14.8276
  45   2.0000      -0.533985       -14.5305
  46   2.0000      -0.518719       -14.1151
  47   2.0000      -0.509901       -13.8751
  48   2.0000      -0.505357       -13.7515
  49   2.0000      -0.501375       -13.6431
  50   2.0000      -0.490456       -13.3460
  51   2.0000      -0.475515       -12.9394
  52   2.0000      -0.469895       -12.7865
  53   2.0000      -0.466145       -12.6844
  54   2.0000      -0.462854       -12.5949
  55   2.0000      -0.448864       -12.2142
  56   2.0000      -0.442649       -12.0451
  57   2.0000      -0.439026       -11.9465
  58   2.0000      -0.433548       -11.7974
  59   2.0000      -0.423693       -11.5293
  60   2.0000      -0.421356       -11.4657
  61   2.0000      -0.407116       -11.0782
  62   2.0000      -0.404415       -11.0047
  63   2.0000      -0.342533        -9.3208
  64   2.0000      -0.332150        -9.0383
  65   2.0000      -0.324311        -8.8249
  66   2.0000      -0.296277        -8.0621
  67   0.0000       0.032096         0.8734
  68   0.0000       0.055936         1.5221
  69   0.0000       0.110111         2.9963
  70   0.0000       0.125636         3.4187
  71   0.0000       0.130003         3.5376

MULLIKEN ATOMIC CHARGES
-----------------------
   0 S :    0.112330
   1 C :   -0.075528
   2 C :   -0.142579
   3 C :    0.028552
   4 C :   -0.178563
   5 H :    0.039767
   6 C :    0.070610
   7 H :    0.028891
   8 H :    0.017486
   9 C :   -0.053562
  10 H :    0.013239
  11 H :    0.008985
  12 C :   -0.025164
  13 H :    0.023480
  14 H :    0.025835
  15 H :    0.044127
  16 S :    0.124898
  17 C :   -0.095777
  18 C :   -0.017828
  19 C :   -0.019250
  20 C :   -0.185755
  21 H :   -0.004232
  22 C :    0.103871
  23 H :   -0.003700
  24 H :    0.007250
  25 C :   -0.010064
  26 H :   -0.015116
  27 H :    0.021138
  28 C :    0.000553
  29 H :    0.012747
  30 H :    0.036731
  31 H :    0.021358
  32 H :    0.040127
  33 H :    0.045145
Sum of atomic charges:   -0.0000000

LOEWDIN ATOMIC CHARGES
----------------------
   0 S :    0.436703
   1 C :   -0.207052
   2 C :   -0.062739
   3 C :   -0.069617
   4 C :   -0.208059
   5 H :    0.044245
   6 C :   -0.036640
   7 H :    0.034937
   8 H :    0.030954
   9 C :   -0.045158
  10 H :    0.024114
  11 H :    0.020536
  12 C :   -0.060597
  13 H :    0.022710
  14 H :    0.024813
  15 H :    0.031469
  16 S :    0.434385
  17 C :   -0.179605
  18 C :   -0.059512
  19 C :   -0.051287
  20 C :   -0.215581
  21 H :    0.019774
  22 C :   -0.030653
  23 H :    0.024063
  24 H :    0.028770
  25 C :   -0.030573
  26 H :    0.006473
  27 H :    0.032000
  28 C :   -0.060049
  29 H :    0.021832
  30 H :    0.016635
  31 H :    0.024241
  32 H :    0.023076
  33 H :    0.015392

  Mayer bond orders larger than 0.100000
B(  0-S ,  1-C ) :   1.1458 B(  0-S ,  4-C ) :   1.1645 B(  1-C ,  2-C ) :   1.5891
B(  1-C , 32-H ) :   0.9664 B(  2-C ,  3-C ) :   1.2589 B(  2-C ,  6-C ) :   1.0203
B(  3-C ,  4-C ) :   1.5822 B(  3-C ,  5-H ) :   0.9802 B(  4-C , 20-C ) :   1.0263
B(  6-C ,  7-H ) :   0.9327 B(  6-C ,  8-H ) :   0.9409 B(  6-C ,  9-C ) :   1.0825
B(  9-C , 10-H ) :   0.9490 B(  9-C , 11-H ) :   0.9486 B(  9-C , 12-C ) :   1.0829
B( 12-C , 13-H ) :   0.9758 B( 12-C , 14-H ) :   0.9702 B( 12-C , 15-H ) :   0.9719
B( 16-S , 17-C ) :   1.1838 B( 16-S , 20-C ) :   1.1982 B( 17-C , 18-C ) :   1.5087
B( 17-C , 20-C ) :   0.1316 B( 17-C , 33-H ) :   0.9838 B( 18-C , 19-C ) :   1.3216
B( 18-C , 21-H ) :   0.9994 B( 19-C , 20-C ) :   1.4950 B( 19-C , 22-C ) :   1.0359
B( 22-C , 23-H ) :   0.9208 B( 22-C , 24-H ) :   0.9237 B( 22-C , 25-C ) :   1.0947
B( 25-C , 26-H ) :   0.9456 B( 25-C , 27-H ) :   0.9444 B( 25-C , 28-C ) :   1.0756
B( 28-C , 29-H ) :   0.9665 B( 28-C , 30-H ) :   0.9751 B( 28-C , 31-H ) :   0.9669

Dispersion correction           -0.015940631
FINAL SINGLE POINT ENERGY     -1339.865531003356

DIPOLE MOMENT
-------------
                                X             Y             Z
Electronic contribution:     16.89168      -9.50660       2.79431
Nuclear contribution   :    -17.36133       9.82040      -2.55946
                        -----------------------------------------
Total Dipole Moment    :     -0.46965       0.31379       0.23485
                        -----------------------------------------
Magnitude (a.u.)       :      0.61171
Magnitude (Debye)      :      1.55485

Rotational constants in cm-1:     0.021147     0.008818     0.007754
Rotational constants in MHz :   633.975794   264.349918   232.461539

                             ****ORCA TERMINATED NORMALLY****
TOTAL RUN TIME: 0 days 0 hours 0 minutes 32 seconds 1 msec
