                         Program Version 4.2.1 -  RELEASE  -
|  1> ! wB97X-D3 SP def2-SVP
|  2> %pal
|  3> nprocs 16
|  4> end
|  5>
|  6> * xyz 0 1
|  7> S 	 -45.6583 	 24.9216 	 84.7794
|  8> C 	 -46.6622 	 24.8625 	 83.3234
|  9> C 	 -45.9586 	 24.8458 	 82.1387
| 10> C 	 -44.5638 	 24.9877 	 82.3918
| 11> C 	 -44.2273 	 25.097 	 83.7299
| 12> H 	 -43.8063 	 25.0072 	 81.6143
| 13> C 	 -46.4508 	 24.626 	 80.6956
| 14> H 	 -46.3535 	 25.546 	 80.0872
| 15> H 	 -47.4322 	 24.2429 	 80.7697
| 16> C 	 -45.8293 	 23.5085 	 79.8624
| 17> H 	 -46.4953 	 23.3497 	 78.9865
| 18> H 	 -44.8409 	 23.6425 	 79.5442
| 19> C 	 -45.8874 	 22.1504 	 80.5543
| 20> H 	 -45.1416 	 22.0295 	 81.3006
| 21> H 	 -46.8787 	 22.1079 	 81.0302
| 22> H 	 -45.7966 	 21.3556 	 79.8507
| 23> S 	 -42.6436 	 23.8229 	 85.5586
| 24> C 	 -40.8783 	 24.2108 	 85.5346
| 25> C 	 -40.6226 	 25.2481 	 84.6521
| 26> C 	 -41.7627 	 25.7297 	 83.9355
| 27> C 	 -42.922 	 25.038 	 84.3037
| 28> H 	 -39.5721 	 25.6256 	 84.6007
| 29> C 	 -41.7213 	 26.9291 	 83.0264
| 30> H 	 -42.308 	 27.6492 	 83.5822
| 31> H 	 -42.2338 	 26.6224 	 82.1239
| 32> C 	 -40.3474 	 27.5395 	 82.6669
| 33> H 	 -39.7992 	 27.8417 	 83.6049
| 34> H 	 -40.597 	 28.3784 	 82.2059
| 35> C 	 -39.4036 	 26.6068 	 81.902
| 36> H 	 -39.4368 	 25.6321 	 82.3257
| 37> H 	 -38.3681 	 26.9597 	 82.0901
| 38> H 	 -39.8374 	 26.4966 	 80.8987
| 39> H 	 -47.6962 	 24.5923 	 83.3276
| 40> H 	 -40.087 	 23.7037 	 86.0475
| 41> *
| 42>
| 43>                          ****END OF INPUT****

CARTESIAN COORDINATES (ANGSTROEM)
---------------------------------
  S    -45.658300   24.921600   84.779400
  C    -46.662200   24.862500   83.323400
  C    -45.958600   24.845800   82.138700
  C    -44.563800   24.987700   82.391800
  C    -44.227300   25.097000   83.729900
  H    -43.806300   25.007200   81.614300
  C    -46.450800   24.626000   80.695600
  H    -46.353500   25.546000   80.087200
  H    -47.432200   24.242900   80.769700
  C    -45.829300   23.508500   79.862400
  H    -46.495300   23.349700   78.986500
  H    -44.840900   23.642500   79.544200
  C    -45.887400   22.150400   80.554300
  H    -45.141600   22.029500   81.300600
  H    -46.878700   22.107900   81.030200
  H    -45.796600   21.355600   79.850700
  S    -42.643600   23.822900   85.558600
  C    -40.878300   24.210800   85.534600
  C    -40.622600   25.248100   84.652100
  C    -41.762700   25.729700   83.935500
  C    -42.922000   25.038000   84.303700
  H    -39.572100   25.625600   84.600700
  C    -41.721300   26.929100   83.026400
  H    -42.308000   27.649200   83.582200
  H    -42.233800   26.622400   82.123900
  C    -40.347400   27.539500   82.666900
  H    -39.799200   27.841700   83.604900
  H    -40.597000   28.378400   82.205900
  C    -39.403600   26.606800   81.902000
  H    -39.436800   25.632100   82.325700
  H    -38.368100   26.959700   82.090100
  H    -39.837400   26.496600   80.898700
  H    -47.696200   24.592300   83.327600
  H    -40.087000   23.703700   86.047500

 Total Charge           Charge          ....    0
 Multiplicity           Mult            ....    1
 Number of Electrons    NEL             ....  134
 Basis Dimension        Dim             ....  322

ORBITAL ENERGIES
----------------

  NO   OCC          E(Eh)            E(eV)
   0   2.0000     -88.968854     -2420.9656
   1   2.0000     -88.967102     -2420.9179
   2   2.0000     -10.329352      -281.0760
   3   2.0000     -10.324455      -280.9427
   4   2.0000     -10.319483      -280.8074
   5   2.0000     -10.314066      -280.6600
   6   2.0000     -10.303105      -280.3617
   7   2.0000     -10.302826      -280.3542
   8   2.0000     -10.297664      -280.2137
   9   2.0000     -10.295134      -280.1448
  10   2.0000     -10.294193      -280.1192
  11   2.0000     -10.290035      -280.0061
  12   2.0000     -10.283173      -279.8194
  13   2.0000     -10.281607      -279.7768
  14   2.0000     -10.279600      -279.7221
  15   2.0000     -10.268063      -279.4082
  16   2.0000      -8.082769      -219.9433
  17   2.0000      -8.080497      -219.8815
  18   2.0000      -6.041379      -164.3943
  19   2.0000      -6.039143      -164.3334
  20   2.0000      -6.037593      -164.2912
  21   2.0000      -6.035284      -164.2284
  22   2.0000      -6.033280      -164.1739
  23   2.0000      -6.031092      -164.1144
  24   2.0000      -1.002891       -27.2901
  25   2.0000      -0.976604       -26.5748
  26   2.0000      -0.917140       -24.9566
  27   2.0000      -0.912013       -24.8171
  28   2.0000      -0.871278       -23.7087
  29   2.0000      -0.852428       -23.1958
  30   2.0000      -0.842677       -22.9304
  31   2.0000      -0.813997       -22.1500
  32   2.0000      -0.787288       -21.4232
  33   2.0000      -0.775075       -21.0909
  34   2.0000      -0.713719       -19.4213
  35   2.0000      -0.700712       -19.0673
  36   2.0000      -0.695158       -18.9162
  37   2.0000      -0.655323       -17.8322
  38   2.0000      -0.639002       -17.3881
  39   2.0000      -0.624166       -16.9844
  40   2.0000      -0.595158       -16.1951
  41   2.0000      -0.569255       -15.4902
  42   2.0000      -0.562346       -15.3022
  43   2.0000      -0.556260       -15.1366
  44   2.0000      -0.544123       -14.8063
  45   2.0000      -0.533920       -14.5287
  46   2.0000      -0.527403       -14.3514
  47   2.0000      -0.508629       -13.8405
  48   2.0000      -0.504944       -13.7402
  49   2.0000      -0.493640       -13.4326
  50   2.0000      -0.492848       -13.4111
  51   2.0000      -0.487614       -13.2687
  52   2.0000      -0.470337       -12.7985
  53   2.0000      -0.467480       -12.7208
  54   2.0000      -0.454790       -12.3755
  55   2.0000      -0.447712       -12.1829
  56   2.0000      -0.442441       -12.0394
  57   2.0000      -0.434968       -11.8361
  58   2.0000      -0.430168       -11.7055
  59   2.0000      -0.427532       -11.6337
  60   2.0000      -0.422020       -11.4838
  61   2.0000      -0.418346       -11.3838
  62   2.0000      -0.416376       -11.3302
  63   2.0000      -0.350577        -9.5397
  64   2.0000      -0.334645        -9.1061
  65   2.0000      -0.329506        -8.9663
  66   2.0000      -0.283461        -7.7134
  67   0.0000       0.022357         0.6084
  68   0.0000       0.066127         1.7994
  69   0.0000       0.100250         2.7279
  70   0.0000       0.122741         3.3399
  71   0.0000       0.132299         3.6000

MULLIKEN ATOMIC CHARGES
-----------------------
   0 S :    0.099028
   1 C :   -0.105030
   2 C :   -0.098159
   3 C :    0.020817
   4 C :   -0.156458
   5 H :    0.014243
   6 C :    0.097757
   7 H :    0.052936
   8 H :    0.004069
   9 C :   -0.092905
  10 H :    0.035568
  11 H :    0.019104
  12 C :   -0.033666
  13 H :    0.034507
  14 H :    0.014708
  15 H :    0.026850
  16 S :    0.099850
  17 C :   -0.084835
  18 C :   -0.064681
  19 C :   -0.066101
  20 C :   -0.140794
  21 H :    0.036848
  22 C :    0.079128
  23 H :    0.049443
  24 H :    0.016602
  25 C :   -0.033506
  26 H :    0.023694
  27 H :   -0.001008
  28 C :   -0.037519
  29 H :    0.022692
  30 H :    0.046060
  31 H :    0.036232
  32 H :    0.036185
  33 H :    0.048340
Sum of atomic charges:   -0.0000000

LOEWDIN ATOMIC CHARGES
----------------------
   0 S :    0.381458
   1 C :   -0.187256
   2 C :   -0.062275
   3 C :   -0.057082
   4 C :   -0.179820
   5 H :    0.028429
   6 C :   -0.026514
   7 H :    0.039968
   8 H :    0.023892
   9 C :   -0.038422
  10 H :    0.033246
  11 H :    0.010156
  12 C :   -0.056964
  13 H :    0.020880
  14 H :    0.023929
  15 H :    0.021150
  16 S :    0.375430
  17 C :   -0.171404
  18 C :   -0.077250
  19 C :   -0.057215
  20 C :   -0.197156
  21 H :    0.039474
  22 C :   -0.027633
  23 H :    0.042373
  24 H :    0.028089
  25 C :   -0.031450
  26 H :    0.026871
  27 H :    0.005798
  28 C :   -0.065629
  29 H :    0.019667
  30 H :    0.035757
  31 H :    0.030393
  32 H :    0.021774
  33 H :    0.027334

  Mayer bond orders larger than 0.100000
B(  0-S ,  1-C ) :   1.1241 B(  0-S ,  4-C ) :   1.1264 B(  1-C ,  2-C ) :   1.6530
B(  1-C , 32-H ) :   0.9577 B(  2-C ,  3-C ) :   1.2335 B(  2-C ,  6-C ) :   1.0194
B(  3-C ,  4-C ) :   1.5870 B(  3-C ,  5-H ) :   0.9845 B(  4-C , 20-C ) :   1.0785
B(  6-C ,  7-H ) :   0.9389 B(  6-C ,  8-H ) :   0.9362 B(  6-C ,  9-C ) :   1.0784
B(  9-C , 10-H ) :   0.9591 B(  9-C , 11-H ) :   0.9524 B(  9-C , 12-C ) :   1.0807
B( 12-C , 13-H ) :   0.9728 B( 12-C , 14-H ) :   0.9744 B( 12-C , 15-H ) :   0.9757
B( 16-S , 17-C ) :   1.1288 B( 16-S , 20-C ) :   1.1257 B( 17-C , 18-C ) :   1.6333
B( 17-C , 20-C ) :   0.1019 B( 17-C , 33-H ) :   0.9653 B( 18-C , 19-C ) :   1.2361
B( 18-C , 21-H ) :   0.9711 B( 19-C , 20-C ) :   1.5961 B( 19-C , 22-C ) :   1.0170
B( 22-C , 23-H ) :   0.9273 B( 22-C , 24-H ) :   0.9231 B( 22-C , 25-C ) :   1.0960
B( 25-C , 26-H ) :   0.9487 B( 25-C , 27-H ) :   0.9510 B( 25-C , 28-C ) :   1.0653
B( 28-C , 29-H ) :   0.9768 B( 28-C , 30-H ) :   0.9743 B( 28-C , 31-H ) :   0.9716

Dispersion correction           -0.014476316
FINAL SINGLE POINT ENERGY     -1339.861467160363

DIPOLE MOMENT
-------------
                                X             Y             Z
Electronic contribution:     -6.63763      -2.22910      23.58311
Nuclear contribution   :      6.92043       2.30913     -24.23925
                        -----------------------------------------
Total Dipole Moment    :      0.28280       0.08002      -0.65614
                        -----------------------------------------
Magnitude (a.u.)       :      0.71895
Magnitude (Debye)      :      1.82743

Rotational constants in cm-1:     0.018303     0.008772     0.007182
Rotational constants in MHz :   548.708211   262.976390   215.316461

                             ****ORCA TERMINATED NORMALLY****
TOTAL RUN TIME: 0 days 0 hours 0 minutes 30 seconds 492 msec
