                         Program Version 4.2.1 -  RELEASE  -
|  1> ! wB97X-D3 SP def2-SVP
|  2> %pal
|  3> nprocs 16
|  4> end
|  5>
|  6> * xyz 0 1
|  7> S 	 -107.728 	 43.2983 	 128.373
|  8> C 	 -106.759 	 42.9872 	 129.842
|  9> C 	 -105.776 	 41.9955 	 129.618
| 10> C 	 -105.825 	 41.4641 	 128.276
| 11> C 	 -106.781 	 42.077 	 127.459
| 12> H 	 -105.196 	 40.6765 	 127.935
| 13> C 	 -104.784 	 41.4088 	 130.605
| 14> H 	 -104.06 	 40.7824 	 129.942
| 15> H 	 -105.346 	 40.6297 	 131.17
| 16> C 	 -104.165 	 42.5071 	 131.511
| 17> H 	 -103.637 	 43.1399 	 130.863
| 18> H 	 -104.903 	 43.1325 	 131.943
| 19> C 	 -103.231 	 41.9585 	 132.59
| 20> H 	 -103.751 	 41.3211 	 133.414
| 21> H 	 -102.517 	 41.313 	 132.095
| 22> H 	 -102.711 	 42.7778 	 133.102
| 23> S 	 -106.651 	 40.4776 	 125.277
| 24> C 	 -106.687 	 41.2422 	 123.665
| 25> C 	 -106.927 	 42.602 	 123.763
| 26> C 	 -107.022 	 43.0426 	 125.106
| 27> C 	 -106.843 	 42.0474 	 126.032
| 28> H 	 -106.933 	 43.2276 	 122.955
| 29> C 	 -106.976 	 44.5309 	 125.429
| 30> H 	 -107.544 	 44.808 	 126.283
| 31> H 	 -107.628 	 45.1068 	 124.673
| 32> C 	 -105.551 	 45.1396 	 125.604
| 33> H 	 -105.066 	 45.0156 	 124.609
| 34> H 	 -105.06 	 44.6734 	 126.484
| 35> C 	 -105.649 	 46.68 	 125.895
| 36> H 	 -106.129 	 46.8417 	 126.872
| 37> H 	 -106.202 	 47.0722 	 125.074
| 38> H 	 -104.681 	 47.2296 	 125.954
| 39> H 	 -106.772 	 43.5266 	 130.802
| 40> H 	 -106.591 	 40.7016 	 122.751
| 41> *
| 42>
| 43>                          ****END OF INPUT****

CARTESIAN COORDINATES (ANGSTROEM)
---------------------------------
  S    -107.728000   43.298300  128.373000
  C    -106.759000   42.987200  129.842000
  C    -105.776000   41.995500  129.618000
  C    -105.825000   41.464100  128.276000
  C    -106.781000   42.077000  127.459000
  H    -105.196000   40.676500  127.935000
  C    -104.784000   41.408800  130.605000
  H    -104.060000   40.782400  129.942000
  H    -105.346000   40.629700  131.170000
  C    -104.165000   42.507100  131.511000
  H    -103.637000   43.139900  130.863000
  H    -104.903000   43.132500  131.943000
  C    -103.231000   41.958500  132.590000
  H    -103.751000   41.321100  133.414000
  H    -102.517000   41.313000  132.095000
  H    -102.711000   42.777800  133.102000
  S    -106.651000   40.477600  125.277000
  C    -106.687000   41.242200  123.665000
  C    -106.927000   42.602000  123.763000
  C    -107.022000   43.042600  125.106000
  C    -106.843000   42.047400  126.032000
  H    -106.933000   43.227600  122.955000
  C    -106.976000   44.530900  125.429000
  H    -107.544000   44.808000  126.283000
  H    -107.628000   45.106800  124.673000
  C    -105.551000   45.139600  125.604000
  H    -105.066000   45.015600  124.609000
  H    -105.060000   44.673400  126.484000
  C    -105.649000   46.680000  125.895000
  H    -106.129000   46.841700  126.872000
  H    -106.202000   47.072200  125.074000
  H    -104.681000   47.229600  125.954000
  H    -106.772000   43.526600  130.802000
  H    -106.591000   40.701600  122.751000

 Total Charge           Charge          ....    0
 Multiplicity           Mult            ....    1
 Number of Electrons    NEL             ....  134
 Basis Dimension        Dim             ....  322

ORBITAL ENERGIES
----------------

  NO   OCC          E(Eh)            E(eV)
   0   2.0000     -88.971642     -2421.0415
   1   2.0000     -88.966447     -2420.9001
   2   2.0000     -10.334167      -281.2070
   3   2.0000     -10.324589      -280.9463
   4   2.0000     -10.321613      -280.8654
   5   2.0000     -10.319378      -280.8046
   6   2.0000     -10.305528      -280.4277
   7   2.0000     -10.305365      -280.4232
   8   2.0000     -10.298958      -280.2489
   9   2.0000     -10.297031      -280.1965
  10   2.0000     -10.291347      -280.0418
  11   2.0000     -10.290497      -280.0187
  12   2.0000     -10.289383      -279.9884
  13   2.0000     -10.287010      -279.9238
  14   2.0000     -10.285966      -279.8954
  15   2.0000     -10.277325      -279.6602
  16   2.0000      -8.084264      -219.9840
  17   2.0000      -8.080685      -219.8866
  18   2.0000      -6.043006      -164.4385
  19   2.0000      -6.039301      -164.3377
  20   2.0000      -6.039022      -164.3301
  21   2.0000      -6.035311      -164.2292
  22   2.0000      -6.034930      -164.2188
  23   2.0000      -6.031331      -164.1209
  24   2.0000      -1.004350       -27.3298
  25   2.0000      -0.975151       -26.5352
  26   2.0000      -0.911278       -24.7971
  27   2.0000      -0.899940       -24.4886
  28   2.0000      -0.870491       -23.6873
  29   2.0000      -0.852602       -23.2005
  30   2.0000      -0.843277       -22.9467
  31   2.0000      -0.811074       -22.0705
  32   2.0000      -0.776449       -21.1282
  33   2.0000      -0.765060       -20.8183
  34   2.0000      -0.715075       -19.4582
  35   2.0000      -0.701176       -19.0800
  36   2.0000      -0.688310       -18.7299
  37   2.0000      -0.673522       -18.3275
  38   2.0000      -0.634418       -17.2634
  39   2.0000      -0.613705       -16.6998
  40   2.0000      -0.598028       -16.2732
  41   2.0000      -0.570058       -15.5121
  42   2.0000      -0.565769       -15.3954
  43   2.0000      -0.558905       -15.2086
  44   2.0000      -0.525908       -14.3107
  45   2.0000      -0.519150       -14.1268
  46   2.0000      -0.517917       -14.0932
  47   2.0000      -0.511675       -13.9234
  48   2.0000      -0.504634       -13.7318
  49   2.0000      -0.500463       -13.6183
  50   2.0000      -0.486828       -13.2473
  51   2.0000      -0.476694       -12.9715
  52   2.0000      -0.468845       -12.7579
  53   2.0000      -0.466126       -12.6839
  54   2.0000      -0.453257       -12.3338
  55   2.0000      -0.449346       -12.2273
  56   2.0000      -0.444628       -12.0989
  57   2.0000      -0.435846       -11.8600
  58   2.0000      -0.430684       -11.7195
  59   2.0000      -0.428553       -11.6615
  60   2.0000      -0.423013       -11.5108
  61   2.0000      -0.414448       -11.2777
  62   2.0000      -0.409559       -11.1447
  63   2.0000      -0.353767        -9.6265
  64   2.0000      -0.334112        -9.0917
  65   2.0000      -0.328662        -8.9433
  66   2.0000      -0.282973        -7.7001
  67   0.0000       0.016905         0.4600
  68   0.0000       0.077971         2.1217
  69   0.0000       0.105246         2.8639
  70   0.0000       0.107961         2.9378
  71   0.0000       0.129437         3.5222

MULLIKEN ATOMIC CHARGES
-----------------------
   0 S :    0.104897
   1 C :   -0.133361
   2 C :   -0.101172
   3 C :    0.020078
   4 C :   -0.124248
   5 H :    0.009861
   6 C :    0.024133
   7 H :    0.038463
   8 H :    0.052148
   9 C :   -0.053750
  10 H :    0.022998
  11 H :    0.022608
  12 C :   -0.060391
  13 H :    0.044764
  14 H :    0.029554
  15 H :    0.039750
  16 S :    0.093338
  17 C :   -0.082210
  18 C :    0.014475
  19 C :   -0.024647
  20 C :   -0.129636
  21 H :   -0.017299
  22 C :    0.003236
  23 H :    0.007648
  24 H :    0.021959
  25 C :   -0.060037
  26 H :    0.036245
  27 H :    0.050607
  28 C :   -0.059001
  29 H :    0.037185
  30 H :    0.024167
  31 H :    0.040987
  32 H :    0.056060
  33 H :    0.050592
Sum of atomic charges:   -0.0000000

LOEWDIN ATOMIC CHARGES
----------------------
   0 S :    0.398239
   1 C :   -0.204203
   2 C :   -0.061014
   3 C :   -0.059504
   4 C :   -0.175921
   5 H :    0.024355
   6 C :   -0.036400
   7 H :    0.038818
   8 H :    0.037853
   9 C :   -0.035866
  10 H :    0.022905
  11 H :    0.018699
  12 C :   -0.069015
  13 H :    0.034405
  14 H :    0.022732
  15 H :    0.027622
  16 S :    0.392477
  17 C :   -0.165365
  18 C :   -0.050166
  19 C :   -0.065201
  20 C :   -0.190010
  21 H :    0.017664
  22 C :   -0.048518
  23 H :    0.005451
  24 H :    0.034488
  25 C :   -0.034016
  26 H :    0.026723
  27 H :    0.031457
  28 C :   -0.068453
  29 H :    0.026328
  30 H :    0.018229
  31 H :    0.029427
  32 H :    0.032020
  33 H :    0.023758

  Mayer bond orders larger than 0.100000
B(  0-S ,  1-C ) :   1.1210 B(  0-S ,  4-C ) :   1.1375 B(  1-C ,  2-C ) :   1.6112
B(  1-C , 32-H ) :   0.9627 B(  2-C ,  3-C ) :   1.2587 B(  2-C ,  6-C ) :   1.0085
B(  3-C ,  4-C ) :   1.5482 B(  3-C ,  5-H ) :   0.9860 B(  4-C , 20-C ) :   1.0681
B(  6-C ,  7-H ) :   0.9464 B(  6-C ,  8-H ) :   0.9373 B(  6-C ,  9-C ) :   1.0480
B(  9-C , 10-H ) :   0.9563 B(  9-C , 11-H ) :   0.9553 B(  9-C , 12-C ) :   1.0887
B( 12-C , 13-H ) :   0.9752 B( 12-C , 14-H ) :   0.9738 B( 12-C , 15-H ) :   0.9735
B( 16-S , 17-C ) :   1.1403 B( 16-S , 20-C ) :   1.1310 B( 17-C , 18-C ) :   1.6009
B( 17-C , 33-H ) :   0.9730 B( 18-C , 19-C ) :   1.2454 B( 18-C , 21-H ) :   1.0052
B( 19-C , 20-C ) :   1.5843 B( 19-C , 22-C ) :   1.0556 B( 22-C , 23-H ) :   0.9284
B( 22-C , 24-H ) :   0.9307 B( 22-C , 25-C ) :   1.0461 B( 25-C , 26-H ) :   0.9587
B( 25-C , 27-H ) :   0.9566 B( 25-C , 28-C ) :   1.0722 B( 28-C , 29-H ) :   0.9763
B( 28-C , 30-H ) :   0.9770 B( 28-C , 31-H ) :   0.9759

Dispersion correction           -0.014242871
FINAL SINGLE POINT ENERGY     -1339.872582328374

DIPOLE MOMENT
-------------
                                X             Y             Z
Electronic contribution:    -15.44124     -13.42266     -12.87875
Nuclear contribution   :     15.92133      13.66933      13.00537
                        -----------------------------------------
Total Dipole Moment    :      0.48009       0.24667       0.12662
                        -----------------------------------------
Magnitude (a.u.)       :      0.55440
Magnitude (Debye)      :      1.40918

Rotational constants in cm-1:     0.019572     0.008062     0.006673
Rotational constants in MHz :   586.765692   241.699174   200.038058

                             ****ORCA TERMINATED NORMALLY****
TOTAL RUN TIME: 0 days 0 hours 0 minutes 36 seconds 365 msec
