                         Program Version 4.2.1 -  RELEASE  -
|  1> ! wB97X-D3 SP def2-SVP
|  2> %pal
|  3> nprocs 16
|  4> end
|  5>
|  6> * xyz 0 1
|  7> S 	 39.9621 	 28.2207 	 50.6175
|  8> C 	 40.2785 	 29.8177 	 51.4303
|  9> C 	 40.8431 	 30.7363 	 50.5596
| 10> C 	 41.024 	 30.2013 	 49.2605
| 11> C 	 40.4279 	 28.9706 	 49.073
| 12> H 	 41.3751 	 30.7055 	 48.4207
| 13> C 	 41.4312 	 32.0763 	 50.9585
| 14> H 	 41.4511 	 32.0232 	 52.0506
| 15> H 	 40.6238 	 32.7942 	 50.7983
| 16> C 	 42.735 	 32.5244 	 50.2986
| 17> H 	 42.706 	 32.5639 	 49.1589
| 18> H 	 42.9141 	 33.5095 	 50.6589
| 19> C 	 44.0145 	 31.8466 	 50.7031
| 20> H 	 44.0703 	 31.8638 	 51.8169
| 21> H 	 44.0355 	 30.8466 	 50.3852
| 22> H 	 44.8876 	 32.317 	 50.2651
| 23> S 	 40.8494 	 26.5146 	 47.8865
| 24> C 	 40.1647 	 26.21 	 46.365
| 25> C 	 39.7547 	 27.383 	 45.6984
| 26> C 	 39.8645 	 28.5431 	 46.5404
| 27> C 	 40.3175 	 28.2266 	 47.8377
| 28> H 	 39.3773 	 27.2395 	 44.6939
| 29> C 	 39.2983 	 29.841 	 46.1098
| 30> H 	 39.0661 	 29.8569 	 45.0473
| 31> H 	 40.0176 	 30.6291 	 46.3174
| 32> C 	 37.9769 	 30.1804 	 46.66
| 33> H 	 37.629 	 31.2124 	 46.4259
| 34> H 	 37.8668 	 30.1829 	 47.7443
| 35> C 	 36.8886 	 29.247 	 46.0605
| 36> H 	 36.0004 	 29.4714 	 46.6058
| 37> H 	 37.1503 	 28.2023 	 46.1456
| 38> H 	 36.6918 	 29.4132 	 45.0218
| 39> H 	 40.0939 	 29.9178 	 52.4715
| 40> H 	 40.2529 	 25.2528 	 45.7925
| 41> *
| 42>
| 43>                          ****END OF INPUT****

CARTESIAN COORDINATES (ANGSTROEM)
---------------------------------
  S     39.962100   28.220700   50.617500
  C     40.278500   29.817700   51.430300
  C     40.843100   30.736300   50.559600
  C     41.024000   30.201300   49.260500
  C     40.427900   28.970600   49.073000
  H     41.375100   30.705500   48.420700
  C     41.431200   32.076300   50.958500
  H     41.451100   32.023200   52.050600
  H     40.623800   32.794200   50.798300
  C     42.735000   32.524400   50.298600
  H     42.706000   32.563900   49.158900
  H     42.914100   33.509500   50.658900
  C     44.014500   31.846600   50.703100
  H     44.070300   31.863800   51.816900
  H     44.035500   30.846600   50.385200
  H     44.887600   32.317000   50.265100
  S     40.849400   26.514600   47.886500
  C     40.164700   26.210000   46.365000
  C     39.754700   27.383000   45.698400
  C     39.864500   28.543100   46.540400
  C     40.317500   28.226600   47.837700
  H     39.377300   27.239500   44.693900
  C     39.298300   29.841000   46.109800
  H     39.066100   29.856900   45.047300
  H     40.017600   30.629100   46.317400
  C     37.976900   30.180400   46.660000
  H     37.629000   31.212400   46.425900
  H     37.866800   30.182900   47.744300
  C     36.888600   29.247000   46.060500
  H     36.000400   29.471400   46.605800
  H     37.150300   28.202300   46.145600
  H     36.691800   29.413200   45.021800
  H     40.093900   29.917800   52.471500
  H     40.252900   25.252800   45.792500

 Total Charge           Charge          ....    0
 Multiplicity           Mult            ....    1
 Number of Electrons    NEL             ....  134
 Basis Dimension        Dim             ....  322

ORBITAL ENERGIES
----------------

  NO   OCC          E(Eh)            E(eV)
   0   2.0000     -88.967076     -2420.9172
   1   2.0000     -88.965198     -2420.8661
   2   2.0000     -10.331199      -281.1262
   3   2.0000     -10.329718      -281.0859
   4   2.0000     -10.317747      -280.7602
   5   2.0000     -10.315889      -280.7096
   6   2.0000     -10.308419      -280.5063
   7   2.0000     -10.302526      -280.3460
   8   2.0000     -10.296207      -280.1740
   9   2.0000     -10.295861      -280.1646
  10   2.0000     -10.290854      -280.0284
  11   2.0000     -10.287669      -279.9417
  12   2.0000     -10.283892      -279.8389
  13   2.0000     -10.280149      -279.7371
  14   2.0000     -10.272309      -279.5237
  15   2.0000     -10.264365      -279.3076
  16   2.0000      -8.081989      -219.9221
  17   2.0000      -8.078573      -219.8291
  18   2.0000      -6.040329      -164.3657
  19   2.0000      -6.037161      -164.2795
  20   2.0000      -6.036454      -164.2603
  21   2.0000      -6.033488      -164.1796
  22   2.0000      -6.032942      -164.1647
  23   2.0000      -6.029119      -164.0607
  24   2.0000      -1.002626       -27.2828
  25   2.0000      -0.979031       -26.6408
  26   2.0000      -0.920144       -25.0384
  27   2.0000      -0.914153       -24.8754
  28   2.0000      -0.869298       -23.6548
  29   2.0000      -0.850139       -23.1335
  30   2.0000      -0.842800       -22.9338
  31   2.0000      -0.814537       -22.1647
  32   2.0000      -0.787811       -21.4374
  33   2.0000      -0.773483       -21.0475
  34   2.0000      -0.712344       -19.3839
  35   2.0000      -0.697269       -18.9737
  36   2.0000      -0.686483       -18.6802
  37   2.0000      -0.659265       -17.9395
  38   2.0000      -0.641648       -17.4601
  39   2.0000      -0.625257       -17.0141
  40   2.0000      -0.594745       -16.1838
  41   2.0000      -0.568947       -15.4818
  42   2.0000      -0.558546       -15.1988
  43   2.0000      -0.554903       -15.0997
  44   2.0000      -0.544828       -14.8255
  45   2.0000      -0.541788       -14.7428
  46   2.0000      -0.524498       -14.2723
  47   2.0000      -0.509919       -13.8756
  48   2.0000      -0.502024       -13.6608
  49   2.0000      -0.489051       -13.3078
  50   2.0000      -0.484356       -13.1800
  51   2.0000      -0.478521       -13.0212
  52   2.0000      -0.474534       -12.9127
  53   2.0000      -0.466129       -12.6840
  54   2.0000      -0.456517       -12.4224
  55   2.0000      -0.448032       -12.1916
  56   2.0000      -0.445743       -12.1293
  57   2.0000      -0.442408       -12.0385
  58   2.0000      -0.432482       -11.7684
  59   2.0000      -0.426010       -11.5923
  60   2.0000      -0.415932       -11.3181
  61   2.0000      -0.412217       -11.2170
  62   2.0000      -0.407913       -11.0999
  63   2.0000      -0.344240        -9.3673
  64   2.0000      -0.332864        -9.0577
  65   2.0000      -0.329939        -8.9781
  66   2.0000      -0.285042        -7.7564
  67   0.0000       0.020114         0.5473
  68   0.0000       0.065643         1.7862
  69   0.0000       0.102266         2.7828
  70   0.0000       0.118197         3.2163
  71   0.0000       0.133367         3.6291

MULLIKEN ATOMIC CHARGES
-----------------------
   0 S :    0.092415
   1 C :   -0.132695
   2 C :   -0.074829
   3 C :    0.045235
   4 C :   -0.140516
   5 H :   -0.016536
   6 C :    0.094645
   7 H :    0.011317
   8 H :    0.038612
   9 C :   -0.084848
  10 H :    0.042207
  11 H :    0.022530
  12 C :   -0.025515
  13 H :    0.028572
  14 H :    0.024003
  15 H :    0.033742
  16 S :    0.115311
  17 C :   -0.108353
  18 C :   -0.067575
  19 C :   -0.011795
  20 C :   -0.171245
  21 H :    0.023635
  22 C :    0.105767
  23 H :    0.012403
  24 H :    0.024159
  25 C :   -0.079595
  26 H :    0.022457
  27 H :    0.035387
  28 C :   -0.054156
  29 H :    0.024522
  30 H :    0.041305
  31 H :    0.017667
  32 H :    0.038741
  33 H :    0.073026
Sum of atomic charges:    0.0000000

LOEWDIN ATOMIC CHARGES
----------------------
   0 S :    0.362363
   1 C :   -0.173736
   2 C :   -0.058304
   3 C :   -0.059225
   4 C :   -0.175797
   5 H :    0.019534
   6 C :   -0.032540
   7 H :    0.031847
   8 H :    0.038659
   9 C :   -0.046472
  10 H :    0.031522
  11 H :    0.025790
  12 C :   -0.058760
  13 H :    0.028905
  14 H :    0.016489
  15 H :    0.027889
  16 S :    0.415411
  17 C :   -0.211026
  18 C :   -0.077973
  19 C :   -0.047533
  20 C :   -0.187791
  21 H :    0.032815
  22 C :   -0.039094
  23 H :    0.034879
  24 H :    0.029104
  25 C :   -0.038404
  26 H :    0.026599
  27 H :    0.023401
  28 C :   -0.061125
  29 H :    0.023459
  30 H :    0.024249
  31 H :    0.017494
  32 H :    0.018160
  33 H :    0.039211

  Mayer bond orders larger than 0.100000
B(  0-S ,  1-C ) :   1.1129 B(  0-S ,  4-C ) :   1.1361 B(  1-C ,  2-C ) :   1.6220
B(  1-C ,  4-C ) :   0.1001 B(  1-C , 32-H ) :   0.9738 B(  2-C ,  3-C ) :   1.2221
B(  2-C ,  6-C ) :   1.0078 B(  3-C ,  4-C ) :   1.5841 B(  3-C ,  5-H ) :   0.9983
B(  4-C , 20-C ) :   1.0777 B(  6-C ,  7-H ) :   0.9390 B(  6-C ,  8-H ) :   0.9234
B(  6-C ,  9-C ) :   1.0837 B(  9-C , 10-H ) :   0.9470 B(  9-C , 11-H ) :   0.9483
B(  9-C , 12-C ) :   1.0856 B( 12-C , 13-H ) :   0.9720 B( 12-C , 14-H ) :   0.9752
B( 12-C , 15-H ) :   0.9717 B( 16-S , 17-C ) :   1.1760 B( 16-S , 20-C ) :   1.1440
B( 17-C , 18-C ) :   1.5920 B( 17-C , 20-C ) :   0.1027 B( 17-C , 33-H ) :   0.9575
B( 18-C , 19-C ) :   1.2415 B( 18-C , 21-H ) :   0.9923 B( 19-C , 20-C ) :   1.5520
B( 19-C , 22-C ) :   1.0666 B( 22-C , 23-H ) :   0.9285 B( 22-C , 24-H ) :   0.9194
B( 22-C , 25-C ) :   1.0784 B( 25-C , 26-H ) :   0.9519 B( 25-C , 27-H ) :   0.9576
B( 25-C , 28-C ) :   1.0706 B( 28-C , 29-H ) :   0.9729 B( 28-C , 30-H ) :   0.9771
B( 28-C , 31-H ) :   0.9740

Dispersion correction           -0.014890580
FINAL SINGLE POINT ENERGY     -1339.869893647544

DIPOLE MOMENT
-------------
                                X             Y             Z
Electronic contribution:      0.47613     -21.24093       4.65939
Nuclear contribution   :     -0.41853      21.84761      -4.88542
                        -----------------------------------------
Total Dipole Moment    :      0.05760       0.60668      -0.22603
                        -----------------------------------------
Magnitude (a.u.)       :      0.64998
Magnitude (Debye)      :      1.65211

Rotational constants in cm-1:     0.020043     0.008531     0.007614
Rotational constants in MHz :   600.882191   255.767155   228.247237

                             ****ORCA TERMINATED NORMALLY****
TOTAL RUN TIME: 0 days 0 hours 0 minutes 34 seconds 721 msec
