                         Program Version 4.2.1 -  RELEASE  -
|  1> ! wB97X-D3 SP def2-SVP
|  2> %pal
|  3> nprocs 16
|  4> end
|  5>
|  6> * xyz 0 1
|  7> S 	 25.3583 	 -13.3588 	 81.3154
|  8> C 	 25.46 	 -13.3212 	 79.6037
|  9> C 	 24.6816 	 -12.31 	 79.0963
| 10> C 	 24.0978 	 -11.4756 	 80.1161
| 11> C 	 24.2611 	 -12.0454 	 81.3982
| 12> H 	 23.4539 	 -10.6126 	 79.964
| 13> C 	 24.4099 	 -11.8212 	 77.6577
| 14> H 	 23.3627 	 -11.4943 	 77.6066
| 15> H 	 24.4897 	 -12.5963 	 76.9163
| 16> C 	 25.4286 	 -10.7164 	 77.2357
| 17> H 	 25.1733 	 -10.2071 	 76.3129
| 18> H 	 25.3025 	 -9.86475 	 77.9638
| 19> C 	 26.7859 	 -11.4097 	 77.0774
| 20> H 	 27.5242 	 -10.8376 	 76.3668
| 21> H 	 27.2612 	 -11.6072 	 78.0359
| 22> H 	 26.6923 	 -12.3715 	 76.5022
| 23> S 	 22.8455 	 -12.2378 	 83.7888
| 24> C 	 22.8414 	 -10.818 	 84.8281
| 25> C 	 23.8975 	 -9.94443 	 84.3705
| 26> C 	 24.465 	 -10.2567 	 83.1381
| 27> C 	 23.9866 	 -11.4727 	 82.6896
| 28> H 	 24.1251 	 -9.08367 	 84.924
| 29> C 	 25.4583 	 -9.33397 	 82.5149
| 30> H 	 26.1607 	 -9.95693 	 81.8752
| 31> H 	 26.0986 	 -8.97122 	 83.3397
| 32> C 	 24.6676 	 -8.18629 	 81.767
| 33> H 	 23.9327 	 -7.73297 	 82.4549
| 34> H 	 24.1184 	 -8.58482 	 80.9306
| 35> C 	 25.4666 	 -6.99265 	 81.3157
| 36> H 	 24.6759 	 -6.26742 	 80.9611
| 37> H 	 26.2201 	 -7.24508 	 80.5122
| 38> H 	 25.8775 	 -6.40523 	 82.1615
| 39> H 	 25.9528 	 -14.0085 	 79.0132
| 40> H 	 22.3888 	 -10.7576 	 85.7545
| 41> *
| 42>
| 43>                          ****END OF INPUT****

CARTESIAN COORDINATES (ANGSTROEM)
---------------------------------
  S     25.358300  -13.358800   81.315400
  C     25.460000  -13.321200   79.603700
  C     24.681600  -12.310000   79.096300
  C     24.097800  -11.475600   80.116100
  C     24.261100  -12.045400   81.398200
  H     23.453900  -10.612600   79.964000
  C     24.409900  -11.821200   77.657700
  H     23.362700  -11.494300   77.606600
  H     24.489700  -12.596300   76.916300
  C     25.428600  -10.716400   77.235700
  H     25.173300  -10.207100   76.312900
  H     25.302500   -9.864750   77.963800
  C     26.785900  -11.409700   77.077400
  H     27.524200  -10.837600   76.366800
  H     27.261200  -11.607200   78.035900
  H     26.692300  -12.371500   76.502200
  S     22.845500  -12.237800   83.788800
  C     22.841400  -10.818000   84.828100
  C     23.897500   -9.944430   84.370500
  C     24.465000  -10.256700   83.138100
  C     23.986600  -11.472700   82.689600
  H     24.125100   -9.083670   84.924000
  C     25.458300   -9.333970   82.514900
  H     26.160700   -9.956930   81.875200
  H     26.098600   -8.971220   83.339700
  C     24.667600   -8.186290   81.767000
  H     23.932700   -7.732970   82.454900
  H     24.118400   -8.584820   80.930600
  C     25.466600   -6.992650   81.315700
  H     24.675900   -6.267420   80.961100
  H     26.220100   -7.245080   80.512200
  H     25.877500   -6.405230   82.161500
  H     25.952800  -14.008500   79.013200
  H     22.388800  -10.757600   85.754500

 Total Charge           Charge          ....    0
 Multiplicity           Mult            ....    1
 Number of Electrons    NEL             ....  134
 Basis Dimension        Dim             ....  322

ORBITAL ENERGIES
----------------

  NO   OCC          E(Eh)            E(eV)
   0   2.0000     -88.968260     -2420.9494
   1   2.0000     -88.963966     -2420.8326
   2   2.0000     -10.324376      -280.9406
   3   2.0000     -10.321295      -280.8567
   4   2.0000     -10.318492      -280.7804
   5   2.0000     -10.307285      -280.4755
   6   2.0000     -10.302125      -280.3351
   7   2.0000     -10.299235      -280.2564
   8   2.0000     -10.296357      -280.1781
   9   2.0000     -10.296292      -280.1763
  10   2.0000     -10.294008      -280.1142
  11   2.0000     -10.293247      -280.0935
  12   2.0000     -10.291041      -280.0335
  13   2.0000     -10.290823      -280.0275
  14   2.0000     -10.289377      -279.9882
  15   2.0000     -10.286463      -279.9089
  16   2.0000      -8.082352      -219.9320
  17   2.0000      -8.079975      -219.8673
  18   2.0000      -6.040789      -164.3782
  19   2.0000      -6.038364      -164.3123
  20   2.0000      -6.036843      -164.2709
  21   2.0000      -6.034085      -164.1958
  22   2.0000      -6.033349      -164.1758
  23   2.0000      -6.031014      -164.1122
  24   2.0000      -1.010023       -27.4841
  25   2.0000      -0.984911       -26.8008
  26   2.0000      -0.910332       -24.7714
  27   2.0000      -0.908157       -24.7122
  28   2.0000      -0.867253       -23.5992
  29   2.0000      -0.857232       -23.3265
  30   2.0000      -0.843866       -22.9628
  31   2.0000      -0.804821       -21.9003
  32   2.0000      -0.779212       -21.2034
  33   2.0000      -0.772250       -21.0140
  34   2.0000      -0.706138       -19.2150
  35   2.0000      -0.698363       -19.0034
  36   2.0000      -0.693423       -18.8690
  37   2.0000      -0.667275       -18.1575
  38   2.0000      -0.647295       -17.6138
  39   2.0000      -0.618359       -16.8264
  40   2.0000      -0.593129       -16.1399
  41   2.0000      -0.567509       -15.4427
  42   2.0000      -0.564274       -15.3547
  43   2.0000      -0.547948       -14.9104
  44   2.0000      -0.539229       -14.6732
  45   2.0000      -0.530775       -14.4431
  46   2.0000      -0.522924       -14.2295
  47   2.0000      -0.511813       -13.9271
  48   2.0000      -0.503867       -13.7109
  49   2.0000      -0.497953       -13.5500
  50   2.0000      -0.492166       -13.3925
  51   2.0000      -0.473122       -12.8743
  52   2.0000      -0.466924       -12.7056
  53   2.0000      -0.461068       -12.5463
  54   2.0000      -0.457790       -12.4571
  55   2.0000      -0.448838       -12.2135
  56   2.0000      -0.444708       -12.1011
  57   2.0000      -0.432500       -11.7689
  58   2.0000      -0.428690       -11.6653
  59   2.0000      -0.424831       -11.5602
  60   2.0000      -0.421023       -11.4566
  61   2.0000      -0.419081       -11.4038
  62   2.0000      -0.413687       -11.2570
  63   2.0000      -0.334528        -9.1030
  64   2.0000      -0.332027        -9.0349
  65   2.0000      -0.327118        -8.9013
  66   2.0000      -0.298074        -8.1110
  67   0.0000       0.035460         0.9649
  68   0.0000       0.059538         1.6201
  69   0.0000       0.110946         3.0190
  70   0.0000       0.122308         3.3282
  71   0.0000       0.124949         3.4000

MULLIKEN ATOMIC CHARGES
-----------------------
   0 S :    0.117409
   1 C :   -0.085899
   2 C :   -0.092612
   3 C :    0.003872
   4 C :   -0.151865
   5 H :    0.027109
   6 C :    0.053694
   7 H :    0.031145
   8 H :    0.014872
   9 C :   -0.052771
  10 H :    0.027168
  11 H :    0.031811
  12 C :   -0.100535
  13 H :    0.044031
  14 H :    0.056933
  15 H :    0.033309
  16 S :    0.122290
  17 C :   -0.078093
  18 C :   -0.033755
  19 C :   -0.009739
  20 C :   -0.192077
  21 H :   -0.002748
  22 C :    0.077596
  23 H :    0.044576
  24 H :    0.029037
  25 C :   -0.080443
  26 H :    0.029849
  27 H :    0.021213
  28 C :   -0.059920
  29 H :    0.034716
  30 H :    0.052420
  31 H :    0.034033
  32 H :    0.014531
  33 H :    0.038845
Sum of atomic charges:   -0.0000000

LOEWDIN ATOMIC CHARGES
----------------------
   0 S :    0.442031
   1 C :   -0.201267
   2 C :   -0.059815
   3 C :   -0.060293
   4 C :   -0.207076
   5 H :    0.030085
   6 C :   -0.027930
   7 H :    0.030216
   8 H :    0.020369
   9 C :   -0.044446
  10 H :    0.021766
  11 H :    0.027148
  12 C :   -0.076963
  13 H :    0.034719
  14 H :    0.026532
  15 H :    0.028696
  16 S :    0.410560
  17 C :   -0.178735
  18 C :   -0.057122
  19 C :   -0.055941
  20 C :   -0.213638
  21 H :    0.018222
  22 C :   -0.032249
  23 H :    0.038688
  24 H :    0.034731
  25 C :   -0.039911
  26 H :    0.029803
  27 H :    0.020690
  28 C :   -0.076717
  29 H :    0.034221
  30 H :    0.030568
  31 H :    0.026267
  32 H :    0.013572
  33 H :    0.013219

  Mayer bond orders larger than 0.100000
B(  0-S ,  1-C ) :   1.1502 B(  0-S ,  4-C ) :   1.1884 B(  1-C ,  2-C ) :   1.5974
B(  1-C , 32-H ) :   0.9808 B(  2-C ,  3-C ) :   1.2442 B(  2-C ,  6-C ) :   1.0196
B(  3-C ,  4-C ) :   1.5548 B(  3-C ,  5-H ) :   0.9926 B(  4-C , 20-C ) :   1.0037
B(  6-C ,  7-H ) :   0.9445 B(  6-C ,  8-H ) :   0.9495 B(  6-C ,  9-C ) :   1.0630
B(  9-C , 10-H ) :   0.9585 B(  9-C , 11-H ) :   0.9582 B(  9-C , 12-C ) :   1.0539
B( 12-C , 13-H ) :   0.9745 B( 12-C , 14-H ) :   0.9755 B( 12-C , 15-H ) :   0.9730
B( 16-S , 17-C ) :   1.1694 B( 16-S , 20-C ) :   1.1548 B( 17-C , 18-C ) :   1.5553
B( 17-C , 20-C ) :   0.1203 B( 17-C , 33-H ) :   0.9782 B( 18-C , 19-C ) :   1.2824
B( 18-C , 21-H ) :   0.9891 B( 19-C , 20-C ) :   1.5607 B( 19-C , 22-C ) :   1.0424
B( 22-C , 23-H ) :   0.9272 B( 22-C , 24-H ) :   0.9373 B( 22-C , 25-C ) :   1.0438
B( 25-C , 26-H ) :   0.9593 B( 25-C , 27-H ) :   0.9510 B( 25-C , 28-C ) :   1.0954
B( 28-C , 29-H ) :   0.9706 B( 28-C , 30-H ) :   0.9707 B( 28-C , 31-H ) :   0.9723

Dispersion correction           -0.015409728
FINAL SINGLE POINT ENERGY     -1339.867503113463

DIPOLE MOMENT
-------------
                                X             Y             Z
Electronic contribution:     -9.54523     -21.00374      19.79092
Nuclear contribution   :      9.67146      21.59090     -20.09588
                        -----------------------------------------
Total Dipole Moment    :      0.12623       0.58717      -0.30496
                        -----------------------------------------
Magnitude (a.u.)       :      0.67357
Magnitude (Debye)      :      1.71208

Rotational constants in cm-1:     0.018705     0.009837     0.007188
Rotational constants in MHz :   560.767408   294.892122   215.480587

                             ****ORCA TERMINATED NORMALLY****
TOTAL RUN TIME: 0 days 0 hours 0 minutes 32 seconds 90 msec
